<event>
12    6  0.1457317E-007  0.1510520E+04  0.7818608E-02  0.8877487E-01
         -1   -1    0    0    0  501 -0.00000000000E+00  0.00000000000E+00  0.14814420505E+04  0.14814420505E+04  0.00000000000E+00 0.  1.
          2   -1    0    0  501    0  0.00000000000E+00 -0.00000000000E+00 -0.38504242327E+03  0.38504242327E+03  0.00000000000E+00 0. -1.
         24    2    1    2    0    0  0.11368728406E+03 -0.46351364627E+03  0.45187977981E+03  0.66290823677E+03  0.86500266747E+02 0.  0.
        254    2    1    2    0    0 -0.11368728406E+03  0.46351364627E+03  0.64451984741E+03  0.12035762370E+04  0.89745207433E+03 0.  0.
         23    2    4    4    0    0  0.14645054094E+03  0.19917164899E+03 -0.16353891469E+03  0.30978864402E+03  0.90038439808E+02 0.  0.
         23    2    4    4    0    0 -0.26013782500E+03  0.26434199727E+03  0.80805876210E+03  0.89378759298E+03  0.91372418335E+02 0.  0.
          4    1    3    3  502    0  0.73102949323E+02 -0.28998740330E+03  0.22414786049E+03  0.37373653639E+03  0.00000000000E+00 0. -1.
         -3    1    3    3    0  502  0.40584334734E+02 -0.17352624297E+03  0.22773191931E+03  0.28917170038E+03  0.00000000000E+00 0.  1.
         11    1    5    5    0    0  0.14503620491E+03  0.16931680509E+03 -0.16854545235E+03  0.27948390066E+03  0.00000000000E+00 0. -1.
        -11    1    5    5    0    0  0.14143360291E+01  0.29854843899E+02  0.50065376621E+01  0.30304743358E+02  0.00000000000E+00 0.  1.
          1    1    6    6  503    0 -0.26503993979E+03  0.24798723892E+03  0.74904205783E+03  0.83235079428E+03  0.00000000000E+00 0. -1.
         -1    1    6    6    0  503  0.49021147905E+01  0.16354758349E+02  0.59016704277E+02  0.61436798694E+02  0.00000000000E+00 0.  1.
<mgrwt>
<rscale>  0 0.15105205E+04</rscale>
<asrwt>0</asrwt>
<pdfrwt beam="1">  1        2 0.59237296E-01 0.15105205E+04</pdfrwt>
<pdfrwt beam="2">  1       -1 0.22791416E+00 0.15105205E+04</pdfrwt>
<totfact> 0.89370364E+00</totfact>
</mgrwt>
</event>
<event>
12    6  0.2260471E-007  0.2521202E+04  0.7818608E-02  0.8395471E-01
         -1   -1    0    0    0  501 -0.00000000000E+00  0.00000000000E+00  0.59479166710E+03  0.59479166710E+03  0.00000000000E+00 0.  1.
          2   -1    0    0  501    0  0.00000000000E+00 -0.00000000000E+00 -0.26717159787E+04  0.26717159787E+04  0.00000000000E+00 0. -1.
         24    2    1    2    0    0  0.10650744758E+04 -0.58853159748E+02 -0.12449202386E+04  0.16412645527E+04  0.77946122095E+02 0.  0.
        254    2    1    2    0    0 -0.10650744758E+04  0.58853159748E+02 -0.83200407296E+03  0.16252430931E+04  0.90074247200E+03 0.  0.
         23    2    4    4    0    0 -0.11824849390E+04 -0.20718205239E+02 -0.84518810377E+03  0.14564510224E+04  0.90591251074E+02 0.  0.
         23    2    4    4    0    0  0.11741046323E+03  0.79571364987E+02  0.13184030806E+02  0.16879207073E+03  0.90554544184E+02 0.  0.
          2    1    3    3  502    0  0.84632082074E+03 -0.39097865448E+02 -0.10337665286E+04  0.13365855043E+04  0.00000000000E+00 0. -1.
         -1    1    3    3    0  502  0.21875365504E+03 -0.19755294301E+02 -0.21115370998E+03  0.30467904832E+03  0.00000000000E+00 0.  1.
         11    1    5    5    0    0 -0.11658650756E+04 -0.28335915902E+02 -0.84064646081E+03  0.14376128723E+04  0.00000000000E+00 0. -1.
        -11    1    5    5    0    0 -0.16619863450E+02  0.76177106632E+01 -0.45416429597E+01  0.18838150058E+02  0.00000000000E+00 0.  1.
          1    1    6    6  503    0  0.12675949645E+03  0.62223019043E+02  0.28224763646E+02  0.14400108097E+03  0.00000000000E+00 0. -1.
         -1    1    6    6    0  503 -0.93490332153E+01  0.17348345944E+02 -0.15040732839E+02  0.24790989762E+02  0.00000000000E+00 0.  1.
<mgrwt>
<rscale>  0 0.25212016E+04</rscale>
<asrwt>0</asrwt>
<pdfrwt beam="1">  1        2 0.41103323E+00 0.25212016E+04</pdfrwt>
<pdfrwt beam="2">  1       -1 0.91506409E-01 0.25212016E+04</pdfrwt>
<totfact> 0.32537504E+00</totfact>
</mgrwt>
</event>
<event>
12    6  0.1457317E-007  0.2525176E+04  0.7818608E-02  0.8394071E-01
          2   -1    0    0  501    0  0.00000000000E+00  0.00000000000E+00  0.63546143114E+03  0.63546143114E+03  0.00000000000E+00 0. -1.
         -1   -1    0    0    0  501 -0.00000000000E+00 -0.00000000000E+00 -0.25086164369E+04  0.25086164369E+04  0.00000000000E+00 0.  1.
         24    2    1    2    0    0 -0.55302291555E+02 -0.26227948516E+03  0.51035270162E+03  0.58211853559E+03  0.80952069962E+02 0.  0.
        254    2    1    2    0    0  0.55302291555E+02  0.26227948516E+03 -0.23835077074E+04  0.25619593325E+04  0.90037645361E+03 0.  0.
         23    2    4    4    0    0 -0.38108738694E+03  0.35375786840E+02 -0.14573358855E+04  0.15093131628E+04  0.87859532098E+02 0.  0.
         23    2    4    4    0    0  0.43638967850E+03  0.22690369832E+03 -0.92617182186E+03  0.10526461697E+04  0.91369990002E+02 0.  0.
          2    1    3    3  502    0 -0.59186879138E+02 -0.24064840325E+03  0.49952273838E+03  0.55761788602E+03  0.00000000000E+00 0. -1.
         -1    1    3    3    0  502  0.38845875836E+01 -0.21631081914E+02  0.10829963244E+02  0.24500649569E+02  0.00000000000E+00 0.  1.
         11    1    5    5    0    0 -0.33061802848E+03  0.35978006515E+02 -0.11236880732E+04  0.11718692689E+04  0.00000000000E+00 0.  1.
        -11    1    5    5    0    0 -0.50469358466E+02 -0.60221967439E+00 -0.33364781235E+03  0.33744389386E+03  0.00000000000E+00 0. -1.
          2    1    6    6  503    0  0.12481905416E+03  0.11086391070E+03 -0.33900466004E+03  0.37788194256E+03  0.00000000000E+00 0. -1.
         -2    1    6    6    0  503  0.31157062434E+03  0.11603978762E+03 -0.58716716182E+03  0.67476422710E+03  0.00000000000E+00 0.  1.
<mgrwt>
<rscale>  0 0.25251764E+04</rscale>
<asrwt>0</asrwt>
<pdfrwt beam="1">  1        2 0.97763298E-01 0.25251764E+04</pdfrwt>
<pdfrwt beam="2">  1       -1 0.38594098E+00 0.25251764E+04</pdfrwt>
<totfact> 0.41877679E-01</totfact>
</mgrwt>
</event>
<event>
12    6  0.1457317E-007  0.1374187E+04  0.7818608E-02  0.8972718E-01
         -1   -1    0    0    0  501 -0.00000000000E+00  0.00000000000E+00  0.28491369837E+03  0.28491369837E+03  0.00000000000E+00 0.  1.
          2   -1    0    0  501    0  0.00000000000E+00 -0.00000000000E+00 -0.16569852415E+04  0.16569852415E+04  0.00000000000E+00 0. -1.
         24    2    1    2    0    0  0.10506126862E+03 -0.43578862638E+02  0.12645030077E+03  0.18761895706E+03  0.79209892379E+02 0.  0.
        254    2    1    2    0    0 -0.10506126862E+03  0.43578862638E+02 -0.14985218439E+04  0.17542799828E+04  0.90498262636E+03 0.  0.
         23    2    4    4    0    0 -0.43567901397E+03  0.25117849882E+03 -0.81481988947E+03  0.96182290628E+03  0.90912096508E+02 0.  0.
         23    2    4    4    0    0  0.33061774535E+03 -0.20759963618E+03 -0.68370195448E+03  0.79245707657E+03  0.90189540193E+02 0.  0.
          4    1    3    3  502    0  0.70182240982E+02 -0.47310925391E+02  0.38603256492E+02  0.93027318689E+02  0.00000000000E+00 0. -1.
         -3    1    3    3    0  502  0.34879027635E+02  0.37320627528E+01  0.87847044278E+02  0.94591638370E+02  0.00000000000E+00 0.  1.
         11    1    5    5    0    0 -0.27381911169E+02 -0.43709155898E+01 -0.28977629451E+02  0.40107068840E+02  0.00000000000E+00 0.  1.
        -11    1    5    5    0    0 -0.40829710280E+03  0.25554941441E+03 -0.78584226002E+03  0.92171583744E+03  0.00000000000E+00 0. -1.
          3    1    6    6  503    0  0.29513522012E+03 -0.15168887694E+03 -0.53312004311E+03  0.62795803515E+03  0.00000000000E+00 0. -1.
         -3    1    6    6    0  503  0.35482525226E+02 -0.55910759245E+02 -0.15058191136E+03  0.16449904141E+03  0.00000000000E+00 0.  1.
<mgrwt>
<rscale>  0 0.13741875E+04</rscale>
<asrwt>0</asrwt>
<pdfrwt beam="1">  1        2 0.25492080E+00 0.13741875E+04</pdfrwt>
<pdfrwt beam="2">  1       -1 0.43832877E-01 0.13741875E+04</pdfrwt>
<totfact> 0.59212734E+01</totfact>
</mgrwt>
</event>
<event>
12    6  0.1457317E-007  0.1638464E+04  0.7818608E-02  0.8797260E-01
         -1   -1    0    0    0  501 -0.00000000000E+00  0.00000000000E+00  0.78198946995E+03  0.78198946995E+03  0.00000000000E+00 0.  1.
          2   -1    0    0  501    0  0.00000000000E+00 -0.00000000000E+00 -0.85824825554E+03  0.85824825554E+03  0.00000000000E+00 0. -1.
         24    2    1    2    0    0 -0.77957362294E+01 -0.11287663713E+02 -0.59676447861E+03  0.60018613786E+03  0.62508977732E+02 0.  0.
        254    2    1    2    0    0  0.77957362294E+01  0.11287663713E+02  0.52050569301E+03  0.10400515876E+04  0.90032935285E+03 0.  0.
         23    2    4    4    0    0  0.20888051831E+03 -0.12872196866E+02 -0.18965151622E+03  0.29605218736E+03  0.88783082026E+02 0.  0.
         23    2    4    4    0    0 -0.20108478208E+03  0.24159860580E+02  0.71015720923E+03  0.74399940027E+03  0.90515508742E+02 0.  0.
          4    1    3    3  502    0 -0.15022360630E+01 -0.35877147451E+02 -0.43054928304E+03  0.43204410834E+03  0.00000000000E+00 0. -1.
         -3    1    3    3    0  502 -0.62935001664E+01  0.24589483738E+02 -0.16621519557E+03  0.16814202952E+03  0.00000000000E+00 0.  1.
         11    1    5    5    0    0  0.67045959916E+02  0.37297481345E+02 -0.69388577350E+02  0.10344581926E+03  0.00000000000E+00 0.  1.
        -11    1    5    5    0    0  0.14183455839E+03 -0.50169678212E+02 -0.12026293887E+03  0.19260636810E+03  0.00000000000E+00 0. -1.
          3    1    6    6  503    0 -0.16266760283E+03  0.55853024854E+02  0.54434689917E+03  0.57087113785E+03  0.00000000000E+00 0. -1.
         -3    1    6    6    0  503 -0.38417179244E+02 -0.31693164275E+02  0.16581031006E+03  0.17312826241E+03  0.00000000000E+00 0.  1.
<mgrwt>
<rscale>  0 0.16384640E+04</rscale>
<asrwt>0</asrwt>
<pdfrwt beam="1">  1        2 0.13203819E+00 0.16384640E+04</pdfrwt>
<pdfrwt beam="2">  1       -1 0.12030607E+00 0.16384640E+04</pdfrwt>
<totfact> 0.21033930E+01</totfact>
</mgrwt>
</event>
<event>
12    6  0.1457317E-007  0.1436406E+04  0.7818608E-02  0.8927880E-01
         -1   -1    0    0    0  501 -0.00000000000E+00  0.00000000000E+00  0.37290613427E+03  0.37290613427E+03  0.00000000000E+00 0.  1.
          2   -1    0    0  501    0  0.00000000000E+00 -0.00000000000E+00 -0.13832312778E+04  0.13832312778E+04  0.00000000000E+00 0. -1.
         24    2    1    2    0    0  0.18112564758E+03  0.22052809329E+03  0.70168763973E+02  0.30346254839E+03  0.75675112801E+02 0.  0.
        254    2    1    2    0    0 -0.18112564758E+03 -0.22052809329E+03 -0.10804939075E+04  0.14526748637E+04  0.92809376429E+03 0.  0.
         23    2    4    4    0    0 -0.60550390196E+02  0.33664669745E+03 -0.62132133190E+03  0.71486468996E+03  0.89409053373E+02 0.  0.
         23    2    4    4    0    0 -0.12057525738E+03 -0.55717479075E+03 -0.45917257562E+03  0.73781017374E+03  0.92424337353E+02 0.  0.
          2    1    3    3  502    0  0.46630932630E+02  0.42977950237E+02 -0.14708930268E+02  0.65099160626E+02  0.00000000000E+00 0. -1.
         -1    1    3    3    0  502  0.13449471495E+03  0.17755014305E+03  0.84877694241E+02  0.23836338777E+03  0.00000000000E+00 0.  1.
         11    1    5    5    0    0  0.16772896930E+02  0.11366737340E+03 -0.24597605487E+03  0.27148816072E+03  0.00000000000E+00 0. -1.
        -11    1    5    5    0    0 -0.77323287126E+02  0.22297932406E+03 -0.37534527703E+03  0.44337652924E+03  0.00000000000E+00 0.  1.
          3    1    6    6  503    0 -0.12697637392E+03 -0.38921300795E+03 -0.32894730510E+03  0.52518196335E+03  0.00000000000E+00 0. -1.
         -3    1    6    6    0  503  0.64011165379E+01 -0.16796178279E+03 -0.13022527052E+03  0.21262821039E+03  0.00000000000E+00 0.  1.
<mgrwt>
<rscale>  0 0.14364058E+04</rscale>
<asrwt>0</asrwt>
<pdfrwt beam="1">  1        2 0.21280481E+00 0.14364058E+04</pdfrwt>
<pdfrwt beam="2">  1       -1 0.57370175E-01 0.14364058E+04</pdfrwt>
<totfact> 0.50361501E+01</totfact>
</mgrwt>
</event>
<event>
12    6  0.1457317E-007  0.2157294E+04  0.7818608E-02  0.8536417E-01
         -1   -1    0    0    0  501 -0.00000000000E+00  0.00000000000E+00  0.85452343182E+03  0.85452343182E+03  0.00000000000E+00 0.  1.
          2   -1    0    0  501    0  0.00000000000E+00 -0.00000000000E+00 -0.13615528708E+04  0.13615528708E+04  0.00000000000E+00 0. -1.
         24    2    1    2    0    0  0.27891093413E+03  0.77501026184E+03  0.13777355862E+03  0.83700020709E+03  0.56174532394E+02 0.  0.
        254    2    1    2    0    0 -0.27891093413E+03 -0.77501026184E+03 -0.64480299756E+03  0.13790760955E+04  0.89869224786E+03 0.  0.
         23    2    4    4    0    0 -0.12895787153E+03 -0.93351639083E+03 -0.36879064442E+03  0.10160988755E+04  0.91473497897E+02 0.  0.
         23    2    4    4    0    0 -0.14995306260E+03  0.15850612899E+03 -0.27601235314E+03  0.36297721999E+03  0.89216193786E+02 0.  0.
          4    1    3    3  502    0  0.55212755926E+02  0.19176144782E+03  0.54022649159E+02  0.20673497021E+03  0.00000000000E+00 0. -1.
         -3    1    3    3    0  502  0.22369817820E+03  0.58324881402E+03  0.83750909458E+02  0.63026523688E+03  0.00000000000E+00 0.  1.
         11    1    5    5    0    0 -0.12097247734E+03 -0.85638599572E+03 -0.30991444925E+03  0.91873732905E+03  0.00000000000E+00 0. -1.
        -11    1    5    5    0    0 -0.79853941843E+01 -0.77130395103E+02 -0.58876195172E+02  0.97361546449E+02  0.00000000000E+00 0.  1.
          1    1    6    6  503    0 -0.13018236934E+03  0.15119121500E+03 -0.19394667655E+03  0.27824727514E+03  0.00000000000E+00 0. -1.
         -1    1    6    6    0  503 -0.19770693254E+02  0.73149139888E+01 -0.82065676595E+02  0.84729944844E+02  0.00000000000E+00 0.  1.
<mgrwt>
<rscale>  0 0.21572935E+04</rscale>
<asrwt>0</asrwt>
<pdfrwt beam="1">  1        2 0.20946967E+00 0.21572935E+04</pdfrwt>
<pdfrwt beam="2">  1       -1 0.13146514E+00 0.21572935E+04</pdfrwt>
<totfact> 0.78460555E+00</totfact>
</mgrwt>
</event>
<event>
12    6  0.1457317E-007  0.2033513E+04  0.7818608E-02  0.8591111E-01
          2   -1    0    0  501    0  0.00000000000E+00  0.00000000000E+00  0.54011922523E+03  0.54011922523E+03  0.00000000000E+00 0. -1.
         -1   -1    0    0    0  501 -0.00000000000E+00 -0.00000000000E+00 -0.19140097511E+04  0.19140097511E+04  0.00000000000E+00 0.  1.
         24    2    1    2    0    0 -0.39289710577E+03 -0.67066653075E+03 -0.23406246476E+03  0.81566879680E+03  0.79803618104E+02 0.  0.
        254    2    1    2    0    0  0.39289710577E+03  0.67066653075E+03 -0.11398280611E+04  0.16384601796E+04  0.88384502027E+03 0.  0.
         23    2    4    4    0    0  0.64315609663E+03  0.62962474922E+03 -0.82727943723E+03  0.12259308966E+04  0.91859710750E+02 0.  0.
         23    2    4    4    0    0 -0.25025899086E+03  0.41041781529E+02 -0.31254862390E+03  0.41252928298E+03  0.90442117794E+02 0.  0.
          2    1    3    3  502    0 -0.37644700889E+03 -0.59764291442E+03 -0.21688258827E+03  0.73886904168E+03  0.00000000000E+00 0. -1.
         -1    1    3    3    0  502 -0.16450096879E+02 -0.73023616329E+02 -0.17179876491E+02  0.76799755113E+02  0.00000000000E+00 0.  1.
         11    1    5    5    0    0  0.47382204306E+03  0.51017688320E+03 -0.61007651435E+03  0.92573275518E+03  0.00000000000E+00 0. -1.
        -11    1    5    5    0    0  0.16933405357E+03  0.11944786602E+03 -0.21720292288E+03  0.30019814141E+03  0.00000000000E+00 0.  1.
          1    1    6    6  503    0 -0.19246913906E+03 -0.78590283545E+01 -0.20861268130E+03  0.28394609456E+03  0.00000000000E+00 0. -1.
         -1    1    6    6    0  503 -0.57789851808E+02  0.48900809884E+02 -0.10393594261E+03  0.12858318842E+03  0.00000000000E+00 0.  1.
<mgrwt>
<rscale>  0 0.20335127E+04</rscale>
<asrwt>0</asrwt>
<pdfrwt beam="1">  1        2 0.83095263E-01 0.20335127E+04</pdfrwt>
<pdfrwt beam="2">  1       -1 0.29446305E+00 0.20335127E+04</pdfrwt>
<totfact> 0.21362541E+00</totfact>
</mgrwt>
</event>
<event>
12    6  0.1457317E-007  0.2937562E+04  0.7818608E-02  0.8261789E-01
         -1   -1    0    0    0  501 -0.00000000000E+00  0.00000000000E+00  0.18682879536E+04  0.18682879536E+04  0.00000000000E+00 0.  1.
          2   -1    0    0  501    0  0.00000000000E+00 -0.00000000000E+00 -0.11547027542E+04  0.11547027542E+04  0.00000000000E+00 0. -1.
         24    2    1    2    0    0  0.30850881637E+03 -0.85100771638E+03  0.13243041120E+04  0.16059962918E+04  0.77787435589E+02 0.  0.
        254    2    1    2    0    0 -0.30850881637E+03  0.85100771638E+03 -0.61071891263E+03  0.14169944160E+04  0.90305246888E+03 0.  0.
         23    2    4    4    0    0 -0.51944554791E+03  0.74360266002E+03 -0.20041771971E+03  0.93365449518E+03  0.93674226827E+02 0.  0.
         23    2    4    4    0    0  0.21093673154E+03  0.10740505636E+03 -0.41030119292E+03  0.48333992079E+03  0.96126267370E+02 0.  0.
          2    1    3    3  502    0  0.50076142442E+02 -0.71702626855E+02  0.12295024434E+03  0.15088289937E+03  0.00000000000E+00 0. -1.
         -1    1    3    3    0  502  0.25843267393E+03 -0.77930508952E+03  0.12013538677E+04  0.14551133925E+04  0.00000000000E+00 0.  1.
         11    1    5    5    0    0 -0.33194750397E+02  0.59590855940E+02  0.86863411618E+01  0.68763464778E+02  0.00000000000E+00 0. -1.
        -11    1    5    5    0    0 -0.48625079751E+03  0.68401180408E+03 -0.20910406088E+03  0.86489103041E+03  0.00000000000E+00 0.  1.
          2    1    6    6  503    0  0.42118251659E+02  0.30340194408E+02 -0.29447393682E+02  0.59679339090E+02  0.00000000000E+00 0. -1.
         -2    1    6    6    0  503  0.16881847988E+03  0.77064861949E+02 -0.38085379923E+03  0.42366058170E+03  0.00000000000E+00 0.  1.
<mgrwt>
<rscale>  0 0.29375617E+04</rscale>
<asrwt>0</asrwt>
<pdfrwt beam="1">  1        2 0.17764658E+00 0.29375617E+04</pdfrwt>
<pdfrwt beam="2">  1       -1 0.28742891E+00 0.29375617E+04</pdfrwt>
<totfact> 0.78768857E-01</totfact>
</mgrwt>
</event>
<event>
12    6  0.1457317E-007  0.1704904E+04  0.7818608E-02  0.8758572E-01
          2   -1    0    0  501    0  0.00000000000E+00  0.00000000000E+00  0.22073873275E+04  0.22073873275E+04  0.00000000000E+00 0. -1.
         -1   -1    0    0    0  501 -0.00000000000E+00 -0.00000000000E+00 -0.32920119281E+03  0.32920119281E+03  0.00000000000E+00 0.  1.
         24    2    1    2    0    0 -0.23481781648E+03 -0.55241127133E+03  0.78283183777E+03  0.98963455476E+03  0.79077469155E+02 0.  0.
        254    2    1    2    0    0  0.23481781648E+03  0.55241127133E+03  0.10953542970E+04  0.15469539656E+04  0.91267076000E+03 0.  0.
         23    2    4    4    0    0 -0.62676240951E+02  0.35185234264E+03  0.11163803926E+04  0.11757184104E+04  0.90995700708E+02 0.  0.
         23    2    4    4    0    0  0.29749405743E+03  0.20055892869E+03 -0.21026095585E+02  0.37123555517E+03  0.92990013653E+02 0.  0.
          2    1    3    3  502    0 -0.21837833435E+03 -0.53702768743E+03  0.72992571760E+03  0.93213700022E+03  0.00000000000E+00 0. -1.
         -1    1    3    3    0  502 -0.16439482130E+02 -0.15383583904E+02  0.52906120172E+02  0.57497554540E+02  0.00000000000E+00 0.  1.
         11    1    5    5    0    0 -0.44442719590E+02  0.18861045520E+03  0.74208166506E+03  0.76696431257E+03  0.00000000000E+00 0.  1.
        -11    1    5    5    0    0 -0.18233521362E+02  0.16324188744E+03  0.37429872749E+03  0.40875409786E+03  0.00000000000E+00 0. -1.
          3    1    6    6  503    0  0.35100756720E+02 -0.58421598085E+01  0.68243949763E+01  0.36232117249E+02  0.00000000000E+00 0. -1.
         -3    1    6    6    0  503  0.26239330071E+03  0.20640108850E+03 -0.27850490561E+02  0.33500343792E+03  0.00000000000E+00 0.  1.
<mgrwt>
<rscale>  0 0.17049042E+04</rscale>
<asrwt>0</asrwt>
<pdfrwt beam="1">  1        2 0.33959804E+00 0.17049042E+04</pdfrwt>
<pdfrwt beam="2">  1       -1 0.50646339E-01 0.17049042E+04</pdfrwt>
<totfact> 0.21710794E+01</totfact>
</mgrwt>
</event>
<event>
12    6  0.2424175E-007  0.2459088E+04  0.7818608E-02  0.8417707E-01
          2   -1    0    0  501    0  0.00000000000E+00  0.00000000000E+00  0.14526581390E+04  0.14526581390E+04  0.00000000000E+00 0. -1.
         -1   -1    0    0    0  501 -0.00000000000E+00 -0.00000000000E+00 -0.10406976821E+04  0.10406976821E+04  0.00000000000E+00 0.  1.
         24    2    1    2    0    0 -0.38155829153E+03  0.52558443461E+03 -0.67489166902E+03  0.94011836017E+03  0.80734369842E+02 0.  0.
        254    2    1    2    0    0  0.38155829153E+03 -0.52558443461E+03  0.10868521260E+04  0.15532374609E+04  0.89970736268E+03 0.  0.
         23    2    4    4    0    0  0.29783773758E+03 -0.75476587544E+03  0.64512721871E+03  0.10406884679E+04  0.92002794907E+02 0.  0.
         23    2    4    4    0    0  0.83720553949E+02  0.22918144083E+03  0.44172490725E+03  0.51254899298E+03  0.89734678611E+02 0.  0.
          2    1    3    3  502    0 -0.44502397788E+02  0.58505158916E+02 -0.11741295780E+03  0.13852479810E+03  0.00000000000E+00 0. -1.
         -1    1    3    3    0  502 -0.33705589374E+03  0.46707927569E+03 -0.55747871121E+03  0.80159356206E+03  0.00000000000E+00 0.  1.
         11    1    5    5    0    0  0.81936853833E+02 -0.13397064946E+03  0.15635464751E+03  0.22160450972E+03  0.00000000000E+00 0. -1.
        -11    1    5    5    0    0  0.21590088374E+03 -0.62079522598E+03  0.48877257120E+03  0.81908395819E+03  0.00000000000E+00 0.  1.
          2    1    6    6  503    0 -0.14635419452E+02  0.30844516750E+02  0.31767316246E+02  0.46634130179E+02  0.00000000000E+00 0. -1.
         -2    1    6    6    0  503  0.98355973401E+02  0.19833692408E+03  0.40995759100E+03  0.46591486280E+03  0.00000000000E+00 0.  1.
<mgrwt>
<rscale>  0 0.24590876E+04</rscale>
<asrwt>0</asrwt>
<pdfrwt beam="1">  1        2 0.22348587E+00 0.24590876E+04</pdfrwt>
<pdfrwt beam="2">  1       -1 0.16010734E+00 0.24590876E+04</pdfrwt>
<totfact> 0.40153257E+00</totfact>
</mgrwt>
</event>
<event>
12    6  0.1457317E-007  0.1435168E+04  0.7818608E-02  0.8928748E-01
         -1   -1    0    0    0  501 -0.00000000000E+00  0.00000000000E+00  0.57627677161E+03  0.57627677161E+03  0.00000000000E+00 0.  1.
          2   -1    0    0  501    0  0.00000000000E+00 -0.00000000000E+00 -0.89354051400E+03  0.89354051400E+03  0.00000000000E+00 0. -1.
         24    2    1    2    0    0 -0.36065552812E+03  0.50154010991E+02  0.13673678429E+03  0.39685643024E+03  0.78805096692E+02 0.  0.
        254    2    1    2    0    0  0.36065552812E+03 -0.50154010991E+02 -0.45400052668E+03  0.10729608554E+04  0.90141038609E+03 0.  0.
         23    2    4    4    0    0  0.24419446131E+03  0.25962572736E+03 -0.59595520223E+03  0.70059083104E+03  0.92889483982E+02 0.  0.
         23    2    4    4    0    0  0.11646106681E+03 -0.30977973835E+03  0.14195467555E+03  0.37237002433E+03  0.94771508013E+02 0.  0.
          2    1    3    3  502    0 -0.22346809144E+03  0.59994120244E+02  0.58661758671E+02  0.23870166377E+03  0.00000000000E+00 0. -1.
         -1    1    3    3    0  502 -0.13718743667E+03 -0.98401092529E+01  0.78075025614E+02  0.15815476647E+03  0.00000000000E+00 0.  1.
         11    1    5    5    0    0  0.18191647302E+03  0.13373751179E+03 -0.33036800478E+03  0.40015290052E+03  0.00000000000E+00 0. -1.
        -11    1    5    5    0    0  0.62277988291E+02  0.12588821558E+03 -0.26558719744E+03  0.30043793052E+03  0.00000000000E+00 0.  1.
          1    1    6    6  503    0 -0.11898995331E+02 -0.26976661689E+02 -0.30013248956E+01  0.29636705567E+02  0.00000000000E+00 0. -1.
         -1    1    6    6    0  503  0.12836006214E+03 -0.28280307666E+03  0.14495600044E+03  0.34273331876E+03  0.00000000000E+00 0.  1.
<mgrwt>
<rscale>  0 0.14351678E+04</rscale>
<asrwt>0</asrwt>
<pdfrwt beam="1">  1        2 0.13746777E+00 0.14351678E+04</pdfrwt>
<pdfrwt beam="2">  1       -1 0.88657965E-01 0.14351678E+04</pdfrwt>
<totfact> 0.40992588E+01</totfact>
</mgrwt>
</event>
<event>
12    6  0.1457317E-007  0.2875917E+04  0.7818608E-02  0.8280079E-01
         -1   -1    0    0    0  501 -0.00000000000E+00  0.00000000000E+00  0.10653289028E+04  0.10653289028E+04  0.00000000000E+00 0.  1.
          2   -1    0    0  501    0  0.00000000000E+00 -0.00000000000E+00 -0.19409263497E+04  0.19409263497E+04  0.00000000000E+00 0. -1.
         24    2    1    2    0    0 -0.10171991497E+03  0.11416062687E+04  0.23331689661E+03  0.11723095158E+04  0.79126561905E+02 0.  0.
        254    2    1    2    0    0  0.10171991497E+03 -0.11416062687E+04 -0.11089143434E+04  0.18339457367E+04  0.90556840177E+03 0.  0.
         23    2    4    4    0    0  0.10485062052E+03 -0.92019817236E+02  0.12741302595E+03  0.20962156684E+03  0.90806512521E+02 0.  0.
         23    2    4    4    0    0 -0.31307055465E+01 -0.10495864515E+04 -0.12363273694E+04  0.16243241699E+04  0.91006176311E+02 0.  0.
          2    1    3    3  502    0 -0.54562480411E+02  0.58693827404E+03  0.16026990977E+03  0.61086827203E+03  0.00000000000E+00 0. -1.
         -1    1    3    3    0  502 -0.47157434563E+02  0.55466799466E+03  0.73046986836E+02  0.56144124379E+03  0.00000000000E+00 0.  1.
         11    1    5    5    0    0  0.10789535546E+02 -0.43589501467E+02  0.84028767948E+02  0.95274826467E+02  0.00000000000E+00 0.  1.
        -11    1    5    5    0    0  0.94061084975E+02 -0.48430315769E+02  0.43384257999E+02  0.11434674037E+03  0.00000000000E+00 0. -1.
          1    1    6    6  503    0  0.39156655619E+02 -0.74407839703E+03 -0.87499649728E+03  0.11492627092E+04  0.00000000000E+00 0. -1.
         -1    1    6    6    0  503 -0.42287361165E+02 -0.30550805443E+03 -0.36133087211E+03  0.47506146063E+03  0.00000000000E+00 0.  1.
<mgrwt>
<rscale>  0 0.28759172E+04</rscale>
<asrwt>0</asrwt>
<pdfrwt beam="1">  1        2 0.29860405E+00 0.28759172E+04</pdfrwt>
<pdfrwt beam="2">  1       -1 0.16389676E+00 0.28759172E+04</pdfrwt>
<totfact> 0.19364655E+00</totfact>
</mgrwt>
</event>
<event>
12    6  0.1457317E-007  0.1962825E+04  0.7818608E-02  0.8624201E-01
         -1   -1    0    0    0  501 -0.00000000000E+00  0.00000000000E+00  0.28734567361E+03  0.28734567361E+03  0.00000000000E+00 0.  1.
          2   -1    0    0  501    0  0.00000000000E+00 -0.00000000000E+00 -0.33519579277E+04  0.33519579277E+04  0.00000000000E+00 0. -1.
         24    2    1    2    0    0 -0.44615569115E+03  0.25504914485E+03 -0.14271325111E+03  0.53908336832E+03  0.78350743005E+02 0.  0.
        254    2    1    2    0    0  0.44615569115E+03 -0.25504914485E+03 -0.29218990030E+04  0.31002202330E+04  0.89987040310E+03 0.  0.
         23    2    4    4    0    0 -0.61104960161E+02 -0.34503797644E+03 -0.20664227559E+04  0.20975873624E+04  0.83574610702E+02 0.  0.
         23    2    4    4    0    0  0.50726065131E+03  0.89988831591E+02 -0.85547624709E+03  0.10026328706E+04  0.89563975157E+02 0.  0.
          4    1    3    3  502    0 -0.56506799904E+01  0.18790752792E+02 -0.16160940559E+01  0.19688431498E+02  0.00000000000E+00 0. -1.
         -3    1    3    3    0  502 -0.44050501116E+03  0.23625839206E+03 -0.14109715705E+03  0.51939493682E+03  0.00000000000E+00 0.  1.
         11    1    5    5    0    0 -0.81306922966E+02 -0.24972103370E+03 -0.15360063901E+04  0.15582961980E+04  0.00000000000E+00 0. -1.
        -11    1    5    5    0    0  0.20201962805E+02 -0.95316942743E+02 -0.53041636582E+03  0.53929116441E+03  0.00000000000E+00 0.  1.
          3    1    6    6  503    0  0.43240408278E+03  0.44166545299E+02 -0.69504656040E+03  0.81976441472E+03  0.00000000000E+00 0. -1.
         -3    1    6    6    0  503  0.74856568528E+02  0.45822286292E+02 -0.16042968670E+03  0.18286845585E+03  0.00000000000E+00 0.  1.
<mgrwt>
<rscale>  0 0.19628251E+04</rscale>
<asrwt>0</asrwt>
<pdfrwt beam="1">  1        2 0.51568584E+00 0.19628251E+04</pdfrwt>
<pdfrwt beam="2">  1       -1 0.44207026E-01 0.19628251E+04</pdfrwt>
<totfact> 0.55465253E+00</totfact>
</mgrwt>
</event>
<event>
12    6  0.1457317E-007  0.2815383E+04  0.7818608E-02  0.8298508E-01
          2   -1    0    0  501    0  0.00000000000E+00  0.00000000000E+00  0.27626808801E+04  0.27626808801E+04  0.00000000000E+00 0. -1.
         -1   -1    0    0    0  501 -0.00000000000E+00 -0.00000000000E+00 -0.71727262223E+03  0.71727262223E+03  0.00000000000E+00 0.  1.
         24    2    1    2    0    0  0.60190047110E+02 -0.79854455524E+03 -0.28917137847E+03  0.85523422854E+03  0.80679929813E+02 0.  0.
        254    2    1    2    0    0 -0.60190047110E+02  0.79854455524E+03  0.23345796363E+04  0.26247192738E+04  0.89308058948E+03 0.  0.
         23    2    4    4    0    0 -0.15751047323E+02  0.52406018259E+03  0.22568690703E+04  0.23185534089E+04  0.85701453213E+02 0.  0.
         23    2    4    4    0    0 -0.44438999787E+02  0.27448437265E+03  0.77710566064E+02  0.30616586489E+03  0.10189263572E+03 0.  0.
          2    1    3    3  502    0  0.43668411568E+00  0.55269636055E+00  0.24057714549E+01  0.25067713452E+01  0.00000000000E+00 0. -1.
         -1    1    3    3    0  502  0.59753362994E+02 -0.79909725160E+03 -0.29157714992E+03  0.85272745720E+03  0.00000000000E+00 0.  1.
         11    1    5    5    0    0 -0.10556810708E+02  0.37461390692E+03  0.14312244717E+04  0.14794764324E+04  0.00000000000E+00 0.  1.
        -11    1    5    5    0    0 -0.51942366153E+01  0.14944627568E+03  0.82564459854E+03  0.83907697650E+03  0.00000000000E+00 0. -1.
          2    1    6    6  503    0 -0.10536504821E+01  0.13640153210E+03  0.85894167159E+02  0.16119645186E+03  0.00000000000E+00 0. -1.
         -2    1    6    6    0  503 -0.43385349305E+02  0.13808284055E+03 -0.81836010945E+01  0.14496941303E+03  0.00000000000E+00 0.  1.
<mgrwt>
<rscale>  0 0.28153830E+04</rscale>
<asrwt>0</asrwt>
<pdfrwt beam="1">  1        2 0.42502782E+00 0.28153830E+04</pdfrwt>
<pdfrwt beam="2">  1       -1 0.11034964E+00 0.28153830E+04</pdfrwt>
<totfact> 0.18216574E+00</totfact>
</mgrwt>
</event>
<event>
12    6  0.1457317E-007  0.1375907E+04  0.7818608E-02  0.8971445E-01
         -3   -1    0    0    0  501 -0.00000000000E+00  0.00000000000E+00  0.10736590311E+04  0.10736590311E+04  0.00000000000E+00 0.  1.
          2   -1    0    0  501    0  0.00000000000E+00 -0.00000000000E+00 -0.44081063723E+03  0.44081063723E+03  0.00000000000E+00 0. -1.
         24    2    1    2    0    0 -0.26973321997E+03  0.99778944036E+02  0.19540633446E+03  0.35668271928E+03  0.79542938431E+02 0.  0.
        254    2    1    2    0    0  0.26973321997E+03 -0.99778944036E+02  0.43744205943E+03  0.11577869491E+04  0.10326680088E+04 0.  0.
         23    2    4    4    0    0  0.63721874150E+03 -0.19225022982E+03  0.34864091874E+03  0.75687105698E+03  0.91079258303E+02 0.  0.
         23    2    4    4    0    0 -0.36748552153E+03  0.92471285787E+02  0.88801140695E+02  0.40091589209E+03  0.96184004478E+02 0.  0.
          4    1    3    3  502    0 -0.41455310404E+02  0.17319343650E+02 -0.24731058087E+00  0.44928427389E+02  0.00000000000E+00 0. -1.
         -3    1    3    3    0  502 -0.22827790957E+03  0.82459600386E+02  0.19565364504E+03  0.31175429189E+03  0.00000000000E+00 0.  1.
         11    1    5    5    0    0  0.93702109388E+02 -0.62926399989E+02  0.66081692450E+02  0.13079222911E+03  0.00000000000E+00 0. -1.
        -11    1    5    5    0    0  0.54351663211E+03 -0.12932382983E+03  0.28255922629E+03  0.62607882787E+03  0.00000000000E+00 0.  1.
          3    1    6    6  503    0 -0.94262244694E+02 -0.12376318040E+02  0.44358769744E+02  0.10491064997E+03  0.00000000000E+00 0. -1.
         -3    1    6    6    0  503 -0.27322327683E+03  0.10484760383E+03  0.44442370951E+02  0.29600524213E+03  0.00000000000E+00 0.  1.
<mgrwt>
<rscale>  0 0.13759074E+04</rscale>
<asrwt>0</asrwt>
<pdfrwt beam="1">  1        2 0.67817021E-01 0.13759074E+04</pdfrwt>
<pdfrwt beam="2">  1       -3 0.16517831E+00 0.13759074E+04</pdfrwt>
<totfact> 0.10866878E+01</totfact>
</mgrwt>
</event>
<event>
12    6  0.1457317E-007  0.1928557E+04  0.7818608E-02  0.8640771E-01
          2   -1    0    0  501    0  0.00000000000E+00  0.00000000000E+00  0.22472882211E+04  0.22472882211E+04  0.00000000000E+00 0. -1.
         -1   -1    0    0    0  501 -0.00000000000E+00 -0.00000000000E+00 -0.41375785476E+03  0.41375785476E+03  0.00000000000E+00 0.  1.
         24    2    1    2    0    0 -0.33707837598E+03 -0.21908437256E+03 -0.15782703634E+03  0.43948520104E+03  0.81351549910E+02 0.  0.
        254    2    1    2    0    0  0.33707837598E+03  0.21908437256E+03  0.19913574027E+04  0.22215608748E+04  0.89900423886E+03 0.  0.
         23    2    4    4    0    0 -0.18868036208E+03  0.35483171646E+03  0.10907261222E+04  0.11658795745E+04  0.89921536144E+02 0.  0.
         23    2    4    4    0    0  0.52575873806E+03 -0.13574734390E+03  0.90063128052E+03  0.10556813003E+04  0.92069062953E+02 0.  0.
          2    1    3    3  502    0 -0.75069739592E+02 -0.91992476667E+02 -0.52379729630E+02  0.12977564348E+03  0.00000000000E+00 0. -1.
         -1    1    3    3    0  502 -0.26200863639E+03 -0.12709189589E+03 -0.10544730671E+03  0.30970955755E+03  0.00000000000E+00 0.  1.
         11    1    5    5    0    0 -0.18343791443E+02  0.12735052660E+01  0.67944712256E+02  0.70388922593E+02  0.00000000000E+00 0. -1.
        -11    1    5    5    0    0 -0.17033657063E+03  0.35355821119E+03  0.10227814099E+04  0.10954906519E+04  0.00000000000E+00 0.  1.
          4    1    6    6  503    0  0.11221979187E+03 -0.40466202623E+02  0.13381958764E+03  0.17927207613E+03  0.00000000000E+00 0. -1.
         -4    1    6    6    0  503  0.41353894619E+03 -0.95281141273E+02  0.76681169288E+03  0.87640922418E+03  0.00000000000E+00 0.  1.
<mgrwt>
<rscale>  0 0.19285571E+04</rscale>
<asrwt>0</asrwt>
<pdfrwt beam="1">  1        2 0.34573664E+00 0.19285571E+04</pdfrwt>
<pdfrwt beam="2">  1       -1 0.63655056E-01 0.19285571E+04</pdfrwt>
<totfact> 0.12933542E+01</totfact>
</mgrwt>
</event>
<event>
12    6  0.1457317E-007  0.1961023E+04  0.7818608E-02  0.8625064E-01
         -1   -1    0    0    0  501 -0.00000000000E+00  0.00000000000E+00  0.54277193566E+03  0.54277193566E+03  0.00000000000E+00 0.  1.
          2   -1    0    0  501    0  0.00000000000E+00 -0.00000000000E+00 -0.17712835084E+04  0.17712835084E+04  0.00000000000E+00 0. -1.
         24    2    1    2    0    0 -0.32592966925E+03 -0.56506611676E+03  0.57722334893E+01  0.65739908874E+03  0.81304228550E+02 0.  0.
        254    2    1    2    0    0  0.32592966925E+03  0.56506611676E+03 -0.12342838062E+04  0.16566563553E+04  0.89192146497E+03 0.  0.
         23    2    4    4    0    0  0.14765136293E+03  0.16634183006E+03 -0.11831127177E+04  0.12070700037E+04  0.88270956954E+02 0.  0.
         23    2    4    4    0    0  0.17827830632E+03  0.39872428670E+03 -0.51171088566E+02  0.44958635157E+03  0.93515752168E+02 0.  0.
          2    1    3    3  502    0 -0.21911382493E+02 -0.51344100196E+02  0.22591584357E+02  0.60222130413E+02  0.00000000000E+00 0. -1.
         -1    1    3    3    0  502 -0.30401828676E+03 -0.51372201657E+03 -0.16819350867E+02  0.59717695832E+03  0.00000000000E+00 0.  1.
         11    1    5    5    0    0  0.95775763613E+02  0.15086307287E+03 -0.10101196712E+04  0.10258042766E+04  0.00000000000E+00 0. -1.
        -11    1    5    5    0    0  0.51875599320E+02  0.15478757190E+02 -0.17299304641E+03  0.18126572714E+03  0.00000000000E+00 0.  1.
          2    1    6    6  503    0  0.18766907085E+03  0.36857641250E+03 -0.56883284289E+02  0.41749725752E+03  0.00000000000E+00 0. -1.
         -2    1    6    6    0  503 -0.93907645234E+01  0.30147874206E+02  0.57121957223E+01  0.32089094058E+02  0.00000000000E+00 0.  1.
<mgrwt>
<rscale>  0 0.19610232E+04</rscale>
<asrwt>0</asrwt>
<pdfrwt beam="1">  1        2 0.27250516E+00 0.19610232E+04</pdfrwt>
<pdfrwt beam="2">  1       -1 0.83503375E-01 0.19610232E+04</pdfrwt>
<totfact> 0.13517700E+01</totfact>
</mgrwt>
</event>
<event>
12    6  0.1457317E-007  0.1766524E+04  0.7818608E-02  0.8724307E-01
         -1   -1    0    0    0  501 -0.00000000000E+00  0.00000000000E+00  0.68369931229E+03  0.68369931229E+03  0.00000000000E+00 0.  1.
          2   -1    0    0  501    0  0.00000000000E+00 -0.00000000000E+00 -0.11410739117E+04  0.11410739117E+04  0.00000000000E+00 0. -1.
         24    2    1    2    0    0 -0.13690941895E+03  0.63345601224E+03 -0.27600784107E+03  0.70888833336E+03  0.79571555222E+02 0.  0.
        254    2    1    2    0    0  0.13690941895E+03 -0.63345601224E+03 -0.18136675837E+03  0.11158848907E+04  0.89010925157E+03 0.  0.
         23    2    4    4    0    0 -0.26698528564E+03 -0.45990977938E+03  0.14802948077E+03  0.56043836712E+03  0.96851888201E+02 0.  0.
         23    2    4    4    0    0  0.40389470459E+03 -0.17354623286E+03 -0.32939623914E+03  0.55544652354E+03  0.82278373942E+02 0.  0.
          2    1    3    3  502    0 -0.10626972083E+02  0.13370268744E+03 -0.86985349326E+02  0.15986179081E+03  0.00000000000E+00 0. -1.
         -1    1    3    3    0  502 -0.12628244687E+03  0.49975332481E+03 -0.18902249174E+03  0.54902654255E+03  0.00000000000E+00 0.  1.
         11    1    5    5    0    0 -0.43322534163E+02 -0.24095018813E+02  0.24246170125E+02  0.55184134166E+02  0.00000000000E+00 0.  1.
        -11    1    5    5    0    0 -0.22366275148E+03 -0.43581476057E+03  0.12378331064E+03  0.50525423296E+03  0.00000000000E+00 0. -1.
          2    1    6    6  503    0  0.16789208785E+03 -0.28699977916E+02 -0.12544536125E+03  0.21153718480E+03  0.00000000000E+00 0. -1.
         -2    1    6    6    0  503  0.23600261674E+03 -0.14484625495E+03 -0.20395087789E+03  0.34390933874E+03  0.00000000000E+00 0.  1.
<mgrwt>
<rscale>  0 0.17665236E+04</rscale>
<asrwt>0</asrwt>
<pdfrwt beam="1">  1        2 0.17554983E+00 0.17665236E+04</pdfrwt>
<pdfrwt beam="2">  1       -1 0.10518451E+00 0.17665236E+04</pdfrwt>
<totfact> 0.18819193E+01</totfact>
</mgrwt>
</event>
<event>
12    6  0.1457317E-007  0.3814776E+04  0.7818608E-02  0.8042991E-01
          2   -1    0    0  501    0  0.00000000000E+00  0.00000000000E+00  0.38526185507E+04  0.38526185507E+04  0.00000000000E+00 0. -1.
         -1   -1    0    0    0  501 -0.00000000000E+00 -0.00000000000E+00 -0.94432625480E+03  0.94432625480E+03  0.00000000000E+00 0.  1.
         24    2    1    2    0    0 -0.28169381776E+03 -0.12583563955E+04  0.29349092764E+04  0.32067103910E+04  0.80540958334E+02 0.  0.
        254    2    1    2    0    0  0.28169381776E+03  0.12583563955E+04 -0.26616980518E+02  0.15902344145E+04  0.93022836143E+03 0.  0.
         23    2    4    4    0    0  0.46701406356E+03  0.24393791991E+03  0.11111668494E+03  0.54596213444E+03  0.90110433538E+02 0.  0.
         23    2    4    4    0    0 -0.18532024580E+03  0.10144184756E+04 -0.13773366545E+03  0.10442722801E+04  0.90252951331E+02 0.  0.
          4    1    3    3  502    0 -0.18721484911E+03 -0.80924696402E+03  0.19833962922E+04  0.21503001885E+04  0.00000000000E+00 0. -1.
         -3    1    3    3    0  502 -0.94478968646E+02 -0.44910943146E+03  0.95151298421E+03  0.10564102026E+04  0.00000000000E+00 0.  1.
         11    1    5    5    0    0  0.42019157676E+02  0.52497792707E+02  0.21749475155E+01  0.67278215253E+02  0.00000000000E+00 0. -1.
        -11    1    5    5    0    0  0.42499490589E+03  0.19144012720E+03  0.10894173742E+03  0.47868391919E+03  0.00000000000E+00 0.  1.
          3    1    6    6  503    0 -0.67032646593E+02  0.19452122046E+03 -0.45961508967E+02  0.21081826587E+03  0.00000000000E+00 0. -1.
         -3    1    6    6    0  503 -0.11828759921E+03  0.81989725511E+03 -0.91772156487E+02  0.83345401420E+03  0.00000000000E+00 0.  1.
<mgrwt>
<rscale>  0 0.38147759E+04</rscale>
<asrwt>0</asrwt>
<pdfrwt beam="1">  1        2 0.59271054E+00 0.38147759E+04</pdfrwt>
<pdfrwt beam="2">  1       -1 0.14528096E+00 0.38147759E+04</pdfrwt>
<totfact> 0.15413228E-01</totfact>
</mgrwt>
</event>
<event>
12    6  0.1457317E-007  0.1665394E+04  0.7818608E-02  0.8781351E-01
          2   -1    0    0  501    0  0.00000000000E+00  0.00000000000E+00  0.20960057390E+04  0.20960057390E+04  0.00000000000E+00 0. -1.
         -1   -1    0    0    0  501 -0.00000000000E+00 -0.00000000000E+00 -0.33081239121E+03  0.33081239121E+03  0.00000000000E+00 0.  1.
         24    2    1    2    0    0 -0.27078118338E+03 -0.39830354154E+03  0.11097561234E+04  0.12122231787E+04  0.77189512834E+02 0.  0.
        254    2    1    2    0    0  0.27078118338E+03  0.39830354154E+03  0.65543722438E+03  0.12145949516E+04  0.90203923463E+03 0.  0.
         23    2    4    4    0    0 -0.29220186028E+03  0.67027209690E+01  0.32792574056E+03  0.44876560578E+03  0.91806448528E+02 0.  0.
         23    2    4    4    0    0  0.56298304366E+03  0.39160082058E+03  0.32751148381E+03  0.76582934579E+03  0.94497114866E+02 0.  0.
          4    1    3    3  502    0 -0.26080434326E+03 -0.35401436424E+03  0.96371481701E+03  0.10592881214E+04  0.00000000000E+00 0. -1.
         -3    1    3    3    0  502 -0.99768401230E+01 -0.44289177306E+02  0.14604130642E+03  0.15293505729E+03  0.00000000000E+00 0.  1.
         11    1    5    5    0    0 -0.38709314088E+02 -0.30444944201E+02  0.40783498984E+02  0.63942156783E+02  0.00000000000E+00 0.  1.
        -11    1    5    5    0    0 -0.25349254619E+03  0.37147665170E+02  0.28714224158E+03  0.38482344900E+03  0.00000000000E+00 0. -1.
          3    1    6    6  503    0  0.50091401609E+03  0.35660362592E+03  0.32268359758E+03  0.69441032660E+03  0.00000000000E+00 0. -1.
         -3    1    6    6    0  503  0.62069027571E+02  0.34997194652E+02  0.48278862355E+01  0.71419019194E+02  0.00000000000E+00 0.  1.
<mgrwt>
<rscale>  0 0.16653945E+04</rscale>
<asrwt>0</asrwt>
<pdfrwt beam="1">  1        2 0.32246241E+00 0.16653945E+04</pdfrwt>
<pdfrwt beam="2">  1       -1 0.50894215E-01 0.16653945E+04</pdfrwt>
<totfact> 0.24911820E+01</totfact>
</mgrwt>
</event>
<event>
12    6  0.1457317E-007  0.1594578E+04  0.7818608E-02  0.8823886E-01
          2   -1    0    0  501    0  0.00000000000E+00  0.00000000000E+00  0.20691437077E+04  0.20691437077E+04  0.00000000000E+00 0. -1.
         -3   -1    0    0    0  501 -0.00000000000E+00 -0.00000000000E+00 -0.30721390401E+03  0.30721390401E+03  0.00000000000E+00 0.  1.
         24    2    1    2    0    0  0.11803956142E+03  0.36352992629E+03  0.96349774196E+03  0.10396005102E+04  0.79711835383E+02 0.  0.
        254    2    1    2    0    0 -0.11803956142E+03 -0.36352992629E+03  0.79843206170E+03  0.13367571015E+04  0.10016678321E+04 0.  0.
         23    2    4    4    0    0 -0.22488505795E+03  0.16968858336E+03  0.72170564910E+03  0.77986173562E+03  0.89206379442E+02 0.  0.
         23    2    4    4    0    0  0.10684549653E+03 -0.53321850966E+03  0.76726412594E+02  0.55689536584E+03  0.92236472898E+02 0.  0.
          4    1    3    3  502    0  0.46017179262E+02  0.51720760868E+02  0.14217399529E+03  0.15813305419E+03  0.00000000000E+00 0. -1.
         -3    1    3    3    0  502  0.72022382156E+02  0.31180916543E+03  0.82132374667E+03  0.88146745602E+03  0.00000000000E+00 0.  1.
         11    1    5    5    0    0 -0.63527153602E+02  0.97627045922E+02  0.33554783793E+03  0.35518881018E+03  0.00000000000E+00 0. -1.
        -11    1    5    5    0    0 -0.16135790434E+03  0.72061537441E+02  0.38615781117E+03  0.42467292544E+03  0.00000000000E+00 0.  1.
          1    1    6    6  503    0  0.29622655392E+02 -0.34800291187E+03  0.69416441426E+02  0.35609292428E+03  0.00000000000E+00 0. -1.
         -1    1    6    6    0  503  0.77222841136E+02 -0.18521559779E+03  0.73099711677E+01  0.20080244156E+03  0.00000000000E+00 0.  1.
<mgrwt>
<rscale>  0 0.15945780E+04</rscale>
<asrwt>0</asrwt>
<pdfrwt beam="1">  1        2 0.31832979E+00 0.15945780E+04</pdfrwt>
<pdfrwt beam="2">  1       -3 0.47263679E-01 0.15945780E+04</pdfrwt>
<totfact> 0.16793896E+01</totfact>
</mgrwt>
</event>
<event>
12    6  0.1457317E-007  0.2818412E+04  0.7818608E-02  0.8297575E-01
          2   -1    0    0  501    0  0.00000000000E+00  0.00000000000E+00  0.28841161775E+04  0.28841161775E+04  0.00000000000E+00 0. -1.
         -1   -1    0    0    0  501 -0.00000000000E+00 -0.00000000000E+00 -0.68855109919E+03  0.68855109919E+03  0.00000000000E+00 0.  1.
         24    2    1    2    0    0 -0.55279381564E+03  0.11154687528E+04  0.12467531337E+04  0.17640635962E+04  0.87609666935E+02 0.  0.
        254    2    1    2    0    0  0.55279381564E+03 -0.11154687528E+04  0.94881194457E+03  0.18086036805E+04  0.90606380888E+03 0.  0.
         23    2    4    4    0    0  0.30877910248E+03  0.27912307990E+02  0.41720063347E+02  0.32604191931E+03  0.91864783203E+02 0.  0.
         23    2    4    4    0    0  0.24401471316E+03 -0.11433810608E+04  0.90709188123E+03  0.14825617612E+04  0.91160650763E+02 0.  0.
          2    1    3    3  502    0 -0.44621452649E+03  0.93859235839E+03  0.10779588633E+04  0.14973504366E+04  0.00000000000E+00 0. -1.
         -1    1    3    3    0  502 -0.10657928916E+03  0.17687639445E+03  0.16879427043E+03  0.26671315964E+03  0.00000000000E+00 0.  1.
         11    1    5    5    0    0  0.17851416898E+03  0.60331016869E+02  0.34841952626E+02  0.19162750790E+03  0.00000000000E+00 0.  1.
        -11    1    5    5    0    0  0.13026493350E+03 -0.32418708878E+02  0.68781107213E+01  0.13441441140E+03  0.00000000000E+00 0. -1.
          3    1    6    6  503    0  0.12953787605E+03 -0.60916053774E+03  0.54051743800E+03  0.82463065844E+03  0.00000000000E+00 0. -1.
         -3    1    6    6    0  503  0.11447683712E+03 -0.53422052309E+03  0.36657444323E+03  0.65793110275E+03  0.00000000000E+00 0.  1.
<mgrwt>
<rscale>  0 0.28184119E+04</rscale>
<asrwt>0</asrwt>
<pdfrwt beam="1">  1        2 0.44371017E+00 0.28184119E+04</pdfrwt>
<pdfrwt beam="2">  1       -1 0.10593094E+00 0.28184119E+04</pdfrwt>
<totfact> 0.16915207E+00</totfact>
</mgrwt>
</event>
<event>
12    6  0.1457317E-007  0.4193543E+04  0.7818608E-02  0.7966602E-01
         -1   -1    0    0    0  501 -0.00000000000E+00  0.00000000000E+00  0.25357723686E+04  0.25357723686E+04  0.00000000000E+00 0.  1.
          2   -1    0    0  501    0  0.00000000000E+00 -0.00000000000E+00 -0.17337721879E+04  0.17337721879E+04  0.00000000000E+00 0. -1.
         24    2    1    2    0    0  0.14292168500E+04 -0.13449605366E+04 -0.12026496633E+02  0.19642126469E+04  0.80043962823E+02 0.  0.
        254    2    1    2    0    0 -0.14292168500E+04  0.13449605366E+04  0.81402667742E+03  0.23053319096E+04  0.89461507503E+03 0.  0.
         23    2    4    4    0    0 -0.64081357690E+03  0.60548430622E+03 -0.93376257215E+02  0.89118997442E+03  0.90813873843E+02 0.  0.
         23    2    4    4    0    0 -0.78840327313E+03  0.73947623041E+03  0.90740293463E+03  0.14141419352E+04  0.89512628636E+02 0.  0.
          4    1    3    3  502    0  0.13408525647E+04 -0.12620517261E+04 -0.30593072920E+02  0.18416286531E+04  0.00000000000E+00 0. -1.
         -3    1    3    3    0  502  0.88364285294E+02 -0.82908810533E+02  0.18566576287E+02  0.12258399379E+03  0.00000000000E+00 0.  1.
         11    1    5    5    0    0 -0.31655746673E+03  0.35113032840E+03 -0.24798031629E+02  0.47340899827E+03  0.00000000000E+00 0.  1.
        -11    1    5    5    0    0 -0.32425611017E+03  0.25435397782E+03 -0.68578225587E+02  0.41778097615E+03  0.00000000000E+00 0. -1.
          4    1    6    6  503    0 -0.49011438953E+03  0.51638285580E+03  0.60846598155E+03  0.93653308499E+03  0.00000000000E+00 0. -1.
         -4    1    6    6    0  503 -0.29828888360E+03  0.22309337461E+03  0.29893695309E+03  0.47760885021E+03  0.00000000000E+00 0.  1.
<mgrwt>
<rscale>  0 0.41935434E+04</rscale>
<asrwt>0</asrwt>
<pdfrwt beam="1">  1        2 0.26673418E+00 0.41935434E+04</pdfrwt>
<pdfrwt beam="2">  1       -1 0.39011883E+00 0.41935434E+04</pdfrwt>
<totfact> 0.69352441E-02</totfact>
</mgrwt>
</event>
<event>
12    6  0.1457317E-007  0.2025343E+04  0.7818608E-02  0.8594863E-01
          2   -1    0    0  501    0  0.00000000000E+00  0.00000000000E+00  0.16896569674E+04  0.16896569674E+04  0.00000000000E+00 0. -1.
         -1   -1    0    0    0  501 -0.00000000000E+00 -0.00000000000E+00 -0.60693000905E+03  0.60693000905E+03  0.00000000000E+00 0.  1.
         24    2    1    2    0    0  0.60495340118E+03 -0.32405025999E+03 -0.55300575233E+02  0.69490984144E+03  0.94150653302E+02 0.  0.
        254    2    1    2    0    0 -0.60495340118E+03  0.32405025999E+03  0.11380275336E+04  0.16016771350E+04  0.89402784579E+03 0.  0.
         23    2    4    4    0    0  0.14853338256E+03  0.31315166757E+03  0.27153779096E+03  0.44985971385E+03  0.92275985994E+02 0.  0.
         23    2    4    4    0    0 -0.75348678373E+03  0.10898592417E+02  0.86648974267E+03  0.11518174212E+04  0.89542085353E+02 0.  0.
          2    1    3    3  502    0  0.18898813072E+03 -0.53574844977E+02 -0.10328382920E+02  0.19670651504E+03  0.00000000000E+00 0. -1.
         -3    1    3    3    0  502  0.41596527046E+03 -0.27047541501E+03 -0.44972192313E+02  0.49820332640E+03  0.00000000000E+00 0.  1.
         11    1    5    5    0    0  0.56043975412E+02  0.42773345136E+02  0.75627275004E+02  0.10339231576E+03  0.00000000000E+00 0. -1.
        -11    1    5    5    0    0  0.92489407144E+02  0.27037832243E+03  0.19591051595E+03  0.34646739809E+03  0.00000000000E+00 0.  1.
          1    1    6    6  503    0 -0.17617252703E+02  0.75631409982E+01  0.71658230949E+01  0.20467479453E+02  0.00000000000E+00 0. -1.
         -1    1    6    6    0  503 -0.73586953103E+03  0.33354514186E+01  0.85932391958E+03  0.11313499417E+04  0.00000000000E+00 0.  1.
<mgrwt>
<rscale>  0 0.20253430E+04</rscale>
<asrwt>0</asrwt>
<pdfrwt beam="1">  1        2 0.25994722E+00 0.20253430E+04</pdfrwt>
<pdfrwt beam="2">  1       -1 0.93373848E-01 0.20253430E+04</pdfrwt>
<totfact> 0.11680108E+01</totfact>
</mgrwt>
</event>
<event>
12    6  0.1457317E-007  0.3047754E+04  0.7818608E-02  0.8230224E-01
         -1   -1    0    0    0  501 -0.00000000000E+00  0.00000000000E+00  0.21235960651E+04  0.21235960651E+04  0.00000000000E+00 0.  1.
          2   -1    0    0  501    0  0.00000000000E+00 -0.00000000000E+00 -0.10935228481E+04  0.10935228481E+04  0.00000000000E+00 0. -1.
         24    2    1    2    0    0  0.95647867604E+03  0.69156503314E+03  0.12372213095E+04  0.17117258287E+04  0.78581748411E+02 0.  0.
        254    2    1    2    0    0 -0.95647867604E+03 -0.69156503314E+03 -0.20714809251E+03  0.15053930846E+04  0.91114452973E+03 0.  0.
         23    2    4    4    0    0 -0.44135115195E+03 -0.53552398821E+03  0.29855120110E+03  0.76109155755E+03  0.92470308921E+02 0.  0.
         23    2    4    4    0    0 -0.51512752409E+03 -0.15604104493E+03 -0.50569929361E+03  0.74430152701E+03  0.92454387535E+02 0.  0.
          4    1    3    3  502    0  0.18969892704E+03  0.15493225567E+03  0.29905415612E+03  0.38655281018E+03  0.00000000000E+00 0. -1.
         -3    1    3    3    0  502  0.76677974900E+03  0.53663277747E+03  0.93816715336E+03  0.13251730185E+04  0.00000000000E+00 0.  1.
         11    1    5    5    0    0 -0.40986642363E+03 -0.52644647914E+03  0.28772193533E+03  0.72658123612E+03  0.00000000000E+00 0. -1.
        -11    1    5    5    0    0 -0.31484728319E+02 -0.90775090681E+01  0.10829265772E+02  0.34510321433E+02  0.00000000000E+00 0.  1.
          3    1    6    6  503    0 -0.47433206588E+03 -0.16484084151E+03 -0.44706943709E+03  0.67233510494E+03  0.00000000000E+00 0. -1.
         -3    1    6    6    0  503 -0.40795458216E+02  0.87997965835E+01 -0.58629856516E+02  0.71966422074E+02  0.00000000000E+00 0.  1.
<mgrwt>
<rscale>  0 0.30477538E+04</rscale>
<asrwt>0</asrwt>
<pdfrwt beam="1">  1        2 0.16823429E+00 0.30477538E+04</pdfrwt>
<pdfrwt beam="2">  1       -1 0.32670709E+00 0.30477538E+04</pdfrwt>
<totfact> 0.47253740E-01</totfact>
</mgrwt>
</event>
<event>
12    6  0.1457317E-007  0.1553574E+04  0.7818608E-02  0.8849588E-01
          2   -1    0    0  501    0  0.00000000000E+00  0.00000000000E+00  0.69957796202E+03  0.69957796202E+03  0.00000000000E+00 0. -1.
         -1   -1    0    0    0  501 -0.00000000000E+00 -0.00000000000E+00 -0.86251702479E+03  0.86251702479E+03  0.00000000000E+00 0.  1.
         24    2    1    2    0    0 -0.84816926065E+02  0.42941635902E+03  0.21021685496E+03  0.49242244769E+03  0.81831659731E+02 0.  0.
        254    2    1    2    0    0  0.84816926065E+02 -0.42941635902E+03 -0.37315591773E+03  0.10696725391E+04  0.90186566721E+03 0.  0.
         23    2    4    4    0    0  0.13404776746E+02  0.24785329824E+03 -0.26342310244E+03  0.37404273182E+03  0.94367837987E+02 0.  0.
         23    2    4    4    0    0  0.71412149319E+02 -0.67726965726E+03 -0.10973281529E+03  0.69562980731E+03  0.89808988125E+02 0.  0.
          2    1    3    3  502    0 -0.37908708899E+02  0.27487834354E+03  0.17199065674E+03  0.32645973712E+03  0.00000000000E+00 0. -1.
         -1    1    3    3    0  502 -0.46908217166E+02  0.15453801549E+03  0.38226198218E+02  0.16596271057E+03  0.00000000000E+00 0.  1.
         11    1    5    5    0    0 -0.28669033035E+01 -0.47976488220E+01  0.31402312396E+01  0.64107426254E+01  0.00000000000E+00 0. -1.
        -11    1    5    5    0    0  0.16271680050E+02  0.25265094706E+03 -0.26656333368E+03  0.36763198920E+03  0.00000000000E+00 0.  1.
          3    1    6    6  503    0  0.15953855363E+02 -0.15366308069E+03 -0.63630702596E+02  0.16708002329E+03  0.00000000000E+00 0. -1.
         -3    1    6    6    0  503  0.55458293956E+02 -0.52360657657E+03 -0.46102112698E+02  0.52854978402E+03  0.00000000000E+00 0.  1.
<mgrwt>
<rscale>  0 0.15535738E+04</rscale>
<asrwt>0</asrwt>
<pdfrwt beam="1">  1        2 0.10762738E+00 0.15535738E+04</pdfrwt>
<pdfrwt beam="2">  1       -1 0.13269493E+00 0.15535738E+04</pdfrwt>
<totfact> 0.21699503E+01</totfact>
</mgrwt>
</event>
<event>
12    6  0.1457317E-007  0.1494632E+04  0.7818608E-02  0.8888031E-01
         -1   -1    0    0    0  501 -0.00000000000E+00  0.00000000000E+00  0.23587613253E+04  0.23587613253E+04  0.00000000000E+00 0.  1.
          2   -1    0    0  501    0  0.00000000000E+00 -0.00000000000E+00 -0.23676870791E+03  0.23676870791E+03  0.00000000000E+00 0. -1.
         24    2    1    2    0    0  0.37624958934E+03 -0.28064886114E+03  0.58407880934E+03  0.75369061787E+03  0.81079930941E+02 0.  0.
        254    2    1    2    0    0 -0.37624958934E+03  0.28064886114E+03  0.15379138081E+04  0.18418394154E+04  0.89825720936E+03 0.  0.
         23    2    4    4    0    0  0.20392811754E+03  0.15793921833E+02  0.64649200335E+02  0.23381554561E+03  0.93027228130E+02 0.  0.
         23    2    4    4    0    0 -0.58017770688E+03  0.26485493931E+03  0.14732646078E+04  0.16080238698E+04  0.92075245494E+02 0.  0.
          4    1    3    3  502    0  0.14970478040E+03 -0.99159300688E+02  0.16475583962E+03  0.24369771209E+03  0.00000000000E+00 0. -1.
         -3    1    3    3    0  502  0.22654480895E+03 -0.18148956046E+03  0.41932296972E+03  0.50999290578E+03  0.00000000000E+00 0.  1.
         11    1    5    5    0    0 -0.77762360714E+01  0.90345458202E+01  0.86431107136E+01  0.14724001780E+02  0.00000000000E+00 0. -1.
        -11    1    5    5    0    0  0.21170435361E+03  0.67593760125E+01  0.56006089621E+02  0.21909154383E+03  0.00000000000E+00 0.  1.
          3    1    6    6  503    0 -0.35810018177E+03  0.20622326783E+03  0.99787492045E+03  0.10800546899E+04  0.00000000000E+00 0. -1.
         -3    1    6    6    0  503 -0.22207752511E+03  0.58631671484E+02  0.47538968731E+03  0.52796917984E+03  0.00000000000E+00 0.  1.
<mgrwt>
<rscale>  0 0.14946316E+04</rscale>
<asrwt>0</asrwt>
<pdfrwt beam="1">  1        2 0.36425957E-01 0.14946316E+04</pdfrwt>
<pdfrwt beam="2">  1       -1 0.36288634E+00 0.14946316E+04</pdfrwt>
<totfact> 0.20321171E+00</totfact>
</mgrwt>
</event>
<event>
12    6  0.1457317E-007  0.2032805E+04  0.7818608E-02  0.8591435E-01
         -1   -1    0    0    0  501 -0.00000000000E+00  0.00000000000E+00  0.45463387884E+03  0.45463387884E+03  0.00000000000E+00 0.  1.
          2   -1    0    0  501    0  0.00000000000E+00 -0.00000000000E+00 -0.22723206439E+04  0.22723206439E+04  0.00000000000E+00 0. -1.
         24    2    1    2    0    0  0.33465868364E+03 -0.46578414695E+03  0.38766122717E+02  0.58032674897E+03  0.79529976807E+02 0.  0.
        254    2    1    2    0    0 -0.33465868364E+03  0.46578414695E+03 -0.18564528878E+04  0.21466277738E+04  0.91249228408E+03 0.  0.
         23    2    4    4    0    0 -0.37825303098E+03  0.62591008157E+01 -0.22669776874E+03  0.45061505798E+03  0.92452800608E+02 0.  0.
         23    2    4    4    0    0  0.43594347345E+02  0.45952504614E+03 -0.16297551191E+04  0.16960127158E+04  0.85402862464E+02 0.  0.
          2    1    3    3  502    0  0.78341590598E+02 -0.14822107548E+03 -0.16678355302E+02  0.16847866206E+03  0.00000000000E+00 0. -1.
         -1    1    3    3    0  502  0.25631709304E+03 -0.31756307148E+03  0.55444478019E+02  0.41184808691E+03  0.00000000000E+00 0.  1.
         11    1    5    5    0    0 -0.14666580409E+03 -0.37992833548E+02 -0.11206134906E+03  0.18844643653E+03  0.00000000000E+00 0.  1.
        -11    1    5    5    0    0 -0.23158722689E+03  0.44251934363E+02 -0.11463641968E+03  0.26216862145E+03  0.00000000000E+00 0. -1.
          3    1    6    6  503    0  0.64811772494E+02  0.40511544597E+03 -0.14565308590E+04  0.15132089194E+04  0.00000000000E+00 0. -1.
         -3    1    6    6    0  503 -0.21217425149E+02  0.54409600167E+02 -0.17322426009E+03  0.18280379647E+03  0.00000000000E+00 0.  1.
<mgrwt>
<rscale>  0 0.20328049E+04</rscale>
<asrwt>0</asrwt>
<pdfrwt beam="1">  1        2 0.34958779E+00 0.20328049E+04</pdfrwt>
<pdfrwt beam="2">  1       -1 0.69943674E-01 0.20328049E+04</pdfrwt>
<totfact> 0.10247347E+01</totfact>
</mgrwt>
</event>
<event>
12    6  0.1457317E-007  0.1380007E+04  0.7818608E-02  0.8968419E-01
         -1   -1    0    0    0  501 -0.00000000000E+00  0.00000000000E+00  0.19769579565E+03  0.19769579565E+03  0.00000000000E+00 0.  1.
          2   -1    0    0  501    0  0.00000000000E+00 -0.00000000000E+00 -0.24082688538E+04  0.24082688538E+04  0.00000000000E+00 0. -1.
         24    2    1    2    0    0  0.35935360391E+03  0.69069007077E+02 -0.91841672160E+03  0.99209262795E+03  0.82782652369E+02 0.  0.
        254    2    1    2    0    0 -0.35935360391E+03 -0.69069007077E+02 -0.12921563365E+04  0.16138720215E+04  0.89499126436E+03 0.  0.
         23    2    4    4    0    0 -0.60104812218E+03 -0.73030971746E+01 -0.52803361804E+03  0.80519313738E+03  0.90577625829E+02 0.  0.
         23    2    4    4    0    0  0.24169451827E+03 -0.61765909903E+02 -0.76412271848E+03  0.80867888409E+03  0.88581831522E+02 0.  0.
          2    1    3    3  502    0  0.35284920203E+03  0.53265108827E+02 -0.89078551223E+03  0.95960333471E+03  0.00000000000E+00 0. -1.
         -1    1    3    3    0  502  0.65044018762E+01  0.15803898250E+02 -0.27631209371E+02  0.32489293236E+02  0.00000000000E+00 0.  1.
         11    1    5    5    0    0 -0.12783161690E+02 -0.47141095287E+01  0.14854438032E+01  0.13705422093E+02  0.00000000000E+00 0. -1.
        -11    1    5    5    0    0 -0.58826496049E+03 -0.25889876459E+01 -0.52951906184E+03  0.79148771529E+03  0.00000000000E+00 0.  1.
          2    1    6    6  503    0  0.49135340572E+02 -0.52048045755E+02 -0.22556909698E+03  0.23665311803E+03  0.00000000000E+00 0. -1.
         -2    1    6    6    0  503  0.19255917770E+03 -0.97178641480E+01 -0.53855362150E+03  0.57202576606E+03  0.00000000000E+00 0.  1.
<mgrwt>
<rscale>  0 0.13800067E+04</rscale>
<asrwt>0</asrwt>
<pdfrwt beam="1">  1        2 0.37050292E+00 0.13800067E+04</pdfrwt>
<pdfrwt beam="2">  1       -1 0.30414736E-01 0.13800067E+04</pdfrwt>
<totfact> 0.43615518E+01</totfact>
</mgrwt>
</event>
<event>
12    6  0.1457317E-007  0.1897102E+04  0.7818608E-02  0.8656300E-01
          2   -1    0    0  501    0  0.00000000000E+00  0.00000000000E+00  0.46336057128E+03  0.46336057128E+03  0.00000000000E+00 0. -1.
         -1   -1    0    0    0  501 -0.00000000000E+00 -0.00000000000E+00 -0.19417896679E+04  0.19417896679E+04  0.00000000000E+00 0.  1.
         24    2    1    2    0    0 -0.74786303377E+02  0.14152339640E+03  0.33196209864E+03  0.37749089096E+03  0.81723160285E+02 0.  0.
        254    2    1    2    0    0  0.74786303377E+02 -0.14152339640E+03 -0.18103911952E+04  0.20276593482E+04  0.89903519933E+03 0.  0.
         23    2    4    4    0    0 -0.35214045999E+03 -0.24027807069E+03 -0.63675806162E+03  0.77157675851E+03  0.90185422515E+02 0.  0.
         23    2    4    4    0    0  0.42692676337E+03  0.98754674290E+02 -0.11736331336E+04  0.12560825897E+04  0.91158064913E+02 0.  0.
          4    1    3    3  502    0 -0.73546613726E+02  0.13115801597E+03  0.33450237740E+03  0.36674701093E+03  0.00000000000E+00 0. -1.
         -3    1    3    3    0  502 -0.12396896517E+01  0.10365380427E+02 -0.25402787627E+01  0.10743880027E+02  0.00000000000E+00 0.  1.
         11    1    5    5    0    0 -0.33284623526E+03 -0.23006422757E+03 -0.62996452908E+03  0.74871321148E+03  0.00000000000E+00 0.  1.
        -11    1    5    5    0    0 -0.19294224725E+02 -0.10213843113E+02 -0.67935325334E+01  0.22863547038E+02  0.00000000000E+00 0. -1.
          2    1    6    6  503    0  0.40631934447E+03  0.11336219637E+03 -0.11197438690E+04  0.11965670602E+04  0.00000000000E+00 0.  1.
         -2    1    6    6    0  503  0.20607418896E+02 -0.14607522079E+02 -0.53889264579E+02  0.59515529500E+02  0.00000000000E+00 0. -1.
<mgrwt>
<rscale>  0 0.18971018E+04</rscale>
<asrwt>0</asrwt>
<pdfrwt beam="1">  1        2 0.71286241E-01 0.18971018E+04</pdfrwt>
<pdfrwt beam="2">  1       -1 0.29873687E+00 0.18971018E+04</pdfrwt>
<totfact> 0.24249691E+00</totfact>
</mgrwt>
</event>
<event>
12    6  0.1457317E-007  0.1425784E+04  0.7818608E-02  0.8935364E-01
         -1   -1    0    0    0  501 -0.00000000000E+00  0.00000000000E+00  0.96734271784E+03  0.96734271784E+03  0.00000000000E+00 0.  1.
          2   -1    0    0  501    0  0.00000000000E+00 -0.00000000000E+00 -0.52537209910E+03  0.52537209910E+03  0.00000000000E+00 0. -1.
         24    2    1    2    0    0 -0.75042108341E+02 -0.96738592392E+02 -0.29342638842E+03  0.32833851817E+03  0.81960135469E+02 0.  0.
        254    2    1    2    0    0  0.75042108341E+02  0.96738592392E+02  0.73539700715E+03  0.11643762988E+04  0.89441250759E+03 0.  0.
         23    2    4    4    0    0 -0.11691916283E+03 -0.30137068168E+03  0.44364797380E+02  0.33876554505E+03  0.91101486556E+02 0.  0.
         23    2    4    4    0    0  0.19196127117E+03  0.39810927407E+03  0.69103220977E+03  0.82561075372E+03  0.93634811834E+02 0.  0.
          4    1    3    3  502    0 -0.87365931080E+02 -0.10089521552E+03 -0.27618033192E+03  0.30673804161E+03  0.00000000000E+00 0. -1.
         -3    1    3    3    0  502  0.12323822739E+02  0.41566231283E+01 -0.17246056499E+02  0.21600476557E+02  0.00000000000E+00 0.  1.
         11    1    5    5    0    0 -0.59799185948E+02 -0.55917896672E+02 -0.47687340902E+01  0.82009113110E+02  0.00000000000E+00 0.  1.
        -11    1    5    5    0    0 -0.57119976880E+02 -0.24545278501E+03  0.49133531470E+02  0.25675643194E+03  0.00000000000E+00 0. -1.
          1    1    6    6  503    0  0.17757286026E+03  0.36789455061E+03  0.67381614648E+03  0.78797634504E+03  0.00000000000E+00 0. -1.
         -1    1    6    6    0  503  0.14388410906E+02  0.30214723458E+02  0.17216063290E+02  0.37634408687E+02  0.00000000000E+00 0.  1.
<mgrwt>
<rscale>  0 0.14257838E+04</rscale>
<asrwt>0</asrwt>
<pdfrwt beam="1">  1        2 0.80826477E-01 0.14257838E+04</pdfrwt>
<pdfrwt beam="2">  1       -1 0.14882196E+00 0.14257838E+04</pdfrwt>
<totfact> 0.23004668E+01</totfact>
</mgrwt>
</event>
<event>
12    6  0.1457317E-007  0.1943090E+04  0.7818608E-02  0.8633700E-01
          2   -1    0    0  501    0  0.00000000000E+00  0.00000000000E+00  0.15286600734E+04  0.15286600734E+04  0.00000000000E+00 0. -1.
         -1   -1    0    0    0  501 -0.00000000000E+00 -0.00000000000E+00 -0.61746889026E+03  0.61746889026E+03  0.00000000000E+00 0.  1.
         24    2    1    2    0    0 -0.26800969394E+02  0.11999088432E+03  0.11836134221E+04  0.11925419068E+04  0.78098414521E+02 0.  0.
        254    2    1    2    0    0  0.26800969394E+02 -0.11999088432E+03 -0.27242223890E+03  0.95358705685E+03  0.90553757209E+03 0.  0.
         23    2    4    4    0    0 -0.21110794655E+03 -0.13897019438E+03 -0.52770814258E+03  0.59221538127E+03  0.91454327615E+02 0.  0.
         23    2    4    4    0    0  0.23790891595E+03  0.18979310056E+02  0.25528590368E+03  0.36137167559E+03  0.91965911093E+02 0.  0.
          4    1    3    3  502    0 -0.19260493355E+02  0.12507292798E+03  0.11647157703E+04  0.11715703263E+04  0.00000000000E+00 0. -1.
         -3    1    3    3    0  502 -0.75404760383E+01 -0.50820436584E+01  0.18897651758E+02  0.20971580499E+02  0.00000000000E+00 0.  1.
         11    1    5    5    0    0 -0.15056901410E+03 -0.89374343538E+02 -0.26123490321E+03  0.31448764037E+03  0.00000000000E+00 0.  1.
        -11    1    5    5    0    0 -0.60538932450E+02 -0.49595850839E+02 -0.26647323937E+03  0.27772774089E+03  0.00000000000E+00 0. -1.
          1    1    6    6  503    0  0.17412194316E+03  0.32932160549E+02  0.23224314482E+03  0.29212986257E+03  0.00000000000E+00 0. -1.
         -1    1    6    6    0  503  0.63786972791E+02 -0.13952850494E+02  0.23042758857E+02  0.69241813021E+02  0.00000000000E+00 0.  1.
<mgrwt>
<rscale>  0 0.19430904E+04</rscale>
<asrwt>0</asrwt>
<pdfrwt beam="1">  1        2 0.23517847E+00 0.19430904E+04</pdfrwt>
<pdfrwt beam="2">  1       -1 0.94995214E-01 0.19430904E+04</pdfrwt>
<totfact> 0.13926768E+01</totfact>
</mgrwt>
</event>
<event>
12    6  0.1457317E-007  0.1880263E+04  0.7818608E-02  0.8664744E-01
         -1   -1    0    0    0  501 -0.00000000000E+00  0.00000000000E+00  0.97529087737E+03  0.97529087737E+03  0.00000000000E+00 0.  1.
          2   -1    0    0  501    0  0.00000000000E+00 -0.00000000000E+00 -0.90623975210E+03  0.90623975210E+03  0.00000000000E+00 0. -1.
         24    2    1    2    0    0 -0.79801000829E+01  0.26298432751E+03  0.73915931119E+03  0.78867983939E+03  0.80218222497E+02 0.  0.
        254    2    1    2    0    0  0.79801000829E+01 -0.26298432751E+03 -0.67010818592E+03  0.10928507901E+04  0.82222468342E+03 0.  0.
         23    2    4    4    0    0  0.13699069123E+03 -0.33865719444E+03  0.23345884033E+02  0.37735671596E+03  0.91640143779E+02 0.  0.
         23    2    4    4    0    0 -0.12901059115E+03  0.75672866931E+02 -0.69345406995E+03  0.71549407412E+03  0.93183193450E+02 0.  0.
          2    1    3    3  502    0 -0.37265319289E+02  0.12988428893E+03  0.30397744207E+03  0.33265735799E+03  0.00000000000E+00 0. -1.
         -1    1    3    3    0  502  0.29285219206E+02  0.13310003858E+03  0.43518186912E+03  0.45602248140E+03  0.00000000000E+00 0.  1.
         11    1    5    5    0    0  0.19286780942E+02 -0.88770981740E+01 -0.13666919433E+02  0.25250098572E+02  0.00000000000E+00 0. -1.
        -11    1    5    5    0    0  0.11770391029E+03 -0.32978009627E+03  0.37012803466E+02  0.35210661739E+03  0.00000000000E+00 0.  1.
          3    1    6    6  503    0 -0.49969735265E+02  0.18315679814E+02 -0.93011566569E+02  0.10716151401E+03  0.00000000000E+00 0. -1.
         -3    1    6    6    0  503 -0.79040855881E+02  0.57357187117E+02 -0.60044250338E+03  0.60833256010E+03  0.00000000000E+00 0.  1.
<mgrwt>
<rscale>  0 0.18802631E+04</rscale>
<asrwt>0</asrwt>
<pdfrwt beam="1">  1        2 0.13942150E+00 0.18802631E+04</pdfrwt>
<pdfrwt beam="2">  1       -1 0.15004475E+00 0.18802631E+04</pdfrwt>
<totfact> 0.10836320E+01</totfact>
</mgrwt>
</event>
<event>
12    6  0.1457317E-007  0.1248749E+04  0.7818608E-02  0.9071225E-01
         -1   -1    0    0    0  501 -0.00000000000E+00  0.00000000000E+00  0.30995888725E+03  0.30995888725E+03  0.00000000000E+00 0.  1.
          2   -1    0    0  501    0  0.00000000000E+00 -0.00000000000E+00 -0.12577258000E+04  0.12577258000E+04  0.00000000000E+00 0. -1.
         24    2    1    2    0    0  0.90082670018E+02 -0.75198625861E+02  0.10270153716E+03  0.17721549734E+03  0.84190296302E+02 0.  0.
        254    2    1    2    0    0 -0.90082670018E+02  0.75198625861E+02 -0.10504684500E+04  0.13904691900E+04  0.90341069460E+03 0.  0.
         23    2    4    4    0    0 -0.41950842291E+03  0.24389467147E+03 -0.77726946988E+03  0.92051300548E+03  0.87888775098E+02 0.  0.
         23    2    4    4    0    0  0.32942575289E+03 -0.16869604561E+03 -0.27319898008E+03  0.46995618448E+03  0.96132461479E+02 0.  0.
          4    1    3    3  502    0 -0.43424872893E+01 -0.19050973673E+02 -0.81297872906E+01  0.21163417379E+02  0.00000000000E+00 0. -1.
         -3    1    3    3    0  502  0.94425157307E+02 -0.56147652188E+02  0.11083132445E+03  0.15605207996E+03  0.00000000000E+00 0.  1.
         11    1    5    5    0    0 -0.96515734362E+02  0.56996896979E+02 -0.11660510764E+03  0.16174264859E+03  0.00000000000E+00 0. -1.
        -11    1    5    5    0    0 -0.32299268854E+03  0.18689777449E+03 -0.66066436224E+03  0.75877035689E+03  0.00000000000E+00 0.  1.
          1    1    6    6  503    0  0.87831183675E+02 -0.84611674025E+02 -0.12348616696E+03  0.17355772999E+03  0.00000000000E+00 0. -1.
         -1    1    6    6    0  503  0.24159456921E+03 -0.84084371585E+02 -0.14971281311E+03  0.29639845450E+03  0.00000000000E+00 0.  1.
<mgrwt>
<rscale>  0 0.12487486E+04</rscale>
<asrwt>0</asrwt>
<pdfrwt beam="1">  1        2 0.19349628E+00 0.12487486E+04</pdfrwt>
<pdfrwt beam="2">  1       -1 0.47685982E-01 0.12487486E+04</pdfrwt>
<totfact> 0.86154390E+01</totfact>
</mgrwt>
</event>
<event>
12    6  0.1457317E-007  0.1434450E+04  0.7818608E-02  0.8929253E-01
          2   -1    0    0  501    0  0.00000000000E+00  0.00000000000E+00  0.51476085192E+03  0.51476085192E+03  0.00000000000E+00 0. -1.
         -1   -1    0    0    0  501 -0.00000000000E+00 -0.00000000000E+00 -0.99932134961E+03  0.99932134961E+03  0.00000000000E+00 0.  1.
         24    2    1    2    0    0  0.26517120151E+02  0.23903997314E+03 -0.52111217395E+03  0.57929780115E+03  0.78643360525E+02 0.  0.
        254    2    1    2    0    0 -0.26517120151E+02 -0.23903997314E+03  0.36551676252E+02  0.93478440039E+03  0.90257552800E+03 0.  0.
         23    2    4    4    0    0  0.26711454890E+03  0.18269625566E+03  0.19743895493E+03  0.38874728379E+03  0.86105781813E+02 0.  0.
         23    2    4    4    0    0 -0.29363166905E+03 -0.42173622880E+03 -0.16088727868E+03  0.54603711660E+03  0.90503107716E+02 0.  0.
          2    1    3    3  502    0 -0.89119026733E+01  0.22669664418E+02 -0.17393592390E+02  0.29931133462E+02  0.00000000000E+00 0. -1.
         -1    1    3    3    0  502  0.35429022824E+02  0.21637030873E+03 -0.50371858156E+03  0.54936666768E+03  0.00000000000E+00 0.  1.
         11    1    5    5    0    0  0.55392218393E+02  0.96798121902E+01  0.61711694914E+02  0.83488501673E+02  0.00000000000E+00 0. -1.
        -11    1    5    5    0    0  0.21172233051E+03  0.17301644347E+03  0.13572726002E+03  0.30525878212E+03  0.00000000000E+00 0.  1.
          2    1    6    6  503    0 -0.67146252112E+02 -0.13514957648E+03 -0.84148558728E+02  0.17278601544E+03  0.00000000000E+00 0. -1.
         -2    1    6    6    0  503 -0.22648541694E+03 -0.28658665232E+03 -0.76738719954E+02  0.37325110116E+03  0.00000000000E+00 0.  1.
<mgrwt>
<rscale>  0 0.14344497E+04</rscale>
<asrwt>0</asrwt>
<pdfrwt beam="1">  1        2 0.79193978E-01 0.14344497E+04</pdfrwt>
<pdfrwt beam="2">  1       -1 0.15374175E+00 0.14344497E+04</pdfrwt>
<totfact> 0.21560617E+01</totfact>
</mgrwt>
</event>
<event>
12    6  0.1457317E-007  0.2659665E+04  0.7818608E-02  0.8348212E-01
         -1   -1    0    0    0  501 -0.00000000000E+00  0.00000000000E+00  0.60788837054E+03  0.60788837054E+03  0.00000000000E+00 0.  1.
          2   -1    0    0  501    0  0.00000000000E+00 -0.00000000000E+00 -0.29091760758E+04  0.29091760758E+04  0.00000000000E+00 0. -1.
         24    2    1    2    0    0  0.10492731314E+04  0.27013549681E+03 -0.17006857288E+04  0.20179637592E+04  0.76801654508E+02 0.  0.
        254    2    1    2    0    0 -0.10492731314E+04 -0.27013549681E+03 -0.60060197642E+03  0.14991006872E+04  0.84417583789E+03 0.  0.
         23    2    4    4    0    0 -0.87459261511E+02 -0.29707756818E+03  0.59495013288E+02  0.32840665674E+03  0.91690084777E+02 0.  0.
         23    2    4    4    0    0 -0.96181386988E+03  0.26942071365E+02 -0.66009698971E+03  0.11706940304E+04  0.94787560106E+02 0.  0.
          2    1    3    3  502    0  0.88064973757E+03  0.23898383396E+03 -0.14765116528E+04  0.17357257542E+04  0.00000000000E+00 0. -1.
         -1    1    3    3    0  502  0.16862339382E+03  0.31151662857E+02 -0.22417407607E+03  0.28223800493E+03  0.00000000000E+00 0.  1.
         11    1    5    5    0    0 -0.56013567965E+02 -0.56063291467E+02  0.23769347253E+02  0.82738106790E+02  0.00000000000E+00 0.  1.
        -11    1    5    5    0    0 -0.31445693546E+02 -0.24101427671E+03  0.35725666035E+02  0.24566854995E+03  0.00000000000E+00 0. -1.
          4    1    6    6  503    0 -0.84478989819E+03 -0.64550277911E+01 -0.56653750515E+03  0.10171904365E+04  0.00000000000E+00 0. -1.
         -4    1    6    6    0  503 -0.11702397169E+03  0.33397099156E+02 -0.93559484557E+02  0.15350359388E+03  0.00000000000E+00 0.  1.
<mgrwt>
<rscale>  0 0.26596649E+04</rscale>
<asrwt>0</asrwt>
<pdfrwt beam="1">  1        2 0.44756554E+00 0.26596649E+04</pdfrwt>
<pdfrwt beam="2">  1       -1 0.93521289E-01 0.26596649E+04</pdfrwt>
<totfact> 0.22004249E+00</totfact>
</mgrwt>
</event>
<event>
12    6  0.1457317E-007  0.1468442E+04  0.7818608E-02  0.8905714E-01
          2   -1    0    0  501    0  0.00000000000E+00  0.00000000000E+00  0.40735608027E+03  0.40735608027E+03  0.00000000000E+00 0. -1.
         -1   -1    0    0    0  501 -0.00000000000E+00 -0.00000000000E+00 -0.13233643327E+04  0.13233643327E+04  0.00000000000E+00 0.  1.
         24    2    1    2    0    0  0.68749461238E+02 -0.24844806809E+03  0.15199630435E+03  0.30979277806E+03  0.80098425995E+02 0.  0.
        254    2    1    2    0    0 -0.68749461238E+02  0.24844806809E+03 -0.10680045568E+04  0.14209276349E+04  0.90108194933E+03 0.  0.
         23    2    4    4    0    0 -0.44178818033E+03 -0.45012447528E+02 -0.50707465561E+03  0.68023528089E+03  0.91610121187E+02 0.  0.
         23    2    4    4    0    0  0.37303871909E+03  0.29346051562E+03 -0.56092990118E+03  0.74069235403E+03  0.93305139789E+02 0.  0.
          2    1    3    3  502    0  0.83723564386E+02 -0.22982513463E+03  0.12858384377E+03  0.27633861948E+03  0.00000000000E+00 0. -1.
         -1    1    3    3    0  502 -0.14974103148E+02 -0.18622933462E+02  0.23412460584E+02  0.33454158582E+02  0.00000000000E+00 0.  1.
         11    1    5    5    0    0 -0.14260442144E+03 -0.47820396921E+02 -0.12942296315E+03  0.19842659793E+03  0.00000000000E+00 0. -1.
        -11    1    5    5    0    0 -0.29918375889E+03  0.28079493930E+01 -0.37765169246E+03  0.48180868296E+03  0.00000000000E+00 0.  1.
          3    1    6    6  503    0  0.16312249290E+03  0.77972240829E+02 -0.24444776152E+03  0.30404494099E+03  0.00000000000E+00 0. -1.
         -3    1    6    6    0  503  0.20991622619E+03  0.21548827479E+03 -0.31648213967E+03  0.43664741304E+03  0.00000000000E+00 0.  1.
<mgrwt>
<rscale>  0 0.14684420E+04</rscale>
<asrwt>0</asrwt>
<pdfrwt beam="1">  1        2 0.62670166E-01 0.14684420E+04</pdfrwt>
<pdfrwt beam="2">  1       -1 0.20359451E+00 0.14684420E+04</pdfrwt>
<totfact> 0.12268966E+01</totfact>
</mgrwt>
</event>
<event>
12    6  0.1457317E-007  0.1603086E+04  0.7818608E-02  0.8818654E-01
          2   -1    0    0  501    0  0.00000000000E+00  0.00000000000E+00  0.24715239031E+04  0.24715239031E+04  0.00000000000E+00 0. -1.
         -1   -1    0    0    0  501 -0.00000000000E+00 -0.00000000000E+00 -0.25994936421E+03  0.25994936421E+03  0.00000000000E+00 0.  1.
         24    2    1    2    0    0  0.45170326082E+02 -0.50608075630E+02 -0.15805335400E+03  0.19013715408E+03  0.81053926326E+02 0.  0.
        254    2    1    2    0    0 -0.45170326082E+02  0.50608075630E+02  0.23696278929E+04  0.25413361132E+04  0.91577909670E+03 0.  0.
         23    2    4    4    0    0 -0.25830634839E+03  0.12265084953E+03  0.22493353695E+04  0.22694497045E+04  0.95535104596E+02 0.  0.
         23    2    4    4    0    0  0.21313602231E+03 -0.72042773905E+02  0.12029252344E+03  0.27188640879E+03  0.93993631760E+02 0.  0.
          2    1    3    3  502    0  0.32218665198E+02  0.16621124275E+02 -0.42890700616E+02  0.56159739660E+02  0.00000000000E+00 0. -1.
         -1    1    3    3    0  502  0.12951660883E+02 -0.67229199905E+02 -0.11516265339E+03  0.13397741442E+03  0.00000000000E+00 0.  1.
         11    1    5    5    0    0 -0.21442470685E+03  0.71489340852E+02  0.14790648173E+04  0.14962357483E+04  0.00000000000E+00 0.  1.
        -11    1    5    5    0    0 -0.43881641546E+02  0.51161508683E+02  0.77027055219E+03  0.77321395617E+03  0.00000000000E+00 0. -1.
          3    1    6    6  503    0  0.21994631545E+02 -0.24870508227E+02 -0.11310941538E+02  0.35074825655E+02  0.00000000000E+00 0. -1.
         -3    1    6    6    0  503  0.19114139076E+03 -0.47172265678E+02  0.13160346498E+03  0.23681158314E+03  0.00000000000E+00 0.  1.
<mgrwt>
<rscale>  0 0.16030859E+04</rscale>
<asrwt>0</asrwt>
<pdfrwt beam="1">  1        2 0.38023443E+00 0.16030859E+04</pdfrwt>
<pdfrwt beam="2">  1       -1 0.39992212E-01 0.16030859E+04</pdfrwt>
<totfact> 0.24101271E+01</totfact>
</mgrwt>
</event>
<event>
12    6  0.1457317E-007  0.2238891E+04  0.7818608E-02  0.8502413E-01
          2   -1    0    0  501    0  0.00000000000E+00  0.00000000000E+00  0.12035700664E+04  0.12035700664E+04  0.00000000000E+00 0. -1.
         -1   -1    0    0    0  501 -0.00000000000E+00 -0.00000000000E+00 -0.10412011379E+04  0.10412011379E+04  0.00000000000E+00 0.  1.
         24    2    1    2    0    0  0.26529903278E+03 -0.54223120978E+03  0.79022923973E+03  0.99761641872E+03  0.79862418788E+02 0.  0.
        254    2    1    2    0    0 -0.26529903278E+03  0.54223120978E+03 -0.62786031130E+03  0.12471547856E+04  0.89262994966E+03 0.  0.
         23    2    4    4    0    0 -0.17516276187E+03  0.19498605097E+03  0.19902624611E+03  0.34152789123E+03  0.91259523507E+02 0.  0.
         23    2    4    4    0    0 -0.90136270910E+02  0.34724515881E+03 -0.82688655740E+03  0.90562689435E+03  0.87834761347E+02 0.  0.
          2    1    3    3  502    0  0.18480400576E+03 -0.44434857009E+03  0.60230299026E+03  0.77095205063E+03  0.00000000000E+00 0. -1.
         -1    1    3    3    0  502  0.80495027016E+02 -0.97882639693E+02  0.18792624947E+03  0.22666436810E+03  0.00000000000E+00 0.  1.
         11    1    5    5    0    0 -0.66506741824E+02  0.29755666435E+02  0.21991018329E+02  0.76106184244E+02  0.00000000000E+00 0. -1.
        -11    1    5    5    0    0 -0.10865602004E+03  0.16523038453E+03  0.17703522778E+03  0.26542170698E+03  0.00000000000E+00 0.  1.
          4    1    6    6  503    0 -0.31610732619E+01  0.13106185197E+03 -0.37391927094E+03  0.39623581691E+03  0.00000000000E+00 0. -1.
         -4    1    6    6    0  503 -0.86975197648E+02  0.21618330684E+03 -0.45296728646E+03  0.50939107743E+03  0.00000000000E+00 0.  1.
<mgrwt>
<rscale>  0 0.22388913E+04</rscale>
<asrwt>0</asrwt>
<pdfrwt beam="1">  1        2 0.18516463E+00 0.22388913E+04</pdfrwt>
<pdfrwt beam="2">  1       -1 0.16018479E+00 0.22388913E+04</pdfrwt>
<totfact> 0.57028186E+00</totfact>
</mgrwt>
</event>
<event>
12    6  0.1457317E-007  0.1890088E+04  0.7818608E-02  0.8659806E-01
         -1   -1    0    0    0  501 -0.00000000000E+00  0.00000000000E+00  0.54337119635E+03  0.54337119635E+03  0.00000000000E+00 0.  1.
          2   -1    0    0  501    0  0.00000000000E+00 -0.00000000000E+00 -0.16436435310E+04  0.16436435310E+04  0.00000000000E+00 0. -1.
         24    2    1    2    0    0  0.55222745671E+03  0.87405409927E+02  0.11001843677E+03  0.57540151927E+03  0.79924854185E+02 0.  0.
        254    2    1    2    0    0 -0.55222745671E+03 -0.87405409927E+02 -0.12102907715E+04  0.16116132081E+04  0.90548247443E+03 0.  0.
         23    2    4    4    0    0  0.85692691418E+02  0.74917798548E+02 -0.83441853547E+03  0.84710659631E+03  0.91538949520E+02 0.  0.
         23    2    4    4    0    0 -0.63792014813E+03 -0.16232320848E+03 -0.37587223599E+03  0.76450661181E+03  0.99496142238E+02 0.  0.
          2    1    3    3  502    0  0.32924719722E+01 -0.68224788640E+01 -0.44845813811E+00  0.75886562868E+01  0.00000000000E+00 0. -1.
         -1    1    3    3    0  502  0.54893498474E+03  0.94227888791E+02  0.11046689491E+03  0.56781286298E+03  0.00000000000E+00 0.  1.
         11    1    5    5    0    0  0.56659746012E+02  0.37860720073E+02 -0.72228037125E+03  0.72548790179E+03  0.00000000000E+00 0. -1.
        -11    1    5    5    0    0  0.29032945406E+02  0.37057078476E+02 -0.11213816422E+03  0.12161869453E+03  0.00000000000E+00 0.  1.
          3    1    6    6  503    0 -0.13079793517E+03  0.69002049646E+01 -0.67911130172E+02  0.14753858571E+03  0.00000000000E+00 0. -1.
         -3    1    6    6    0  503 -0.50712221296E+03 -0.16922341344E+03 -0.30796110581E+03  0.61696802610E+03  0.00000000000E+00 0.  1.
<mgrwt>
<rscale>  0 0.18900884E+04</rscale>
<asrwt>0</asrwt>
<pdfrwt beam="1">  1        2 0.25286823E+00 0.18900884E+04</pdfrwt>
<pdfrwt beam="2">  1       -1 0.83595571E-01 0.18900884E+04</pdfrwt>
<totfact> 0.15977111E+01</totfact>
</mgrwt>
</event>
<event>
12    6  0.1457317E-007  0.1309880E+04  0.7818608E-02  0.9021767E-01
          2   -1    0    0  501    0  0.00000000000E+00  0.00000000000E+00  0.11268235530E+04  0.11268235530E+04  0.00000000000E+00 0. -1.
         -1   -1    0    0    0  501 -0.00000000000E+00 -0.00000000000E+00 -0.38066854454E+03  0.38066854454E+03  0.00000000000E+00 0.  1.
         24    2    1    2    0    0 -0.26199140803E+03 -0.96656125434E+02  0.41531764353E+03  0.50677325516E+03  0.79677365996E+02 0.  0.
        254    2    1    2    0    0  0.26199140803E+03  0.96656125434E+02  0.33083736489E+03  0.10007188423E+04  0.90222111200E+03 0.  0.
         23    2    4    4    0    0  0.24453693303E+03 -0.15243199954E+03  0.56895901373E+03  0.64423980205E+03  0.91086426759E+02 0.  0.
         23    2    4    4    0    0  0.17454475002E+02  0.24908812497E+03 -0.23812164884E+03  0.35647904029E+03  0.89587018150E+02 0.  0.
          2    1    3    3  502    0 -0.21820958851E+03 -0.45400908400E+02  0.32456459903E+03  0.39372432735E+03  0.00000000000E+00 0. -1.
         -1    1    3    3    0  502 -0.43781819524E+02 -0.51255217034E+02  0.90753044501E+02  0.11304892782E+03  0.00000000000E+00 0.  1.
         11    1    5    5    0    0  0.24485444348E+03 -0.15912230016E+03  0.56605511889E+03  0.63693955955E+03  0.00000000000E+00 0.  1.
        -11    1    5    5    0    0 -0.31751044715E+00  0.66903006191E+01  0.29038948347E+01  0.73002424938E+01  0.00000000000E+00 0. -1.
          1    1    6    6  503    0  0.36748504466E+02  0.36480284594E+02 -0.44709387036E+02  0.68411936339E+02  0.00000000000E+00 0. -1.
         -1    1    6    6    0  503 -0.19294029464E+02  0.21260784038E+03 -0.19341226181E+03  0.28806710395E+03  0.00000000000E+00 0.  1.
<mgrwt>
<rscale>  0 0.13098798E+04</rscale>
<asrwt>0</asrwt>
<pdfrwt beam="1">  1        2 0.17335747E+00 0.13098798E+04</pdfrwt>
<pdfrwt beam="2">  1       -1 0.58564392E-01 0.13098798E+04</pdfrwt>
<totfact> 0.69218541E+01</totfact>
</mgrwt>
</event>
<event>
12    6  0.1457317E-007  0.3378360E+04  0.7818608E-02  0.8143238E-01
         -1   -1    0    0    0  501 -0.00000000000E+00  0.00000000000E+00  0.10314523352E+04  0.10314523352E+04  0.00000000000E+00 0.  1.
          2   -1    0    0  501    0  0.00000000000E+00 -0.00000000000E+00 -0.27663214004E+04  0.27663214004E+04  0.00000000000E+00 0. -1.
         24    2    1    2    0    0  0.74306681139E+03  0.12341772390E+04 -0.15027572933E+04  0.20841678303E+04  0.10066935401E+03 0.  0.
        254    2    1    2    0    0 -0.74306681139E+03 -0.12341772390E+04 -0.23211177193E+03  0.17136059054E+04  0.89845844690E+03 0.  0.
         23    2    4    4    0    0 -0.52536579975E+03 -0.12119083952E+03 -0.17768338661E+03  0.57474475124E+03  0.89798107239E+02 0.  0.
         23    2    4    4    0    0 -0.21770101164E+03 -0.11129863995E+04 -0.54428385317E+02  0.11388611541E+04  0.88937187904E+02 0.  0.
          4    1    3    3  502    0  0.36083943133E+03  0.65513155223E+03 -0.83901637458E+03  0.11239888446E+04  0.00000000000E+00 0. -1.
         -3    1    3    3    0  502  0.38222738006E+03  0.57904568675E+03 -0.66374091873E+03  0.96017898571E+03  0.00000000000E+00 0.  1.
         11    1    5    5    0    0 -0.28651096059E+03 -0.30372264931E+02 -0.12379768667E+03  0.31358710471E+03  0.00000000000E+00 0.  1.
        -11    1    5    5    0    0 -0.23885483916E+03 -0.90818574592E+02 -0.53885699944E+02  0.26115764653E+03  0.00000000000E+00 0. -1.
          3    1    6    6  503    0 -0.15071766931E+03 -0.54098558226E+03 -0.20916697569E+02  0.56197751227E+03  0.00000000000E+00 0.  1.
         -3    1    6    6    0  503 -0.66983342325E+02 -0.57200081719E+03 -0.33511687748E+02  0.57688364185E+03  0.00000000000E+00 0. -1.
<mgrwt>
<rscale>  0 0.33783598E+04</rscale>
<asrwt>0</asrwt>
<pdfrwt beam="1">  1        2 0.42558790E+00 0.33783598E+04</pdfrwt>
<pdfrwt beam="2">  1       -1 0.15868498E+00 0.33783598E+04</pdfrwt>
<totfact> 0.68290149E-01</totfact>
</mgrwt>
</event>
<event>
12    6  0.1457317E-007  0.1469069E+04  0.7818608E-02  0.8905286E-01
          2   -1    0    0  501    0  0.00000000000E+00  0.00000000000E+00  0.10496084128E+04  0.10496084128E+04  0.00000000000E+00 0. -1.
         -1   -1    0    0    0  501 -0.00000000000E+00 -0.00000000000E+00 -0.51404027541E+03  0.51404027541E+03  0.00000000000E+00 0.  1.
         24    2    1    2    0    0 -0.30952920867E+03  0.32728423919E+03  0.18313004662E+03  0.49282215799E+03  0.80085961235E+02 0.  0.
        254    2    1    2    0    0  0.30952920867E+03 -0.32728423919E+03  0.35243809072E+03  0.10708265302E+04  0.90528092087E+03 0.  0.
         23    2    4    4    0    0  0.15094187511E+03 -0.57375492903E+03 -0.38697815759E+01  0.60059062644E+03  0.93359290376E+02 0.  0.
         23    2    4    4    0    0  0.15858733356E+03  0.24647068985E+03  0.35630787229E+03  0.47023590374E+03  0.90932733293E+02 0.  0.
          4    1    3    3  502    0 -0.20487710882E+02  0.58979247049E+02  0.34757352545E+02  0.71458879334E+02  0.00000000000E+00 0. -1.
         -3    1    3    3    0  502 -0.28904149779E+03  0.26830499214E+03  0.14837269408E+03  0.42136327866E+03  0.00000000000E+00 0.  1.
         11    1    5    5    0    0  0.93719949326E+02 -0.46415760808E+03 -0.29054820638E+02  0.47441532084E+03  0.00000000000E+00 0. -1.
        -11    1    5    5    0    0  0.57221925785E+02 -0.10959732095E+03  0.25185039062E+02  0.12617530560E+03  0.00000000000E+00 0.  1.
          3    1    6    6  503    0  0.10342223835E+03  0.13460998975E+03  0.26865776246E+03  0.31779396164E+03  0.00000000000E+00 0. -1.
         -3    1    6    6    0  503  0.55165095210E+02  0.11186070010E+03  0.87650109836E+02  0.15244194210E+03  0.00000000000E+00 0.  1.
<mgrwt>
<rscale>  0 0.14690691E+04</rscale>
<asrwt>0</asrwt>
<pdfrwt beam="1">  1        2 0.16147822E+00 0.14690691E+04</pdfrwt>
<pdfrwt beam="2">  1       -1 0.79083120E-01 0.14690691E+04</pdfrwt>
<totfact> 0.41372234E+01</totfact>
</mgrwt>
</event>
<event>
12    6  0.1457317E-007  0.1120502E+04  0.7818608E-02  0.9185437E-01
         -1   -1    0    0    0  501 -0.00000000000E+00  0.00000000000E+00  0.34765441026E+03  0.34765441026E+03  0.00000000000E+00 0.  1.
          2   -1    0    0  501    0  0.00000000000E+00 -0.00000000000E+00 -0.90285381991E+03  0.90285381991E+03  0.00000000000E+00 0. -1.
         24    2    1    2    0    0 -0.16628437941E+03  0.12823161969E+03 -0.17702798581E+03  0.28635955824E+03  0.81049649653E+02 0.  0.
        254    2    1    2    0    0  0.16628437941E+03 -0.12823161969E+03 -0.37817142383E+03  0.96414867194E+03  0.86167000219E+03 0.  0.
         23    2    4    4    0    0 -0.59591264871E+01  0.14108806277E+03  0.22140292824E+03  0.27820600043E+03  0.91858420420E+02 0.  0.
         23    2    4    4    0    0  0.17224350590E+03 -0.26931968245E+03 -0.59957435207E+03  0.68594267150E+03  0.93952265799E+02 0.  0.
          2    1    3    3  502    0 -0.37850221526E+02  0.62877402377E+02 -0.26646967492E+02  0.78078600627E+02  0.00000000000E+00 0. -1.
         -1    1    3    3    0  502 -0.12843415789E+03  0.65354217310E+02 -0.15038101832E+03  0.20828095761E+03  0.00000000000E+00 0.  1.
         11    1    5    5    0    0  0.42911171154E+02  0.71675807549E+02  0.10709602291E+03  0.13582469628E+03  0.00000000000E+00 0.  1.
        -11    1    5    5    0    0 -0.48870297642E+02  0.69412255217E+02  0.11430690533E+03  0.14238130415E+03  0.00000000000E+00 0. -1.
          2    1    6    6  503    0  0.13473473891E+03 -0.17036070480E+03 -0.31764195534E+03  0.38480206783E+03  0.00000000000E+00 0. -1.
         -2    1    6    6    0  503  0.37508766988E+02 -0.98958977655E+02 -0.28193239673E+03  0.30114060368E+03  0.00000000000E+00 0.  1.
<mgrwt>
<rscale>  0 0.11205019E+04</rscale>
<asrwt>0</asrwt>
<pdfrwt beam="1">  1        2 0.13890059E+00 0.11205019E+04</pdfrwt>
<pdfrwt beam="2">  1       -1 0.53485295E-01 0.11205019E+04</pdfrwt>
<totfact> 0.11646801E+02</totfact>
</mgrwt>
</event>
<event>
12    6  0.1457317E-007  0.1892009E+04  0.7818608E-02  0.8658844E-01
          2   -1    0    0  501    0  0.00000000000E+00  0.00000000000E+00  0.55417447493E+03  0.55417447493E+03  0.00000000000E+00 0. -1.
         -1   -1    0    0    0  501 -0.00000000000E+00 -0.00000000000E+00 -0.16148779508E+04  0.16148779508E+04  0.00000000000E+00 0.  1.
         24    2    1    2    0    0 -0.13582667000E+03  0.75624172868E+02  0.41431223904E+03  0.45001253257E+03  0.81784767814E+02 0.  0.
        254    2    1    2    0    0  0.13582667000E+03 -0.75624172868E+02 -0.14750157149E+04  0.17190398932E+04  0.86905632454E+03 0.  0.
         23    2    4    4    0    0 -0.21513544625E+03 -0.20836197094E+03 -0.12137782305E+04  0.12533339722E+04  0.88828384866E+02 0.  0.
         23    2    4    4    0    0  0.35096211625E+03  0.13273779808E+03 -0.26123748442E+03  0.46570592093E+03  0.88562133217E+02 0.  0.
          2    1    3    3  502    0 -0.13550475010E+03  0.88273998878E+02  0.39603744301E+03  0.42778439949E+03  0.00000000000E+00 0. -1.
         -1    1    3    3    0  502 -0.32191990395E+00 -0.12649826010E+02  0.18274796030E+02  0.22228133085E+02  0.00000000000E+00 0.  1.
         11    1    5    5    0    0 -0.16862889284E+03 -0.11860313250E+03 -0.91425543786E+03  0.93721150879E+03  0.00000000000E+00 0.  1.
        -11    1    5    5    0    0 -0.46506553410E+02 -0.89758838444E+02 -0.29952279264E+03  0.31612246345E+03  0.00000000000E+00 0. -1.
          2    1    6    6  503    0 -0.53416502747E+01  0.13951739916E+01 -0.18169013342E+01  0.58121311566E+01  0.00000000000E+00 0. -1.
         -2    1    6    6    0  503  0.35630376653E+03  0.13134262408E+03 -0.25942058308E+03  0.45989378977E+03  0.00000000000E+00 0.  1.
<mgrwt>
<rscale>  0 0.18920086E+04</rscale>
<asrwt>0</asrwt>
<pdfrwt beam="1">  1        2 0.85257615E-01 0.18920086E+04</pdfrwt>
<pdfrwt beam="2">  1       -1 0.24844275E+00 0.18920086E+04</pdfrwt>
<totfact> 0.41689245E+00</totfact>
</mgrwt>
</event>
<event>
12    6  0.1457317E-007  0.2608742E+04  0.7818608E-02  0.8365238E-01
         -1   -1    0    0    0  501 -0.00000000000E+00  0.00000000000E+00  0.17446894516E+04  0.17446894516E+04  0.00000000000E+00 0.  1.
          2   -1    0    0  501    0  0.00000000000E+00 -0.00000000000E+00 -0.97517821932E+03  0.97517821932E+03  0.00000000000E+00 0. -1.
         24    2    1    2    0    0 -0.92476452594E+03 -0.64222092755E+03  0.56875017017E+03  0.12638867456E+04  0.79346086834E+02 0.  0.
        254    2    1    2    0    0  0.92476452594E+03  0.64222092755E+03  0.20076106211E+03  0.14559809253E+04  0.90107619130E+03 0.  0.
         23    2    4    4    0    0  0.53142103201E+03  0.10452083975E+03 -0.29163471592E+03  0.62166003417E+03  0.89874753706E+02 0.  0.
         23    2    4    4    0    0  0.39334349394E+03  0.53770008780E+03  0.49239577803E+03  0.83432089112E+03  0.98981101744E+02 0.  0.
          4    1    3    3  502    0 -0.49465633604E+03 -0.33180833372E+03  0.34378937125E+03  0.68773017448E+03  0.00000000000E+00 0. -1.
         -3    1    3    3    0  502 -0.43010818990E+03 -0.31041259383E+03  0.22496079892E+03  0.57615657115E+03  0.00000000000E+00 0.  1.
         11    1    5    5    0    0  0.13024443480E+03  0.36528707038E+02 -0.32061998869E+02  0.13901773630E+03  0.00000000000E+00 0.  1.
        -11    1    5    5    0    0  0.40117659721E+03  0.67992132711E+02 -0.25957271705E+03  0.48264229787E+03  0.00000000000E+00 0. -1.
          2    1    6    6  503    0  0.34582290205E+03  0.41825596147E+03  0.37009843963E+03  0.65688993287E+03  0.00000000000E+00 0. -1.
         -2    1    6    6    0  503  0.47520591886E+02  0.11944412633E+03  0.12229733840E+03  0.17743095825E+03  0.00000000000E+00 0.  1.
<mgrwt>
<rscale>  0 0.26087416E+04</rscale>
<asrwt>0</asrwt>
<pdfrwt beam="1">  1        2 0.15002742E+00 0.26087416E+04</pdfrwt>
<pdfrwt beam="2">  1       -1 0.26841376E+00 0.26087416E+04</pdfrwt>
<totfact> 0.13935084E+00</totfact>
</mgrwt>
</event>
<event>
12    6  0.1457317E-007  0.3078114E+04  0.7818608E-02  0.8221770E-01
          2   -1    0    0  501    0  0.00000000000E+00  0.00000000000E+00  0.17777806802E+04  0.17777806802E+04  0.00000000000E+00 0. -1.
         -1   -1    0    0    0  501 -0.00000000000E+00 -0.00000000000E+00 -0.13323894138E+04  0.13323894138E+04  0.00000000000E+00 0.  1.
         24    2    1    2    0    0  0.12022554904E+04 -0.29619019188E+03  0.87835768203E+03  0.15202761836E+04  0.81120669209E+02 0.  0.
        254    2    1    2    0    0 -0.12022554904E+04  0.29619019188E+03 -0.43296641564E+03  0.15898939104E+04  0.89841851904E+03 0.  0.
         23    2    4    4    0    0 -0.13251785573E+04  0.33864085529E+03 -0.37033174182E+03  0.14199359430E+04  0.91085924827E+02 0.  0.
         23    2    4    4    0    0  0.12292306694E+03 -0.42450663414E+02 -0.62634673825E+02  0.16995796736E+03  0.89724406338E+02 0.  0.
          4    1    3    3  502    0  0.11987362358E+04 -0.29730971940E+03  0.86878609620E+03  0.15100168586E+04  0.00000000000E+00 0. -1.
         -1    1    3    3    0  502  0.35192545784E+01  0.11195275220E+01  0.95715858335E+01  0.10259325028E+02  0.00000000000E+00 0.  1.
         11    1    5    5    0    0 -0.19074199546E+03  0.42768240141E+02 -0.86031822834E+02  0.21357224945E+03  0.00000000000E+00 0. -1.
        -11    1    5    5    0    0 -0.11344365619E+04  0.29587261515E+03 -0.28429991898E+03  0.12063636936E+04  0.00000000000E+00 0.  1.
          2    1    6    6  503    0  0.88233336977E+02 -0.68515791313E+02 -0.30016190664E+02  0.11567414195E+03  0.00000000000E+00 0.  1.
         -2    1    6    6    0  503  0.34689729967E+02  0.26065127900E+02 -0.32618483161E+02  0.54283825411E+02  0.00000000000E+00 0. -1.
<mgrwt>
<rscale>  0 0.30781138E+04</rscale>
<asrwt>0</asrwt>
<pdfrwt beam="1">  1        2 0.27350472E+00 0.30781138E+04</pdfrwt>
<pdfrwt beam="2">  1       -1 0.20498299E+00 0.30781138E+04</pdfrwt>
<totfact> 0.11951952E+00</totfact>
</mgrwt>
</event>
<event>
12    6  0.1457317E-007  0.2278789E+04  0.7818608E-02  0.8486332E-01
          2   -1    0    0  501    0  0.00000000000E+00  0.00000000000E+00  0.22695052963E+04  0.22695052963E+04  0.00000000000E+00 0. -1.
         -1   -1    0    0    0  501 -0.00000000000E+00 -0.00000000000E+00 -0.57202749246E+03  0.57202749246E+03  0.00000000000E+00 0.  1.
         24    2    1    2    0    0  0.36738134563E+03  0.68091948748E+03  0.10470278012E+02  0.77793736776E+03  0.80352472742E+02 0.  0.
        254    2    1    2    0    0 -0.36738134563E+03 -0.68091948748E+03  0.16870075258E+04  0.20635954210E+04  0.90211488617E+03 0.  0.
         23    2    4    4    0    0  0.20600782339E+03 -0.47805983545E+03  0.50317146236E+03  0.72952953423E+03  0.89729544845E+02 0.  0.
         23    2    4    4    0    0 -0.57338916902E+03 -0.20285965204E+03  0.11838360634E+04  0.13340658868E+04  0.91306010278E+02 0.  0.
          4    1    3    3  502    0  0.28908010801E+02  0.92717730941E+02  0.20356975073E+02  0.99230323759E+02  0.00000000000E+00 0. -1.
         -3    1    3    3    0  502  0.33847333483E+03  0.58820175654E+03 -0.98866970607E+01  0.67870704400E+03  0.00000000000E+00 0.  1.
         11    1    5    5    0    0  0.14403523980E+03 -0.25163598829E+03  0.31962456725E+03  0.43153989954E+03  0.00000000000E+00 0. -1.
        -11    1    5    5    0    0  0.61972583589E+02 -0.22642384716E+03  0.18354689511E+03  0.29798963469E+03  0.00000000000E+00 0.  1.
          3    1    6    6  503    0 -0.24662609535E+03 -0.67971381461E+02  0.58823233337E+03  0.64145289587E+03  0.00000000000E+00 0. -1.
         -3    1    6    6    0  503 -0.32676307368E+03 -0.13488827058E+03  0.59560373008E+03  0.69261299088E+03  0.00000000000E+00 0.  1.
<mgrwt>
<rscale>  0 0.22787886E+04</rscale>
<asrwt>0</asrwt>
<pdfrwt beam="1">  1        2 0.34915466E+00 0.22787886E+04</pdfrwt>
<pdfrwt beam="2">  1       -1 0.88004230E-01 0.22787886E+04</pdfrwt>
<totfact> 0.61867320E+00</totfact>
</mgrwt>
</event>
<event>
12    6  0.1457317E-007  0.1780610E+04  0.7818608E-02  0.8716679E-01
          2   -1    0    0  501    0  0.00000000000E+00  0.00000000000E+00  0.10626682891E+04  0.10626682891E+04  0.00000000000E+00 0. -1.
         -1   -1    0    0    0  501 -0.00000000000E+00 -0.00000000000E+00 -0.74589889206E+03  0.74589889206E+03  0.00000000000E+00 0.  1.
         24    2    1    2    0    0  0.62894078135E+03  0.15263892505E+03  0.26286498427E+03  0.70312240491E+03  0.80112223990E+02 0.  0.
        254    2    1    2    0    0 -0.62894078135E+03 -0.15263892505E+03  0.53904412805E+02  0.11054447763E+04  0.89455984697E+03 0.  0.
         23    2    4    4    0    0 -0.66636592952E+03 -0.40568297085E+03 -0.97623313880E+02  0.79150826373E+03  0.91284145774E+02 0.  0.
         23    2    4    4    0    0  0.37425148169E+02  0.25304404580E+03  0.15152772668E+03  0.31393651256E+03  0.10081443913E+03 0.  0.
          4    1    3    3  502    0  0.46699111482E+03  0.84192663053E+02  0.21465571323E+03  0.52081300008E+03  0.00000000000E+00 0. -1.
         -1    1    3    3    0  502  0.16194966654E+03  0.68446262001E+02  0.48209271037E+02  0.18230940483E+03  0.00000000000E+00 0.  1.
         11    1    5    5    0    0 -0.35255463080E+03 -0.25972407739E+03 -0.78589114113E+02  0.44489056287E+03  0.00000000000E+00 0. -1.
        -11    1    5    5    0    0 -0.31381129872E+03 -0.14595889346E+03 -0.19034199767E+02  0.34661770086E+03  0.00000000000E+00 0.  1.
          1    1    6    6  503    0 -0.32534565082E+02  0.46358363437E+02  0.34783755716E+02  0.66464317098E+02  0.00000000000E+00 0.  1.
         -1    1    6    6    0  503  0.69959713251E+02  0.20668568236E+03  0.11674397097E+03  0.24747219546E+03  0.00000000000E+00 0. -1.
<mgrwt>
<rscale>  0 0.17806101E+04</rscale>
<asrwt>0</asrwt>
<pdfrwt beam="1">  1        2 0.16348743E+00 0.17806101E+04</pdfrwt>
<pdfrwt beam="2">  1       -1 0.11475368E+00 0.17806101E+04</pdfrwt>
<totfact> 0.17105074E+01</totfact>
</mgrwt>
</event>
<event>
12    6  0.1457317E-007  0.2583354E+04  0.7818608E-02  0.8373877E-01
          2   -1    0    0  501    0  0.00000000000E+00  0.00000000000E+00  0.17667479061E+04  0.17667479061E+04  0.00000000000E+00 0. -1.
         -1   -1    0    0    0  501 -0.00000000000E+00 -0.00000000000E+00 -0.94435067692E+03  0.94435067692E+03  0.00000000000E+00 0.  1.
         24    2    1    2    0    0  0.30504069318E+03  0.80733646336E+03  0.11203600163E+04  0.14164830412E+04  0.79847668087E+02 0.  0.
        254    2    1    2    0    0 -0.30504069318E+03 -0.80733646336E+03 -0.29796278717E+03  0.12946155419E+04  0.91782655722E+03 0.  0.
         23    2    4    4    0    0  0.38351719214E+02 -0.50024129754E+03 -0.56008396167E+03  0.75760167819E+03  0.92488099523E+02 0.  0.
         23    2    4    4    0    0 -0.34339241239E+03 -0.30709516582E+03  0.26212117450E+03  0.53701386367E+03  0.86316799579E+02 0.  0.
          2    1    3    3  502    0  0.17893145664E+03  0.54876536050E+03  0.70338646111E+03  0.90989691764E+03  0.00000000000E+00 0. -1.
         -1    1    3    3    0  502  0.12610923655E+03  0.25857110286E+03  0.41697355523E+03  0.50658612352E+03  0.00000000000E+00 0.  1.
         11    1    5    5    0    0  0.28647808121E+02 -0.46633666915E+03 -0.54842465653E+03  0.72045831926E+03  0.00000000000E+00 0.  1.
        -11    1    5    5    0    0  0.97039110923E+01 -0.33904628381E+02 -0.11659305143E+02  0.37143358930E+02  0.00000000000E+00 0. -1.
          3    1    6    6  503    0 -0.13459205486E+03 -0.68329745825E+02  0.72280135930E+02  0.16735708364E+03  0.00000000000E+00 0. -1.
         -3    1    6    6    0  503 -0.20880035754E+03 -0.23876542000E+03  0.18984103857E+03  0.36965678003E+03  0.00000000000E+00 0.  1.
<mgrwt>
<rscale>  0 0.25833541E+04</rscale>
<asrwt>0</asrwt>
<pdfrwt beam="1">  1        2 0.27180737E+00 0.25833541E+04</pdfrwt>
<pdfrwt beam="2">  1       -1 0.14528472E+00 0.25833541E+04</pdfrwt>
<totfact> 0.34505754E+00</totfact>
</mgrwt>
</event>
<event>
12    6  0.1457317E-007  0.2399811E+04  0.7818608E-02  0.8439574E-01
         -1   -1    0    0    0  501 -0.00000000000E+00  0.00000000000E+00  0.15274287810E+04  0.15274287810E+04  0.00000000000E+00 0.  1.
          2   -1    0    0  501    0  0.00000000000E+00 -0.00000000000E+00 -0.94261224385E+03  0.94261224385E+03  0.00000000000E+00 0. -1.
         24    2    1    2    0    0  0.78693351613E+03 -0.65533751909E+03  0.29773412324E+03  0.10694580360E+04  0.79770043589E+02 0.  0.
        254    2    1    2    0    0 -0.78693351613E+03  0.65533751909E+03  0.28708241393E+03  0.14005829889E+04  0.91130937319E+03 0.  0.
         23    2    4    4    0    0  0.12198891740E+03  0.28769111391E+03  0.25916234547E+03  0.41552509215E+03  0.88591804956E+02 0.  0.
         23    2    4    4    0    0 -0.90892243353E+03  0.36764640517E+03  0.27920068462E+02  0.98505789675E+03  0.90860664299E+02 0.  0.
          4    1    3    3  502    0  0.71315243400E+03 -0.61970781181E+03  0.26521433687E+03  0.98130668530E+03  0.00000000000E+00 0. -1.
         -3    1    3    3    0  502  0.73781082135E+02 -0.35629707273E+02  0.32519786367E+02  0.88151350681E+02  0.00000000000E+00 0.  1.
         11    1    5    5    0    0  0.13753497777E+02  0.17170149018E+02 -0.46307383302E+01  0.22481469166E+02  0.00000000000E+00 0. -1.
        -11    1    5    5    0    0  0.10823541962E+03  0.27052096489E+03  0.26379308380E+03  0.39304362298E+03  0.00000000000E+00 0.  1.
          3    1    6    6  503    0 -0.29350698152E+02  0.63216429022E+01 -0.14237414302E+02  0.33228460948E+02  0.00000000000E+00 0. -1.
         -3    1    6    6    0  503 -0.87957173538E+03  0.36132476227E+03  0.42157482765E+02  0.95182943580E+03  0.00000000000E+00 0.  1.
<mgrwt>
<rscale>  0 0.23998109E+04</rscale>
<asrwt>0</asrwt>
<pdfrwt beam="1">  1        2 0.14501727E+00 0.23998109E+04</pdfrwt>
<pdfrwt beam="2">  1       -1 0.23498904E+00 0.23998109E+04</pdfrwt>
<totfact> 0.24628953E+00</totfact>
</mgrwt>
</event>
<event>
12    6  0.1457317E-007  0.1437069E+04  0.7818608E-02  0.8927415E-01
         -1   -1    0    0    0  501 -0.00000000000E+00  0.00000000000E+00  0.18406548002E+04  0.18406548002E+04  0.00000000000E+00 0.  1.
          2   -1    0    0  501    0  0.00000000000E+00 -0.00000000000E+00 -0.28049360627E+03  0.28049360627E+03  0.00000000000E+00 0. -1.
         24    2    1    2    0    0  0.28149963763E+03 -0.27750343610E+03  0.80276226036E+03  0.89889390027E+03  0.85631736261E+02 0.  0.
        254    2    1    2    0    0 -0.28149963763E+03  0.27750343610E+03  0.75739893355E+03  0.12222545062E+04  0.87407249716E+03 0.  0.
         23    2    4    4    0    0  0.24756248955E+03 -0.12121521422E+03  0.20742615388E+03  0.35685325021E+03  0.91314393612E+02 0.  0.
         23    2    4    4    0    0 -0.52906212718E+03  0.39871865032E+03  0.54997277968E+03  0.86540125597E+03  0.86982635714E+02 0.  0.
          2    1    3    3  502    0  0.14072673700E+03 -0.87036296182E+02  0.37640983962E+03  0.41117356278E+03  0.00000000000E+00 0. -1.
         -1    1    3    3    0  502  0.14077290063E+03 -0.19046713992E+03  0.42635242073E+03  0.48772033749E+03  0.00000000000E+00 0.  1.
         11    1    5    5    0    0  0.24830803661E+03 -0.13000427321E+03  0.20617225601E+03  0.34794394843E+03  0.00000000000E+00 0.  1.
        -11    1    5    5    0    0 -0.74554705500E+00  0.87890589945E+01  0.12538978689E+01  0.89093017844E+01  0.00000000000E+00 0. -1.
          2    1    6    6  503    0 -0.20614109003E+03  0.20016519327E+03  0.26837844511E+03  0.39317584284E+03  0.00000000000E+00 0.  1.
         -2    1    6    6    0  503 -0.32292103716E+03  0.19855345705E+03  0.28159433457E+03  0.47222541313E+03  0.00000000000E+00 0. -1.
<mgrwt>
<rscale>  0 0.14370691E+04</rscale>
<asrwt>0</asrwt>
<pdfrwt beam="1">  1        2 0.43152864E-01 0.14370691E+04</pdfrwt>
<pdfrwt beam="2">  1       -1 0.28317765E+00 0.14370691E+04</pdfrwt>
<totfact> 0.55983186E+00</totfact>
</mgrwt>
</event>
<event>
12    6  0.1457317E-007  0.2258767E+04  0.7818608E-02  0.8494358E-01
         -1   -1    0    0    0  501 -0.00000000000E+00  0.00000000000E+00  0.13838263365E+04  0.13838263365E+04  0.00000000000E+00 0.  1.
          2   -1    0    0  501    0  0.00000000000E+00 -0.00000000000E+00 -0.92172523120E+03  0.92172523120E+03  0.00000000000E+00 0. -1.
         24    2    1    2    0    0 -0.31204956168E+03 -0.20933509388E+03  0.10669425221E+04  0.11339386996E+04  0.79085513119E+02 0.  0.
        254    2    1    2    0    0  0.31204956168E+03  0.20933509388E+03 -0.60484141684E+03  0.11716128681E+04  0.93040177489E+03 0.  0.
         23    2    4    4    0    0  0.42719171317E+03  0.47797378578E+03 -0.22970273462E+03  0.68715279715E+03  0.91999568758E+02 0.  0.
         23    2    4    4    0    0 -0.11514215148E+03 -0.26863869190E+03 -0.37513868222E+03  0.48446007096E+03  0.92455760353E+02 0.  0.
          2    1    3    3  502    0 -0.51715168826E+02 -0.38013052900E+01  0.12639844209E+03  0.13662164825E+03  0.00000000000E+00 0. -1.
         -1    1    3    3    0  502 -0.26033439286E+03 -0.20553378859E+03  0.94054408002E+03  0.99731705130E+03  0.00000000000E+00 0.  1.
         11    1    5    5    0    0  0.47860973237E+02  0.47188212463E+02 -0.55910333568E+02  0.87426343595E+02  0.00000000000E+00 0.  1.
        -11    1    5    5    0    0  0.37933073993E+03  0.43078557332E+03 -0.17379240105E+03  0.59972645356E+03  0.00000000000E+00 0. -1.
          2    1    6    6  503    0 -0.10119061697E+03 -0.21205205272E+03 -0.34867529780E+03  0.42045222954E+03  0.00000000000E+00 0. -1.
         -2    1    6    6    0  503 -0.13951534514E+02 -0.56586639173E+02 -0.26463384418E+02  0.64007841419E+02  0.00000000000E+00 0.  1.
<mgrwt>
<rscale>  0 0.22587675E+04</rscale>
<asrwt>0</asrwt>
<pdfrwt beam="1">  1        2 0.14180388E+00 0.22587675E+04</pdfrwt>
<pdfrwt beam="2">  1       -1 0.21289636E+00 0.22587675E+04</pdfrwt>
<totfact> 0.36139724E+00</totfact>
</mgrwt>
</event>
<event>
12    6  0.1457317E-007  0.2431862E+04  0.7818608E-02  0.8427670E-01
         -3   -1    0    0    0  501 -0.00000000000E+00  0.00000000000E+00  0.12922932083E+04  0.12922932083E+04  0.00000000000E+00 0.  1.
          2   -1    0    0  501    0  0.00000000000E+00 -0.00000000000E+00 -0.11440814679E+04  0.11440814679E+04  0.00000000000E+00 0. -1.
         24    2    1    2    0    0  0.23728378895E+03 -0.83190009531E+03 -0.54106774170E+03  0.10235032562E+04  0.80269852668E+02 0.  0.
        254    2    1    2    0    0 -0.23728378895E+03  0.83190009531E+03  0.68927948217E+03  0.14128714200E+04  0.87905521999E+03 0.  0.
         23    2    4    4    0    0 -0.45353468697E+03  0.78967139424E+03  0.73072464909E+03  0.11710059432E+04  0.89564407583E+02 0.  0.
         23    2    4    4    0    0  0.21625089801E+03  0.42228701069E+02 -0.41445166923E+02  0.24186547676E+03  0.90738596533E+02 0.  0.
          4    1    3    3  502    0  0.14313990406E+03 -0.54448677674E+03 -0.39429818350E+03  0.68733248119E+03  0.00000000000E+00 0. -1.
         -3    1    3    3    0  502  0.94143884896E+02 -0.28741331857E+03 -0.14676955820E+03  0.33617077501E+03  0.00000000000E+00 0.  1.
         11    1    5    5    0    0 -0.14239071119E+03  0.33594838429E+03  0.29229843460E+03  0.46751984600E+03  0.00000000000E+00 0.  1.
        -11    1    5    5    0    0 -0.31114397578E+03  0.45372300996E+03  0.43842621449E+03  0.70348609722E+03  0.00000000000E+00 0. -1.
          4    1    6    6  503    0  0.12273852863E+02  0.30789089348E+02 -0.12971566258E+02  0.35593215901E+02  0.00000000000E+00 0. -1.
         -4    1    6    6    0  503  0.20397704515E+03  0.11439611721E+02 -0.28473600665E+02  0.20627226086E+03  0.00000000000E+00 0.  1.
<mgrwt>
<rscale>  0 0.24318624E+04</rscale>
<asrwt>0</asrwt>
<pdfrwt beam="1">  1        2 0.17601253E+00 0.24318624E+04</pdfrwt>
<pdfrwt beam="2">  1       -3 0.19881434E+00 0.24318624E+04</pdfrwt>
<totfact> 0.17237145E+00</totfact>
</mgrwt>
</event>
<event>
12    6  0.1611598E-007  0.1777118E+04  0.7818608E-02  0.8718563E-01
          2   -1    0    0  501    0  0.00000000000E+00  0.00000000000E+00  0.14035587091E+04  0.14035587091E+04  0.00000000000E+00 0. -1.
         -1   -1    0    0    0  501 -0.00000000000E+00 -0.00000000000E+00 -0.56252534197E+03  0.56252534197E+03  0.00000000000E+00 0.  1.
         24    2    1    2    0    0 -0.63773926811E+03  0.82657341743E+02  0.16214291189E+03  0.66799614858E+03  0.79905696902E+02 0.  0.
        254    2    1    2    0    0  0.63773926811E+03 -0.82657341743E+02  0.67889045527E+03  0.12980879025E+04  0.90033124025E+03 0.  0.
         23    2    4    4    0    0  0.78087856602E+03  0.16180759134E+03  0.43305897884E+03  0.91212129694E+03  0.92044281114E+02 0.  0.
         23    2    4    4    0    0 -0.14313929791E+03 -0.24446493308E+03  0.24583147643E+03  0.38596660558E+03  0.91022764775E+02 0.  0.
          4    1    3    3  502    0 -0.61042572996E+02  0.19721023148E+02 -0.48109630015E+01  0.64329307761E+02  0.00000000000E+00 0. -1.
         -3    1    3    3    0  502 -0.57669669512E+03  0.62936318595E+02  0.16695387489E+03  0.60366684082E+03  0.00000000000E+00 0.  1.
         11    1    5    5    0    0  0.66859056259E+02  0.19389462490E+01  0.12103025975E+02  0.67973348852E+02  0.00000000000E+00 0. -1.
        -11    1    5    5    0    0  0.71401950976E+03  0.15986864509E+03  0.42095595286E+03  0.84414794809E+03  0.00000000000E+00 0.  1.
          2    1    6    6  503    0  0.94383937255E+01 -0.12296571514E+02  0.31410369930E+02  0.35027136427E+02  0.00000000000E+00 0. -1.
         -2    1    6    6    0  503 -0.15257769163E+03 -0.23216836157E+03  0.21442110650E+03  0.35093946915E+03  0.00000000000E+00 0.  1.
<mgrwt>
<rscale>  0 0.17771183E+04</rscale>
<asrwt>0</asrwt>
<pdfrwt beam="1">  1        2 0.21593211E+00 0.17771183E+04</pdfrwt>
<pdfrwt beam="2">  1       -1 0.86542361E-01 0.17771183E+04</pdfrwt>
<totfact> 0.20439614E+01</totfact>
</mgrwt>
</event>
<event>
12    6  0.1457317E-007  0.1419093E+04  0.7818608E-02  0.8940113E-01
         -1   -1    0    0    0  501 -0.00000000000E+00  0.00000000000E+00  0.58568793416E+03  0.58568793416E+03  0.00000000000E+00 0.  1.
          2   -1    0    0  501    0  0.00000000000E+00 -0.00000000000E+00 -0.85959825116E+03  0.85959825116E+03  0.00000000000E+00 0. -1.
         24    2    1    2    0    0 -0.28917751579E+03 -0.27956369685E+03 -0.22880441990E+03  0.46950666810E+03  0.79407509627E+02 0.  0.
        254    2    1    2    0    0  0.28917751579E+03  0.27956369685E+03 -0.45105897089E+02  0.97577951723E+03  0.88788041315E+03 0.  0.
         23    2    4    4    0    0  0.21578598052E+03  0.28079438522E+03  0.38323100169E+03  0.53121684314E+03  0.99580407784E+02 0.  0.
         23    2    4    4    0    0  0.73391535269E+02 -0.12306883674E+01 -0.42833689878E+03  0.44456267409E+03  0.93678387551E+02 0.  0.
          2    1    3    3  502    0 -0.28158173091E+03 -0.28407215337E+03 -0.22854181389E+03  0.46066975178E+03  0.00000000000E+00 0. -1.
         -1    1    3    3    0  502 -0.75957848742E+01  0.45084565230E+01 -0.26260601054E+00  0.88369163169E+01  0.00000000000E+00 0.  1.
         11    1    5    5    0    0  0.12549268887E+03  0.13908584760E+03  0.13276178767E+03  0.22960614153E+03  0.00000000000E+00 0.  1.
        -11    1    5    5    0    0  0.90293291645E+02  0.14170853762E+03  0.25046921402E+03  0.30161070160E+03  0.00000000000E+00 0. -1.
          4    1    6    6  503    0  0.86622704644E+01 -0.10177575696E+02 -0.23214851177E+01  0.13564927932E+02  0.00000000000E+00 0. -1.
         -4    1    6    6    0  503  0.64729264804E+02  0.89468873287E+01 -0.42601541366E+03  0.43099774616E+03  0.00000000000E+00 0.  1.
<mgrwt>
<rscale>  0 0.14190931E+04</rscale>
<asrwt>0</asrwt>
<pdfrwt beam="1">  1        2 0.13224588E+00 0.14190931E+04</pdfrwt>
<pdfrwt beam="2">  1       -1 0.90105836E-01 0.14190931E+04</pdfrwt>
<totfact> 0.41791837E+01</totfact>
</mgrwt>
</event>
<event>
12    6  0.1457317E-007  0.1999127E+04  0.7818608E-02  0.8607029E-01
          2   -1    0    0  501    0  0.00000000000E+00  0.00000000000E+00  0.23649347991E+04  0.23649347991E+04  0.00000000000E+00 0. -1.
         -1   -1    0    0    0  501 -0.00000000000E+00 -0.00000000000E+00 -0.42247574051E+03  0.42247574051E+03  0.00000000000E+00 0.  1.
         24    2    1    2    0    0 -0.59761991701E+03  0.53303399033E+03  0.78277931091E+03  0.11226753516E+04  0.79885514586E+02 0.  0.
        254    2    1    2    0    0  0.59761991701E+03 -0.53303399033E+03  0.11596797477E+04  0.16647351880E+04  0.88612150914E+03 0.  0.
         23    2    4    4    0    0  0.15132527343E+03  0.15360349885E+02  0.88028395548E+03  0.89849029025E+03  0.96175260205E+02 0.  0.
         23    2    4    4    0    0  0.44629464358E+03 -0.54839434022E+03  0.27939579218E+03  0.76624489774E+03  0.95676399157E+02 0.  0.
          4    1    3    3  502    0 -0.38450734469E+03  0.37231525382E+03  0.56415890822E+03  0.77765019133E+03  0.00000000000E+00 0. -1.
         -3    1    3    3    0  502 -0.21311257232E+03  0.16071873651E+03  0.21862040269E+03  0.34502516027E+03  0.00000000000E+00 0.  1.
         11    1    5    5    0    0  0.15971397290E+03  0.22673181822E+02  0.72135976615E+03  0.73917693317E+03  0.00000000000E+00 0.  1.
        -11    1    5    5    0    0 -0.83886994746E+01 -0.73128319377E+01  0.15892418933E+03  0.15931335708E+03  0.00000000000E+00 0. -1.
          1    1    6    6  503    0  0.18480764381E+02 -0.65839793562E+02  0.21299184026E+02  0.71624523095E+02  0.00000000000E+00 0. -1.
         -1    1    6    6    0  503  0.42781387920E+03 -0.48255454665E+03  0.25809660815E+03  0.69462037464E+03  0.00000000000E+00 0.  1.
<mgrwt>
<rscale>  0 0.19991274E+04</rscale>
<asrwt>0</asrwt>
<pdfrwt beam="1">  1        2 0.36383611E+00 0.19991274E+04</pdfrwt>
<pdfrwt beam="2">  1       -1 0.64996269E-01 0.19991274E+04</pdfrwt>
<totfact> 0.10571671E+01</totfact>
</mgrwt>
</event>
<event>
12    6  0.1457317E-007  0.1346768E+04  0.7818608E-02  0.8993278E-01
         -3   -1    0    0    0  501 -0.00000000000E+00  0.00000000000E+00  0.14948653717E+04  0.14948653717E+04  0.00000000000E+00 0.  1.
          4   -1    0    0  501    0  0.00000000000E+00 -0.00000000000E+00 -0.30333581157E+03  0.30333581157E+03  0.00000000000E+00 0. -1.
         24    2    1    2    0    0 -0.17179054090E+03  0.59320254684E+02 -0.93481037801E+02  0.21977547528E+03  0.80818763583E+02 0.  0.
        254    2    1    2    0    0  0.17179054090E+03 -0.59320254684E+02  0.12850105979E+04  0.15784257080E+04  0.89841226412E+03 0.  0.
         23    2    4    4    0    0 -0.10690497417E+03  0.27371915648E+03  0.10102583828E+04  0.10561149222E+04  0.91683578990E+02 0.  0.
         23    2    4    4    0    0  0.27869551507E+03 -0.33303941116E+03  0.27475221511E+03  0.52231078582E+03  0.93452328880E+02 0.  0.
          2    1    3    3  502    0 -0.14187540038E+03  0.48719472788E+02 -0.10803321240E+03  0.18486046425E+03  0.00000000000E+00 0. -1.
         -1    1    3    3    0  502 -0.29915140521E+02  0.10600781896E+02  0.14552174604E+02  0.34915011025E+02  0.00000000000E+00 0.  1.
         11    1    5    5    0    0 -0.25570053477E+02  0.60718062195E+02  0.11758526442E+03  0.13478429107E+03  0.00000000000E+00 0. -1.
        -11    1    5    5    0    0 -0.81334920692E+02  0.21300109428E+03  0.89267311841E+03  0.92133063111E+03  0.00000000000E+00 0.  1.
          3    1    6    6  503    0  0.83018086701E+02 -0.15815461410E+03  0.14211761295E+03  0.22825928369E+03  0.00000000000E+00 0. -1.
         -3    1    6    6    0  503  0.19567742837E+03 -0.17488479706E+03  0.13263460216E+03  0.29405150213E+03  0.00000000000E+00 0.  1.
<mgrwt>
<rscale>  0 0.13467683E+04</rscale>
<asrwt>0</asrwt>
<pdfrwt beam="1">  1        4 0.46667049E-01 0.13467683E+04</pdfrwt>
<pdfrwt beam="2">  1       -3 0.22997928E+00 0.13467683E+04</pdfrwt>
<totfact> 0.95727630E-01</totfact>
</mgrwt>
</event>
<event>
12    6  0.1457317E-007  0.1745476E+04  0.7818608E-02  0.8735845E-01
         -1   -1    0    0    0  501 -0.00000000000E+00  0.00000000000E+00  0.50257058840E+03  0.50257058840E+03  0.00000000000E+00 0.  1.
          2   -1    0    0  501    0  0.00000000000E+00 -0.00000000000E+00 -0.15155510933E+04  0.15155510933E+04  0.00000000000E+00 0. -1.
         24    2    1    2    0    0  0.15425064271E+02 -0.34411284172E+02  0.36173872837E+03  0.37010352283E+03  0.68553927079E+02 0.  0.
        254    2    1    2    0    0 -0.15425064271E+02  0.34411284172E+02 -0.13747192332E+04  0.16480181589E+04  0.90812378703E+03 0.  0.
         23    2    4    4    0    0  0.14017172308E+03 -0.35304193937E+03 -0.10229798381E+04  0.10946613650E+04  0.86654670831E+02 0.  0.
         23    2    4    4    0    0 -0.15559678736E+03  0.38745322354E+03 -0.35173939512E+03  0.55335679382E+03  0.90292737904E+02 0.  0.
          2    1    3    3  502    0 -0.14624010177E+02 -0.32249477191E+02  0.90247618180E+02  0.96945980009E+02  0.00000000000E+00 0. -1.
         -1    1    3    3    0  502  0.30049074448E+02 -0.21618069814E+01  0.27149111019E+03  0.27315754282E+03  0.00000000000E+00 0.  1.
         11    1    5    5    0    0  0.79273677371E+02 -0.16378729424E+03 -0.37408061952E+03  0.41598906666E+03  0.00000000000E+00 0. -1.
        -11    1    5    5    0    0  0.60898045713E+02 -0.18925464513E+03 -0.64889921860E+03  0.67867229838E+03  0.00000000000E+00 0.  1.
          1    1    6    6  503    0 -0.15825076942E+02  0.26671321903E+02 -0.64206409187E+02  0.71303965198E+02  0.00000000000E+00 0. -1.
         -1    1    6    6    0  503 -0.13977171041E+03  0.36078190164E+03 -0.28753298593E+03  0.48205282862E+03  0.00000000000E+00 0.  1.
<mgrwt>
<rscale>  0 0.17454758E+04</rscale>
<asrwt>0</asrwt>
<pdfrwt beam="1">  1        2 0.23316171E+00 0.17454758E+04</pdfrwt>
<pdfrwt beam="2">  1       -1 0.77318551E-01 0.17454758E+04</pdfrwt>
<totfact> 0.22537732E+01</totfact>
</mgrwt>
</event>
<event>
12    6  0.1457317E-007  0.1501429E+04  0.7818608E-02  0.8883504E-01
         -1   -1    0    0    0  501 -0.00000000000E+00  0.00000000000E+00  0.31363646260E+03  0.31363646260E+03  0.00000000000E+00 0.  1.
          2   -1    0    0  501    0  0.00000000000E+00 -0.00000000000E+00 -0.17968953955E+04  0.17968953955E+04  0.00000000000E+00 0. -1.
         24    2    1    2    0    0 -0.16039790348E+03  0.35746814655E+03 -0.79357528869E+02  0.40760507392E+03  0.79582131510E+02 0.  0.
        254    2    1    2    0    0  0.16039790348E+03 -0.35746814655E+03 -0.14039014041E+04  0.17029267842E+04  0.88063018163E+03 0.  0.
         23    2    4    4    0    0 -0.85500538611E+02  0.22025993238E+03 -0.14186298743E+03  0.29028119066E+03  0.91177204037E+02 0.  0.
         23    2    4    4    0    0  0.24589844209E+03 -0.57772807893E+03 -0.12620384167E+04  0.14126455936E+04  0.92686735236E+02 0.  0.
          2    1    3    3  502    0 -0.26656297458E+02  0.44062537695E+02  0.15712988876E+02  0.53842023009E+02  0.00000000000E+00 0. -1.
         -1    1    3    3    0  502 -0.13374160602E+03  0.31340560886E+03 -0.95070517745E+02  0.35376305091E+03  0.00000000000E+00 0.  1.
         11    1    5    5    0    0 -0.62789787052E+02  0.19677427153E+03 -0.15157424195E+03  0.25619801349E+03  0.00000000000E+00 0.  1.
        -11    1    5    5    0    0 -0.22710751559E+02  0.23485660855E+02  0.97112545193E+01  0.34083177177E+02  0.00000000000E+00 0. -1.
          2    1    6    6  503    0  0.12117330895E+03 -0.17332699859E+03 -0.41794074026E+03  0.46840119728E+03  0.00000000000E+00 0. -1.
         -2    1    6    6    0  503  0.12472513314E+03 -0.40440108034E+03 -0.84409767640E+03  0.94424439628E+03  0.00000000000E+00 0.  1.
<mgrwt>
<rscale>  0 0.15014285E+04</rscale>
<asrwt>0</asrwt>
<pdfrwt beam="1">  1        2 0.27644545E+00 0.15014285E+04</pdfrwt>
<pdfrwt beam="2">  1       -1 0.48251763E-01 0.15014285E+04</pdfrwt>
<totfact> 0.40948140E+01</totfact>
</mgrwt>
</event>
<event>
12    6  0.1457317E-007  0.1553741E+04  0.7818608E-02  0.8849482E-01
         -1   -1    0    0    0  501 -0.00000000000E+00  0.00000000000E+00  0.23621571780E+03  0.23621571780E+03  0.00000000000E+00 0.  1.
          2   -1    0    0  501    0  0.00000000000E+00 -0.00000000000E+00 -0.25549841862E+04  0.25549841862E+04  0.00000000000E+00 0. -1.
         24    2    1    2    0    0  0.12002423966E+03 -0.36005293524E+02  0.11734642057E+03  0.18917394888E+03  0.79463206869E+02 0.  0.
        254    2    1    2    0    0 -0.12002423966E+03  0.36005293524E+02 -0.24361148889E+04  0.26020259551E+04  0.90563851484E+03 0.  0.
         23    2    4    4    0    0 -0.23132079512E+03 -0.35419124183E+03 -0.75183935892E+03  0.86727895345E+03  0.89160615850E+02 0.  0.
         23    2    4    4    0    0  0.11129655546E+03  0.39019653536E+03 -0.16842755300E+04  0.17347470016E+04  0.89010332122E+02 0.  0.
          2    1    3    3  502    0  0.60126578001E+02 -0.58192047465E+02  0.56557180454E+02  0.10099620998E+03  0.00000000000E+00 0. -1.
         -1    1    3    3    0  502  0.59897661660E+02  0.22186753941E+02  0.60789240115E+02  0.88177738895E+02  0.00000000000E+00 0.  1.
         11    1    5    5    0    0 -0.82476827681E+02 -0.20718099824E+03 -0.37717181328E+03  0.43816089495E+03  0.00000000000E+00 0. -1.
        -11    1    5    5    0    0 -0.14884396744E+03 -0.14701024360E+03 -0.37466754565E+03  0.42911805850E+03  0.00000000000E+00 0.  1.
          2    1    6    6  503    0  0.19619294194E+02  0.19027737048E+03 -0.90713925237E+03  0.92708792335E+03  0.00000000000E+00 0. -1.
         -2    1    6    6    0  503  0.91677261264E+02  0.19991916487E+03 -0.77713627764E+03  0.80765907829E+03  0.00000000000E+00 0.  1.
<mgrwt>
<rscale>  0 0.15537405E+04</rscale>
<asrwt>0</asrwt>
<pdfrwt beam="1">  1        2 0.39307447E+00 0.15537405E+04</pdfrwt>
<pdfrwt beam="2">  1       -1 0.36340882E-01 0.15537405E+04</pdfrwt>
<totfact> 0.25771273E+01</totfact>
</mgrwt>
</event>
<event>
12    6  0.1457317E-007  0.1389847E+04  0.7818608E-02  0.8961201E-01
         -1   -1    0    0    0  501 -0.00000000000E+00  0.00000000000E+00  0.18594638329E+03  0.18594638329E+03  0.00000000000E+00 0.  1.
          2   -1    0    0  501    0  0.00000000000E+00 -0.00000000000E+00 -0.25970854427E+04  0.25970854427E+04  0.00000000000E+00 0. -1.
         24    2    1    2    0    0  0.48354132749E+02  0.33276837962E+03 -0.27781682447E+03  0.44336902040E+03  0.79504614122E+02 0.  0.
        254    2    1    2    0    0 -0.48354132749E+02 -0.33276837962E+03 -0.21333222350E+04  0.23396628056E+04  0.89993631392E+03 0.  0.
         23    2    4    4    0    0 -0.12825650253E+03  0.28765997326E+03 -0.74475685580E+03  0.81386609272E+03  0.92288958959E+02 0.  0.
         23    2    4    4    0    0  0.79902369785E+02 -0.62042835288E+03 -0.13885653792E+04  0.15257967129E+04  0.92876623050E+02 0.  0.
          2    1    3    3  502    0 -0.16832200052E+02  0.20460036400E+02 -0.20973810395E+02  0.33791075309E+02  0.00000000000E+00 0. -1.
         -1    1    3    3    0  502  0.65186332801E+02  0.31230834322E+03 -0.25684301408E+03  0.40957794509E+03  0.00000000000E+00 0.  1.
         11    1    5    5    0    0 -0.11043995156E+03  0.13719767926E+03 -0.42397266643E+03  0.45910021561E+03  0.00000000000E+00 0.  1.
        -11    1    5    5    0    0 -0.17816550975E+02  0.15046229400E+03 -0.32078418937E+03  0.35476587710E+03  0.00000000000E+00 0. -1.
          1    1    6    6  503    0  0.44534472095E+02 -0.54779223254E+03 -0.11664154120E+04  0.12894124874E+04  0.00000000000E+00 0. -1.
         -1    1    6    6    0  503  0.35367897690E+02 -0.72636120342E+02 -0.22214996718E+03  0.23638422554E+03  0.00000000000E+00 0.  1.
<mgrwt>
<rscale>  0 0.13898470E+04</rscale>
<asrwt>0</asrwt>
<pdfrwt beam="1">  1        2 0.39955159E+00 0.13898470E+04</pdfrwt>
<pdfrwt beam="2">  1       -1 0.28607137E-01 0.13898470E+04</pdfrwt>
<totfact> 0.37763782E+01</totfact>
</mgrwt>
</event>
<event>
12    6  0.1701790E-007  0.1319980E+04  0.7818608E-02  0.9013870E-01
          2   -1    0    0  501    0  0.00000000000E+00  0.00000000000E+00  0.48465514622E+03  0.48465514622E+03  0.00000000000E+00 0. -1.
         -1   -1    0    0    0  501 -0.00000000000E+00 -0.00000000000E+00 -0.89875561611E+03  0.89875561611E+03  0.00000000000E+00 0.  1.
         24    2    1    2    0    0 -0.90866363159E+02  0.15267180771E+03 -0.48144080804E+03  0.51921726858E+03  0.78967990438E+02 0.  0.
        254    2    1    2    0    0  0.90866363159E+02 -0.15267180771E+03  0.67340338156E+02  0.86419349375E+03  0.84304821729E+03 0.  0.
         23    2    4    4    0    0 -0.15584198395E+03  0.28279937129E+03 -0.57049062435E+02  0.34033154361E+03  0.91152376214E+02 0.  0.
         23    2    4    4    0    0  0.24670834711E+03 -0.43547117900E+03  0.12438940059E+03  0.52386195014E+03  0.91969905692E+02 0.  0.
          4    1    3    3  502    0 -0.41283700246E+01  0.16621826983E+02 -0.77449769364E+01  0.18796628396E+02  0.00000000000E+00 0. -1.
         -3    1    3    3    0  502 -0.86737993135E+02  0.13604998073E+03 -0.47369583111E+03  0.50042064018E+03  0.00000000000E+00 0.  1.
         11    1    5    5    0    0 -0.15170213462E+03  0.28530541873E+03 -0.66327692380E+02  0.32986676459E+03  0.00000000000E+00 0. -1.
        -11    1    5    5    0    0 -0.41398493293E+01 -0.25060474430E+01  0.92786299451E+01  0.10464779019E+02  0.00000000000E+00 0.  1.
          1    1    6    6  503    0  0.24895002501E+03 -0.39696601962E+03  0.10299853353E+03  0.47975705685E+03  0.00000000000E+00 0. -1.
         -1    1    6    6    0  503 -0.22416779012E+01 -0.38505159381E+02  0.21390867066E+02  0.44104893295E+02  0.00000000000E+00 0.  1.
<mgrwt>
<rscale>  0 0.13199796E+04</rscale>
<asrwt>0</asrwt>
<pdfrwt beam="1">  1        2 0.74562331E-01 0.13199796E+04</pdfrwt>
<pdfrwt beam="2">  1       -1 0.13827009E+00 0.13199796E+04</pdfrwt>
<totfact> 0.30954795E+01</totfact>
</mgrwt>
</event>
<event>
12    6  0.1457317E-007  0.2609318E+04  0.7818608E-02  0.8365043E-01
          2   -1    0    0  501    0  0.00000000000E+00  0.00000000000E+00  0.13471372995E+04  0.13471372995E+04  0.00000000000E+00 0. -1.
         -1   -1    0    0    0  501 -0.00000000000E+00 -0.00000000000E+00 -0.12635203343E+04  0.12635203343E+04  0.00000000000E+00 0.  1.
         24    2    1    2    0    0 -0.22958890688E+00 -0.59803849253E+03 -0.95179168607E+03  0.11268427303E+04  0.78848170421E+02 0.  0.
        254    2    1    2    0    0  0.22958890688E+00  0.59803849253E+03  0.10354086513E+04  0.14838149034E+04  0.87862705465E+03 0.  0.
         23    2    4    4    0    0  0.47035116801E+02  0.25143890621E+03  0.10853024899E+04  0.11186737217E+04  0.90086488134E+02 0.  0.
         23    2    4    4    0    0 -0.46805527894E+02  0.34659958632E+03 -0.49893838603E+02  0.36514118168E+03  0.92285734296E+02 0.  0.
          4    1    3    3  502    0 -0.11613548631E+02 -0.36674197771E+02 -0.94677270570E+02  0.10219421146E+03  0.00000000000E+00 0. -1.
         -3    1    3    3    0  502  0.11383959724E+02 -0.56136429476E+03 -0.85711441550E+03  0.10246485189E+04  0.00000000000E+00 0.  1.
         11    1    5    5    0    0  0.12632095381E+02  0.20999312590E+03  0.74492549246E+03  0.77406115526E+03  0.00000000000E+00 0.  1.
        -11    1    5    5    0    0  0.34403021419E+02  0.41445780314E+02  0.34037699743E+03  0.34461256647E+03  0.00000000000E+00 0. -1.
          2    1    6    6  503    0  0.22254332134E+02  0.66915044356E+02 -0.29165429280E+02  0.76311864903E+02  0.00000000000E+00 0. -1.
         -2    1    6    6    0  503 -0.69059860028E+02  0.27968454196E+03 -0.20728409323E+02  0.28882931678E+03  0.00000000000E+00 0.  1.
<mgrwt>
<rscale>  0 0.26093182E+04</rscale>
<asrwt>0</asrwt>
<pdfrwt beam="1">  1        2 0.20725189E+00 0.26093182E+04</pdfrwt>
<pdfrwt beam="2">  1       -1 0.19438774E+00 0.26093182E+04</pdfrwt>
<totfact> 0.25730814E+00</totfact>
</mgrwt>
</event>
<event>
12    6  0.1457317E-007  0.2230283E+04  0.7818608E-02  0.8505928E-01
         -1   -1    0    0    0  501 -0.00000000000E+00  0.00000000000E+00  0.87773834740E+03  0.87773834740E+03  0.00000000000E+00 0.  1.
          2   -1    0    0  501    0  0.00000000000E+00 -0.00000000000E+00 -0.14167557038E+04  0.14167557038E+04  0.00000000000E+00 0. -1.
         24    2    1    2    0    0  0.50764315619E+03  0.74521703163E+03  0.36991250465E+01  0.90527602572E+03  0.80380351876E+02 0.  0.
        254    2    1    2    0    0 -0.50764315619E+03 -0.74521703163E+03 -0.54271648148E+03  0.13892180255E+04  0.90682718578E+03 0.  0.
         23    2    4    4    0    0 -0.12157248294E+03 -0.69820397232E+03  0.20446330982E+01  0.71390844105E+03  0.85979219038E+02 0.  0.
         23    2    4    4    0    0 -0.38607067324E+03 -0.47013059313E+02 -0.54476111458E+03  0.67530958446E+03  0.89540886881E+02 0.  0.
          4    1    3    3  502    0  0.44655558130E+03  0.64922688968E+03 -0.23360294410E+02  0.78832299524E+03  0.00000000000E+00 0. -1.
         -3    1    3    3    0  502  0.61087574890E+02  0.95990141955E+02  0.27059419457E+02  0.11695303049E+03  0.00000000000E+00 0.  1.
         11    1    5    5    0    0 -0.25083113374E+02 -0.33882711529E+02 -0.59114338362E+01  0.42569305457E+02  0.00000000000E+00 0. -1.
        -11    1    5    5    0    0 -0.96489369571E+02 -0.66432126079E+03  0.79560669344E+01  0.67133913559E+03  0.00000000000E+00 0.  1.
          1    1    6    6  503    0 -0.14590673908E+03  0.44817985393E+00 -0.27298520751E+03  0.30953174457E+03  0.00000000000E+00 0. -1.
         -1    1    6    6    0  503 -0.24016393416E+03 -0.47461239167E+02 -0.27177590706E+03  0.36577783989E+03  0.00000000000E+00 0.  1.
<mgrwt>
<rscale>  0 0.22302832E+04</rscale>
<asrwt>0</asrwt>
<pdfrwt beam="1">  1        2 0.21796241E+00 0.22302832E+04</pdfrwt>
<pdfrwt beam="2">  1       -1 0.13503667E+00 0.22302832E+04</pdfrwt>
<totfact> 0.67693618E+00</totfact>
</mgrwt>
</event>
<event>
12    6  0.1457317E-007  0.2182600E+04  0.7818608E-02  0.8525705E-01
          2   -1    0    0  501    0  0.00000000000E+00  0.00000000000E+00  0.10096953807E+04  0.10096953807E+04  0.00000000000E+00 0. -1.
         -1   -1    0    0    0  501 -0.00000000000E+00 -0.00000000000E+00 -0.11795002249E+04  0.11795002249E+04  0.00000000000E+00 0.  1.
         24    2    1    2    0    0 -0.32732894375E+03  0.54658669905E+03 -0.71197801269E+03  0.95876632830E+03  0.80118192219E+02 0.  0.
        254    2    1    2    0    0  0.32732894375E+03 -0.54658669905E+03  0.54217316853E+03  0.12304292773E+04  0.90227667855E+03 0.  0.
         23    2    4    4    0    0  0.35821355584E+03 -0.15658904639E+03  0.69317070927E+03  0.80118055339E+03  0.92561146820E+02 0.  0.
         23    2    4    4    0    0 -0.30884612090E+02 -0.38999765266E+03 -0.15099754074E+03  0.42924872387E+03  0.91663412996E+02 0.  0.
          2    1    3    3  502    0 -0.68837173198E+02  0.71400523066E+02 -0.84412345457E+02  0.13023837827E+03  0.00000000000E+00 0. -1.
         -1    1    3    3    0  502 -0.25849177055E+03  0.47518617599E+03 -0.62756566723E+03  0.82852795003E+03  0.00000000000E+00 0.  1.
         11    1    5    5    0    0  0.17851439721E+03 -0.11225499807E+03  0.30089283142E+03  0.36743036157E+03  0.00000000000E+00 0.  1.
        -11    1    5    5    0    0  0.17969915863E+03 -0.44334048323E+02  0.39227787786E+03  0.43375019183E+03  0.00000000000E+00 0. -1.
          3    1    6    6  503    0 -0.15253136903E+02 -0.33821366008E+03 -0.95540435782E+02  0.35177992114E+03  0.00000000000E+00 0. -1.
         -3    1    6    6    0  503 -0.15631475187E+02 -0.51783992584E+02 -0.55457104961E+02  0.77468802722E+02  0.00000000000E+00 0.  1.
<mgrwt>
<rscale>  0 0.21826002E+04</rscale>
<asrwt>0</asrwt>
<pdfrwt beam="1">  1        2 0.15533775E+00 0.21826002E+04</pdfrwt>
<pdfrwt beam="2">  1       -1 0.18146157E+00 0.21826002E+04</pdfrwt>
<totfact> 0.52655417E+00</totfact>
</mgrwt>
</event>
<event>
12    6  0.1457317E-007  0.3125128E+04  0.7818608E-02  0.8208875E-01
          2   -1    0    0  501    0  0.00000000000E+00  0.00000000000E+00  0.28660322292E+04  0.28660322292E+04  0.00000000000E+00 0. -1.
         -1   -1    0    0    0  501 -0.00000000000E+00 -0.00000000000E+00 -0.85191149140E+03  0.85191149140E+03  0.00000000000E+00 0.  1.
         24    2    1    2    0    0  0.14571439585E+03  0.14246292682E+04  0.89220325949E+03  0.16892363125E+04  0.81801137104E+02 0.  0.
        254    2    1    2    0    0 -0.14571439585E+03 -0.14246292682E+04  0.11219174783E+04  0.20287074082E+04  0.89786061426E+03 0.  0.
         23    2    4    4    0    0 -0.13579467163E+03 -0.23284546575E+03  0.70953041281E+03  0.76437516760E+03  0.90436642843E+02 0.  0.
         23    2    4    4    0    0 -0.99197242172E+01 -0.11917838025E+04  0.41238706553E+03  0.12643322406E+04  0.89587331236E+02 0.  0.
          4    1    3    3  502    0  0.67663089538E+02  0.79453605961E+03  0.45144234238E+03  0.91633292651E+03  0.00000000000E+00 0. -1.
         -3    1    3    3    0  502  0.78051306313E+02  0.63009320863E+03  0.44076091711E+03  0.77290338596E+03  0.00000000000E+00 0.  1.
         11    1    5    5    0    0 -0.14288618093E+03 -0.23583879320E+03  0.67823237114E+03  0.73214448461E+03  0.00000000000E+00 0. -1.
        -11    1    5    5    0    0  0.70915092994E+01  0.29933274515E+01  0.31298041672E+02  0.32230682988E+02  0.00000000000E+00 0.  1.
          2    1    6    6  503    0 -0.39160895880E+02 -0.27494727935E+03  0.10467589224E+03  0.29679390931E+03  0.00000000000E+00 0.  1.
         -2    1    6    6    0  503  0.29241171663E+02 -0.91683652314E+03  0.30771117329E+03  0.96753833126E+03  0.00000000000E+00 0. -1.
<mgrwt>
<rscale>  0 0.31251277E+04</rscale>
<asrwt>0</asrwt>
<pdfrwt beam="1">  1        2 0.44092803E+00 0.31251277E+04</pdfrwt>
<pdfrwt beam="2">  1       -1 0.13106331E+00 0.31251277E+04</pdfrwt>
<totfact> 0.10074339E+00</totfact>
</mgrwt>
</event>
<event>
12    6  0.1457317E-007  0.1811259E+04  0.7818608E-02  0.8700335E-01
          2   -1    0    0  501    0  0.00000000000E+00  0.00000000000E+00  0.71244429712E+03  0.71244429712E+03  0.00000000000E+00 0. -1.
         -1   -1    0    0    0  501 -0.00000000000E+00 -0.00000000000E+00 -0.11511978452E+04  0.11511978452E+04  0.00000000000E+00 0.  1.
         24    2    1    2    0    0  0.62707683653E+03 -0.24621906383E+03 -0.23164765049E+03  0.71689083604E+03  0.80141440685E+02 0.  0.
        254    2    1    2    0    0 -0.62707683653E+03  0.24621906383E+03 -0.20710589755E+03  0.11467513062E+04  0.90459743490E+03 0.  0.
         23    2    4    4    0    0 -0.25160952525E+03  0.46890258621E+03  0.16595422020E+03  0.56532545652E+03  0.94207643198E+02 0.  0.
         23    2    4    4    0    0 -0.37546731128E+03 -0.22268352238E+03 -0.37306011775E+03  0.58142584971E+03  0.91205889513E+02 0.  0.
          4    1    3    3  502    0  0.95435768202E+02 -0.57589237175E+02 -0.14402224282E+02  0.11239185983E+03  0.00000000000E+00 0. -1.
         -3    1    3    3    0  502  0.53164106833E+03 -0.18862982665E+03 -0.21724542621E+03  0.60449897621E+03  0.00000000000E+00 0.  1.
         11    1    5    5    0    0 -0.12634284245E+03  0.25836039985E+03  0.13722119497E+03  0.31865697293E+03  0.00000000000E+00 0.  1.
        -11    1    5    5    0    0 -0.12526668280E+03  0.21054218636E+03  0.28733025230E+02  0.24666848359E+03  0.00000000000E+00 0. -1.
          4    1    6    6  503    0 -0.85029436955E+02 -0.97537268695E+02 -0.11831198760E+03  0.17533182924E+03  0.00000000000E+00 0. -1.
         -4    1    6    6    0  503 -0.29043787432E+03 -0.12514625368E+03 -0.25474813015E+03  0.40609402048E+03  0.00000000000E+00 0.  1.
<mgrwt>
<rscale>  0 0.18112585E+04</rscale>
<asrwt>0</asrwt>
<pdfrwt beam="1">  1        2 0.10960682E+00 0.18112585E+04</pdfrwt>
<pdfrwt beam="2">  1       -1 0.17710736E+00 0.18112585E+04</pdfrwt>
<totfact> 0.94208861E+00</totfact>
</mgrwt>
</event>
<event>
12    6  0.1457317E-007  0.1353311E+04  0.7818608E-02  0.8988326E-01
          2   -1    0    0  501    0  0.00000000000E+00  0.00000000000E+00  0.67034188715E+03  0.67034188715E+03  0.00000000000E+00 0. -1.
         -1   -1    0    0    0  501 -0.00000000000E+00 -0.00000000000E+00 -0.68302837405E+03  0.68302837405E+03  0.00000000000E+00 0.  1.
         24    2    1    2    0    0  0.29205326241E+03  0.15008625386E+02 -0.23281432860E+03  0.38297299909E+03  0.83339303502E+02 0.  0.
        254    2    1    2    0    0 -0.29205326241E+03 -0.15008625386E+02  0.22012784169E+03  0.97039726212E+03  0.89871809413E+03 0.  0.
         23    2    4    4    0    0  0.20388723030E+03 -0.17594891889E+02  0.38068033339E+03  0.44121793230E+03  0.88747758564E+02 0.  0.
         23    2    4    4    0    0 -0.49594049271E+03  0.25862665029E+01 -0.16055249170E+03  0.52917932981E+03  0.91049433957E+02 0.  0.
          2    1    3    3  502    0  0.10098038275E+03  0.31760500473E+02 -0.46658769723E+02  0.11568408656E+03  0.00000000000E+00 0. -1.
         -1    1    3    3    0  502  0.19107287966E+03 -0.16751875086E+02 -0.18615555888E+03  0.26728891253E+03  0.00000000000E+00 0.  1.
         11    1    5    5    0    0  0.19580190557E+03 -0.26106926581E+02  0.38133413898E+03  0.42945975760E+03  0.00000000000E+00 0. -1.
        -11    1    5    5    0    0  0.80853247299E+01  0.85120346917E+01 -0.65380559101E+00  0.11758174702E+02  0.00000000000E+00 0.  1.
          3    1    6    6  503    0 -0.25155938615E+03 -0.41914944795E+02 -0.96305344723E+02  0.27260540490E+03  0.00000000000E+00 0. -1.
         -3    1    6    6    0  503 -0.24438110656E+03  0.44501211298E+02 -0.64247146979E+02  0.25657392491E+03  0.00000000000E+00 0.  1.
<mgrwt>
<rscale>  0 0.13533108E+04</rscale>
<asrwt>0</asrwt>
<pdfrwt beam="1">  1        2 0.10312952E+00 0.13533108E+04</pdfrwt>
<pdfrwt beam="2">  1       -1 0.10508129E+00 0.13533108E+04</pdfrwt>
<totfact> 0.41041474E+01</totfact>
</mgrwt>
</event>
<event>
12    6  0.1457317E-007  0.1515751E+04  0.7818608E-02  0.8874046E-01
          2   -1    0    0  501    0  0.00000000000E+00  0.00000000000E+00  0.11789338413E+04  0.11789338413E+04  0.00000000000E+00 0. -1.
         -1   -1    0    0    0  501 -0.00000000000E+00 -0.00000000000E+00 -0.48719890864E+03  0.48719890864E+03  0.00000000000E+00 0.  1.
         24    2    1    2    0    0  0.42476374236E+03  0.14032474756E+03  0.18613179286E+02  0.45434590879E+03  0.77255956358E+02 0.  0.
        254    2    1    2    0    0 -0.42476374236E+03 -0.14032474756E+03  0.67312175338E+03  0.12117868412E+04  0.90289488974E+03 0.  0.
         23    2    4    4    0    0 -0.94003209135E+02  0.33117052014E+03  0.47924394801E+03  0.59712852509E+03  0.91527029005E+02 0.  0.
         23    2    4    4    0    0 -0.33076053323E+03 -0.47149526770E+03  0.19387780537E+03  0.61465831606E+03  0.92227567925E+02 0.  0.
          2    1    3    3  502    0  0.63874626146E+02 -0.65781649558E+01  0.61127770958E+01  0.64502760897E+02  0.00000000000E+00 0. -1.
         -1    1    3    3    0  502  0.36088911622E+03  0.14690291251E+03  0.12500402190E+02  0.38984314790E+03  0.00000000000E+00 0.  1.
         11    1    5    5    0    0 -0.39421873537E+02  0.22670913688E+03  0.37398014618E+03  0.43910393598E+03  0.00000000000E+00 0.  1.
        -11    1    5    5    0    0 -0.54581335598E+02  0.10446138326E+03  0.10526380183E+03  0.15802458911E+03  0.00000000000E+00 0. -1.
          2    1    6    6  503    0 -0.10496259118E+03 -0.19308398701E+03  0.11326711052E+03  0.24724079338E+03  0.00000000000E+00 0. -1.
         -2    1    6    6    0  503 -0.22579794205E+03 -0.27841128069E+03  0.80610694855E+02  0.36741752268E+03  0.00000000000E+00 0.  1.
<mgrwt>
<rscale>  0 0.15157510E+04</rscale>
<asrwt>0</asrwt>
<pdfrwt beam="1">  1        2 0.18137444E+00 0.15157510E+04</pdfrwt>
<pdfrwt beam="2">  1       -1 0.74953679E-01 0.15157510E+04</pdfrwt>
<totfact> 0.38421810E+01</totfact>
</mgrwt>
</event>
<event>
12    6  0.1457317E-007  0.1860044E+04  0.7818608E-02  0.8675005E-01
         -1   -1    0    0    0  501 -0.00000000000E+00  0.00000000000E+00  0.51802984719E+03  0.51802984719E+03  0.00000000000E+00 0.  1.
          2   -1    0    0  501    0  0.00000000000E+00 -0.00000000000E+00 -0.16696739100E+04  0.16696739100E+04  0.00000000000E+00 0. -1.
         24    2    1    2    0    0  0.33910182019E+03  0.37929879295E+03 -0.10215125383E+04  0.11449608231E+04  0.92681183144E+02 0.  0.
        254    2    1    2    0    0 -0.33910182019E+03 -0.37929879295E+03 -0.13013152455E+03  0.10427429341E+04  0.90084460049E+03 0.  0.
         23    2    4    4    0    0  0.20784039904E+03 -0.38915061569E+03  0.63190452102E+02  0.45377261372E+03  0.85327126730E+02 0.  0.
         23    2    4    4    0    0 -0.54694221923E+03  0.98518227440E+01 -0.19332197665E+03  0.58897032043E+03  0.10134003206E+03 0.  0.
          2    1    3    3  502    0  0.32376661398E+03  0.38279685195E+03 -0.98712998286E+03  0.11071512332E+04  0.00000000000E+00 0. -1.
         -1    1    3    3    0  502  0.15335206214E+02 -0.34980589979E+01 -0.34382555414E+02  0.37809589831E+02  0.00000000000E+00 0.  1.
         11    1    5    5    0    0  0.17774227474E+03 -0.37531367611E+03  0.50648515776E+02  0.41835145972E+03  0.00000000000E+00 0.  1.
        -11    1    5    5    0    0  0.30098124301E+02 -0.13836939587E+02  0.12541936325E+02  0.35421153995E+02  0.00000000000E+00 0. -1.
          1    1    6    6  503    0 -0.12324886233E+03 -0.36696534528E+02 -0.26828432589E+02  0.13136469277E+03  0.00000000000E+00 0. -1.
         -1    1    6    6    0  503 -0.42369335690E+03  0.46548357272E+02 -0.16649354406E+03  0.45760562765E+03  0.00000000000E+00 0.  1.
<mgrwt>
<rscale>  0 0.18600440E+04</rscale>
<asrwt>0</asrwt>
<pdfrwt beam="1">  1        2 0.25687290E+00 0.18600440E+04</pdfrwt>
<pdfrwt beam="2">  1       -1 0.79696902E-01 0.18600440E+04</pdfrwt>
<totfact> 0.17159542E+01</totfact>
</mgrwt>
</event>
<event>
12    6  0.1457317E-007  0.1212949E+04  0.7818608E-02  0.9101597E-01
         -1   -1    0    0    0  501 -0.00000000000E+00  0.00000000000E+00  0.21783381054E+03  0.21783381054E+03  0.00000000000E+00 0.  1.
          2   -1    0    0  501    0  0.00000000000E+00 -0.00000000000E+00 -0.16884948940E+04  0.16884948940E+04  0.00000000000E+00 0. -1.
         24    2    1    2    0    0 -0.21680339536E+03 -0.10509821353E+03 -0.20549607423E+03  0.32493342840E+03  0.72826846962E+02 0.  0.
        254    2    1    2    0    0  0.21680339536E+03  0.10509821353E+03 -0.12651650092E+04  0.15813952761E+04  0.91767051391E+03 0.  0.
         23    2    4    4    0    0  0.46742273223E+03  0.11059123471E+03 -0.28573449474E+03  0.56625051305E+03  0.91000056307E+02 0.  0.
         23    2    4    4    0    0 -0.25061933687E+03 -0.54930211781E+01 -0.97943051449E+03  0.10151447631E+04  0.91621678773E+02 0.  0.
          4    1    3    3  502    0 -0.99346418709E+02 -0.88688440280E+01 -0.86316836124E+02  0.13190513069E+03  0.00000000000E+00 0. -1.
         -3    1    3    3    0  502 -0.11745697665E+03 -0.96229369500E+02 -0.11917923811E+03  0.19302829770E+03  0.00000000000E+00 0.  1.
         11    1    5    5    0    0  0.47756639493E+02 -0.79818768445E+01 -0.53560205062E+02  0.72201818120E+02  0.00000000000E+00 0. -1.
        -11    1    5    5    0    0  0.41966609274E+03  0.11857311155E+03 -0.23217428968E+03  0.49404869493E+03  0.00000000000E+00 0.  1.
          4    1    6    6  503    0 -0.21637064981E+03 -0.10984376812E+02 -0.92906386092E+03  0.95398981771E+03  0.00000000000E+00 0.  1.
         -4    1    6    6    0  503 -0.34248687064E+02  0.54913556335E+01 -0.50366653566E+02  0.61154945374E+02  0.00000000000E+00 0. -1.
<mgrwt>
<rscale>  0 0.12129489E+04</rscale>
<asrwt>0</asrwt>
<pdfrwt beam="1">  1        2 0.25976844E+00 0.12129489E+04</pdfrwt>
<pdfrwt beam="2">  1       -1 0.33512895E-01 0.12129489E+04</pdfrwt>
<totfact> 0.93744039E+01</totfact>
</mgrwt>
</event>
<event>
12    6  0.1457317E-007  0.1457581E+04  0.7818608E-02  0.8913161E-01
         -1   -1    0    0    0  501 -0.00000000000E+00  0.00000000000E+00  0.12675638130E+03  0.12675638130E+03  0.00000000000E+00 0.  1.
          2   -1    0    0  501    0  0.00000000000E+00 -0.00000000000E+00 -0.41902104093E+04  0.41902104093E+04  0.00000000000E+00 0. -1.
         24    2    1    2    0    0 -0.49739060447E+02  0.36615908191E+03 -0.53914941744E+03  0.65835056113E+03  0.78720515785E+02 0.  0.
        254    2    1    2    0    0  0.49739060447E+02 -0.36615908191E+03 -0.35243046105E+04  0.36586162294E+04  0.91005674504E+03 0.  0.
         23    2    4    4    0    0 -0.35041595443E+02 -0.65571272346E+03 -0.22297557751E+04  0.23262449282E+04  0.91747262255E+02 0.  0.
         23    2    4    4    0    0  0.84780655891E+02  0.28955364155E+03 -0.12945488354E+04  0.13323713013E+04  0.91255280450E+02 0.  0.
          4    1    3    3  502    0 -0.10200413696E+01  0.13843058962E+03 -0.26220274112E+03  0.29650353468E+03  0.00000000000E+00 0. -1.
         -3    1    3    3    0  502 -0.48719019078E+02  0.22772849229E+03 -0.27694667632E+03  0.36184702644E+03  0.00000000000E+00 0.  1.
         11    1    5    5    0    0  0.96591066517E+01 -0.47810727174E+03 -0.15357143101E+04  0.16084459282E+04  0.00000000000E+00 0.  1.
        -11    1    5    5    0    0 -0.44700702095E+02 -0.17760545172E+03 -0.69404146504E+03  0.71779900003E+03  0.00000000000E+00 0. -1.
          4    1    6    6  503    0  0.10050062066E+03  0.19938723580E+03 -0.88706909168E+03  0.91473887967E+03  0.00000000000E+00 0. -1.
         -4    1    6    6    0  503 -0.15719964769E+02  0.90166405752E+02 -0.40747974373E+03  0.41763242160E+03  0.00000000000E+00 0.  1.
<mgrwt>
<rscale>  0 0.14575814E+04</rscale>
<asrwt>0</asrwt>
<pdfrwt beam="1">  1        2 0.64464767E+00 0.14575814E+04</pdfrwt>
<pdfrwt beam="2">  1       -1 0.19500984E-01 0.14575814E+04</pdfrwt>
<totfact> 0.57550738E+00</totfact>
</mgrwt>
</event>
<event>
12    6  0.1457317E-007  0.6222920E+04  0.7818608E-02  0.7663361E-01
          2   -1    0    0  501    0  0.00000000000E+00  0.00000000000E+00  0.35939180287E+04  0.35939180287E+04  0.00000000000E+00 0. -1.
         -1   -1    0    0    0  501 -0.00000000000E+00 -0.00000000000E+00 -0.26937685089E+04  0.26937685089E+04  0.00000000000E+00 0.  1.
         24    2    1    2    0    0  0.95151455331E+03  0.16540938641E+04  0.28383545940E+04  0.34212039139E+04  0.83504268166E+02 0.  0.
        254    2    1    2    0    0 -0.95151455331E+03 -0.16540938641E+04 -0.19382050742E+04  0.28664826237E+04  0.90480786126E+03 0.  0.
         23    2    4    4    0    0 -0.14453575818E+03 -0.10943123773E+04 -0.83955947889E+03  0.13898461394E+04  0.91662468963E+02 0.  0.
         23    2    4    4    0    0 -0.80697879513E+03 -0.55978148680E+03 -0.10986455954E+04  0.14766364843E+04  0.94143899120E+02 0.  0.
          2    1    3    3  502    0  0.55474739028E+03  0.89175789520E+03  0.15244269888E+04  0.18511765056E+04  0.00000000000E+00 0. -1.
         -3    1    3    3    0  502  0.39676716303E+03  0.76233596888E+03  0.13139276052E+04  0.15700274083E+04  0.00000000000E+00 0.  1.
         11    1    5    5    0    0 -0.12245547041E+03 -0.10051538703E+04 -0.73849053437E+03  0.12532748759E+04  0.00000000000E+00 0.  1.
        -11    1    5    5    0    0 -0.22080287771E+02 -0.89158507008E+02 -0.10106894452E+03  0.13657126354E+03  0.00000000000E+00 0. -1.
          1    1    6    6  503    0 -0.46009251896E+02 -0.23988417292E+02 -0.92511582890E+02  0.10606926224E+03  0.00000000000E+00 0. -1.
         -1    1    6    6    0  503 -0.76096954323E+03 -0.53579306951E+03 -0.10061340125E+04  0.13705672220E+04  0.00000000000E+00 0.  1.
<mgrwt>
<rscale>  0 0.62229200E+04</rscale>
<asrwt>0</asrwt>
<pdfrwt beam="1">  1        2 0.55291047E+00 0.62229200E+04</pdfrwt>
<pdfrwt beam="2">  1       -1 0.41442592E+00 0.62229200E+04</pdfrwt>
<totfact> 0.29867232E-03</totfact>
</mgrwt>
</event>
<event>
12    6  0.1457317E-007  0.2230242E+04  0.7818608E-02  0.8505945E-01
         -1   -1    0    0    0  501 -0.00000000000E+00  0.00000000000E+00  0.85702026494E+03  0.85702026494E+03  0.00000000000E+00 0.  1.
          2   -1    0    0  501    0  0.00000000000E+00 -0.00000000000E+00 -0.14509520782E+04  0.14509520782E+04  0.00000000000E+00 0. -1.
         24    2    1    2    0    0  0.65507601500E+03  0.66002100283E+03 -0.31924246129E+03  0.98637320963E+03  0.79145751468E+02 0.  0.
        254    2    1    2    0    0 -0.65507601500E+03 -0.66002100283E+03 -0.27468935197E+03  0.13215991335E+04  0.89800763915E+03 0.  0.
         23    2    4    4    0    0 -0.86416862305E+03 -0.53778806277E+03 -0.14545917450E+03  0.10322015313E+04  0.90984725413E+02 0.  0.
         23    2    4    4    0    0  0.20909260805E+03 -0.12223294007E+03 -0.12923017747E+03  0.28939760220E+03  0.91596522910E+02 0.  0.
          4    1    3    3  502    0  0.12969085816E+03  0.11873674139E+03 -0.92598793010E+02  0.19872762494E+03  0.00000000000E+00 0. -1.
         -3    1    3    3    0  502  0.52538515684E+03  0.54128426145E+03 -0.22664366828E+03  0.78764558469E+03  0.00000000000E+00 0.  1.
         11    1    5    5    0    0 -0.76653673416E+03 -0.50871981901E+03 -0.12796875603E+03  0.92884359372E+03  0.00000000000E+00 0.  1.
        -11    1    5    5    0    0 -0.97631888894E+02 -0.29068243755E+02 -0.17490418473E+02  0.10335793759E+03  0.00000000000E+00 0. -1.
          3    1    6    6  503    0  0.73347772583E+02 -0.33401914332E+02 -0.93205709345E+02  0.12321886170E+03  0.00000000000E+00 0. -1.
         -3    1    6    6    0  503  0.13574483547E+03 -0.88831025734E+02 -0.36024468121E+02  0.16617874050E+03  0.00000000000E+00 0.  1.
<mgrwt>
<rscale>  0 0.22302424E+04</rscale>
<asrwt>0</asrwt>
<pdfrwt beam="1">  1        2 0.22322340E+00 0.22302424E+04</pdfrwt>
<pdfrwt beam="2">  1       -1 0.13184927E+00 0.22302424E+04</pdfrwt>
<totfact> 0.68790322E+00</totfact>
</mgrwt>
</event>
<event>
12    6  0.1457317E-007  0.1939011E+04  0.7818608E-02  0.8635678E-01
          2   -1    0    0  501    0  0.00000000000E+00  0.00000000000E+00  0.76923782006E+03  0.76923782006E+03  0.00000000000E+00 0. -1.
         -1   -1    0    0    0  501 -0.00000000000E+00 -0.00000000000E+00 -0.12219116592E+04  0.12219116592E+04  0.00000000000E+00 0.  1.
         24    2    1    2    0    0  0.30144703788E+03  0.59219077342E+03 -0.55750639281E+03  0.87099250580E+03  0.79084375057E+02 0.  0.
        254    2    1    2    0    0 -0.30144703788E+03 -0.59219077342E+03  0.10483255370E+03  0.11201569734E+04  0.89565705044E+03 0.  0.
         23    2    4    4    0    0 -0.56218621854E+03 -0.20095099909E+03  0.19159371128E+03  0.63364638283E+03  0.91460045452E+02 0.  0.
         23    2    4    4    0    0  0.26073918066E+03 -0.39123977433E+03 -0.86761157578E+02  0.48651059059E+03  0.90064282270E+02 0.  0.
          4    1    3    3  502    0  0.18220488335E+03  0.28250131411E+03 -0.30632626846E+03  0.45479819123E+03  0.00000000000E+00 0. -1.
         -3    1    3    3    0  502  0.11924215453E+03  0.30968945930E+03 -0.25118012434E+03  0.41619431458E+03  0.00000000000E+00 0.  1.
         11    1    5    5    0    0 -0.51311435798E+03 -0.17800454199E+03  0.20011713394E+03  0.57880811037E+03  0.00000000000E+00 0.  1.
        -11    1    5    5    0    0 -0.49071860563E+02 -0.22946457099E+02 -0.85234226551E+01  0.54838272459E+02  0.00000000000E+00 0. -1.
          3    1    6    6  503    0  0.44643735995E+02 -0.94455998142E+02  0.15002207761E+02  0.10554650627E+03  0.00000000000E+00 0. -1.
         -3    1    6    6    0  503  0.21609544467E+03 -0.29678377619E+03 -0.10176336534E+03  0.38096408432E+03  0.00000000000E+00 0.  1.
<mgrwt>
<rscale>  0 0.19390107E+04</rscale>
<asrwt>0</asrwt>
<pdfrwt beam="1">  1        2 0.11834428E+00 0.19390107E+04</pdfrwt>
<pdfrwt beam="2">  1       -1 0.18798641E+00 0.19390107E+04</pdfrwt>
<totfact> 0.70577973E+00</totfact>
</mgrwt>
</event>
<event>
12    6  0.1457317E-007  0.1494337E+04  0.7818608E-02  0.8888228E-01
         -1   -1    0    0    0  501 -0.00000000000E+00  0.00000000000E+00  0.49159019443E+03  0.49159019443E+03  0.00000000000E+00 0.  1.
          2   -1    0    0  501    0  0.00000000000E+00 -0.00000000000E+00 -0.11356216310E+04  0.11356216310E+04  0.00000000000E+00 0. -1.
         24    2    1    2    0    0  0.41743195538E+03 -0.19718735366E+03 -0.33205612818E+03  0.57446366343E+03  0.81332272316E+02 0.  0.
        254    2    1    2    0    0 -0.41743195538E+03  0.19718735366E+03 -0.31197530842E+03  0.10527481620E+04  0.89320647656E+03 0.  0.
         23    2    4    4    0    0  0.87897529138E+02  0.41688853587E+03 -0.58204815630E+02  0.43897331759E+03  0.88248206910E+02 0.  0.
         23    2    4    4    0    0 -0.50532948452E+03 -0.21970118221E+03 -0.25377049279E+03  0.61377484444E+03  0.93239472711E+02 0.  0.
          4    1    3    3  502    0  0.31359367505E+03 -0.10811191503E+03 -0.24365278662E+03  0.41157728270E+03  0.00000000000E+00 0. -1.
         -3    1    3    3    0  502  0.10383828033E+03 -0.89075438629E+02 -0.88403341564E+02  0.16288638073E+03  0.00000000000E+00 0.  1.
         11    1    5    5    0    0  0.68879814415E+02  0.33249166999E+03 -0.94819817096E+01  0.33968374619E+03  0.00000000000E+00 0. -1.
        -11    1    5    5    0    0  0.19017714723E+02  0.84396865882E+02 -0.48722833921E+02  0.99289571402E+02  0.00000000000E+00 0.  1.
          2    1    6    6  503    0 -0.45548956936E+03 -0.17340101265E+03 -0.24401260779E+03  0.54505120103E+03  0.00000000000E+00 0. -1.
         -2    1    6    6    0  503 -0.49839915163E+02 -0.46300169559E+02 -0.97578849991E+01  0.68723643415E+02  0.00000000000E+00 0.  1.
<mgrwt>
<rscale>  0 0.14943366E+04</rscale>
<asrwt>0</asrwt>
<pdfrwt beam="1">  1        2 0.17471102E+00 0.14943366E+04</pdfrwt>
<pdfrwt beam="2">  1       -1 0.75629261E-01 0.14943366E+04</pdfrwt>
<totfact> 0.40125435E+01</totfact>
</mgrwt>
</event>
<event>
12    6  0.1457317E-007  0.2266316E+04  0.7818608E-02  0.8491322E-01
         -3   -1    0    0    0  501 -0.00000000000E+00  0.00000000000E+00  0.66705250698E+03  0.66705250698E+03  0.00000000000E+00 0.  1.
          2   -1    0    0  501    0  0.00000000000E+00 -0.00000000000E+00 -0.19249561552E+04  0.19249561552E+04  0.00000000000E+00 0. -1.
         24    2    1    2    0    0  0.49680868266E+03 -0.32325162861E+03 -0.13753413623E+04  0.14998078472E+04  0.80927332836E+02 0.  0.
        254    2    1    2    0    0 -0.49680868266E+03  0.32325162861E+03  0.11743771410E+03  0.10922008149E+04  0.90983543616E+03 0.  0.
         23    2    4    4    0    0 -0.50563524712E+02  0.56104562659E+03  0.75477321385E+02  0.57559575802E+03  0.91020796828E+02 0.  0.
         23    2    4    4    0    0 -0.44624515795E+03 -0.23779399799E+03  0.41960392712E+02  0.51660505692E+03  0.97156491309E+02 0.  0.
          2    1    3    3  502    0  0.23233904501E+03 -0.15668903534E+03 -0.75149782131E+03  0.80204854035E+03  0.00000000000E+00 0. -1.
         -1    1    3    3    0  502  0.26446963765E+03 -0.16656259327E+03 -0.62384354099E+03  0.69775930689E+03  0.00000000000E+00 0.  1.
         11    1    5    5    0    0 -0.69179431260E+02  0.36100202507E+03  0.24864977875E+02  0.36841080730E+03  0.00000000000E+00 0. -1.
        -11    1    5    5    0    0  0.18615906548E+02  0.20004360153E+03  0.50612343509E+02  0.20718495072E+03  0.00000000000E+00 0.  1.
          1    1    6    6  503    0 -0.35333880018E+03 -0.22533940775E+03  0.16192807371E+02  0.41939046652E+03  0.00000000000E+00 0. -1.
         -1    1    6    6    0  503 -0.92906357768E+02 -0.12454590241E+02  0.25767585341E+02  0.97214590398E+02  0.00000000000E+00 0.  1.
<mgrwt>
<rscale>  0 0.22663158E+04</rscale>
<asrwt>0</asrwt>
<pdfrwt beam="1">  1        2 0.29614710E+00 0.22663158E+04</pdfrwt>
<pdfrwt beam="2">  1       -3 0.10262346E+00 0.22663158E+04</pdfrwt>
<totfact> 0.35044342E+00</totfact>
</mgrwt>
</event>
<event>
12    6  0.1457317E-007  0.2274598E+04  0.7818608E-02  0.8488005E-01
          2   -1    0    0  501    0  0.00000000000E+00  0.00000000000E+00  0.27134870387E+04  0.27134870387E+04  0.00000000000E+00 0. -1.
         -1   -1    0    0    0  501 -0.00000000000E+00 -0.00000000000E+00 -0.47667414905E+03  0.47667414905E+03  0.00000000000E+00 0.  1.
         24    2    1    2    0    0  0.16819033026E+03 -0.68247915591E+03  0.17302118537E+04  0.18691959605E+04  0.78706383114E+02 0.  0.
        254    2    1    2    0    0 -0.16819033026E+03  0.68247915591E+03  0.50660103602E+03  0.13209652273E+04  0.99711520725E+03 0.  0.
         23    2    4    4    0    0 -0.54032835439E+03  0.55114826229E+03  0.17287735959E+03  0.79607652874E+03  0.90178271056E+02 0.  0.
         23    2    4    4    0    0  0.37213802413E+03  0.13133089362E+03  0.33372367644E+03  0.52488869854E+03  0.91663193379E+02 0.  0.
          2    1    3    3  502    0  0.14516074092E+03 -0.60226775481E+03  0.15840874466E+04  0.17009206706E+04  0.00000000000E+00 0. -1.
         -1    1    3    3    0  502  0.23029589341E+02 -0.80211401099E+02  0.14612440705E+03  0.16827528989E+03  0.00000000000E+00 0.  1.
         11    1    5    5    0    0 -0.77431837780E+02  0.10635031912E+03  0.12202329040E+01  0.13155823367E+03  0.00000000000E+00 0. -1.
        -11    1    5    5    0    0 -0.46289651661E+03  0.44479794317E+03  0.17165712668E+03  0.66451829506E+03  0.00000000000E+00 0.  1.
          2    1    6    6  503    0  0.28174009321E+03  0.56331322848E+02  0.22668730117E+03  0.36597517753E+03  0.00000000000E+00 0.  1.
         -2    1    6    6    0  503  0.90397930924E+02  0.74999570775E+02  0.10703637526E+03  0.15891352101E+03  0.00000000000E+00 0. -1.
<mgrwt>
<rscale>  0 0.22745981E+04</rscale>
<asrwt>0</asrwt>
<pdfrwt beam="1">  1        2 0.41745954E+00 0.22745981E+04</pdfrwt>
<pdfrwt beam="2">  1       -1 0.73334486E-01 0.22745981E+04</pdfrwt>
<totfact> 0.50501818E+00</totfact>
</mgrwt>
</event>
<event>
12    6  0.1457317E-007  0.2184390E+04  0.7818608E-02  0.8524954E-01
         -1   -1    0    0    0  501 -0.00000000000E+00  0.00000000000E+00  0.76018335321E+03  0.76018335321E+03  0.00000000000E+00 0.  1.
          2   -1    0    0  501    0  0.00000000000E+00 -0.00000000000E+00 -0.15692128543E+04  0.15692128543E+04  0.00000000000E+00 0. -1.
         24    2    1    2    0    0 -0.13565710430E+03  0.60543868844E+03  0.36491319107E+03  0.72426211173E+03  0.80219162707E+02 0.  0.
        254    2    1    2    0    0  0.13565710430E+03 -0.60543868844E+03 -0.11739426921E+04  0.16051340957E+04  0.90186205459E+03 0.  0.
         23    2    4    4    0    0  0.44201887139E+03 -0.51023325402E+02 -0.51122244154E+03  0.68390645985E+03  0.91627499606E+02 0.  0.
         23    2    4    4    0    0 -0.30636176709E+03 -0.55441536304E+03 -0.66272025058E+03  0.92122763590E+03  0.90709974678E+02 0.  0.
          2    1    3    3  502    0 -0.49696217909E+02  0.99555891390E+02  0.48226491385E+02  0.12127194258E+03  0.00000000000E+00 0. -1.
         -1    1    3    3    0  502 -0.85960886393E+02  0.50588279705E+03  0.31668669968E+03  0.60299016915E+03  0.00000000000E+00 0.  1.
         11    1    5    5    0    0  0.27544612536E+03 -0.74359813900E+02 -0.30198656096E+03  0.41544654638E+03  0.00000000000E+00 0. -1.
        -11    1    5    5    0    0  0.16657274603E+03  0.23336488498E+02 -0.20923588058E+03  0.26845991346E+03  0.00000000000E+00 0.  1.
          3    1    6    6  503    0  0.27571409711E+01 -0.12655615639E+01  0.13668113012E+01  0.33274082316E+01  0.00000000000E+00 0. -1.
         -3    1    6    6    0  503 -0.30911890806E+03 -0.55314980147E+03 -0.66408706188E+03  0.91790022766E+03  0.00000000000E+00 0.  1.
<mgrwt>
<rscale>  0 0.21843896E+04</rscale>
<asrwt>0</asrwt>
<pdfrwt beam="1">  1        2 0.24141736E+00 0.21843896E+04</pdfrwt>
<pdfrwt beam="2">  1       -1 0.11695129E+00 0.21843896E+04</pdfrwt>
<totfact> 0.79737032E+00</totfact>
</mgrwt>
</event>
<event>
12    6  0.1457317E-007  0.1646697E+04  0.7818608E-02  0.8792363E-01
          2   -1    0    0  501    0  0.00000000000E+00  0.00000000000E+00  0.26014736435E+04  0.26014736435E+04  0.00000000000E+00 0. -1.
         -1   -1    0    0    0  501 -0.00000000000E+00 -0.00000000000E+00 -0.26058408954E+03  0.26058408954E+03  0.00000000000E+00 0.  1.
         24    2    1    2    0    0 -0.20775306416E+03 -0.38289001027E+03  0.14755609551E+04  0.15405655885E+04  0.79347997691E+02 0.  0.
        254    2    1    2    0    0  0.20775306416E+03  0.38289001027E+03  0.86532859892E+03  0.13214921446E+04  0.89876682649E+03 0.  0.
         23    2    4    4    0    0 -0.20504829813E+03 -0.17657957581E+03  0.33574736806E+03  0.44247793711E+03  0.99172972682E+02 0.  0.
         23    2    4    4    0    0  0.41280136230E+03  0.55946958608E+03  0.52958123086E+03  0.87901420745E+03  0.93800396339E+02 0.  0.
          2    1    3    3  502    0 -0.15620301380E+03 -0.33211664944E+03  0.12962529624E+04  0.13472091868E+04  0.00000000000E+00 0. -1.
         -1    1    3    3    0  502 -0.51550050364E+02 -0.50773360828E+02  0.17930799266E+03  0.19335640174E+03  0.00000000000E+00 0.  1.
         11    1    5    5    0    0 -0.88235620681E+02 -0.10667658015E+03  0.23638962214E+03  0.27394428442E+03  0.00000000000E+00 0. -1.
        -11    1    5    5    0    0 -0.11681267745E+03 -0.69902995659E+02  0.99357745917E+02  0.16853365269E+03  0.00000000000E+00 0.  1.
          1    1    6    6  503    0  0.34660977487E+03  0.43296309500E+03  0.45811417268E+03  0.71934968748E+03  0.00000000000E+00 0.  1.
         -1    1    6    6    0  503  0.66191587428E+02  0.12650649108E+03  0.71467058180E+02  0.15966451997E+03  0.00000000000E+00 0. -1.
<mgrwt>
<rscale>  0 0.16466969E+04</rscale>
<asrwt>0</asrwt>
<pdfrwt beam="1">  1        2 0.40022670E+00 0.16466969E+04</pdfrwt>
<pdfrwt beam="2">  1       -1 0.40089862E-01 0.16466969E+04</pdfrwt>
<totfact> 0.20094961E+01</totfact>
</mgrwt>
</event>
<event>
12    6  0.1457317E-007  0.2936574E+04  0.7818608E-02  0.8262078E-01
         -1   -1    0    0    0  501 -0.00000000000E+00  0.00000000000E+00  0.39772264920E+04  0.39772264920E+04  0.00000000000E+00 0.  1.
          2   -1    0    0  501    0  0.00000000000E+00 -0.00000000000E+00 -0.54205280311E+03  0.54205280311E+03  0.00000000000E+00 0. -1.
         24    2    1    2    0    0  0.15970261139E+03  0.66617095931E+03 -0.19448726987E+03  0.71652465745E+03  0.79332310427E+02 0.  0.
        254    2    1    2    0    0 -0.15970261139E+03 -0.66617095931E+03  0.36296609587E+04  0.38027546376E+04  0.90399971658E+03 0.  0.
         23    2    4    4    0    0 -0.21544970597E+03 -0.78218022671E+03  0.35136623812E+04  0.36072639109E+04  0.91132380347E+02 0.  0.
         23    2    4    4    0    0  0.55747094572E+02  0.11600926740E+03  0.11599857747E+03  0.19549072670E+03  0.90526601481E+02 0.  0.
          4    1    3    3  502    0  0.15274161013E+03  0.63834407820E+03 -0.20223384287E+03  0.68681270288E+03  0.00000000000E+00 0. -1.
         -3    1    3    3    0  502  0.69610012621E+01  0.27826881115E+02  0.77465730023E+01  0.29711954571E+02  0.00000000000E+00 0.  1.
         11    1    5    5    0    0 -0.13849149623E+03 -0.53240826211E+03  0.25595508804E+04  0.26180028956E+04  0.00000000000E+00 0.  1.
        -11    1    5    5    0    0 -0.76958209731E+02 -0.24977196460E+03  0.95411150084E+03  0.98926101530E+03  0.00000000000E+00 0. -1.
          3    1    6    6  503    0  0.55752476791E+01  0.98722323190E+02  0.98613976029E+02  0.13964919173E+03  0.00000000000E+00 0. -1.
         -3    1    6    6    0  503  0.50171846893E+02  0.17286944209E+02  0.17384601441E+02  0.55841534971E+02  0.00000000000E+00 0.  1.
<mgrwt>
<rscale>  0 0.29365740E+04</rscale>
<asrwt>0</asrwt>
<pdfrwt beam="1">  1        2 0.83392741E-01 0.29365740E+04</pdfrwt>
<pdfrwt beam="2">  1       -1 0.61188098E+00 0.29365740E+04</pdfrwt>
<totfact> 0.21537435E-02</totfact>
</mgrwt>
</event>
<event>
12    6  0.1457317E-007  0.1538084E+04  0.7818608E-02  0.8859515E-01
         -1   -1    0    0    0  501 -0.00000000000E+00  0.00000000000E+00  0.43743115009E+03  0.43743115009E+03  0.00000000000E+00 0.  1.
          2   -1    0    0  501    0  0.00000000000E+00 -0.00000000000E+00 -0.13520430054E+04  0.13520430054E+04  0.00000000000E+00 0. -1.
         24    2    1    2    0    0  0.34153540208E+03 -0.11443770694E+03  0.11097358887E+03  0.38570125203E+03  0.81901762760E+02 0.  0.
        254    2    1    2    0    0 -0.34153540208E+03  0.11443770694E+03 -0.10255854442E+04  0.14037729035E+04  0.88826259720E+03 0.  0.
         23    2    4    4    0    0 -0.67421341437E+02  0.19174162297E+03  0.96464204477E+02  0.24249540388E+03  0.90488623011E+02 0.  0.
         23    2    4    4    0    0 -0.27411406064E+03 -0.77303916028E+02 -0.11220496487E+04  0.11612774996E+04  0.91954354687E+02 0.  0.
          4    1    3    3  502    0  0.19914322157E+03 -0.78758197946E+02  0.10568937775E+03  0.23881189462E+03  0.00000000000E+00 0. -1.
         -3    1    3    3    0  502  0.14239218051E+03 -0.35679508997E+02  0.52842111171E+01  0.14688935741E+03  0.00000000000E+00 0.  1.
         11    1    5    5    0    0  0.16182726901E+02  0.57487891410E+02  0.53287228431E+01  0.59959432918E+02  0.00000000000E+00 0.  1.
        -11    1    5    5    0    0 -0.83604068338E+02  0.13425373156E+03  0.91135481634E+02  0.18253597096E+03  0.00000000000E+00 0. -1.
          1    1    6    6  503    0 -0.27545353426E+03 -0.78432474075E+02 -0.11232278640E+04  0.11591665700E+04  0.00000000000E+00 0. -1.
         -1    1    6    6    0  503  0.13394736196E+01  0.11285580479E+01  0.11782152732E+01  0.21109296708E+01  0.00000000000E+00 0.  1.
<mgrwt>
<rscale>  0 0.15380842E+04</rscale>
<asrwt>0</asrwt>
<pdfrwt beam="1">  1        2 0.20800662E+00 0.15380842E+04</pdfrwt>
<pdfrwt beam="2">  1       -1 0.67297100E-01 0.15380842E+04</pdfrwt>
<totfact> 0.37871146E+01</totfact>
</mgrwt>
</event>
<event>
12    6  0.1457317E-007  0.1980480E+04  0.7818608E-02  0.8615802E-01
         -1   -1    0    0    0  501 -0.00000000000E+00  0.00000000000E+00  0.59064081149E+03  0.59064081149E+03  0.00000000000E+00 0.  1.
          2   -1    0    0  501    0  0.00000000000E+00 -0.00000000000E+00 -0.16601881214E+04  0.16601881214E+04  0.00000000000E+00 0. -1.
         24    2    1    2    0    0 -0.15121794213E+03  0.58173011199E+03 -0.99235501790E+03  0.11629757543E+04  0.80419738166E+02 0.  0.
        254    2    1    2    0    0  0.15121794213E+03 -0.58173011199E+03 -0.77192292004E+02  0.10878531786E+04  0.90343184525E+03 0.  0.
         23    2    4    4    0    0  0.22605302743E+03 -0.24341984035E+03  0.37598722629E+03  0.51004259191E+03  0.91781595851E+02 0.  0.
         23    2    4    4    0    0 -0.74835085302E+02 -0.33831027164E+03 -0.45317951830E+03  0.57781058669E+03  0.91865490793E+02 0.  0.
          2    1    3    3  502    0 -0.14188150542E+03  0.47880414568E+03 -0.86673288396E+03  0.10003047854E+04  0.00000000000E+00 0. -1.
         -1    1    3    3    0  502 -0.93364367044E+01  0.10292596631E+03 -0.12562213394E+03  0.16267096892E+03  0.00000000000E+00 0.  1.
         11    1    5    5    0    0  0.26793419953E+02 -0.30459064710E+02  0.10246777983E+03  0.11020566174E+03  0.00000000000E+00 0. -1.
        -11    1    5    5    0    0  0.19925960748E+03 -0.21296077564E+03  0.27351944646E+03  0.39983693017E+03  0.00000000000E+00 0.  1.
          3    1    6    6  503    0 -0.10351803669E+02 -0.13781008748E+03 -0.11684455936E+03  0.18097356465E+03  0.00000000000E+00 0. -1.
         -3    1    6    6    0  503 -0.64483281633E+02 -0.20050018416E+03 -0.33633495893E+03  0.39683702204E+03  0.00000000000E+00 0.  1.
<mgrwt>
<rscale>  0 0.19804796E+04</rscale>
<asrwt>0</asrwt>
<pdfrwt beam="1">  1        2 0.25541356E+00 0.19804796E+04</pdfrwt>
<pdfrwt beam="2">  1       -1 0.90867818E-01 0.19804796E+04</pdfrwt>
<totfact> 0.12935803E+01</totfact>
</mgrwt>
</event>
<event>
12    6  0.1457317E-007  0.1884776E+04  0.7818608E-02  0.8662472E-01
         -1   -1    0    0    0  501 -0.00000000000E+00  0.00000000000E+00  0.82656315701E+03  0.82656315701E+03  0.00000000000E+00 0.  1.
          2   -1    0    0  501    0  0.00000000000E+00 -0.00000000000E+00 -0.10744432565E+04  0.10744432565E+04  0.00000000000E+00 0. -1.
         24    2    1    2    0    0 -0.36340385474E+03  0.91281032763E+02 -0.72329536601E+03  0.81882736982E+03  0.83231523390E+02 0.  0.
        254    2    1    2    0    0  0.36340385474E+03 -0.91281032763E+02  0.47541526655E+03  0.10821790437E+04  0.89704917273E+03 0.  0.
         23    2    4    4    0    0 -0.10066887805E+03  0.20828333327E+02  0.56944364081E+03  0.58581837150E+03  0.91373200922E+02 0.  0.
         23    2    4    4    0    0  0.46407273279E+03 -0.11210936609E+03 -0.94028374258E+02  0.49636067216E+03  0.97982500573E+02 0.  0.
          4    1    3    3  502    0 -0.30357484854E+03  0.88751836429E+02 -0.53784498392E+03  0.62394855866E+03  0.00000000000E+00 0. -1.
         -3    1    3    3    0  502 -0.59829006199E+02  0.25291963343E+01 -0.18545038209E+03  0.19487881115E+03  0.00000000000E+00 0.  1.
         11    1    5    5    0    0 -0.56843297192E+02 -0.32257800926E+02  0.34184802284E+03  0.34803993575E+03  0.00000000000E+00 0.  1.
        -11    1    5    5    0    0 -0.43825580862E+02  0.53086134253E+02  0.22759561797E+03  0.23777843574E+03  0.00000000000E+00 0. -1.
          3    1    6    6  503    0  0.36197107562E+03 -0.11534854719E+03 -0.43481258585E+02  0.38238588726E+03  0.00000000000E+00 0. -1.
         -3    1    6    6    0  503  0.10210165717E+03  0.32391811047E+01 -0.50547115673E+02  0.11397478491E+03  0.00000000000E+00 0.  1.
<mgrwt>
<rscale>  0 0.18847761E+04</rscale>
<asrwt>0</asrwt>
<pdfrwt beam="1">  1        2 0.16529896E+00 0.18847761E+04</pdfrwt>
<pdfrwt beam="2">  1       -1 0.12716356E+00 0.18847761E+04</pdfrwt>
<totfact> 0.12958492E+01</totfact>
</mgrwt>
</event>
<event>
12    6  0.1457317E-007  0.1519562E+04  0.7818608E-02  0.8871548E-01
         -1   -1    0    0    0  501 -0.00000000000E+00  0.00000000000E+00  0.16684852925E+03  0.16684852925E+03  0.00000000000E+00 0.  1.
          2   -1    0    0  501    0  0.00000000000E+00 -0.00000000000E+00 -0.34598268798E+04  0.34598268798E+04  0.00000000000E+00 0. -1.
         24    2    1    2    0    0 -0.35788128050E+03 -0.26102807533E+03 -0.58805409831E+03  0.74065128198E+03  0.80882828366E+02 0.  0.
        254    2    1    2    0    0  0.35788128050E+03  0.26102807533E+03 -0.27049242522E+04  0.28860241270E+04  0.90349620062E+03 0.  0.
         23    2    4    4    0    0 -0.16130937705E+03  0.41149399279E+03 -0.13901352154E+04  0.14614407911E+04  0.89360211974E+02 0.  0.
         23    2    4    4    0    0  0.51919065755E+03 -0.15046591746E+03 -0.13147890368E+04  0.14245833360E+04  0.92566400831E+02 0.  0.
          2    1    3    3  502    0 -0.28779407313E+02 -0.11526106987E+02 -0.80757632944E+02  0.86503761226E+02  0.00000000000E+00 0. -1.
         -1    1    3    3    0  502 -0.32910187319E+03 -0.24950196835E+03 -0.50729646536E+03  0.65414752076E+03  0.00000000000E+00 0.  1.
         11    1    5    5    0    0 -0.77826149435E+02  0.95505976699E+02 -0.34076186065E+03  0.36234920559E+03  0.00000000000E+00 0.  1.
        -11    1    5    5    0    0 -0.83483227614E+02  0.31598801609E+03 -0.10493733547E+04  0.10990915855E+04  0.00000000000E+00 0. -1.
          4    1    6    6  503    0  0.34027537208E+02 -0.20081948400E+02 -0.50371285182E+02  0.64018937127E+02  0.00000000000E+00 0. -1.
         -4    1    6    6    0  503  0.48516312034E+03 -0.13038396906E+03 -0.12644177516E+04  0.13605643988E+04  0.00000000000E+00 0.  1.
<mgrwt>
<rscale>  0 0.15195618E+04</rscale>
<asrwt>0</asrwt>
<pdfrwt beam="1">  1        2 0.53228102E+00 0.15195618E+04</pdfrwt>
<pdfrwt beam="2">  1       -1 0.25669006E-01 0.15195618E+04</pdfrwt>
<totfact> 0.12918477E+01</totfact>
</mgrwt>
</event>
<event>
12    6  0.1457317E-007  0.2854117E+04  0.7818608E-02  0.8286661E-01
          2   -1    0    0  501    0  0.00000000000E+00  0.00000000000E+00  0.15085160383E+04  0.15085160383E+04  0.00000000000E+00 0. -1.
         -1   -1    0    0    0  501 -0.00000000000E+00 -0.00000000000E+00 -0.13499999830E+04  0.13499999830E+04  0.00000000000E+00 0.  1.
         24    2    1    2    0    0  0.35238909263E+03  0.22289428407E+03 -0.11428457855E+04  0.12199948037E+04  0.91819916938E+02 0.  0.
        254    2    1    2    0    0 -0.35238909263E+03 -0.22289428407E+03  0.13013618409E+04  0.16385212175E+04  0.90407367230E+03 0.  0.
         23    2    4    4    0    0  0.27707823024E+03  0.44639029724E+02  0.29183352624E+03  0.41567082358E+03  0.94076765947E+02 0.  0.
         23    2    4    4    0    0 -0.62946732287E+03 -0.26753331380E+03  0.10095283146E+04  0.12228503940E+04  0.91719591072E+02 0.  0.
          2    1    3    3  502    0  0.91004489781E+02  0.29338187152E+02 -0.18191991508E+03  0.20551740045E+03  0.00000000000E+00 0. -1.
         -1    1    3    3    0  502  0.26138460285E+03  0.19355609692E+03 -0.96092587045E+03  0.10144774033E+04  0.00000000000E+00 0.  1.
         11    1    5    5    0    0  0.15004756743E+03  0.32104686621E+02  0.22287146620E+03  0.27058579756E+03  0.00000000000E+00 0.  1.
        -11    1    5    5    0    0  0.12703066281E+03  0.12534343103E+02  0.68962060040E+02  0.14508502602E+03  0.00000000000E+00 0. -1.
          4    1    6    6  503    0 -0.51461214718E+03 -0.21577376098E+03  0.88117662282E+03  0.10430034605E+04  0.00000000000E+00 0. -1.
         -4    1    6    6    0  503 -0.11485517569E+03 -0.51759552819E+02  0.12835169183E+03  0.17984693349E+03  0.00000000000E+00 0.  1.
<mgrwt>
<rscale>  0 0.28541175E+04</rscale>
<asrwt>0</asrwt>
<pdfrwt beam="1">  1        2 0.23207939E+00 0.28541175E+04</pdfrwt>
<pdfrwt beam="2">  1       -1 0.20769230E+00 0.28541175E+04</pdfrwt>
<totfact> 0.16507510E+00</totfact>
</mgrwt>
</event>
<event>
12    6  0.1457317E-007  0.1352924E+04  0.7818608E-02  0.8988617E-01
         -1   -1    0    0    0  501 -0.00000000000E+00  0.00000000000E+00  0.24084841471E+03  0.24084841471E+03  0.00000000000E+00 0.  1.
          2   -1    0    0  501    0  0.00000000000E+00 -0.00000000000E+00 -0.18999549059E+04  0.18999549059E+04  0.00000000000E+00 0. -1.
         24    2    1    2    0    0  0.22239423634E+03 -0.37353836630E+02 -0.10526715961E+02  0.24704014911E+03  0.10031708757E+03 0.  0.
        254    2    1    2    0    0 -0.22239423633E+03  0.37353836630E+02 -0.16485797753E+04  0.18937631715E+04  0.90425061183E+03 0.  0.
         23    2    4    4    0    0  0.38125853300E+02 -0.39053477378E+03 -0.55331829540E+03  0.68559060799E+03  0.99510579938E+02 0.  0.
         23    2    4    4    0    0 -0.26052008964E+03  0.42788861041E+03 -0.10952614799E+04  0.12081725635E+04  0.95518867365E+02 0.  0.
          2    1    3    3  502    0  0.34438410478E+01  0.19313580115E+02  0.53025171269E+01  0.20322182607E+02  0.00000000000E+00 0. -1.
         -1    1    3    3    0  502  0.21895039529E+03 -0.56667416745E+02 -0.15829233088E+02  0.22671796651E+03  0.00000000000E+00 0.  1.
         11    1    5    5    0    0  0.91660924263E+01 -0.35147690095E+03 -0.51552088271E+03  0.62400465516E+03  0.00000000000E+00 0. -1.
        -11    1    5    5    0    0  0.28959760874E+02 -0.39057872830E+02 -0.37797412687E+02  0.61585952828E+02  0.00000000000E+00 0.  1.
          2    1    6    6  503    0 -0.88229672942E+02  0.23376266425E+03 -0.50869384598E+03  0.56674411098E+03  0.00000000000E+00 0. -1.
         -2    1    6    6    0  503 -0.17229041669E+03  0.19412594616E+03 -0.58656763387E+03  0.64142845257E+03  0.00000000000E+00 0.  1.
<mgrwt>
<rscale>  0 0.13529244E+04</rscale>
<asrwt>0</asrwt>
<pdfrwt beam="1">  1        2 0.29230075E+00 0.13529244E+04</pdfrwt>
<pdfrwt beam="2">  1       -1 0.37053603E-01 0.13529244E+04</pdfrwt>
<totfact> 0.59173439E+01</totfact>
</mgrwt>
</event>
<event>
12    6  0.1457317E-007  0.1775083E+04  0.7818608E-02  0.8719664E-01
          2   -1    0    0  501    0  0.00000000000E+00  0.00000000000E+00  0.20934873346E+04  0.20934873346E+04  0.00000000000E+00 0. -1.
         -1   -1    0    0    0  501 -0.00000000000E+00 -0.00000000000E+00 -0.37627627913E+03  0.37627627913E+03  0.00000000000E+00 0.  1.
         24    2    1    2    0    0 -0.47276993623E+03  0.11338697684E+03  0.12566084384E+04  0.13496573017E+04  0.78371203362E+02 0.  0.
        254    2    1    2    0    0  0.47276993623E+03 -0.11338697684E+03  0.46060261702E+03  0.11201063120E+04  0.89783927301E+03 0.  0.
         23    2    4    4    0    0  0.50081040780E+03  0.66917645873E+02 -0.99996719319E+02  0.52359557320E+03  0.94148523642E+02 0.  0.
         23    2    4    4    0    0 -0.28040471575E+02 -0.18030462272E+03  0.56059933634E+03  0.59651073876E+03  0.90870350121E+02 0.  0.
          4    1    3    3  502    0 -0.41708169652E+03  0.82663636815E+02  0.10304932818E+04  0.11147676091E+04  0.00000000000E+00 0. -1.
         -3    1    3    3    0  502 -0.55688239713E+02  0.30723340029E+02  0.22611515663E+03  0.23488969267E+03  0.00000000000E+00 0.  1.
         11    1    5    5    0    0  0.33450047299E+03  0.70442990832E+02 -0.10365704323E+03  0.35720801223E+03  0.00000000000E+00 0. -1.
        -11    1    5    5    0    0  0.16630993482E+03 -0.35253449590E+01  0.36603239096E+01  0.16638756097E+03  0.00000000000E+00 0.  1.
          1    1    6    6  503    0 -0.61465949834E+02 -0.12238691591E+03  0.37265148501E+03  0.39702109447E+03  0.00000000000E+00 0. -1.
         -1    1    6    6    0  503  0.33425478259E+02 -0.57917706804E+02  0.18794785133E+03  0.19948964429E+03  0.00000000000E+00 0.  1.
<mgrwt>
<rscale>  0 0.17750827E+04</rscale>
<asrwt>0</asrwt>
<pdfrwt beam="1">  1        2 0.32207497E+00 0.17750827E+04</pdfrwt>
<pdfrwt beam="2">  1       -1 0.57888660E-01 0.17750827E+04</pdfrwt>
<totfact> 0.19298830E+01</totfact>
</mgrwt>
</event>
<event>
12    6  0.1457317E-007  0.3077373E+04  0.7818608E-02  0.8221975E-01
          2   -1    0    0  501    0  0.00000000000E+00  0.00000000000E+00  0.33948905716E+04  0.33948905716E+04  0.00000000000E+00 0. -1.
         -1   -1    0    0    0  501 -0.00000000000E+00 -0.00000000000E+00 -0.69738824028E+03  0.69738824028E+03  0.00000000000E+00 0.  1.
         24    2    1    2    0    0 -0.45727909354E+03 -0.15223791857E+03 -0.52258157747E+03  0.71528797775E+03  0.79150696488E+02 0.  0.
        254    2    1    2    0    0  0.45727909354E+03  0.15223791857E+03  0.32200839087E+04  0.33769908341E+04  0.89601683073E+03 0.  0.
         23    2    4    4    0    0 -0.24209926169E+03 -0.79441847998E+02  0.72974523680E+03  0.77835244619E+03  0.91549768620E+02 0.  0.
         23    2    4    4    0    0  0.69937835523E+03  0.23167976657E+03  0.24903386719E+04  0.25986383879E+04  0.91264298008E+02 0.  0.
          4    1    3    3  502    0 -0.54993715671E+02 -0.95311865276E+01 -0.29548389895E+02  0.63152669186E+02  0.00000000000E+00 0. -1.
         -1    1    3    3    0  502 -0.40228537787E+03 -0.14270673205E+03 -0.49303318758E+03  0.65213530856E+03  0.00000000000E+00 0.  1.
         11    1    5    5    0    0 -0.57295885557E+02  0.18128077870E+02  0.12938335089E+03  0.14265867375E+03  0.00000000000E+00 0. -1.
        -11    1    5    5    0    0 -0.18480337613E+03 -0.97569925868E+02  0.60036188592E+03  0.63569377245E+03  0.00000000000E+00 0.  1.
          4    1    6    6  503    0  0.57697405226E+03  0.19057208472E+03  0.19195576297E+04  0.20134344465E+04  0.00000000000E+00 0.  1.
         -4    1    6    6    0  503  0.12240430297E+03  0.41107681849E+02  0.57078104222E+03  0.58520394142E+03  0.00000000000E+00 0. -1.
<mgrwt>
<rscale>  0 0.30773734E+04</rscale>
<asrwt>0</asrwt>
<pdfrwt beam="1">  1        2 0.52229085E+00 0.30773734E+04</pdfrwt>
<pdfrwt beam="2">  1       -1 0.10729050E+00 0.30773734E+04</pdfrwt>
<totfact> 0.75090236E-01</totfact>
</mgrwt>
</event>
<event>
12    6  0.1457317E-007  0.2421276E+04  0.7818608E-02  0.8431581E-01
          2   -1    0    0  501    0  0.00000000000E+00  0.00000000000E+00  0.29976923081E+04  0.29976923081E+04  0.00000000000E+00 0. -1.
         -1   -1    0    0    0  501 -0.00000000000E+00 -0.00000000000E+00 -0.48892405158E+03  0.48892405158E+03  0.00000000000E+00 0.  1.
         24    2    1    2    0    0 -0.98408999797E+03 -0.74306334372E+02  0.54900984491E+03  0.11321572194E+04  0.80084981318E+02 0.  0.
        254    2    1    2    0    0  0.98408999797E+03  0.74306334372E+02  0.19597584116E+04  0.23544591402E+04  0.85373898581E+03 0.  0.
         23    2    4    4    0    0  0.60405515516E+03 -0.35835935038E+03  0.90314711159E+03  0.11477715073E+04  0.91655187246E+02 0.  0.
         23    2    4    4    0    0  0.38003484280E+03  0.43266568475E+03  0.10566113000E+04  0.12066876329E+04  0.89674565465E+02 0.  0.
          2    1    3    3  502    0 -0.26454576079E+02  0.10255796888E+02  0.21339758943E+02  0.35502271435E+02  0.00000000000E+00 0. -1.
         -1    1    3    3    0  502 -0.95763542189E+03 -0.84562131260E+02  0.52767008596E+03  0.10966549480E+04  0.00000000000E+00 0.  1.
         11    1    5    5    0    0  0.16211842363E+03 -0.53505582094E+02  0.24032269034E+03  0.29478844293E+03  0.00000000000E+00 0. -1.
        -11    1    5    5    0    0  0.44193673153E+03 -0.30485376828E+03  0.66282442125E+03  0.85298306438E+03  0.00000000000E+00 0.  1.
          3    1    6    6  503    0  0.27166240156E+03  0.34662516676E+03  0.86082618154E+03  0.96693907847E+03  0.00000000000E+00 0. -1.
         -3    1    6    6    0  503  0.10837244124E+03  0.86040517993E+02  0.19578511845E+03  0.23974855445E+03  0.00000000000E+00 0.  1.
<mgrwt>
<rscale>  0 0.24212756E+04</rscale>
<asrwt>0</asrwt>
<pdfrwt beam="1">  1        2 0.46118342E+00 0.24212756E+04</pdfrwt>
<pdfrwt beam="2">  1       -1 0.75219087E-01 0.24212756E+04</pdfrwt>
<totfact> 0.31708474E+00</totfact>
</mgrwt>
</event>
<event>
12    6  0.1457317E-007  0.1389440E+04  0.7818608E-02  0.8961498E-01
          2   -1    0    0  501    0  0.00000000000E+00  0.00000000000E+00  0.10296718944E+04  0.10296718944E+04  0.00000000000E+00 0. -1.
         -1   -1    0    0    0  501 -0.00000000000E+00 -0.00000000000E+00 -0.46872766585E+03  0.46872766585E+03  0.00000000000E+00 0.  1.
         24    2    1    2    0    0  0.20487807170E+03 -0.15590150449E+03  0.48136649536E+03  0.55188862277E+03  0.81160616829E+02 0.  0.
        254    2    1    2    0    0 -0.20487807170E+03  0.15590150449E+03  0.79577733161E+02  0.94651093744E+03  0.90734229248E+03 0.  0.
         23    2    4    4    0    0 -0.23861603025E+03  0.22735834006E+03 -0.35647089984E+03  0.49380438961E+03  0.90232189808E+02 0.  0.
         23    2    4    4    0    0  0.33737958557E+02 -0.71456835569E+02  0.43604863300E+03  0.45270654784E+03  0.92522856193E+02 0.  0.
          4    1    3    3  502    0  0.16927649834E+03 -0.14448284944E+03  0.34552255947E+03  0.41099351062E+03  0.00000000000E+00 0. -1.
         -3    1    3    3    0  502  0.35601573355E+02 -0.11418655051E+02  0.13584393589E+03  0.14089511214E+03  0.00000000000E+00 0.  1.
         11    1    5    5    0    0  0.21641479922E+01  0.12113576705E+02  0.62911602149E+00  0.12321447321E+02  0.00000000000E+00 0. -1.
        -11    1    5    5    0    0 -0.24078017825E+03  0.21524476336E+03 -0.35710001586E+03  0.48148294229E+03  0.00000000000E+00 0.  1.
          4    1    6    6  503    0  0.28820290497E+02  0.16283555256E+02  0.14200015671E+03  0.14580743404E+03  0.00000000000E+00 0. -1.
         -4    1    6    6    0  503  0.49176680603E+01 -0.87740390826E+02  0.29404847629E+03  0.30689911380E+03  0.00000000000E+00 0.  1.
<mgrwt>
<rscale>  0 0.13894397E+04</rscale>
<asrwt>0</asrwt>
<pdfrwt beam="1">  1        2 0.15841106E+00 0.13894397E+04</pdfrwt>
<pdfrwt beam="2">  1       -1 0.72111949E-01 0.13894397E+04</pdfrwt>
<totfact> 0.51996189E+01</totfact>
</mgrwt>
</event>
<event>
12    6  0.1457317E-007  0.1963446E+04  0.7818608E-02  0.8623904E-01
          2   -1    0    0  501    0  0.00000000000E+00  0.00000000000E+00  0.10224815106E+04  0.10224815106E+04  0.00000000000E+00 0. -1.
         -1   -1    0    0    0  501 -0.00000000000E+00 -0.00000000000E+00 -0.94258927386E+03  0.94258927386E+03  0.00000000000E+00 0.  1.
         24    2    1    2    0    0  0.77039310194E+03 -0.10144074925E+03 -0.25626702255E+01  0.78119066184E+03  0.80352509322E+02 0.  0.
        254    2    1    2    0    0 -0.77039310194E+03  0.10144074925E+03  0.82454906971E+02  0.11838801226E+04  0.88936920114E+03 0.  0.
         23    2    4    4    0    0 -0.67710950806E+03  0.77110160669E+02  0.43051311279E+03  0.81143538104E+03  0.93072952788E+02 0.  0.
         23    2    4    4    0    0 -0.93283593876E+02  0.24330588582E+02 -0.34805820582E+03  0.37244474158E+03  0.90976724838E+02 0.  0.
          4    1    3    3  502    0  0.13166077337E+03 -0.18374406643E+01  0.25543211650E+02  0.13412826360E+03  0.00000000000E+00 0. -1.
         -3    1    3    3    0  502  0.63873232856E+03 -0.99603308586E+02 -0.28105881875E+02  0.64706239825E+03  0.00000000000E+00 0.  1.
         11    1    5    5    0    0 -0.34608922102E+03  0.11642369648E+02  0.26221431898E+03  0.43436118929E+03  0.00000000000E+00 0. -1.
        -11    1    5    5    0    0 -0.33102028704E+03  0.65467791020E+02  0.16829879381E+03  0.37707419176E+03  0.00000000000E+00 0.  1.
          4    1    6    6  503    0 -0.57046526817E+02 -0.86822012630E+00 -0.67258332728E+02  0.88197184476E+02  0.00000000000E+00 0. -1.
         -4    1    6    6    0  503 -0.36237067059E+02  0.25198808708E+02 -0.28079987309E+03  0.28424755710E+03  0.00000000000E+00 0.  1.
<mgrwt>
<rscale>  0 0.19634461E+04</rscale>
<asrwt>0</asrwt>
<pdfrwt beam="1">  1        2 0.15730485E+00 0.19634461E+04</pdfrwt>
<pdfrwt beam="2">  1       -1 0.14501374E+00 0.19634461E+04</pdfrwt>
<totfact> 0.98939081E+00</totfact>
</mgrwt>
</event>
<event>
12    6  0.1457317E-007  0.3018454E+04  0.7818608E-02  0.8238481E-01
         -1   -1    0    0    0  501 -0.00000000000E+00  0.00000000000E+00  0.51238642568E+03  0.51238642568E+03  0.00000000000E+00 0.  1.
          2   -1    0    0  501    0  0.00000000000E+00 -0.00000000000E+00 -0.44454069976E+04  0.44454069976E+04  0.00000000000E+00 0. -1.
         24    2    1    2    0    0  0.30469874440E+03 -0.18512444452E+03  0.38266535196E+03  0.52900970616E+03  0.79411037159E+02 0.  0.
        254    2    1    2    0    0 -0.30469874440E+03  0.18512444452E+03 -0.43156859239E+04  0.44287837171E+04  0.92836837227E+03 0.  0.
         23    2    4    4    0    0 -0.41472766386E+03 -0.16451533613E+03 -0.10980857339E+04  0.11890583748E+04  0.94885239567E+02 0.  0.
         23    2    4    4    0    0  0.11002891946E+03  0.34963978065E+03 -0.32176001900E+04  0.32397253423E+04  0.92276604845E+02 0.  0.
          4    1    3    3  502    0  0.35568306394E+02  0.46798704336E+01  0.34736146469E+02  0.49936013843E+02  0.00000000000E+00 0. -1.
         -3    1    3    3    0  502  0.26913043800E+03 -0.18980431495E+03  0.34792920550E+03  0.47907369232E+03  0.00000000000E+00 0.  1.
         11    1    5    5    0    0 -0.39815285160E+03 -0.13862751908E+03 -0.97604798689E+03  0.10632088012E+04  0.00000000000E+00 0. -1.
        -11    1    5    5    0    0 -0.16574812250E+02 -0.25887817053E+02 -0.12203774702E+03  0.12584957358E+03  0.00000000000E+00 0.  1.
          2    1    6    6  503    0 -0.72056561252E+01  0.47720663445E+02 -0.25973173589E+03  0.26417751197E+03  0.00000000000E+00 0.  1.
         -2    1    6    6    0  503  0.11723457558E+03  0.30191911720E+03 -0.29578684541E+04  0.29755478303E+04  0.00000000000E+00 0. -1.
<mgrwt>
<rscale>  0 0.30184540E+04</rscale>
<asrwt>0</asrwt>
<pdfrwt beam="1">  1        2 0.68390877E+00 0.30184540E+04</pdfrwt>
<pdfrwt beam="2">  1       -1 0.78828680E-01 0.30184540E+04</pdfrwt>
<totfact> 0.21706059E-01</totfact>
</mgrwt>
</event>
<event>
12    6  0.1457317E-007  0.1028715E+04  0.7818608E-02  0.9277599E-01
          2   -1    0    0  501    0  0.00000000000E+00  0.00000000000E+00  0.47083800092E+03  0.47083800092E+03  0.00000000000E+00 0. -1.
         -1   -1    0    0    0  501 -0.00000000000E+00 -0.00000000000E+00 -0.56189984088E+03  0.56189984088E+03  0.00000000000E+00 0.  1.
         24    2    1    2    0    0 -0.90823122346E+00  0.52398270819E+02 -0.96196491587E+02  0.13297264831E+03  0.75376100566E+02 0.  0.
        254    2    1    2    0    0  0.90823122346E+00 -0.52398270819E+02  0.51346516344E+01  0.89976519349E+03  0.89822304307E+03 0.  0.
         23    2    4    4    0    0  0.34614626059E+03 -0.29502216572E+03 -0.41179373500E+02  0.46599663257E+03  0.92745936727E+02 0.  0.
         23    2    4    4    0    0 -0.34523802937E+03  0.24262389490E+03  0.46314025135E+02  0.43376856092E+03  0.89188139480E+02 0.  0.
          2    1    3    3  502    0  0.15938830902E+01  0.30797574295E+01  0.12826643516E+02  0.13287142395E+02  0.00000000000E+00 0. -1.
         -1    1    3    3    0  502 -0.25021143137E+01  0.49318513390E+02 -0.10902313510E+03  0.11968550592E+03  0.00000000000E+00 0.  1.
         11    1    5    5    0    0  0.25580362991E+03 -0.23659546812E+03  0.60530151583E+01  0.34849612853E+03  0.00000000000E+00 0. -1.
        -11    1    5    5    0    0  0.90342630680E+02 -0.58426697594E+02 -0.47232388658E+02  0.11750050403E+03  0.00000000000E+00 0.  1.
          4    1    6    6  503    0 -0.34896922260E+03  0.22989851890E+03  0.42984352338E+02  0.42009582462E+03  0.00000000000E+00 0. -1.
         -4    1    6    6    0  503  0.37311932314E+01  0.12725375996E+02  0.33296727964E+01  0.13672736306E+02  0.00000000000E+00 0.  1.
<mgrwt>
<rscale>  0 0.10287153E+04</rscale>
<asrwt>0</asrwt>
<pdfrwt beam="1">  1        2 0.72436616E-01 0.10287153E+04</pdfrwt>
<pdfrwt beam="2">  1       -1 0.86446129E-01 0.10287153E+04</pdfrwt>
<totfact> 0.99414865E+01</totfact>
</mgrwt>
</event>
<event>
12    6  0.1457317E-007  0.1377443E+04  0.7818608E-02  0.8970310E-01
         -1   -1    0    0    0  501 -0.00000000000E+00  0.00000000000E+00  0.62866253666E+03  0.62866253666E+03  0.00000000000E+00 0.  1.
          2   -1    0    0  501    0  0.00000000000E+00 -0.00000000000E+00 -0.75451817683E+03  0.75451817683E+03  0.00000000000E+00 0. -1.
         24    2    1    2    0    0  0.35855846563E+03  0.87719461344E+02  0.91604118377E+02  0.38797563293E+03  0.76647896690E+02 0.  0.
        254    2    1    2    0    0 -0.35855846563E+03 -0.87719461344E+02 -0.21745975856E+03  0.99520508056E+03  0.89826807169E+03 0.  0.
         23    2    4    4    0    0  0.15010593315E+03 -0.12109483340E+02 -0.40269213170E+03  0.43986393693E+03  0.92956437769E+02 0.  0.
         23    2    4    4    0    0 -0.50866439878E+03 -0.75609978003E+02  0.18523237314E+03  0.55534114364E+03  0.98165240273E+02 0.  0.
          2    1    3    3  502    0  0.12947040113E+03  0.25204738352E+00  0.11386912668E+02  0.12997042001E+03  0.00000000000E+00 0. -1.
         -1    1    3    3    0  502  0.22908806450E+03  0.87467413960E+02  0.80217205709E+02  0.25800521291E+03  0.00000000000E+00 0.  1.
         11    1    5    5    0    0  0.28492872518E+02 -0.42588301343E+02 -0.10448071415E+03  0.11636935518E+03  0.00000000000E+00 0. -1.
        -11    1    5    5    0    0  0.12161306063E+03  0.30478818003E+02 -0.29821141755E+03  0.32349458175E+03  0.00000000000E+00 0.  1.
          1    1    6    6  503    0 -0.18942540964E+03  0.17731365581E+02  0.53850449453E+02  0.19772773717E+03  0.00000000000E+00 0. -1.
         -1    1    6    6    0  503 -0.31923898914E+03 -0.93341343584E+02  0.13138192369E+03  0.35761340647E+03  0.00000000000E+00 0.  1.
<mgrwt>
<rscale>  0 0.13774430E+04</rscale>
<asrwt>0</asrwt>
<pdfrwt beam="1">  1        2 0.11607972E+00 0.13774430E+04</pdfrwt>
<pdfrwt beam="2">  1       -1 0.96717313E-01 0.13774430E+04</pdfrwt>
<totfact> 0.42615052E+01</totfact>
</mgrwt>
</event>
<event>
12    6  0.1457317E-007  0.1310647E+04  0.7818608E-02  0.9021165E-01
         -1   -1    0    0    0  501 -0.00000000000E+00  0.00000000000E+00  0.53264311309E+03  0.53264311309E+03  0.00000000000E+00 0.  1.
          2   -1    0    0  501    0  0.00000000000E+00 -0.00000000000E+00 -0.80625986984E+03  0.80625986984E+03  0.00000000000E+00 0. -1.
         24    2    1    2    0    0  0.22908634376E+03  0.25905886065E+03 -0.37685492505E+03  0.51774619129E+03  0.80308392323E+02 0.  0.
        254    2    1    2    0    0 -0.22908634376E+03 -0.25905886065E+03  0.10323816830E+03  0.82115679164E+03  0.73759630618E+03 0.  0.
         23    2    4    4    0    0  0.21608822985E+03  0.62937291212E+02 -0.38398902643E+02  0.24657461252E+03  0.93109280471E+02 0.  0.
         23    2    4    4    0    0 -0.44517457360E+03 -0.32199615186E+03  0.14163707094E+03  0.57458217913E+03  0.90673578912E+02 0.  0.
          2    1    3    3  502    0  0.18441997546E+03  0.17225177712E+03 -0.23023426297E+03  0.34159803559E+03  0.00000000000E+00 0. -1.
         -1    1    3    3    0  502  0.44666368299E+02  0.86807083522E+02 -0.14662066208E+03  0.17614815570E+03  0.00000000000E+00 0.  1.
         11    1    5    5    0    0  0.18641556103E+03  0.80658630691E+02 -0.12715498900E+02  0.20351476607E+03  0.00000000000E+00 0. -1.
        -11    1    5    5    0    0  0.29672668819E+02 -0.17721339478E+02 -0.25683403743E+02  0.43059846442E+02  0.00000000000E+00 0.  1.
          1    1    6    6  503    0 -0.16254410758E+03 -0.72925011745E+02  0.68270676314E+02  0.19078660722E+03  0.00000000000E+00 0.  1.
         -1    1    6    6    0  503 -0.28263046602E+03 -0.24907114011E+03  0.73366394630E+02  0.38379557191E+03  0.00000000000E+00 0. -1.
<mgrwt>
<rscale>  0 0.13106468E+04</rscale>
<asrwt>0</asrwt>
<pdfrwt beam="1">  1        2 0.12403998E+00 0.13106468E+04</pdfrwt>
<pdfrwt beam="2">  1       -1 0.81945094E-01 0.13106468E+04</pdfrwt>
<totfact> 0.56505569E+01</totfact>
</mgrwt>
</event>
<event>
12    6  0.1457317E-007  0.1896560E+04  0.7818608E-02  0.8656570E-01
         -3   -1    0    0    0  501 -0.00000000000E+00  0.00000000000E+00  0.25052240376E+03  0.25052240376E+03  0.00000000000E+00 0.  1.
          2   -1    0    0  501    0  0.00000000000E+00 -0.00000000000E+00 -0.35894408851E+04  0.35894408851E+04  0.00000000000E+00 0. -1.
         24    2    1    2    0    0  0.11454127611E+03  0.55762001904E+03 -0.22328445711E+04  0.23056300595E+04  0.79216809498E+02 0.  0.
        254    2    1    2    0    0 -0.11454127611E+03 -0.55762001904E+03 -0.11060739103E+04  0.15343332294E+04  0.89817546968E+03 0.  0.
         23    2    4    4    0    0  0.29381135935E+03 -0.56712108126E+03 -0.66108638358E+03  0.92355892907E+03  0.89299794082E+02 0.  0.
         23    2    4    4    0    0 -0.40835263546E+03  0.95010622208E+01 -0.44498752668E+03  0.61077430033E+03  0.90494209622E+02 0.  0.
          4    1    3    3  502    0  0.32837140565E+02  0.27951919775E+03 -0.97403373218E+03  0.10138791699E+04  0.00000000000E+00 0. -1.
         -3    1    3    3    0  502  0.81704135548E+02  0.27810082128E+03 -0.12588108389E+04  0.12917508896E+04  0.00000000000E+00 0.  1.
         11    1    5    5    0    0  0.17208148362E+03 -0.41872709738E+03 -0.45168270268E+03  0.63950112040E+03  0.00000000000E+00 0.  1.
        -11    1    5    5    0    0  0.12172987573E+03 -0.14839398387E+03 -0.20940368089E+03  0.28405780867E+03  0.00000000000E+00 0. -1.
          3    1    6    6  503    0 -0.13863101048E+03 -0.31995018934E+02 -0.11775995765E+03  0.18468796910E+03  0.00000000000E+00 0. -1.
         -3    1    6    6    0  503 -0.26972162498E+03  0.41496081154E+02 -0.32722756903E+03  0.42608633124E+03  0.00000000000E+00 0.  1.
<mgrwt>
<rscale>  0 0.18965604E+04</rscale>
<asrwt>0</asrwt>
<pdfrwt beam="1">  1        2 0.55222171E+00 0.18965604E+04</pdfrwt>
<pdfrwt beam="2">  1       -3 0.38541906E-01 0.18965604E+04</pdfrwt>
<totfact> 0.28778383E+00</totfact>
</mgrwt>
</event>
<event>
12    6  0.1457317E-007  0.2236184E+04  0.7818608E-02  0.8503517E-01
         -1   -1    0    0    0  501 -0.00000000000E+00  0.00000000000E+00  0.10972305452E+04  0.10972305452E+04  0.00000000000E+00 0.  1.
          2   -1    0    0  501    0  0.00000000000E+00 -0.00000000000E+00 -0.11393504668E+04  0.11393504668E+04  0.00000000000E+00 0. -1.
         24    2    1    2    0    0  0.28823247347E+03 -0.87638062890E+03  0.12951313196E+03  0.93553672385E+03  0.85640789553E+02 0.  0.
        254    2    1    2    0    0 -0.28823247347E+03  0.87638062890E+03 -0.17163305351E+03  0.13010442882E+04  0.90118664505E+03 0.  0.
         23    2    4    4    0    0 -0.40574809279E+03  0.93426814265E+03  0.55345861136E+02  0.10240821068E+04  0.90512540663E+02 0.  0.
         23    2    4    4    0    0  0.11751561932E+03 -0.57887513752E+02 -0.22697891464E+03  0.27696218132E+03  0.89597640360E+02 0.  0.
          4    1    3    3  502    0  0.24117135740E+03 -0.75798919256E+03  0.14017929413E+03  0.80768897118E+03  0.00000000000E+00 0. -1.
         -3    1    3    3    0  502  0.47061116076E+02 -0.11839143634E+03 -0.10666162175E+02  0.12784775266E+03  0.00000000000E+00 0.  1.
         11    1    5    5    0    0 -0.28675416377E+03  0.71305844758E+03  0.87154047934E+01  0.76860669941E+03  0.00000000000E+00 0. -1.
        -11    1    5    5    0    0 -0.11899392903E+03  0.22120969508E+03  0.46630456343E+02  0.25547540743E+03  0.00000000000E+00 0.  1.
          3    1    6    6  503    0  0.12762193278E+03 -0.65322959027E+02 -0.19074246735E+03  0.23861503631E+03  0.00000000000E+00 0. -1.
         -3    1    6    6    0  503 -0.10106313460E+02  0.74354452757E+01 -0.36236447291E+02  0.38347145010E+02  0.00000000000E+00 0.  1.
<mgrwt>
<rscale>  0 0.22361844E+04</rscale>
<asrwt>0</asrwt>
<pdfrwt beam="1">  1        2 0.17528469E+00 0.22361844E+04</pdfrwt>
<pdfrwt beam="2">  1       -1 0.16880470E+00 0.22361844E+04</pdfrwt>
<totfact> 0.53768033E+00</totfact>
</mgrwt>
</event>
<event>
12    6  0.1457317E-007  0.1174305E+04  0.7818608E-02  0.9135649E-01
         -1   -1    0    0    0  501 -0.00000000000E+00  0.00000000000E+00  0.11979793391E+03  0.11979793391E+03  0.00000000000E+00 0.  1.
          2   -1    0    0  501    0  0.00000000000E+00 -0.00000000000E+00 -0.28777465790E+04  0.28777465790E+04  0.00000000000E+00 0. -1.
         24    2    1    2    0    0  0.28206108077E+03  0.10888768281E+03 -0.66872283595E+03  0.73829592189E+03  0.80471462141E+02 0.  0.
        254    2    1    2    0    0 -0.28206108077E+03 -0.10888768281E+03 -0.20892258091E+04  0.22592485910E+04  0.80493772034E+03 0.  0.
         23    2    4    4    0    0 -0.38009198476E+03  0.10526948530E+03 -0.19018924724E+04  0.19445514267E+04  0.92377991687E+02 0.  0.
         23    2    4    4    0    0  0.98030903998E+02 -0.21415716811E+03 -0.18733333673E+03  0.31469716423E+03  0.92017255629E+02 0.  0.
          4    1    3    3  502    0  0.55874125743E+02  0.56770436964E+01 -0.19976232393E+03  0.20750694643E+03  0.00000000000E+00 0. -1.
         -3    1    3    3    0  502  0.22618695502E+03  0.10321063912E+03 -0.46896051201E+03  0.53078897547E+03  0.00000000000E+00 0.  1.
         11    1    5    5    0    0 -0.16892060291E+03  0.83145270826E+02 -0.10389347704E+04  0.10558564122E+04  0.00000000000E+00 0. -1.
        -11    1    5    5    0    0 -0.21117138186E+03  0.22124214469E+02 -0.86295770202E+03  0.88869501453E+03  0.00000000000E+00 0.  1.
          3    1    6    6  503    0  0.71003511647E+00 -0.11043215726E+03 -0.75733432434E+02  0.13390787242E+03  0.00000000000E+00 0. -1.
         -3    1    6    6    0  503  0.97320868881E+02 -0.10372501085E+03 -0.11159990430E+03  0.18078929181E+03  0.00000000000E+00 0.  1.
<mgrwt>
<rscale>  0 0.11743051E+04</rscale>
<asrwt>0</asrwt>
<pdfrwt beam="1">  1        2 0.44273024E+00 0.11743051E+04</pdfrwt>
<pdfrwt beam="2">  1       -1 0.18430452E-01 0.11743051E+04</pdfrwt>
<totfact> 0.55445697E+01</totfact>
</mgrwt>
</event>
<event>
12    6  0.1457317E-007  0.3340881E+04  0.7818608E-02  0.8152571E-01
         -1   -1    0    0    0  501 -0.00000000000E+00  0.00000000000E+00  0.90056968082E+03  0.90056968082E+03  0.00000000000E+00 0.  1.
          2   -1    0    0  501    0  0.00000000000E+00 -0.00000000000E+00 -0.30984509607E+04  0.30984509607E+04  0.00000000000E+00 0. -1.
         24    2    1    2    0    0  0.11884654624E+04  0.31099435827E+03 -0.21509522519E+04  0.24783631331E+04  0.80750128677E+02 0.  0.
        254    2    1    2    0    0 -0.11884654624E+04 -0.31099435827E+03 -0.46929027966E+02  0.15206575084E+04  0.89500238999E+03 0.  0.
         23    2    4    4    0    0 -0.13053602234E+04 -0.18014472308E+03 -0.65376463249E+02  0.13225765191E+04  0.92288313055E+02 0.  0.
         23    2    4    4    0    0  0.11689476103E+03 -0.13084963519E+03  0.18447435283E+02  0.19808098934E+03  0.90054196359E+02 0.  0.
          2    1    3    3  502    0  0.11776848859E+04  0.31583207012E+03 -0.21290078446E+04  0.24534396242E+04  0.00000000000E+00 0. -1.
         -1    1    3    3    0  502  0.10780576456E+02 -0.48377118497E+01 -0.21944407262E+02  0.24923508877E+02  0.00000000000E+00 0.  1.
         11    1    5    5    0    0 -0.18446907471E+03 -0.38411698696E+02  0.20300059074E+02  0.18951620121E+03  0.00000000000E+00 0. -1.
        -11    1    5    5    0    0 -0.11208911487E+04 -0.14173302438E+03 -0.85676522323E+02  0.11330603179E+04  0.00000000000E+00 0.  1.
          1    1    6    6  503    0 -0.50536376914E+01 -0.50187207934E+02  0.11320719275E+02  0.51695781057E+02  0.00000000000E+00 0. -1.
         -1    1    6    6    0  503  0.12194839873E+03 -0.80662427258E+02  0.71267160076E+01  0.14638520828E+03  0.00000000000E+00 0.  1.
<mgrwt>
<rscale>  0 0.33408807E+04</rscale>
<asrwt>0</asrwt>
<pdfrwt beam="1">  1        2 0.47668476E+00 0.33408807E+04</pdfrwt>
<pdfrwt beam="2">  1       -1 0.13854918E+00 0.33408807E+04</pdfrwt>
<totfact> 0.61362583E-01</totfact>
</mgrwt>
</event>
<event>
12    6  0.1457317E-007  0.1141993E+04  0.7818608E-02  0.9165203E-01
          2   -1    0    0  501    0  0.00000000000E+00  0.00000000000E+00  0.24197431669E+04  0.24197431669E+04  0.00000000000E+00 0. -1.
         -1   -1    0    0    0  501 -0.00000000000E+00 -0.00000000000E+00 -0.13474024698E+03  0.13474024698E+03  0.00000000000E+00 0.  1.
         24    2    1    2    0    0  0.13702620772E+03 -0.89262066992E+02  0.18958572485E+03  0.26246960940E+03  0.78763256571E+02 0.  0.
        254    2    1    2    0    0 -0.13702620772E+03  0.89262066992E+02  0.20954171951E+04  0.22920138045E+04  0.91422653668E+03 0.  0.
         23    2    4    4    0    0 -0.43279698628E+02  0.33496550330E+03  0.19446208059E+04  0.19757827100E+04  0.89956754155E+02 0.  0.
         23    2    4    4    0    0 -0.93746509087E+02 -0.24570343631E+03  0.15079638919E+03  0.31623109452E+03  0.90022039368E+02 0.  0.
          4    1    3    3  502    0  0.73581505358E+02 -0.86103118449E+02  0.14871701203E+03  0.18693510800E+03  0.00000000000E+00 0. -1.
         -3    1    3    3    0  502  0.63444702358E+02 -0.31589485429E+01  0.40868712820E+02  0.75534501393E+02  0.00000000000E+00 0.  1.
         11    1    5    5    0    0 -0.12306932198E+02  0.26797886019E+03  0.13329940399E+04  0.13597195448E+04  0.00000000000E+00 0. -1.
        -11    1    5    5    0    0 -0.30972766431E+02  0.66986643111E+02  0.61162676597E+03  0.61606316516E+03  0.00000000000E+00 0.  1.
          4    1    6    6  503    0 -0.70253041787E+02 -0.15772675901E+03  0.48647556512E+02  0.17938730485E+03  0.00000000000E+00 0.  1.
         -4    1    6    6    0  503 -0.23493467300E+02 -0.87976677300E+02  0.10214883268E+03  0.13684378967E+03  0.00000000000E+00 0. -1.
<mgrwt>
<rscale>  0 0.11419926E+04</rscale>
<asrwt>0</asrwt>
<pdfrwt beam="1">  1        2 0.37226815E+00 0.11419926E+04</pdfrwt>
<pdfrwt beam="2">  1       -1 0.20729271E-01 0.11419926E+04</pdfrwt>
<totfact> 0.84701385E+01</totfact>
</mgrwt>
</event>
<event>
12    6  0.1457317E-007  0.2049773E+04  0.7818608E-02  0.8583697E-01
          2   -1    0    0  501    0  0.00000000000E+00  0.00000000000E+00  0.54841018843E+03  0.54841018843E+03  0.00000000000E+00 0. -1.
         -1   -1    0    0    0  501 -0.00000000000E+00 -0.00000000000E+00 -0.19153413778E+04  0.19153413778E+04  0.00000000000E+00 0.  1.
         24    2    1    2    0    0  0.86129644798E+02 -0.79342427388E+03 -0.77033620903E+03  0.11121560729E+04  0.80826118750E+02 0.  0.
        254    2    1    2    0    0 -0.86129644798E+02  0.79342427388E+03 -0.59659498030E+03  0.13515954933E+04  0.91320556986E+03 0.  0.
         23    2    4    4    0    0  0.10265387176E+03  0.17017910953E+03  0.21527539609E+03  0.30694036772E+03  0.91488504589E+02 0.  0.
         23    2    4    4    0    0 -0.18878351656E+03  0.62324516436E+03 -0.81187037638E+03  0.10446551256E+04  0.89983733392E+02 0.  0.
          4    1    3    3  502    0 -0.12305939015E+02 -0.30192081621E+02 -0.32441562666E+02  0.45994053048E+02  0.00000000000E+00 0. -1.
         -3    1    3    3    0  502  0.98435583813E+02 -0.76323219226E+03 -0.73789464636E+03  0.10661620199E+04  0.00000000000E+00 0.  1.
         11    1    5    5    0    0  0.73917572230E+02  0.17313405037E+03  0.19833427016E+03  0.27345143920E+03  0.00000000000E+00 0.  1.
        -11    1    5    5    0    0  0.28736299530E+02 -0.29549408391E+01  0.16941125924E+02  0.33488928523E+02  0.00000000000E+00 0. -1.
          3    1    6    6  503    0 -0.14111960607E+03  0.47302891977E+03 -0.55012400888E+03  0.73912619173E+03  0.00000000000E+00 0. -1.
         -3    1    6    6    0  503 -0.47663910493E+02  0.15021624459E+03 -0.26174636751E+03  0.30552893382E+03  0.00000000000E+00 0.  1.
<mgrwt>
<rscale>  0 0.20497734E+04</rscale>
<asrwt>0</asrwt>
<pdfrwt beam="1">  1        2 0.84370799E-01 0.20497734E+04</pdfrwt>
<pdfrwt beam="2">  1       -1 0.29466790E+00 0.20497734E+04</pdfrwt>
<totfact> 0.20887195E+00</totfact>
</mgrwt>
</event>
<event>
12    6  0.1647553E-007  0.2457607E+04  0.7818608E-02  0.8418246E-01
         -1   -1    0    0    0  501 -0.00000000000E+00  0.00000000000E+00  0.92289226438E+03  0.92289226438E+03  0.00000000000E+00 0.  1.
          2   -1    0    0  501    0  0.00000000000E+00 -0.00000000000E+00 -0.16361154933E+04  0.16361154933E+04  0.00000000000E+00 0. -1.
         24    2    1    2    0    0 -0.46956517699E+03  0.26355209725E+03 -0.12625457537E+04  0.13751870251E+04  0.84654653900E+02 0.  0.
        254    2    1    2    0    0  0.46956517699E+03 -0.26355209725E+03  0.54932252474E+03  0.11838207326E+04  0.89984728001E+03 0.  0.
         23    2    4    4    0    0 -0.16032726654E+03 -0.11477979656E+03  0.47924130684E+03  0.52661707000E+03  0.93670027951E+02 0.  0.
         23    2    4    4    0    0  0.62989244353E+03 -0.14877230069E+03  0.70081217903E+02  0.65720366261E+03  0.90042152212E+02 0.  0.
          4    1    3    3  502    0 -0.28753776265E+03  0.13687059005E+03 -0.83242784918E+03  0.89126182880E+03  0.00000000000E+00 0. -1.
         -3    1    3    3    0  502 -0.18202741434E+03  0.12668150720E+03 -0.43011790448E+03  0.48392519627E+03  0.00000000000E+00 0.  1.
         11    1    5    5    0    0 -0.34949603996E+02 -0.67978726727E+02  0.11066387968E+03  0.13449563700E+03  0.00000000000E+00 0. -1.
        -11    1    5    5    0    0 -0.12537766254E+03 -0.46801069837E+02  0.36857742716E+03  0.39212143299E+03  0.00000000000E+00 0.  1.
          1    1    6    6  503    0  0.18263606212E+03 -0.17152016834E+01  0.19379955644E+02  0.18366941984E+03  0.00000000000E+00 0. -1.
         -1    1    6    6    0  503  0.44725638141E+03 -0.14705709901E+03  0.50701262259E+02  0.47353424277E+03  0.00000000000E+00 0.  1.
<mgrwt>
<rscale>  0 0.24576072E+04</rscale>
<asrwt>0</asrwt>
<pdfrwt beam="1">  1        2 0.25171008E+00 0.24576072E+04</pdfrwt>
<pdfrwt beam="2">  1       -1 0.14198343E+00 0.24576072E+04</pdfrwt>
<totfact> 0.43824769E+00</totfact>
</mgrwt>
</event>
<event>
12    6  0.1457317E-007  0.1243513E+04  0.7818608E-02  0.9075599E-01
          2   -1    0    0  501    0  0.00000000000E+00  0.00000000000E+00  0.17338141047E+04  0.17338141047E+04  0.00000000000E+00 0. -1.
         -1   -1    0    0    0  501 -0.00000000000E+00 -0.00000000000E+00 -0.22296585293E+03  0.22296585293E+03  0.00000000000E+00 0.  1.
         24    2    1    2    0    0  0.24465706605E+03 -0.11678646960E+03  0.21638053117E+03  0.35759574335E+03  0.86936884812E+02 0.  0.
        254    2    1    2    0    0 -0.24465706605E+03  0.11678646960E+03  0.12944677205E+04  0.15991842142E+04  0.89902575718E+03 0.  0.
         23    2    4    4    0    0 -0.16387927042E+03  0.40663267482E+03  0.11841090277E+04  0.12659970309E+04  0.91802751241E+02 0.  0.
         23    2    4    4    0    0 -0.80777795630E+02 -0.28984620522E+03  0.11035869283E+03  0.33318718338E+03  0.91097657137E+02 0.  0.
          2    1    3    3  502    0  0.20427559796E+03 -0.56824136297E+02  0.16922930655E+03  0.27128593879E+03  0.00000000000E+00 0. -1.
         -1    1    3    3    0  502  0.40381468090E+02 -0.59962333301E+02  0.47151224620E+02  0.86309804560E+02  0.00000000000E+00 0.  1.
         11    1    5    5    0    0 -0.13846188445E+03  0.26611448704E+03  0.88699245280E+03  0.93634621000E+03  0.00000000000E+00 0.  1.
        -11    1    5    5    0    0 -0.25417385965E+02  0.14051818778E+03  0.29711657491E+03  0.32965082086E+03  0.00000000000E+00 0. -1.
          1    1    6    6  503    0  0.47533930599E+01 -0.10050556357E+03  0.67182351832E+02  0.12098525303E+03  0.00000000000E+00 0. -1.
         -1    1    6    6    0  503 -0.85531188690E+02 -0.18934064165E+03  0.43176341002E+02  0.21220193034E+03  0.00000000000E+00 0.  1.
<mgrwt>
<rscale>  0 0.12435133E+04</rscale>
<asrwt>0</asrwt>
<pdfrwt beam="1">  1        2 0.26674062E+00 0.12435133E+04</pdfrwt>
<pdfrwt beam="2">  1       -1 0.34302440E-01 0.12435133E+04</pdfrwt>
<totfact> 0.84686533E+01</totfact>
</mgrwt>
</event>
<event>
12    6  0.1457317E-007  0.1458762E+04  0.7818608E-02  0.8912348E-01
         -1   -1    0    0    0  501 -0.00000000000E+00  0.00000000000E+00  0.46504711215E+03  0.46504711215E+03  0.00000000000E+00 0.  1.
          2   -1    0    0  501    0  0.00000000000E+00 -0.00000000000E+00 -0.11439630121E+04  0.11439630121E+04  0.00000000000E+00 0. -1.
         24    2    1    2    0    0 -0.64272031573E+02 -0.13097110693E+03 -0.68327859504E+03  0.70323629732E+03  0.79920751578E+02 0.  0.
        254    2    1    2    0    0  0.64272031573E+02  0.13097110693E+03  0.43626950495E+01  0.90577382698E+03  0.89393672463E+03 0.  0.
         23    2    4    4    0    0 -0.10154142591E+03  0.37755015118E+02 -0.41388042960E+03  0.43730711734E+03  0.90578156996E+02 0.  0.
         23    2    4    4    0    0  0.16581345748E+03  0.93216091814E+02  0.41824312465E+03  0.46846670964E+03  0.91380546461E+02 0.  0.
          2    1    3    3  502    0 -0.30155336022E+02 -0.94201704025E+02 -0.58055577082E+03  0.58892130915E+03  0.00000000000E+00 0. -1.
         -1    1    3    3    0  502 -0.34116695551E+02 -0.36769402908E+02 -0.10272282422E+03  0.11431498817E+03  0.00000000000E+00 0.  1.
         11    1    5    5    0    0 -0.35019883349E+02 -0.16049666902E+02 -0.24479909987E+03  0.24781158838E+03  0.00000000000E+00 0. -1.
        -11    1    5    5    0    0 -0.66521542558E+02  0.53804682021E+02 -0.16908132973E+03  0.18949552896E+03  0.00000000000E+00 0.  1.
          2    1    6    6  503    0 -0.18556159373E+01  0.30339056566E+02  0.42685490305E+02  0.52401839151E+02  0.00000000000E+00 0. -1.
         -2    1    6    6    0  503  0.16766907342E+03  0.62877035249E+02  0.37555763435E+03  0.41606487049E+03  0.00000000000E+00 0.  1.
<mgrwt>
<rscale>  0 0.14587621E+04</rscale>
<asrwt>0</asrwt>
<pdfrwt beam="1">  1        2 0.17599431E+00 0.14587621E+04</pdfrwt>
<pdfrwt beam="2">  1       -1 0.71545711E-01 0.14587621E+04</pdfrwt>
<totfact> 0.44637347E+01</totfact>
</mgrwt>
</event>
<event>
12    6  0.1457317E-007  0.2634730E+04  0.7818608E-02  0.8356499E-01
         -1   -1    0    0    0  501 -0.00000000000E+00  0.00000000000E+00  0.70373653390E+03  0.70373653390E+03  0.00000000000E+00 0.  1.
          2   -1    0    0  501    0  0.00000000000E+00 -0.00000000000E+00 -0.24660508752E+04  0.24660508752E+04  0.00000000000E+00 0. -1.
         24    2    1    2    0    0  0.42604705043E+03  0.73788505602E+03  0.17479329725E+03  0.87354074199E+03  0.80810185432E+02 0.  0.
        254    2    1    2    0    0 -0.42604705043E+03 -0.73788505602E+03 -0.19371076385E+04  0.22962466671E+04  0.89127566320E+03 0.  0.
         23    2    4    4    0    0  0.18937610448E+03  0.62210502167E+02 -0.34291892920E+03  0.40660886286E+03  0.89464628915E+02 0.  0.
         23    2    4    4    0    0 -0.61542315491E+03 -0.80009555818E+03 -0.15941887093E+04  0.18896378042E+04  0.10195503126E+03 0.  0.
          4    1    3    3  502    0  0.99507994898E+02  0.11159032737E+03  0.34185422064E+02  0.15337172260E+03  0.00000000000E+00 0. -1.
         -3    1    3    3    0  502  0.32653905553E+03  0.62629472865E+03  0.14060787519E+03  0.72016901939E+03  0.00000000000E+00 0.  1.
         11    1    5    5    0    0  0.13976567890E+03  0.39060004960E+02 -0.31111092060E+03  0.34329307290E+03  0.00000000000E+00 0. -1.
        -11    1    5    5    0    0  0.49610425579E+02  0.23150497207E+02 -0.31808008598E+02  0.63315789958E+02  0.00000000000E+00 0.  1.
          1    1    6    6  503    0 -0.91390239193E+02 -0.97967520291E+02 -0.15636281810E+03  0.20591051876E+03  0.00000000000E+00 0. -1.
         -1    1    6    6    0  503 -0.52403291572E+03 -0.70212803789E+03 -0.14378258912E+04  0.16837272855E+04  0.00000000000E+00 0.  1.
<mgrwt>
<rscale>  0 0.26347297E+04</rscale>
<asrwt>0</asrwt>
<pdfrwt beam="1">  1        2 0.37939244E+00 0.26347297E+04</pdfrwt>
<pdfrwt beam="2">  1       -1 0.10826716E+00 0.26347297E+04</pdfrwt>
<totfact> 0.28939052E+00</totfact>
</mgrwt>
</event>
<event>
12    6  0.1457317E-007  0.1452548E+04  0.7818608E-02  0.8916636E-01
         -1   -1    0    0    0  501 -0.00000000000E+00  0.00000000000E+00  0.52162240467E+03  0.52162240467E+03  0.00000000000E+00 0.  1.
          2   -1    0    0  501    0  0.00000000000E+00 -0.00000000000E+00 -0.10112184195E+04  0.10112184195E+04  0.00000000000E+00 0. -1.
         24    2    1    2    0    0  0.22957042435E+03 -0.20188040736E+03  0.18401933155E+03  0.36650611739E+03  0.83697915665E+02 0.  0.
        254    2    1    2    0    0 -0.22957042435E+03  0.20188040736E+03 -0.67361534640E+03  0.11663347068E+04  0.90173207483E+03 0.  0.
         23    2    4    4    0    0  0.21405323200E+03 -0.48161434810E+02  0.81801759719E+02  0.25077744215E+03  0.89774649357E+02 0.  0.
         23    2    4    4    0    0 -0.44362365635E+03  0.25004184217E+03 -0.75541710612E+03  0.91555726465E+03  0.90924305532E+02 0.  0.
          4    1    3    3  502    0  0.97211783670E+02 -0.72317479366E+02  0.28048344965E+02  0.12436502065E+03  0.00000000000E+00 0. -1.
         -3    1    3    3    0  502  0.13235864068E+03 -0.12956292799E+03  0.15597098658E+03  0.24214109674E+03  0.00000000000E+00 0.  1.
         11    1    5    5    0    0  0.19570301221E+03 -0.49460255405E+02  0.40940816179E+02  0.20596634745E+03  0.00000000000E+00 0. -1.
        -11    1    5    5    0    0  0.18350219787E+02  0.12988205954E+01  0.40860943540E+02  0.44811094700E+02  0.00000000000E+00 0.  1.
          1    1    6    6  503    0 -0.34260003270E+03  0.15647467149E+03 -0.50786982025E+03  0.63229017037E+03  0.00000000000E+00 0. -1.
         -1    1    6    6    0  503 -0.10102362365E+03  0.93567170675E+02 -0.24754728587E+03  0.28326709428E+03  0.00000000000E+00 0.  1.
<mgrwt>
<rscale>  0 0.14525484E+04</rscale>
<asrwt>0</asrwt>
<pdfrwt beam="1">  1        2 0.15557206E+00 0.14525484E+04</pdfrwt>
<pdfrwt beam="2">  1       -1 0.80249602E-01 0.14525484E+04</pdfrwt>
<totfact> 0.42475159E+01</totfact>
</mgrwt>
</event>
<event>
12    6  0.1457317E-007  0.2380188E+04  0.7818608E-02  0.8446958E-01
         -1   -1    0    0    0  501 -0.00000000000E+00  0.00000000000E+00  0.91437574361E+03  0.91437574361E+03  0.00000000000E+00 0.  1.
          2   -1    0    0  501    0  0.00000000000E+00 -0.00000000000E+00 -0.15489518050E+04  0.15489518050E+04  0.00000000000E+00 0. -1.
         24    2    1    2    0    0 -0.11980150967E+03  0.98256579133E+03 -0.20220137563E+02  0.99323378649E+03  0.79476818412E+02 0.  0.
        254    2    1    2    0    0  0.11980150967E+03 -0.98256579133E+03 -0.61435592386E+03  0.14700937622E+04  0.89663511661E+03 0.  0.
         23    2    4    4    0    0  0.37560594369E+03 -0.22835425231E+03 -0.47918943388E+03  0.65677671106E+03  0.92236897018E+02 0.  0.
         23    2    4    4    0    0 -0.25580443402E+03 -0.75421153902E+03 -0.13516648998E+03  0.81331705109E+03  0.94571092456E+02 0.  0.
          4    1    3    3  502    0 -0.79108682575E+01  0.29418336371E+03 -0.29419352221E+02  0.29575654110E+03  0.00000000000E+00 0. -1.
         -3    1    3    3    0  502 -0.11189064141E+03  0.68838242762E+03  0.91992146585E+01  0.69747724539E+03  0.00000000000E+00 0.  1.
         11    1    5    5    0    0  0.26223187074E+02 -0.50036272796E+02 -0.51454679961E+02  0.76412487366E+02  0.00000000000E+00 0.  1.
        -11    1    5    5    0    0  0.34938275661E+03 -0.17831797951E+03 -0.42773475392E+03  0.58036422370E+03  0.00000000000E+00 0. -1.
          1    1    6    6  503    0 -0.22707623630E+03 -0.65780533517E+03 -0.85500599293E+02  0.70112896713E+03  0.00000000000E+00 0. -1.
         -1    1    6    6    0  503 -0.28728197726E+02 -0.96406203849E+02 -0.49665890691E+02  0.11218808396E+03  0.00000000000E+00 0.  1.
<mgrwt>
<rscale>  0 0.23801882E+04</rscale>
<asrwt>0</asrwt>
<pdfrwt beam="1">  1        2 0.23830028E+00 0.23801882E+04</pdfrwt>
<pdfrwt beam="2">  1       -1 0.14067319E+00 0.23801882E+04</pdfrwt>
<totfact> 0.50584156E+00</totfact>
</mgrwt>
</event>
<event>
12    6  0.1457317E-007  0.1821547E+04  0.7818608E-02  0.8694924E-01
          2   -1    0    0  501    0  0.00000000000E+00  0.00000000000E+00  0.16472856348E+04  0.16472856348E+04  0.00000000000E+00 0. -1.
         -3   -1    0    0    0  501 -0.00000000000E+00 -0.00000000000E+00 -0.50356062541E+03  0.50356062541E+03  0.00000000000E+00 0.  1.
         24    2    1    2    0    0  0.70901308033E+02 -0.68592397865E+03  0.44344088386E+03  0.82365877644E+03  0.79090217829E+02 0.  0.
        254    2    1    2    0    0 -0.70901308033E+02  0.68592397865E+03  0.70028412551E+03  0.13271874838E+04  0.89191370694E+03 0.  0.
         23    2    4    4    0    0  0.39545031877E+03  0.36995443526E+03  0.26673839791E+03  0.61032056618E+03  0.89969893861E+02 0.  0.
         23    2    4    4    0    0 -0.46635162680E+03  0.31596954339E+03  0.43354572760E+03  0.71686691757E+03  0.92820727305E+02 0.  0.
          4    1    3    3  502    0  0.52603507684E+02 -0.40073548297E+03  0.30362948829E+03  0.50551649082E+03  0.00000000000E+00 0. -1.
         -3    1    3    3    0  502  0.18297800348E+02 -0.28518849568E+03  0.13981139556E+03  0.31814228562E+03  0.00000000000E+00 0.  1.
         11    1    5    5    0    0  0.24685276877E+03  0.27427764185E+03  0.21065700379E+03  0.42490103261E+03  0.00000000000E+00 0. -1.
        -11    1    5    5    0    0  0.14859755000E+03  0.95676793413E+02  0.56081394120E+02  0.18541953357E+03  0.00000000000E+00 0.  1.
          3    1    6    6  503    0 -0.41827613247E+03  0.25262234876E+03  0.39583270984E+03  0.62885332810E+03  0.00000000000E+00 0. -1.
         -3    1    6    6    0  503 -0.48075494333E+02  0.63347194628E+02  0.37713017762E+02  0.88013589469E+02  0.00000000000E+00 0.  1.
<mgrwt>
<rscale>  0 0.18215468E+04</rscale>
<asrwt>0</asrwt>
<pdfrwt beam="1">  1        2 0.25342856E+00 0.18215468E+04</pdfrwt>
<pdfrwt beam="2">  1       -3 0.77470866E-01 0.18215468E+04</pdfrwt>
<totfact> 0.98595144E+00</totfact>
</mgrwt>
</event>
<event>
12    6  0.1457317E-007  0.2248227E+04  0.7818608E-02  0.8498619E-01
         -1   -1    0    0    0  501 -0.00000000000E+00  0.00000000000E+00  0.72061371092E+03  0.72061371092E+03  0.00000000000E+00 0.  1.
          2   -1    0    0  501    0  0.00000000000E+00 -0.00000000000E+00 -0.17535489505E+04  0.17535489505E+04  0.00000000000E+00 0. -1.
         24    2    1    2    0    0 -0.13399862389E+03  0.87306358491E+02  0.58547135696E+03  0.61207607204E+03  0.79261445287E+02 0.  0.
        254    2    1    2    0    0  0.13399862389E+03 -0.87306358491E+02 -0.16184065965E+04  0.18620865894E+04  0.90694460866E+03 0.  0.
         23    2    4    4    0    0  0.20123491838E+02 -0.19948596419E+03 -0.16584504378E+04  0.16730703960E+04  0.92233889346E+02 0.  0.
         23    2    4    4    0    0  0.11387513206E+03  0.11217960570E+03  0.40043841257E+02  0.18901619343E+03  0.92584029501E+02 0.  0.
          4    1    3    3  502    0 -0.65788079623E+02  0.12406035989E+02  0.13935603023E+03  0.15460298934E+03  0.00000000000E+00 0. -1.
         -3    1    3    3    0  502 -0.68210544271E+02  0.74900322502E+02  0.44611532673E+03  0.45747308271E+03  0.00000000000E+00 0.  1.
         11    1    5    5    0    0  0.89574654514E+00 -0.77131244619E+02 -0.10070300081E+04  0.10099799347E+04  0.00000000000E+00 0.  1.
        -11    1    5    5    0    0  0.19227745293E+02 -0.12235471958E+03 -0.65142042971E+03  0.66309046127E+03  0.00000000000E+00 0. -1.
          4    1    6    6  503    0  0.16238922367E+02 -0.15904150804E+02  0.11424698145E+02  0.25439503536E+02  0.00000000000E+00 0.  1.
         -4    1    6    6    0  503  0.97636209688E+02  0.12808375651E+03  0.28619143113E+02  0.16357668989E+03  0.00000000000E+00 0. -1.
<mgrwt>
<rscale>  0 0.22482272E+04</rscale>
<asrwt>0</asrwt>
<pdfrwt beam="1">  1        2 0.26977676E+00 0.22482272E+04</pdfrwt>
<pdfrwt beam="2">  1       -1 0.11086365E+00 0.22482272E+04</pdfrwt>
<totfact> 0.71111382E+00</totfact>
</mgrwt>
</event>
<event>
12    6  0.1457317E-007  0.2360020E+04  0.7818608E-02  0.8454625E-01
          2   -1    0    0  501    0  0.00000000000E+00  0.00000000000E+00  0.65756899528E+03  0.65756899528E+03  0.00000000000E+00 0. -1.
         -1   -1    0    0    0  501 -0.00000000000E+00 -0.00000000000E+00 -0.21175330837E+04  0.21175330837E+04  0.00000000000E+00 0.  1.
         24    2    1    2    0    0 -0.56902877584E+02 -0.51065095745E+03  0.39460183650E+03  0.65306012705E+03  0.82307851077E+02 0.  0.
        254    2    1    2    0    0  0.56902877584E+02  0.51065095745E+03 -0.18545659250E+04  0.21220419520E+04  0.89422868332E+03 0.  0.
         23    2    4    4    0    0  0.33521013353E+03 -0.93303338348E+02 -0.59212765585E+03  0.69223253985E+03  0.86598971294E+02 0.  0.
         23    2    4    4    0    0 -0.27830725595E+03  0.60395429580E+03 -0.12624382691E+04  0.14298094121E+04  0.91590673935E+02 0.  0.
          2    1    3    3  502    0 -0.24084559246E+02 -0.40053427838E+03  0.33957479430E+03  0.52566036095E+03  0.00000000000E+00 0. -1.
         -1    1    3    3    0  502 -0.32818318338E+02 -0.11011667908E+03  0.55027042197E+02  0.12739976610E+03  0.00000000000E+00 0.  1.
         11    1    5    5    0    0  0.28595369374E+03 -0.45170846554E+02 -0.48722745597E+03  0.56674554625E+03  0.00000000000E+00 0.  1.
        -11    1    5    5    0    0  0.49256439798E+02 -0.48132491793E+02 -0.10490019988E+03  0.12548699360E+03  0.00000000000E+00 0. -1.
          2    1    6    6  503    0 -0.89064001953E+02  0.24466363075E+03 -0.57864899582E+03  0.63452923417E+03  0.00000000000E+00 0. -1.
         -2    1    6    6    0  503 -0.18924325400E+03  0.35929066505E+03 -0.68378927330E+03  0.79528017795E+03  0.00000000000E+00 0.  1.
<mgrwt>
<rscale>  0 0.23600204E+04</rscale>
<asrwt>0</asrwt>
<pdfrwt beam="1">  1        2 0.10116446E+00 0.23600204E+04</pdfrwt>
<pdfrwt beam="2">  1       -1 0.32577432E+00 0.23600204E+04</pdfrwt>
<totfact> 0.10241776E+00</totfact>
</mgrwt>
</event>
<event>
12    6  0.1457317E-007  0.1751564E+04  0.7818608E-02  0.8732490E-01
          2   -1    0    0  501    0  0.00000000000E+00  0.00000000000E+00  0.17122120557E+04  0.17122120557E+04  0.00000000000E+00 0. -1.
         -1   -1    0    0    0  501 -0.00000000000E+00 -0.00000000000E+00 -0.44795511726E+03  0.44795511726E+03  0.00000000000E+00 0.  1.
         24    2    1    2    0    0 -0.18403481195E+03  0.14984711626E+03 -0.26824806370E+03  0.36748572399E+03  0.82254260664E+02 0.  0.
        254    2    1    2    0    0  0.18403481195E+03 -0.14984711626E+03  0.15325050022E+04  0.17926814490E+04  0.89933988328E+03 0.  0.
         23    2    4    4    0    0 -0.32652975889E+03 -0.21130701961E+03  0.78315708121E+03  0.87927389825E+03  0.92278027332E+02 0.  0.
         23    2    4    4    0    0  0.51056457084E+03  0.61459903350E+02  0.74934792096E+03  0.91340755075E+03  0.91310165860E+02 0.  0.
          2    1    3    3  502    0 -0.86265939213E+02  0.41962344542E+02 -0.59178532994E+02  0.11271534676E+03  0.00000000000E+00 0. -1.
         -3    1    3    3    0  502 -0.97768872737E+02  0.10788477172E+03 -0.20906953071E+03  0.25477037723E+03  0.00000000000E+00 0.  1.
         11    1    5    5    0    0 -0.24562435626E+03 -0.20212535027E+03  0.63484223797E+03  0.71007791736E+03  0.00000000000E+00 0. -1.
        -11    1    5    5    0    0 -0.80905402630E+02 -0.91816693395E+01  0.14831484324E+03  0.16919598089E+03  0.00000000000E+00 0.  1.
          3    1    6    6  503    0  0.51407906032E+03  0.60021721781E+02  0.73769398811E+03  0.90115054648E+03  0.00000000000E+00 0. -1.
         -3    1    6    6    0  503 -0.35144894719E+01  0.14381815690E+01  0.11653932856E+02  0.12257004262E+02  0.00000000000E+00 0.  1.
<mgrwt>
<rscale>  0 0.17515640E+04</rscale>
<asrwt>0</asrwt>
<pdfrwt beam="1">  1        2 0.26341724E+00 0.17515640E+04</pdfrwt>
<pdfrwt beam="2">  1       -1 0.68916173E-01 0.17515640E+04</pdfrwt>
<totfact> 0.22203457E+01</totfact>
</mgrwt>
</event>
<event>
12    6  0.1457317E-007  0.1831660E+04  0.7818608E-02  0.8689642E-01
          2   -1    0    0  501    0  0.00000000000E+00  0.00000000000E+00  0.67898896200E+03  0.67898896200E+03  0.00000000000E+00 0. -1.
         -1   -1    0    0    0  501 -0.00000000000E+00 -0.00000000000E+00 -0.12352839980E+04  0.12352839980E+04  0.00000000000E+00 0.  1.
         24    2    1    2    0    0  0.42131561210E+03  0.54716321314E+02  0.35213599320E+03  0.55731128166E+03  0.78072953993E+02 0.  0.
        254    2    1    2    0    0 -0.42131561210E+03 -0.54716321314E+02 -0.90843102917E+03  0.13569616783E+04  0.91411013603E+03 0.  0.
         23    2    4    4    0    0 -0.33843504043E+03  0.89370045638E+02  0.63004251251E+02  0.36707193473E+03  0.90812928280E+02 0.  0.
         23    2    4    4    0    0 -0.82880571670E+02 -0.14408636695E+03 -0.97143528042E+03  0.98988974357E+03  0.92547987951E+02 0.  0.
          2    1    3    3  502    0  0.31227635333E+03  0.58673137600E+01  0.24796710374E+03  0.39879647787E+03  0.00000000000E+00 0. -1.
         -1    1    3    3    0  502  0.10903925877E+03  0.48849007554E+02  0.10416888946E+03  0.15851480380E+03  0.00000000000E+00 0.  1.
         11    1    5    5    0    0 -0.33428796603E+03  0.99310485600E+02  0.53698381065E+02  0.35283782806E+03  0.00000000000E+00 0.  1.
        -11    1    5    5    0    0 -0.41470743994E+01 -0.99404399621E+01  0.93058701855E+01  0.14234106668E+02  0.00000000000E+00 0. -1.
          3    1    6    6  503    0  0.56838583745E+01 -0.52394040117E+02 -0.45100428663E+03  0.45407302083E+03  0.00000000000E+00 0. -1.
         -3    1    6    6    0  503 -0.88564430044E+02 -0.91692326834E+02 -0.52043099379E+03  0.53581672274E+03  0.00000000000E+00 0.  1.
<mgrwt>
<rscale>  0 0.18316596E+04</rscale>
<asrwt>0</asrwt>
<pdfrwt beam="1">  1        2 0.10445984E+00 0.18316596E+04</pdfrwt>
<pdfrwt beam="2">  1       -1 0.19004369E+00 0.18316596E+04</pdfrwt>
<totfact> 0.80835403E+00</totfact>
</mgrwt>
</event>
<event>
12    6  0.1457317E-007  0.1454642E+04  0.7818608E-02  0.8915188E-01
         -1   -1    0    0    0  501 -0.00000000000E+00  0.00000000000E+00  0.28286806755E+03  0.28286806755E+03  0.00000000000E+00 0.  1.
          2   -1    0    0  501    0  0.00000000000E+00 -0.00000000000E+00 -0.18701155756E+04  0.18701155756E+04  0.00000000000E+00 0. -1.
         24    2    1    2    0    0 -0.15512908446E+02  0.41842014115E+03 -0.68177439966E+03  0.80398190531E+03  0.79085442326E+02 0.  0.
        254    2    1    2    0    0  0.15512908446E+02 -0.41842014115E+03 -0.90547310836E+03  0.13490017378E+04  0.90807933233E+03 0.  0.
         23    2    4    4    0    0 -0.35896870654E+03  0.63646492636E+02 -0.41976759633E+03  0.56345664375E+03  0.91483037509E+02 0.  0.
         23    2    4    4    0    0  0.37448161499E+03 -0.48206663379E+03 -0.48570551202E+03  0.78554509406E+03  0.92447450030E+02 0.  0.
          4    1    3    3  502    0 -0.20431366973E+02  0.33770106390E+02 -0.43413658903E+02  0.58673730248E+02  0.00000000000E+00 0. -1.
         -3    1    3    3    0  502  0.49184585272E+01  0.38465003476E+03 -0.63836074076E+03  0.74530817506E+03  0.00000000000E+00 0.  1.
         11    1    5    5    0    0 -0.15403118685E+03  0.45437320959E+02 -0.12272154953E+03  0.20211564852E+03  0.00000000000E+00 0.  1.
        -11    1    5    5    0    0 -0.20493751969E+03  0.18209171677E+02 -0.29704604680E+03  0.36134099523E+03  0.00000000000E+00 0. -1.
          4    1    6    6  503    0  0.26314875245E+03 -0.26537805959E+03 -0.29871948367E+03  0.47844133429E+03  0.00000000000E+00 0. -1.
         -4    1    6    6    0  503  0.11133286254E+03 -0.21668857420E+03 -0.18698602835E+03  0.30710375977E+03  0.00000000000E+00 0.  1.
<mgrwt>
<rscale>  0 0.14546422E+04</rscale>
<asrwt>0</asrwt>
<pdfrwt beam="1">  1        2 0.28771009E+00 0.14546422E+04</pdfrwt>
<pdfrwt beam="2">  1       -1 0.43518165E-01 0.14546422E+04</pdfrwt>
<totfact> 0.45425298E+01</totfact>
</mgrwt>
</event>
<event>
12    6  0.1457317E-007  0.1264545E+04  0.7818608E-02  0.9058163E-01
         -1   -1    0    0    0  501 -0.00000000000E+00  0.00000000000E+00  0.24355573220E+03  0.24355573220E+03  0.00000000000E+00 0.  1.
          2   -1    0    0  501    0  0.00000000000E+00 -0.00000000000E+00 -0.16413848464E+04  0.16413848464E+04  0.00000000000E+00 0. -1.
         24    2    1    2    0    0 -0.10292553127E+03  0.11588667450E+03 -0.75256267707E+03  0.77246847205E+03  0.79583736272E+02 0.  0.
        254    2    1    2    0    0  0.10292553127E+03 -0.11588667450E+03 -0.64526643715E+03  0.11124721066E+04  0.89286170634E+03 0.  0.
         23    2    4    4    0    0 -0.21132097344E+03  0.26416655098E+03 -0.45826859352E+03  0.57692421293E+03  0.91601982425E+02 0.  0.
         23    2    4    4    0    0  0.31424650471E+03 -0.38005322548E+03 -0.18699784363E+03  0.53554789363E+03  0.93016304674E+02 0.  0.
          4    1    3    3  502    0 -0.98903836811E+02  0.11220209168E+03 -0.75228205086E+03  0.76700688547E+03  0.00000000000E+00 0. -1.
         -3    1    3    3    0  502 -0.40216944617E+01  0.36845828211E+01 -0.28062621068E+00  0.54615865807E+01  0.00000000000E+00 0.  1.
         11    1    5    5    0    0 -0.88315781746E+02  0.48459259498E+02 -0.10949789955E+03  0.14878765790E+03  0.00000000000E+00 0. -1.
        -11    1    5    5    0    0 -0.12300519169E+03  0.21570729148E+03 -0.34877069398E+03  0.42813655503E+03  0.00000000000E+00 0.  1.
          1    1    6    6  503    0  0.25032841072E+03 -0.33368635790E+03 -0.18559645643E+03  0.45657085244E+03  0.00000000000E+00 0.  1.
         -1    1    6    6    0  503  0.63918093996E+02 -0.46366867574E+02 -0.14013871918E+01  0.78977041188E+02  0.00000000000E+00 0. -1.
<mgrwt>
<rscale>  0 0.12645453E+04</rscale>
<asrwt>0</asrwt>
<pdfrwt beam="1">  1        2 0.25252075E+00 0.12645453E+04</pdfrwt>
<pdfrwt beam="2">  1       -1 0.37470112E-01 0.12645453E+04</pdfrwt>
<totfact> 0.81192375E+01</totfact>
</mgrwt>
</event>
<event>
12    6  0.1457317E-007  0.1080555E+04  0.7818608E-02  0.9224355E-01
          2   -1    0    0  501    0  0.00000000000E+00  0.00000000000E+00  0.36601485380E+04  0.36601485380E+04  0.00000000000E+00 0. -1.
         -3   -1    0    0    0  501 -0.00000000000E+00 -0.00000000000E+00 -0.79750763570E+02  0.79750763570E+02  0.00000000000E+00 0.  1.
         24    2    1    2    0    0  0.11781405499E+03 -0.65330657649E+02  0.69662019540E+03  0.71394711553E+03  0.79325536548E+02 0.  0.
        254    2    1    2    0    0 -0.11781405499E+03  0.65330657649E+02  0.28837775790E+04  0.30259521860E+04  0.90667814604E+03 0.  0.
         23    2    4    4    0    0 -0.43954497625E+02 -0.62899235608E+02  0.28455567261E+04  0.28480332338E+04  0.90619578011E+02 0.  0.
         23    2    4    4    0    0 -0.73859557367E+02  0.12822989326E+03  0.38220852954E+02  0.17791895222E+03  0.91083369616E+02 0.  0.
          4    1    3    3  502    0  0.92453188589E+02 -0.27947804512E+02  0.59431899423E+03  0.60211605090E+03  0.00000000000E+00 0. -1.
         -3    1    3    3    0  502  0.25360866403E+02 -0.37382853137E+02  0.10230120117E+03  0.11183106462E+03  0.00000000000E+00 0.  1.
         11    1    5    5    0    0 -0.14607384858E+02 -0.67025887579E+02  0.25646993990E+04  0.25656166613E+04  0.00000000000E+00 0. -1.
        -11    1    5    5    0    0 -0.29347112767E+02  0.41266519715E+01  0.28085732708E+03  0.28241657256E+03  0.00000000000E+00 0.  1.
          3    1    6    6  503    0 -0.87366071098E+02  0.13052569821E+03  0.25307318659E+02  0.15909195030E+03  0.00000000000E+00 0. -1.
         -3    1    6    6    0  503  0.13506513731E+02 -0.22958049510E+01  0.12913534295E+02  0.18827001926E+02  0.00000000000E+00 0.  1.
<mgrwt>
<rscale>  0 0.10805547E+04</rscale>
<asrwt>0</asrwt>
<pdfrwt beam="1">  1        2 0.56309964E+00 0.10805547E+04</pdfrwt>
<pdfrwt beam="2">  1       -3 0.12269351E-01 0.10805547E+04</pdfrwt>
<totfact> 0.22974487E+01</totfact>
</mgrwt>
</event>
<event>
12    6  0.1457317E-007  0.1642836E+04  0.7818608E-02  0.8794656E-01
          2   -1    0    0  501    0  0.00000000000E+00  0.00000000000E+00  0.12029096152E+04  0.12029096152E+04  0.00000000000E+00 0. -1.
         -1   -1    0    0    0  501 -0.00000000000E+00 -0.00000000000E+00 -0.56091273487E+03  0.56091273487E+03  0.00000000000E+00 0.  1.
         24    2    1    2    0    0 -0.47262209402E+02  0.47605362314E+02 -0.38387799965E+03  0.39844610127E+03  0.83048118819E+02 0.  0.
        254    2    1    2    0    0  0.47262209402E+02 -0.47605362314E+02  0.10258748800E+04  0.13653762488E+04  0.89851713645E+03 0.  0.
         23    2    4    4    0    0 -0.41021677367E+03 -0.65969204493E+02  0.58561078723E+03  0.72341295136E+03  0.88071372949E+02 0.  0.
         23    2    4    4    0    0  0.45747898307E+03  0.18363842180E+02  0.44026409277E+03  0.64196329747E+03  0.93059944478E+02 0.  0.
          2    1    3    3  502    0 -0.20685808099E+02 -0.22258070189E+02 -0.14486872189E+03  0.14802118405E+03  0.00000000000E+00 0. -1.
         -1    1    3    3    0  502 -0.26576401303E+02  0.69863432502E+02 -0.23900927776E+03  0.25042491721E+03  0.00000000000E+00 0.  1.
         11    1    5    5    0    0 -0.33042973765E+03 -0.85787342763E+02  0.45018240808E+03  0.56498449558E+03  0.00000000000E+00 0. -1.
        -11    1    5    5    0    0 -0.79787036023E+02  0.19818138270E+02  0.13542837915E+03  0.15842845578E+03  0.00000000000E+00 0.  1.
          3    1    6    6  503    0  0.27304172524E+03  0.10306189278E+02  0.32381826965E+03  0.42369360748E+03  0.00000000000E+00 0. -1.
         -3    1    6    6    0  503  0.18443725783E+03  0.80576529013E+01  0.11644582311E+03  0.21826968999E+03  0.00000000000E+00 0.  1.
<mgrwt>
<rscale>  0 0.16428357E+04</rscale>
<asrwt>0</asrwt>
<pdfrwt beam="1">  1        2 0.18506302E+00 0.16428357E+04</pdfrwt>
<pdfrwt beam="2">  1       -1 0.86294267E-01 0.16428357E+04</pdfrwt>
<totfact> 0.27241006E+01</totfact>
</mgrwt>
</event>
<event>
12    6  0.1457317E-007  0.1406484E+04  0.7818608E-02  0.8949138E-01
          2   -1    0    0  501    0  0.00000000000E+00  0.00000000000E+00  0.11881417998E+04  0.11881417998E+04  0.00000000000E+00 0. -1.
         -1   -1    0    0    0  501 -0.00000000000E+00 -0.00000000000E+00 -0.41623783037E+03  0.41623783037E+03  0.00000000000E+00 0.  1.
         24    2    1    2    0    0  0.40618775056E+03 -0.50104813786E+02  0.21594780261E+03  0.46958384004E+03  0.79853292403E+02 0.  0.
        254    2    1    2    0    0 -0.40618775056E+03  0.50104813786E+02  0.55595616685E+03  0.11347957901E+04  0.90065267712E+03 0.  0.
         23    2    4    4    0    0 -0.25907482186E+03  0.14510943272E+03  0.77917858466E+03  0.83887495915E+03  0.91735595618E+02 0.  0.
         23    2    4    4    0    0 -0.14711292870E+03 -0.95004618933E+02 -0.22322241781E+03  0.29592083100E+03  0.84099934582E+02 0.  0.
          2    1    3    3  502    0  0.63095409088E+02 -0.36181248959E+01  0.68693353032E+02  0.93342906675E+02  0.00000000000E+00 0. -1.
         -1    1    3    3    0  502  0.34309234147E+03 -0.46486688890E+02  0.14725444957E+03  0.37624093337E+03  0.00000000000E+00 0.  1.
         11    1    5    5    0    0 -0.20613818761E+03  0.14441475786E+03  0.69767385339E+03  0.74168549964E+03  0.00000000000E+00 0. -1.
        -11    1    5    5    0    0 -0.52936634253E+02  0.69467486077E+00  0.81504731279E+02  0.97189459511E+02  0.00000000000E+00 0.  1.
          1    1    6    6  503    0 -0.49377925325E+02 -0.70735059754E+02 -0.14370139996E+03  0.16760584876E+03  0.00000000000E+00 0. -1.
         -1    1    6    6    0  503 -0.97735003371E+02 -0.24269559178E+02 -0.79521017851E+02  0.12831498224E+03  0.00000000000E+00 0.  1.
<mgrwt>
<rscale>  0 0.14064844E+04</rscale>
<asrwt>0</asrwt>
<pdfrwt beam="1">  1        2 0.18279104E+00 0.14064844E+04</pdfrwt>
<pdfrwt beam="2">  1       -1 0.64036590E-01 0.14064844E+04</pdfrwt>
<totfact> 0.52819853E+01</totfact>
</mgrwt>
</event>
<event>
12    6  0.1457317E-007  0.1944122E+04  0.7818608E-02  0.8633201E-01
          2   -1    0    0  501    0  0.00000000000E+00  0.00000000000E+00  0.45384287817E+03  0.45384287817E+03  0.00000000000E+00 0. -1.
         -1   -1    0    0    0  501 -0.00000000000E+00 -0.00000000000E+00 -0.20820031887E+04  0.20820031887E+04  0.00000000000E+00 0.  1.
         24    2    1    2    0    0 -0.14879027922E+03  0.27123868605E+03 -0.15531958057E+04  0.15854669147E+04  0.74693739371E+02 0.  0.
        254    2    1    2    0    0  0.14879027922E+03 -0.27123868605E+03 -0.74964504787E+02  0.95037915215E+03  0.89548416171E+03 0.  0.
         23    2    4    4    0    0 -0.35869229657E+03 -0.21405811549E+03 -0.32938076696E+02  0.42860421354E+03  0.90197641567E+02 0.  0.
         23    2    4    4    0    0  0.50748257579E+03 -0.57180570562E+02 -0.42026428091E+02  0.52177493861E+03  0.98359969102E+02 0.  0.
          4    1    3    3  502    0 -0.84069473361E+02  0.13479925010E+03 -0.97592120359E+03  0.98876726776E+03  0.00000000000E+00 0. -1.
         -3    1    3    3    0  502 -0.64720805856E+02  0.13643943594E+03 -0.57727460212E+03  0.59669964693E+03  0.00000000000E+00 0.  1.
         11    1    5    5    0    0 -0.24885300007E+03 -0.18669011214E+03 -0.14161212722E+01  0.31109969305E+03  0.00000000000E+00 0. -1.
        -11    1    5    5    0    0 -0.10983929650E+03 -0.27368003348E+02 -0.31521955424E+02  0.11750452049E+03  0.00000000000E+00 0.  1.
          3    1    6    6  503    0  0.46453828431E+03 -0.22994180758E+02 -0.34727598132E+02  0.46640171099E+03  0.00000000000E+00 0. -1.
         -3    1    6    6    0  503  0.42944291479E+02 -0.34186389805E+02 -0.72988299588E+01  0.55373227622E+02  0.00000000000E+00 0.  1.
<mgrwt>
<rscale>  0 0.19441217E+04</rscale>
<asrwt>0</asrwt>
<pdfrwt beam="1">  1        2 0.69821982E-01 0.19441217E+04</pdfrwt>
<pdfrwt beam="2">  1       -1 0.32030818E+00 0.19441217E+04</pdfrwt>
<totfact> 0.17916008E+00</totfact>
</mgrwt>
</event>
<event>
12    6  0.1457317E-007  0.1713184E+04  0.7818608E-02  0.8753880E-01
         -1   -1    0    0    0  501 -0.00000000000E+00  0.00000000000E+00  0.41877530783E+03  0.41877530783E+03  0.00000000000E+00 0.  1.
          2   -1    0    0  501    0  0.00000000000E+00 -0.00000000000E+00 -0.17521330988E+04  0.17521330988E+04  0.00000000000E+00 0. -1.
         24    2    1    2    0    0 -0.18773256900E+03  0.21978591838E+03 -0.11665514935E+04  0.12044804340E+04  0.79883424110E+02 0.  0.
        254    2    1    2    0    0  0.18773256900E+03 -0.21978591838E+03 -0.16680629752E+03  0.96642797271E+03  0.90697812441E+03 0.  0.
         23    2    4    4    0    0  0.25193372677E+03 -0.44809993648E+03  0.16578970222E+03  0.54775034052E+03  0.90994804313E+02 0.  0.
         23    2    4    4    0    0 -0.64201157775E+02  0.22831401810E+03 -0.33259599975E+03  0.41867763219E+03  0.91770262757E+02 0.  0.
          4    1    3    3  502    0 -0.12050853793E+03  0.15745887331E+03 -0.92742638331E+03  0.94838562882E+03  0.00000000000E+00 0. -1.
         -3    1    3    3    0  502 -0.67224031064E+02  0.62327045063E+02 -0.23912511019E+03  0.25609480514E+03  0.00000000000E+00 0.  1.
         11    1    5    5    0    0  0.10429403126E+02 -0.37143174528E+02  0.38227638507E+02  0.54311510837E+02  0.00000000000E+00 0.  1.
        -11    1    5    5    0    0  0.24150432365E+03 -0.41095676195E+03  0.12756206372E+03  0.49343882968E+03  0.00000000000E+00 0. -1.
          1    1    6    6  503    0 -0.20560620779E+02  0.13624687752E+03 -0.11914990316E+03  0.18216105562E+03  0.00000000000E+00 0. -1.
         -1    1    6    6    0  503 -0.43640536996E+02  0.92067140578E+02 -0.21344609659E+03  0.23651657657E+03  0.00000000000E+00 0.  1.
<mgrwt>
<rscale>  0 0.17131843E+04</rscale>
<asrwt>0</asrwt>
<pdfrwt beam="1">  1        2 0.26955894E+00 0.17131843E+04</pdfrwt>
<pdfrwt beam="2">  1       -1 0.64426969E-01 0.17131843E+04</pdfrwt>
<totfact> 0.24264992E+01</totfact>
</mgrwt>
</event>
<event>
12    6  0.1457317E-007  0.1920258E+04  0.7818608E-02  0.8644838E-01
         -1   -1    0    0    0  501 -0.00000000000E+00  0.00000000000E+00  0.28810719311E+03  0.28810719311E+03  0.00000000000E+00 0.  1.
          2   -1    0    0  501    0  0.00000000000E+00 -0.00000000000E+00 -0.31996691174E+04  0.31996691174E+04  0.00000000000E+00 0. -1.
         24    2    1    2    0    0 -0.47887977960E+03  0.19698362569E+03 -0.17590795594E+03  0.55271998730E+03  0.80170962907E+02 0.  0.
        254    2    1    2    0    0  0.47887977960E+03 -0.19698362569E+03 -0.27356539684E+04  0.29350563232E+04  0.92877585763E+03 0.  0.
         23    2    4    4    0    0 -0.23278370601E+03  0.32433388071E+02 -0.33746257795E+03  0.42139388982E+03  0.91932803852E+02 0.  0.
         23    2    4    4    0    0  0.71166348561E+03 -0.22941701376E+03 -0.23981913904E+04  0.25136624334E+04  0.89887713341E+02 0.  0.
          2    1    3    3  502    0 -0.80616948091E+02  0.79084548445E+01 -0.97790573074E+01  0.81592070322E+02  0.00000000000E+00 0. -1.
         -3    1    3    3    0  502 -0.39826283151E+03  0.18907517084E+03 -0.16612889863E+03  0.47112791697E+03  0.00000000000E+00 0.  1.
         11    1    5    5    0    0 -0.10363742973E+02  0.26408699000E+02 -0.54373812426E+02  0.61329748320E+02  0.00000000000E+00 0.  1.
        -11    1    5    5    0    0 -0.22241996303E+03  0.60246890710E+01 -0.28308876552E+03  0.36006414150E+03  0.00000000000E+00 0. -1.
          3    1    6    6  503    0  0.35675416974E+03 -0.15752731312E+03 -0.11784047662E+04  0.12412599184E+04  0.00000000000E+00 0. -1.
         -3    1    6    6    0  503  0.35490931587E+03 -0.71889700634E+02 -0.12197866243E+04  0.12724025150E+04  0.00000000000E+00 0.  1.
<mgrwt>
<rscale>  0 0.19202580E+04</rscale>
<asrwt>0</asrwt>
<pdfrwt beam="1">  1        2 0.49225679E+00 0.19202580E+04</pdfrwt>
<pdfrwt beam="2">  1       -1 0.44324183E-01 0.19202580E+04</pdfrwt>
<totfact> 0.69861193E+00</totfact>
</mgrwt>
</event>
<event>
12    6  0.1457317E-007  0.1529662E+04  0.7818608E-02  0.8864964E-01
         -3   -1    0    0    0  501 -0.00000000000E+00  0.00000000000E+00  0.42356415424E+03  0.42356415424E+03  0.00000000000E+00 0.  1.
          2   -1    0    0  501    0  0.00000000000E+00 -0.00000000000E+00 -0.13810574524E+04  0.13810574524E+04  0.00000000000E+00 0. -1.
         24    2    1    2    0    0  0.26521750516E+03  0.24077536294E+03  0.89018301261E+02  0.37769095334E+03  0.80081819619E+02 0.  0.
        254    2    1    2    0    0 -0.26521750516E+03 -0.24077536294E+03 -0.10465115995E+04  0.14269306534E+04  0.90146073749E+03 0.  0.
         23    2    4    4    0    0  0.10910306582E+03 -0.47877136196E+02 -0.97883899486E+03  0.99061857923E+03  0.94887789075E+02 0.  0.
         23    2    4    4    0    0 -0.37432057098E+03 -0.19289822674E+03 -0.67672604603E+02  0.43631207412E+03  0.91994721974E+02 0.  0.
          4    1    3    3  502    0  0.12101174708E+03  0.93673222066E+02 -0.63172059816E+00  0.15303239701E+03  0.00000000000E+00 0. -1.
         -3    1    3    3    0  502  0.14420575808E+03  0.14710214087E+03  0.89650021859E+02  0.22465855633E+03  0.00000000000E+00 0.  1.
         11    1    5    5    0    0  0.10463162841E+02 -0.50114757352E+02 -0.42346594795E+03  0.42654938255E+03  0.00000000000E+00 0. -1.
        -11    1    5    5    0    0  0.98639902983E+02  0.22376211569E+01 -0.55537304691E+03  0.56406919668E+03  0.00000000000E+00 0.  1.
          3    1    6    6  503    0 -0.64676734537E+02 -0.71274662806E+02 -0.33408525811E+02  0.10187878653E+03  0.00000000000E+00 0. -1.
         -3    1    6    6    0  503 -0.30964383645E+03 -0.12162356394E+03 -0.34264078791E+02  0.33443328759E+03  0.00000000000E+00 0.  1.
<mgrwt>
<rscale>  0 0.15296620E+04</rscale>
<asrwt>0</asrwt>
<pdfrwt beam="1">  1        2 0.21247038E+00 0.15296620E+04</pdfrwt>
<pdfrwt beam="2">  1       -3 0.65163716E-01 0.15296620E+04</pdfrwt>
<totfact> 0.20792058E+01</totfact>
</mgrwt>
</event>
<event>
12    6  0.1457317E-007  0.1691041E+04  0.7818608E-02  0.8766491E-01
          2   -1    0    0  501    0  0.00000000000E+00  0.00000000000E+00  0.62237737646E+03  0.62237737646E+03  0.00000000000E+00 0. -1.
         -1   -1    0    0    0  501 -0.00000000000E+00 -0.00000000000E+00 -0.11486673410E+04  0.11486673410E+04  0.00000000000E+00 0.  1.
         24    2    1    2    0    0  0.58508848035E+03 -0.11788826312E+02 -0.22667493980E+03  0.63256696494E+03  0.79321690180E+02 0.  0.
        254    2    1    2    0    0 -0.58508848035E+03  0.11788826312E+02 -0.29961502473E+03  0.11384777525E+04  0.92945947930E+03 0.  0.
         23    2    4    4    0    0  0.74537081464E+02 -0.32325391109E+03 -0.28940855994E+02  0.34529533630E+03  0.91336896015E+02 0.  0.
         23    2    4    4    0    0 -0.65962556182E+03  0.33504273740E+03 -0.27067416874E+03  0.79318241622E+03  0.92273084291E+02 0.  0.
          4    1    3    3  502    0  0.17305732091E+01  0.62674273972E+01 -0.51811372901E+01  0.83138266418E+01  0.00000000000E+00 0. -1.
         -3    1    3    3    0  502  0.58335790715E+03 -0.18056253709E+02 -0.22149380251E+03  0.62425313830E+03  0.00000000000E+00 0.  1.
         11    1    5    5    0    0  0.86696718445E+02 -0.26640765789E+03 -0.47742250487E+02  0.28419831747E+03  0.00000000000E+00 0. -1.
        -11    1    5    5    0    0 -0.12159636981E+02 -0.56846253198E+02  0.18801394493E+02  0.61097018823E+02  0.00000000000E+00 0.  1.
          4    1    6    6  503    0 -0.61814117371E+03  0.32708215912E+03 -0.27332500427E+03  0.75085804744E+03  0.00000000000E+00 0. -1.
         -4    1    6    6    0  503 -0.41484388110E+02  0.79605782821E+01  0.26508355274E+01  0.42324368778E+02  0.00000000000E+00 0.  1.
<mgrwt>
<rscale>  0 0.16910406E+04</rscale>
<asrwt>0</asrwt>
<pdfrwt beam="1">  1        2 0.95750367E-01 0.16910406E+04</pdfrwt>
<pdfrwt beam="2">  1       -1 0.17671805E+00 0.16910406E+04</pdfrwt>
<totfact> 0.11338260E+01</totfact>
</mgrwt>
</event>
<event>
12    6  0.1457317E-007  0.1376533E+04  0.7818608E-02  0.8970982E-01
         -1   -1    0    0    0  501 -0.00000000000E+00  0.00000000000E+00  0.25188768364E+03  0.25188768364E+03  0.00000000000E+00 0.  1.
          2   -1    0    0  501    0  0.00000000000E+00 -0.00000000000E+00 -0.18806433530E+04  0.18806433530E+04  0.00000000000E+00 0. -1.
         24    2    1    2    0    0 -0.96434457110E+02 -0.16696409700E+03  0.47486499456E+02  0.21416323264E+03  0.80214140752E+02 0.  0.
        254    2    1    2    0    0  0.96434457110E+02  0.16696409700E+03 -0.16762421688E+04  0.19183678040E+04  0.91278179690E+03 0.  0.
         23    2    4    4    0    0 -0.38066423594E+02  0.25225243287E+02 -0.17027087523E+04  0.17058603040E+04  0.93042551391E+02 0.  0.
         23    2    4    4    0    0  0.13450088070E+03  0.14173885371E+03  0.26466583438E+02  0.21250749998E+03  0.79237415062E+02 0.  0.
          4    1    3    3  502    0 -0.37793958352E+02 -0.55310241658E+02 -0.21572181094E+02  0.70377305414E+02  0.00000000000E+00 0. -1.
         -3    1    3    3    0  502 -0.58640498758E+02 -0.11165385534E+03  0.69058680550E+02  0.14378592722E+03  0.00000000000E+00 0.  1.
         11    1    5    5    0    0 -0.64651306003E+02  0.36214170014E+02 -0.13146167507E+04  0.13167036335E+04  0.00000000000E+00 0. -1.
        -11    1    5    5    0    0  0.26584882409E+02 -0.10988926727E+02 -0.38809200160E+03  0.38915667050E+03  0.00000000000E+00 0.  1.
          3    1    6    6  503    0  0.10099773516E+03  0.10302450432E+03  0.54396106742E+02  0.15418666423E+03  0.00000000000E+00 0. -1.
         -3    1    6    6    0  503  0.33503145546E+02  0.38714349399E+02 -0.27929523304E+02  0.58320835753E+02  0.00000000000E+00 0.  1.
<mgrwt>
<rscale>  0 0.13765332E+04</rscale>
<asrwt>0</asrwt>
<pdfrwt beam="1">  1        2 0.28932975E+00 0.13765332E+04</pdfrwt>
<pdfrwt beam="2">  1       -1 0.38751951E-01 0.13765332E+04</pdfrwt>
<totfact> 0.55811982E+01</totfact>
</mgrwt>
</event>
<event>
12    6  0.1457317E-007  0.3245739E+04  0.7818608E-02  0.8176841E-01
          2   -1    0    0  501    0  0.00000000000E+00  0.00000000000E+00  0.20941035797E+04  0.20941035797E+04  0.00000000000E+00 0. -1.
         -1   -1    0    0    0  501 -0.00000000000E+00 -0.00000000000E+00 -0.12576770876E+04  0.12576770876E+04  0.00000000000E+00 0.  1.
         24    2    1    2    0    0 -0.48524297196E+03  0.12386575246E+04  0.10965890219E+04  0.17259376900E+04  0.81364744799E+02 0.  0.
        254    2    1    2    0    0  0.48524297196E+03 -0.12386575246E+04 -0.26016252982E+03  0.16258429773E+04  0.89774586597E+03 0.  0.
         23    2    4    4    0    0 -0.20223037310E+03 -0.29061954511E+03  0.13102067678E+03  0.38776500452E+03  0.88534948919E+02 0.  0.
         23    2    4    4    0    0  0.68747334506E+03 -0.94803797946E+03 -0.39118320660E+03  0.12380779728E+04  0.91745053659E+02 0.  0.
          2    1    3    3  502    0 -0.44065157737E+03  0.10477715376E+04  0.92727851765E+03  0.14669166496E+04  0.00000000000E+00 0. -1.
         -1    1    3    3    0  502 -0.44591394587E+02  0.19088598696E+03  0.16931050428E+03  0.25902104036E+03  0.00000000000E+00 0.  1.
         11    1    5    5    0    0 -0.16062190482E+03 -0.26744604970E+03  0.13509044674E+03  0.33996501968E+03  0.00000000000E+00 0. -1.
        -11    1    5    5    0    0 -0.41608468282E+02 -0.23173495410E+02 -0.40697699686E+01  0.47799984831E+02  0.00000000000E+00 0.  1.
          4    1    6    6  503    0  0.17333928125E+03 -0.22091062331E+03 -0.13412289475E+03  0.31118637632E+03  0.00000000000E+00 0. -1.
         -4    1    6    6    0  503  0.51413406382E+03 -0.72712735615E+03 -0.25706031185E+03  0.92689159645E+03  0.00000000000E+00 0.  1.
<mgrwt>
<rscale>  0 0.32457394E+04</rscale>
<asrwt>0</asrwt>
<pdfrwt beam="1">  1        2 0.32216978E+00 0.32457394E+04</pdfrwt>
<pdfrwt beam="2">  1       -1 0.19348878E+00 0.32457394E+04</pdfrwt>
<totfact> 0.94344886E-01</totfact>
</mgrwt>
</event>
<event>
12    6  0.1457317E-007  0.1595091E+04  0.7818608E-02  0.8823569E-01
         -1   -1    0    0    0  501 -0.00000000000E+00  0.00000000000E+00  0.32841879559E+03  0.32841879559E+03  0.00000000000E+00 0.  1.
          2   -1    0    0  501    0  0.00000000000E+00 -0.00000000000E+00 -0.19367919091E+04  0.19367919091E+04  0.00000000000E+00 0. -1.
         24    2    1    2    0    0 -0.96978168838E+02 -0.35485857552E+02 -0.13481754895E+04  0.13544096761E+04  0.78641013089E+02 0.  0.
        254    2    1    2    0    0  0.96978168838E+02  0.35485857552E+02 -0.26019762399E+03  0.91080102856E+03  0.86671315830E+03 0.  0.
         23    2    4    4    0    0  0.31598793255E+03 -0.15957111815E+03  0.15424518937E+03  0.39587889032E+03  0.87276583891E+02 0.  0.
         23    2    4    4    0    0 -0.21900976371E+03  0.19505697570E+03 -0.41444281336E+03  0.51492213824E+03  0.85845573729E+02 0.  0.
          4    1    3    3  502    0 -0.27747885459E+02 -0.51641629129E+02 -0.63404467365E+03  0.63674912735E+03  0.00000000000E+00 0. -1.
         -3    1    3    3    0  502 -0.69230283379E+02  0.16155771577E+02 -0.71413081585E+03  0.71766054875E+03  0.00000000000E+00 0.  1.
         11    1    5    5    0    0  0.46629365660E+02 -0.27662334654E+02 -0.81281606524E+01  0.54823074485E+02  0.00000000000E+00 0.  1.
        -11    1    5    5    0    0  0.26935856689E+03 -0.13190878349E+03  0.16237335002E+03  0.34105581584E+03  0.00000000000E+00 0. -1.
          4    1    6    6  503    0 -0.21396382850E+03  0.20173850114E+03 -0.41202903164E+03  0.50620832240E+03  0.00000000000E+00 0. -1.
         -4    1    6    6    0  503 -0.50459352123E+01 -0.66815254356E+01 -0.24137817183E+01  0.87138158402E+01  0.00000000000E+00 0.  1.
<mgrwt>
<rscale>  0 0.15950911E+04</rscale>
<asrwt>0</asrwt>
<pdfrwt beam="1">  1        2 0.29796799E+00 0.15950911E+04</pdfrwt>
<pdfrwt beam="2">  1       -1 0.50525968E-01 0.15950911E+04</pdfrwt>
<totfact> 0.31149379E+01</totfact>
</mgrwt>
</event>
<event>
12    6  0.1457317E-007  0.1902071E+04  0.7818608E-02  0.8653826E-01
         -1   -1    0    0    0  501 -0.00000000000E+00  0.00000000000E+00  0.35614903476E+03  0.35614903476E+03  0.00000000000E+00 0.  1.
          2   -1    0    0  501    0  0.00000000000E+00 -0.00000000000E+00 -0.25395789884E+04  0.25395789884E+04  0.00000000000E+00 0. -1.
         24    2    1    2    0    0  0.19396676966E+03  0.66314512970E+03 -0.48008371282E+03  0.84517248913E+03  0.80321817006E+02 0.  0.
        254    2    1    2    0    0 -0.19396676966E+03 -0.66314512970E+03 -0.17033462408E+04  0.20505555340E+04  0.90884817829E+03 0.  0.
         23    2    4    4    0    0 -0.37087190589E+03 -0.25043088415E+03 -0.14611878883E+04  0.15308518140E+04  0.90419207469E+02 0.  0.
         23    2    4    4    0    0  0.17690513622E+03 -0.41271424555E+03 -0.24215835248E+03  0.51970372001E+03  0.99110106542E+02 0.  0.
          2    1    3    3  502    0  0.62953926411E+02  0.13916321895E+03 -0.13795668368E+03  0.20581944741E+03  0.00000000000E+00 0. -1.
         -1    1    3    3    0  502  0.13101284325E+03  0.52398191075E+03 -0.34212702913E+03  0.63935304172E+03  0.00000000000E+00 0.  1.
         11    1    5    5    0    0 -0.13141136354E+03 -0.11714947225E+03 -0.45077877668E+03  0.48393641196E+03  0.00000000000E+00 0.  1.
        -11    1    5    5    0    0 -0.23946054235E+03 -0.13328141190E+03 -0.10104091117E+04  0.10469154020E+04  0.00000000000E+00 0. -1.
          3    1    6    6  503    0  0.34312736524E+02 -0.20494625210E+03 -0.10573680247E+03  0.23315360073E+03  0.00000000000E+00 0. -1.
         -3    1    6    6    0  503  0.14259239970E+03 -0.20776799346E+03 -0.13642155001E+03  0.28655011929E+03  0.00000000000E+00 0.  1.
<mgrwt>
<rscale>  0 0.19020711E+04</rscale>
<asrwt>0</asrwt>
<pdfrwt beam="1">  1        2 0.39070447E+00 0.19020711E+04</pdfrwt>
<pdfrwt beam="2">  1       -1 0.54792158E-01 0.19020711E+04</pdfrwt>
<totfact> 0.11857059E+01</totfact>
</mgrwt>
</event>
<event>
12    6  0.1457317E-007  0.1361722E+04  0.7818608E-02  0.8982002E-01
          2   -1    0    0  501    0  0.00000000000E+00  0.00000000000E+00  0.23332078366E+03  0.23332078366E+03  0.00000000000E+00 0. -1.
         -1   -1    0    0    0  501 -0.00000000000E+00 -0.00000000000E+00 -0.19868414181E+04  0.19868414181E+04  0.00000000000E+00 0.  1.
         24    2    1    2    0    0  0.32490211731E+03 -0.14305484819E+03 -0.93937150582E+03  0.10071562429E+04  0.76933712691E+02 0.  0.
        254    2    1    2    0    0 -0.32490211731E+03  0.14305484819E+03 -0.81414912860E+03  0.12130059589E+04  0.82614682547E+03 0.  0.
         23    2    4    4    0    0 -0.55562717494E+03  0.40357398203E+02 -0.74540469576E+03  0.93513300004E+03  0.92169898436E+02 0.  0.
         23    2    4    4    0    0  0.23072505763E+03  0.10269744999E+03 -0.68744432836E+02  0.27787295883E+03  0.93310051728E+02 0.  0.
          2    1    3    3  502    0  0.11135964187E+03 -0.19061148731E+02 -0.36132710971E+03  0.37857836368E+03  0.00000000000E+00 0. -1.
         -1    1    3    3    0  502  0.21354247544E+03 -0.12399369946E+03 -0.57804439610E+03  0.62857787918E+03  0.00000000000E+00 0.  1.
         11    1    5    5    0    0 -0.21433539491E+03 -0.28231767622E+02 -0.26940993224E+03  0.34542496407E+03  0.00000000000E+00 0. -1.
        -11    1    5    5    0    0 -0.34129178003E+03  0.68589165825E+02 -0.47599476353E+03  0.58970803597E+03  0.00000000000E+00 0.  1.
          3    1    6    6  503    0  0.10003904525E+03  0.81720004951E+02 -0.66969384037E+02  0.14550212432E+03  0.00000000000E+00 0. -1.
         -3    1    6    6    0  503  0.13068601237E+03  0.20977445038E+02 -0.17750487989E+01  0.13237083451E+03  0.00000000000E+00 0.  1.
<mgrwt>
<rscale>  0 0.13617216E+04</rscale>
<asrwt>0</asrwt>
<pdfrwt beam="1">  1        2 0.35895504E-01 0.13617216E+04</pdfrwt>
<pdfrwt beam="2">  1       -1 0.30566792E+00 0.13617216E+04</pdfrwt>
<totfact> 0.49581655E+00</totfact>
</mgrwt>
</event>
<event>
12    6  0.1457317E-007  0.3764702E+04  0.7818608E-02  0.8053772E-01
         -1   -1    0    0    0  501 -0.00000000000E+00  0.00000000000E+00  0.32725115857E+04  0.32725115857E+04  0.00000000000E+00 0.  1.
          2   -1    0    0  501    0  0.00000000000E+00 -0.00000000000E+00 -0.10827296304E+04  0.10827296304E+04  0.00000000000E+00 0. -1.
         24    2    1    2    0    0 -0.73940288943E+03  0.92913272039E+03 -0.49349246092E+03  0.12883661918E+04  0.79676786286E+02 0.  0.
        254    2    1    2    0    0  0.73940288943E+03 -0.92913272039E+03  0.26832744163E+04  0.30668750242E+04  0.89205189097E+03 0.  0.
         23    2    4    4    0    0  0.76997858387E+01 -0.70883181153E+03  0.13308653087E+04  0.15106705918E+04  0.91767876912E+02 0.  0.
         23    2    4    4    0    0  0.73170310359E+03 -0.22030090886E+03  0.13524091076E+04  0.15562044325E+04  0.94020843692E+02 0.  0.
          4    1    3    3  502    0 -0.50339358981E+03  0.69011751404E+03 -0.35356842579E+03  0.92448792375E+03  0.00000000000E+00 0. -1.
         -3    1    3    3    0  502 -0.23600929962E+03  0.23901520635E+03 -0.13992403513E+03  0.36387826808E+03  0.00000000000E+00 0.  1.
         11    1    5    5    0    0 -0.24048478925E+02 -0.61901758700E+03  0.11477361225E+04  0.13042466444E+04  0.00000000000E+00 0.  1.
        -11    1    5    5    0    0  0.31748264764E+02 -0.89814224534E+02  0.18312918616E+03  0.20642394742E+03  0.00000000000E+00 0. -1.
          2    1    6    6  503    0  0.36573623185E+03 -0.14258525445E+03  0.76355035655E+03  0.85854684966E+03  0.00000000000E+00 0.  1.
         -2    1    6    6    0  503  0.36596687175E+03 -0.77715654409E+02  0.58885875104E+03  0.69765758279E+03  0.00000000000E+00 0. -1.
<mgrwt>
<rscale>  0 0.37647020E+04</rscale>
<asrwt>0</asrwt>
<pdfrwt beam="1">  1        2 0.16657379E+00 0.37647020E+04</pdfrwt>
<pdfrwt beam="2">  1       -1 0.50346332E+00 0.37647020E+04</pdfrwt>
<totfact> 0.28968960E-02</totfact>
</mgrwt>
</event>
<event>
12    6  0.1457317E-007  0.1564672E+04  0.7818608E-02  0.8842550E-01
          2   -1    0    0  501    0  0.00000000000E+00  0.00000000000E+00  0.10703856843E+04  0.10703856843E+04  0.00000000000E+00 0. -1.
         -1   -1    0    0    0  501 -0.00000000000E+00 -0.00000000000E+00 -0.57180267380E+03  0.57180267380E+03  0.00000000000E+00 0.  1.
         24    2    1    2    0    0 -0.27560773402E+03  0.26539728519E+03 -0.19102498706E+03  0.43508347082E+03  0.80073334271E+02 0.  0.
        254    2    1    2    0    0  0.27560773402E+03 -0.26539728519E+03  0.68960799751E+03  0.12071048872E+04  0.91386414555E+03 0.  0.
         23    2    4    4    0    0  0.23081173683E+03  0.55205191104E+02  0.81062107203E+03  0.84945440945E+03  0.90247439501E+02 0.  0.
         23    2    4    4    0    0  0.44795997190E+02 -0.32060247629E+03 -0.12101307451E+03  0.35765047779E+03  0.92071010031E+02 0.  0.
          4    1    3    3  502    0 -0.31164762476E+02  0.92030648077E+01 -0.36108460125E+02  0.48577358045E+02  0.00000000000E+00 0. -1.
         -3    1    3    3    0  502 -0.24444297155E+03  0.25619422038E+03 -0.15491652693E+03  0.38650611278E+03  0.00000000000E+00 0.  1.
         11    1    5    5    0    0  0.47161475920E+02  0.41999962425E+02  0.13248924582E+03  0.14677057577E+03  0.00000000000E+00 0. -1.
        -11    1    5    5    0    0  0.18365026091E+03  0.13205228679E+02  0.67813182621E+03  0.70268383368E+03  0.00000000000E+00 0.  1.
          2    1    6    6  503    0  0.19274779779E+01 -0.13619492980E+03 -0.64481087601E+01  0.13636110949E+03  0.00000000000E+00 0. -1.
         -2    1    6    6    0  503  0.42868519213E+02 -0.18440754649E+03 -0.11456496575E+03  0.22128936830E+03  0.00000000000E+00 0.  1.
<mgrwt>
<rscale>  0 0.15646717E+04</rscale>
<asrwt>0</asrwt>
<pdfrwt beam="1">  1        2 0.16467472E+00 0.15646717E+04</pdfrwt>
<pdfrwt beam="2">  1       -1 0.87969642E-01 0.15646717E+04</pdfrwt>
<totfact> 0.31670698E+01</totfact>
</mgrwt>
</event>
<event>
12    6  0.1457317E-007  0.1512384E+04  0.7818608E-02  0.8876259E-01
         -1   -1    0    0    0  501 -0.00000000000E+00  0.00000000000E+00  0.67167874867E+03  0.67167874867E+03  0.00000000000E+00 0.  1.
          2   -1    0    0  501    0  0.00000000000E+00 -0.00000000000E+00 -0.85133900450E+03  0.85133900450E+03  0.00000000000E+00 0. -1.
         24    2    1    2    0    0 -0.43442643663E+03  0.19175964484E+03  0.30867947193E+02  0.48266765693E+03  0.80728846446E+02 0.  0.
        254    2    1    2    0    0  0.43442643663E+03 -0.19175964484E+03 -0.21052820302E+03  0.10403500962E+04  0.90139231649E+03 0.  0.
         23    2    4    4    0    0  0.36309246502E+03 -0.26595111031E+03 -0.52497863865E+03  0.69761026512E+03  0.92148682730E+02 0.  0.
         23    2    4    4    0    0  0.71333971615E+02  0.74191465476E+02  0.31445043563E+03  0.34273983112E+03  0.89434927807E+02 0.  0.
          2    1    3    3  502    0 -0.34663577716E+03  0.15429811147E+03 -0.82439690372E+01  0.37951578654E+03  0.00000000000E+00 0. -1.
         -1    1    3    3    0  502 -0.87790659474E+02  0.37461533362E+02  0.39111916230E+02  0.10315187039E+03  0.00000000000E+00 0.  1.
         11    1    5    5    0    0  0.30655137320E+03 -0.24130642632E+03 -0.40287416082E+03  0.56081202310E+03  0.00000000000E+00 0. -1.
        -11    1    5    5    0    0  0.56541091811E+02 -0.24644683991E+02 -0.12210447783E+03  0.13679824202E+03  0.00000000000E+00 0.  1.
          3    1    6    6  503    0  0.67738214975E+02  0.84578301537E+02  0.31350956852E+03  0.33170801077E+03  0.00000000000E+00 0. -1.
         -3    1    6    6    0  503  0.35957566402E+01 -0.10386836061E+02  0.94086710959E+00  0.11031820344E+02  0.00000000000E+00 0.  1.
<mgrwt>
<rscale>  0 0.15123840E+04</rscale>
<asrwt>0</asrwt>
<pdfrwt beam="1">  1        2 0.13097523E+00 0.15123840E+04</pdfrwt>
<pdfrwt beam="2">  1       -1 0.10333519E+00 0.15123840E+04</pdfrwt>
<totfact> 0.30845636E+01</totfact>
</mgrwt>
</event>
<event>
12    6  0.1457317E-007  0.1452501E+04  0.7818608E-02  0.8916668E-01
         -1   -1    0    0    0  501 -0.00000000000E+00  0.00000000000E+00  0.53665049441E+03  0.53665049441E+03  0.00000000000E+00 0.  1.
          2   -1    0    0  501    0  0.00000000000E+00 -0.00000000000E+00 -0.98283710412E+03  0.98283710412E+03  0.00000000000E+00 0. -1.
         24    2    1    2    0    0 -0.42642566075E+02  0.41228284075E+03  0.19202502524E+02  0.42430252961E+03  0.88703840447E+02 0.  0.
        254    2    1    2    0    0  0.42642566075E+02 -0.41228284075E+03 -0.46538911224E+03  0.10951850689E+04  0.90058191197E+03 0.  0.
         23    2    4    4    0    0 -0.29053307918E+03  0.10331909023E+03 -0.32873875208E+03  0.45964570502E+03  0.90114940601E+02 0.  0.
         23    2    4    4    0    0  0.33317564526E+03 -0.51560193098E+03 -0.13665036015E+03  0.63553936390E+03  0.91572923428E+02 0.  0.
          4    1    3    3  502    0 -0.11352268698E+02  0.86325135825E+02 -0.32209372945E+02  0.92835051491E+02  0.00000000000E+00 0. -1.
         -3    1    3    3    0  502 -0.31290297378E+02  0.32595770493E+03  0.51411875469E+02  0.33146747812E+03  0.00000000000E+00 0.  1.
         11    1    5    5    0    0 -0.11442395596E+03  0.14455496609E+02 -0.17484073085E+03  0.20945425334E+03  0.00000000000E+00 0.  1.
        -11    1    5    5    0    0 -0.17610912322E+03  0.88863593623E+02 -0.15389802123E+03  0.25019145168E+03  0.00000000000E+00 0. -1.
          3    1    6    6  503    0  0.23692986754E+03 -0.29635252672E+03 -0.60070367959E+02  0.38414714802E+03  0.00000000000E+00 0.  1.
         -3    1    6    6    0  503  0.96245777718E+02 -0.21924940427E+03 -0.76579992196E+02  0.25139221588E+03  0.00000000000E+00 0. -1.
<mgrwt>
<rscale>  0 0.14525013E+04</rscale>
<asrwt>0</asrwt>
<pdfrwt beam="1">  1        2 0.15120571E+00 0.14525013E+04</pdfrwt>
<pdfrwt beam="2">  1       -1 0.82561614E-01 0.14525013E+04</pdfrwt>
<totfact> 0.41690511E+01</totfact>
</mgrwt>
</event>
<event>
12    6  0.1457317E-007  0.1448614E+04  0.7818608E-02  0.8919362E-01
          2   -1    0    0  501    0  0.00000000000E+00  0.00000000000E+00  0.17340522546E+04  0.17340522546E+04  0.00000000000E+00 0. -1.
         -1   -1    0    0    0  501 -0.00000000000E+00 -0.00000000000E+00 -0.30254035489E+03  0.30254035489E+03  0.00000000000E+00 0.  1.
         24    2    1    2    0    0  0.12706908373E+03  0.26345279951E+03 -0.17584401254E+02  0.30329243350E+03  0.78250619456E+02 0.  0.
        254    2    1    2    0    0 -0.12706908373E+03 -0.26345279951E+03  0.14490963009E+04  0.17333001760E+04  0.90492843970E+03 0.  0.
         23    2    4    4    0    0 -0.16948681708E+03  0.30190608549E+03  0.73109968092E+03  0.81368309312E+03  0.87751734819E+02 0.  0.
         23    2    4    4    0    0  0.42417733347E+02 -0.56535888500E+03  0.71799662001E+03  0.91961708283E+03  0.93522723162E+02 0.  0.
          4    1    3    3  502    0  0.48011810802E+02  0.94270970411E+02  0.31173355946E+02  0.11029019884E+03  0.00000000000E+00 0. -1.
         -3    1    3    3    0  502  0.79057272929E+02  0.16918182909E+03 -0.48757757200E+02  0.19300223467E+03  0.00000000000E+00 0.  1.
         11    1    5    5    0    0 -0.22324428237E+02  0.46835122126E+02  0.51869577217E+02  0.73364581382E+02  0.00000000000E+00 0.  1.
        -11    1    5    5    0    0 -0.14716238884E+03  0.25507096336E+03  0.67923010370E+03  0.74031851173E+03  0.00000000000E+00 0. -1.
          4    1    6    6  503    0  0.41501504540E+02 -0.42785840387E+03  0.47671775107E+03  0.64190731638E+03  0.00000000000E+00 0. -1.
         -4    1    6    6    0  503  0.91622880728E+00 -0.13750048113E+03  0.24127886894E+03  0.27770976645E+03  0.00000000000E+00 0.  1.
<mgrwt>
<rscale>  0 0.14486142E+04</rscale>
<asrwt>0</asrwt>
<pdfrwt beam="1">  1        2 0.26677726E+00 0.14486142E+04</pdfrwt>
<pdfrwt beam="2">  1       -1 0.46544671E-01 0.14486142E+04</pdfrwt>
<totfact> 0.47685042E+01</totfact>
</mgrwt>
</event>
<event>
12    6  0.1457317E-007  0.2970185E+04  0.7818608E-02  0.8252296E-01
          2   -1    0    0  501    0  0.00000000000E+00  0.00000000000E+00  0.20635374584E+04  0.20635374584E+04  0.00000000000E+00 0. -1.
         -1   -1    0    0    0  501 -0.00000000000E+00 -0.00000000000E+00 -0.10687957767E+04  0.10687957767E+04  0.00000000000E+00 0.  1.
         24    2    1    2    0    0  0.11279055773E+04  0.39484473348E+03 -0.20130485616E+03  0.12144252268E+04  0.78940683630E+02 0.  0.
        254    2    1    2    0    0 -0.11279055773E+04 -0.39484473348E+03  0.11960465378E+04  0.19179080083E+04  0.90541175859E+03 0.  0.
         23    2    4    4    0    0  0.47980584337E+02  0.16424445670E+03  0.14644189902E+03  0.24315496132E+03  0.91655482093E+02 0.  0.
         23    2    4    4    0    0 -0.11758861617E+04 -0.55908919018E+03  0.10496046388E+04  0.16747530469E+04  0.88537464874E+02 0.  0.
          2    1    3    3  502    0  0.62711556438E+03  0.20403332114E+03 -0.14796051534E+03  0.67586673341E+03  0.00000000000E+00 0. -1.
         -1    1    3    3    0  502  0.50079001294E+03  0.19081141234E+03 -0.53344340820E+02  0.53855849343E+03  0.00000000000E+00 0.  1.
         11    1    5    5    0    0  0.60980857154E+02  0.16940617532E+03  0.13759786148E+03  0.22660602079E+03  0.00000000000E+00 0. -1.
        -11    1    5    5    0    0 -0.13000272817E+02 -0.51617186276E+01  0.88440375437E+01  0.16548940528E+02  0.00000000000E+00 0.  1.
          1    1    6    6  503    0 -0.59504408027E+03 -0.27532769957E+03  0.58461804242E+03  0.87844240286E+03  0.00000000000E+00 0. -1.
         -1    1    6    6    0  503 -0.58084208139E+03 -0.28376149060E+03  0.46498659637E+03  0.79631064408E+03  0.00000000000E+00 0.  1.
<mgrwt>
<rscale>  0 0.29701853E+04</rscale>
<asrwt>0</asrwt>
<pdfrwt beam="1">  1        2 0.31746730E+00 0.29701853E+04</pdfrwt>
<pdfrwt beam="2">  1       -1 0.16443012E+00 0.29701853E+04</pdfrwt>
<totfact> 0.16265449E+00</totfact>
</mgrwt>
</event>
<event>
12    6  0.1457317E-007  0.3450528E+04  0.7818608E-02  0.8125615E-01
          2   -1    0    0  501    0  0.00000000000E+00  0.00000000000E+00  0.16273096157E+04  0.16273096157E+04  0.00000000000E+00 0. -1.
         -1   -1    0    0    0  501 -0.00000000000E+00 -0.00000000000E+00 -0.18291144221E+04  0.18291144221E+04  0.00000000000E+00 0.  1.
         24    2    1    2    0    0 -0.24777515690E+03  0.11820052218E+03 -0.16803679245E+04  0.17044768934E+04  0.79001433911E+02 0.  0.
        254    2    1    2    0    0  0.24777515690E+03 -0.11820052218E+03  0.14785631182E+04  0.17519471444E+04  0.89878029050E+03 0.  0.
         23    2    4    4    0    0  0.50090896625E+03 -0.30015674858E+03  0.11351588518E+04  0.12796757015E+04  0.89333174439E+02 0.  0.
         23    2    4    4    0    0 -0.25313380935E+03  0.18195622640E+03  0.34340426640E+03  0.47227144292E+03  0.89045111350E+02 0.  0.
          4    1    3    3  502    0 -0.11021444531E+02  0.54551104958E+00 -0.22637989122E+03  0.22664868182E+03  0.00000000000E+00 0. -1.
         -3    1    3    3    0  502 -0.23675371237E+03  0.11765501113E+03 -0.14539880333E+04  0.14778282116E+04  0.00000000000E+00 0.  1.
         11    1    5    5    0    0  0.49988999947E+03 -0.29779511257E+03  0.11364855332E+04  0.12767816211E+04  0.00000000000E+00 0. -1.
        -11    1    5    5    0    0  0.10189667799E+01 -0.23616360041E+01 -0.13266814510E+01  0.28940804389E+01  0.00000000000E+00 0.  1.
          3    1    6    6  503    0 -0.24622289280E+03  0.15570866947E+03  0.28348146423E+03  0.40648818341E+03  0.00000000000E+00 0. -1.
         -3    1    6    6    0  503 -0.69109165459E+01  0.26247556932E+02  0.59922802165E+02  0.65783259510E+02  0.00000000000E+00 0.  1.
<mgrwt>
<rscale>  0 0.34505278E+04</rscale>
<asrwt>0</asrwt>
<pdfrwt beam="1">  1        2 0.25035533E+00 0.34505278E+04</pdfrwt>
<pdfrwt beam="2">  1       -1 0.28140222E+00 0.34505278E+04</pdfrwt>
<totfact> 0.44066894E-01</totfact>
</mgrwt>
</event>
<event>
12    6  0.1457317E-007  0.1774057E+04  0.7818608E-02  0.8720219E-01
          2   -1    0    0  501    0  0.00000000000E+00  0.00000000000E+00  0.13441857701E+04  0.13441857701E+04  0.00000000000E+00 0. -1.
         -1   -1    0    0    0  501 -0.00000000000E+00 -0.00000000000E+00 -0.58535035156E+03  0.58535035156E+03  0.00000000000E+00 0.  1.
         24    2    1    2    0    0  0.58448800248E+03 -0.20010559068E+03  0.44999371363E+02  0.62453082882E+03  0.79657644023E+02 0.  0.
        254    2    1    2    0    0 -0.58448800248E+03  0.20010559068E+03  0.71383604718E+03  0.13050052928E+04  0.90100412853E+03 0.  0.
         23    2    4    4    0    0  0.95119013057E+02  0.30254771549E+03  0.30241562042E+02  0.33137481528E+03  0.91170002381E+02 0.  0.
         23    2    4    4    0    0 -0.67960701554E+03 -0.10244212481E+03  0.68359448514E+03  0.97363047756E+03  0.91075804804E+02 0.  0.
          4    1    3    3  502    0  0.19657986759E+03 -0.28114813905E+02  0.14113535153E+02  0.19908108644E+03  0.00000000000E+00 0. -1.
         -3    1    3    3    0  502  0.38790813489E+03 -0.17199077678E+03  0.30885836210E+02  0.42544974238E+03  0.00000000000E+00 0.  1.
         11    1    5    5    0    0  0.10161786264E+03  0.26773320095E+03  0.50179714515E+02  0.29073228346E+03  0.00000000000E+00 0. -1.
        -11    1    5    5    0    0 -0.64988495818E+01  0.34814514540E+02 -0.19938152474E+02  0.40642531818E+02  0.00000000000E+00 0.  1.
          2    1    6    6  503    0 -0.63550355681E+03 -0.76282751376E+02  0.61199601590E+03  0.88556363541E+03  0.00000000000E+00 0. -1.
         -2    1    6    6    0  503 -0.44103458730E+02 -0.26159373432E+02  0.71598469233E+02  0.88066842153E+02  0.00000000000E+00 0.  1.
<mgrwt>
<rscale>  0 0.17740571E+04</rscale>
<asrwt>0</asrwt>
<pdfrwt beam="1">  1        2 0.20679781E+00 0.17740571E+04</pdfrwt>
<pdfrwt beam="2">  1       -1 0.90053901E-01 0.17740571E+04</pdfrwt>
<totfact> 0.20270829E+01</totfact>
</mgrwt>
</event>
<event>
12    6  0.1457317E-007  0.2144111E+04  0.7818608E-02  0.8542057E-01
         -1   -1    0    0    0  501 -0.00000000000E+00  0.00000000000E+00  0.10696320348E+04  0.10696320348E+04  0.00000000000E+00 0.  1.
          2   -1    0    0  501    0  0.00000000000E+00 -0.00000000000E+00 -0.10744842998E+04  0.10744842998E+04  0.00000000000E+00 0. -1.
         24    2    1    2    0    0  0.41760143707E+03 -0.35005505288E+03 -0.70132974003E+03  0.89206714248E+03  0.83611495313E+02 0.  0.
        254    2    1    2    0    0 -0.41760143707E+03  0.35005505288E+03  0.69647747501E+03  0.12520491921E+04  0.88635027272E+03 0.  0.
         23    2    4    4    0    0 -0.31397110205E+03  0.52021374902E+03  0.80088792950E+03  0.10095306781E+04  0.92360797276E+02 0.  0.
         23    2    4    4    0    0 -0.10363033502E+03 -0.17015869614E+03 -0.10441045449E+03  0.24251851397E+03  0.90666743663E+02 0.  0.
          2    1    3    3  502    0  0.17727458588E+03 -0.19872577898E+03 -0.31282681338E+03  0.41082700642E+03  0.00000000000E+00 0. -1.
         -1    1    3    3    0  502  0.24032685119E+03 -0.15132927390E+03 -0.38850292665E+03  0.48124013606E+03  0.00000000000E+00 0.  1.
         11    1    5    5    0    0 -0.81441217884E+02  0.69634222018E+02  0.12618033978E+03  0.16553874167E+03  0.00000000000E+00 0.  1.
        -11    1    5    5    0    0 -0.23252988417E+03  0.45057952700E+03  0.67470758972E+03  0.84399193646E+03  0.00000000000E+00 0. -1.
          4    1    6    6  503    0 -0.20702692746E+02  0.18417595861E+01  0.63992464975E+01  0.21747273876E+02  0.00000000000E+00 0.  1.
         -4    1    6    6    0  503 -0.82927642274E+02 -0.17200045572E+03 -0.11080970098E+03  0.22077124010E+03  0.00000000000E+00 0. -1.
<mgrwt>
<rscale>  0 0.21441108E+04</rscale>
<asrwt>0</asrwt>
<pdfrwt beam="1">  1        2 0.16530528E+00 0.21441108E+04</pdfrwt>
<pdfrwt beam="2">  1       -1 0.16455878E+00 0.21441108E+04</pdfrwt>
<totfact> 0.63891361E+00</totfact>
</mgrwt>
</event>
<event>
12    6  0.1457317E-007  0.1704563E+04  0.7818608E-02  0.8758766E-01
         -1   -1    0    0    0  501 -0.00000000000E+00  0.00000000000E+00  0.25429506478E+03  0.25429506478E+03  0.00000000000E+00 0.  1.
          2   -1    0    0  501    0  0.00000000000E+00 -0.00000000000E+00 -0.28564590187E+04  0.28564590187E+04  0.00000000000E+00 0. -1.
         24    2    1    2    0    0  0.51102997521E+03  0.36355233615E+03 -0.10569040038E+04  0.12315055078E+04  0.78979780445E+02 0.  0.
        254    2    1    2    0    0 -0.51102997521E+03 -0.36355233615E+03 -0.15452599501E+04  0.18792485757E+04  0.86627071934E+03 0.  0.
         23    2    4    4    0    0  0.23411751598E+03 -0.13016090986E+03 -0.39648392440E+03  0.48719445266E+03  0.91684560598E+02 0.  0.
         23    2    4    4    0    0 -0.74514749119E+03 -0.23339142629E+03 -0.11487760257E+04  0.13920541230E+04  0.91716861823E+02 0.  0.
          4    1    3    3  502    0  0.51143691428E+03  0.35356444064E+03 -0.10448235071E+04  0.12158255187E+04  0.00000000000E+00 0. -1.
         -3    1    3    3    0  502 -0.40693906673E+00  0.99878955051E+01 -0.12080496715E+02  0.15679989060E+02  0.00000000000E+00 0.  1.
         11    1    5    5    0    0  0.12690488244E+03 -0.11102753136E+03 -0.28634672649E+03  0.33230469404E+03  0.00000000000E+00 0. -1.
        -11    1    5    5    0    0  0.10721263354E+03 -0.19133378497E+02 -0.11013719791E+03  0.15488975862E+03  0.00000000000E+00 0.  1.
          4    1    6    6  503    0 -0.73246687819E+03 -0.21937468671E+03 -0.10990699635E+04  0.13388755601E+04  0.00000000000E+00 0. -1.
         -4    1    6    6    0  503 -0.12680613002E+02 -0.14016739579E+02 -0.49706062199E+02  0.53178562917E+02  0.00000000000E+00 0.  1.
<mgrwt>
<rscale>  0 0.17045626E+04</rscale>
<asrwt>0</asrwt>
<pdfrwt beam="1">  1        2 0.43945523E+00 0.17045626E+04</pdfrwt>
<pdfrwt beam="2">  1       -1 0.39122318E-01 0.17045626E+04</pdfrwt>
<totfact> 0.14732935E+01</totfact>
</mgrwt>
</event>
<event>
12    6  0.1457317E-007  0.1483822E+04  0.7818608E-02  0.8895283E-01
          2   -1    0    0  501    0  0.00000000000E+00  0.00000000000E+00  0.88488140420E+03  0.88488140420E+03  0.00000000000E+00 0. -1.
         -1   -1    0    0    0  501 -0.00000000000E+00 -0.00000000000E+00 -0.62204008200E+03  0.62204008200E+03  0.00000000000E+00 0.  1.
         24    2    1    2    0    0 -0.17559504752E+03 -0.39972471394E+03 -0.11542773972E+03  0.45751931016E+03  0.73395425106E+02 0.  0.
        254    2    1    2    0    0  0.17559504752E+03  0.39972471394E+03  0.37826906192E+03  0.10494021760E+04  0.87609587161E+03 0.  0.
         23    2    4    4    0    0 -0.19770753401E+03 -0.93306862216E+02  0.35161423861E+03  0.42373355725E+03  0.90128326344E+02 0.  0.
         23    2    4    4    0    0  0.37330258152E+03  0.49303157615E+03  0.26654823316E+02  0.62566861880E+03  0.91190945199E+02 0.  0.
          2    1    3    3  502    0 -0.35068948067E+02 -0.12425494286E+03 -0.51830687107E+01  0.12921294883E+03  0.00000000000E+00 0. -1.
         -1    1    3    3    0  502 -0.14052609945E+03 -0.27546977108E+03 -0.11024467101E+03  0.32830636133E+03  0.00000000000E+00 0.  1.
         11    1    5    5    0    0 -0.18218338189E+03 -0.88998592423E+02  0.35349102603E+03  0.40751372931E+03  0.00000000000E+00 0.  1.
        -11    1    5    5    0    0 -0.15524152117E+02 -0.43082697932E+01 -0.18767874210E+01  0.16219827945E+02  0.00000000000E+00 0. -1.
          1    1    6    6  503    0  0.63274654945E+02  0.10404979809E+03  0.39681233266E+02  0.12808061022E+03  0.00000000000E+00 0. -1.
         -1    1    6    6    0  503  0.31002792658E+03  0.38898177807E+03 -0.13026409950E+02  0.49758800858E+03  0.00000000000E+00 0.  1.
<mgrwt>
<rscale>  0 0.14838217E+04</rscale>
<asrwt>0</asrwt>
<pdfrwt beam="1">  1        2 0.13613560E+00 0.14838217E+04</pdfrwt>
<pdfrwt beam="2">  1       -1 0.95698474E-01 0.14838217E+04</pdfrwt>
<totfact> 0.34926768E+01</totfact>
</mgrwt>
</event>
<event>
12    6  0.1457317E-007  0.1602150E+04  0.7818608E-02  0.8819228E-01
         -1   -1    0    0    0  501 -0.00000000000E+00  0.00000000000E+00  0.34933207345E+03  0.34933207345E+03  0.00000000000E+00 0.  1.
          2   -1    0    0  501    0  0.00000000000E+00 -0.00000000000E+00 -0.18369953858E+04  0.18369953858E+04  0.00000000000E+00 0. -1.
         24    2    1    2    0    0 -0.76879011781E+02 -0.95356499881E+02 -0.12353249690E+04  0.12439059410E+04  0.79189434261E+02 0.  0.
        254    2    1    2    0    0  0.76879011781E+02  0.95356499881E+02 -0.25233834336E+03  0.94242151825E+03  0.89971130593E+03 0.  0.
         23    2    4    4    0    0  0.45478876290E+03  0.11660219864E+03  0.22577661841E+00  0.47824985793E+03  0.91071312985E+02 0.  0.
         23    2    4    4    0    0 -0.37790975112E+03 -0.21245698755E+02 -0.25256411998E+03  0.46417166033E+03  0.91648981699E+02 0.  0.
          2    1    3    3  502    0 -0.87963042050E+02 -0.99977055765E+02 -0.10948412605E+04  0.11029099211E+04  0.00000000000E+00 0. -1.
         -1    1    3    3    0  502  0.11084030269E+02  0.46205558837E+01 -0.14048370854E+03  0.14099601990E+03  0.00000000000E+00 0.  1.
         11    1    5    5    0    0  0.82138848848E+01  0.18061331322E+02  0.65314735566E+01  0.20888746752E+02  0.00000000000E+00 0.  1.
        -11    1    5    5    0    0  0.44657487801E+03  0.98540867315E+02 -0.63056969382E+01  0.45736111118E+03  0.00000000000E+00 0. -1.
          2    1    6    6  503    0 -0.67394984288E+02 -0.75872697394E+01 -0.92107063765E+02  0.11438252386E+03  0.00000000000E+00 0. -1.
         -2    1    6    6    0  503 -0.31051476683E+03 -0.13658429016E+02 -0.16045705621E+03  0.34978913647E+03  0.00000000000E+00 0.  1.
<mgrwt>
<rscale>  0 0.16021503E+04</rscale>
<asrwt>0</asrwt>
<pdfrwt beam="1">  1        2 0.28261468E+00 0.16021503E+04</pdfrwt>
<pdfrwt beam="2">  1       -1 0.53743396E-01 0.16021503E+04</pdfrwt>
<totfact> 0.31408946E+01</totfact>
</mgrwt>
</event>
<event>
12    6  0.1457317E-007  0.1594094E+04  0.7818608E-02  0.8824185E-01
         -1   -1    0    0    0  501 -0.00000000000E+00  0.00000000000E+00  0.21543528553E+03  0.21543528553E+03  0.00000000000E+00 0.  1.
          2   -1    0    0  501    0  0.00000000000E+00 -0.00000000000E+00 -0.29488376817E+04  0.29488376817E+04  0.00000000000E+00 0. -1.
         24    2    1    2    0    0 -0.38651165317E+03  0.44552509982E+03 -0.97933691602E+03  0.11463167950E+04  0.84009088118E+02 0.  0.
        254    2    1    2    0    0  0.38651165317E+03 -0.44552509982E+03 -0.17540654801E+04  0.20179561722E+04  0.80468474053E+03 0.  0.
         23    2    4    4    0    0  0.18496373930E+03  0.17950126636E+03 -0.23291499460E+03  0.35858687820E+03  0.88898059738E+02 0.  0.
         23    2    4    4    0    0  0.20154791387E+03 -0.62502636618E+03 -0.15211504855E+04  0.16593692940E+04  0.91258611424E+02 0.  0.
          2    1    3    3  502    0 -0.33404794488E+03  0.39646532037E+03 -0.90480907377E+03  0.10428097812E+04  0.00000000000E+00 0. -1.
         -1    1    3    3    0  502 -0.52463708291E+02  0.49059779452E+02 -0.74527842247E+02  0.10350701386E+03  0.00000000000E+00 0.  1.
         11    1    5    5    0    0  0.15714803149E+03  0.16276309561E+03 -0.23480475915E+03  0.32606840389E+03  0.00000000000E+00 0. -1.
        -11    1    5    5    0    0  0.27815707815E+02  0.16738170750E+02  0.18897645560E+01  0.32518474309E+02  0.00000000000E+00 0.  1.
          4    1    6    6  503    0  0.17092612820E+03 -0.58029573345E+03 -0.13387672083E+04  0.14691005812E+04  0.00000000000E+00 0. -1.
         -4    1    6    6    0  503  0.30621785667E+02 -0.44730632735E+02 -0.18238327723E+03  0.19026871281E+03  0.00000000000E+00 0.  1.
<mgrwt>
<rscale>  0 0.15940937E+04</rscale>
<asrwt>0</asrwt>
<pdfrwt beam="1">  1        2 0.45366730E+00 0.15940937E+04</pdfrwt>
<pdfrwt beam="2">  1       -1 0.33143892E-01 0.15940937E+04</pdfrwt>
<totfact> 0.17609833E+01</totfact>
</mgrwt>
</event>
<event>
12    6  0.1457317E-007  0.2058511E+04  0.7818608E-02  0.8579743E-01
         -1   -1    0    0    0  501 -0.00000000000E+00  0.00000000000E+00  0.61301169675E+03  0.61301169675E+03  0.00000000000E+00 0.  1.
          2   -1    0    0  501    0  0.00000000000E+00 -0.00000000000E+00 -0.17281341315E+04  0.17281341315E+04  0.00000000000E+00 0. -1.
         24    2    1    2    0    0 -0.70424404044E+02  0.70745646986E+03  0.31380932633E+02  0.71608760195E+03  0.79639420540E+02 0.  0.
        254    2    1    2    0    0  0.70424404044E+02 -0.70745646986E+03 -0.11465033674E+04  0.16250582263E+04  0.90602980859E+03 0.  0.
         23    2    4    4    0    0  0.13723638421E+03  0.11092762007E+03 -0.60590259306E+03  0.63772558852E+03  0.91854297257E+02 0.  0.
         23    2    4    4    0    0 -0.66811980164E+02 -0.81838408993E+03 -0.54060077437E+03  0.98733263783E+03  0.91434026091E+02 0.  0.
          4    1    3    3  502    0  0.23334443547E+01  0.29531375045E+03 -0.10292682765E+02  0.29550227662E+03  0.00000000000E+00 0. -1.
         -3    1    3    3    0  502 -0.72757848399E+02  0.41214271941E+03  0.41673615398E+02  0.42058532533E+03  0.00000000000E+00 0.  1.
         11    1    5    5    0    0  0.12074307615E+03  0.12123132555E+03 -0.46486996142E+03  0.49535846189E+03  0.00000000000E+00 0. -1.
        -11    1    5    5    0    0  0.16493308057E+02 -0.10303705474E+02 -0.14103263164E+03  0.14236712663E+03  0.00000000000E+00 0.  1.
          3    1    6    6  503    0 -0.30803487525E+02 -0.72828792628E+03 -0.48428359010E+03  0.87514727563E+03  0.00000000000E+00 0. -1.
         -3    1    6    6    0  503 -0.36008492639E+02 -0.90096163648E+02 -0.56317184270E+02  0.11218536219E+03  0.00000000000E+00 0.  1.
<mgrwt>
<rscale>  0 0.20585106E+04</rscale>
<asrwt>0</asrwt>
<pdfrwt beam="1">  1        2 0.26586679E+00 0.20585106E+04</pdfrwt>
<pdfrwt beam="2">  1       -1 0.94309491E-01 0.20585106E+04</pdfrwt>
<totfact> 0.10842329E+01</totfact>
</mgrwt>
</event>
<event>
12    6  0.1457317E-007  0.1723007E+04  0.7818608E-02  0.8748351E-01
         -1   -1    0    0    0  501 -0.00000000000E+00  0.00000000000E+00  0.34324810810E+03  0.34324810810E+03  0.00000000000E+00 0.  1.
          2   -1    0    0  501    0  0.00000000000E+00 -0.00000000000E+00 -0.21622494390E+04  0.21622494390E+04  0.00000000000E+00 0. -1.
         24    2    1    2    0    0 -0.34824398018E+02  0.15067266787E+03  0.21527556702E+03  0.27694250123E+03  0.80240810651E+02 0.  0.
        254    2    1    2    0    0  0.34824398018E+02 -0.15067266787E+03 -0.20342768979E+04  0.22285550459E+04  0.89680549925E+03 0.  0.
         23    2    4    4    0    0  0.29592829555E+03 -0.26801598255E+03 -0.42003776502E+03  0.58652017388E+03  0.90377360630E+02 0.  0.
         23    2    4    4    0    0 -0.26110389753E+03  0.11734331468E+03 -0.16142391329E+04  0.16420348720E+04  0.92551843928E+02 0.  0.
          4    1    3    3  502    0  0.20189503100E+02  0.61407012914E+02  0.52299189025E+02  0.83148315937E+02  0.00000000000E+00 0. -1.
         -3    1    3    3    0  502 -0.55013901118E+02  0.89265654957E+02  0.16297637799E+03  0.19379418530E+03  0.00000000000E+00 0.  1.
         11    1    5    5    0    0  0.22722806084E+03 -0.15991301657E+03 -0.25103713528E+03  0.37446549612E+03  0.00000000000E+00 0.  1.
        -11    1    5    5    0    0  0.68700234711E+02 -0.10810296599E+03 -0.16900062974E+03  0.21205467775E+03  0.00000000000E+00 0. -1.
          2    1    6    6  503    0 -0.69485797393E+02  0.75538433663E+02 -0.46627962491E+03  0.47744216363E+03  0.00000000000E+00 0. -1.
         -2    1    6    6    0  503 -0.19161810014E+03  0.41804881019E+02 -0.11479595080E+04  0.11645927084E+04  0.00000000000E+00 0.  1.
<mgrwt>
<rscale>  0 0.17230067E+04</rscale>
<asrwt>0</asrwt>
<pdfrwt beam="1">  1        2 0.33265375E+00 0.17230067E+04</pdfrwt>
<pdfrwt beam="2">  1       -1 0.52807402E-01 0.17230067E+04</pdfrwt>
<totfact> 0.21210290E+01</totfact>
</mgrwt>
</event>
<event>
12    6  0.1457317E-007  0.2044349E+04  0.7818608E-02  0.8586162E-01
          2   -1    0    0  501    0  0.00000000000E+00  0.00000000000E+00  0.11748107352E+04  0.11748107352E+04  0.00000000000E+00 0. -1.
         -1   -1    0    0    0  501 -0.00000000000E+00 -0.00000000000E+00 -0.88936896953E+03  0.88936896953E+03  0.00000000000E+00 0.  1.
         24    2    1    2    0    0 -0.12500692968E+03  0.64278248713E+03  0.61600628755E+03  0.90237285921E+03  0.77569146623E+02 0.  0.
        254    2    1    2    0    0  0.12500692968E+03 -0.64278248713E+03 -0.33056452188E+03  0.11618068455E+04  0.90095848125E+03 0.  0.
         23    2    4    4    0    0 -0.27246997576E+03  0.43761983190E+02  0.15971773645E+02  0.29116982266E+03  0.91486442775E+02 0.  0.
         23    2    4    4    0    0  0.39747690544E+03 -0.68654447032E+03 -0.34653629553E+03  0.87063702286E+03  0.92683447111E+02 0.  0.
          4    1    3    3  502    0 -0.10773094352E+03  0.52075242006E+03  0.45681787122E+03  0.70105035957E+03  0.00000000000E+00 0. -1.
         -3    1    3    3    0  502 -0.17275986161E+02  0.12203006708E+03  0.15918841633E+03  0.20132249965E+03  0.00000000000E+00 0.  1.
         11    1    5    5    0    0 -0.22146314817E+03  0.15284778722E+02  0.44107580926E+02  0.22632947036E+03  0.00000000000E+00 0. -1.
        -11    1    5    5    0    0 -0.51006827586E+02  0.28477204468E+02 -0.28135807282E+02  0.64840352297E+02  0.00000000000E+00 0.  1.
          1    1    6    6  503    0  0.34978423892E+03 -0.64463579496E+03 -0.30241298453E+03  0.79332082738E+03  0.00000000000E+00 0. -1.
         -1    1    6    6    0  503  0.47692666519E+02 -0.41908675362E+02 -0.44123310994E+02  0.77316195480E+02  0.00000000000E+00 0.  1.
<mgrwt>
<rscale>  0 0.20443485E+04</rscale>
<asrwt>0</asrwt>
<pdfrwt beam="1">  1        2 0.18074011E+00 0.20443485E+04</pdfrwt>
<pdfrwt beam="2">  1       -1 0.13682599E+00 0.20443485E+04</pdfrwt>
<totfact> 0.92122434E+00</totfact>
</mgrwt>
</event>
<event>
12    6  0.1457317E-007  0.1443546E+04  0.7818608E-02  0.8922887E-01
          2   -1    0    0  501    0  0.00000000000E+00  0.00000000000E+00  0.24516084755E+04  0.24516084755E+04  0.00000000000E+00 0. -1.
         -1   -1    0    0    0  501 -0.00000000000E+00 -0.00000000000E+00 -0.21249569899E+03  0.21249569899E+03  0.00000000000E+00 0.  1.
         24    2    1    2    0    0 -0.31739175811E+03 -0.95150752089E+02  0.17188234684E+03  0.38233113783E+03  0.82718583527E+02 0.  0.
        254    2    1    2    0    0  0.31739175811E+03  0.95150752089E+02  0.20672304297E+04  0.22817730367E+04  0.90733419849E+03 0.  0.
         23    2    4    4    0    0  0.13118353176E+03  0.30427966300E+03  0.19232528598E+04  0.19539177307E+04  0.95381881351E+02 0.  0.
         23    2    4    4    0    0  0.18620822635E+03 -0.20912891091E+03  0.14397756991E+03  0.32785530600E+03  0.91384660064E+02 0.  0.
          4    1    3    3  502    0 -0.87773723116E+02  0.10692021430E+02  0.51082231697E+02  0.10211728643E+03  0.00000000000E+00 0. -1.
         -3    1    3    3    0  502 -0.22961803500E+03 -0.10584277352E+03  0.12080011514E+03  0.28021385141E+03  0.00000000000E+00 0.  1.
         11    1    5    5    0    0  0.82835420363E+02  0.12384751835E+03  0.63836536290E+03  0.65552288382E+03  0.00000000000E+00 0. -1.
        -11    1    5    5    0    0  0.48348111400E+02  0.18043214466E+03  0.12848874969E+04  0.12983948469E+04  0.00000000000E+00 0.  1.
          3    1    6    6  503    0  0.42466679248E+00 -0.48877117835E+02  0.29730161908E+02  0.57210449367E+02  0.00000000000E+00 0. -1.
         -3    1    6    6    0  503  0.18578355956E+03 -0.16025179308E+03  0.11424740800E+03  0.27064485663E+03  0.00000000000E+00 0.  1.
<mgrwt>
<rscale>  0 0.14435460E+04</rscale>
<asrwt>0</asrwt>
<pdfrwt beam="1">  1        2 0.37717051E+00 0.14435460E+04</pdfrwt>
<pdfrwt beam="2">  1       -1 0.32691648E-01 0.14435460E+04</pdfrwt>
<totfact> 0.36068429E+01</totfact>
</mgrwt>
</event>
<event>
12    6  0.1457317E-007  0.3398358E+04  0.7818608E-02  0.8138310E-01
          2   -1    0    0  501    0  0.00000000000E+00  0.00000000000E+00  0.19132276269E+04  0.19132276269E+04  0.00000000000E+00 0. -1.
         -1   -1    0    0    0  501 -0.00000000000E+00 -0.00000000000E+00 -0.15090773529E+04  0.15090773529E+04  0.00000000000E+00 0.  1.
         24    2    1    2    0    0  0.95556584537E+03  0.92183487415E+03 -0.67194220967E+03  0.14901868628E+04  0.79151328601E+02 0.  0.
        254    2    1    2    0    0 -0.95556584537E+03 -0.92183487415E+03  0.10760924837E+04  0.19321181169E+04  0.90123235870E+03 0.  0.
         23    2    4    4    0    0 -0.35934040742E+03 -0.57023572266E+03  0.37792878781E+02  0.68100692563E+03  0.89709660950E+02 0.  0.
         23    2    4    4    0    0 -0.59622543795E+03 -0.35159915150E+03  0.10382996049E+04  0.12511111913E+04  0.90035589281E+02 0.  0.
          2    1    3    3  502    0  0.35406230995E+03  0.34237603129E+03 -0.20672743014E+03  0.53415137977E+03  0.00000000000E+00 0. -1.
         -1    1    3    3    0  502  0.60150353542E+03  0.57945884286E+03 -0.46521477953E+03  0.95603548302E+03  0.00000000000E+00 0.  1.
         11    1    5    5    0    0 -0.15094837906E+02 -0.13386274814E+02  0.16387150010E+02  0.25992021280E+02  0.00000000000E+00 0. -1.
        -11    1    5    5    0    0 -0.34424556951E+03 -0.55684944784E+03  0.21405728771E+02  0.65501490435E+03  0.00000000000E+00 0.  1.
          4    1    6    6  503    0 -0.59969533488E+02 -0.40515145785E+02  0.65808515126E+02  0.97819132320E+02  0.00000000000E+00 0. -1.
         -4    1    6    6    0  503 -0.53625590447E+03 -0.31108400571E+03  0.97249108976E+03  0.11532920590E+04  0.00000000000E+00 0.  1.
<mgrwt>
<rscale>  0 0.33983575E+04</rscale>
<asrwt>0</asrwt>
<pdfrwt beam="1">  1        2 0.29434271E+00 0.33983575E+04</pdfrwt>
<pdfrwt beam="2">  1       -1 0.23216575E+00 0.33983575E+04</pdfrwt>
<totfact> 0.64269891E-01</totfact>
</mgrwt>
</event>
<event>
12    6  0.1457317E-007  0.1806888E+04  0.7818608E-02  0.8702645E-01
          2   -1    0    0  501    0  0.00000000000E+00  0.00000000000E+00  0.10059687751E+04  0.10059687751E+04  0.00000000000E+00 0. -1.
         -1   -1    0    0    0  501 -0.00000000000E+00 -0.00000000000E+00 -0.81136799209E+03  0.81136799209E+03  0.00000000000E+00 0.  1.
         24    2    1    2    0    0  0.33813799123E+02  0.22204378452E+02 -0.60834911356E+03  0.61490652113E+03  0.79906059396E+02 0.  0.
        254    2    1    2    0    0 -0.33813799123E+02 -0.22204378452E+02  0.80294989661E+03  0.12024302461E+04  0.89413284966E+03 0.  0.
         23    2    4    4    0    0 -0.67720083450E+02 -0.15182627074E+03  0.95784842992E+03  0.97655690426E+03  0.92479978146E+02 0.  0.
         23    2    4    4    0    0  0.33906284327E+02  0.12962189229E+03 -0.15489853331E+03  0.22587334185E+03  0.95256180162E+02 0.  0.
          4    1    3    3  502    0  0.15996052589E+01  0.33384143823E+02 -0.10045657208E+03  0.10587059398E+03  0.00000000000E+00 0. -1.
         -1    1    3    3    0  502  0.32214193864E+02 -0.11179765371E+02 -0.50789254148E+03  0.50903592715E+03  0.00000000000E+00 0.  1.
         11    1    5    5    0    0 -0.54706643299E+02 -0.46206505905E+02  0.56611139587E+03  0.57062244133E+03  0.00000000000E+00 0.  1.
        -11    1    5    5    0    0 -0.13013440150E+02 -0.10561976483E+03  0.39173703405E+03  0.40593446293E+03  0.00000000000E+00 0. -1.
          3    1    6    6  503    0  0.48431236901E+01  0.11524562295E+03 -0.69837041251E+02  0.13484146909E+03  0.00000000000E+00 0. -1.
         -3    1    6    6    0  503  0.29063160637E+02  0.14376269338E+02 -0.85061492060E+02  0.91031872757E+02  0.00000000000E+00 0.  1.
<mgrwt>
<rscale>  0 0.18068878E+04</rscale>
<asrwt>0</asrwt>
<pdfrwt beam="1">  1        2 0.15476443E+00 0.18068878E+04</pdfrwt>
<pdfrwt beam="2">  1       -1 0.12482584E+00 0.18068878E+04</pdfrwt>
<totfact> 0.15094514E+01</totfact>
</mgrwt>
</event>
<event>
12    6  0.1457317E-007  0.3401196E+04  0.7818608E-02  0.8137613E-01
         -1   -1    0    0    0  501 -0.00000000000E+00  0.00000000000E+00  0.11250776586E+04  0.11250776586E+04  0.00000000000E+00 0.  1.
          2   -1    0    0  501    0  0.00000000000E+00 -0.00000000000E+00 -0.25705194472E+04  0.25705194472E+04  0.00000000000E+00 0. -1.
         24    2    1    2    0    0  0.50187348816E+03  0.14115466293E+04 -0.12194274470E+04  0.19331879216E+04  0.76624779799E+02 0.  0.
        254    2    1    2    0    0 -0.50187348816E+03 -0.14115466293E+04 -0.22601434153E+03  0.17624091842E+04  0.90036812763E+03 0.  0.
         23    2    4    4    0    0 -0.74304880870E+03 -0.11813140022E+04 -0.22487009495E+03  0.14165863915E+04  0.92337105889E+02 0.  0.
         23    2    4    4    0    0  0.24117532055E+03 -0.23023262705E+03 -0.11442465783E+01  0.34582279267E+03  0.91757816165E+02 0.  0.
          4    1    3    3  502    0  0.68523724526E+02  0.21581224310E+03 -0.15133687375E+03  0.27234770873E+03  0.00000000000E+00 0. -1.
         -3    1    3    3    0  502  0.43334976363E+03  0.11957343862E+04 -0.10680905733E+04  0.16608402129E+04  0.00000000000E+00 0.  1.
         11    1    5    5    0    0 -0.45645316490E+03 -0.80529062538E+03 -0.15947765085E+03  0.93929526997E+03  0.00000000000E+00 0. -1.
        -11    1    5    5    0    0 -0.28659564381E+03 -0.37602337684E+03 -0.65392444106E+02  0.47729112157E+03  0.00000000000E+00 0.  1.
          3    1    6    6  503    0  0.24536871998E+03 -0.20481785805E+03 -0.56739887116E+01  0.31966913812E+03  0.00000000000E+00 0. -1.
         -3    1    6    6    0  503 -0.41933994330E+01 -0.25414768999E+02  0.45297421333E+01  0.26153654541E+02  0.00000000000E+00 0.  1.
<mgrwt>
<rscale>  0 0.34011963E+04</rscale>
<asrwt>0</asrwt>
<pdfrwt beam="1">  1        2 0.39546453E+00 0.34011963E+04</pdfrwt>
<pdfrwt beam="2">  1       -1 0.17308887E+00 0.34011963E+04</pdfrwt>
<totfact> 0.69606818E-01</totfact>
</mgrwt>
</event>
<event>
12    6  0.1457317E-007  0.1236400E+04  0.7818608E-02  0.9081579E-01
         -1   -1    0    0    0  501 -0.00000000000E+00  0.00000000000E+00  0.15842706474E+03  0.15842706474E+03  0.00000000000E+00 0.  1.
          2   -1    0    0  501    0  0.00000000000E+00 -0.00000000000E+00 -0.24122857321E+04  0.24122857321E+04  0.00000000000E+00 0. -1.
         24    2    1    2    0    0 -0.26201700666E+03  0.10847133390E+02 -0.81014472888E+03  0.85575182623E+03  0.84888952709E+02 0.  0.
        254    2    1    2    0    0  0.26201700666E+03 -0.10847133390E+02 -0.14437139385E+04  0.17149609706E+04  0.88769962402E+03 0.  0.
         23    2    4    4    0    0  0.18144790875E+03 -0.91237279607E+02 -0.15294812784E+04  0.15456786332E+04  0.92530381902E+02 0.  0.
         23    2    4    4    0    0  0.80569097906E+02  0.80390146217E+02  0.85767339863E+02  0.16928233740E+03  0.91359279889E+02 0.  0.
          4    1    3    3  502    0 -0.23484047923E+03 -0.12459203499E+02 -0.63896345150E+03  0.68086678197E+03  0.00000000000E+00 0. -1.
         -3    1    3    3    0  502 -0.27176527427E+02  0.23306336889E+02 -0.17118127738E+03  0.17488504427E+03  0.00000000000E+00 0.  1.
         11    1    5    5    0    0  0.10966615927E+03 -0.15485440115E+02 -0.99167555600E+03  0.99784110644E+03  0.00000000000E+00 0. -1.
        -11    1    5    5    0    0  0.71781749483E+02 -0.75751839492E+02 -0.53780572237E+03  0.54783752679E+03  0.00000000000E+00 0.  1.
          3    1    6    6  503    0  0.38746987061E+02 -0.14942958585E+02  0.19515776566E+02  0.45885581096E+02  0.00000000000E+00 0. -1.
         -3    1    6    6    0  503  0.41822110845E+02  0.95333104801E+02  0.66251563297E+02  0.12339675630E+03  0.00000000000E+00 0.  1.
<mgrwt>
<rscale>  0 0.12364002E+04</rscale>
<asrwt>0</asrwt>
<pdfrwt beam="1">  1        2 0.37112084E+00 0.12364002E+04</pdfrwt>
<pdfrwt beam="2">  1       -1 0.24373398E-01 0.12364002E+04</pdfrwt>
<totfact> 0.64468276E+01</totfact>
</mgrwt>
</event>
<event>
12    6  0.1457317E-007  0.1701749E+04  0.7818608E-02  0.8760367E-01
          2   -1    0    0  501    0  0.00000000000E+00  0.00000000000E+00  0.92558541031E+03  0.92558541031E+03  0.00000000000E+00 0. -1.
         -1   -1    0    0    0  501 -0.00000000000E+00 -0.00000000000E+00 -0.78219420064E+03  0.78219420064E+03  0.00000000000E+00 0.  1.
         24    2    1    2    0    0 -0.50864327342E+03 -0.32648717021E+03  0.97363150667E+02  0.61729709229E+03  0.79147110714E+02 0.  0.
        254    2    1    2    0    0  0.50864327342E+03  0.32648717021E+03  0.46028059007E+02  0.10904825187E+04  0.90648865927E+03 0.  0.
         23    2    4    4    0    0  0.39083293106E+03 -0.26277103113E+03  0.53095064527E+02  0.48245393510E+03  0.90242555421E+02 0.  0.
         23    2    4    4    0    0  0.11781034236E+03  0.58925820134E+03 -0.70670055198E+01  0.60802858357E+03  0.92435443692E+02 0.  0.
          4    1    3    3  502    0 -0.11788875798E+03 -0.10082335973E+03  0.52818335249E+02  0.16386850113E+03  0.00000000000E+00 0. -1.
         -3    1    3    3    0  502 -0.39075451544E+03 -0.22566381048E+03  0.44544815419E+02  0.45342859116E+03  0.00000000000E+00 0.  1.
         11    1    5    5    0    0  0.17155903048E+03 -0.75169868045E+02  0.49997822587E+02  0.19386281816E+03  0.00000000000E+00 0. -1.
        -11    1    5    5    0    0  0.21927390058E+03 -0.18760116308E+03  0.30972419401E+01  0.28859111694E+03  0.00000000000E+00 0.  1.
          4    1    6    6  503    0  0.18002118204E+02  0.30455076444E+03 -0.22723049042E+02  0.30592741188E+03  0.00000000000E+00 0. -1.
         -4    1    6    6    0  503  0.99808224154E+02  0.28470743690E+03  0.15656043522E+02  0.30210117168E+03  0.00000000000E+00 0.  1.
<mgrwt>
<rscale>  0 0.17017491E+04</rscale>
<asrwt>0</asrwt>
<pdfrwt beam="1">  1        2 0.14239775E+00 0.17017491E+04</pdfrwt>
<pdfrwt beam="2">  1       -1 0.12033757E+00 0.17017491E+04</pdfrwt>
<totfact> 0.18815716E+01</totfact>
</mgrwt>
</event>
<event>
12    6  0.1457317E-007  0.1888085E+04  0.7818608E-02  0.8660810E-01
         -1   -1    0    0    0  501 -0.00000000000E+00  0.00000000000E+00  0.60718722169E+03  0.60718722169E+03  0.00000000000E+00 0.  1.
          2   -1    0    0  501    0  0.00000000000E+00 -0.00000000000E+00 -0.14677789987E+04  0.14677789987E+04  0.00000000000E+00 0. -1.
         24    2    1    2    0    0  0.66978429830E+01 -0.26462558965E+03  0.41099147156E+03  0.49536001931E+03  0.79974966347E+02 0.  0.
        254    2    1    2    0    0 -0.66978429830E+01  0.26462558965E+03 -0.12715832486E+04  0.15796062011E+04  0.89897732377E+03 0.  0.
         23    2    4    4    0    0 -0.39862768369E+03  0.12801252058E+03 -0.96449457079E+03  0.10553837436E+04  0.91070486508E+02 0.  0.
         23    2    4    4    0    0  0.39192984071E+03  0.13661306907E+03 -0.30708867781E+03  0.52422245752E+03  0.90739177030E+02 0.  0.
          4    1    3    3  502    0 -0.12472925156E+01 -0.15110858531E+03  0.30245532325E+03  0.33810439638E+03  0.00000000000E+00 0. -1.
         -3    1    3    3    0  502  0.79451354986E+01 -0.11351700434E+03  0.10853614831E+03  0.15725562293E+03  0.00000000000E+00 0.  1.
         11    1    5    5    0    0 -0.19898393086E+02  0.32056827476E+02 -0.80838031517E+02  0.89209716818E+02  0.00000000000E+00 0.  1.
        -11    1    5    5    0    0 -0.37872929061E+03  0.95955693103E+02 -0.88365653927E+03  0.96617402677E+03  0.00000000000E+00 0. -1.
          1    1    6    6  503    0  0.37928445212E+03  0.14635895120E+03 -0.30475444956E+03  0.50808750501E+03  0.00000000000E+00 0. -1.
         -1    1    6    6    0  503  0.12645388585E+02 -0.97458821299E+01 -0.23342282501E+01  0.16134952509E+02  0.00000000000E+00 0.  1.
<mgrwt>
<rscale>  0 0.18880854E+04</rscale>
<asrwt>0</asrwt>
<pdfrwt beam="1">  1        2 0.22581215E+00 0.18880854E+04</pdfrwt>
<pdfrwt beam="2">  1       -1 0.93413420E-01 0.18880854E+04</pdfrwt>
<totfact> 0.15725894E+01</totfact>
</mgrwt>
</event>
<event>
12    6  0.1457317E-007  0.1525229E+04  0.7818608E-02  0.8867847E-01
          2   -1    0    0  501    0  0.00000000000E+00  0.00000000000E+00  0.24447501540E+04  0.24447501540E+04  0.00000000000E+00 0. -1.
         -1   -1    0    0    0  501 -0.00000000000E+00 -0.00000000000E+00 -0.23788965892E+03  0.23788965892E+03  0.00000000000E+00 0.  1.
         24    2    1    2    0    0  0.98530163221E+02 -0.25665988823E+03  0.21602238977E+01  0.28795982568E+03  0.85637044278E+02 0.  0.
        254    2    1    2    0    0 -0.98530163221E+02  0.25665988823E+03  0.22047002712E+04  0.23946799872E+04  0.89342401143E+03 0.  0.
         23    2    4    4    0    0  0.26993266453E+03  0.28547458009E+03  0.47353485925E+03  0.62216102778E+03  0.92139580553E+02 0.  0.
         23    2    4    4    0    0 -0.36846282775E+03 -0.28814691864E+02  0.17311654119E+04  0.17725189594E+04  0.91074893606E+02 0.  0.
          4    1    3    3  502    0  0.25903029157E+02 -0.75217083456E+01  0.87833698538E+01  0.28367068970E+02  0.00000000000E+00 0. -1.
         -3    1    3    3    0  502  0.72627134063E+02 -0.24913817988E+03 -0.66231459561E+01  0.25959275671E+03  0.00000000000E+00 0.  1.
         11    1    5    5    0    0  0.16567877768E+03  0.11483012812E+03  0.20683471523E+03  0.28881830815E+03  0.00000000000E+00 0. -1.
        -11    1    5    5    0    0  0.10425388686E+03  0.17064445197E+03  0.26670014402E+03  0.33334271963E+03  0.00000000000E+00 0.  1.
          3    1    6    6  503    0 -0.30731212851E+03 -0.12800478138E+02  0.15604885610E+04  0.15905122275E+04  0.00000000000E+00 0. -1.
         -3    1    6    6    0  503 -0.61150699241E+02 -0.16014213726E+02  0.17067685087E+03  0.18200673197E+03  0.00000000000E+00 0.  1.
<mgrwt>
<rscale>  0 0.15252289E+04</rscale>
<asrwt>0</asrwt>
<pdfrwt beam="1">  1        2 0.37611539E+00 0.15252289E+04</pdfrwt>
<pdfrwt beam="2">  1       -1 0.36598411E-01 0.15252289E+04</pdfrwt>
<totfact> 0.29530418E+01</totfact>
</mgrwt>
</event>
<event>
12    6  0.1457317E-007  0.2409937E+04  0.7818608E-02  0.8435793E-01
         -1   -1    0    0    0  501 -0.00000000000E+00  0.00000000000E+00  0.66123492171E+03  0.66123492171E+03  0.00000000000E+00 0.  1.
          2   -1    0    0  501    0  0.00000000000E+00 -0.00000000000E+00 -0.21958137115E+04  0.21958137115E+04  0.00000000000E+00 0. -1.
         24    2    1    2    0    0  0.34939214381E+03  0.91448330313E+03 -0.10744172795E+04  0.14556817942E+04  0.79261677848E+02 0.  0.
        254    2    1    2    0    0 -0.34939214381E+03 -0.91448330313E+03 -0.46016151021E+03  0.14013668390E+04  0.89091291380E+03 0.  0.
         23    2    4    4    0    0 -0.34909722465E+03 -0.76678073625E+03 -0.70428687355E+03  0.11019748861E+04  0.92233831650E+02 0.  0.
         23    2    4    4    0    0 -0.29491916325E+00 -0.14770256689E+03  0.24412536334E+03  0.29939195281E+03  0.90676419982E+02 0.  0.
          4    1    3    3  502    0  0.12717523915E+03  0.29641606100E+03 -0.40666022036E+03  0.51904581445E+03  0.00000000000E+00 0. -1.
         -3    1    3    3    0  502  0.22221690466E+03  0.61806724213E+03 -0.66775705917E+03  0.93663597976E+03  0.00000000000E+00 0.  1.
         11    1    5    5    0    0 -0.13238887288E+03 -0.25503857662E+03 -0.18770876736E+03  0.34322888948E+03  0.00000000000E+00 0.  1.
        -11    1    5    5    0    0 -0.21670835177E+03 -0.51174215963E+03 -0.51657810619E+03  0.75874599667E+03  0.00000000000E+00 0. -1.
          4    1    6    6  503    0 -0.24948741053E+02 -0.42985582671E+02  0.14434637807E+03  0.15266327934E+03  0.00000000000E+00 0. -1.
         -4    1    6    6    0  503  0.24653821889E+02 -0.10471698422E+03  0.99778985273E+02  0.14672867347E+03  0.00000000000E+00 0.  1.
<mgrwt>
<rscale>  0 0.24099367E+04</rscale>
<asrwt>0</asrwt>
<pdfrwt beam="1">  1        2 0.33781750E+00 0.24099367E+04</pdfrwt>
<pdfrwt beam="2">  1       -1 0.10172845E+00 0.24099367E+04</pdfrwt>
<totfact> 0.48623919E+00</totfact>
</mgrwt>
</event>
<event>
12    6  0.1457317E-007  0.2816766E+04  0.7818608E-02  0.8298082E-01
          2   -1    0    0  501    0  0.00000000000E+00  0.00000000000E+00  0.24850631717E+04  0.24850631717E+04  0.00000000000E+00 0. -1.
         -1   -1    0    0    0  501 -0.00000000000E+00 -0.00000000000E+00 -0.79818601963E+03  0.79818601963E+03  0.00000000000E+00 0.  1.
         24    2    1    2    0    0 -0.47004986429E+03 -0.37514580470E+03  0.20506486433E+04  0.21387838846E+04  0.86921787347E+02 0.  0.
        254    2    1    2    0    0  0.47004986429E+03  0.37514580470E+03 -0.36377149117E+03  0.11444653068E+04  0.90321087844E+03 0.  0.
         23    2    4    4    0    0  0.25909284158E+03  0.81109541572E+02  0.28041125379E+03  0.40001128284E+03  0.87582514579E+02 0.  0.
         23    2    4    4    0    0  0.21095702271E+03  0.29403626313E+03 -0.64418274496E+03  0.74445402394E+03  0.90995578968E+02 0.  0.
          2    1    3    3  502    0 -0.43614330552E+03 -0.31841078881E+03  0.17752063403E+04  0.18555225582E+04  0.00000000000E+00 0. -1.
         -1    1    3    3    0  502 -0.33906558774E+02 -0.56735015887E+02  0.27544230298E+03  0.28326132638E+03  0.00000000000E+00 0.  1.
         11    1    5    5    0    0  0.11948577852E+03  0.80899111767E+02  0.16204200948E+03  0.21697725777E+03  0.00000000000E+00 0. -1.
        -11    1    5    5    0    0  0.13960706306E+03  0.21042980430E+00  0.11836924431E+03  0.18303402508E+03  0.00000000000E+00 0.  1.
          2    1    6    6  503    0  0.20988619042E+03  0.28841761273E+03 -0.64642505085E+03  0.73831042159E+03  0.00000000000E+00 0. -1.
         -2    1    6    6    0  503  0.10708322868E+01  0.56186504022E+01  0.22423058911E+01  0.61436023502E+01  0.00000000000E+00 0.  1.
<mgrwt>
<rscale>  0 0.28167660E+04</rscale>
<asrwt>0</asrwt>
<pdfrwt beam="1">  1        2 0.38231741E+00 0.28167660E+04</pdfrwt>
<pdfrwt beam="2">  1       -1 0.12279785E+00 0.28167660E+04</pdfrwt>
<totfact> 0.20514199E+00</totfact>
</mgrwt>
</event>
<event>
12    6  0.1457317E-007  0.2352735E+04  0.7818608E-02  0.8457414E-01
          2   -1    0    0  501    0  0.00000000000E+00  0.00000000000E+00  0.36660751071E+04  0.36660751071E+04  0.00000000000E+00 0. -1.
         -1   -1    0    0    0  501 -0.00000000000E+00 -0.00000000000E+00 -0.37747205361E+03  0.37747205361E+03  0.00000000000E+00 0.  1.
         24    2    1    2    0    0 -0.87387911423E+03  0.43824961183E+03  0.17121635757E+04  0.19731644484E+04  0.78398992493E+02 0.  0.
        254    2    1    2    0    0  0.87387911423E+03 -0.43824961183E+03  0.15764394777E+04  0.20703827122E+04  0.91956278718E+03 0.  0.
         23    2    4    4    0    0  0.47772469664E+03 -0.62281696126E+03  0.13618804278E+04  0.15750272635E+04  0.99351538881E+02 0.  0.
         23    2    4    4    0    0  0.39615441759E+03  0.18456734943E+03  0.21455904993E+03  0.49535544868E+03  0.91312680260E+02 0.  0.
          4    1    3    3  502    0 -0.73056296824E+03  0.33300095443E+03  0.14102926415E+04  0.16228176795E+04  0.00000000000E+00 0. -1.
         -3    1    3    3    0  502 -0.14331614599E+03  0.10524865740E+03  0.30187093426E+03  0.35034676898E+03  0.00000000000E+00 0.  1.
         11    1    5    5    0    0  0.15514541827E+03 -0.28044438266E+03  0.57321189031E+03  0.65672751105E+03  0.00000000000E+00 0. -1.
        -11    1    5    5    0    0  0.32257927837E+03 -0.34237257860E+03  0.78866853748E+03  0.91829975249E+03  0.00000000000E+00 0.  1.
          1    1    6    6  503    0  0.34349364856E+03  0.13352223945E+03  0.20409440966E+03  0.42127259949E+03  0.00000000000E+00 0. -1.
         -1    1    6    6    0  503  0.52660769025E+02  0.51045109977E+02  0.10464640273E+02  0.74082849182E+02  0.00000000000E+00 0.  1.
<mgrwt>
<rscale>  0 0.23527353E+04</rscale>
<asrwt>0</asrwt>
<pdfrwt beam="1">  1        2 0.56401153E+00 0.23527353E+04</pdfrwt>
<pdfrwt beam="2">  1       -1 0.58072626E-01 0.23527353E+04</pdfrwt>
<totfact> 0.19131608E+00</totfact>
</mgrwt>
</event>
<event>
12    6  0.1457317E-007  0.2519475E+04  0.7818608E-02  0.8396080E-01
          2   -1    0    0  501    0  0.00000000000E+00  0.00000000000E+00  0.20656274064E+04  0.20656274064E+04  0.00000000000E+00 0. -1.
         -1   -1    0    0    0  501 -0.00000000000E+00 -0.00000000000E+00 -0.76825954816E+03  0.76825954816E+03  0.00000000000E+00 0.  1.
         24    2    1    2    0    0  0.78159381392E+03 -0.21168096692E+03  0.13999111819E+04  0.16192527201E+04  0.80810472979E+02 0.  0.
        254    2    1    2    0    0 -0.78159381392E+03  0.21168096692E+03 -0.10254332365E+03  0.12146342345E+04  0.89951290636E+03 0.  0.
         23    2    4    4    0    0 -0.52681111518E+03 -0.17099186424E+03  0.26279235531E+03  0.62003920423E+03  0.92847315869E+02 0.  0.
         23    2    4    4    0    0 -0.25478269874E+03  0.38267283116E+03 -0.36533567896E+03  0.59459503028E+03  0.93382934333E+02 0.  0.
          4    1    3    3  502    0  0.74496252431E+03 -0.19859055987E+03  0.12920728760E+04  0.15046128040E+04  0.00000000000E+00 0. -1.
         -3    1    3    3    0  502  0.36631289608E+02 -0.13090407047E+02  0.10783830592E+03  0.11463991608E+03  0.00000000000E+00 0.  1.
         11    1    5    5    0    0 -0.47487159819E+03 -0.17875752076E+03  0.22347439523E+03  0.55443492974E+03  0.00000000000E+00 0.  1.
        -11    1    5    5    0    0 -0.51939516988E+02  0.77656565233E+01  0.39317960081E+02  0.65604274488E+02  0.00000000000E+00 0. -1.
          1    1    6    6  503    0 -0.16561054283E+02  0.13404844165E+02 -0.48109561232E+02  0.52616425648E+02  0.00000000000E+00 0. -1.
         -1    1    6    6    0  503 -0.23822164446E+03  0.36926798700E+03 -0.31722611772E+03  0.54197860463E+03  0.00000000000E+00 0.  1.
<mgrwt>
<rscale>  0 0.25194745E+04</rscale>
<asrwt>0</asrwt>
<pdfrwt beam="1">  1        2 0.31778883E+00 0.25194745E+04</pdfrwt>
<pdfrwt beam="2">  1       -1 0.11819378E+00 0.25194745E+04</pdfrwt>
<totfact> 0.39972535E+00</totfact>
</mgrwt>
</event>
<event>
12    6  0.1457317E-007  0.1622466E+04  0.7818608E-02  0.8806864E-01
          2   -1    0    0  501    0  0.00000000000E+00  0.00000000000E+00  0.18060497162E+04  0.18060497162E+04  0.00000000000E+00 0. -1.
         -1   -1    0    0    0  501 -0.00000000000E+00 -0.00000000000E+00 -0.36438572375E+03  0.36438572375E+03  0.00000000000E+00 0.  1.
         24    2    1    2    0    0 -0.47326717002E+03  0.28843924049E+03  0.45544612274E+03  0.72175423686E+03  0.79492125624E+02 0.  0.
        254    2    1    2    0    0  0.47326717002E+03 -0.28843924049E+03  0.98621786975E+03  0.14486812031E+04  0.90491575963E+03 0.  0.
         23    2    4    4    0    0  0.60318009452E+03  0.11973166846E+03  0.53290172551E+03  0.81839389731E+03  0.87306490258E+02 0.  0.
         23    2    4    4    0    0 -0.12991292450E+03 -0.40817090895E+03  0.45331614424E+03  0.63028730583E+03  0.91025833615E+02 0.  0.
          4    1    3    3  502    0 -0.46478839058E+03  0.29016738537E+03  0.45631730419E+03  0.71305739016E+03  0.00000000000E+00 0. -1.
         -3    1    3    3    0  502 -0.84787794357E+01 -0.17281448805E+01 -0.87118145306E+00  0.86968467027E+01  0.00000000000E+00 0.  1.
         11    1    5    5    0    0  0.43947103813E+03  0.56287531369E+02  0.34776222971E+03  0.56324208645E+03  0.00000000000E+00 0.  1.
        -11    1    5    5    0    0  0.16370905639E+03  0.63444137094E+02  0.18513949580E+03  0.25515181086E+03  0.00000000000E+00 0. -1.
          1    1    6    6  503    0 -0.29126826967E+02 -0.20825537270E+03  0.17857010167E+03  0.27587307501E+03  0.00000000000E+00 0. -1.
         -1    1    6    6    0  503 -0.10078609754E+03 -0.19991553626E+03  0.27474604257E+03  0.35441423081E+03  0.00000000000E+00 0.  1.
<mgrwt>
<rscale>  0 0.16224657E+04</rscale>
<asrwt>0</asrwt>
<pdfrwt beam="1">  1        2 0.27785380E+00 0.16224657E+04</pdfrwt>
<pdfrwt beam="2">  1       -1 0.56059343E-01 0.16224657E+04</pdfrwt>
<totfact> 0.30057320E+01</totfact>
</mgrwt>
</event>
<event>
12    6  0.1457317E-007  0.2203383E+04  0.7818608E-02  0.8517021E-01
          2   -1    0    0  501    0  0.00000000000E+00  0.00000000000E+00  0.17744190567E+04  0.17744190567E+04  0.00000000000E+00 0. -1.
         -1   -1    0    0    0  501 -0.00000000000E+00 -0.00000000000E+00 -0.68401192184E+03  0.68401192184E+03  0.00000000000E+00 0.  1.
         24    2    1    2    0    0  0.88971088939E+03  0.11833145716E+03  0.67122339238E+03  0.11237429419E+04  0.81667352382E+02 0.  0.
        254    2    1    2    0    0 -0.88971088939E+03 -0.11833145716E+03  0.41918374248E+03  0.13346880367E+04  0.89447713489E+03 0.  0.
         23    2    4    4    0    0 -0.83198673147E+03  0.14992948301E+03  0.55521543043E+03  0.10156813269E+04  0.93078527989E+02 0.  0.
         23    2    4    4    0    0 -0.57724157920E+02 -0.26826094017E+03 -0.13603168795E+03  0.31900670980E+03  0.89244889709E+02 0.  0.
          2    1    3    3  502    0  0.64884916203E+02 -0.91057761184E+01  0.64168582592E+02  0.91709184389E+02  0.00000000000E+00 0. -1.
         -1    1    3    3    0  502  0.82482597319E+03  0.12743723328E+03  0.60705480979E+03  0.10320337575E+04  0.00000000000E+00 0.  1.
         11    1    5    5    0    0 -0.21280925304E+03  0.76062010927E+02  0.12693830000E+03  0.25920366450E+03  0.00000000000E+00 0. -1.
        -11    1    5    5    0    0 -0.61917747843E+03  0.73867472082E+02  0.42827713043E+03  0.75647766238E+03  0.00000000000E+00 0.  1.
          3    1    6    6  503    0 -0.40594652010E+02 -0.49534331188E+02 -0.57227423895E+02  0.85886866189E+02  0.00000000000E+00 0. -1.
         -3    1    6    6    0  503 -0.17129505910E+02 -0.21872660898E+03 -0.78804264053E+02  0.23311984361E+03  0.00000000000E+00 0.  1.
<mgrwt>
<rscale>  0 0.22033827E+04</rscale>
<asrwt>0</asrwt>
<pdfrwt beam="1">  1        2 0.27298755E+00 0.22033827E+04</pdfrwt>
<pdfrwt beam="2">  1       -1 0.10523260E+00 0.22033827E+04</pdfrwt>
<totfact> 0.78565017E+00</totfact>
</mgrwt>
</event>
<event>
12    6  0.1457317E-007  0.1855686E+04  0.7818608E-02  0.8677234E-01
          2   -1    0    0  501    0  0.00000000000E+00  0.00000000000E+00  0.14417363763E+04  0.14417363763E+04  0.00000000000E+00 0. -1.
         -1   -1    0    0    0  501 -0.00000000000E+00 -0.00000000000E+00 -0.59712195198E+03  0.59712195198E+03  0.00000000000E+00 0.  1.
         24    2    1    2    0    0  0.21764830858E+03 -0.38706313597E+03 -0.28049897694E+03  0.53139245471E+03  0.80682138074E+02 0.  0.
        254    2    1    2    0    0 -0.21764830858E+03  0.38706313597E+03  0.11251134013E+04  0.15074658736E+04  0.89965801108E+03 0.  0.
         23    2    4    4    0    0 -0.34109482626E+03  0.21238317005E+03  0.57171490995E+02  0.41400380649E+03  0.81720750007E+02 0.  0.
         23    2    4    4    0    0  0.12344651769E+03  0.17467996592E+03  0.10679419103E+04  0.10934620671E+04  0.96990902954E+02 0.  0.
          2    1    3    3  502    0  0.29722063882E+02 -0.78271691193E+02 -0.20727634014E+02  0.86252498720E+02  0.00000000000E+00 0. -1.
         -1    1    3    3    0  502  0.18792624469E+03 -0.30879144478E+03 -0.25977134292E+03  0.44513995599E+03  0.00000000000E+00 0.  1.
         11    1    5    5    0    0 -0.14485641019E+03  0.10900909627E+03  0.63562202590E+02  0.19211068747E+03  0.00000000000E+00 0. -1.
        -11    1    5    5    0    0 -0.19623841607E+03  0.10337407378E+03 -0.63907115955E+01  0.22189311902E+03  0.00000000000E+00 0.  1.
          3    1    6    6  503    0  0.10236596560E+03  0.65302386017E+02  0.62856154403E+03  0.64018185476E+03  0.00000000000E+00 0. -1.
         -3    1    6    6    0  503  0.21080552085E+02  0.10937757990E+03  0.43938036626E+03  0.45328021236E+03  0.00000000000E+00 0.  1.
<mgrwt>
<rscale>  0 0.18556858E+04</rscale>
<asrwt>0</asrwt>
<pdfrwt beam="1">  1        2 0.22180560E+00 0.18556858E+04</pdfrwt>
<pdfrwt beam="2">  1       -1 0.91864916E-01 0.18556858E+04</pdfrwt>
<totfact> 0.16934326E+01</totfact>
</mgrwt>
</event>
<event>
12    6  0.1457317E-007  0.1171660E+04  0.7818608E-02  0.9138031E-01
          2   -1    0    0  501    0  0.00000000000E+00  0.00000000000E+00  0.13739819345E+04  0.13739819345E+04  0.00000000000E+00 0. -1.
         -1   -1    0    0    0  501 -0.00000000000E+00 -0.00000000000E+00 -0.24978243250E+03  0.24978243250E+03  0.00000000000E+00 0.  1.
         24    2    1    2    0    0 -0.22400821999E+03  0.52159127417E+02  0.16374824190E+03  0.29329742450E+03  0.79433212814E+02 0.  0.
        254    2    1    2    0    0  0.22400821999E+03 -0.52159127417E+02  0.96045126012E+03  0.13304669425E+04  0.89150176941E+03 0.  0.
         23    2    4    4    0    0 -0.14365198887E+03  0.16612962769E+03 -0.36327703106E+02  0.24182302136E+03  0.94465467458E+02 0.  0.
         23    2    4    4    0    0  0.36766020886E+03 -0.21828875510E+03  0.99677896323E+03  0.10886439212E+04  0.93558942678E+02 0.  0.
          4    1    3    3  502    0 -0.37152075969E+02  0.35007643529E+02  0.60383172248E+02  0.79069206048E+02  0.00000000000E+00 0. -1.
         -3    1    3    3    0  502 -0.18685614402E+03  0.17151483888E+02  0.10336506966E+03  0.21422821846E+03  0.00000000000E+00 0.  1.
         11    1    5    5    0    0 -0.42355106626E+02  0.46998734279E+01 -0.28139765636E+02  0.51067507063E+02  0.00000000000E+00 0.  1.
        -11    1    5    5    0    0 -0.10129688225E+03  0.16142975426E+03 -0.81879374698E+01  0.19075551429E+03  0.00000000000E+00 0. -1.
          2    1    6    6  503    0  0.28500351152E+03 -0.20164836609E+03  0.85726959463E+03  0.92563503769E+03  0.00000000000E+00 0. -1.
         -2    1    6    6    0  503  0.82656697346E+02 -0.16640389015E+02  0.13950936859E+03  0.16300888346E+03  0.00000000000E+00 0.  1.
<mgrwt>
<rscale>  0 0.11716596E+04</rscale>
<asrwt>0</asrwt>
<pdfrwt beam="1">  1        2 0.21138183E+00 0.11716596E+04</pdfrwt>
<pdfrwt beam="2">  1       -1 0.38428067E-01 0.11716596E+04</pdfrwt>
<totfact> 0.11050507E+02</totfact>
</mgrwt>
</event>
<event>
12    6  0.1457317E-007  0.2876752E+04  0.7818608E-02  0.8279828E-01
         -1   -1    0    0    0  501 -0.00000000000E+00  0.00000000000E+00  0.67877290713E+03  0.67877290713E+03  0.00000000000E+00 0.  1.
          2   -1    0    0  501    0  0.00000000000E+00 -0.00000000000E+00 -0.30480385197E+04  0.30480385197E+04  0.00000000000E+00 0. -1.
         24    2    1    2    0    0 -0.73104255996E+03  0.14923010299E+03 -0.24501604567E+04  0.25624600772E+04  0.78883052436E+02 0.  0.
        254    2    1    2    0    0  0.73104255996E+03 -0.14923010299E+03  0.80894844101E+02  0.11643513496E+04  0.89021190813E+03 0.  0.
         23    2    4    4    0    0  0.28442934463E+03 -0.35885911569E+03  0.36040743423E+03  0.58982227354E+03  0.91196922737E+02 0.  0.
         23    2    4    4    0    0  0.44661321532E+03  0.20962901271E+03 -0.27951259013E+03  0.57452907604E+03  0.92459094252E+02 0.  0.
          2    1    3    3  502    0 -0.31651795265E+03  0.28912659077E+02 -0.10982355310E+04  0.11433026011E+04  0.00000000000E+00 0. -1.
         -1    1    3    3    0  502 -0.41452460730E+03  0.12031744391E+03 -0.13519249257E+04  0.14191574761E+04  0.00000000000E+00 0.  1.
         11    1    5    5    0    0  0.28260784984E+03 -0.32891784263E+03  0.35237571451E+03  0.55876899356E+03  0.00000000000E+00 0. -1.
        -11    1    5    5    0    0  0.18214947981E+01 -0.29941273064E+02  0.80317197142E+01  0.31053279981E+02  0.00000000000E+00 0.  1.
          4    1    6    6  503    0  0.33165858660E+03  0.11199184772E+03 -0.17787862405E+03  0.39265811709E+03  0.00000000000E+00 0. -1.
         -4    1    6    6    0  503  0.11495462873E+03  0.97637164982E+02 -0.10163396607E+03  0.18187095896E+03  0.00000000000E+00 0.  1.
<mgrwt>
<rscale>  0 0.28767523E+04</rscale>
<asrwt>0</asrwt>
<pdfrwt beam="1">  1        2 0.46892901E+00 0.28767523E+04</pdfrwt>
<pdfrwt beam="2">  1       -1 0.10442660E+00 0.28767523E+04</pdfrwt>
<totfact> 0.13752826E+00</totfact>
</mgrwt>
</event>
<event>
12    6  0.1537539E-007  0.3387738E+04  0.7818608E-02  0.8140922E-01
         -1   -1    0    0    0  501 -0.00000000000E+00  0.00000000000E+00  0.13849369728E+04  0.13849369728E+04  0.00000000000E+00 0.  1.
          2   -1    0    0  501    0  0.00000000000E+00 -0.00000000000E+00 -0.20717128066E+04  0.20717128066E+04  0.00000000000E+00 0. -1.
         24    2    1    2    0    0  0.11605914422E+04 -0.51277686851E+03 -0.12673167564E+04  0.17951550640E+04  0.81100741224E+02 0.  0.
        254    2    1    2    0    0 -0.11605914422E+04  0.51277686851E+03  0.58054092255E+03  0.16614947154E+04  0.90201126047E+03 0.  0.
         23    2    4    4    0    0 -0.36535696154E+03 -0.11700337966E+03 -0.13281498089E+03  0.41806844573E+03  0.99829384287E+02 0.  0.
         23    2    4    4    0    0 -0.79523448070E+03  0.62978024817E+03  0.71335590344E+03  0.12434262697E+04  0.90615688308E+02 0.  0.
          2    1    3    3  502    0  0.96554274785E+03 -0.40661684285E+03 -0.10095468341E+04  0.14549209137E+04  0.00000000000E+00 0. -1.
         -1    1    3    3    0  502  0.19504869438E+03 -0.10616002566E+03 -0.25776992231E+03  0.34023415036E+03  0.00000000000E+00 0.  1.
         11    1    5    5    0    0 -0.18034854803E+03 -0.77328633339E+02 -0.18725599147E+02  0.19711916288E+03  0.00000000000E+00 0.  1.
        -11    1    5    5    0    0 -0.18500841351E+03 -0.39674746323E+02 -0.11408938174E+03  0.22094928285E+03  0.00000000000E+00 0. -1.
          1    1    6    6  503    0 -0.63267162635E+03  0.45481063151E+03  0.56115671995E+03  0.96022026727E+03  0.00000000000E+00 0. -1.
         -1    1    6    6    0  503 -0.16256285434E+03  0.17496961666E+03  0.15219918349E+03  0.28320600244E+03  0.00000000000E+00 0.  1.
<mgrwt>
<rscale>  0 0.33877377E+04</rscale>
<asrwt>0</asrwt>
<pdfrwt beam="1">  1        2 0.31872504E+00 0.33877377E+04</pdfrwt>
<pdfrwt beam="2">  1       -1 0.21306723E+00 0.33877377E+04</pdfrwt>
<totfact> 0.70428778E-01</totfact>
</mgrwt>
</event>
<event>
12    6  0.1457317E-007  0.2092941E+04  0.7818608E-02  0.8564360E-01
         -1   -1    0    0    0  501 -0.00000000000E+00  0.00000000000E+00  0.13332537517E+04  0.13332537517E+04  0.00000000000E+00 0.  1.
          2   -1    0    0  501    0  0.00000000000E+00 -0.00000000000E+00 -0.82137403373E+03  0.82137403373E+03  0.00000000000E+00 0. -1.
         24    2    1    2    0    0  0.35612740778E+03 -0.32344042784E+03  0.93107765244E+03  0.10510859600E+04  0.80222562418E+02 0.  0.
        254    2    1    2    0    0 -0.35612740778E+03  0.32344042784E+03 -0.41919793447E+03  0.11035418254E+04  0.90035393666E+03 0.  0.
         23    2    4    4    0    0 -0.26387039451E+03 -0.13415789996E+03  0.16402450578E+03  0.35089855892E+03  0.92735284194E+02 0.  0.
         23    2    4    4    0    0 -0.92257013268E+02  0.45759832780E+03 -0.58322244025E+03  0.75264326650E+03  0.91738136571E+02 0.  0.
          2    1    3    3  502    0  0.19434888221E+02 -0.47367906727E+02  0.12158035506E+03  0.13192125001E+03  0.00000000000E+00 0. -1.
         -1    1    3    3    0  502  0.33669251956E+03 -0.27607252112E+03  0.80949729739E+03  0.91916471000E+03  0.00000000000E+00 0.  1.
         11    1    5    5    0    0 -0.32329512875E+01  0.86586794764E+01  0.16929747863E+02  0.19288366105E+02  0.00000000000E+00 0.  1.
        -11    1    5    5    0    0 -0.26063744322E+03 -0.14281657943E+03  0.14709475791E+03  0.33161019281E+03  0.00000000000E+00 0. -1.
          1    1    6    6  503    0 -0.11023916637E+03  0.41570822070E+03 -0.52341959201E+03  0.67744672695E+03  0.00000000000E+00 0. -1.
         -1    1    6    6    0  503  0.17982153100E+02  0.41890107096E+02 -0.59802848238E+02  0.75196539548E+02  0.00000000000E+00 0.  1.
<mgrwt>
<rscale>  0 0.20929405E+04</rscale>
<asrwt>0</asrwt>
<pdfrwt beam="1">  1        2 0.12636524E+00 0.20929405E+04</pdfrwt>
<pdfrwt beam="2">  1       -1 0.20511596E+00 0.20929405E+04</pdfrwt>
<totfact> 0.48553038E+00</totfact>
</mgrwt>
</event>
<event>
12    6  0.1457317E-007  0.1368811E+04  0.7818608E-02  0.8976709E-01
          2   -1    0    0  501    0  0.00000000000E+00  0.00000000000E+00  0.17405399101E+04  0.17405399101E+04  0.00000000000E+00 0. -1.
         -1   -1    0    0    0  501 -0.00000000000E+00 -0.00000000000E+00 -0.26911812920E+03  0.26911812920E+03  0.00000000000E+00 0.  1.
         24    2    1    2    0    0 -0.18541524844E+03 -0.30134337416E+03  0.20157583688E+03  0.41544042729E+03  0.82287830898E+02 0.  0.
        254    2    1    2    0    0  0.18541524844E+03  0.30134337416E+03  0.12698459441E+04  0.15942176120E+04  0.89656813987E+03 0.  0.
         23    2    4    4    0    0 -0.33780430990E+03 -0.79366209926E+01  0.47465371227E+03  0.58921994028E+03  0.87802333173E+02 0.  0.
         23    2    4    4    0    0  0.52321955834E+03  0.30927999515E+03  0.79519223178E+03  0.10049976718E+04  0.90976992409E+02 0.  0.
          2    1    3    3  502    0 -0.22556899601E+02 -0.89345022471E+02  0.78871834403E+02  0.12129349950E+03  0.00000000000E+00 0. -1.
         -3    1    3    3    0  502 -0.16285834884E+03 -0.21199835169E+03  0.12270400248E+03  0.29414692779E+03  0.00000000000E+00 0.  1.
         11    1    5    5    0    0  0.10502501847E+01  0.79629658105E-01  0.30449492584E+02  0.30467703638E+02  0.00000000000E+00 0. -1.
        -11    1    5    5    0    0 -0.33885456008E+03 -0.80162506507E+01  0.44420421969E+03  0.55875223664E+03  0.00000000000E+00 0.  1.
          3    1    6    6  503    0  0.13532191540E+03  0.66744021002E+02  0.13955115453E+03  0.20552690787E+03  0.00000000000E+00 0. -1.
         -3    1    6    6    0  503  0.38789764293E+03  0.24253597415E+03  0.65564107725E+03  0.79947076390E+03  0.00000000000E+00 0.  1.
<mgrwt>
<rscale>  0 0.13688109E+04</rscale>
<asrwt>0</asrwt>
<pdfrwt beam="1">  1        2 0.26777536E+00 0.13688109E+04</pdfrwt>
<pdfrwt beam="2">  1       -1 0.41402790E-01 0.13688109E+04</pdfrwt>
<totfact> 0.59152298E+01</totfact>
</mgrwt>
</event>
<event>
12    6  0.1457317E-007  0.1550299E+04  0.7818608E-02  0.8851677E-01
         -1   -1    0    0    0  501 -0.00000000000E+00  0.00000000000E+00  0.89355801161E+03  0.89355801161E+03  0.00000000000E+00 0.  1.
          2   -1    0    0  501    0  0.00000000000E+00 -0.00000000000E+00 -0.67243193916E+03  0.67243193916E+03  0.00000000000E+00 0. -1.
         24    2    1    2    0    0 -0.37928029755E+03 -0.33043381323E+03 -0.34470722281E+02  0.51024793188E+03  0.78260285368E+02 0.  0.
        254    2    1    2    0    0  0.37928029755E+03  0.33043381323E+03  0.25559679473E+03  0.10557420189E+04  0.89231241162E+03 0.  0.
         23    2    4    4    0    0  0.11969486809E+03  0.30518395045E+03  0.55397227071E+03  0.64988667206E+03  0.89461191276E+02 0.  0.
         23    2    4    4    0    0  0.25958542946E+03  0.25249862772E+02 -0.29837547598E+03  0.40585534682E+03  0.87569898501E+02 0.  0.
          2    1    3    3  502    0 -0.33298167812E+03 -0.27082106283E+03 -0.50573308763E+01  0.42923935354E+03  0.00000000000E+00 0. -1.
         -1    1    3    3    0  502 -0.46298619431E+02 -0.59612750392E+02 -0.29413391405E+02  0.81008578339E+02  0.00000000000E+00 0.  1.
         11    1    5    5    0    0  0.12099925514E+03  0.29470697655E+03  0.48607134885E+03  0.58116983571E+03  0.00000000000E+00 0.  1.
        -11    1    5    5    0    0 -0.13043870502E+01  0.10476973902E+02  0.67900921864E+02  0.68716836348E+02  0.00000000000E+00 0. -1.
          2    1    6    6  503    0  0.58640998345E+02  0.28994979309E+02 -0.33896642045E+02  0.73678069016E+02  0.00000000000E+00 0. -1.
         -2    1    6    6    0  503  0.20094443111E+03 -0.37451165372E+01 -0.26447883393E+03  0.33217727781E+03  0.00000000000E+00 0.  1.
<mgrwt>
<rscale>  0 0.15502993E+04</rscale>
<asrwt>0</asrwt>
<pdfrwt beam="1">  1        2 0.10345107E+00 0.15502993E+04</pdfrwt>
<pdfrwt beam="2">  1       -1 0.13747046E+00 0.15502993E+04</pdfrwt>
<totfact> 0.20834869E+01</totfact>
</mgrwt>
</event>
<event>
12    6  0.1457317E-007  0.2181446E+04  0.7818608E-02  0.8526191E-01
         -1   -1    0    0    0  501 -0.00000000000E+00  0.00000000000E+00  0.45457601665E+03  0.45457601665E+03  0.00000000000E+00 0.  1.
          2   -1    0    0  501    0  0.00000000000E+00 -0.00000000000E+00 -0.26171126849E+04  0.26171126849E+04  0.00000000000E+00 0. -1.
         24    2    1    2    0    0 -0.17812927445E+03 -0.80590812968E+03 -0.37778975790E+03  0.91068900461E+03  0.73562286889E+02 0.  0.
        254    2    1    2    0    0  0.17812927445E+03  0.80590812968E+03 -0.17847469104E+04  0.21609996969E+04  0.89631479084E+03 0.  0.
         23    2    4    4    0    0  0.30664553638E+03  0.62259724905E+03 -0.17834641637E+04  0.19158459737E+04  0.89791716805E+02 0.  0.
         23    2    4    4    0    0 -0.12851626193E+03  0.18331088063E+03 -0.12827466700E+01  0.24515372321E+03  0.99896917014E+02 0.  0.
          2    1    3    3  502    0 -0.51303781280E+02 -0.22413487789E+03 -0.14213137154E+03  0.27031435078E+03  0.00000000000E+00 0. -1.
         -1    1    3    3    0  502 -0.12682549317E+03 -0.58177325178E+03 -0.23565838636E+03  0.64037465383E+03  0.00000000000E+00 0.  1.
         11    1    5    5    0    0  0.27392752009E+03  0.53987854094E+03 -0.16252105633E+04  0.17343051924E+04  0.00000000000E+00 0. -1.
        -11    1    5    5    0    0  0.32718016285E+02  0.82718708102E+02 -0.15825360037E+03  0.18154078134E+03  0.00000000000E+00 0.  1.
          1    1    6    6  503    0 -0.98170361452E+02  0.19013330546E+03  0.76689071374E+00  0.21398290080E+03  0.00000000000E+00 0. -1.
         -1    1    6    6    0  503 -0.30345900478E+02 -0.68224248339E+01 -0.20496373837E+01  0.31170822412E+02  0.00000000000E+00 0.  1.
<mgrwt>
<rscale>  0 0.21814460E+04</rscale>
<asrwt>0</asrwt>
<pdfrwt beam="1">  1        2 0.40263273E+00 0.21814460E+04</pdfrwt>
<pdfrwt beam="2">  1       -1 0.69934771E-01 0.21814460E+04</pdfrwt>
<totfact> 0.64053845E+00</totfact>
</mgrwt>
</event>
<event>
12    6  0.1457317E-007  0.2251390E+04  0.7818608E-02  0.8497338E-01
          2   -1    0    0  501    0  0.00000000000E+00  0.00000000000E+00  0.25647699205E+04  0.25647699205E+04  0.00000000000E+00 0. -1.
         -1   -1    0    0    0  501 -0.00000000000E+00 -0.00000000000E+00 -0.49407501509E+03  0.49407501509E+03  0.00000000000E+00 0.  1.
         24    2    1    2    0    0  0.26595841810E+03 -0.18604029565E+03  0.20668429210E+04  0.20936806826E+04  0.79462374805E+02 0.  0.
        254    2    1    2    0    0 -0.26595841810E+03  0.18604029565E+03  0.38519844661E+01  0.96516425300E+03  0.90894572209E+03 0.  0.
         23    2    4    4    0    0  0.19192405383E+03 -0.23574612910E+03  0.88939207609E+02  0.33025132284E+03  0.93512960405E+02 0.  0.
         23    2    4    4    0    0 -0.45788247193E+03  0.42178642475E+03 -0.85087223143E+02  0.63491293016E+03  0.91183590245E+02 0.  0.
          4    1    3    3  502    0  0.25985075833E+03 -0.19365923453E+03  0.19892223477E+04  0.20154483035E+04  0.00000000000E+00 0. -1.
         -3    1    3    3    0  502  0.61076597684E+01  0.76189388805E+01  0.77620573294E+02  0.78232379077E+02  0.00000000000E+00 0.  1.
         11    1    5    5    0    0  0.69437664238E+02 -0.14465340912E+03  0.16540664429E+02  0.16130651433E+03  0.00000000000E+00 0. -1.
        -11    1    5    5    0    0  0.12248638959E+03 -0.91092719978E+02  0.72398543180E+02  0.16894480851E+03  0.00000000000E+00 0.  1.
          3    1    6    6  503    0 -0.15207891334E+02  0.36896806110E+02 -0.20214311786E+02  0.44735586069E+02  0.00000000000E+00 0. -1.
         -3    1    6    6    0  503 -0.44267458060E+03  0.38488961864E+03 -0.64872911357E+02  0.59017734409E+03  0.00000000000E+00 0.  1.
<mgrwt>
<rscale>  0 0.22513896E+04</rscale>
<asrwt>0</asrwt>
<pdfrwt beam="1">  1        2 0.39457998E+00 0.22513896E+04</pdfrwt>
<pdfrwt beam="2">  1       -1 0.76011542E-01 0.22513896E+04</pdfrwt>
<totfact> 0.57463445E+00</totfact>
</mgrwt>
</event>
<event>
12    6  0.1457317E-007  0.2322689E+04  0.7818608E-02  0.8469029E-01
          2   -1    0    0  501    0  0.00000000000E+00  0.00000000000E+00  0.13900446740E+04  0.13900446740E+04  0.00000000000E+00 0. -1.
         -1   -1    0    0    0  501 -0.00000000000E+00 -0.00000000000E+00 -0.97027140552E+03  0.97027140552E+03  0.00000000000E+00 0.  1.
         24    2    1    2    0    0 -0.49821674166E+03 -0.15073251627E+03  0.10328968501E+04  0.11593901257E+04  0.79808192852E+02 0.  0.
        254    2    1    2    0    0  0.49821674166E+03  0.15073251627E+03 -0.61312358157E+03  0.12009259538E+04  0.89183092966E+03 0.  0.
         23    2    4    4    0    0  0.11295011752E+03 -0.32400402023E+02  0.21525179879E+03  0.26482055462E+03  0.99945355922E+02 0.  0.
         23    2    4    4    0    0  0.38526662414E+03  0.18313291829E+03 -0.82837538036E+03  0.93610539917E+03  0.90108324455E+02 0.  0.
          4    1    3    3  502    0 -0.43283110754E+03 -0.11209021753E+03  0.92561594494E+03  0.10279454568E+04  0.00000000000E+00 0. -1.
         -3    1    3    3    0  502 -0.65385634118E+02 -0.38642298737E+02  0.10728090513E+03  0.13144466899E+03  0.00000000000E+00 0.  1.
         11    1    5    5    0    0  0.10903320769E+03 -0.52009944094E+02  0.13087029871E+03  0.17810196447E+03  0.00000000000E+00 0. -1.
        -11    1    5    5    0    0  0.39169098340E+01  0.19609542071E+02  0.84381500080E+02  0.86718590156E+02  0.00000000000E+00 0.  1.
          4    1    6    6  503    0  0.15958770130E+03  0.99636875594E+02 -0.44937555800E+03  0.48716951210E+03  0.00000000000E+00 0. -1.
         -4    1    6    6    0  503  0.22567892284E+03  0.83496042698E+02 -0.37899982236E+03  0.44893588708E+03  0.00000000000E+00 0.  1.
<mgrwt>
<rscale>  0 0.23226886E+04</rscale>
<asrwt>0</asrwt>
<pdfrwt beam="1">  1        2 0.21385303E+00 0.23226886E+04</pdfrwt>
<pdfrwt beam="2">  1       -1 0.14927252E+00 0.23226886E+04</pdfrwt>
<totfact> 0.53445574E+00</totfact>
</mgrwt>
</event>
<event>
12    6  0.1457317E-007  0.2034488E+04  0.7818608E-02  0.8590664E-01
          2   -1    0    0  501    0  0.00000000000E+00  0.00000000000E+00  0.25410031169E+04  0.25410031169E+04  0.00000000000E+00 0. -1.
         -1   -1    0    0    0  501 -0.00000000000E+00 -0.00000000000E+00 -0.40723485532E+03  0.40723485532E+03  0.00000000000E+00 0.  1.
         24    2    1    2    0    0  0.22656300895E+03 -0.64012231244E+03  0.20518651871E+03  0.71409839362E+03  0.82143997972E+02 0.  0.
        254    2    1    2    0    0 -0.22656300895E+03  0.64012231244E+03  0.19285817429E+04  0.22341395787E+04  0.90048028623E+03 0.  0.
         23    2    4    4    0    0 -0.42183961949E+03  0.14365849764E+03  0.14228594854E+04  0.14938181647E+04  0.91526856863E+02 0.  0.
         23    2    4    4    0    0  0.19527661054E+03  0.49646381480E+03  0.50572225755E+03  0.74032141397E+03  0.87815261627E+02 0.  0.
          4    1    3    3  502    0  0.46893228181E+02 -0.15191774738E+03  0.84564814483E+02  0.18008105027E+03  0.00000000000E+00 0. -1.
         -3    1    3    3    0  502  0.17966978077E+03 -0.48820456506E+03  0.12062170423E+03  0.53401734335E+03  0.00000000000E+00 0.  1.
         11    1    5    5    0    0 -0.67364244882E+02 -0.10852672396E+02  0.21749094462E+03  0.22794304767E+03  0.00000000000E+00 0. -1.
        -11    1    5    5    0    0 -0.35447537461E+03  0.15451117003E+03  0.12053685407E+04  0.12658751170E+04  0.00000000000E+00 0.  1.
          3    1    6    6  503    0  0.14998119014E+02  0.10161795565E+03  0.63976429579E+02  0.12101295809E+03  0.00000000000E+00 0. -1.
         -3    1    6    6    0  503  0.18027849152E+03  0.39484585914E+03  0.44174582797E+03  0.61930845587E+03  0.00000000000E+00 0.  1.
<mgrwt>
<rscale>  0 0.20344877E+04</rscale>
<asrwt>0</asrwt>
<pdfrwt beam="1">  1        2 0.39092355E+00 0.20344877E+04</pdfrwt>
<pdfrwt beam="2">  1       -1 0.62651518E-01 0.20344877E+04</pdfrwt>
<totfact> 0.89842318E+00</totfact>
</mgrwt>
</event>
<event>
12    6  0.1457317E-007  0.1667339E+04  0.7818608E-02  0.8780215E-01
         -1   -1    0    0    0  501 -0.00000000000E+00  0.00000000000E+00  0.76136953639E+03  0.76136953639E+03  0.00000000000E+00 0.  1.
          2   -1    0    0  501    0  0.00000000000E+00 -0.00000000000E+00 -0.91283488843E+03  0.91283488843E+03  0.00000000000E+00 0. -1.
         24    2    1    2    0    0 -0.23206034692E+03  0.15106528353E+03  0.47165701774E+03  0.55307777051E+03  0.82231097228E+02 0.  0.
        254    2    1    2    0    0  0.23206034692E+03 -0.15106528353E+03 -0.62312236977E+03  0.11211266543E+04  0.88992739186E+03 0.  0.
         23    2    4    4    0    0 -0.24428769157E+03 -0.32112641881E+03 -0.22290444998E+03  0.46984052730E+03  0.90912453264E+02 0.  0.
         23    2    4    4    0    0  0.47634803849E+03  0.17006113528E+03 -0.40021791979E+03  0.65128612701E+03  0.90393541885E+02 0.  0.
          4    1    3    3  502    0 -0.41451988659E+02  0.52056563526E+02  0.64151290463E+02  0.92431278462E+02  0.00000000000E+00 0. -1.
         -3    1    3    3    0  502 -0.19060835826E+03  0.99008720002E+02  0.40750572727E+03  0.46064649205E+03  0.00000000000E+00 0.  1.
         11    1    5    5    0    0 -0.56714154691E+02 -0.27520939778E+02 -0.17630839700E+02  0.65457955797E+02  0.00000000000E+00 0.  1.
        -11    1    5    5    0    0 -0.18757353688E+03 -0.29360547903E+03 -0.20527361028E+03  0.40438257150E+03  0.00000000000E+00 0. -1.
          1    1    6    6  503    0  0.19530096290E+03  0.11710890542E+03 -0.18365239513E+03  0.29254942160E+03  0.00000000000E+00 0. -1.
         -1    1    6    6    0  503  0.28104707558E+03  0.52952229860E+02 -0.21656552466E+03  0.35873670541E+03  0.00000000000E+00 0.  1.
<mgrwt>
<rscale>  0 0.16673388E+04</rscale>
<asrwt>0</asrwt>
<pdfrwt beam="1">  1        2 0.14043614E+00 0.16673388E+04</pdfrwt>
<pdfrwt beam="2">  1       -1 0.11713378E+00 0.16673388E+04</pdfrwt>
<totfact> 0.20551657E+01</totfact>
</mgrwt>
</event>
<event>
12    6  0.1457317E-007  0.2637658E+04  0.7818608E-02  0.8355521E-01
          2   -1    0    0  501    0  0.00000000000E+00  0.00000000000E+00  0.13609244417E+04  0.13609244417E+04  0.00000000000E+00 0. -1.
         -1   -1    0    0    0  501 -0.00000000000E+00 -0.00000000000E+00 -0.12780359850E+04  0.12780359850E+04  0.00000000000E+00 0.  1.
         24    2    1    2    0    0 -0.76906212784E+03 -0.11765405589E+03 -0.83764832662E+03  0.11460406612E+04  0.80345781533E+02 0.  0.
        254    2    1    2    0    0  0.76906212784E+03  0.11765405589E+03  0.92053678326E+03  0.14929197655E+04  0.88097810617E+03 0.  0.
         23    2    4    4    0    0  0.88617485127E+03  0.29344357671E+02  0.46399139925E+03  0.10049720161E+04  0.92270126777E+02 0.  0.
         23    2    4    4    0    0 -0.11711272343E+03  0.88309698221E+02  0.45654538401E+03  0.48794774937E+03  0.90251457934E+02 0.  0.
          2    1    3    3  502    0 -0.30415231084E+02  0.43374099939E+01 -0.16624052320E+02  0.34932198941E+02  0.00000000000E+00 0. -1.
         -1    1    3    3    0  502 -0.73864689675E+03 -0.12199146589E+03 -0.82102427430E+03  0.11111084622E+04  0.00000000000E+00 0.  1.
         11    1    5    5    0    0  0.25125466424E+03  0.28255984062E+02  0.91712519504E+02  0.26895816249E+03  0.00000000000E+00 0.  1.
        -11    1    5    5    0    0  0.63492018703E+03  0.10883736095E+01  0.37227887975E+03  0.73601385365E+03  0.00000000000E+00 0. -1.
          2    1    6    6  503    0 -0.13088353152E+03  0.67912108542E+02  0.39818987581E+03  0.42461480250E+03  0.00000000000E+00 0. -1.
         -2    1    6    6    0  503  0.13770808093E+02  0.20397589679E+02  0.58355508206E+02  0.63332946862E+02  0.00000000000E+00 0.  1.
<mgrwt>
<rscale>  0 0.26376584E+04</rscale>
<asrwt>0</asrwt>
<pdfrwt beam="1">  1        2 0.20937299E+00 0.26376584E+04</pdfrwt>
<pdfrwt beam="2">  1       -1 0.19662092E+00 0.26376584E+04</pdfrwt>
<totfact> 0.24316412E+00</totfact>
</mgrwt>
</event>
<event>
12    6  0.1457317E-007  0.1857269E+04  0.7818608E-02  0.8676424E-01
          2   -1    0    0  501    0  0.00000000000E+00  0.00000000000E+00  0.16440320935E+04  0.16440320935E+04  0.00000000000E+00 0. -1.
         -1   -1    0    0    0  501 -0.00000000000E+00 -0.00000000000E+00 -0.52454091093E+03  0.52454091093E+03  0.00000000000E+00 0.  1.
         24    2    1    2    0    0  0.39370383914E+03  0.33841050776E+03  0.98445734143E+03  0.11160405404E+04  0.82860400902E+02 0.  0.
        254    2    1    2    0    0 -0.39370383914E+03 -0.33841050776E+03  0.13503384118E+03  0.10525324640E+04  0.90557499131E+03 0.  0.
         23    2    4    4    0    0 -0.41848571722E+03 -0.42447800960E+03 -0.24570574054E+03  0.65104955811E+03  0.90456287993E+02 0.  0.
         23    2    4    4    0    0  0.24781878076E+02  0.86067501844E+02  0.38073958171E+03  0.40148290593E+03  0.90576698531E+02 0.  0.
          4    1    3    3  502    0  0.34688280296E+03  0.28941363367E+03  0.78916782044E+03  0.90932600269E+03  0.00000000000E+00 0. -1.
         -3    1    3    3    0  502  0.46821036177E+02  0.48996874088E+02  0.19528952099E+03  0.20671453772E+03  0.00000000000E+00 0.  1.
         11    1    5    5    0    0 -0.34204347074E+03 -0.39063819489E+03 -0.21538198494E+03  0.56212217054E+03  0.00000000000E+00 0.  1.
        -11    1    5    5    0    0 -0.76442246479E+02 -0.33839814714E+02 -0.30323755599E+02  0.88927387572E+02  0.00000000000E+00 0. -1.
          3    1    6    6  503    0  0.70936731154E+01 -0.19125096128E+02  0.51403796495E+02  0.55303162607E+02  0.00000000000E+00 0. -1.
         -3    1    6    6    0  503  0.17688204961E+02  0.10519259797E+03  0.32933578522E+03  0.34617974332E+03  0.00000000000E+00 0.  1.
<mgrwt>
<rscale>  0 0.18572691E+04</rscale>
<asrwt>0</asrwt>
<pdfrwt beam="1">  1        2 0.25292801E+00 0.18572691E+04</pdfrwt>
<pdfrwt beam="2">  1       -1 0.80698603E-01 0.18572691E+04</pdfrwt>
<totfact> 0.17272179E+01</totfact>
</mgrwt>
</event>
<event>
12    6  0.1457317E-007  0.1351070E+04  0.7818608E-02  0.8990018E-01
          2   -1    0    0  501    0  0.00000000000E+00  0.00000000000E+00  0.12572334372E+04  0.12572334372E+04  0.00000000000E+00 0. -1.
         -1   -1    0    0    0  501 -0.00000000000E+00 -0.00000000000E+00 -0.36297782674E+03  0.36297782674E+03  0.00000000000E+00 0.  1.
         24    2    1    2    0    0 -0.41354694825E+03 -0.43589910241E+02  0.26797879229E+03  0.50064722649E+03  0.76901583767E+02 0.  0.
        254    2    1    2    0    0  0.41354694825E+03  0.43589910241E+02  0.62627681816E+03  0.11195640375E+04  0.82962631486E+03 0.  0.
         23    2    4    4    0    0  0.32912448556E+03 -0.20911992572E+03  0.71861293435E+03  0.82315096285E+03  0.95492868328E+02 0.  0.
         23    2    4    4    0    0  0.84422462690E+02  0.25270983596E+03 -0.92336116186E+02  0.29641307460E+03  0.91352827244E+02 0.  0.
          4    1    3    3  502    0 -0.22415440877E+03 -0.31322211521E+02  0.18981863507E+03  0.29539362574E+03  0.00000000000E+00 0. -1.
         -3    1    3    3    0  502 -0.18939253948E+03 -0.12267698720E+02  0.78160157216E+02  0.20525360074E+03  0.00000000000E+00 0.  1.
         11    1    5    5    0    0  0.30176693023E+03 -0.20500174040E+03  0.70130466273E+03  0.79051706099E+03  0.00000000000E+00 0. -1.
        -11    1    5    5    0    0  0.27357555337E+02 -0.41181853179E+01  0.17308271612E+02  0.32633901859E+02  0.00000000000E+00 0.  1.
          2    1    6    6  503    0 -0.98077671551E+01  0.10906412057E+02  0.96716352759E+01  0.17569366791E+02  0.00000000000E+00 0.  1.
         -2    1    6    6    0  503  0.94230229845E+02  0.24180342390E+03 -0.10200775146E+03  0.27884370781E+03  0.00000000000E+00 0. -1.
<mgrwt>
<rscale>  0 0.13510705E+04</rscale>
<asrwt>0</asrwt>
<pdfrwt beam="1">  1        2 0.19342053E+00 0.13510705E+04</pdfrwt>
<pdfrwt beam="2">  1       -1 0.55842743E-01 0.13510705E+04</pdfrwt>
<totfact> 0.63249316E+01</totfact>
</mgrwt>
</event>
<event>
12    6  0.1457317E-007  0.1425641E+04  0.7818608E-02  0.8935465E-01
          2   -1    0    0  501    0  0.00000000000E+00  0.00000000000E+00  0.10748658303E+04  0.10748658303E+04  0.00000000000E+00 0. -1.
         -1   -1    0    0    0  501 -0.00000000000E+00 -0.00000000000E+00 -0.47272234331E+03  0.47272234331E+03  0.00000000000E+00 0.  1.
         24    2    1    2    0    0 -0.51288830776E+02 -0.34895295736E+03 -0.69609711282E+02  0.36859543537E+03  0.81353380132E+02 0.  0.
        254    2    1    2    0    0  0.51288830776E+02  0.34895295736E+03  0.67175319825E+03  0.11789927382E+04  0.90242606721E+03 0.  0.
         23    2    4    4    0    0 -0.18863013476E+03 -0.19069527648E+03  0.46833947095E+03  0.54726510782E+03  0.90615793210E+02 0.  0.
         23    2    4    4    0    0  0.23991896553E+03  0.53964823385E+03  0.20341372730E+03  0.63172763039E+03  0.94452783044E+02 0.  0.
          4    1    3    3  502    0  0.15215942223E+02 -0.49789779327E+02  0.74405274235E+01  0.52591905000E+02  0.00000000000E+00 0. -1.
         -3    1    3    3    0  502 -0.66504773000E+02 -0.29916317804E+03 -0.77050238706E+02  0.31600353037E+03  0.00000000000E+00 0.  1.
         11    1    5    5    0    0 -0.12005164834E+03 -0.17407625394E+03  0.37113560825E+03  0.42714936517E+03  0.00000000000E+00 0.  1.
        -11    1    5    5    0    0 -0.68578486413E+02 -0.16619022548E+02  0.97203862701E+02  0.12011574265E+03  0.00000000000E+00 0. -1.
          1    1    6    6  503    0  0.95402644389E+01  0.76125289152E+02  0.51043825024E+02  0.92149597759E+02  0.00000000000E+00 0. -1.
         -1    1    6    6    0  503  0.23037870109E+03  0.46352294470E+03  0.15236990228E+03  0.53957803263E+03  0.00000000000E+00 0.  1.
<mgrwt>
<rscale>  0 0.14256410E+04</rscale>
<asrwt>0</asrwt>
<pdfrwt beam="1">  1        2 0.16536397E+00 0.14256410E+04</pdfrwt>
<pdfrwt beam="2">  1       -1 0.72726515E-01 0.14256410E+04</pdfrwt>
<totfact> 0.47717609E+01</totfact>
</mgrwt>
</event>
<event>
12    6  0.1457317E-007  0.1579395E+04  0.7818608E-02  0.8833307E-01
          2   -1    0    0  501    0  0.00000000000E+00  0.00000000000E+00  0.74565940590E+03  0.74565940590E+03  0.00000000000E+00 0. -1.
         -1   -1    0    0    0  501 -0.00000000000E+00 -0.00000000000E+00 -0.83633689672E+03  0.83633689672E+03  0.00000000000E+00 0.  1.
         24    2    1    2    0    0 -0.77411679403E+02  0.88802027808E+01  0.49459261073E+03  0.50714504775E+03  0.80640081553E+02 0.  0.
        254    2    1    2    0    0  0.77411679403E+02 -0.88802027808E+01 -0.58527010155E+03  0.10748512549E+04  0.89816073296E+03 0.  0.
         23    2    4    4    0    0  0.29440884505E+03 -0.29015060943E+03 -0.56754561579E+03  0.70809326324E+03  0.91782891946E+02 0.  0.
         23    2    4    4    0    0 -0.21699716564E+03  0.28127040665E+03 -0.17724485765E+02  0.36675799164E+03  0.89422902418E+02 0.  0.
          4    1    3    3  502    0 -0.59920613599E+02 -0.20086111842E+02  0.42597838802E+03  0.43064082352E+03  0.00000000000E+00 0. -1.
         -3    1    3    3    0  502 -0.17491065804E+02  0.28966314623E+02  0.68614222712E+02  0.76504224224E+02  0.00000000000E+00 0.  1.
         11    1    5    5    0    0  0.17088613886E+03 -0.20903228798E+03 -0.41979529145E+03  0.49912388903E+03  0.00000000000E+00 0.  1.
        -11    1    5    5    0    0  0.12352270618E+03 -0.81118321452E+02 -0.14775032434E+03  0.20896937422E+03  0.00000000000E+00 0. -1.
          2    1    6    6  503    0 -0.30401256553E+02  0.30912535930E+02 -0.32465707294E+02  0.54164964947E+02  0.00000000000E+00 0. -1.
         -2    1    6    6    0  503 -0.18659590909E+03  0.25035787072E+03  0.14741221528E+02  0.31259302669E+03  0.00000000000E+00 0.  1.
<mgrwt>
<rscale>  0 0.15793954E+04</rscale>
<asrwt>0</asrwt>
<pdfrwt beam="1">  1        2 0.11471683E+00 0.15793954E+04</pdfrwt>
<pdfrwt beam="2">  1       -1 0.12866722E+00 0.15793954E+04</pdfrwt>
<totfact> 0.21573863E+01</totfact>
</mgrwt>
</event>
<event>
12    6  0.1457317E-007  0.5071253E+04  0.7818608E-02  0.7817609E-01
         -1   -1    0    0    0  501 -0.00000000000E+00  0.00000000000E+00  0.21004780140E+04  0.21004780140E+04  0.00000000000E+00 0.  1.
          2   -1    0    0  501    0  0.00000000000E+00 -0.00000000000E+00 -0.30609231941E+04  0.30609231941E+04  0.00000000000E+00 0. -1.
         24    2    1    2    0    0  0.14539684183E+04 -0.18297428996E+04 -0.12294491081E+04  0.26419551156E+04  0.79990520851E+02 0.  0.
        254    2    1    2    0    0 -0.14539684183E+04  0.18297428996E+04  0.26900392801E+03  0.25194460924E+04  0.90181054517E+03 0.  0.
         23    2    4    4    0    0 -0.36464342469E+03  0.10874401788E+04 -0.77629022110E+02  0.11532949243E+04  0.92584813189E+02 0.  0.
         23    2    4    4    0    0 -0.10893249936E+04  0.74230272080E+03  0.34663295012E+03  0.13661511682E+04  0.92586938437E+02 0.  0.
          4    1    3    3  502    0  0.55041234065E+03 -0.73962026816E+03 -0.45556025132E+03  0.10283613316E+04  0.00000000000E+00 0. -1.
         -3    1    3    3    0  502  0.90355607765E+03 -0.10901226315E+04 -0.77388885680E+03  0.16135937840E+04  0.00000000000E+00 0.  1.
         11    1    5    5    0    0 -0.34043212686E+03  0.97081827284E+03 -0.94017721990E+02  0.10330641238E+04  0.00000000000E+00 0.  1.
        -11    1    5    5    0    0 -0.24211297827E+02  0.11662190598E+03  0.16388699880E+02  0.12023080047E+03  0.00000000000E+00 0. -1.
          1    1    6    6  503    0 -0.82411402802E+03  0.58382202228E+03  0.22924635636E+03  0.10356476123E+04  0.00000000000E+00 0. -1.
         -1    1    6    6    0  503 -0.26521096558E+03  0.15848069852E+03  0.11738659376E+03  0.33050355590E+03  0.00000000000E+00 0.  1.
<mgrwt>
<rscale>  0 0.50712530E+04</rscale>
<asrwt>0</asrwt>
<pdfrwt beam="1">  1        2 0.47091126E+00 0.50712530E+04</pdfrwt>
<pdfrwt beam="2">  1       -1 0.32315046E+00 0.50712530E+04</pdfrwt>
<totfact> 0.30591599E-02</totfact>
</mgrwt>
</event>
<event>
12    6  0.1457317E-007  0.1706964E+04  0.7818608E-02  0.8757402E-01
          2   -1    0    0  501    0  0.00000000000E+00  0.00000000000E+00  0.67904520605E+03  0.67904520605E+03  0.00000000000E+00 0. -1.
         -1   -1    0    0    0  501 -0.00000000000E+00 -0.00000000000E+00 -0.10727290210E+04  0.10727290210E+04  0.00000000000E+00 0.  1.
         24    2    1    2    0    0  0.47730561621E+03  0.24970559843E+03  0.17377414232E+03  0.57166253861E+03  0.80168998716E+02 0.  0.
        254    2    1    2    0    0 -0.47730561621E+03 -0.24970559843E+03 -0.56745795732E+03  0.11801116885E+04  0.88344865546E+03 0.  0.
         23    2    4    4    0    0 -0.52985744149E+02  0.34624381437E+02 -0.64583233099E+03  0.65532701673E+03  0.91366089114E+02 0.  0.
         23    2    4    4    0    0 -0.42431987206E+03 -0.28432997986E+03  0.78374373670E+02  0.52478467175E+03  0.91463205623E+02 0.  0.
          2    1    3    3  502    0  0.39716181602E+03  0.17159265010E+03  0.13485792209E+03  0.45317568869E+03  0.00000000000E+00 0. -1.
         -1    1    3    3    0  502  0.80143800194E+02  0.78112948328E+02  0.38916220239E+02  0.11848684992E+03  0.00000000000E+00 0.  1.
         11    1    5    5    0    0 -0.38701704252E+02  0.20442388615E+02 -0.10042754437E+03  0.10955092346E+03  0.00000000000E+00 0.  1.
        -11    1    5    5    0    0 -0.14284039897E+02  0.14181992821E+02 -0.54540478662E+03  0.54577609327E+03  0.00000000000E+00 0. -1.
          1    1    6    6  503    0 -0.29490410678E+03 -0.17526107888E+03  0.12838406578E+02  0.34329244479E+03  0.00000000000E+00 0. -1.
         -1    1    6    6    0  503 -0.12941576528E+03 -0.10906890099E+03  0.65535967093E+02  0.18149222696E+03  0.00000000000E+00 0.  1.
<mgrwt>
<rscale>  0 0.17069640E+04</rscale>
<asrwt>0</asrwt>
<pdfrwt beam="1">  1        2 0.10446849E+00 0.17069640E+04</pdfrwt>
<pdfrwt beam="2">  1       -1 0.16503523E+00 0.17069640E+04</pdfrwt>
<totfact> 0.12384523E+01</totfact>
</mgrwt>
</event>
<event>
12    6  0.1457317E-007  0.1877348E+04  0.7818608E-02  0.8666215E-01
         -1   -1    0    0    0  501 -0.00000000000E+00  0.00000000000E+00  0.19898817964E+04  0.19898817964E+04  0.00000000000E+00 0.  1.
          2   -1    0    0  501    0  0.00000000000E+00 -0.00000000000E+00 -0.44279442497E+03  0.44279442497E+03  0.00000000000E+00 0. -1.
         24    2    1    2    0    0  0.31874556099E+03 -0.83987061186E+02  0.14308764116E+04  0.14705008339E+04  0.79453370879E+02 0.  0.
        254    2    1    2    0    0 -0.31874556099E+03  0.83987061186E+02  0.11621095984E+03  0.96217538748E+03  0.89645074041E+03 0.  0.
         23    2    4    4    0    0  0.20891533761E+03 -0.23773669234E+03  0.12682102780E+02  0.32965973580E+03  0.91380263198E+02 0.  0.
         23    2    4    4    0    0 -0.52766089861E+03  0.32172375353E+03  0.10352885706E+03  0.63251565167E+03  0.86172082828E+02 0.  0.
          2    1    3    3  502    0  0.22658056431E+02 -0.30055165543E+02  0.13628380966E+03  0.14138591611E+03  0.00000000000E+00 0. -1.
         -1    1    3    3    0  502  0.29608750456E+03 -0.53931895643E+02  0.12945926019E+04  0.13291149178E+04  0.00000000000E+00 0.  1.
         11    1    5    5    0    0  0.13865471300E+03 -0.13737999851E+03  0.50192894589E+02  0.20153838368E+03  0.00000000000E+00 0. -1.
        -11    1    5    5    0    0  0.70260624611E+02 -0.10035669384E+03 -0.37510791810E+02  0.12812135213E+03  0.00000000000E+00 0.  1.
          4    1    6    6  503    0 -0.17273594269E+02 -0.45898063788E+01 -0.41342540213E+00  0.17877759986E+02  0.00000000000E+00 0.  1.
         -4    1    6    6    0  503 -0.51038730434E+03  0.32631355991E+03  0.10394228247E+03  0.61463789169E+03  0.00000000000E+00 0. -1.
<mgrwt>
<rscale>  0 0.18773477E+04</rscale>
<asrwt>0</asrwt>
<pdfrwt beam="1">  1        2 0.68122221E-01 0.18773477E+04</pdfrwt>
<pdfrwt beam="2">  1       -1 0.30613565E+00 0.18773477E+04</pdfrwt>
<totfact> 0.22915414E+00</totfact>
</mgrwt>
</event>
<event>
12    6  0.1457317E-007  0.2274140E+04  0.7818608E-02  0.8488188E-01
          2   -1    0    0  501    0  0.00000000000E+00  0.00000000000E+00  0.92812521927E+03  0.92812521927E+03  0.00000000000E+00 0. -1.
         -1   -1    0    0    0  501 -0.00000000000E+00 -0.00000000000E+00 -0.13930536158E+04  0.13930536158E+04  0.00000000000E+00 0.  1.
         24    2    1    2    0    0 -0.80598187820E+03  0.47985597516E+03 -0.52224450307E+02  0.94491205540E+03  0.10130574685E+03 0.  0.
        254    2    1    2    0    0  0.80598187820E+03 -0.47985597516E+03 -0.41270394628E+03  0.13762667797E+04  0.91864963767E+03 0.  0.
         23    2    4    4    0    0  0.51285816703E+03  0.93689878740E+02  0.11276226811E+03  0.54008091193E+03  0.84680395906E+02 0.  0.
         23    2    4    4    0    0  0.29312371117E+03 -0.57354585390E+03 -0.52546621439E+03  0.83618586778E+03  0.90640534214E+02 0.  0.
          2    1    3    3  502    0 -0.47226385790E+03  0.31867328412E+03  0.60358410956E+01  0.56975630306E+03  0.00000000000E+00 0. -1.
         -1    1    3    3    0  502 -0.33371802030E+03  0.16118269103E+03 -0.58260291403E+02  0.37515575234E+03  0.00000000000E+00 0.  1.
         11    1    5    5    0    0  0.23628397452E+02 -0.43207304712E+01  0.22734722145E+02  0.33073213768E+02  0.00000000000E+00 0. -1.
        -11    1    5    5    0    0  0.48922976958E+03  0.98010609211E+02  0.90027545968E+02  0.50700769816E+03  0.00000000000E+00 0.  1.
          2    1    6    6  503    0  0.16067415089E+03 -0.32704708301E+03 -0.23926934732E+03  0.43591948550E+03  0.00000000000E+00 0. -1.
         -2    1    6    6    0  503  0.13244956028E+03 -0.24649877088E+03 -0.28619686707E+03  0.40026638228E+03  0.00000000000E+00 0.  1.
<mgrwt>
<rscale>  0 0.22741400E+04</rscale>
<asrwt>0</asrwt>
<pdfrwt beam="1">  1        2 0.14278850E+00 0.22741400E+04</pdfrwt>
<pdfrwt beam="2">  1       -1 0.21431594E+00 0.22741400E+04</pdfrwt>
<totfact> 0.34958178E+00</totfact>
</mgrwt>
</event>
<event>
12    6  0.1457317E-007  0.1522021E+04  0.7818608E-02  0.8869940E-01
         -1   -1    0    0    0  501 -0.00000000000E+00  0.00000000000E+00  0.33519373154E+03  0.33519373154E+03  0.00000000000E+00 0.  1.
          2   -1    0    0  501    0  0.00000000000E+00 -0.00000000000E+00 -0.17277668384E+04  0.17277668384E+04  0.00000000000E+00 0. -1.
         24    2    1    2    0    0  0.13267845236E+03  0.21992045884E+03 -0.99078128062E+03  0.10266495418E+04  0.79957212304E+02 0.  0.
        254    2    1    2    0    0 -0.13267845236E+03 -0.21992045884E+03 -0.40179182628E+03  0.10363110281E+04  0.92007352719E+03 0.  0.
         23    2    4    4    0    0 -0.24610941221E+03  0.17559043578E+03  0.14393568367E+03  0.34729521236E+03  0.92166369000E+02 0.  0.
         23    2    4    4    0    0  0.11343095986E+03 -0.39551089462E+03 -0.54572750995E+03  0.68901581578E+03  0.87343167221E+02 0.  0.
          2    1    3    3  502    0  0.66810712883E+02  0.65519417246E+02 -0.47858347728E+03  0.48764598852E+03  0.00000000000E+00 0. -1.
         -1    1    3    3    0  502  0.65867739473E+02  0.15440104159E+03 -0.51219780333E+03  0.53900355332E+03  0.00000000000E+00 0.  1.
         11    1    5    5    0    0 -0.58018011591E+00 -0.21010402351E+01 -0.79792462797E+01  0.82715990128E+01  0.00000000000E+00 0.  1.
        -11    1    5    5    0    0 -0.24552923210E+03  0.17769147601E+03  0.15191492995E+03  0.33902361334E+03  0.00000000000E+00 0. -1.
          1    1    6    6  503    0  0.95778455737E+02 -0.38704696696E+03 -0.53312438806E+03  0.66573303986E+03  0.00000000000E+00 0. -1.
         -1    1    6    6    0  503  0.17652504122E+02 -0.84639276569E+01 -0.12603121896E+02  0.23282775923E+02  0.00000000000E+00 0.  1.
<mgrwt>
<rscale>  0 0.15220205E+04</rscale>
<asrwt>0</asrwt>
<pdfrwt beam="1">  1        2 0.26581029E+00 0.15220205E+04</pdfrwt>
<pdfrwt beam="2">  1       -1 0.51568265E-01 0.15220205E+04</pdfrwt>
<totfact> 0.39348840E+01</totfact>
</mgrwt>
</event>
<event>
12    6  0.1457317E-007  0.1454430E+04  0.7818608E-02  0.8915335E-01
          2   -1    0    0  501    0  0.00000000000E+00  0.00000000000E+00  0.12908837450E+04  0.12908837450E+04  0.00000000000E+00 0. -1.
         -1   -1    0    0    0  501 -0.00000000000E+00 -0.00000000000E+00 -0.40967430774E+03  0.40967430774E+03  0.00000000000E+00 0.  1.
         24    2    1    2    0    0  0.36644537281E+03  0.21219392885E+02 -0.27811071962E+02  0.37903471184E+03  0.90340373954E+02 0.  0.
        254    2    1    2    0    0 -0.36644537281E+03 -0.21219392885E+02  0.90902050919E+03  0.13215233409E+04  0.88621283022E+03 0.  0.
         23    2    4    4    0    0 -0.64108752502E+03  0.80506186887E+02  0.62457538812E+03  0.90364350275E+03  0.94882578796E+02 0.  0.
         23    2    4    4    0    0  0.27464215221E+03 -0.10172557977E+03  0.28444512107E+03  0.41787983812E+03  0.89096166329E+02 0.  0.
          2    1    3    3  502    0  0.12669907472E+03 -0.76377048880E+01 -0.50258080547E+02  0.13651690273E+03  0.00000000000E+00 0. -1.
         -1    1    3    3    0  502  0.23974629809E+03  0.28857097773E+02  0.22447008585E+02  0.24251780911E+03  0.00000000000E+00 0.  1.
         11    1    5    5    0    0 -0.61305879112E+03  0.96684945327E+02  0.59107097992E+03  0.85706123663E+03  0.00000000000E+00 0.  1.
        -11    1    5    5    0    0 -0.28028733897E+02 -0.16178758440E+02  0.33504408197E+02  0.46582266123E+02  0.00000000000E+00 0. -1.
          1    1    6    6  503    0  0.48246499810E+02 -0.58019088603E+02  0.74647486225E+02  0.10614229405E+03  0.00000000000E+00 0. -1.
         -1    1    6    6    0  503  0.22639565240E+03 -0.43706491169E+02  0.20979763485E+03  0.31173754407E+03  0.00000000000E+00 0.  1.
<mgrwt>
<rscale>  0 0.14544303E+04</rscale>
<asrwt>0</asrwt>
<pdfrwt beam="1">  1        2 0.19859750E+00 0.14544303E+04</pdfrwt>
<pdfrwt beam="2">  1       -1 0.63026817E-01 0.14544303E+04</pdfrwt>
<totfact> 0.47223490E+01</totfact>
</mgrwt>
</event>
<event>
12    6  0.1457317E-007  0.1163900E+04  0.7818608E-02  0.9145055E-01
         -3   -1    0    0    0  501 -0.00000000000E+00  0.00000000000E+00  0.14267104181E+03  0.14267104181E+03  0.00000000000E+00 0.  1.
          4   -1    0    0  501    0  0.00000000000E+00 -0.00000000000E+00 -0.23737543638E+04  0.23737543638E+04  0.00000000000E+00 0. -1.
         24    2    1    2    0    0  0.52756780361E+02 -0.11467664250E+03 -0.88141220869E+03  0.89398818968E+03  0.79958685904E+02 0.  0.
        254    2    1    2    0    0 -0.52756780361E+02  0.11467664250E+03 -0.13496711133E+04  0.16224372159E+04  0.89149110783E+03 0.  0.
         23    2    4    4    0    0  0.39702402621E+03  0.15685146890E+03 -0.73108123053E+03  0.85157449941E+03  0.92026635956E+02 0.  0.
         23    2    4    4    0    0 -0.44978080658E+03 -0.42174826393E+02 -0.61858988275E+03  0.77086271650E+03  0.86570172169E+02 0.  0.
          4    1    3    3  502    0  0.98359917015E+01 -0.59755379522E+02 -0.63577629673E+03  0.63865401557E+03  0.00000000000E+00 0. -1.
         -3    1    3    3    0  502  0.42920788660E+02 -0.54921262980E+02 -0.24563591195E+03  0.25533417411E+03  0.00000000000E+00 0.  1.
         11    1    5    5    0    0  0.41763847929E+02 -0.96419274574E+01 -0.95075942856E+02  0.10429103830E+03  0.00000000000E+00 0.  1.
        -11    1    5    5    0    0  0.35526017828E+03  0.16649339635E+03 -0.63600528767E+03  0.74728346111E+03  0.00000000000E+00 0. -1.
          1    1    6    6  503    0 -0.43395836969E+03 -0.53213007917E+02 -0.60793602572E+03  0.74882421316E+03  0.00000000000E+00 0. -1.
         -1    1    6    6    0  503 -0.15822436881E+02  0.11038181523E+02 -0.10653857029E+02  0.22038503347E+02  0.00000000000E+00 0.  1.
<mgrwt>
<rscale>  0 0.11639004E+04</rscale>
<asrwt>0</asrwt>
<pdfrwt beam="1">  1        4 0.36519300E+00 0.11639004E+04</pdfrwt>
<pdfrwt beam="2">  1       -3 0.21949390E-01 0.11639004E+04</pdfrwt>
<totfact> 0.52838602E-01</totfact>
</mgrwt>
</event>
<event>
12    6  0.1457317E-007  0.1277843E+04  0.7818608E-02  0.9047323E-01
          2   -1    0    0  501    0  0.00000000000E+00  0.00000000000E+00  0.18485792552E+04  0.18485792552E+04  0.00000000000E+00 0. -1.
         -1   -1    0    0    0  501 -0.00000000000E+00 -0.00000000000E+00 -0.22082924831E+03  0.22082924831E+03  0.00000000000E+00 0.  1.
         24    2    1    2    0    0 -0.28090692705E+03 -0.54191811027E+02  0.63308882090E+03  0.69926327741E+03  0.79512401141E+02 0.  0.
        254    2    1    2    0    0  0.28090692705E+03  0.54191811027E+02  0.99466118601E+03  0.13701452261E+04  0.89783161655E+03 0.  0.
         23    2    4    4    0    0  0.12153194461E+03  0.40275272290E+03  0.84446580409E+03  0.94778649717E+03  0.90537177828E+02 0.  0.
         23    2    4    4    0    0  0.15937498244E+03 -0.34856091188E+03  0.15019538192E+03  0.42235872895E+03  0.94515336623E+02 0.  0.
          4    1    3    3  502    0 -0.17917763015E+03 -0.26115920517E+02  0.48267108057E+03  0.51551725138E+03  0.00000000000E+00 0. -1.
         -3    1    3    3    0  502 -0.10172929689E+03 -0.28075890510E+02  0.15041774033E+03  0.18374602602E+03  0.00000000000E+00 0.  1.
         11    1    5    5    0    0  0.12243775228E+03  0.33600755824E+03  0.76156511892E+03  0.84135219304E+03  0.00000000000E+00 0. -1.
        -11    1    5    5    0    0 -0.90580767300E+00  0.66745164660E+02  0.82900685168E+02  0.10643430412E+03  0.00000000000E+00 0.  1.
          2    1    6    6  503    0  0.29684921065E+02 -0.13704008919E+03  0.91388140033E+02  0.16737076424E+03  0.00000000000E+00 0.  1.
         -2    1    6    6    0  503  0.12969006138E+03 -0.21152082268E+03  0.58807241882E+02  0.25498796471E+03  0.00000000000E+00 0. -1.
<mgrwt>
<rscale>  0 0.12778425E+04</rscale>
<asrwt>0</asrwt>
<pdfrwt beam="1">  1        2 0.28439680E+00 0.12778425E+04</pdfrwt>
<pdfrwt beam="2">  1       -1 0.33973732E-01 0.12778425E+04</pdfrwt>
<totfact> 0.74246639E+01</totfact>
</mgrwt>
</event>
<event>
12    6  0.1457317E-007  0.2415331E+04  0.7818608E-02  0.8433786E-01
          2   -1    0    0  501    0  0.00000000000E+00  0.00000000000E+00  0.17758674294E+04  0.17758674294E+04  0.00000000000E+00 0. -1.
         -1   -1    0    0    0  501 -0.00000000000E+00 -0.00000000000E+00 -0.82126368925E+03  0.82126368925E+03  0.00000000000E+00 0.  1.
         24    2    1    2    0    0 -0.39601733785E+03 -0.46818060555E+02  0.14429788420E+04  0.14992500674E+04  0.80877459973E+02 0.  0.
        254    2    1    2    0    0  0.39601733785E+03  0.46818060555E+02 -0.48837510182E+03  0.10978810513E+04  0.89878301049E+03 0.  0.
         23    2    4    4    0    0 -0.20991826300E+03 -0.20087999661E+03 -0.25431573814E+03  0.39661227113E+03  0.90588899777E+02 0.  0.
         23    2    4    4    0    0  0.60593560085E+03  0.24769805716E+03 -0.23405936367E+03  0.70126878013E+03  0.92096885684E+02 0.  0.
          4    1    3    3  502    0 -0.33949867514E+03 -0.68381088963E+02  0.12172930335E+04  0.12655977454E+04  0.00000000000E+00 0. -1.
         -3    1    3    3    0  502 -0.56518662709E+02  0.21563028408E+02  0.22568580844E+03  0.23365232197E+03  0.00000000000E+00 0.  1.
         11    1    5    5    0    0 -0.56018651736E+02 -0.11464716019E+03 -0.97672835251E+02  0.16069238758E+03  0.00000000000E+00 0.  1.
        -11    1    5    5    0    0 -0.15389961126E+03 -0.86232836420E+02 -0.15664290289E+03  0.23591988354E+03  0.00000000000E+00 0. -1.
          3    1    6    6  503    0  0.41012653372E+03  0.21319441021E+03 -0.16407242361E+03  0.49048485236E+03  0.00000000000E+00 0. -1.
         -3    1    6    6    0  503  0.19580906713E+03  0.34503646950E+02 -0.69986940068E+02  0.21078392776E+03  0.00000000000E+00 0.  1.
<mgrwt>
<rscale>  0 0.24153306E+04</rscale>
<asrwt>0</asrwt>
<pdfrwt beam="1">  1        2 0.27321037E+00 0.24153306E+04</pdfrwt>
<pdfrwt beam="2">  1       -1 0.12634826E+00 0.24153306E+04</pdfrwt>
<totfact> 0.49572060E+00</totfact>
</mgrwt>
</event>
<event>
12    6  0.1457317E-007  0.1565790E+04  0.7818608E-02  0.8841845E-01
          2   -1    0    0  501    0  0.00000000000E+00  0.00000000000E+00  0.94410159488E+03  0.94410159488E+03  0.00000000000E+00 0. -1.
         -1   -1    0    0    0  501 -0.00000000000E+00 -0.00000000000E+00 -0.64921467984E+03  0.64921467984E+03  0.00000000000E+00 0.  1.
         24    2    1    2    0    0  0.30773568366E+03  0.20343941882E+03 -0.27577199028E+03  0.46738708686E+03  0.79445894837E+02 0.  0.
        254    2    1    2    0    0 -0.30773568366E+03 -0.20343941882E+03  0.57065890533E+03  0.11259291879E+04  0.89776171767E+03 0.  0.
         23    2    4    4    0    0 -0.22366053727E+03  0.20958021265E+03  0.61560266513E+03  0.69363326724E+03  0.90623212495E+02 0.  0.
         23    2    4    4    0    0 -0.84075146390E+02 -0.41301963147E+03 -0.44943759805E+02  0.43229592062E+03  0.84888015759E+02 0.  0.
          2    1    3    3  502    0  0.24536444205E+02 -0.58355328696E+01 -0.19084382519E+02  0.31627585969E+02  0.00000000000E+00 0. -1.
         -1    1    3    3    0  502  0.28319923946E+03  0.20927495169E+03 -0.25668760776E+03  0.43575950089E+03  0.00000000000E+00 0.  1.
         11    1    5    5    0    0 -0.83201637601E+02  0.26620411701E+02  0.13940842677E+03  0.16451707593E+03  0.00000000000E+00 0. -1.
        -11    1    5    5    0    0 -0.14045889967E+03  0.18295980095E+03  0.47619423836E+03  0.52911619131E+03  0.00000000000E+00 0.  1.
          1    1    6    6  503    0  0.12225877982E+02 -0.10822598399E+02 -0.33163829050E+00  0.16331280185E+02  0.00000000000E+00 0. -1.
         -1    1    6    6    0  503 -0.96301024372E+02 -0.40219703307E+03 -0.44612121514E+02  0.41596464043E+03  0.00000000000E+00 0.  1.
<mgrwt>
<rscale>  0 0.15657900E+04</rscale>
<asrwt>0</asrwt>
<pdfrwt beam="1">  1        2 0.14524640E+00 0.15657900E+04</pdfrwt>
<pdfrwt beam="2">  1       -1 0.99879181E-01 0.15657900E+04</pdfrwt>
<totfact> 0.28733087E+01</totfact>
</mgrwt>
</event>
<event>
12    6  0.1457317E-007  0.2350891E+04  0.7818608E-02  0.8458122E-01
         -1   -1    0    0    0  501 -0.00000000000E+00  0.00000000000E+00  0.52895725870E+03  0.52895725870E+03  0.00000000000E+00 0.  1.
          2   -1    0    0  501    0  0.00000000000E+00 -0.00000000000E+00 -0.26120667936E+04  0.26120667936E+04  0.00000000000E+00 0. -1.
         24    2    1    2    0    0  0.99125996962E+03  0.42514723514E+02 -0.10608878516E+04  0.14545668992E+04  0.76668125377E+02 0.  0.
        254    2    1    2    0    0 -0.99125996962E+03 -0.42514723514E+02 -0.10222216833E+04  0.16864571531E+04  0.90266091664E+03 0.  0.
         23    2    4    4    0    0 -0.62611437648E+03  0.33366657088E+03 -0.26934853625E+03  0.76443662245E+03  0.91989797283E+02 0.  0.
         23    2    4    4    0    0 -0.36514559314E+03 -0.37618129440E+03 -0.75287314708E+03  0.92202053069E+03  0.91979416079E+02 0.  0.
          2    1    3    3  502    0  0.29584411798E+03  0.18402411371E+01 -0.26862305319E+03  0.39960664826E+03  0.00000000000E+00 0. -1.
         -1    1    3    3    0  502  0.69541585164E+03  0.40674482377E+02 -0.79226479840E+03  0.10549602509E+04  0.00000000000E+00 0.  1.
         11    1    5    5    0    0 -0.57591267278E+03  0.30259965633E+03 -0.27245461495E+03  0.70531799629E+03  0.00000000000E+00 0.  1.
        -11    1    5    5    0    0 -0.50201703704E+02  0.31066914553E+02  0.31060787055E+01  0.59118626165E+02  0.00000000000E+00 0. -1.
          3    1    6    6  503    0 -0.20911959196E+03 -0.19788882732E+03 -0.33557223422E+03  0.44215349835E+03  0.00000000000E+00 0. -1.
         -3    1    6    6    0  503 -0.15602600118E+03 -0.17829246707E+03 -0.41730091285E+03  0.47986703234E+03  0.00000000000E+00 0.  1.
<mgrwt>
<rscale>  0 0.23508906E+04</rscale>
<asrwt>0</asrwt>
<pdfrwt beam="1">  1        2 0.40185642E+00 0.23508906E+04</pdfrwt>
<pdfrwt beam="2">  1       -1 0.81378041E-01 0.23508906E+04</pdfrwt>
<totfact> 0.46248585E+00</totfact>
</mgrwt>
</event>
<event>
12    6  0.1457317E-007  0.1209659E+04  0.7818608E-02  0.9104444E-01
          2   -1    0    0  501    0  0.00000000000E+00  0.00000000000E+00  0.35448676951E+04  0.35448676951E+04  0.00000000000E+00 0. -1.
         -1   -1    0    0    0  501 -0.00000000000E+00 -0.00000000000E+00 -0.10319666433E+03  0.10319666433E+03  0.00000000000E+00 0.  1.
         24    2    1    2    0    0 -0.13665489603E+03  0.81534571120E+02  0.13807458063E+04  0.13922555406E+04  0.81203827833E+02 0.  0.
        254    2    1    2    0    0  0.13665489603E+03 -0.81534571120E+02  0.20609252245E+04  0.22558088189E+04  0.90329297552E+03 0.  0.
         23    2    4    4    0    0  0.87627622979E+02 -0.58266738257E+02 -0.44143879714E+02  0.14803727972E+03  0.94301330707E+02 0.  0.
         23    2    4    4    0    0  0.49027273052E+02 -0.23267832863E+02  0.21050691042E+04  0.21077715392E+04  0.91868723758E+02 0.  0.
          2    1    3    3  502    0  0.10889713325E+02  0.59440632587E+01  0.12494836667E+03  0.12556278142E+03  0.00000000000E+00 0. -1.
         -1    1    3    3    0  502 -0.14754460936E+03  0.75590507861E+02  0.12557974396E+04  0.12666927591E+04  0.00000000000E+00 0.  1.
         11    1    5    5    0    0  0.35711667017E+02  0.38698159984E+01  0.23166209633E+02  0.42743091907E+02  0.00000000000E+00 0. -1.
        -11    1    5    5    0    0  0.51915955962E+02 -0.62136554256E+02 -0.67310089347E+02  0.10529418781E+03  0.00000000000E+00 0.  1.
          2    1    6    6  503    0 -0.79788750105E+01 -0.28833273155E+01  0.18816051889E+02  0.20640247856E+02  0.00000000000E+00 0. -1.
         -2    1    6    6    0  503  0.57006148062E+02 -0.20384505547E+02  0.20862530523E+04  0.20871312913E+04  0.00000000000E+00 0.  1.
<mgrwt>
<rscale>  0 0.12096587E+04</rscale>
<asrwt>0</asrwt>
<pdfrwt beam="1">  1        2 0.54536417E+00 0.12096587E+04</pdfrwt>
<pdfrwt beam="2">  1       -1 0.15876413E-01 0.12096587E+04</pdfrwt>
<totfact> 0.26138597E+01</totfact>
</mgrwt>
</event>
<event>
12    6  0.1457317E-007  0.1787679E+04  0.7818608E-02  0.8712879E-01
         -1   -1    0    0    0  501 -0.00000000000E+00  0.00000000000E+00  0.73243782604E+03  0.73243782604E+03  0.00000000000E+00 0.  1.
          2   -1    0    0  501    0  0.00000000000E+00 -0.00000000000E+00 -0.10908083429E+04  0.10908083429E+04  0.00000000000E+00 0. -1.
         24    2    1    2    0    0 -0.42369212529E+03  0.37897680359E+03  0.22600758162E+03  0.61692619378E+03  0.79875321153E+02 0.  0.
        254    2    1    2    0    0  0.42369212529E+03 -0.37897680359E+03 -0.58437809844E+03  0.12063199751E+04  0.88914098194E+03 0.  0.
         23    2    4    4    0    0 -0.12152286817E+03 -0.43710876073E+03 -0.42241788259E+03  0.62675480094E+03  0.92481548285E+02 0.  0.
         23    2    4    4    0    0  0.54521499346E+03  0.58131957141E+02 -0.16196021585E+03  0.57956517418E+03  0.95005084466E+02 0.  0.
          4    1    3    3  502    0 -0.24185709865E+03  0.20466011946E+03  0.84060230611E+02  0.32779070004E+03  0.00000000000E+00 0. -1.
         -3    1    3    3    0  502 -0.18183502664E+03  0.17431668413E+03  0.14194735101E+03  0.28913549373E+03  0.00000000000E+00 0.  1.
         11    1    5    5    0    0  0.68694709210E+01 -0.70758230699E+02 -0.96643571721E+02  0.11997456729E+03  0.00000000000E+00 0. -1.
        -11    1    5    5    0    0 -0.12839233909E+03 -0.36635053003E+03 -0.32577431087E+03  0.50678023365E+03  0.00000000000E+00 0.  1.
          4    1    6    6  503    0  0.86923332611E+02  0.33391588474E+02 -0.75824856115E+00  0.93119487079E+02  0.00000000000E+00 0. -1.
         -4    1    6    6    0  503  0.45829166085E+03  0.24740368668E+02 -0.16120196729E+03  0.48644568710E+03  0.00000000000E+00 0.  1.
<mgrwt>
<rscale>  0 0.17876793E+04</rscale>
<asrwt>0</asrwt>
<pdfrwt beam="1">  1        2 0.16781667E+00 0.17876793E+04</pdfrwt>
<pdfrwt beam="2">  1       -1 0.11268274E+00 0.17876793E+04</pdfrwt>
<totfact> 0.17148923E+01</totfact>
</mgrwt>
</event>
<event>
12    6  0.1457317E-007  0.2635018E+04  0.7818608E-02  0.8356403E-01
          2   -1    0    0  501    0  0.00000000000E+00  0.00000000000E+00  0.41021567409E+04  0.41021567409E+04  0.00000000000E+00 0. -1.
         -1   -1    0    0    0  501 -0.00000000000E+00 -0.00000000000E+00 -0.42315064437E+03  0.42315064437E+03  0.00000000000E+00 0.  1.
         24    2    1    2    0    0  0.43118787879E+03  0.10496646757E+04  0.20092328138E+04  0.23089985574E+04  0.82090924327E+02 0.  0.
        254    2    1    2    0    0 -0.43118787879E+03 -0.10496646757E+04  0.16697732827E+04  0.22163088279E+04  0.91441953531E+03 0.  0.
         23    2    4    4    0    0 -0.11875031005E+03  0.26446110662E+02  0.74574833589E+03  0.76104433941E+03  0.90812296306E+02 0.  0.
         23    2    4    4    0    0 -0.31243756873E+03 -0.10761107864E+04  0.92402494684E+03  0.14552644885E+04  0.91328911706E+02 0.  0.
          4    1    3    3  502    0  0.38018644685E+03  0.96806136988E+03  0.18696953374E+04  0.21394964840E+04  0.00000000000E+00 0. -1.
         -3    1    3    3    0  502  0.51001431938E+02  0.81603305818E+02  0.13953747634E+03  0.16950207339E+03  0.00000000000E+00 0.  1.
         11    1    5    5    0    0 -0.38532294160E+02 -0.73260393782E+01  0.47574592603E+03  0.47736002627E+03  0.00000000000E+00 0. -1.
        -11    1    5    5    0    0 -0.80218015895E+02  0.33772150040E+02  0.27000240986E+03  0.28368431314E+03  0.00000000000E+00 0.  1.
          4    1    6    6  503    0 -0.24723867503E+03 -0.71507112892E+03  0.59665145439E+03  0.96355935981E+03  0.00000000000E+00 0. -1.
         -4    1    6    6    0  503 -0.65198893703E+02 -0.36103965743E+03  0.32737349246E+03  0.49170512865E+03  0.00000000000E+00 0.  1.
<mgrwt>
<rscale>  0 0.26350182E+04</rscale>
<asrwt>0</asrwt>
<pdfrwt beam="1">  1        2 0.63110101E+00 0.26350182E+04</pdfrwt>
<pdfrwt beam="2">  1       -1 0.65100102E-01 0.26350182E+04</pdfrwt>
<totfact> 0.67771816E-01</totfact>
</mgrwt>
</event>
<event>
12    6  0.1457317E-007  0.1401602E+04  0.7818608E-02  0.8952659E-01
         -1   -1    0    0    0  501 -0.00000000000E+00  0.00000000000E+00  0.37534475579E+03  0.37534475579E+03  0.00000000000E+00 0.  1.
          2   -1    0    0  501    0  0.00000000000E+00 -0.00000000000E+00 -0.13084567483E+04  0.13084567483E+04  0.00000000000E+00 0. -1.
         24    2    1    2    0    0 -0.13637287818E+03  0.31238719746E+03 -0.75600069273E+03  0.83296844331E+03  0.78205224260E+02 0.  0.
        254    2    1    2    0    0  0.13637287818E+03 -0.31238719746E+03 -0.17711129978E+03  0.85083306078E+03  0.75918717176E+03 0.  0.
         23    2    4    4    0    0 -0.11469489132E+02 -0.50601610178E+03 -0.26186472059E+03  0.57776408651E+03  0.95154418340E+02 0.  0.
         23    2    4    4    0    0  0.14784236731E+03  0.19362890432E+03  0.84753420804E+02  0.27306897427E+03  0.89632606847E+02 0.  0.
          2    1    3    3  502    0 -0.61333427334E+02  0.15791800707E+03 -0.28391006224E+03  0.33061277911E+03  0.00000000000E+00 0. -1.
         -1    1    3    3    0  502 -0.75039450847E+02  0.15446919039E+03 -0.47209063049E+03  0.50235566420E+03  0.00000000000E+00 0.  1.
         11    1    5    5    0    0 -0.22455152284E+02 -0.47982047243E+03 -0.22289789220E+03  0.52954262338E+03  0.00000000000E+00 0. -1.
        -11    1    5    5    0    0  0.10985663152E+02 -0.26195629354E+02 -0.38966828390E+02  0.48221463136E+02  0.00000000000E+00 0.  1.
          2    1    6    6  503    0  0.80307498617E+02  0.16929049339E+03  0.54231002170E+02  0.19506298235E+03  0.00000000000E+00 0. -1.
         -2    1    6    6    0  503  0.67534868696E+02  0.24338410930E+02  0.30522418634E+02  0.78005991922E+02  0.00000000000E+00 0.  1.
<mgrwt>
<rscale>  0 0.14016025E+04</rscale>
<asrwt>0</asrwt>
<pdfrwt beam="1">  1        2 0.20130104E+00 0.14016025E+04</pdfrwt>
<pdfrwt beam="2">  1       -1 0.57745348E-01 0.14016025E+04</pdfrwt>
<totfact> 0.55076243E+01</totfact>
</mgrwt>
</event>
<event>
12    6  0.1457317E-007  0.1064974E+04  0.7818608E-02  0.9240020E-01
          2   -1    0    0  501    0  0.00000000000E+00  0.00000000000E+00  0.68482708603E+03  0.68482708603E+03  0.00000000000E+00 0. -1.
         -1   -1    0    0    0  501 -0.00000000000E+00 -0.00000000000E+00 -0.41403476429E+03  0.41403476429E+03  0.00000000000E+00 0.  1.
         24    2    1    2    0    0  0.50714485923E+01 -0.99212367344E+02 -0.57274412782E+02  0.13963194688E+03  0.79673764854E+02 0.  0.
        254    2    1    2    0    0 -0.50714485923E+01  0.99212367344E+02  0.32806673452E+03  0.95922990344E+03  0.89589363873E+03 0.  0.
         23    2    4    4    0    0 -0.55483290201E+02 -0.27290785397E+03  0.46549281408E+03  0.55033250576E+03  0.92872033927E+02 0.  0.
         23    2    4    4    0    0  0.50411841608E+02  0.37212022131E+03 -0.13742607956E+03  0.40889739768E+03  0.85418625610E+02 0.  0.
          4    1    3    3  502    0 -0.13693565172E+02 -0.23423977771E+02  0.16877757931E+02  0.31953953973E+02  0.00000000000E+00 0. -1.
         -3    1    3    3    0  502  0.18765013764E+02 -0.75788389574E+02 -0.74152170713E+02  0.10767799291E+03  0.00000000000E+00 0.  1.
         11    1    5    5    0    0 -0.11015376361E+02 -0.21163043730E+02  0.61409298254E+01  0.24635826664E+02  0.00000000000E+00 0.  1.
        -11    1    5    5    0    0 -0.44467913840E+02 -0.25174481024E+03  0.45935188426E+03  0.52569667910E+03  0.00000000000E+00 0. -1.
          3    1    6    6  503    0  0.32275366434E+02  0.25793119089E+03 -0.13577295014E+03  0.29326522552E+03  0.00000000000E+00 0. -1.
         -3    1    6    6    0  503  0.18136475174E+02  0.11418903042E+03 -0.16531294250E+01  0.11563217216E+03  0.00000000000E+00 0.  1.
<mgrwt>
<rscale>  0 0.10649737E+04</rscale>
<asrwt>0</asrwt>
<pdfrwt beam="1">  1        2 0.10535801E+00 0.10649737E+04</pdfrwt>
<pdfrwt beam="2">  1       -1 0.63697656E-01 0.10649737E+04</pdfrwt>
<totfact> 0.11967069E+02</totfact>
</mgrwt>
</event>
<event>
12    6  0.1457317E-007  0.1894779E+04  0.7818608E-02  0.8657460E-01
         -1   -1    0    0    0  501 -0.00000000000E+00  0.00000000000E+00  0.56722082689E+03  0.56722082689E+03  0.00000000000E+00 0.  1.
          2   -1    0    0  501    0  0.00000000000E+00 -0.00000000000E+00 -0.15823581409E+04  0.15823581409E+04  0.00000000000E+00 0. -1.
         24    2    1    2    0    0 -0.55792988910E+03  0.36440261005E+03 -0.73570272348E+03  0.99575370131E+03  0.78688709372E+02 0.  0.
        254    2    1    2    0    0  0.55792988910E+03 -0.36440261005E+03 -0.27943459052E+03  0.11538252665E+04  0.89952989489E+03 0.  0.
         23    2    4    4    0    0  0.30038846427E+03 -0.30786935679E+03  0.28526113801E+03  0.52418042659E+03  0.91511925185E+02 0.  0.
         23    2    4    4    0    0  0.25754142483E+03 -0.56533253266E+02 -0.56469572852E+03  0.62964483988E+03  0.89709332552E+02 0.  0.
          4    1    3    3  502    0 -0.28989324182E+02  0.29891966992E+02 -0.24159776762E+02  0.48141514521E+02  0.00000000000E+00 0. -1.
         -3    1    3    3    0  502 -0.52894056492E+03  0.33451064306E+03 -0.71154294671E+03  0.94761218679E+03  0.00000000000E+00 0.  1.
         11    1    5    5    0    0  0.28176086119E+03 -0.30828828096E+03  0.28485719435E+03  0.50554373525E+03  0.00000000000E+00 0.  1.
        -11    1    5    5    0    0  0.18627603075E+02  0.41892417023E+00  0.40394365825E+00  0.18636691344E+02  0.00000000000E+00 0. -1.
          4    1    6    6  503    0  0.14007034514E+03 -0.76033114943E+02 -0.31663270111E+03  0.35448131624E+03  0.00000000000E+00 0. -1.
         -4    1    6    6    0  503  0.11747107969E+03  0.19499861677E+02 -0.24806302741E+03  0.27516352364E+03  0.00000000000E+00 0.  1.
<mgrwt>
<rscale>  0 0.18947786E+04</rscale>
<asrwt>0</asrwt>
<pdfrwt beam="1">  1        2 0.24343972E+00 0.18947786E+04</pdfrwt>
<pdfrwt beam="2">  1       -1 0.87264742E-01 0.18947786E+04</pdfrwt>
<totfact> 0.15743324E+01</totfact>
</mgrwt>
</event>
<event>
12    6  0.1457317E-007  0.3099630E+04  0.7818608E-02  0.8215840E-01
         -1   -1    0    0    0  501 -0.00000000000E+00  0.00000000000E+00  0.11446718416E+04  0.11446718416E+04  0.00000000000E+00 0.  1.
          2   -1    0    0  501    0  0.00000000000E+00 -0.00000000000E+00 -0.20983532510E+04  0.20983532510E+04  0.00000000000E+00 0. -1.
         24    2    1    2    0    0 -0.76177421502E+03  0.56187367188E+03 -0.15412871543E+04  0.18105460833E+04  0.80678682735E+02 0.  0.
        254    2    1    2    0    0  0.76177421502E+03 -0.56187367188E+03  0.58760574494E+03  0.14324790093E+04  0.90039636989E+03 0.  0.
         23    2    4    4    0    0  0.62098830565E+03 -0.11094897752E+03 -0.43493315922E+02  0.63886516904E+03  0.91218881340E+02 0.  0.
         23    2    4    4    0    0  0.14078590937E+03 -0.45092469437E+03  0.63109906087E+03  0.79361384031E+03  0.91559546948E+02 0.  0.
          4    1    3    3  502    0 -0.40084681826E+03  0.24808767069E+03 -0.74086779804E+03  0.87812912389E+03  0.00000000000E+00 0. -1.
         -3    1    3    3    0  502 -0.36092739677E+03  0.31378600119E+03 -0.80041935631E+03  0.93241695943E+03  0.00000000000E+00 0.  1.
         11    1    5    5    0    0  0.45104466849E+03 -0.39127319077E+02 -0.24668756135E+02  0.45341017589E+03  0.00000000000E+00 0.  1.
        -11    1    5    5    0    0  0.16994363717E+03 -0.71821658439E+02 -0.18824559787E+02  0.18545499315E+03  0.00000000000E+00 0. -1.
          1    1    6    6  503    0  0.65345208534E+02 -0.84654543630E+02  0.15186885014E+03  0.18574319820E+03  0.00000000000E+00 0. -1.
         -1    1    6    6    0  503  0.75440700838E+02 -0.36627015074E+03  0.47923021073E+03  0.60787064211E+03  0.00000000000E+00 0.  1.
<mgrwt>
<rscale>  0 0.30996296E+04</rscale>
<asrwt>0</asrwt>
<pdfrwt beam="1">  1        2 0.32282357E+00 0.30996296E+04</pdfrwt>
<pdfrwt beam="2">  1       -1 0.17610336E+00 0.30996296E+04</pdfrwt>
<totfact> 0.12624912E+00</totfact>
</mgrwt>
</event>
<event>
12    6  0.1457317E-007  0.2738894E+04  0.7818608E-02  0.8322494E-01
          2   -1    0    0  501    0  0.00000000000E+00  0.00000000000E+00  0.26939704566E+04  0.26939704566E+04  0.00000000000E+00 0. -1.
         -1   -1    0    0    0  501 -0.00000000000E+00 -0.00000000000E+00 -0.69614183885E+03  0.69614183885E+03  0.00000000000E+00 0.  1.
         24    2    1    2    0    0 -0.30362286064E+02 -0.85842546908E+03  0.19553459561E+04  0.21374017317E+04  0.85394380438E+02 0.  0.
        254    2    1    2    0    0  0.30362286064E+02  0.85842546908E+03  0.42482661619E+02  0.12527105637E+04  0.91085829060E+03 0.  0.
         23    2    4    4    0    0  0.49655930190E-01  0.37560537747E+03 -0.42449009685E+03  0.57422847524E+03  0.92016832127E+02 0.  0.
         23    2    4    4    0    0  0.30312630134E+02  0.48282009161E+03  0.46697275847E+03  0.67848208849E+03  0.90776047744E+02 0.  0.
          2    1    3    3  502    0 -0.37152396223E+02 -0.51206631810E+03  0.10736659408E+04  0.11901053597E+04  0.00000000000E+00 0. -1.
         -1    1    3    3    0  502  0.67901101596E+01 -0.34635915099E+03  0.88168001534E+03  0.94729637206E+03  0.00000000000E+00 0.  1.
         11    1    5    5    0    0 -0.22233558308E+02  0.27494345567E+03 -0.35639149161E+03  0.45066964644E+03  0.00000000000E+00 0.  1.
        -11    1    5    5    0    0  0.22283214238E+02  0.10066192180E+03 -0.68098605243E+02  0.12355882879E+03  0.00000000000E+00 0. -1.
          1    1    6    6  503    0 -0.21538850199E+02  0.44698302044E+02  0.32692255791E+02  0.59419221320E+02  0.00000000000E+00 0. -1.
         -1    1    6    6    0  503  0.51851480333E+02  0.43812178957E+03  0.43428050268E+03  0.61906286717E+03  0.00000000000E+00 0.  1.
<mgrwt>
<rscale>  0 0.27388943E+04</rscale>
<asrwt>0</asrwt>
<pdfrwt beam="1">  1        2 0.41445699E+00 0.27388943E+04</pdfrwt>
<pdfrwt beam="2">  1       -1 0.10709875E+00 0.27388943E+04</pdfrwt>
<totfact> 0.21629709E+00</totfact>
</mgrwt>
</event>
<event>
12    6  0.1457317E-007  0.1483032E+04  0.7818608E-02  0.8895815E-01
          2   -1    0    0  501    0  0.00000000000E+00  0.00000000000E+00  0.71596516926E+03  0.71596516926E+03  0.00000000000E+00 0. -1.
         -1   -1    0    0    0  501 -0.00000000000E+00 -0.00000000000E+00 -0.76797905074E+03  0.76797905074E+03  0.00000000000E+00 0.  1.
         24    2    1    2    0    0  0.44551303715E+03 -0.60131139636E+02 -0.16572384096E+03  0.48583921395E+03  0.80484347073E+02 0.  0.
        254    2    1    2    0    0 -0.44551303715E+03  0.60131139636E+02  0.11370995948E+03  0.99810500606E+03  0.88384728772E+03 0.  0.
         23    2    4    4    0    0  0.22823053793E+03  0.15429729677E+03 -0.43829162138E+02  0.29342779061E+03  0.91005706504E+02 0.  0.
         23    2    4    4    0    0 -0.67374357508E+03 -0.94166157134E+02  0.15753912162E+03  0.70467721545E+03  0.94624167243E+02 0.  0.
          4    1    3    3  502    0  0.10928600923E+03 -0.45485513273E+02 -0.24604274916E+02  0.12090382159E+03  0.00000000000E+00 0. -1.
         -3    1    3    3    0  502  0.33622702792E+03 -0.14645626364E+02 -0.14111956604E+03  0.36493539236E+03  0.00000000000E+00 0.  1.
         11    1    5    5    0    0  0.19139957039E+03  0.14382767134E+03 -0.67073758051E+02  0.24863443769E+03  0.00000000000E+00 0. -1.
        -11    1    5    5    0    0  0.36830967541E+02  0.10469625429E+02  0.23244595913E+02  0.44793352920E+02  0.00000000000E+00 0.  1.
          2    1    6    6  503    0 -0.50112439791E+03 -0.10712772416E+03  0.13637520132E+03  0.53028313852E+03  0.00000000000E+00 0. -1.
         -2    1    6    6    0  503 -0.17261917717E+03  0.12961567025E+02  0.21163920300E+02  0.17439407693E+03  0.00000000000E+00 0.  1.
<mgrwt>
<rscale>  0 0.14830324E+04</rscale>
<asrwt>0</asrwt>
<pdfrwt beam="1">  1        2 0.11014849E+00 0.14830324E+04</pdfrwt>
<pdfrwt beam="2">  1       -1 0.11815062E+00 0.14830324E+04</pdfrwt>
<totfact> 0.28295900E+01</totfact>
</mgrwt>
</event>
<event>
12    6  0.1457317E-007  0.1940585E+04  0.7818608E-02  0.8634914E-01
         -1   -1    0    0    0  501 -0.00000000000E+00  0.00000000000E+00  0.81034630660E+03  0.81034630660E+03  0.00000000000E+00 0.  1.
          2   -1    0    0  501    0  0.00000000000E+00 -0.00000000000E+00 -0.11618084528E+04  0.11618084528E+04  0.00000000000E+00 0. -1.
         24    2    1    2    0    0 -0.67845989867E+03 -0.29869460521E+03 -0.78235081961E+02  0.74956012709E+03  0.78697870282E+02 0.  0.
        254    2    1    2    0    0  0.67845989867E+03  0.29869460521E+03 -0.27322706428E+03  0.12225946324E+04  0.93303714028E+03 0.  0.
         23    2    4    4    0    0  0.74362675093E+03  0.73159071607E+02 -0.48295762752E+03  0.89411395719E+03  0.88649331680E+02 0.  0.
         23    2    4    4    0    0 -0.65166852259E+02  0.22553553360E+03  0.20973056323E+03  0.32848067517E+03  0.93806445709E+02 0.  0.
          2    1    3    3  502    0 -0.45475766913E+03 -0.16221680725E+03 -0.64990078061E+02  0.48717814035E+03  0.00000000000E+00 0. -1.
         -1    1    3    3    0  502 -0.22370222954E+03 -0.13647779796E+03 -0.13245003900E+02  0.26238198674E+03  0.00000000000E+00 0.  1.
         11    1    5    5    0    0  0.21397794839E+03  0.57412403199E+02 -0.12135303816E+03  0.25260504015E+03  0.00000000000E+00 0. -1.
        -11    1    5    5    0    0  0.52964880254E+03  0.15746668408E+02 -0.36160458936E+03  0.64150891704E+03  0.00000000000E+00 0.  1.
          3    1    6    6  503    0 -0.75272856287E+02  0.92182017564E+02  0.10241844029E+03  0.15701294267E+03  0.00000000000E+00 0. -1.
         -3    1    6    6    0  503  0.10106004028E+02  0.13335351604E+03  0.10731212294E+03  0.17146773250E+03  0.00000000000E+00 0.  1.
<mgrwt>
<rscale>  0 0.19405846E+04</rscale>
<asrwt>0</asrwt>
<pdfrwt beam="1">  1        2 0.17873976E+00 0.19405846E+04</pdfrwt>
<pdfrwt beam="2">  1       -1 0.12466866E+00 0.19405846E+04</pdfrwt>
<totfact> 0.11976884E+01</totfact>
</mgrwt>
</event>
<event>
12    6  0.1457317E-007  0.2373437E+04  0.7818608E-02  0.8449516E-01
          2   -1    0    0  501    0  0.00000000000E+00  0.00000000000E+00  0.17797800475E+04  0.17797800475E+04  0.00000000000E+00 0. -1.
         -1   -1    0    0    0  501 -0.00000000000E+00 -0.00000000000E+00 -0.79127789890E+03  0.79127789890E+03  0.00000000000E+00 0.  1.
         24    2    1    2    0    0 -0.36083249750E+03  0.88786895627E+03  0.76604513414E+03  0.12298077289E+04  0.84205272148E+02 0.  0.
        254    2    1    2    0    0  0.36083249750E+03 -0.88786895627E+03  0.22245701445E+03  0.13412502175E+04  0.91156658988E+03 0.  0.
         23    2    4    4    0    0  0.37326283038E+03 -0.84488666428E+03  0.49399630427E+03  0.10514669553E+04  0.91606732387E+02 0.  0.
         23    2    4    4    0    0 -0.12430332878E+02 -0.42982291990E+02 -0.27153928982E+03  0.28978326216E+03  0.90767629200E+02 0.  0.
          4    1    3    3  502    0 -0.33829045595E+03  0.83021127156E+03  0.74076414214E+03  0.11629371016E+04  0.00000000000E+00 0. -1.
         -3    1    3    3    0  502 -0.22542041547E+02  0.57657684710E+02  0.25280992001E+02  0.66870627332E+02  0.00000000000E+00 0.  1.
         11    1    5    5    0    0  0.17080881841E+03 -0.47281927896E+03  0.23461373267E+03  0.55477682591E+03  0.00000000000E+00 0. -1.
        -11    1    5    5    0    0  0.20245401197E+03 -0.37206738531E+03  0.25938257160E+03  0.49669012939E+03  0.00000000000E+00 0.  1.
          2    1    6    6  503    0  0.14070287960E+02  0.12762005989E+02 -0.10828013016E+02  0.21865215892E+02  0.00000000000E+00 0. -1.
         -2    1    6    6    0  503 -0.26500620837E+02 -0.55744297979E+02 -0.26071127681E+03  0.26791804627E+03  0.00000000000E+00 0.  1.
<mgrwt>
<rscale>  0 0.23734368E+04</rscale>
<asrwt>0</asrwt>
<pdfrwt beam="1">  1        2 0.27381232E+00 0.23734368E+04</pdfrwt>
<pdfrwt beam="2">  1       -1 0.12173506E+00 0.23734368E+04</pdfrwt>
<totfact> 0.54288118E+00</totfact>
</mgrwt>
</event>
<event>
12    6  0.1457317E-007  0.1372824E+04  0.7818608E-02  0.8973728E-01
         -1   -1    0    0    0  501 -0.00000000000E+00  0.00000000000E+00  0.17373367020E+03  0.17373367020E+03  0.00000000000E+00 0.  1.
          2   -1    0    0  501    0  0.00000000000E+00 -0.00000000000E+00 -0.27119747502E+04  0.27119747502E+04  0.00000000000E+00 0. -1.
         24    2    1    2    0    0  0.19410128885E+03 -0.16107581985E+03 -0.13280487007E+04  0.13540875220E+04  0.78860228351E+02 0.  0.
        254    2    1    2    0    0 -0.19410128885E+03  0.16107581985E+03 -0.12101923793E+04  0.15316208984E+04  0.90425452808E+03 0.  0.
         23    2    4    4    0    0  0.16635307437E+03  0.36440539176E+03 -0.94921490832E+03  0.10343516214E+04  0.91704413886E+02 0.  0.
         23    2    4    4    0    0 -0.36045436322E+03 -0.20332957191E+03 -0.26097747096E+03  0.49726927707E+03  0.88866364810E+02 0.  0.
          4    1    3    3  502    0  0.31562493758E+02 -0.14994604571E+02 -0.35929429356E+03  0.36098949924E+03  0.00000000000E+00 0. -1.
         -1    1    3    3    0  502  0.16253879509E+03 -0.14608121528E+03 -0.96875440718E+03  0.99309802276E+03  0.00000000000E+00 0.  1.
         11    1    5    5    0    0  0.35207209815E+02  0.70989589460E+02 -0.29497924323E+03  0.30543710215E+03  0.00000000000E+00 0.  1.
        -11    1    5    5    0    0  0.13114586455E+03  0.29341580230E+03 -0.65423566509E+03  0.72891451920E+03  0.00000000000E+00 0. -1.
          1    1    6    6  503    0 -0.26179819180E+03 -0.10517761746E+03 -0.19697301760E+03  0.34409154902E+03  0.00000000000E+00 0. -1.
         -1    1    6    6    0  503 -0.98656171417E+02 -0.98151954448E+02 -0.64004453358E+02  0.15317772805E+03  0.00000000000E+00 0.  1.
<mgrwt>
<rscale>  0 0.13728238E+04</rscale>
<asrwt>0</asrwt>
<pdfrwt beam="1">  1        2 0.41722684E+00 0.13728238E+04</pdfrwt>
<pdfrwt beam="2">  1       -1 0.26728260E-01 0.13728238E+04</pdfrwt>
<totfact> 0.36433175E+01</totfact>
</mgrwt>
</event>
<event>
12    6  0.1457317E-007  0.3301926E+04  0.7818608E-02  0.8162406E-01
         -3   -1    0    0    0  501 -0.00000000000E+00  0.00000000000E+00  0.13796888795E+04  0.13796888795E+04  0.00000000000E+00 0.  1.
          2   -1    0    0  501    0  0.00000000000E+00 -0.00000000000E+00 -0.19755746005E+04  0.19755746005E+04  0.00000000000E+00 0. -1.
         24    2    1    2    0    0 -0.33056227141E+03  0.54283155256E+03  0.11362770174E+04  0.13043432311E+04  0.79046153685E+02 0.  0.
        254    2    1    2    0    0  0.33056227141E+03 -0.54283155256E+03 -0.17321627384E+04  0.20509202490E+04  0.89551583215E+03 0.  0.
         23    2    4    4    0    0 -0.10654281218E+03  0.18854010437E+03 -0.46479650527E+03  0.52109717405E+03  0.92777862151E+02 0.  0.
         23    2    4    4    0    0  0.43710508359E+03 -0.73137165693E+03 -0.12673662332E+04  0.15298230750E+04  0.90421883701E+02 0.  0.
          2    1    3    3  502    0 -0.31460734051E+02  0.51854292745E+02  0.16341401203E+03  0.17430658275E+03  0.00000000000E+00 0. -1.
         -1    1    3    3    0  502 -0.29910153736E+03  0.49097725982E+03  0.97286300537E+03  0.11300366483E+04  0.00000000000E+00 0.  1.
         11    1    5    5    0    0 -0.12071739491E+03  0.13924077158E+03 -0.36617323136E+03  0.40993111283E+03  0.00000000000E+00 0.  1.
        -11    1    5    5    0    0  0.14174582729E+02  0.49299332792E+02 -0.98623273916E+02  0.11116606122E+03  0.00000000000E+00 0. -1.
          1    1    6    6  503    0  0.15085448593E+03 -0.33428188425E+03 -0.57047302730E+03  0.67818944915E+03  0.00000000000E+00 0. -1.
         -1    1    6    6    0  503  0.28625059766E+03 -0.39708977268E+03 -0.69689320585E+03  0.85163362580E+03  0.00000000000E+00 0.  1.
<mgrwt>
<rscale>  0 0.33019257E+04</rscale>
<asrwt>0</asrwt>
<pdfrwt beam="1">  1        2 0.30393455E+00 0.33019257E+04</pdfrwt>
<pdfrwt beam="2">  1       -3 0.21225983E+00 0.33019257E+04</pdfrwt>
<totfact> 0.44661737E-01</totfact>
</mgrwt>
</event>
<event>
12    6  0.1457317E-007  0.1659937E+04  0.7818608E-02  0.8784550E-01
          2   -1    0    0  501    0  0.00000000000E+00  0.00000000000E+00  0.66944134690E+03  0.66944134690E+03  0.00000000000E+00 0. -1.
         -1   -1    0    0    0  501 -0.00000000000E+00 -0.00000000000E+00 -0.10289884019E+04  0.10289884019E+04  0.00000000000E+00 0.  1.
         24    2    1    2    0    0 -0.42649103663E+03  0.38404480455E+03 -0.96181190537E+02  0.58725123658E+03  0.78918801460E+02 0.  0.
        254    2    1    2    0    0  0.42649103663E+03 -0.38404480455E+03 -0.26336586449E+03  0.11111785122E+04  0.91431454723E+03 0.  0.
         23    2    4    4    0    0  0.42269546717E+02 -0.17505628738E+03  0.31888205616E+03  0.37723211577E+03  0.90481407467E+02 0.  0.
         23    2    4    4    0    0  0.38422148991E+03 -0.20898851716E+03 -0.58224792065E+03  0.73394639648E+03  0.91445711661E+02 0.  0.
          2    1    3    3  502    0 -0.24149008655E+03  0.22992782008E+03 -0.17364676748E+02  0.33389488817E+03  0.00000000000E+00 0. -1.
         -1    1    3    3    0  502 -0.18500095008E+03  0.15411698446E+03 -0.78816513789E+02  0.25335634840E+03  0.00000000000E+00 0.  1.
         11    1    5    5    0    0  0.62388048683E+02 -0.81471438469E+02  0.19827442458E+03  0.22325458863E+03  0.00000000000E+00 0.  1.
        -11    1    5    5    0    0 -0.20118501966E+02 -0.93584848912E+02  0.12060763158E+03  0.15397752713E+03  0.00000000000E+00 0. -1.
          2    1    6    6  503    0  0.12818372122E+02 -0.33062315594E+02 -0.38126779981E+02  0.52068020204E+02  0.00000000000E+00 0. -1.
         -2    1    6    6    0  503  0.37140311779E+03 -0.17592620157E+03 -0.54412114067E+03  0.68187837627E+03  0.00000000000E+00 0.  1.
<mgrwt>
<rscale>  0 0.16599366E+04</rscale>
<asrwt>0</asrwt>
<pdfrwt beam="1">  1        2 0.10299098E+00 0.16599366E+04</pdfrwt>
<pdfrwt beam="2">  1       -1 0.15830591E+00 0.16599366E+04</pdfrwt>
<totfact> 0.14224973E+01</totfact>
</mgrwt>
</event>
<event>
12    6  0.1457317E-007  0.2185140E+04  0.7818608E-02  0.8524639E-01
          2   -1    0    0  501    0  0.00000000000E+00  0.00000000000E+00  0.11240638507E+04  0.11240638507E+04  0.00000000000E+00 0. -1.
         -1   -1    0    0    0  501 -0.00000000000E+00 -0.00000000000E+00 -0.10619582148E+04  0.10619582148E+04  0.00000000000E+00 0.  1.
         24    2    1    2    0    0 -0.19771899114E+02 -0.38869839582E+03  0.85137918624E+03  0.93984743354E+03  0.83602085307E+02 0.  0.
        254    2    1    2    0    0  0.19771899114E+02  0.38869839582E+03 -0.78927355038E+03  0.12461746320E+04  0.88233843002E+03 0.  0.
         23    2    4    4    0    0  0.31226569674E+03  0.38120415975E+03 -0.79389753695E+03  0.93816363973E+03  0.83971655661E+02 0.  0.
         23    2    4    4    0    0 -0.29249379763E+03  0.74942360641E+01  0.46239865737E+01  0.30801099223E+03  0.96128064869E+02 0.  0.
          4    1    3    3  502    0 -0.54312726551E+01 -0.31746399012E+03  0.75579166519E+03  0.81977675310E+03  0.00000000000E+00 0. -1.
         -3    1    3    3    0  502 -0.14340626459E+02 -0.71234405696E+02  0.95587521044E+02  0.12007068044E+03  0.00000000000E+00 0.  1.
         11    1    5    5    0    0  0.31432944722E+03  0.37673627454E+03 -0.79385600770E+03  0.93324197446E+03  0.00000000000E+00 0. -1.
        -11    1    5    5    0    0 -0.20637504756E+01  0.44678852173E+01 -0.41529257220E-01  0.49216652689E+01  0.00000000000E+00 0.  1.
          4    1    6    6  503    0 -0.16598477312E+03 -0.18994624707E+02 -0.39064941034E+02  0.17157450362E+03  0.00000000000E+00 0. -1.
         -4    1    6    6    0  503 -0.12650902451E+03  0.26488860771E+02  0.43688927608E+02  0.13643648860E+03  0.00000000000E+00 0.  1.
<mgrwt>
<rscale>  0 0.21851397E+04</rscale>
<asrwt>0</asrwt>
<pdfrwt beam="1">  1        2 0.17293290E+00 0.21851397E+04</pdfrwt>
<pdfrwt beam="2">  1       -1 0.16337819E+00 0.21851397E+04</pdfrwt>
<totfact> 0.60550251E+00</totfact>
</mgrwt>
</event>
<event>
12    6  0.1457317E-007  0.1371724E+04  0.7818608E-02  0.8974544E-01
         -1   -1    0    0    0  501 -0.00000000000E+00  0.00000000000E+00  0.92251160250E+03  0.92251160250E+03  0.00000000000E+00 0.  1.
          2   -1    0    0  501    0  0.00000000000E+00 -0.00000000000E+00 -0.50991961925E+03  0.50991961925E+03  0.00000000000E+00 0. -1.
         24    2    1    2    0    0  0.14802962152E+03  0.28521961663E+03  0.33658886888E+03  0.47238673250E+03  0.81204432357E+02 0.  0.
        254    2    1    2    0    0 -0.14802962152E+03 -0.28521961663E+03  0.76003114371E+02  0.96004448925E+03  0.90146877338E+03 0.  0.
         23    2    4    4    0    0 -0.47258763879E+03 -0.25008522387E+03 -0.13654810331E+03  0.56002221956E+03  0.95382421603E+02 0.  0.
         23    2    4    4    0    0  0.32455801727E+03 -0.35134392763E+02  0.21255121768E+03  0.40002226969E+03  0.90925595839E+02 0.  0.
          4    1    3    3  502    0  0.10968565283E+03  0.17613231213E+03  0.16322779568E+03  0.26400160434E+03  0.00000000000E+00 0. -1.
         -3    1    3    3    0  502  0.38343968685E+02  0.10908730450E+03  0.17336107320E+03  0.20838512816E+03  0.00000000000E+00 0.  1.
         11    1    5    5    0    0 -0.23562109917E+03 -0.17728588278E+03 -0.84251859836E+02  0.30666914173E+03  0.00000000000E+00 0.  1.
        -11    1    5    5    0    0 -0.23696653962E+03 -0.72799341087E+02 -0.52296243476E+02  0.25335307782E+03  0.00000000000E+00 0. -1.
          3    1    6    6  503    0  0.93751480129E+02 -0.47773980496E+02  0.89614105622E+02  0.13821136410E+03  0.00000000000E+00 0. -1.
         -3    1    6    6    0  503  0.23080653714E+03  0.12639587732E+02  0.12293711206E+03  0.26181090559E+03  0.00000000000E+00 0.  1.
<mgrwt>
<rscale>  0 0.13717241E+04</rscale>
<asrwt>0</asrwt>
<pdfrwt beam="1">  1        2 0.78449172E-01 0.13717241E+04</pdfrwt>
<pdfrwt beam="2">  1       -1 0.14192486E+00 0.13717241E+04</pdfrwt>
<totfact> 0.27143784E+01</totfact>
</mgrwt>
</event>
<event>
12    6  0.1457317E-007  0.1246245E+04  0.7818608E-02  0.9073314E-01
         -1   -1    0    0    0  501 -0.00000000000E+00  0.00000000000E+00  0.56546234683E+03  0.56546234683E+03  0.00000000000E+00 0.  1.
          2   -1    0    0  501    0  0.00000000000E+00 -0.00000000000E+00 -0.68666275549E+03  0.68666275549E+03  0.00000000000E+00 0. -1.
         24    2    1    2    0    0 -0.22642708042E+03 -0.28382716027E+02 -0.24646477348E+03  0.34136163787E+03  0.60894022064E+02 0.  0.
        254    2    1    2    0    0  0.22642708042E+03  0.28382716027E+02  0.12526436482E+03  0.91076346445E+03  0.87276808246E+03 0.  0.
         23    2    4    4    0    0  0.46786727128E+03  0.87197550264E+02  0.32122644237E+03  0.58156862268E+03  0.92371203850E+02 0.  0.
         23    2    4    4    0    0 -0.24144019086E+03 -0.58814834238E+02 -0.19596207755E+03  0.32919484177E+03  0.90639712710E+02 0.  0.
          2    1    3    3  502    0 -0.13354206371E+03 -0.12144557877E+02 -0.18618465647E+03  0.22944650656E+03  0.00000000000E+00 0. -1.
         -1    1    3    3    0  502 -0.92885016709E+02 -0.16238158150E+02 -0.60280117011E+02  0.11191513131E+03  0.00000000000E+00 0.  1.
         11    1    5    5    0    0  0.37479341795E+03  0.70792612913E+02  0.20927968870E+03  0.43506285556E+03  0.00000000000E+00 0. -1.
        -11    1    5    5    0    0  0.93073853327E+02  0.16404937351E+02  0.11194675367E+03  0.14650576712E+03  0.00000000000E+00 0.  1.
          2    1    6    6  503    0 -0.84661290199E+02  0.17711719637E+01 -0.11451315973E+03  0.14242167974E+03  0.00000000000E+00 0.  1.
         -2    1    6    6    0  503 -0.15677890066E+03 -0.60586006201E+02 -0.81448917817E+02  0.18677316203E+03  0.00000000000E+00 0. -1.
<mgrwt>
<rscale>  0 0.12462455E+04</rscale>
<asrwt>0</asrwt>
<pdfrwt beam="1">  1        2 0.10564042E+00 0.12462455E+04</pdfrwt>
<pdfrwt beam="2">  1       -1 0.86994207E-01 0.12462455E+04</pdfrwt>
<totfact> 0.61436960E+01</totfact>
</mgrwt>
</event>
<event>
12    6  0.1457317E-007  0.1657032E+04  0.7818608E-02  0.8786257E-01
         -1   -1    0    0    0  501 -0.00000000000E+00  0.00000000000E+00  0.10711643156E+04  0.10711643156E+04  0.00000000000E+00 0.  1.
          2   -1    0    0  501    0  0.00000000000E+00 -0.00000000000E+00 -0.64083404269E+03  0.64083404269E+03  0.00000000000E+00 0. -1.
         24    2    1    2    0    0 -0.43019453514E+03 -0.67045915206E+02 -0.23901888110E+03  0.50294809076E+03  0.79147101414E+02 0.  0.
        254    2    1    2    0    0  0.43019453514E+03  0.67045915206E+02  0.66934915398E+03  0.12090502675E+04  0.90786109433E+03 0.  0.
         23    2    4    4    0    0  0.27704705844E+03  0.41340995077E+03  0.94667130581E+02  0.51468186591E+03  0.90954370429E+02 0.  0.
         23    2    4    4    0    0  0.15314747671E+03 -0.34636403556E+03  0.57468202340E+03  0.69436840159E+03  0.92010077479E+02 0.  0.
          4    1    3    3  502    0 -0.21095928916E+03 -0.40658496888E+02 -0.16203675874E+03  0.26909635121E+03  0.00000000000E+00 0. -1.
         -3    1    3    3    0  502 -0.21923524598E+03 -0.26387418318E+02 -0.76982122362E+02  0.23385173954E+03  0.00000000000E+00 0.  1.
         11    1    5    5    0    0  0.22194375993E+03  0.28861536631E+03  0.10188617929E+03  0.37807228909E+03  0.00000000000E+00 0. -1.
        -11    1    5    5    0    0  0.55103298509E+02  0.12479458445E+03 -0.72190487105E+01  0.13660957682E+03  0.00000000000E+00 0.  1.
          4    1    6    6  503    0  0.16280030604E+03 -0.29104525454E+03  0.49700554727E+03  0.59851966872E+03  0.00000000000E+00 0. -1.
         -4    1    6    6    0  503 -0.96528293303E+01 -0.55318781021E+02  0.77676476134E+02  0.95848732868E+02  0.00000000000E+00 0.  1.
<mgrwt>
<rscale>  0 0.16570318E+04</rscale>
<asrwt>0</asrwt>
<pdfrwt beam="1">  1        2 0.98589853E-01 0.16570318E+04</pdfrwt>
<pdfrwt beam="2">  1       -1 0.16479451E+00 0.16570318E+04</pdfrwt>
<totfact> 0.13420510E+01</totfact>
</mgrwt>
</event>
<event>
12    6  0.1457317E-007  0.1511476E+04  0.7818608E-02  0.8876858E-01
         -1   -1    0    0    0  501 -0.00000000000E+00  0.00000000000E+00  0.66424897686E+03  0.66424897686E+03  0.00000000000E+00 0.  1.
          2   -1    0    0  501    0  0.00000000000E+00 -0.00000000000E+00 -0.85982753785E+03  0.85982753785E+03  0.00000000000E+00 0. -1.
         24    2    1    2    0    0 -0.45998074528E+02  0.44777238929E+03  0.11337664886E+03  0.47112186290E+03  0.80533283363E+02 0.  0.
        254    2    1    2    0    0  0.45998074528E+02 -0.44777238929E+03 -0.30895520985E+03  0.10529546518E+04  0.90035784087E+03 0.  0.
         23    2    4    4    0    0  0.10623895870E+03  0.94482776347E+02  0.22660959570E+03  0.28296741848E+03  0.92222229896E+02 0.  0.
         23    2    4    4    0    0 -0.60240884167E+02 -0.54225516564E+03 -0.53556480555E+03  0.76998723334E+03  0.91548073559E+02 0.  0.
          4    1    3    3  502    0  0.62512483136E+01  0.60396368236E+02 -0.93272174649E+01  0.61431232995E+02  0.00000000000E+00 0. -1.
         -1    1    3    3    0  502 -0.52249322842E+02  0.38737602105E+03  0.12270386633E+03  0.40969062991E+03  0.00000000000E+00 0.  1.
         11    1    5    5    0    0  0.91835393704E+02  0.99397132705E+02  0.13881566218E+03  0.19386417305E+03  0.00000000000E+00 0. -1.
        -11    1    5    5    0    0  0.14403564991E+02 -0.49143563579E+01  0.87793933518E+02  0.89103245426E+02  0.00000000000E+00 0.  1.
          4    1    6    6  503    0  0.96532516117E+01 -0.29649835830E+03 -0.26390456065E+03  0.39705173325E+03  0.00000000000E+00 0.  1.
         -4    1    6    6    0  503 -0.69894135779E+02 -0.24575680733E+03 -0.27166024490E+03  0.37293550009E+03  0.00000000000E+00 0. -1.
<mgrwt>
<rscale>  0 0.15114755E+04</rscale>
<asrwt>0</asrwt>
<pdfrwt beam="1">  1        2 0.13228116E+00 0.15114755E+04</pdfrwt>
<pdfrwt beam="2">  1       -1 0.10219215E+00 0.15114755E+04</pdfrwt>
<totfact> 0.31223981E+01</totfact>
</mgrwt>
</event>
<event>
12    6  0.1457317E-007  0.1568138E+04  0.7818608E-02  0.8840365E-01
         -1   -1    0    0    0  501 -0.00000000000E+00  0.00000000000E+00  0.12683192736E+03  0.12683192736E+03  0.00000000000E+00 0.  1.
          2   -1    0    0  501    0  0.00000000000E+00 -0.00000000000E+00 -0.48470779042E+04  0.48470779042E+04  0.00000000000E+00 0. -1.
         24    2    1    2    0    0  0.28960455621E+03 -0.34635305898E+02 -0.22038506464E+03  0.37427836042E+03  0.80276465856E+02 0.  0.
        254    2    1    2    0    0 -0.28960455621E+03  0.34635305898E+02 -0.44998609122E+04  0.45996314712E+04  0.90707829754E+03 0.  0.
         23    2    4    4    0    0  0.24509595224E+03 -0.12283661127E+03 -0.26450157332E+04  0.26607380606E+04  0.90873204681E+02 0.  0.
         23    2    4    4    0    0 -0.53470050845E+03  0.15747191717E+03 -0.18548451790E+04  0.19388934106E+04  0.90304933516E+02 0.  0.
          4    1    3    3  502    0  0.50434610174E+02 -0.34627150699E+02 -0.27744662968E+02  0.67174815163E+02  0.00000000000E+00 0. -1.
         -3    1    3    3    0  502  0.23916994603E+03 -0.81551989228E-02 -0.19264040167E+03  0.30710354526E+03  0.00000000000E+00 0.  1.
         11    1    5    5    0    0  0.12504384787E+03 -0.17849684352E+02 -0.98131788940E+03  0.98941365221E+03  0.00000000000E+00 0. -1.
        -11    1    5    5    0    0  0.12005210437E+03 -0.10498692692E+03 -0.16636978438E+04  0.16713244084E+04  0.00000000000E+00 0.  1.
          3    1    6    6  503    0 -0.65420875779E+02 -0.93338467686E+01 -0.19117644835E+03  0.20227566855E+03  0.00000000000E+00 0. -1.
         -3    1    6    6    0  503 -0.46927963267E+03  0.16680576394E+03 -0.16636687307E+04  0.17366177420E+04  0.00000000000E+00 0.  1.
<mgrwt>
<rscale>  0 0.15681380E+04</rscale>
<asrwt>0</asrwt>
<pdfrwt beam="1">  1        2 0.74570427E+00 0.15681380E+04</pdfrwt>
<pdfrwt beam="2">  1       -1 0.19512605E-01 0.15681380E+04</pdfrwt>
<totfact> 0.12792718E+00</totfact>
</mgrwt>
</event>
<event>
12    6  0.1457317E-007  0.1638208E+04  0.7818608E-02  0.8797413E-01
         -1   -1    0    0    0  501 -0.00000000000E+00  0.00000000000E+00  0.25765367508E+04  0.25765367508E+04  0.00000000000E+00 0.  1.
          4   -1    0    0  501    0  0.00000000000E+00 -0.00000000000E+00 -0.26040056943E+03  0.26040056943E+03  0.00000000000E+00 0. -1.
         24    2    1    2    0    0 -0.29532090163E+03  0.19753801063E+03  0.14672386843E+04  0.15117703099E+04  0.80152433621E+02 0.  0.
        254    2    1    2    0    0  0.29532090163E+03 -0.19753801063E+03  0.84889749707E+03  0.13251670103E+04  0.95352238785E+03 0.  0.
         23    2    4    4    0    0  0.19250591607E+03 -0.51314981254E+03  0.80527807252E+03  0.97833851661E+03  0.91061633948E+02 0.  0.
         23    2    4    4    0    0  0.10281498556E+03  0.31561180191E+03  0.43619424545E+02  0.34682849371E+03  0.90584872294E+02 0.  0.
          2    1    3    3  502    0 -0.43409360645E+02  0.64264315114E+02  0.37732715642E+03  0.38521430108E+03  0.00000000000E+00 0. -1.
         -1    1    3    3    0  502 -0.25191154099E+03  0.13327369552E+03  0.10899115279E+04  0.11265560088E+04  0.00000000000E+00 0.  1.
         11    1    5    5    0    0  0.10765088336E+03 -0.16497170124E+03  0.29909926940E+03  0.35814068165E+03  0.00000000000E+00 0.  1.
        -11    1    5    5    0    0  0.84855032712E+02 -0.34817811130E+03  0.50617880312E+03  0.62019783496E+03  0.00000000000E+00 0. -1.
          3    1    6    6  503    0  0.28876743576E+02  0.18717244504E+02  0.20357055704E+02  0.39982637211E+02  0.00000000000E+00 0. -1.
         -3    1    6    6    0  503  0.73938241987E+02  0.29689455740E+03  0.23262368841E+02  0.30684585649E+03  0.00000000000E+00 0.  1.
<mgrwt>
<rscale>  0 0.16382083E+04</rscale>
<asrwt>0</asrwt>
<pdfrwt beam="1">  1        4 0.40061628E-01 0.16382083E+04</pdfrwt>
<pdfrwt beam="2">  1       -1 0.39639025E+00 0.16382083E+04</pdfrwt>
<totfact> 0.18806655E-01</totfact>
</mgrwt>
</event>
<event>
12    6  0.1457317E-007  0.2572531E+04  0.7818608E-02  0.8377592E-01
          2   -1    0    0  501    0  0.00000000000E+00  0.00000000000E+00  0.13501157065E+04  0.13501157065E+04  0.00000000000E+00 0. -1.
         -1   -1    0    0    0  501 -0.00000000000E+00 -0.00000000000E+00 -0.12254348579E+04  0.12254348579E+04  0.00000000000E+00 0.  1.
         24    2    1    2    0    0 -0.35232048738E+03  0.10930256583E+04  0.12520092001E+03  0.11578682486E+04  0.78414254801E+02 0.  0.
        254    2    1    2    0    0  0.35232048738E+03 -0.10930256583E+04 -0.52007145673E+00  0.14176823157E+04  0.83125691717E+03 0.  0.
         23    2    4    4    0    0  0.33903714660E+03 -0.35285140883E+03 -0.33560362826E+03  0.59990642023E+03  0.88360705297E+02 0.  0.
         23    2    4    4    0    0  0.13283340781E+02 -0.74017424945E+03  0.33508355681E+03  0.81777589549E+03  0.91880675415E+02 0.  0.
          2    1    3    3  502    0 -0.33306894936E+02  0.14365143870E+03 -0.70742654943E+01  0.14763173888E+03  0.00000000000E+00 0. -1.
         -1    1    3    3    0  502 -0.31901359244E+03  0.94937421958E+03  0.13227518550E+03  0.10102365098E+04  0.00000000000E+00 0.  1.
         11    1    5    5    0    0  0.64499553754E+02 -0.58778294973E+02 -0.22499912271E+02  0.90118402375E+02  0.00000000000E+00 0.  1.
        -11    1    5    5    0    0  0.27453759284E+03 -0.29407311386E+03 -0.31310371599E+03  0.50978801785E+03  0.00000000000E+00 0. -1.
          3    1    6    6  503    0  0.95704361407E-01 -0.72162761911E+03  0.33349732720E+03  0.79496345644E+03  0.00000000000E+00 0. -1.
         -3    1    6    6    0  503  0.13187636419E+02 -0.18546630335E+02  0.15862296107E+01  0.22812439052E+02  0.00000000000E+00 0.  1.
<mgrwt>
<rscale>  0 0.25725309E+04</rscale>
<asrwt>0</asrwt>
<pdfrwt beam="1">  1        2 0.20771011E+00 0.25725309E+04</pdfrwt>
<pdfrwt beam="2">  1       -1 0.18852844E+00 0.25725309E+04</pdfrwt>
<totfact> 0.28258257E+00</totfact>
</mgrwt>
</event>
<event>
12    6  0.1457317E-007  0.1692575E+04  0.7818608E-02  0.8765611E-01
          2   -1    0    0  501    0  0.00000000000E+00  0.00000000000E+00  0.81287218652E+03  0.81287218652E+03  0.00000000000E+00 0. -1.
         -1   -1    0    0    0  501 -0.00000000000E+00 -0.00000000000E+00 -0.88107603886E+03  0.88107603886E+03  0.00000000000E+00 0.  1.
         24    2    1    2    0    0  0.40021558366E+03  0.35007838977E+03  0.24373838938E+03  0.59035558409E+03  0.79899441973E+02 0.  0.
        254    2    1    2    0    0 -0.40021558366E+03 -0.35007838977E+03 -0.31194224172E+03  0.11035926413E+04  0.91535859822E+03 0.  0.
         23    2    4    4    0    0  0.27201577193E+03 -0.24439085593E+02 -0.17980172376E+03  0.33957184490E+03  0.91599830246E+02 0.  0.
         23    2    4    4    0    0 -0.67223135559E+03 -0.32563930417E+03 -0.13214051795E+03  0.76402079638E+03  0.91272717462E+02 0.  0.
          2    1    3    3  502    0  0.31740125217E+03  0.23306965407E+03  0.16667849759E+03  0.42760582326E+03  0.00000000000E+00 0. -1.
         -1    1    3    3    0  502  0.82814331495E+02  0.11700873569E+03  0.77059891782E+02  0.16274976083E+03  0.00000000000E+00 0.  1.
         11    1    5    5    0    0  0.17765781578E+02  0.22631439442E+02 -0.25602588842E+02  0.38513602814E+02  0.00000000000E+00 0.  1.
        -11    1    5    5    0    0  0.25424999035E+03 -0.47070525035E+02 -0.15419913492E+03  0.30105824209E+03  0.00000000000E+00 0. -1.
          2    1    6    6  503    0 -0.64417207414E+03 -0.29637019865E+03 -0.10921055588E+03  0.71743982414E+03  0.00000000000E+00 0. -1.
         -2    1    6    6    0  503 -0.28059281450E+02 -0.29269105528E+02 -0.22929962075E+02  0.46580972238E+02  0.00000000000E+00 0.  1.
<mgrwt>
<rscale>  0 0.16925746E+04</rscale>
<asrwt>0</asrwt>
<pdfrwt beam="1">  1        2 0.12505726E+00 0.16925746E+04</pdfrwt>
<pdfrwt beam="2">  1       -1 0.13555016E+00 0.16925746E+04</pdfrwt>
<totfact> 0.16708423E+01</totfact>
</mgrwt>
</event>
<event>
12    6  0.1457317E-007  0.1096002E+04  0.7818608E-02  0.9209098E-01
          2   -1    0    0  501    0  0.00000000000E+00  0.00000000000E+00  0.49932572302E+04  0.49932572302E+04  0.00000000000E+00 0. -1.
         -3   -1    0    0    0  501 -0.00000000000E+00 -0.00000000000E+00 -0.60142078019E+02  0.60142078019E+02  0.00000000000E+00 0.  1.
         24    2    1    2    0    0  0.81708311639E+02 -0.12719222469E+03  0.53887403554E+03  0.56527340271E+03  0.79339040923E+02 0.  0.
        254    2    1    2    0    0 -0.81708311639E+02  0.12719222469E+03  0.43942411166E+04  0.44881259055E+04  0.90059149582E+03 0.  0.
         23    2    4    4    0    0 -0.42137798089E+03  0.25160143236E+03  0.31406941358E+04  0.31802030278E+04  0.94175153881E+02 0.  0.
         23    2    4    4    0    0  0.33966966925E+03 -0.12440920767E+03  0.12535469808E+04  0.13079228777E+04  0.91810052829E+02 0.  0.
          4    1    3    3  502    0  0.39355131797E+02 -0.73868820761E+01  0.18478537859E+03  0.18907413511E+03  0.00000000000E+00 0. -1.
         -3    1    3    3    0  502  0.42353179842E+02 -0.11980534261E+03  0.35408865695E+03  0.37619926760E+03  0.00000000000E+00 0.  1.
         11    1    5    5    0    0 -0.31047076104E+03  0.23079488747E+03  0.24465149884E+04  0.24769121829E+04  0.00000000000E+00 0. -1.
        -11    1    5    5    0    0 -0.11090721985E+03  0.20806544886E+02  0.69417914746E+03  0.70329084488E+03  0.00000000000E+00 0.  1.
          3    1    6    6  503    0  0.23126855273E+03 -0.37781628397E+02  0.77202037795E+03  0.80680112723E+03  0.00000000000E+00 0. -1.
         -3    1    6    6    0  503  0.10840111652E+03 -0.86627579270E+02  0.48152660284E+03  0.50112175048E+03  0.00000000000E+00 0.  1.
<mgrwt>
<rscale>  0 0.10960016E+04</rscale>
<asrwt>0</asrwt>
<pdfrwt beam="1">  1        2 0.76819309E+00 0.10960016E+04</pdfrwt>
<pdfrwt beam="2">  1       -3 0.92526313E-02 0.10960016E+04</pdfrwt>
<totfact> 0.22050420E+00</totfact>
</mgrwt>
</event>
<event>
12    6  0.1457317E-007  0.3359873E+04  0.7818608E-02  0.8147826E-01
         -1   -1    0    0    0  501 -0.00000000000E+00  0.00000000000E+00  0.12586599068E+04  0.12586599068E+04  0.00000000000E+00 0.  1.
          2   -1    0    0  501    0  0.00000000000E+00 -0.00000000000E+00 -0.22422152832E+04  0.22422152832E+04  0.00000000000E+00 0. -1.
         24    2    1    2    0    0 -0.43813573213E+03  0.14019170387E+04  0.82457334212E+02  0.14732585658E+04  0.79732594052E+02 0.  0.
        254    2    1    2    0    0  0.43813573213E+03 -0.14019170387E+04 -0.10660127106E+04  0.20276166243E+04  0.90416357640E+03 0.  0.
         23    2    4    4    0    0  0.13401072697E+03 -0.59161785155E+03 -0.97626635172E+03  0.11530458098E+04  0.91913506789E+02 0.  0.
         23    2    4    4    0    0  0.30412500516E+03 -0.81029918712E+03 -0.89746358867E+02  0.87457081451E+03  0.87993802424E+02 0.  0.
          2    1    3    3  502    0 -0.21043799458E+03  0.80404344777E+03  0.40073215898E+02  0.83209126789E+03  0.00000000000E+00 0. -1.
         -1    1    3    3    0  502 -0.22769773755E+03  0.59787359090E+03  0.42384118314E+02  0.64116729788E+03  0.00000000000E+00 0.  1.
         11    1    5    5    0    0  0.14783940328E+03 -0.55403899131E+03 -0.91652672388E+03  0.10811276190E+04  0.00000000000E+00 0.  1.
        -11    1    5    5    0    0 -0.13828676306E+02 -0.37578860247E+02 -0.59739627833E+02  0.71918190741E+02  0.00000000000E+00 0. -1.
          2    1    6    6  503    0  0.10451447978E+03 -0.17592177292E+03 -0.30667396378E+02  0.20691117870E+03  0.00000000000E+00 0. -1.
         -2    1    6    6    0  503  0.19961052538E+03 -0.63437741420E+03 -0.59078962489E+02  0.66765963581E+03  0.00000000000E+00 0.  1.
<mgrwt>
<rscale>  0 0.33598729E+04</rscale>
<asrwt>0</asrwt>
<pdfrwt beam="1">  1        2 0.34495620E+00 0.33598729E+04</pdfrwt>
<pdfrwt beam="2">  1       -1 0.19363999E+00 0.33598729E+04</pdfrwt>
<totfact> 0.76964474E-01</totfact>
</mgrwt>
</event>
<event>
12    6  0.1457317E-007  0.1581409E+04  0.7818608E-02  0.8832051E-01
         -1   -1    0    0    0  501 -0.00000000000E+00  0.00000000000E+00  0.34497049056E+03  0.34497049056E+03  0.00000000000E+00 0.  1.
          2   -1    0    0  501    0  0.00000000000E+00 -0.00000000000E+00 -0.18123679758E+04  0.18123679758E+04  0.00000000000E+00 0. -1.
         24    2    1    2    0    0 -0.32214300950E+03  0.38297318103E+02 -0.10679524516E+04  0.11187569590E+04  0.76497655378E+02 0.  0.
        254    2    1    2    0    0  0.32214300950E+03 -0.38297318103E+02 -0.39944503366E+03  0.10385815074E+04  0.90213768872E+03 0.  0.
         23    2    4    4    0    0  0.33843987138E+03  0.17239089933E+03 -0.61156662444E+03  0.72553477569E+03  0.90148798642E+02 0.  0.
         23    2    4    4    0    0 -0.16296861878E+02 -0.21068821743E+03  0.21212159078E+03  0.31304673169E+03  0.91365060479E+02 0.  0.
          4    1    3    3  502    0 -0.29449234914E+03  0.16684455906E+02 -0.89745304185E+03  0.94468305643E+03  0.00000000000E+00 0. -1.
         -3    1    3    3    0  502 -0.27650660359E+02  0.21612862197E+02 -0.17049940977E+03  0.17407390258E+03  0.00000000000E+00 0.  1.
         11    1    5    5    0    0 -0.33656042865E+01  0.20641004790E+01 -0.26950272681E+02  0.27237933119E+02  0.00000000000E+00 0. -1.
        -11    1    5    5    0    0  0.34180547567E+03  0.17032679885E+03 -0.58461635176E+03  0.69829684257E+03  0.00000000000E+00 0.  1.
          1    1    6    6  503    0  0.12059585669E+02 -0.57825175024E+01 -0.39237995444E+01  0.13937981132E+02  0.00000000000E+00 0. -1.
         -1    1    6    6    0  503 -0.28356447547E+02 -0.20490569993E+03  0.21604539032E+03  0.29910875056E+03  0.00000000000E+00 0.  1.
<mgrwt>
<rscale>  0 0.15814088E+04</rscale>
<asrwt>0</asrwt>
<pdfrwt beam="1">  1        2 0.27882584E+00 0.15814088E+04</pdfrwt>
<pdfrwt beam="2">  1       -1 0.53072384E-01 0.15814088E+04</pdfrwt>
<totfact> 0.33262642E+01</totfact>
</mgrwt>
</event>
<event>
12    6  0.1457317E-007  0.1463922E+04  0.7818608E-02  0.8908805E-01
          2   -1    0    0  501    0  0.00000000000E+00  0.00000000000E+00  0.14664689086E+04  0.14664689086E+04  0.00000000000E+00 0. -1.
         -1   -1    0    0    0  501 -0.00000000000E+00 -0.00000000000E+00 -0.36534500634E+03  0.36534500634E+03  0.00000000000E+00 0.  1.
         24    2    1    2    0    0 -0.40643339706E+03  0.16407333507E+03  0.49869498135E+03  0.66962689234E+03  0.87151161731E+02 0.  0.
        254    2    1    2    0    0  0.40643339706E+03 -0.16407333507E+03  0.60242892096E+03  0.11621870226E+04  0.89199209933E+03 0.  0.
         23    2    4    4    0    0  0.51698354100E+03 -0.42003707702E+03  0.53483338969E+03  0.85893732145E+03  0.89573655267E+02 0.  0.
         23    2    4    4    0    0 -0.11055014393E+03  0.25596374195E+03  0.67595531269E+02  0.30324970120E+03  0.98246902806E+02 0.  0.
          4    1    3    3  502    0 -0.11992168682E+03  0.57369836507E+02  0.21360856658E+03  0.25159715584E+03  0.00000000000E+00 0. -1.
         -3    1    3    3    0  502 -0.28651171024E+03  0.10670349857E+03  0.28508641477E+03  0.41802973650E+03  0.00000000000E+00 0.  1.
         11    1    5    5    0    0  0.10087958471E+02 -0.12430795304E+02  0.35441890309E+02  0.38889833719E+02  0.00000000000E+00 0.  1.
        -11    1    5    5    0    0  0.50689558253E+03 -0.40760628172E+03  0.49939149938E+03  0.82004748773E+03  0.00000000000E+00 0. -1.
          3    1    6    6  503    0 -0.99941603658E+02  0.25680193977E+03  0.46277114010E+02  0.27942285464E+03  0.00000000000E+00 0. -1.
         -3    1    6    6    0  503 -0.10608540277E+02 -0.83819782523E+00  0.21318417259E+02  0.23826846556E+02  0.00000000000E+00 0.  1.
<mgrwt>
<rscale>  0 0.14639223E+04</rscale>
<asrwt>0</asrwt>
<pdfrwt beam="1">  1        2 0.22561060E+00 0.14639223E+04</pdfrwt>
<pdfrwt beam="2">  1       -1 0.56206925E-01 0.14639223E+04</pdfrwt>
<totfact> 0.46885674E+01</totfact>
</mgrwt>
</event>
<event>
12    6  0.1457317E-007  0.1811072E+04  0.7818608E-02  0.8700434E-01
         -1   -1    0    0    0  501 -0.00000000000E+00  0.00000000000E+00  0.22205061368E+03  0.22205061368E+03  0.00000000000E+00 0.  1.
          2   -1    0    0  501    0  0.00000000000E+00 -0.00000000000E+00 -0.36928305168E+04  0.36928305168E+04  0.00000000000E+00 0. -1.
         24    2    1    2    0    0 -0.21722231348E+03 -0.30018015249E+03 -0.25001795263E+04  0.25287541203E+04  0.80037990094E+02 0.  0.
        254    2    1    2    0    0  0.21722231348E+03  0.30018015249E+03 -0.97060037685E+03  0.13861270102E+04  0.91759977084E+03 0.  0.
         23    2    4    4    0    0  0.26080774721E+03 -0.21305573696E+03 -0.73190110185E+03  0.81112325051E+03  0.93958908973E+02 0.  0.
         23    2    4    4    0    0 -0.43585433727E+02  0.51323588945E+03 -0.23869927500E+03  0.57500375969E+03  0.91330233305E+02 0.  0.
          4    1    3    3  502    0 -0.20835230135E+03 -0.25323640211E+03 -0.22790935123E+04  0.23025652205E+04  0.00000000000E+00 0. -1.
         -3    1    3    3    0  502 -0.88700121331E+01 -0.46943750375E+02 -0.22108601397E+03  0.22618889979E+03  0.00000000000E+00 0.  1.
         11    1    5    5    0    0  0.12693113997E+03 -0.15935092863E+03 -0.46678636737E+03  0.50930712297E+03  0.00000000000E+00 0. -1.
        -11    1    5    5    0    0  0.13387660724E+03 -0.53704808335E+02 -0.26511473448E+03  0.30181612754E+03  0.00000000000E+00 0.  1.
          4    1    6    6  503    0 -0.13538179835E+01  0.37424888325E+03 -0.14094010413E+03  0.39991020541E+03  0.00000000000E+00 0. -1.
         -4    1    6    6    0  503 -0.42231615744E+02  0.13898700620E+03 -0.97759170873E+02  0.17509355428E+03  0.00000000000E+00 0.  1.
<mgrwt>
<rscale>  0 0.18110718E+04</rscale>
<asrwt>0</asrwt>
<pdfrwt beam="1">  1        2 0.56812775E+00 0.18110718E+04</pdfrwt>
<pdfrwt beam="2">  1       -1 0.34161634E-01 0.18110718E+04</pdfrwt>
<totfact> 0.51949528E+00</totfact>
</mgrwt>
</event>
<event>
12    6  0.1457317E-007  0.1508099E+04  0.7818608E-02  0.8879085E-01
         -1   -1    0    0    0  501 -0.00000000000E+00  0.00000000000E+00  0.90079744189E+03  0.90079744189E+03  0.00000000000E+00 0.  1.
          2   -1    0    0  501    0  0.00000000000E+00 -0.00000000000E+00 -0.63120844376E+03  0.63120844376E+03  0.00000000000E+00 0. -1.
         24    2    1    2    0    0  0.46618605672E+02 -0.21323661331E+03  0.52971522408E+03  0.57863689747E+03  0.81112840191E+02 0.  0.
        254    2    1    2    0    0 -0.46618605672E+02  0.21323661331E+03 -0.26012622594E+03  0.95336898818E+03  0.89084433351E+03 0.  0.
         23    2    4    4    0    0  0.37677197065E+03 -0.60277128414E+02 -0.19023594719E+03  0.43637793229E+03  0.92981364272E+02 0.  0.
         23    2    4    4    0    0 -0.42339057633E+03  0.27351374172E+03 -0.69890278747E+02  0.51699105589E+03  0.91245568512E+02 0.  0.
          4    1    3    3  502    0 -0.22231941787E+02 -0.36730018386E+02  0.84352491404E+02  0.94650389816E+02  0.00000000000E+00 0. -1.
         -3    1    3    3    0  502  0.68850547459E+02 -0.17650659492E+03  0.44536273267E+03  0.48398650766E+03  0.00000000000E+00 0.  1.
         11    1    5    5    0    0  0.11326139493E+03 -0.62000307426E+02 -0.58140860926E+02  0.14160699633E+03  0.00000000000E+00 0. -1.
        -11    1    5    5    0    0  0.26351057573E+03  0.17231790124E+01 -0.13209508627E+03  0.29477093595E+03  0.00000000000E+00 0.  1.
          3    1    6    6  503    0 -0.84958652570E+02  0.10160389927E+03 -0.11598226572E+02  0.13295053160E+03  0.00000000000E+00 0. -1.
         -3    1    6    6    0  503 -0.33843192376E+03  0.17190984246E+03 -0.58292052175E+02  0.38404052429E+03  0.00000000000E+00 0.  1.
<mgrwt>
<rscale>  0 0.15080994E+04</rscale>
<asrwt>0</asrwt>
<pdfrwt beam="1">  1        2 0.97108991E-01 0.15080994E+04</pdfrwt>
<pdfrwt beam="2">  1       -1 0.13858422E+00 0.15080994E+04</pdfrwt>
<totfact> 0.22142132E+01</totfact>
</mgrwt>
</event>
<event>
12    6  0.1457317E-007  0.1558150E+04  0.7818608E-02  0.8846679E-01
         -1   -1    0    0    0  501 -0.00000000000E+00  0.00000000000E+00  0.32931077795E+03  0.32931077795E+03  0.00000000000E+00 0.  1.
          2   -1    0    0  501    0  0.00000000000E+00 -0.00000000000E+00 -0.18431151554E+04  0.18431151554E+04  0.00000000000E+00 0. -1.
         24    2    1    2    0    0  0.22031049660E+03 -0.20583726990E+03  0.76070020902E+02  0.32121564067E+03  0.80542803127E+02 0.  0.
        254    2    1    2    0    0 -0.22031049660E+03  0.20583726990E+03 -0.15898743984E+04  0.18512102927E+04  0.89909579502E+03 0.  0.
         23    2    4    4    0    0 -0.41098463188E+03  0.45540567069E+03 -0.10579808747E+04  0.12266527232E+04  0.95135059731E+02 0.  0.
         23    2    4    4    0    0  0.19067413528E+03 -0.24956840078E+03 -0.53189352362E+03  0.62455756945E+03  0.92306145792E+02 0.  0.
          2    1    3    3  502    0  0.20130692037E+03 -0.17812056119E+03  0.39726374587E+02  0.27171601967E+03  0.00000000000E+00 0. -1.
         -1    1    3    3    0  502  0.19003576233E+02 -0.27716708710E+02  0.36343646315E+02  0.49499620997E+02  0.00000000000E+00 0.  1.
         11    1    5    5    0    0 -0.30452481658E+03  0.31370424167E+03 -0.82759115277E+03  0.93597693951E+03  0.00000000000E+00 0.  1.
        -11    1    5    5    0    0 -0.10645981530E+03  0.14170142901E+03 -0.23038972197E+03  0.29067578373E+03  0.00000000000E+00 0. -1.
          1    1    6    6  503    0  0.87079594771E+00 -0.18071847014E+02 -0.83356794221E+02  0.85297743715E+02  0.00000000000E+00 0. -1.
         -1    1    6    6    0  503  0.18980333934E+03 -0.23149655377E+03 -0.44853672940E+03  0.53925982574E+03  0.00000000000E+00 0.  1.
<mgrwt>
<rscale>  0 0.15581498E+04</rscale>
<asrwt>0</asrwt>
<pdfrwt beam="1">  1        2 0.28355618E+00 0.15581498E+04</pdfrwt>
<pdfrwt beam="2">  1       -1 0.50663197E-01 0.15581498E+04</pdfrwt>
<totfact> 0.35027868E+01</totfact>
</mgrwt>
</event>
<event>
12    6  0.1457317E-007  0.1948786E+04  0.7818608E-02  0.8630947E-01
          2   -1    0    0  501    0  0.00000000000E+00  0.00000000000E+00  0.23442756404E+04  0.23442756404E+04  0.00000000000E+00 0. -1.
         -1   -1    0    0    0  501 -0.00000000000E+00 -0.00000000000E+00 -0.40500418636E+03  0.40500418636E+03  0.00000000000E+00 0.  1.
         24    2    1    2    0    0 -0.21537294360E+03 -0.24972507144E+03 -0.21142582893E+03  0.39914892761E+03  0.76621597036E+02 0.  0.
        254    2    1    2    0    0  0.21537294360E+03  0.24972507144E+03  0.21506972829E+04  0.23501308991E+04  0.88818259613E+03 0.  0.
         23    2    4    4    0    0 -0.22449747444E+03 -0.11810053168E+03  0.12423312878E+04  0.12719811893E+04  0.10100626447E+03 0.  0.
         23    2    4    4    0    0  0.43987041804E+03  0.36782560312E+03  0.90836599510E+03  0.10781497099E+04  0.92175684803E+02 0.  0.
          2    1    3    3  502    0 -0.10372270714E+03 -0.80895812263E+02 -0.51800480662E+02  0.14137122131E+03  0.00000000000E+00 0. -1.
         -1    1    3    3    0  502 -0.11165023647E+03 -0.16882925918E+03 -0.15962534826E+03  0.25777770630E+03  0.00000000000E+00 0.  1.
         11    1    5    5    0    0 -0.59030593334E+02 -0.65387525433E+02  0.60637766143E+03  0.61274301931E+03  0.00000000000E+00 0. -1.
        -11    1    5    5    0    0 -0.16546688110E+03 -0.52713006249E+02  0.63595362640E+03  0.65923816994E+03  0.00000000000E+00 0.  1.
          1    1    6    6  503    0  0.10300825550E+03  0.13129482814E+03  0.22039406909E+03  0.27644633890E+03  0.00000000000E+00 0. -1.
         -1    1    6    6    0  503  0.33686216254E+03  0.23653077498E+03  0.68797192600E+03  0.80170337098E+03  0.00000000000E+00 0.  1.
<mgrwt>
<rscale>  0 0.19487857E+04</rscale>
<asrwt>0</asrwt>
<pdfrwt beam="1">  1        2 0.36065778E+00 0.19487857E+04</pdfrwt>
<pdfrwt beam="2">  1       -1 0.62308338E-01 0.19487857E+04</pdfrwt>
<totfact> 0.11874552E+01</totfact>
</mgrwt>
</event>
<event>
12    6  0.1457317E-007  0.2135338E+04  0.7818608E-02  0.8545835E-01
          2   -1    0    0  501    0  0.00000000000E+00  0.00000000000E+00  0.24235972723E+04  0.24235972723E+04  0.00000000000E+00 0. -1.
         -1   -1    0    0    0  501 -0.00000000000E+00 -0.00000000000E+00 -0.47034094980E+03  0.47034094980E+03  0.00000000000E+00 0.  1.
         24    2    1    2    0    0 -0.23230646311E+03 -0.42877230868E+03 -0.19713736479E+03  0.53185942536E+03  0.78735774938E+02 0.  0.
        254    2    1    2    0    0  0.23230646311E+03  0.42877230868E+03  0.21503936873E+04  0.23620787967E+04  0.84700132594E+03 0.  0.
         23    2    4    4    0    0 -0.14051227410E+03  0.50558658970E+03  0.16048008748E+04  0.16908481607E+04  0.90665075355E+02 0.  0.
         23    2    4    4    0    0  0.37281873721E+03 -0.76814281027E+02  0.54559281241E+03  0.67123063597E+03  0.89357736795E+02 0.  0.
          4    1    3    3  502    0  0.32805872731E+01 -0.35647768522E+01 -0.97415293017E+01  0.10879672789E+02  0.00000000000E+00 0. -1.
         -1    1    3    3    0  502 -0.23558705038E+03 -0.42520753182E+03 -0.18739583549E+03  0.52097975257E+03  0.00000000000E+00 0.  1.
         11    1    5    5    0    0 -0.12678903212E+03  0.43054412462E+03  0.14563647769E+04  0.15239560575E+04  0.00000000000E+00 0. -1.
        -11    1    5    5    0    0 -0.13723241990E+02  0.75042465087E+02  0.14843609798E+03  0.16689210323E+03  0.00000000000E+00 0.  1.
          2    1    6    6  503    0  0.34396136955E+03 -0.88121328553E+02  0.52578467460E+03  0.63444804069E+03  0.00000000000E+00 0. -1.
         -2    1    6    6    0  503  0.28857367665E+02  0.11307047526E+02  0.19808137811E+02  0.36782595285E+02  0.00000000000E+00 0.  1.
<mgrwt>
<rscale>  0 0.21353380E+04</rscale>
<asrwt>0</asrwt>
<pdfrwt beam="1">  1        2 0.37286111E+00 0.21353380E+04</pdfrwt>
<pdfrwt beam="2">  1       -1 0.72360148E-01 0.21353380E+04</pdfrwt>
<totfact> 0.77649268E+00</totfact>
</mgrwt>
</event>
<event>
12    6  0.1457317E-007  0.1262971E+04  0.7818608E-02  0.9059456E-01
          2   -1    0    0  501    0  0.00000000000E+00  0.00000000000E+00  0.21065535321E+04  0.21065535321E+04  0.00000000000E+00 0. -1.
         -1   -1    0    0    0  501 -0.00000000000E+00 -0.00000000000E+00 -0.18930162538E+03  0.18930162538E+03  0.00000000000E+00 0.  1.
         24    2    1    2    0    0  0.19991626194E+03 -0.34167714115E+01  0.66304002218E+02  0.22399233637E+03  0.76145649425E+02 0.  0.
        254    2    1    2    0    0 -0.19991626194E+03  0.34167714115E+01  0.18509479045E+04  0.20718628211E+04  0.90919151900E+03 0.  0.
         23    2    4    4    0    0 -0.35693345823E+03  0.10252886830E+03  0.24884625294E+03  0.45650221563E+03  0.92499474721E+02 0.  0.
         23    2    4    4    0    0  0.15701719629E+03 -0.99112096889E+02  0.16021016515E+04  0.16153606055E+04  0.90457593233E+02 0.  0.
          2    1    3    3  502    0  0.81596323823E+02 -0.34121827058E+02  0.47260565918E+02  0.10027871277E+03  0.00000000000E+00 0. -1.
         -3    1    3    3    0  502  0.11831993812E+03  0.30705055647E+02  0.19043436299E+02  0.12371362360E+03  0.00000000000E+00 0.  1.
         11    1    5    5    0    0 -0.15543036635E+02  0.98387616226E+01  0.44075779539E+02  0.47760460216E+02  0.00000000000E+00 0.  1.
        -11    1    5    5    0    0 -0.34139042160E+03  0.92690106678E+02  0.20477047341E+03  0.40874175541E+03  0.00000000000E+00 0. -1.
          2    1    6    6  503    0  0.14991392102E+03 -0.98575852637E+02  0.15957855466E+04  0.16058402453E+04  0.00000000000E+00 0. -1.
         -2    1    6    6    0  503  0.71032752679E+01 -0.53624425242E+00  0.63161048929E+01  0.95203602058E+01  0.00000000000E+00 0.  1.
<mgrwt>
<rscale>  0 0.12629711E+04</rscale>
<asrwt>0</asrwt>
<pdfrwt beam="1">  1        2 0.32408514E+00 0.12629711E+04</pdfrwt>
<pdfrwt beam="2">  1       -1 0.29123328E-01 0.12629711E+04</pdfrwt>
<totfact> 0.70219064E+01</totfact>
</mgrwt>
</event>
<event>
12    6  0.1457317E-007  0.1435858E+04  0.7818608E-02  0.8928264E-01
          2   -1    0    0  501    0  0.00000000000E+00  0.00000000000E+00  0.16287955128E+04  0.16287955128E+04  0.00000000000E+00 0. -1.
         -1   -1    0    0    0  501 -0.00000000000E+00 -0.00000000000E+00 -0.31644362536E+03  0.31644362536E+03  0.00000000000E+00 0.  1.
         24    2    1    2    0    0  0.11892331467E+03 -0.37730612851E+03  0.64098976541E+03  0.75688623061E+03  0.74203890355E+02 0.  0.
        254    2    1    2    0    0 -0.11892331467E+03  0.37730612851E+03  0.67136212202E+03  0.11883529075E+04  0.89719165432E+03 0.  0.
         23    2    4    4    0    0 -0.34146157309E+03  0.27932570631E+03  0.78347916528E+03  0.90373955689E+03  0.91031467945E+02 0.  0.
         23    2    4    4    0    0  0.22253825842E+03  0.97980422204E+02 -0.11211704326E+03  0.28461335065E+03  0.96493981077E+02 0.  0.
          2    1    3    3  502    0  0.12793637579E+03 -0.36382597442E+03  0.60586064761E+03  0.71819508508E+03  0.00000000000E+00 0. -1.
         -1    1    3    3    0  502 -0.90130611167E+01 -0.13480154090E+02  0.35129117794E+02  0.38691145524E+02  0.00000000000E+00 0.  1.
         11    1    5    5    0    0 -0.11094376302E+03  0.64729513610E+02  0.15955402365E+03  0.20483143057E+03  0.00000000000E+00 0.  1.
        -11    1    5    5    0    0 -0.23051781007E+03  0.21459619270E+03  0.62392514163E+03  0.69890812632E+03  0.00000000000E+00 0. -1.
          2    1    6    6  503    0  0.69688140478E+02  0.20053636937E+02 -0.83637910785E+02  0.11069726915E+03  0.00000000000E+00 0. -1.
         -2    1    6    6    0  503  0.15285011794E+03  0.77926785267E+02 -0.28479132473E+02  0.17391608150E+03  0.00000000000E+00 0.  1.
<mgrwt>
<rscale>  0 0.14358579E+04</rscale>
<asrwt>0</asrwt>
<pdfrwt beam="1">  1        2 0.25058392E+00 0.14358579E+04</pdfrwt>
<pdfrwt beam="2">  1       -1 0.48683636E-01 0.14358579E+04</pdfrwt>
<totfact> 0.50185566E+01</totfact>
</mgrwt>
</event>
<event>
12    6  0.1457317E-007  0.1442705E+04  0.7818608E-02  0.8923474E-01
          2   -1    0    0  501    0  0.00000000000E+00  0.00000000000E+00  0.27153286658E+04  0.27153286658E+04  0.00000000000E+00 0. -1.
         -1   -1    0    0    0  501 -0.00000000000E+00 -0.00000000000E+00 -0.19163401829E+03  0.19163401829E+03  0.00000000000E+00 0.  1.
         24    2    1    2    0    0 -0.41018307295E+03  0.77491412728E+02  0.86620609158E+03  0.96479122639E+03  0.79082520528E+02 0.  0.
        254    2    1    2    0    0  0.41018307295E+03 -0.77491412728E+02  0.16574885559E+04  0.19421714577E+04  0.92222913946E+03 0.  0.
         23    2    4    4    0    0 -0.39722081465E+02 -0.41418739541E+03  0.88658634178E+03  0.98373158510E+03  0.92538898923E+02 0.  0.
         23    2    4    4    0    0  0.44990515442E+03  0.33669598268E+03  0.77090221411E+03  0.95843987256E+03  0.92400935445E+02 0.  0.
          4    1    3    3  502    0 -0.29307059712E+03  0.61181297275E+02  0.53444895416E+03  0.61259220583E+03  0.00000000000E+00 0. -1.
         -3    1    3    3    0  502 -0.11711247583E+03  0.16310115453E+02  0.33175713742E+03  0.35219902057E+03  0.00000000000E+00 0.  1.
         11    1    5    5    0    0 -0.39398078702E+02 -0.11130825307E+03  0.18381558187E+03  0.21847174633E+03  0.00000000000E+00 0. -1.
        -11    1    5    5    0    0 -0.32400276304E+00 -0.30287914234E+03  0.70277075992E+03  0.76525983877E+03  0.00000000000E+00 0.  1.
          3    1    6    6  503    0  0.18007788510E+03  0.85654258488E+02  0.23778222761E+03  0.31033060511E+03  0.00000000000E+00 0. -1.
         -3    1    6    6    0  503  0.26982726931E+03  0.25104172420E+03  0.53311998650E+03  0.64810926745E+03  0.00000000000E+00 0.  1.
<mgrwt>
<rscale>  0 0.14427049E+04</rscale>
<asrwt>0</asrwt>
<pdfrwt beam="1">  1        2 0.41774284E+00 0.14427049E+04</pdfrwt>
<pdfrwt beam="2">  1       -1 0.29482159E-01 0.14427049E+04</pdfrwt>
<totfact> 0.30384716E+01</totfact>
</mgrwt>
</event>
<event>
12    6  0.1457317E-007  0.1434513E+04  0.7818608E-02  0.8929208E-01
         -1   -1    0    0    0  501 -0.00000000000E+00  0.00000000000E+00  0.18917422173E+03  0.18917422173E+03  0.00000000000E+00 0.  1.
          2   -1    0    0  501    0  0.00000000000E+00 -0.00000000000E+00 -0.27194884739E+04  0.27194884739E+04  0.00000000000E+00 0. -1.
         24    2    1    2    0    0  0.31623012910E+03  0.25724770620E+03 -0.10357608975E+04  0.11159918749E+04  0.80370088344E+02 0.  0.
        254    2    1    2    0    0 -0.31623012910E+03 -0.25724770620E+03 -0.14945533546E+04  0.17926708207E+04  0.90210923104E+03 0.  0.
         23    2    4    4    0    0  0.24828247151E+03 -0.30230142239E+03 -0.48262434960E+03  0.62940545273E+03  0.10096843797E+03 0.  0.
         23    2    4    4    0    0 -0.56451260061E+03  0.45053716191E+02 -0.10119290050E+04  0.11632653680E+04  0.92096099540E+02 0.  0.
          2    1    3    3  502    0  0.23026094698E+03  0.22017556667E+03 -0.73715858871E+03  0.80305676560E+03  0.00000000000E+00 0. -1.
         -1    1    3    3    0  502  0.85969182119E+02  0.37072139533E+02 -0.29860230881E+03  0.31293510929E+03  0.00000000000E+00 0.  1.
         11    1    5    5    0    0 -0.63943856990E+01 -0.16772640874E+01 -0.30786563353E+00  0.66178670683E+01  0.00000000000E+00 0.  1.
        -11    1    5    5    0    0  0.25467685720E+03 -0.30062415830E+03 -0.48231648396E+03  0.62278758566E+03  0.00000000000E+00 0. -1.
          2    1    6    6  503    0 -0.28743983782E+03  0.12679704512E+02 -0.42257751044E+03  0.51122811699E+03  0.00000000000E+00 0. -1.
         -2    1    6    6    0  503 -0.27707276279E+03  0.32374011679E+02 -0.58935149460E+03  0.65203725101E+03  0.00000000000E+00 0.  1.
<mgrwt>
<rscale>  0 0.14345133E+04</rscale>
<asrwt>0</asrwt>
<pdfrwt beam="1">  1        2 0.41838286E+00 0.14345133E+04</pdfrwt>
<pdfrwt beam="2">  1       -1 0.29103725E-01 0.14345133E+04</pdfrwt>
<totfact> 0.30926191E+01</totfact>
</mgrwt>
</event>
<event>
12    6  0.1457317E-007  0.2624198E+04  0.7818608E-02  0.8360028E-01
         -1   -1    0    0    0  501 -0.00000000000E+00  0.00000000000E+00  0.62962499776E+03  0.62962499776E+03  0.00000000000E+00 0.  1.
          2   -1    0    0  501    0  0.00000000000E+00 -0.00000000000E+00 -0.27343322651E+04  0.27343322651E+04  0.00000000000E+00 0. -1.
         24    2    1    2    0    0 -0.22096987894E+03  0.17139392625E+03  0.51239484838E+03  0.58910093720E+03  0.79296079438E+02 0.  0.
        254    2    1    2    0    0  0.22096987894E+03 -0.17139392625E+03 -0.26171021158E+04  0.27748563257E+04  0.87886323087E+03 0.  0.
         23    2    4    4    0    0 -0.23780433946E+03 -0.24298601552E+03 -0.53795371508E+03  0.64260313246E+03  0.89171064109E+02 0.  0.
         23    2    4    4    0    0  0.45877421841E+03  0.71592089272E+02 -0.20791484007E+04  0.21322531932E+04  0.89701712850E+02 0.  0.
          2    1    3    3  502    0 -0.47163031265E+02  0.17098094261E+02  0.46266639225E+02  0.68244400874E+02  0.00000000000E+00 0. -1.
         -1    1    3    3    0  502 -0.17380684768E+03  0.15429583199E+03  0.46612820915E+03  0.52085653633E+03  0.00000000000E+00 0.  1.
         11    1    5    5    0    0 -0.21772388810E+03 -0.17360805444E+03 -0.40892979822E+03  0.49473935349E+03  0.00000000000E+00 0. -1.
        -11    1    5    5    0    0 -0.20080451360E+02 -0.69377961074E+02 -0.12902391687E+03  0.14786377898E+03  0.00000000000E+00 0.  1.
          4    1    6    6  503    0  0.29898964994E+03  0.42895874068E+01 -0.12676907528E+04  0.13024795799E+04  0.00000000000E+00 0. -1.
         -4    1    6    6    0  503  0.15978456846E+03  0.67302501865E+02 -0.81145764787E+03  0.82977361332E+03  0.00000000000E+00 0.  1.
<mgrwt>
<rscale>  0 0.26241981E+04</rscale>
<asrwt>0</asrwt>
<pdfrwt beam="1">  1        2 0.42066650E+00 0.26241981E+04</pdfrwt>
<pdfrwt beam="2">  1       -1 0.96865385E-01 0.26241981E+04</pdfrwt>
<totfact> 0.26048355E+00</totfact>
</mgrwt>
</event>
<event>
12    6  0.1457317E-007  0.4108972E+04  0.7818608E-02  0.7982917E-01
         -1   -1    0    0    0  501 -0.00000000000E+00  0.00000000000E+00  0.18251286856E+04  0.18251286856E+04  0.00000000000E+00 0.  1.
          2   -1    0    0  501    0  0.00000000000E+00 -0.00000000000E+00 -0.23126661372E+04  0.23126661372E+04  0.00000000000E+00 0. -1.
         24    2    1    2    0    0  0.16382482428E+04  0.10250599624E+04 -0.25429581386E+03  0.19507885781E+04  0.79400779416E+02 0.  0.
        254    2    1    2    0    0 -0.16382482428E+04 -0.10250599624E+04 -0.23324163770E+03  0.21870062448E+04  0.99699018129E+03 0.  0.
         23    2    4    4    0    0 -0.13659898471E+04 -0.12074257787E+04 -0.12361008706E+03  0.18295864384E+04  0.91114261601E+02 0.  0.
         23    2    4    4    0    0 -0.27225839576E+03  0.18236581634E+03 -0.10963155064E+03  0.35741980636E+03  0.91366930841E+02 0.  0.
          4    1    3    3  502    0  0.35149652210E+03  0.19966011204E+03 -0.25689901232E+02  0.40506041082E+03  0.00000000000E+00 0. -1.
         -3    1    3    3    0  502  0.12867517207E+04  0.82539985032E+03 -0.22860591263E+03  0.15457281672E+04  0.00000000000E+00 0.  1.
         11    1    5    5    0    0 -0.75399040178E+02 -0.52987790431E+02  0.10882634524E+02  0.92796298033E+02  0.00000000000E+00 0. -1.
        -11    1    5    5    0    0 -0.12905908069E+04 -0.11544379883E+04 -0.13449272158E+03  0.17367901404E+04  0.00000000000E+00 0.  1.
          3    1    6    6  503    0 -0.87689595032E+02  0.11294385998E+03 -0.47380870583E+02  0.15063441666E+03  0.00000000000E+00 0. -1.
         -3    1    6    6    0  503 -0.18456880072E+03  0.69421956356E+02 -0.62250680056E+02  0.20678538970E+03  0.00000000000E+00 0.  1.
<mgrwt>
<rscale>  0 0.41089723E+04</rscale>
<asrwt>0</asrwt>
<pdfrwt beam="1">  1        2 0.35579479E+00 0.41089723E+04</pdfrwt>
<pdfrwt beam="2">  1       -1 0.28078903E+00 0.41089723E+04</pdfrwt>
<totfact> 0.17441529E-01</totfact>
</mgrwt>
</event>
<event>
12    6  0.1457317E-007  0.1159619E+04  0.7818608E-02  0.9148955E-01
         -1   -1    0    0    0  501 -0.00000000000E+00  0.00000000000E+00  0.14577100584E+03  0.14577100584E+03  0.00000000000E+00 0.  1.
          2   -1    0    0  501    0  0.00000000000E+00 -0.00000000000E+00 -0.23062152172E+04  0.23062152172E+04  0.00000000000E+00 0. -1.
         24    2    1    2    0    0  0.17178041602E+03 -0.13314819845E+03 -0.41848116114E+03  0.47850856909E+03  0.81283543174E+02 0.  0.
        254    2    1    2    0    0 -0.17178041602E+03  0.13314819845E+03 -0.17419630502E+04  0.19734776539E+04  0.90163286775E+03 0.  0.
         23    2    4    4    0    0 -0.32021166053E+03 -0.25911771119E+03 -0.47828876100E+03  0.63889648934E+03  0.98747604535E+02 0.  0.
         23    2    4    4    0    0  0.14843124451E+03  0.39226590964E+03 -0.12636742892E+04  0.13345811646E+04  0.91267724127E+02 0.  0.
          2    1    3    3  502    0  0.16417067667E+03 -0.12942189749E+03 -0.42067617329E+03  0.46975576782E+03  0.00000000000E+00 0. -1.
         -1    1    3    3    0  502  0.76097393491E+01 -0.37263009607E+01  0.21950121496E+01  0.87528012744E+01  0.00000000000E+00 0.  1.
         11    1    5    5    0    0 -0.17593124628E+03 -0.18725478558E+03 -0.34233907469E+03  0.42803294289E+03  0.00000000000E+00 0. -1.
        -11    1    5    5    0    0 -0.14428041425E+03 -0.71862925609E+02 -0.13594968631E+03  0.21086354645E+03  0.00000000000E+00 0.  1.
          2    1    6    6  503    0  0.12010862072E+03  0.33666534543E+03 -0.11574255521E+04  0.12113643317E+04  0.00000000000E+00 0. -1.
         -2    1    6    6    0  503  0.28322623796E+02  0.55600564208E+02 -0.10624873713E+03  0.12321683286E+03  0.00000000000E+00 0.  1.
<mgrwt>
<rscale>  0 0.11596194E+04</rscale>
<asrwt>0</asrwt>
<pdfrwt beam="1">  1        2 0.35480236E+00 0.11596194E+04</pdfrwt>
<pdfrwt beam="2">  1       -1 0.22426308E-01 0.11596194E+04</pdfrwt>
<totfact> 0.85848651E+01</totfact>
</mgrwt>
</event>
<event>
12    6  0.1457317E-007  0.2007694E+04  0.7818608E-02  0.8603032E-01
          2   -1    0    0  501    0  0.00000000000E+00  0.00000000000E+00  0.23934540091E+04  0.23934540091E+04  0.00000000000E+00 0. -1.
         -3   -1    0    0    0  501 -0.00000000000E+00 -0.00000000000E+00 -0.42102722210E+03  0.42102722210E+03  0.00000000000E+00 0.  1.
         24    2    1    2    0    0 -0.78388560150E+02 -0.57476783050E+03  0.15477497093E+04  0.16548428496E+04  0.80454140809E+02 0.  0.
        254    2    1    2    0    0  0.78388560150E+02  0.57476783050E+03  0.42467707770E+03  0.11596383816E+04  0.90989435128E+03 0.  0.
         23    2    4    4    0    0 -0.12298718784E+03  0.51892733834E+02 -0.23808065704E+03  0.28685183268E+03  0.88220578408E+02 0.  0.
         23    2    4    4    0    0  0.20137574799E+03  0.52287509666E+03  0.66275773474E+03  0.87278654896E+03  0.92509385938E+02 0.  0.
          2    1    3    3  502    0 -0.69465510597E+02 -0.53942722377E+03  0.14938250619E+04  0.15897548561E+04  0.00000000000E+00 0. -1.
         -1    1    3    3    0  502 -0.89230495533E+01 -0.35340606727E+02  0.53924647423E+02  0.65087993492E+02  0.00000000000E+00 0.  1.
         11    1    5    5    0    0 -0.13260443263E+03  0.59155515803E+02 -0.23108563548E+03  0.27291735293E+03  0.00000000000E+00 0. -1.
        -11    1    5    5    0    0  0.96172447882E+01 -0.72627819696E+01 -0.69950215608E+01  0.13934479750E+02  0.00000000000E+00 0.  1.
          3    1    6    6  503    0  0.14955007917E+03  0.41618765403E+03  0.57420098810E+03  0.72476490276E+03  0.00000000000E+00 0. -1.
         -3    1    6    6    0  503  0.51825668824E+02  0.10668744264E+03  0.88556746645E+02  0.14802164619E+03  0.00000000000E+00 0.  1.
<mgrwt>
<rscale>  0 0.20076945E+04</rscale>
<asrwt>0</asrwt>
<pdfrwt beam="1">  1        2 0.36822368E+00 0.20076945E+04</pdfrwt>
<pdfrwt beam="2">  1       -3 0.64773420E-01 0.20076945E+04</pdfrwt>
<totfact> 0.55155839E+00</totfact>
</mgrwt>
</event>
<event>
12    6  0.1457317E-007  0.2121328E+04  0.7818608E-02  0.8551906E-01
         -1   -1    0    0    0  501 -0.00000000000E+00  0.00000000000E+00  0.88501026775E+03  0.88501026775E+03  0.00000000000E+00 0.  1.
          2   -1    0    0  501    0  0.00000000000E+00 -0.00000000000E+00 -0.12711802989E+04  0.12711802989E+04  0.00000000000E+00 0. -1.
         24    2    1    2    0    0 -0.54763043964E+02  0.77383045729E+03  0.23761410222E+03  0.81503933115E+03  0.77563407229E+02 0.  0.
        254    2    1    2    0    0  0.54763043964E+02 -0.77383045729E+03 -0.62378413341E+03  0.13411512356E+04  0.89875882412E+03 0.  0.
         23    2    4    4    0    0 -0.32950029105E+03 -0.67917454552E+03 -0.28249628460E+03  0.81085289698E+03  0.88485957327E+02 0.  0.
         23    2    4    4    0    0  0.38426333501E+03 -0.94655911765E+02 -0.34128784881E+03  0.53029833857E+03  0.90115924683E+02 0.  0.
          4    1    3    3  502    0 -0.17251384901E+02  0.71695786127E+02  0.43436157832E+02  0.85583852663E+02  0.00000000000E+00 0. -1.
         -3    1    3    3    0  502 -0.37511659063E+02  0.70213467116E+03  0.19417794438E+03  0.72945547849E+03  0.00000000000E+00 0.  1.
         11    1    5    5    0    0 -0.21221295346E+03 -0.35350212138E+03 -0.17966674606E+03  0.44975351814E+03  0.00000000000E+00 0.  1.
        -11    1    5    5    0    0 -0.11728733759E+03 -0.32567242414E+03 -0.10282953854E+03  0.36109937884E+03  0.00000000000E+00 0. -1.
          3    1    6    6  503    0  0.16941764322E+03 -0.14918279313E+02 -0.19346879690E+03  0.25759477531E+03  0.00000000000E+00 0. -1.
         -3    1    6    6    0  503  0.21484569179E+03 -0.79737632452E+02 -0.14781905191E+03  0.27270356327E+03  0.00000000000E+00 0.  1.
<mgrwt>
<rscale>  0 0.21213275E+04</rscale>
<asrwt>0</asrwt>
<pdfrwt beam="1">  1        2 0.19556620E+00 0.21213275E+04</pdfrwt>
<pdfrwt beam="2">  1       -1 0.13615543E+00 0.21213275E+04</pdfrwt>
<totfact> 0.81224410E+00</totfact>
</mgrwt>
</event>
<event>
12    6  0.1457317E-007  0.1355590E+04  0.7818608E-02  0.8986608E-01
         -1   -1    0    0    0  501 -0.00000000000E+00  0.00000000000E+00  0.10537560175E+04  0.10537560175E+04  0.00000000000E+00 0.  1.
          2   -1    0    0  501    0  0.00000000000E+00 -0.00000000000E+00 -0.43596980522E+03  0.43596980522E+03  0.00000000000E+00 0. -1.
         24    2    1    2    0    0 -0.22305379764E+03 -0.19238415752E+02 -0.17809746550E+03  0.29809330314E+03  0.83772291837E+02 0.  0.
        254    2    1    2    0    0  0.22305379764E+03  0.19238415752E+02  0.79588367776E+03  0.11916325196E+04  0.85815739806E+03 0.  0.
         23    2    4    4    0    0  0.52572711050E+03  0.12726362352E+03  0.45180538975E+03  0.71136691266E+03  0.96590629149E+02 0.  0.
         23    2    4    4    0    0 -0.30267331286E+03 -0.10802520777E+03  0.34407828802E+03  0.48026560690E+03  0.94787156589E+02 0.  0.
          4    1    3    3  502    0 -0.11257538215E+03 -0.42462841317E+02 -0.12445080792E+03  0.17310203104E+03  0.00000000000E+00 0. -1.
         -3    1    3    3    0  502 -0.11047841550E+03  0.23224425565E+02 -0.53646657580E+02  0.12499127211E+03  0.00000000000E+00 0.  1.
         11    1    5    5    0    0  0.26660704035E+03  0.17339110269E+02  0.20055186381E+03  0.33406737163E+03  0.00000000000E+00 0. -1.
        -11    1    5    5    0    0  0.25912007015E+03  0.10992451325E+03  0.25125352594E+03  0.37729954104E+03  0.00000000000E+00 0.  1.
          2    1    6    6  503    0 -0.23635191934E+03 -0.42372165075E+02  0.22585739433E+03  0.32965010651E+03  0.00000000000E+00 0. -1.
         -2    1    6    6    0  503 -0.66321393520E+02 -0.65653042693E+02  0.11822089368E+03  0.15061550039E+03  0.00000000000E+00 0.  1.
<mgrwt>
<rscale>  0 0.13555896E+04</rscale>
<asrwt>0</asrwt>
<pdfrwt beam="1">  1        2 0.67072278E-01 0.13555896E+04</pdfrwt>
<pdfrwt beam="2">  1       -1 0.16211631E+00 0.13555896E+04</pdfrwt>
<totfact> 0.22687850E+01</totfact>
</mgrwt>
</event>
<event>
12    6  0.1457317E-007  0.1881909E+04  0.7818608E-02  0.8663914E-01
          2   -1    0    0  501    0  0.00000000000E+00  0.00000000000E+00  0.18105315356E+04  0.18105315356E+04  0.00000000000E+00 0. -1.
         -1   -1    0    0    0  501 -0.00000000000E+00 -0.00000000000E+00 -0.48902523207E+03  0.48902523207E+03  0.00000000000E+00 0.  1.
         24    2    1    2    0    0 -0.48224167174E+03 -0.35877863303E+03  0.27823031675E+02  0.60724557149E+03  0.81816413450E+02 0.  0.
        254    2    1    2    0    0  0.48224167174E+03  0.35877863303E+03  0.12936832719E+04  0.16923111962E+04  0.91050625444E+03 0.  0.
         23    2    4    4    0    0  0.50873908100E+03 -0.15174368252E+03  0.45132419132E+03  0.70256300940E+03  0.89775602426E+02 0.  0.
         23    2    4    4    0    0 -0.26497409254E+02  0.51052231555E+03  0.84235908058E+03  0.98974818682E+03  0.93260416617E+02 0.  0.
          4    1    3    3  502    0 -0.26756675153E+03 -0.16203425377E+03 -0.13707605629E+02  0.31310535666E+03  0.00000000000E+00 0. -1.
         -3    1    3    3    0  502 -0.21467492021E+03 -0.19674437927E+03  0.41530637304E+02  0.29414021483E+03  0.00000000000E+00 0.  1.
         11    1    5    5    0    0  0.40123868214E+03 -0.12796628912E+03  0.40094702303E+03  0.58148634247E+03  0.00000000000E+00 0. -1.
        -11    1    5    5    0    0  0.10750039886E+03 -0.23777393398E+02  0.50377168283E+02  0.12107666693E+03  0.00000000000E+00 0.  1.
          4    1    6    6  503    0 -0.27789633818E+02  0.42574790847E+03  0.75987407865E+03  0.87145978721E+03  0.00000000000E+00 0. -1.
         -4    1    6    6    0  503  0.12922245633E+01  0.84774407077E+02  0.82485001933E+02  0.11828839962E+03  0.00000000000E+00 0.  1.
<mgrwt>
<rscale>  0 0.18819092E+04</rscale>
<asrwt>0</asrwt>
<pdfrwt beam="1">  1        2 0.27854331E+00 0.18819092E+04</pdfrwt>
<pdfrwt beam="2">  1       -1 0.75234652E-01 0.18819092E+04</pdfrwt>
<totfact> 0.16151990E+01</totfact>
</mgrwt>
</event>
<event>
12    6  0.1457317E-007  0.1457284E+04  0.7818608E-02  0.8913366E-01
          2   -1    0    0  501    0  0.00000000000E+00  0.00000000000E+00  0.23314065056E+04  0.23314065056E+04  0.00000000000E+00 0. -1.
         -1   -1    0    0    0  501 -0.00000000000E+00 -0.00000000000E+00 -0.22772478947E+03  0.22772478947E+03  0.00000000000E+00 0.  1.
         24    2    1    2    0    0 -0.22210066450E+03  0.82421442048E+02 -0.33605211220E+02  0.25204064554E+03  0.79203393251E+02 0.  0.
        254    2    1    2    0    0  0.22210066450E+03 -0.82421442048E+02  0.21372869274E+04  0.23070906496E+04  0.83579295050E+03 0.  0.
         23    2    4    4    0    0 -0.15990951887E+03  0.27792047860E+03  0.88919955534E+03  0.94991321276E+03  0.94066018892E+02 0.  0.
         23    2    4    4    0    0  0.38201018336E+03 -0.36034192065E+03  0.12480873721E+04  0.13571774368E+04  0.91817355446E+02 0.  0.
          4    1    3    3  502    0 -0.47640584520E+02 -0.14836366580E+02 -0.31824996372E+01  0.49998713690E+02  0.00000000000E+00 0. -1.
         -3    1    3    3    0  502 -0.17446007998E+03  0.97257808628E+02 -0.30422711582E+02  0.20204193185E+03  0.00000000000E+00 0.  1.
         11    1    5    5    0    0 -0.12540856929E+03  0.12389504585E+03  0.47492418993E+03  0.50658689069E+03  0.00000000000E+00 0.  1.
        -11    1    5    5    0    0 -0.34500949578E+02  0.15402543275E+03  0.41427536541E+03  0.44332632207E+03  0.00000000000E+00 0. -1.
          3    1    6    6  503    0  0.13046807627E+03 -0.16525935704E+03  0.41529657544E+03  0.46562197069E+03  0.00000000000E+00 0. -1.
         -3    1    6    6    0  503  0.25154210710E+03 -0.19508256361E+03  0.83279079661E+03  0.89155546613E+03  0.00000000000E+00 0.  1.
<mgrwt>
<rscale>  0 0.14572839E+04</rscale>
<asrwt>0</asrwt>
<pdfrwt beam="1">  1        2 0.35867791E+00 0.14572839E+04</pdfrwt>
<pdfrwt beam="2">  1       -1 0.35034585E-01 0.14572839E+04</pdfrwt>
<totfact> 0.37279721E+01</totfact>
</mgrwt>
</event>
<event>
12    6  0.1457317E-007  0.1596504E+04  0.7818608E-02  0.8822699E-01
          2   -1    0    0  501    0  0.00000000000E+00  0.00000000000E+00  0.75226116808E+03  0.75226116808E+03  0.00000000000E+00 0. -1.
         -1   -1    0    0    0  501 -0.00000000000E+00 -0.00000000000E+00 -0.84705470782E+03  0.84705470782E+03  0.00000000000E+00 0.  1.
         24    2    1    2    0    0  0.30232739242E+03  0.37655187629E+03 -0.27529481290E+03  0.56086763523E+03  0.74780361666E+02 0.  0.
        254    2    1    2    0    0 -0.30232739242E+03 -0.37655187629E+03  0.18050127315E+03  0.10384482407E+04  0.90144377039E+03 0.  0.
         23    2    4    4    0    0 -0.43382157161E+03  0.94239953271E+02  0.27817519217E+03  0.53169674211E+03  0.90761573623E+02 0.  0.
         23    2    4    4    0    0  0.13149417919E+03 -0.47079182956E+03 -0.97673919015E+02  0.50675149855E+03  0.91220726204E+02 0.  0.
          4    1    3    3  502    0  0.15501729366E+03  0.24359335375E+03 -0.14155849584E+03  0.32156941874E+03  0.00000000000E+00 0. -1.
         -3    1    3    3    0  502  0.14731009876E+03  0.13295852254E+03 -0.13373631706E+03  0.23929821649E+03  0.00000000000E+00 0.  1.
         11    1    5    5    0    0 -0.43142562502E+03  0.97904455121E+02  0.28300988985E+03  0.52517420920E+03  0.00000000000E+00 0.  1.
        -11    1    5    5    0    0 -0.23959465955E+01 -0.36645018500E+01 -0.48346976848E+01  0.65225329130E+01  0.00000000000E+00 0. -1.
          3    1    6    6  503    0  0.35361910760E+02 -0.13613654059E+03  0.13359813358E+02  0.14128732083E+03  0.00000000000E+00 0. -1.
         -3    1    6    6    0  503  0.96132268426E+02 -0.33465528898E+03 -0.11103373237E+03  0.36546417772E+03  0.00000000000E+00 0.  1.
<mgrwt>
<rscale>  0 0.15965041E+04</rscale>
<asrwt>0</asrwt>
<pdfrwt beam="1">  1        2 0.11573249E+00 0.15965041E+04</pdfrwt>
<pdfrwt beam="2">  1       -1 0.13031611E+00 0.15965041E+04</pdfrwt>
<totfact> 0.20625255E+01</totfact>
</mgrwt>
</event>
<event>
12    6  0.1457317E-007  0.1468616E+04  0.7818608E-02  0.8905595E-01
          2   -1    0    0  501    0  0.00000000000E+00  0.00000000000E+00  0.18052163831E+04  0.18052163831E+04  0.00000000000E+00 0. -1.
         -1   -1    0    0    0  501 -0.00000000000E+00 -0.00000000000E+00 -0.29869447009E+03  0.29869447009E+03  0.00000000000E+00 0.  1.
         24    2    1    2    0    0  0.29797229470E+03  0.31662496441E+03  0.29317988706E+03  0.53053980612E+03  0.80493373693E+02 0.  0.
        254    2    1    2    0    0 -0.29797229470E+03 -0.31662496441E+03  0.12133420260E+04  0.15733710471E+04  0.90236285570E+03 0.  0.
         23    2    4    4    0    0  0.18538601174E+03 -0.72729859116E+02  0.92917170743E+03  0.95501124989E+03  0.95020101935E+02 0.  0.
         23    2    4    4    0    0 -0.48335830644E+03 -0.24389510529E+03  0.28417031855E+03  0.61835979721E+03  0.92173716784E+02 0.  0.
          4    1    3    3  502    0  0.34079985008E+02  0.43291470908E+02  0.72858421425E+02  0.91345204604E+02  0.00000000000E+00 0. -1.
         -3    1    3    3    0  502  0.26389230969E+03  0.27333349350E+03  0.22032146564E+03  0.43919460152E+03  0.00000000000E+00 0.  1.
         11    1    5    5    0    0  0.29125888874E+02 -0.52620617235E+02  0.33216339438E+03  0.33756446396E+03  0.00000000000E+00 0. -1.
        -11    1    5    5    0    0  0.15626012287E+03 -0.20109241881E+02  0.59700831305E+03  0.61744678593E+03  0.00000000000E+00 0.  1.
          3    1    6    6  503    0 -0.32933894596E+03 -0.17916869574E+03  0.14894108834E+03  0.40342162888E+03  0.00000000000E+00 0. -1.
         -3    1    6    6    0  503 -0.15401936049E+03 -0.64726409554E+02  0.13522923022E+03  0.21493816833E+03  0.00000000000E+00 0.  1.
<mgrwt>
<rscale>  0 0.14686159E+04</rscale>
<asrwt>0</asrwt>
<pdfrwt beam="1">  1        2 0.27772559E+00 0.14686159E+04</pdfrwt>
<pdfrwt beam="2">  1       -1 0.45952997E-01 0.14686159E+04</pdfrwt>
<totfact> 0.44531121E+01</totfact>
</mgrwt>
</event>
<event>
12    6  0.1457317E-007  0.2921044E+04  0.7818608E-02  0.8266644E-01
         -3   -1    0    0    0  501 -0.00000000000E+00  0.00000000000E+00  0.89156404662E+03  0.89156404662E+03  0.00000000000E+00 0.  1.
          2   -1    0    0  501    0  0.00000000000E+00 -0.00000000000E+00 -0.23925639919E+04  0.23925639919E+04  0.00000000000E+00 0. -1.
         24    2    1    2    0    0 -0.10622420913E+04  0.64715356771E+03 -0.18165826255E+03  0.12599197797E+04  0.85041907817E+02 0.  0.
        254    2    1    2    0    0  0.10622420913E+04 -0.64715356771E+03 -0.13193416827E+04  0.20242082588E+04  0.89977252597E+03 0.  0.
         23    2    4    4    0    0 -0.81367044482E+02  0.38165855645E+02  0.19332924820E+02  0.13215733159E+03  0.94945088581E+02 0.  0.
         23    2    4    4    0    0  0.11436091358E+04 -0.68531942335E+03 -0.13386746075E+04  0.18920509272E+04  0.10150092998E+03 0.  0.
          2    1    3    3  502    0 -0.36029703006E+03  0.26554322376E+03 -0.76211609342E+02  0.45402132434E+03  0.00000000000E+00 0. -1.
         -1    1    3    3    0  502 -0.70194506128E+03  0.38161034394E+03 -0.10544665321E+03  0.80589845535E+03  0.00000000000E+00 0.  1.
         11    1    5    5    0    0 -0.31607947122E+02 -0.31739888766E+02  0.37846908080E+01  0.44953384128E+02  0.00000000000E+00 0. -1.
        -11    1    5    5    0    0 -0.49759097360E+02  0.69905744411E+02  0.15548234012E+02  0.87203947460E+02  0.00000000000E+00 0.  1.
          2    1    6    6  503    0  0.38309693011E+03 -0.19775811345E+03 -0.37842127891E+03  0.57364988767E+03  0.00000000000E+00 0. -1.
         -2    1    6    6    0  503  0.76051220571E+03 -0.48756130990E+03 -0.96025332864E+03  0.13184010396E+04  0.00000000000E+00 0.  1.
<mgrwt>
<rscale>  0 0.29210437E+04</rscale>
<asrwt>0</asrwt>
<pdfrwt beam="1">  1        2 0.36808676E+00 0.29210437E+04</pdfrwt>
<pdfrwt beam="2">  1       -3 0.13716370E+00 0.29210437E+04</pdfrwt>
<totfact> 0.89311411E-01</totfact>
</mgrwt>
</event>
<event>
12    6  0.1457317E-007  0.1223294E+04  0.7818608E-02  0.9092709E-01
          2   -1    0    0  501    0  0.00000000000E+00  0.00000000000E+00  0.21799963098E+04  0.21799963098E+04  0.00000000000E+00 0. -1.
         -1   -1    0    0    0  501 -0.00000000000E+00 -0.00000000000E+00 -0.17161122213E+03  0.17161122213E+03  0.00000000000E+00 0.  1.
         24    2    1    2    0    0 -0.48799585980E+02 -0.35471901769E+02  0.96103066715E+03  0.96624052731E+03  0.80007237133E+02 0.  0.
        254    2    1    2    0    0  0.48799585980E+02  0.35471901769E+02  0.10473544205E+04  0.13853670047E+04  0.90479323602E+03 0.  0.
         23    2    4    4    0    0  0.36355960314E+03  0.11354242443E+02  0.10984844231E+03  0.39243800304E+03  0.98165177616E+02 0.  0.
         23    2    4    4    0    0 -0.31476001716E+03  0.24117659326E+02  0.93750597823E+03  0.99292900161E+03  0.85644691187E+02 0.  0.
          4    1    3    3  502    0 -0.57779911732E+02 -0.54041406754E+02  0.72201504776E+03  0.72633650675E+03  0.00000000000E+00 0. -1.
         -3    1    3    3    0  502  0.89803257518E+01  0.18569504985E+02  0.23901561939E+03  0.23990402056E+03  0.00000000000E+00 0.  1.
         11    1    5    5    0    0  0.36121205863E+03 -0.39229833999E+01  0.10392799612E+03  0.37588637842E+03  0.00000000000E+00 0. -1.
        -11    1    5    5    0    0  0.23475445066E+01  0.15277225842E+02  0.59204461935E+01  0.16551624627E+02  0.00000000000E+00 0.  1.
          2    1    6    6  503    0 -0.16114548605E+03 -0.30431331791E+02  0.48167884143E+03  0.50883046284E+03  0.00000000000E+00 0. -1.
         -2    1    6    6    0  503 -0.15361453111E+03  0.54548991118E+02  0.45582713680E+03  0.48409853877E+03  0.00000000000E+00 0.  1.
<mgrwt>
<rscale>  0 0.12232936E+04</rscale>
<asrwt>0</asrwt>
<pdfrwt beam="1">  1        2 0.33538403E+00 0.12232936E+04</pdfrwt>
<pdfrwt beam="2">  1       -1 0.26401728E-01 0.12232936E+04</pdfrwt>
<totfact> 0.76024335E+01</totfact>
</mgrwt>
</event>
<event>
12    6  0.1457317E-007  0.1146332E+04  0.7818608E-02  0.9161174E-01
         -3   -1    0    0    0  501 -0.00000000000E+00  0.00000000000E+00  0.22890517260E+03  0.22890517260E+03  0.00000000000E+00 0.  1.
          2   -1    0    0  501    0  0.00000000000E+00 -0.00000000000E+00 -0.14351765495E+04  0.14351765495E+04  0.00000000000E+00 0. -1.
         24    2    1    2    0    0  0.20639023167E+02  0.21681674432E+03 -0.20746463688E+03  0.31121959192E+03  0.79878588752E+02 0.  0.
        254    2    1    2    0    0 -0.20639023167E+02 -0.21681674432E+03 -0.99880674006E+03  0.13528621302E+04  0.88610697407E+03 0.  0.
         23    2    4    4    0    0  0.34334392226E+03 -0.28190040624E+03 -0.80364369035E+03  0.92276688082E+03  0.91118863654E+02 0.  0.
         23    2    4    4    0    0 -0.36398294543E+03  0.65083661918E+02 -0.19516304972E+03  0.43009524940E+03  0.10086545479E+03 0.  0.
          4    1    3    3  502    0 -0.19817256764E+02  0.38437409330E+02 -0.70525114585E+02  0.82728168655E+02  0.00000000000E+00 0. -1.
         -1    1    3    3    0  502  0.40456279930E+02  0.17837933499E+03 -0.13693952230E+03  0.22849142327E+03  0.00000000000E+00 0.  1.
         11    1    5    5    0    0  0.10690140123E+03 -0.13940288710E+03 -0.27365043347E+03  0.32518553820E+03  0.00000000000E+00 0.  1.
        -11    1    5    5    0    0  0.23644252104E+03 -0.14249751914E+03 -0.52999325687E+03  0.59758134262E+03  0.00000000000E+00 0. -1.
          2    1    6    6  503    0 -0.23065817582E+03 -0.85708958634E+01 -0.11203310892E+03  0.25656981861E+03  0.00000000000E+00 0. -1.
         -2    1    6    6    0  503 -0.13332476961E+03  0.73654557781E+02 -0.83129940799E+02  0.17352543079E+03  0.00000000000E+00 0.  1.
<mgrwt>
<rscale>  0 0.11463321E+04</rscale>
<asrwt>0</asrwt>
<pdfrwt beam="1">  1        2 0.22079639E+00 0.11463321E+04</pdfrwt>
<pdfrwt beam="2">  1       -3 0.35216180E-01 0.11463321E+04</pdfrwt>
<totfact> 0.70072983E+01</totfact>
</mgrwt>
</event>
<event>
12    6  0.1457317E-007  0.3077185E+04  0.7818608E-02  0.8222027E-01
          2   -1    0    0  501    0  0.00000000000E+00  0.00000000000E+00  0.81369443987E+03  0.81369443987E+03  0.00000000000E+00 0. -1.
         -1   -1    0    0    0  501 -0.00000000000E+00 -0.00000000000E+00 -0.29092831577E+04  0.29092831577E+04  0.00000000000E+00 0.  1.
         24    2    1    2    0    0  0.13092175041E+04  0.50635171867E+03 -0.97358070109E+03  0.17101858509E+04  0.80210517680E+02 0.  0.
        254    2    1    2    0    0 -0.13092175041E+04 -0.50635171867E+03 -0.11220080167E+04  0.20127917466E+04  0.90663448523E+03 0.  0.
         23    2    4    4    0    0 -0.12793533294E+04 -0.34436658094E+03 -0.59942676077E+03  0.14572559056E+04  0.94599414907E+02 0.  0.
         23    2    4    4    0    0 -0.29864174700E+02 -0.16198513773E+03 -0.52258125595E+03  0.55553584109E+03  0.91639772433E+02 0.  0.
          4    1    3    3  502    0  0.46544716647E+03  0.21226773245E+03 -0.32521321313E+03  0.60618667835E+03  0.00000000000E+00 0. -1.
         -1    1    3    3    0  502  0.84377033760E+03  0.29408398622E+03 -0.64836748796E+03  0.11039991726E+04  0.00000000000E+00 0.  1.
         11    1    5    5    0    0 -0.12363352789E+04 -0.32491850337E+03 -0.55938790576E+03  0.13953536414E+04  0.00000000000E+00 0.  1.
        -11    1    5    5    0    0 -0.43018050510E+02 -0.19448077566E+02 -0.40038855015E+02  0.61902264107E+02  0.00000000000E+00 0. -1.
          3    1    6    6  503    0 -0.54330807465E+02 -0.97898123810E+02 -0.24129906101E+03  0.26600961661E+03  0.00000000000E+00 0. -1.
         -3    1    6    6    0  503  0.24466632764E+02 -0.64087013918E+02 -0.28128219493E+03  0.28952622448E+03  0.00000000000E+00 0.  1.
<mgrwt>
<rscale>  0 0.30771854E+04</rscale>
<asrwt>0</asrwt>
<pdfrwt beam="1">  1        2 0.12518376E+00 0.30771854E+04</pdfrwt>
<pdfrwt beam="2">  1       -1 0.44758203E+00 0.30771854E+04</pdfrwt>
<totfact> 0.10966147E-01</totfact>
</mgrwt>
</event>
<event>
12    6  0.1457317E-007  0.1318785E+04  0.7818608E-02  0.9014799E-01
         -1   -1    0    0    0  501 -0.00000000000E+00  0.00000000000E+00  0.38726180122E+03  0.38726180122E+03  0.00000000000E+00 0.  1.
          2   -1    0    0  501    0  0.00000000000E+00 -0.00000000000E+00 -0.11227513192E+04  0.11227513192E+04  0.00000000000E+00 0. -1.
         24    2    1    2    0    0 -0.28917058317E+03 -0.17228787964E+03 -0.10046195590E+03  0.35971614729E+03  0.77462006155E+02 0.  0.
        254    2    1    2    0    0  0.28917058317E+03  0.17228787964E+03 -0.63502756209E+03  0.11502969731E+04  0.89812047195E+03 0.  0.
         23    2    4    4    0    0 -0.87765530597E+02  0.42201451717E+03 -0.11567701104E+03  0.45592332490E+03  0.93197994798E+02 0.  0.
         23    2    4    4    0    0  0.37693611377E+03 -0.24972663754E+03 -0.51935055105E+03  0.69437364824E+03  0.89361855031E+02 0.  0.
          2    1    3    3  502    0 -0.14220346853E+03 -0.51876014730E+02 -0.71925380975E+02  0.16758940239E+03  0.00000000000E+00 0. -1.
         -1    1    3    3    0  502 -0.14696711464E+03 -0.12041186491E+03 -0.28536574921E+02  0.19212674490E+03  0.00000000000E+00 0.  1.
         11    1    5    5    0    0 -0.10322365593E+03  0.39854732495E+03 -0.11632105063E+03  0.42781500697E+03  0.00000000000E+00 0.  1.
        -11    1    5    5    0    0  0.15458125332E+02  0.23467192221E+02  0.64403959110E+00  0.28108317924E+02  0.00000000000E+00 0. -1.
          3    1    6    6  503    0  0.18513174555E+03 -0.74642510774E+02 -0.25450369915E+03  0.32344613231E+03  0.00000000000E+00 0. -1.
         -3    1    6    6    0  503  0.19180436821E+03 -0.17508412676E+03 -0.26484685190E+03  0.37092751592E+03  0.00000000000E+00 0.  1.
<mgrwt>
<rscale>  0 0.13187853E+04</rscale>
<asrwt>0</asrwt>
<pdfrwt beam="1">  1        2 0.17273097E+00 0.13187853E+04</pdfrwt>
<pdfrwt beam="2">  1       -1 0.59578738E-01 0.13187853E+04</pdfrwt>
<totfact> 0.67256511E+01</totfact>
</mgrwt>
</event>
<event>
12    6  0.1457317E-007  0.2239866E+04  0.7818608E-02  0.8502016E-01
         -1   -1    0    0    0  501 -0.00000000000E+00  0.00000000000E+00  0.92983483723E+03  0.92983483723E+03  0.00000000000E+00 0.  1.
          2   -1    0    0  501    0  0.00000000000E+00 -0.00000000000E+00 -0.13488959466E+04  0.13488959466E+04  0.00000000000E+00 0. -1.
         24    2    1    2    0    0 -0.56791844509E+03  0.26164899507E+03 -0.88715466846E+03  0.10881539228E+04  0.77743148184E+02 0.  0.
        254    2    1    2    0    0  0.56791844509E+03 -0.26164899507E+03  0.46809355907E+03  0.11905768610E+04  0.89853777053E+03 0.  0.
         23    2    4    4    0    0 -0.22363240279E+03 -0.41528301050E+02  0.84673154965E+01  0.24481989025E+03  0.90161143888E+02 0.  0.
         23    2    4    4    0    0  0.79155084788E+03 -0.22012069402E+03  0.45962624357E+03  0.94575697077E+03  0.90521264132E+02 0.  0.
          2    1    3    3  502    0 -0.52639082660E+03  0.21775988871E+03 -0.79887264767E+03  0.98117489708E+03  0.00000000000E+00 0. -1.
         -3    1    3    3    0  502 -0.41527618493E+02  0.43889106365E+02 -0.88282020795E+02  0.10697902575E+03  0.00000000000E+00 0.  1.
         11    1    5    5    0    0 -0.36117381621E+02 -0.25998551656E+02 -0.28799850614E+02  0.53007747913E+02  0.00000000000E+00 0. -1.
        -11    1    5    5    0    0 -0.18751502117E+03 -0.15529749394E+02  0.37267166111E+02  0.19181214234E+03  0.00000000000E+00 0.  1.
          2    1    6    6  503    0  0.37779459357E+03 -0.61580902328E+02  0.19381823754E+03  0.42905299401E+03  0.00000000000E+00 0. -1.
         -2    1    6    6    0  503  0.41375625431E+03 -0.15853979169E+03  0.26580800603E+03  0.51670397676E+03  0.00000000000E+00 0.  1.
<mgrwt>
<rscale>  0 0.22398665E+04</rscale>
<asrwt>0</asrwt>
<pdfrwt beam="1">  1        2 0.20752245E+00 0.22398665E+04</pdfrwt>
<pdfrwt beam="2">  1       -1 0.14305151E+00 0.22398665E+04</pdfrwt>
<totfact> 0.63672857E+00</totfact>
</mgrwt>
</event>
<event>
12    6  0.1457317E-007  0.1761740E+04  0.7818608E-02  0.8726915E-01
         -1   -1    0    0    0  501 -0.00000000000E+00  0.00000000000E+00  0.53736154862E+03  0.53736154862E+03  0.00000000000E+00 0.  1.
          2   -1    0    0  501    0  0.00000000000E+00 -0.00000000000E+00 -0.14439658783E+04  0.14439658783E+04  0.00000000000E+00 0. -1.
         24    2    1    2    0    0 -0.15491147022E+03 -0.21824830107E+02  0.37216777554E+03  0.41101913453E+03  0.77162095502E+02 0.  0.
        254    2    1    2    0    0  0.15491147022E+03  0.21824830107E+02 -0.12787721052E+04  0.15703082924E+04  0.89785085023E+03 0.  0.
         23    2    4    4    0    0  0.19096652231E+03 -0.27104153169E+03 -0.10809925971E+03  0.35957945576E+03  0.87636810263E+02 0.  0.
         23    2    4    4    0    0 -0.36055052090E+02  0.29286636180E+03 -0.11706728455E+04  0.12107288366E+04  0.91207082945E+02 0.  0.
          4    1    3    3  502    0 -0.13422586461E+02 -0.13955020792E+02  0.93347238596E+01  0.21495243709E+02  0.00000000000E+00 0. -1.
         -3    1    3    3    0  502 -0.14148888375E+03 -0.78698093157E+01  0.36283305168E+03  0.38952389082E+03  0.00000000000E+00 0.  1.
         11    1    5    5    0    0  0.37928347407E+02 -0.93923137209E+02 -0.68238830869E+02  0.12213375159E+03  0.00000000000E+00 0. -1.
        -11    1    5    5    0    0  0.15303817490E+03 -0.17711839448E+03 -0.39860428844E+02  0.23744570417E+03  0.00000000000E+00 0.  1.
          2    1    6    6  503    0 -0.11972015531E+02  0.25130428544E+03 -0.10700424148E+04  0.10992215165E+04  0.00000000000E+00 0.  1.
         -2    1    6    6    0  503 -0.24083036559E+02  0.41562076355E+02 -0.10063043075E+03  0.11150732009E+03  0.00000000000E+00 0. -1.
<mgrwt>
<rscale>  0 0.17617398E+04</rscale>
<asrwt>0</asrwt>
<pdfrwt beam="1">  1        2 0.22214860E+00 0.17617398E+04</pdfrwt>
<pdfrwt beam="2">  1       -1 0.82671008E-01 0.17617398E+04</pdfrwt>
<totfact> 0.21428405E+01</totfact>
</mgrwt>
</event>
<event>
12    6  0.1457317E-007  0.1621509E+04  0.7818608E-02  0.8807442E-01
         -1   -1    0    0    0  501 -0.00000000000E+00  0.00000000000E+00  0.19676476043E+03  0.19676476043E+03  0.00000000000E+00 0.  1.
          2   -1    0    0  501    0  0.00000000000E+00 -0.00000000000E+00 -0.33406538955E+04  0.33406538955E+04  0.00000000000E+00 0. -1.
         24    2    1    2    0    0 -0.17303627631E+03 -0.27474368536E+03 -0.10300379019E+03  0.34974435481E+03  0.79282326930E+02 0.  0.
        254    2    1    2    0    0  0.17303627631E+03  0.27474368536E+03 -0.30408853448E+04  0.31876743011E+04  0.89936540056E+03 0.  0.
         23    2    4    4    0    0 -0.24933590213E+02 -0.29005323614E+03 -0.15266940818E+04  0.15572046133E+04  0.96637593025E+02 0.  0.
         23    2    4    4    0    0  0.19796986652E+03  0.56479692151E+03 -0.15141912630E+04  0.16304696878E+04  0.86421011801E+02 0.  0.
          2    1    3    3  502    0  0.15240848932E+01 -0.38547252489E+02 -0.24619228008E+02  0.45763739980E+02  0.00000000000E+00 0. -1.
         -1    1    3    3    0  502 -0.17456036120E+03 -0.23619643287E+03 -0.78384562181E+02  0.30398061483E+03  0.00000000000E+00 0.  1.
         11    1    5    5    0    0 -0.23414305615E+02 -0.86319829189E+01 -0.14663625655E+03  0.14874452115E+03  0.00000000000E+00 0. -1.
        -11    1    5    5    0    0 -0.15192845983E+01 -0.28142125322E+03 -0.13800578253E+04  0.14084600921E+04  0.00000000000E+00 0.  1.
          1    1    6    6  503    0  0.12639831496E+03  0.28008203055E+03 -0.68244841097E+03  0.74843724620E+03  0.00000000000E+00 0. -1.
         -1    1    6    6    0  503  0.71571551555E+02  0.28471489095E+03 -0.83174285203E+03  0.88203244160E+03  0.00000000000E+00 0.  1.
<mgrwt>
<rscale>  0 0.16215091E+04</rscale>
<asrwt>0</asrwt>
<pdfrwt beam="1">  1        2 0.51394673E+00 0.16215091E+04</pdfrwt>
<pdfrwt beam="2">  1       -1 0.30271503E-01 0.16215091E+04</pdfrwt>
<totfact> 0.11560213E+01</totfact>
</mgrwt>
</event>
<event>
12    6  0.1457317E-007  0.1276224E+04  0.7818608E-02  0.9048635E-01
          2   -1    0    0  501    0  0.00000000000E+00  0.00000000000E+00  0.13101474077E+04  0.13101474077E+04  0.00000000000E+00 0. -1.
         -1   -1    0    0    0  501 -0.00000000000E+00 -0.00000000000E+00 -0.31079465485E+03  0.31079465485E+03  0.00000000000E+00 0.  1.
         24    2    1    2    0    0 -0.45057286384E+02  0.26489610787E+03  0.33419089054E+02  0.28265358371E+03  0.81093192392E+02 0.  0.
        254    2    1    2    0    0  0.45057286384E+02 -0.26489610787E+03  0.96593366377E+03  0.13382884788E+04  0.88644689785E+03 0.  0.
         23    2    4    4    0    0 -0.19571636505E+03  0.22332363954E+03  0.60099771989E+03  0.67662250194E+03  0.91877131479E+02 0.  0.
         23    2    4    4    0    0  0.24077365143E+03 -0.48821974741E+03  0.36493594388E+03  0.66166597688E+03  0.91066727403E+02 0.  0.
          4    1    3    3  502    0 -0.42480150910E+02  0.99094099507E+02  0.44104075893E+02  0.11648765295E+03  0.00000000000E+00 0. -1.
         -3    1    3    3    0  502 -0.25771354745E+01  0.16580200836E+03 -0.10684986839E+02  0.16616593077E+03  0.00000000000E+00 0.  1.
         11    1    5    5    0    0 -0.90194992645E+01  0.61680926179E+02  0.15007037463E+03  0.16250232418E+03  0.00000000000E+00 0. -1.
        -11    1    5    5    0    0 -0.18669686579E+03  0.16164271336E+03  0.45092734526E+03  0.51412017776E+03  0.00000000000E+00 0.  1.
          1    1    6    6  503    0  0.68715883628E+02 -0.10380446825E+03  0.43552681138E+02  0.13188660404E+03  0.00000000000E+00 0. -1.
         -1    1    6    6    0  503  0.17205776781E+03 -0.38441527915E+03  0.32138326274E+03  0.52977937283E+03  0.00000000000E+00 0.  1.
<mgrwt>
<rscale>  0 0.12762238E+04</rscale>
<asrwt>0</asrwt>
<pdfrwt beam="1">  1        2 0.20156114E+00 0.12762238E+04</pdfrwt>
<pdfrwt beam="2">  1       -1 0.47814563E-01 0.12762238E+04</pdfrwt>
<totfact> 0.79710790E+01</totfact>
</mgrwt>
</event>
<event>
12    6  0.1457317E-007  0.2225895E+04  0.7818608E-02  0.8507727E-01
          2   -1    0    0  501    0  0.00000000000E+00  0.00000000000E+00  0.14291994411E+04  0.14291994411E+04  0.00000000000E+00 0. -1.
         -1   -1    0    0    0  501 -0.00000000000E+00 -0.00000000000E+00 -0.86667535253E+03  0.86667535253E+03  0.00000000000E+00 0.  1.
         24    2    1    2    0    0  0.71111589561E+03  0.14219871053E+03  0.83761030664E+03  0.11111908975E+04  0.85134567647E+02 0.  0.
        254    2    1    2    0    0 -0.71111589561E+03 -0.14219871053E+03 -0.27508621809E+03  0.11846838961E+04  0.89548713898E+03 0.  0.
         23    2    4    4    0    0 -0.61541151907E+03 -0.42119442726E+03  0.28304817393E+02  0.75182531679E+03  0.91126620298E+02 0.  0.
         23    2    4    4    0    0 -0.95704376539E+02  0.27899571672E+03 -0.30339103548E+03  0.43285857933E+03  0.91227691254E+02 0.  0.
          4    1    3    3  502    0  0.51234644885E+03  0.10909636454E+03  0.65972863362E+03  0.84240297389E+03  0.00000000000E+00 0. -1.
         -3    1    3    3    0  502  0.19876944676E+03  0.33102346000E+02  0.17788167302E+03  0.26878792360E+03  0.00000000000E+00 0.  1.
         11    1    5    5    0    0 -0.28159202760E+03 -0.13838504250E+03  0.14648252713E+02  0.31410040003E+03  0.00000000000E+00 0.  1.
        -11    1    5    5    0    0 -0.33381949148E+03 -0.28280938475E+03  0.13656564680E+02  0.43772491676E+03  0.00000000000E+00 0. -1.
          3    1    6    6  503    0  0.15342095013E+02  0.51417885977E+02 -0.36146060759E+02  0.64697114202E+02  0.00000000000E+00 0.  1.
         -3    1    6    6    0  503 -0.11104647155E+03  0.22757783074E+03 -0.26724497472E+03  0.36816146513E+03  0.00000000000E+00 0. -1.
<mgrwt>
<rscale>  0 0.22258948E+04</rscale>
<asrwt>0</asrwt>
<pdfrwt beam="1">  1        2 0.21987684E+00 0.22258948E+04</pdfrwt>
<pdfrwt beam="2">  1       -1 0.13333467E+00 0.22258948E+04</pdfrwt>
<totfact> 0.68816669E+00</totfact>
</mgrwt>
</event>
<event>
12    6  0.1457317E-007  0.1734712E+04  0.7818608E-02  0.8741811E-01
         -1   -1    0    0    0  501 -0.00000000000E+00  0.00000000000E+00  0.28416727354E+03  0.28416727354E+03  0.00000000000E+00 0.  1.
          2   -1    0    0  501    0  0.00000000000E+00 -0.00000000000E+00 -0.26474056436E+04  0.26474056436E+04  0.00000000000E+00 0. -1.
         24    2    1    2    0    0 -0.99911739851E+02  0.29794818714E+03 -0.17901998150E+04  0.18193406504E+04  0.80184454143E+02 0.  0.
        254    2    1    2    0    0  0.99911739851E+02 -0.29794818714E+03 -0.57303855502E+03  0.11122322667E+04  0.89996219449E+03 0.  0.
         23    2    4    4    0    0  0.42675426435E+02  0.24037112051E+03  0.67358134115E+02  0.26899310109E+03  0.90668090352E+02 0.  0.
         23    2    4    4    0    0  0.57236313416E+02 -0.53831930765E+03 -0.64039668914E+03  0.84323916558E+03  0.88773297498E+02 0.  0.
          4    1    3    3  502    0 -0.99568842692E+02  0.23422086553E+03 -0.15536131620E+04  0.15743211951E+04  0.00000000000E+00 0. -1.
         -3    1    3    3    0  502 -0.34289715949E+00  0.63727321611E+02 -0.23658665306E+03  0.24501945536E+03  0.00000000000E+00 0.  1.
         11    1    5    5    0    0 -0.14784073551E+02  0.45352884245E+02  0.43018701501E+02  0.64234427054E+02  0.00000000000E+00 0. -1.
        -11    1    5    5    0    0  0.57459499987E+02  0.19501823627E+03  0.24339432614E+02  0.20475867404E+03  0.00000000000E+00 0.  1.
          3    1    6    6  503    0  0.71028213929E+02 -0.46191348953E+03 -0.58011098407E+03  0.74494149624E+03  0.00000000000E+00 0. -1.
         -3    1    6    6    0  503 -0.13791900512E+02 -0.76405818113E+02 -0.60285705070E+02  0.98297669337E+02  0.00000000000E+00 0.  1.
<mgrwt>
<rscale>  0 0.17347116E+04</rscale>
<asrwt>0</asrwt>
<pdfrwt beam="1">  1        2 0.40729318E+00 0.17347116E+04</pdfrwt>
<pdfrwt beam="2">  1       -1 0.43718042E-01 0.17347116E+04</pdfrwt>
<totfact> 0.15971656E+01</totfact>
</mgrwt>
</event>
<event>
12    6  0.1457317E-007  0.2788835E+04  0.7818608E-02  0.8306743E-01
         -1   -1    0    0    0  501 -0.00000000000E+00  0.00000000000E+00  0.14897392421E+04  0.14897392421E+04  0.00000000000E+00 0.  1.
          2   -1    0    0  501    0  0.00000000000E+00 -0.00000000000E+00 -0.13051949942E+04  0.13051949942E+04  0.00000000000E+00 0. -1.
         24    2    1    2    0    0 -0.61847186799E+03 -0.71377340402E+03 -0.73316451659E+03  0.11982499568E+04  0.79327340142E+02 0.  0.
        254    2    1    2    0    0  0.61847186799E+03  0.71377340402E+03  0.91770876455E+03  0.15966842794E+04  0.90290164909E+03 0.  0.
         23    2    4    4    0    0 -0.16448637367E+02  0.33646038254E+03 -0.74141745371E+02  0.35662337117E+03  0.90592956511E+02 0.  0.
         23    2    4    4    0    0  0.63492050536E+03  0.37731302148E+03  0.99185050992E+03  0.12400609083E+04  0.92165383429E+02 0.  0.
          4    1    3    3  502    0 -0.59216764333E+03 -0.65500002410E+03 -0.69165208739E+03  0.11216372673E+04  0.00000000000E+00 0. -1.
         -3    1    3    3    0  502 -0.26304224665E+02 -0.58773379920E+02 -0.41512429204E+02  0.76612689555E+02  0.00000000000E+00 0.  1.
         11    1    5    5    0    0 -0.20104817699E+02  0.33847944468E+03 -0.80978661746E+02  0.34861164901E+03  0.00000000000E+00 0.  1.
        -11    1    5    5    0    0  0.36561803321E+01 -0.20190621394E+01  0.68369163746E+01  0.80117221654E+01  0.00000000000E+00 0. -1.
          3    1    6    6  503    0  0.28991810172E+02  0.49314860478E+01  0.19178393468E+02  0.35109192354E+02  0.00000000000E+00 0. -1.
         -3    1    6    6    0  503  0.60592869519E+03  0.37238153543E+03  0.97267211645E+03  0.12049517159E+04  0.00000000000E+00 0.  1.
<mgrwt>
<rscale>  0 0.27888350E+04</rscale>
<asrwt>0</asrwt>
<pdfrwt beam="1">  1        2 0.20079923E+00 0.27888350E+04</pdfrwt>
<pdfrwt beam="2">  1       -1 0.22919065E+00 0.27888350E+04</pdfrwt>
<totfact> 0.15566197E+00</totfact>
</mgrwt>
</event>
<event>
12    6  0.1457317E-007  0.1593229E+04  0.7818608E-02  0.8824719E-01
          2   -1    0    0  501    0  0.00000000000E+00  0.00000000000E+00  0.18358297003E+04  0.18358297003E+04  0.00000000000E+00 0. -1.
         -1   -1    0    0    0  501 -0.00000000000E+00 -0.00000000000E+00 -0.34567167492E+03  0.34567167492E+03  0.00000000000E+00 0.  1.
         24    2    1    2    0    0 -0.25425961789E+03 -0.32736554899E+03  0.97883994646E+03  0.10660046481E+04  0.80138087827E+02 0.  0.
        254    2    1    2    0    0  0.25425961789E+03  0.32736554899E+03  0.51131807893E+03  0.11154967271E+04  0.90059458934E+03 0.  0.
         23    2    4    4    0    0  0.30016067945E+03  0.86758824140E+02 -0.18063594331E+03  0.37517551655E+03  0.10248803417E+03 0.  0.
         23    2    4    4    0    0 -0.45901061558E+02  0.24060672485E+03  0.69195402224E+03  0.74032121054E+03  0.96315224061E+02 0.  0.
          4    1    3    3  502    0 -0.15986645414E+03 -0.15684879755E+03  0.45628048008E+03  0.50828211158E+03  0.00000000000E+00 0. -1.
         -3    1    3    3    0  502 -0.94393163753E+02 -0.17051675144E+03  0.52255946638E+03  0.55772253656E+03  0.00000000000E+00 0.  1.
         11    1    5    5    0    0  0.28431841970E+03  0.10491118750E+03 -0.17656732683E+03  0.35074113239E+03  0.00000000000E+00 0.  1.
        -11    1    5    5    0    0  0.15842259752E+02 -0.18152363356E+02 -0.40686164754E+01  0.24434384164E+02  0.00000000000E+00 0. -1.
          1    1    6    6  503    0 -0.31719028874E+02  0.30450111142E+02  0.61425661978E+02  0.75540836709E+02  0.00000000000E+00 0. -1.
         -1    1    6    6    0  503 -0.14182032685E+02  0.21015661370E+03  0.63052836026E+03  0.66478037383E+03  0.00000000000E+00 0.  1.
<mgrwt>
<rscale>  0 0.15932286E+04</rscale>
<asrwt>0</asrwt>
<pdfrwt beam="1">  1        2 0.28243533E+00 0.15932286E+04</pdfrwt>
<pdfrwt beam="2">  1       -1 0.53180258E-01 0.15932286E+04</pdfrwt>
<totfact> 0.32124673E+01</totfact>
</mgrwt>
</event>
<event>
12    6  0.1457317E-007  0.2917262E+04  0.7818608E-02  0.8267760E-01
          2   -1    0    0  501    0  0.00000000000E+00  0.00000000000E+00  0.19217753542E+04  0.19217753542E+04  0.00000000000E+00 0. -1.
         -1   -1    0    0    0  501 -0.00000000000E+00 -0.00000000000E+00 -0.11071036398E+04  0.11071036398E+04  0.00000000000E+00 0.  1.
         24    2    1    2    0    0  0.41177898210E+02 -0.77048388815E+03 -0.71721024164E+03  0.10563943459E+04  0.78977478545E+02 0.  0.
        254    2    1    2    0    0 -0.41177898210E+02  0.77048388815E+03  0.15318819560E+04  0.19724846481E+04  0.97400837698E+03 0.  0.
         23    2    4    4    0    0  0.44277143270E+03  0.45151628562E+03  0.63327123145E+03  0.89938558065E+03  0.89154205239E+02 0.  0.
         23    2    4    4    0    0 -0.48394933091E+03  0.31896760253E+03  0.89861072459E+03  0.10730990674E+04  0.89961590596E+02 0.  0.
          4    1    3    3  502    0  0.16144669921E+02 -0.31808037730E+02 -0.23349517592E+02  0.42633339100E+02  0.00000000000E+00 0. -1.
         -3    1    3    3    0  502  0.25033228289E+02 -0.73867585042E+03 -0.69386072404E+03  0.10137610068E+04  0.00000000000E+00 0.  1.
         11    1    5    5    0    0  0.33261742129E+03  0.33088700737E+03  0.41230812851E+03  0.62459471133E+03  0.00000000000E+00 0.  1.
        -11    1    5    5    0    0  0.11015401141E+03  0.12062927825E+03  0.22096310294E+03  0.27479086932E+03  0.00000000000E+00 0. -1.
          2    1    6    6  503    0 -0.37930228776E+03  0.22662170593E+03  0.73955220635E+03  0.86149004000E+03  0.00000000000E+00 0.  1.
         -2    1    6    6    0  503 -0.10464704315E+03  0.92345896603E+02  0.15905851824E+03  0.21160902742E+03  0.00000000000E+00 0. -1.
<mgrwt>
<rscale>  0 0.29172621E+04</rscale>
<asrwt>0</asrwt>
<pdfrwt beam="1">  1        2 0.29565775E+00 0.29172621E+04</pdfrwt>
<pdfrwt beam="2">  1       -1 0.17032364E+00 0.29172621E+04</pdfrwt>
<totfact> 0.17721151E+00</totfact>
</mgrwt>
</event>
<event>
12    6  0.1457317E-007  0.1302170E+04  0.7818608E-02  0.9027846E-01
          2   -1    0    0  501    0  0.00000000000E+00  0.00000000000E+00  0.46561870823E+03  0.46561870823E+03  0.00000000000E+00 0. -1.
         -1   -1    0    0    0  501 -0.00000000000E+00 -0.00000000000E+00 -0.91042603720E+03  0.91042603720E+03  0.00000000000E+00 0.  1.
         24    2    1    2    0    0  0.30630199773E+03 -0.10020046539E+03 -0.55944195502E+02  0.33828784751E+03  0.86301029437E+02 0.  0.
        254    2    1    2    0    0 -0.30630199773E+03  0.10020046539E+03 -0.38886313347E+03  0.10377568979E+04  0.90656703864E+03 0.  0.
         23    2    4    4    0    0  0.10398219441E+03  0.41533947354E+03 -0.19547351660E+03  0.47941311922E+03  0.91147507678E+02 0.  0.
         23    2    4    4    0    0 -0.41028419214E+03 -0.31513900814E+03 -0.19338961686E+03  0.55834377870E+03  0.81868910646E+02 0.  0.
          4    1    3    3  502    0  0.21753913814E+03 -0.28276357876E+02 -0.35226436375E+02  0.22217950143E+03  0.00000000000E+00 0. -1.
         -3    1    3    3    0  502  0.88762859591E+02 -0.71924107517E+02 -0.20717759128E+02  0.11610834607E+03  0.00000000000E+00 0.  1.
         11    1    5    5    0    0  0.65292586171E+02  0.37864167824E+03 -0.17628926129E+03  0.42274170123E+03  0.00000000000E+00 0. -1.
        -11    1    5    5    0    0  0.38689608243E+02  0.36697795294E+02 -0.19184255309E+02  0.56671417992E+02  0.00000000000E+00 0.  1.
          2    1    6    6  503    0 -0.40050067457E+03 -0.28402087712E+03 -0.18478042114E+03  0.52460695097E+03  0.00000000000E+00 0. -1.
         -2    1    6    6    0  503 -0.97835175752E+01 -0.31118131023E+02 -0.86091957219E+01  0.33736827733E+02  0.00000000000E+00 0.  1.
<mgrwt>
<rscale>  0 0.13021696E+04</rscale>
<asrwt>0</asrwt>
<pdfrwt beam="1">  1        2 0.71633649E-01 0.13021696E+04</pdfrwt>
<pdfrwt beam="2">  1       -1 0.14006554E+00 0.13021696E+04</pdfrwt>
<totfact> 0.31389303E+01</totfact>
</mgrwt>
</event>
<event>
12    6  0.1457317E-007  0.1288168E+04  0.7818608E-02  0.9039001E-01
         -1   -1    0    0    0  501 -0.00000000000E+00  0.00000000000E+00  0.25353899295E+03  0.25353899295E+03  0.00000000000E+00 0.  1.
          2   -1    0    0  501    0  0.00000000000E+00 -0.00000000000E+00 -0.16362156836E+04  0.16362156836E+04  0.00000000000E+00 0. -1.
         24    2    1    2    0    0 -0.31203595634E+03  0.30253917463E+02 -0.27110988983E+03  0.42201873814E+03  0.79482736534E+02 0.  0.
        254    2    1    2    0    0  0.31203595634E+03 -0.30253917463E+02 -0.11115668009E+04  0.14677359385E+04  0.90575178424E+03 0.  0.
         23    2    4    4    0    0 -0.24757432191E+03  0.10751087722E+03 -0.69390834028E+03  0.75010313185E+03  0.91072993310E+02 0.  0.
         23    2    4    4    0    0  0.55961027825E+03 -0.13776479468E+03 -0.41765846059E+03  0.71763280660E+03  0.91735779438E+02 0.  0.
          4    1    3    3  502    0 -0.10375845718E+02 -0.13413971608E+02 -0.25247637752E+02  0.30414404823E+02  0.00000000000E+00 0. -1.
         -3    1    3    3    0  502 -0.30166011062E+03  0.43667889071E+02 -0.24586225207E+03  0.39160433332E+03  0.00000000000E+00 0.  1.
         11    1    5    5    0    0  0.28336070845E+01  0.99408793419E+01 -0.69728501865E+01  0.12468803107E+02  0.00000000000E+00 0. -1.
        -11    1    5    5    0    0 -0.25040792899E+03  0.97569997876E+02 -0.68693549010E+03  0.73763432874E+03  0.00000000000E+00 0.  1.
          3    1    6    6  503    0  0.11774279077E+02 -0.18194381304E+02 -0.76197129959E+01  0.22972356974E+02  0.00000000000E+00 0. -1.
         -3    1    6    6    0  503  0.54783599918E+03 -0.11957041338E+03 -0.41003874760E+03  0.69466044963E+03  0.00000000000E+00 0.  1.
<mgrwt>
<rscale>  0 0.12881684E+04</rscale>
<asrwt>0</asrwt>
<pdfrwt beam="1">  1        2 0.25172550E+00 0.12881684E+04</pdfrwt>
<pdfrwt beam="2">  1       -1 0.39005997E-01 0.12881684E+04</pdfrwt>
<totfact> 0.75854610E+01</totfact>
</mgrwt>
</event>
<event>
12    6  0.1457317E-007  0.2504488E+04  0.7818608E-02  0.8401388E-01
          2   -1    0    0  501    0  0.00000000000E+00  0.00000000000E+00  0.31023132703E+04  0.31023132703E+04  0.00000000000E+00 0. -1.
         -1   -1    0    0    0  501 -0.00000000000E+00 -0.00000000000E+00 -0.50546646053E+03  0.50546646053E+03  0.00000000000E+00 0.  1.
         24    2    1    2    0    0  0.66278017258E+03  0.75731980397E+03  0.53244434895E+03  0.11412329014E+04  0.78132629685E+02 0.  0.
        254    2    1    2    0    0 -0.66278017258E+03 -0.75731980397E+03  0.20644024608E+04  0.24665468295E+04  0.89960263394E+03 0.  0.
         23    2    4    4    0    0 -0.29649401358E+03  0.11614458883E+03  0.24048077651E+03  0.40923881255E+03  0.90813744692E+02 0.  0.
         23    2    4    4    0    0 -0.36628615900E+03 -0.87346439280E+03  0.18239216843E+04  0.20573080169E+04  0.93382921970E+02 0.  0.
          2    1    3    3  502    0  0.29245294560E+03  0.34044104837E+03  0.28127325858E+03  0.52966355245E+03  0.00000000000E+00 0. -1.
         -1    1    3    3    0  502  0.37032722699E+03  0.41687875560E+03  0.25117109037E+03  0.61156934893E+03  0.00000000000E+00 0.  1.
         11    1    5    5    0    0 -0.96038993043E+02  0.48593239655E+02  0.13562817159E+03  0.17314673562E+03  0.00000000000E+00 0.  1.
        -11    1    5    5    0    0 -0.20045502054E+03  0.67551349178E+02  0.10485260492E+03  0.23609207694E+03  0.00000000000E+00 0. -1.
          3    1    6    6  503    0 -0.32907665934E+03 -0.71329474062E+03  0.15534977995E+04  0.17408148229E+04  0.00000000000E+00 0. -1.
         -3    1    6    6    0  503 -0.37209499665E+02 -0.16016965219E+03  0.27042388487E+03  0.31649319401E+03  0.00000000000E+00 0.  1.
<mgrwt>
<rscale>  0 0.25044882E+04</rscale>
<asrwt>0</asrwt>
<pdfrwt beam="1">  1        2 0.47727895E+00 0.25044882E+04</pdfrwt>
<pdfrwt beam="2">  1       -1 0.77764072E-01 0.25044882E+04</pdfrwt>
<totfact> 0.25199310E+00</totfact>
</mgrwt>
</event>
<event>
12    6  0.1457317E-007  0.1538922E+04  0.7818608E-02  0.8858975E-01
         -1   -1    0    0    0  501 -0.00000000000E+00  0.00000000000E+00  0.12569227744E+04  0.12569227744E+04  0.00000000000E+00 0.  1.
          2   -1    0    0  501    0  0.00000000000E+00 -0.00000000000E+00 -0.47104736119E+03  0.47104736119E+03  0.00000000000E+00 0. -1.
         24    2    1    2    0    0  0.20859568792E+03 -0.35444993152E+03 -0.80772727920E+01  0.41921820628E+03  0.80819225185E+02 0.  0.
        254    2    1    2    0    0 -0.20859568792E+03  0.35444993152E+03  0.79395268596E+03  0.13087519293E+04  0.95567977368E+03 0.  0.
         23    2    4    4    0    0  0.26765843964E+03  0.42031456618E+03  0.21532820835E+03  0.55084835816E+03  0.93607165985E+02 0.  0.
         23    2    4    4    0    0 -0.47625412757E+03 -0.65864634652E+02  0.57862447761E+03  0.75790357110E+03  0.91953210256E+02 0.  0.
          2    1    3    3  502    0  0.19574163753E+03 -0.26912396406E+03 -0.32779152291E+01  0.33279609587E+03  0.00000000000E+00 0. -1.
         -1    1    3    3    0  502  0.12854050395E+02 -0.85325967460E+02 -0.47993575629E+01  0.86422110409E+02  0.00000000000E+00 0.  1.
         11    1    5    5    0    0  0.95057416668E+02  0.92812413259E+02  0.27283897347E+02  0.13562620533E+03  0.00000000000E+00 0. -1.
        -11    1    5    5    0    0  0.17260102298E+03  0.32750215292E+03  0.18804431100E+03  0.41522215283E+03  0.00000000000E+00 0.  1.
          1    1    6    6  503    0 -0.24773442074E+03 -0.51604167622E+00  0.24635158153E+03  0.34937331215E+03  0.00000000000E+00 0. -1.
         -1    1    6    6    0  503 -0.22851970683E+03 -0.65348592976E+02  0.33227289608E+03  0.40853025895E+03  0.00000000000E+00 0.  1.
<mgrwt>
<rscale>  0 0.15389219E+04</rscale>
<asrwt>0</asrwt>
<pdfrwt beam="1">  1        2 0.72468825E-01 0.15389219E+04</pdfrwt>
<pdfrwt beam="2">  1       -1 0.19337273E+00 0.15389219E+04</pdfrwt>
<totfact> 0.12161428E+01</totfact>
</mgrwt>
</event>
<event>
12    6  0.1479634E-007  0.2134036E+04  0.7818608E-02  0.8546397E-01
          2   -1    0    0  501    0  0.00000000000E+00  0.00000000000E+00  0.14394978439E+04  0.14394978439E+04  0.00000000000E+00 0. -1.
         -1   -1    0    0    0  501 -0.00000000000E+00 -0.00000000000E+00 -0.79091998712E+03  0.79091998712E+03  0.00000000000E+00 0.  1.
         24    2    1    2    0    0 -0.13131155991E+02 -0.50443557651E+02  0.11847814729E+04  0.11885400197E+04  0.78760776710E+02 0.  0.
        254    2    1    2    0    0  0.13131155991E+02  0.50443557651E+02 -0.53620361620E+03  0.10418778113E+04  0.89178364860E+03 0.  0.
         23    2    4    4    0    0 -0.11181516539E+03 -0.34264005402E+03 -0.17390926426E+02  0.37294065048E+03  0.94220202891E+02 0.  0.
         23    2    4    4    0    0  0.12494632138E+03  0.39308361167E+03 -0.51881268978E+03  0.66893716083E+03  0.90465513181E+02 0.  0.
          2    1    3    3  502    0 -0.20140043633E+02 -0.48341136021E+02  0.11757524746E+04  0.11769181655E+04  0.00000000000E+00 0. -1.
         -1    1    3    3    0  502  0.70088876422E+01 -0.21024216292E+01  0.90289983210E+01  0.11621854128E+02  0.00000000000E+00 0.  1.
         11    1    5    5    0    0 -0.88521518056E+02 -0.33717999208E+03 -0.15874575306E+02  0.34896763225E+03  0.00000000000E+00 0. -1.
        -11    1    5    5    0    0 -0.23293647331E+02 -0.54600619356E+01 -0.15163511202E+01  0.23973018229E+02  0.00000000000E+00 0.  1.
          1    1    6    6  503    0  0.12278903440E+03  0.28961017308E+03 -0.42856800117E+03  0.53162179314E+03  0.00000000000E+00 0. -1.
         -1    1    6    6    0  503  0.21572869819E+01  0.10347343859E+03 -0.90244688611E+02  0.13731536769E+03  0.00000000000E+00 0.  1.
<mgrwt>
<rscale>  0 0.21340362E+04</rscale>
<asrwt>0</asrwt>
<pdfrwt beam="1">  1        2 0.22146121E+00 0.21340362E+04</pdfrwt>
<pdfrwt beam="2">  1       -1 0.12168000E+00 0.21340362E+04</pdfrwt>
<totfact> 0.86065720E+00</totfact>
</mgrwt>
</event>
<event>
12    6  0.1457317E-007  0.1448420E+04  0.7818608E-02  0.8919497E-01
          2   -1    0    0  501    0  0.00000000000E+00  0.00000000000E+00  0.51920085177E+03  0.51920085177E+03  0.00000000000E+00 0. -1.
         -1   -1    0    0    0  501 -0.00000000000E+00 -0.00000000000E+00 -0.10101680551E+04  0.10101680551E+04  0.00000000000E+00 0.  1.
         24    2    1    2    0    0  0.30428984502E+03 -0.28641917777E+03 -0.14978837912E+02  0.42618162014E+03  0.82329536560E+02 0.  0.
        254    2    1    2    0    0 -0.30428984502E+03  0.28641917777E+03 -0.47598836544E+03  0.11031872867E+04  0.90323253397E+03 0.  0.
         23    2    4    4    0    0 -0.44514139689E+03 -0.40128897334E+02 -0.56454689127E+03  0.72538839427E+03  0.87829029805E+02 0.  0.
         23    2    4    4    0    0  0.14085155187E+03  0.32654807510E+03  0.88558525831E+02  0.37779889247E+03  0.91741951375E+02 0.  0.
          2    1    3    3  502    0  0.14250695749E+03 -0.18730044885E+03  0.49793158475E+01  0.23540281361E+03  0.00000000000E+00 0. -1.
         -1    1    3    3    0  502  0.16178288753E+03 -0.99118728920E+02 -0.19958153759E+02  0.19077880653E+03  0.00000000000E+00 0.  1.
         11    1    5    5    0    0 -0.43461636811E+03 -0.23027303389E+02 -0.54371861195E+03  0.69645644021E+03  0.00000000000E+00 0.  1.
        -11    1    5    5    0    0 -0.10525028773E+02 -0.17101593946E+02 -0.20828279320E+02  0.28931954058E+02  0.00000000000E+00 0. -1.
          1    1    6    6  503    0 -0.93359049329E+01  0.57584913820E+02  0.23837941170E+02  0.63019273717E+02  0.00000000000E+00 0. -1.
         -1    1    6    6    0  503  0.15018745680E+03  0.26896316128E+03  0.64720584661E+02  0.31477961876E+03  0.00000000000E+00 0.  1.
<mgrwt>
<rscale>  0 0.14484200E+04</rscale>
<asrwt>0</asrwt>
<pdfrwt beam="1">  1        2 0.79877054E-01 0.14484200E+04</pdfrwt>
<pdfrwt beam="2">  1       -1 0.15541047E+00 0.14484200E+04</pdfrwt>
<totfact> 0.20700238E+01</totfact>
</mgrwt>
</event>
<event>
12    6  0.1457317E-007  0.2286137E+04  0.7818608E-02  0.8483407E-01
         -1   -1    0    0    0  501 -0.00000000000E+00  0.00000000000E+00  0.76494768926E+03  0.76494768926E+03  0.00000000000E+00 0.  1.
          2   -1    0    0  501    0  0.00000000000E+00 -0.00000000000E+00 -0.17080972891E+04  0.17080972891E+04  0.00000000000E+00 0. -1.
         24    2    1    2    0    0  0.79522479453E+03  0.50081975104E+02 -0.98780996871E+03  0.12716890533E+04  0.80832146607E+02 0.  0.
        254    2    1    2    0    0 -0.79522479453E+03 -0.50081975104E+02  0.44660368850E+02  0.12013559251E+04  0.89798153217E+03 0.  0.
         23    2    4    4    0    0 -0.20391210731E+03  0.65488746056E+02  0.42459107798E+03  0.48415725062E+03  0.90894094719E+02 0.  0.
         23    2    4    4    0    0 -0.59131268721E+03 -0.11557072116E+03 -0.37993070913E+03  0.71719867446E+03  0.83781318069E+02 0.  0.
          4    1    3    3  502    0  0.76334693019E+03  0.38427413315E+02 -0.92169589718E+03  0.11973715083E+04  0.00000000000E+00 0. -1.
         -3    1    3    3    0  502  0.31877864341E+02  0.11654561788E+02 -0.66114071529E+02  0.74317545032E+02  0.00000000000E+00 0.  1.
         11    1    5    5    0    0 -0.14213765484E+02 -0.18647182168E+02  0.63390085655E+02  0.67587361921E+02  0.00000000000E+00 0.  1.
        -11    1    5    5    0    0 -0.18969834183E+03  0.84135928224E+02  0.36120099233E+03  0.41656988870E+03  0.00000000000E+00 0. -1.
          2    1    6    6  503    0 -0.32739134554E+03 -0.84307501932E+02 -0.16934609604E+03  0.37811499344E+03  0.00000000000E+00 0.  1.
         -2    1    6    6    0  503 -0.26392134167E+03 -0.31263219227E+02 -0.21058461309E+03  0.33908368102E+03  0.00000000000E+00 0. -1.
<mgrwt>
<rscale>  0 0.22861365E+04</rscale>
<asrwt>0</asrwt>
<pdfrwt beam="1">  1        2 0.26278420E+00 0.22861365E+04</pdfrwt>
<pdfrwt beam="2">  1       -1 0.11768426E+00 0.22861365E+04</pdfrwt>
<totfact> 0.65123671E+00</totfact>
</mgrwt>
</event>
<event>
12    6  0.1457317E-007  0.1738960E+04  0.7818608E-02  0.8739451E-01
          2   -1    0    0  501    0  0.00000000000E+00  0.00000000000E+00  0.45281782951E+04  0.45281782951E+04  0.00000000000E+00 0. -1.
         -1   -1    0    0    0  501 -0.00000000000E+00 -0.00000000000E+00 -0.16695358167E+03  0.16695358167E+03  0.00000000000E+00 0.  1.
         24    2    1    2    0    0 -0.11533760220E+03  0.28839591055E+03  0.30903573778E+04  0.31069240365E+04  0.78697408232E+02 0.  0.
        254    2    1    2    0    0  0.11533760220E+03 -0.28839591055E+03  0.12708673356E+04  0.15882078403E+04  0.90045843635E+03 0.  0.
         23    2    4    4    0    0  0.14699660485E+03  0.27395367489E+03  0.21585770935E+03  0.38893006880E+03  0.89517763091E+02 0.  0.
         23    2    4    4    0    0 -0.31659002652E+02 -0.56234958544E+03  0.10550096263E+04  0.11992777715E+04  0.89344910444E+02 0.  0.
          2    1    3    3  502    0 -0.12587724880E+03  0.27154211521E+03  0.29542917382E+04  0.29694140628E+04  0.00000000000E+00 0. -1.
         -1    1    3    3    0  502  0.10539646599E+02  0.16853795343E+02  0.13606563964E+03  0.13750997367E+03  0.00000000000E+00 0.  1.
         11    1    5    5    0    0  0.85528306096E+02  0.80298834904E+02  0.53918605605E+02  0.12911316765E+03  0.00000000000E+00 0. -1.
        -11    1    5    5    0    0  0.61468298756E+02  0.19365483999E+03  0.16193910374E+03  0.25981690115E+03  0.00000000000E+00 0.  1.
          2    1    6    6  503    0 -0.54566755019E+02 -0.51259672506E+03  0.95099943912E+03  0.10817267985E+04  0.00000000000E+00 0. -1.
         -2    1    6    6    0  503  0.22907752367E+02 -0.49752860380E+02  0.10401018718E+03  0.11755097307E+03  0.00000000000E+00 0.  1.
<mgrwt>
<rscale>  0 0.17389601E+04</rscale>
<asrwt>0</asrwt>
<pdfrwt beam="1">  1        2 0.69664272E+00 0.17389601E+04</pdfrwt>
<pdfrwt beam="2">  1       -1 0.25685170E-01 0.17389601E+04</pdfrwt>
<totfact> 0.17102161E+00</totfact>
</mgrwt>
</event>
<event>
12    6  0.1457317E-007  0.1487578E+04  0.7818608E-02  0.8892756E-01
         -1   -1    0    0    0  501 -0.00000000000E+00  0.00000000000E+00  0.32849968668E+03  0.32849968668E+03  0.00000000000E+00 0.  1.
          2   -1    0    0  501    0  0.00000000000E+00 -0.00000000000E+00 -0.16840859744E+04  0.16840859744E+04  0.00000000000E+00 0. -1.
         24    2    1    2    0    0 -0.17639273166E+03  0.98520044509E+02  0.13450107466E+03  0.25552271665E+03  0.79879438443E+02 0.  0.
        254    2    1    2    0    0  0.17639273166E+03 -0.98520044509E+02 -0.14900873624E+04  0.17570629444E+04  0.90889451984E+03 0.  0.
         23    2    4    4    0    0  0.69529316405E+02  0.21039701296E+02 -0.15568251109E+04  0.15614108277E+04  0.94986063137E+02 0.  0.
         23    2    4    4    0    0  0.10686341526E+03 -0.11955974580E+03  0.66737748537E+02  0.19565211667E+03  0.90063873659E+02 0.  0.
          2    1    3    3  502    0 -0.69139359466E+02  0.97161573398E+01  0.79504937243E+02  0.10580968664E+03  0.00000000000E+00 0. -1.
         -1    1    3    3    0  502 -0.10725337220E+03  0.88803887169E+02  0.54996137414E+02  0.14971303001E+03  0.00000000000E+00 0.  1.
         11    1    5    5    0    0  0.26774833631E+02 -0.36113309339E+02 -0.43483906338E+03  0.43715680696E+03  0.00000000000E+00 0. -1.
        -11    1    5    5    0    0  0.42754482774E+02  0.57153010635E+02 -0.11219860475E+04  0.11242540208E+04  0.00000000000E+00 0.  1.
          1    1    6    6  503    0 -0.94270339787E+01 -0.31909164923E+01 -0.10010257857E+02  0.14115813121E+02  0.00000000000E+00 0. -1.
         -1    1    6    6    0  503  0.11629044924E+03 -0.11636882931E+03  0.76748006395E+02  0.18153630355E+03  0.00000000000E+00 0.  1.
<mgrwt>
<rscale>  0 0.14875775E+04</rscale>
<asrwt>0</asrwt>
<pdfrwt beam="1">  1        2 0.25909015E+00 0.14875775E+04</pdfrwt>
<pdfrwt beam="2">  1       -1 0.50538413E-01 0.14875775E+04</pdfrwt>
<totfact> 0.43365981E+01</totfact>
</mgrwt>
</event>
<event>
12    6  0.1457317E-007  0.1418008E+04  0.7818608E-02  0.8940886E-01
          2   -1    0    0  501    0  0.00000000000E+00  0.00000000000E+00  0.84387795320E+03  0.84387795320E+03  0.00000000000E+00 0. -1.
         -1   -1    0    0    0  501 -0.00000000000E+00 -0.00000000000E+00 -0.59568644891E+03  0.59568644891E+03  0.00000000000E+00 0.  1.
         24    2    1    2    0    0  0.40481392012E+03 -0.96701460595E+02  0.24998757108E+03  0.49177870369E+03  0.78275317314E+02 0.  0.
        254    2    1    2    0    0 -0.40481392012E+03  0.96701460595E+02 -0.17960667899E+01  0.94778569843E+03  0.85150984837E+03 0.  0.
         23    2    4    4    0    0 -0.59668580434E+03  0.13991146303E+03  0.20030439672E+03  0.65106031894E+03  0.90269158434E+02 0.  0.
         23    2    4    4    0    0  0.19187188421E+03 -0.43210002431E+02 -0.20210046351E+03  0.29672537949E+03  0.92300754182E+02 0.  0.
          2    1    3    3  502    0  0.16497964294E+03 -0.94814850410E+01  0.12740752823E+03  0.20866446605E+03  0.00000000000E+00 0. -1.
         -1    1    3    3    0  502  0.23983427719E+03 -0.87219975554E+02  0.12258004285E+03  0.28311423764E+03  0.00000000000E+00 0.  1.
         11    1    5    5    0    0 -0.44310578514E+03  0.71014440212E+02  0.17081723023E+03  0.48017112959E+03  0.00000000000E+00 0.  1.
        -11    1    5    5    0    0 -0.15358001919E+03  0.68897022814E+02  0.29487166484E+02  0.17088918935E+03  0.00000000000E+00 0. -1.
          1    1    6    6  503    0  0.94478043659E+02 -0.45886810895E+02 -0.50562895248E+02  0.11656889175E+03  0.00000000000E+00 0. -1.
         -1    1    6    6    0  503  0.97393840554E+02  0.26768084638E+01 -0.15153756826E+03  0.18015648774E+03  0.00000000000E+00 0.  1.
<mgrwt>
<rscale>  0 0.14180080E+04</rscale>
<asrwt>0</asrwt>
<pdfrwt beam="1">  1        2 0.12982738E+00 0.14180080E+04</pdfrwt>
<pdfrwt beam="2">  1       -1 0.91644069E-01 0.14180080E+04</pdfrwt>
<totfact> 0.41288817E+01</totfact>
</mgrwt>
</event>
<event>
12    6  0.1457317E-007  0.1048426E+04  0.7818608E-02  0.9256971E-01
         -1   -1    0    0    0  501 -0.00000000000E+00  0.00000000000E+00  0.39250646495E+03  0.39250646495E+03  0.00000000000E+00 0.  1.
          2   -1    0    0  501    0  0.00000000000E+00 -0.00000000000E+00 -0.70011369907E+03  0.70011369907E+03  0.00000000000E+00 0. -1.
         24    2    1    2    0    0 -0.62180472624E+02 -0.66543740798E+02 -0.67870905711E+02  0.14062057808E+03  0.82904803971E+02 0.  0.
        254    2    1    2    0    0  0.62180472624E+02  0.66543740798E+02 -0.23973632840E+03  0.95199958594E+03  0.91680708105E+03 0.  0.
         23    2    4    4    0    0 -0.28493556351E+03 -0.25027202456E+03  0.49054308644E+02  0.39294927072E+03  0.90434741851E+02 0.  0.
         23    2    4    4    0    0  0.34711603613E+03  0.31681576536E+03 -0.28879063705E+03  0.55905031522E+03  0.90969506863E+02 0.  0.
          2    1    3    3  502    0  0.18168927632E+02 -0.22656194011E+02 -0.29359804384E+02  0.41296624219E+02  0.00000000000E+00 0. -1.
         -1    1    3    3    0  502 -0.80349400257E+02 -0.43887546787E+02 -0.38511101327E+02  0.99323953858E+02  0.00000000000E+00 0.  1.
         11    1    5    5    0    0 -0.22124327382E+03 -0.23798611717E+03  0.38131877843E+02  0.32716970869E+03  0.00000000000E+00 0.  1.
        -11    1    5    5    0    0 -0.63692289689E+02 -0.12285907388E+02  0.10922430801E+02  0.65779562029E+02  0.00000000000E+00 0. -1.
          1    1    6    6  503    0  0.21036733702E+03  0.18598040814E+03 -0.22338955776E+03  0.35881196080E+03  0.00000000000E+00 0. -1.
         -1    1    6    6    0  503  0.13674869912E+03  0.13083535722E+03 -0.65401079283E+02  0.20023835442E+03  0.00000000000E+00 0.  1.
<mgrwt>
<rscale>  0 0.10484258E+04</rscale>
<asrwt>0</asrwt>
<pdfrwt beam="1">  1        2 0.10770980E+00 0.10484258E+04</pdfrwt>
<pdfrwt beam="2">  1       -1 0.60385611E-01 0.10484258E+04</pdfrwt>
<totfact> 0.12956847E+02</totfact>
</mgrwt>
</event>
<event>
12    6  0.1457317E-007  0.2552239E+04  0.7818608E-02  0.8384608E-01
         -1   -1    0    0    0  501 -0.00000000000E+00  0.00000000000E+00  0.44133266485E+03  0.44133266485E+03  0.00000000000E+00 0.  1.
          2   -1    0    0  501    0  0.00000000000E+00 -0.00000000000E+00 -0.36899175893E+04  0.36899175893E+04  0.00000000000E+00 0. -1.
         24    2    1    2    0    0 -0.81194817260E+03 -0.64672683494E+03 -0.76586169243E+03  0.12921866112E+04  0.75410026760E+02 0.  0.
        254    2    1    2    0    0  0.81194817260E+03  0.64672683494E+03 -0.24827232321E+04  0.28390636430E+04  0.90490457405E+03 0.  0.
         23    2    4    4    0    0  0.64803858197E+03  0.36579332432E+02 -0.76680915731E+03  0.10087322303E+04  0.90842596910E+02 0.  0.
         23    2    4    4    0    0  0.16390959062E+03  0.61014750251E+03 -0.17159140748E+04  0.18303314127E+04  0.81275087190E+02 0.  0.
          4    1    3    3  502    0 -0.16819061594E+03 -0.16900290130E+03 -0.15610943650E+03  0.28499161409E+03  0.00000000000E+00 0. -1.
         -3    1    3    3    0  502 -0.64375755666E+03 -0.47772393364E+03 -0.60975225593E+03  0.10071949971E+04  0.00000000000E+00 0.  1.
         11    1    5    5    0    0  0.24684120807E+03  0.57861000719E+02 -0.30541268902E+03  0.39693247287E+03  0.00000000000E+00 0. -1.
        -11    1    5    5    0    0  0.40119737390E+03 -0.21281668287E+02 -0.46139646829E+03  0.61179975742E+03  0.00000000000E+00 0.  1.
          2    1    6    6  503    0  0.10785767379E+03  0.32819767929E+03 -0.83293535627E+03  0.90173627087E+03  0.00000000000E+00 0.  1.
         -2    1    6    6    0  503  0.56051916835E+02  0.28194982321E+03 -0.88297871849E+03  0.92859514187E+03  0.00000000000E+00 0. -1.
<mgrwt>
<rscale>  0 0.25522391E+04</rscale>
<asrwt>0</asrwt>
<pdfrwt beam="1">  1        2 0.56767965E+00 0.25522391E+04</pdfrwt>
<pdfrwt beam="2">  1       -1 0.67897330E-01 0.25522391E+04</pdfrwt>
<totfact> 0.13190679E+00</totfact>
</mgrwt>
</event>
<event>
12    6  0.1457317E-007  0.1779973E+04  0.7818608E-02  0.8717022E-01
          2   -1    0    0  501    0  0.00000000000E+00  0.00000000000E+00  0.17627513569E+04  0.17627513569E+04  0.00000000000E+00 0. -1.
         -1   -1    0    0    0  501 -0.00000000000E+00 -0.00000000000E+00 -0.44934093401E+03  0.44934093401E+03  0.00000000000E+00 0.  1.
         24    2    1    2    0    0 -0.51928447983E+03  0.29418709561E+03  0.82932624294E+03  0.10249325830E+04  0.80637238646E+02 0.  0.
        254    2    1    2    0    0  0.51928447983E+03 -0.29418709561E+03  0.48408417993E+03  0.11871597079E+04  0.90488024654E+03 0.  0.
         23    2    4    4    0    0  0.64813021175E+03  0.14910404928E+02  0.86875204326E+02  0.65938681781E+03  0.83358159879E+02 0.  0.
         23    2    4    4    0    0 -0.12884573192E+03 -0.30909750054E+03  0.39720897561E+03  0.52777289009E+03  0.92880384045E+02 0.  0.
          4    1    3    3  502    0 -0.35589298734E+03  0.22880618090E+03  0.53606528759E+03  0.68291879416E+03  0.00000000000E+00 0. -1.
         -3    1    3    3    0  502 -0.16339149249E+03  0.65380914706E+02  0.29326095535E+03  0.34201378884E+03  0.00000000000E+00 0.  1.
         11    1    5    5    0    0  0.22874698872E+03  0.36625709801E+02  0.60815329673E+01  0.23174039896E+03  0.00000000000E+00 0. -1.
        -11    1    5    5    0    0  0.41938322302E+03 -0.21715304873E+02  0.80793671359E+02  0.42764641884E+03  0.00000000000E+00 0.  1.
          3    1    6    6  503    0 -0.62351576748E+02 -0.21834578609E+03  0.31553436486E+03  0.38874739463E+03  0.00000000000E+00 0. -1.
         -3    1    6    6    0  503 -0.66494155169E+02 -0.90751714445E+02  0.81674610748E+02  0.13902549546E+03  0.00000000000E+00 0.  1.
<mgrwt>
<rscale>  0 0.17799734E+04</rscale>
<asrwt>0</asrwt>
<pdfrwt beam="1">  1        2 0.27119251E+00 0.17799734E+04</pdfrwt>
<pdfrwt beam="2">  1       -1 0.69129376E-01 0.17799734E+04</pdfrwt>
<totfact> 0.20632995E+01</totfact>
</mgrwt>
</event>
<event>
12    6  0.1457317E-007  0.1117710E+04  0.7818608E-02  0.9188101E-01
          2   -1    0    0  501    0  0.00000000000E+00  0.00000000000E+00  0.42900433341E+03  0.42900433341E+03  0.00000000000E+00 0. -1.
         -1   -1    0    0    0  501 -0.00000000000E+00 -0.00000000000E+00 -0.72800855010E+03  0.72800855010E+03  0.00000000000E+00 0.  1.
         24    2    1    2    0    0 -0.44839172391E+02 -0.13216029657E+03 -0.18545318559E+03  0.24532137443E+03  0.79453114071E+02 0.  0.
        254    2    1    2    0    0  0.44839172391E+02  0.13216029657E+03 -0.11355103111E+03  0.91169150908E+03  0.89376209122E+03 0.  0.
         23    2    4    4    0    0  0.37615962331E+03  0.99172137354E+02 -0.31783848049E+03  0.51007413857E+03  0.88448584637E+02 0.  0.
         23    2    4    4    0    0 -0.33132045092E+03  0.32988159220E+02  0.20428744939E+03  0.40161737051E+03  0.93282851976E+02 0.  0.
          4    1    3    3  502    0  0.14037583470E+02 -0.13754702384E+01 -0.33608731326E+02  0.36448490907E+02  0.00000000000E+00 0. -1.
         -3    1    3    3    0  502 -0.58876755861E+02 -0.13078482634E+03 -0.15184445426E+03  0.20887288352E+03  0.00000000000E+00 0.  1.
         11    1    5    5    0    0  0.86348824631E+02  0.53919706366E+02 -0.52478275205E+02  0.11453132156E+03  0.00000000000E+00 0.  1.
        -11    1    5    5    0    0  0.28981079868E+03  0.45252430988E+02 -0.26536020529E+03  0.39554281701E+03  0.00000000000E+00 0. -1.
          3    1    6    6  503    0 -0.24757693367E+03  0.63020242597E+02  0.16662630517E+03  0.30500854846E+03  0.00000000000E+00 0. -1.
         -3    1    6    6    0  503 -0.83743517248E+02 -0.30032083377E+02  0.37661144218E+02  0.96608822044E+02  0.00000000000E+00 0.  1.
<mgrwt>
<rscale>  0 0.11177098E+04</rscale>
<asrwt>0</asrwt>
<pdfrwt beam="1">  1        2 0.66000667E-01 0.11177098E+04</pdfrwt>
<pdfrwt beam="2">  1       -1 0.11200132E+00 0.11177098E+04</pdfrwt>
<totfact> 0.60982369E+01</totfact>
</mgrwt>
</event>
<event>
12    6  0.1457317E-007  0.1990011E+04  0.7818608E-02  0.8611305E-01
          2   -1    0    0  501    0  0.00000000000E+00  0.00000000000E+00  0.13530002466E+04  0.13530002466E+04  0.00000000000E+00 0. -1.
         -1   -1    0    0    0  501 -0.00000000000E+00 -0.00000000000E+00 -0.73173379261E+03  0.73173379261E+03  0.00000000000E+00 0.  1.
         24    2    1    2    0    0 -0.58970453019E+03  0.84515670788E+02 -0.29940591446E+03  0.67150840165E+03  0.79908074262E+02 0.  0.
        254    2    1    2    0    0  0.58970453019E+03 -0.84515670788E+02  0.92067236839E+03  0.14132256375E+04  0.89144532142E+03 0.  0.
         23    2    4    4    0    0 -0.95674134868E+02 -0.20339027059E+03  0.59143060124E+03  0.63818474077E+03  0.83477332378E+02 0.  0.
         23    2    4    4    0    0  0.68537866506E+03  0.11887459980E+03  0.32924176716E+03  0.77504089675E+03  0.91723308908E+02 0.  0.
          2    1    3    3  502    0 -0.14202579063E+03 -0.13382148803E+02 -0.77559305098E+02  0.16237565371E+03  0.00000000000E+00 0. -1.
         -1    1    3    3    0  502 -0.44767873956E+03  0.97897819592E+02 -0.22184660936E+03  0.50913274794E+03  0.00000000000E+00 0.  1.
         11    1    5    5    0    0 -0.54054028533E+01  0.46646512473E+01  0.59461251792E+02  0.59888377970E+02  0.00000000000E+00 0. -1.
        -11    1    5    5    0    0 -0.90268732014E+02 -0.20805492184E+03  0.53196934945E+03  0.57829636280E+03  0.00000000000E+00 0.  1.
          4    1    6    6  503    0  0.62441058889E+02 -0.15386408157E+02  0.33627231100E+02  0.72570090689E+02  0.00000000000E+00 0. -1.
         -4    1    6    6    0  503  0.62293760617E+03  0.13426100796E+03  0.29561453606E+03  0.70247080606E+03  0.00000000000E+00 0.  1.
<mgrwt>
<rscale>  0 0.19900111E+04</rscale>
<asrwt>0</asrwt>
<pdfrwt beam="1">  1        2 0.20815388E+00 0.19900111E+04</pdfrwt>
<pdfrwt beam="2">  1       -1 0.11257443E+00 0.19900111E+04</pdfrwt>
<totfact> 0.11789764E+01</totfact>
</mgrwt>
</event>
<event>
12    6  0.1457317E-007  0.1616371E+04  0.7818608E-02  0.8810554E-01
          2   -1    0    0  501    0  0.00000000000E+00  0.00000000000E+00  0.96740692656E+03  0.96740692656E+03  0.00000000000E+00 0. -1.
         -1   -1    0    0    0  501 -0.00000000000E+00 -0.00000000000E+00 -0.67516939048E+03  0.67516939048E+03  0.00000000000E+00 0.  1.
         24    2    1    2    0    0 -0.31275835839E+03 -0.24249902440E+03 -0.29321605324E+03  0.49902225878E+03  0.80149817851E+02 0.  0.
        254    2    1    2    0    0  0.31275835839E+03  0.24249902440E+03  0.58545358933E+03  0.11435540583E+04  0.89907530904E+03 0.  0.
         23    2    4    4    0    0  0.77820331134E+02  0.13796420788E+03  0.78401115757E+03  0.80526055864E+03  0.93171591840E+02 0.  0.
         23    2    4    4    0    0  0.23493802726E+03  0.10453481652E+03 -0.19855756824E+03  0.33829349962E+03  0.94307897124E+02 0.  0.
          2    1    3    3  502    0 -0.69923375103E+02 -0.65072920343E+02 -0.32189237717E+02  0.10079638075E+03  0.00000000000E+00 0. -1.
         -1    1    3    3    0  502 -0.24283498329E+03 -0.17742610406E+03 -0.26102681552E+03  0.39822587803E+03  0.00000000000E+00 0.  1.
         11    1    5    5    0    0  0.68875345342E+02  0.10467878879E+03  0.73340297377E+03  0.74403049934E+03  0.00000000000E+00 0.  1.
        -11    1    5    5    0    0  0.89449857921E+01  0.33285419090E+02  0.50608183796E+02  0.61230059301E+02  0.00000000000E+00 0. -1.
          3    1    6    6  503    0  0.67879539206E+01  0.32632851150E+02 -0.36081733481E+02  0.49120981093E+02  0.00000000000E+00 0. -1.
         -3    1    6    6    0  503  0.22815007334E+03  0.71901965372E+02 -0.16247583476E+03  0.28917251852E+03  0.00000000000E+00 0.  1.
<mgrwt>
<rscale>  0 0.16163707E+04</rscale>
<asrwt>0</asrwt>
<pdfrwt beam="1">  1        2 0.14883183E+00 0.16163707E+04</pdfrwt>
<pdfrwt beam="2">  1       -1 0.10387221E+00 0.16163707E+04</pdfrwt>
<totfact> 0.25235981E+01</totfact>
</mgrwt>
</event>
<event>
12    6  0.1457317E-007  0.1685011E+04  0.7818608E-02  0.8769960E-01
         -1   -1    0    0    0  501 -0.00000000000E+00  0.00000000000E+00  0.41866671003E+03  0.41866671003E+03  0.00000000000E+00 0.  1.
          2   -1    0    0  501    0  0.00000000000E+00 -0.00000000000E+00 -0.16954192573E+04  0.16954192573E+04  0.00000000000E+00 0. -1.
         24    2    1    2    0    0 -0.22234009243E+03  0.54570830973E+03 -0.46750996735E+03  0.75624504279E+03  0.78155736590E+02 0.  0.
        254    2    1    2    0    0  0.22234009243E+03 -0.54570830973E+03 -0.80924257994E+03  0.13578409246E+04  0.91740162808E+03 0.  0.
         23    2    4    4    0    0  0.36697586848E+02 -0.49226739622E+03  0.18438332029E+02  0.50265039193E+03  0.92970652085E+02 0.  0.
         23    2    4    4    0    0  0.18564250558E+03 -0.53440913511E+02 -0.82768091197E+03  0.85519053263E+03  0.94742197276E+02 0.  0.
          2    1    3    3  502    0 -0.21770679892E+03  0.51889019286E+03 -0.46289912401E+03  0.72864180606E+03  0.00000000000E+00 0. -1.
         -1    1    3    3    0  502 -0.46332935147E+01  0.26818116875E+02 -0.46108433436E+01  0.27603236728E+02  0.00000000000E+00 0.  1.
         11    1    5    5    0    0  0.65049336478E+02 -0.37996749347E+03  0.27485766560E+02  0.38647403487E+03  0.00000000000E+00 0.  1.
        -11    1    5    5    0    0 -0.28351749630E+02 -0.11229990276E+03 -0.90474345310E+01  0.11617635705E+03  0.00000000000E+00 0. -1.
          4    1    6    6  503    0  0.93789479012E+02 -0.62904771844E+02 -0.32404970598E+03  0.34316422984E+03  0.00000000000E+00 0. -1.
         -4    1    6    6    0  503  0.91853026571E+02  0.94638583329E+01 -0.50363120599E+03  0.51202630279E+03  0.00000000000E+00 0.  1.
<mgrwt>
<rscale>  0 0.16850111E+04</rscale>
<asrwt>0</asrwt>
<pdfrwt beam="1">  1        2 0.26083372E+00 0.16850111E+04</pdfrwt>
<pdfrwt beam="2">  1       -1 0.64410265E-01 0.16850111E+04</pdfrwt>
<totfact> 0.26166121E+01</totfact>
</mgrwt>
</event>
<event>
12    6  0.1457317E-007  0.2698631E+04  0.7818608E-02  0.8335449E-01
         -1   -1    0    0    0  501 -0.00000000000E+00  0.00000000000E+00  0.85142004930E+03  0.85142004930E+03  0.00000000000E+00 0.  1.
          2   -1    0    0  501    0  0.00000000000E+00 -0.00000000000E+00 -0.21383716433E+04  0.21383716433E+04  0.00000000000E+00 0. -1.
         24    2    1    2    0    0  0.96914711442E+03 -0.57978914370E+03 -0.10074123887E+04  0.15153586422E+04  0.77656378850E+02 0.  0.
        254    2    1    2    0    0 -0.96914711442E+03  0.57978914370E+03 -0.27953920533E+03  0.14744330504E+04  0.90576435801E+03 0.  0.
         23    2    4    4    0    0 -0.44869292104E+03  0.76056151223E+03 -0.18322997785E+03  0.90683899734E+03  0.94892523539E+02 0.  0.
         23    2    4    4    0    0 -0.52045419337E+03 -0.18077236853E+03 -0.96309227479E+02  0.56759405306E+03  0.96624661171E+02 0.  0.
          4    1    3    3  502    0  0.81522883065E+03 -0.45474153550E+03 -0.84186316568E+03  0.12570288382E+04  0.00000000000E+00 0. -1.
         -3    1    3    3    0  502  0.15391828376E+03 -0.12504760820E+03 -0.16554922301E+03  0.25832980399E+03  0.00000000000E+00 0.  1.
         11    1    5    5    0    0 -0.23552116999E+02  0.44155188864E+02  0.11450889865E+02  0.51337177537E+02  0.00000000000E+00 0.  1.
        -11    1    5    5    0    0 -0.42514080405E+03  0.71640632337E+03 -0.19468086772E+03  0.85550181980E+03  0.00000000000E+00 0. -1.
          2    1    6    6  503    0 -0.51200977845E+03 -0.15934019122E+03 -0.94430574637E+02  0.54448181162E+03  0.00000000000E+00 0. -1.
         -2    1    6    6    0  503 -0.84444149252E+01 -0.21432177307E+02 -0.18786528423E+01  0.23112241433E+02  0.00000000000E+00 0.  1.
<mgrwt>
<rscale>  0 0.26986311E+04</rscale>
<asrwt>0</asrwt>
<pdfrwt beam="1">  1        2 0.32898025E+00 0.26986311E+04</pdfrwt>
<pdfrwt beam="2">  1       -1 0.13098770E+00 0.26986311E+04</pdfrwt>
<totfact> 0.27763858E+00</totfact>
</mgrwt>
</event>
<event>
12    6  0.1620548E-007  0.3111366E+04  0.7818608E-02  0.8212626E-01
         -1   -1    0    0    0  501 -0.00000000000E+00  0.00000000000E+00  0.67446094061E+03  0.67446094061E+03  0.00000000000E+00 0.  1.
          2   -1    0    0  501    0  0.00000000000E+00 -0.00000000000E+00 -0.35882721776E+04  0.35882721776E+04  0.00000000000E+00 0. -1.
         24    2    1    2    0    0  0.77518027990E+03 -0.68955372386E+03 -0.99187045065E+00  0.10405681120E+04  0.79951281808E+02 0.  0.
        254    2    1    2    0    0 -0.77518027990E+03  0.68955372386E+03 -0.29128193665E+04  0.32221650062E+04  0.90633429849E+03 0.  0.
         23    2    4    4    0    0  0.10280787618E+03 -0.53346914762E+02 -0.90284098373E+02  0.17304202930E+03  0.91525803834E+02 0.  0.
         23    2    4    4    0    0 -0.87798815608E+03  0.74290063862E+03 -0.28225352681E+04  0.30491229769E+04  0.87641469040E+02 0.  0.
          2    1    3    3  502    0  0.10501052953E+03 -0.84760890761E+02  0.26060537096E+02  0.13744370305E+03  0.00000000000E+00 0. -1.
         -1    1    3    3    0  502  0.67016975037E+03 -0.60479283310E+03 -0.27052407546E+02  0.90312440895E+03  0.00000000000E+00 0.  1.
         11    1    5    5    0    0  0.10909932797E+03 -0.65755392965E+02 -0.94382481606E+02  0.15853860067E+03  0.00000000000E+00 0.  1.
        -11    1    5    5    0    0 -0.62914517952E+01  0.12408478203E+02  0.40983832327E+01  0.14503428634E+02  0.00000000000E+00 0. -1.
          2    1    6    6  503    0 -0.74259654523E+03  0.62181815946E+03 -0.22877075123E+04  0.24842932827E+04  0.00000000000E+00 0.  1.
         -2    1    6    6    0  503 -0.13539161085E+03  0.12108247916E+03 -0.53482775578E+03  0.56482969415E+03  0.00000000000E+00 0. -1.
<mgrwt>
<rscale>  0 0.31113659E+04</rscale>
<asrwt>0</asrwt>
<pdfrwt beam="1">  1        2 0.55204186E+00 0.31113659E+04</pdfrwt>
<pdfrwt beam="2">  1       -1 0.10376322E+00 0.31113659E+04</pdfrwt>
<totfact> 0.59282639E-01</totfact>
</mgrwt>
</event>
<event>
12    6  0.1457317E-007  0.1624044E+04  0.7818608E-02  0.8805911E-01
          4   -1    0    0  501    0  0.00000000000E+00  0.00000000000E+00  0.11731886014E+04  0.11731886014E+04  0.00000000000E+00 0. -1.
         -3   -1    0    0    0  501 -0.00000000000E+00 -0.00000000000E+00 -0.56204089058E+03  0.56204089058E+03  0.00000000000E+00 0.  1.
         24    2    1    2    0    0  0.30334445144E+03  0.46392122702E+03  0.14871275775E+03  0.58128857910E+03  0.92413022776E+02 0.  0.
        254    2    1    2    0    0 -0.30334445144E+03 -0.46392122702E+03  0.46243495303E+03  0.11539409128E+04  0.90027372697E+03 0.  0.
         23    2    4    4    0    0 -0.11468532705E+02  0.27527165680E+02 -0.23145102456E+03  0.25023272494E+03  0.90319254709E+02 0.  0.
         23    2    4    4    0    0 -0.29187591873E+03 -0.49144839270E+03  0.69388597758E+03  0.90370818790E+03  0.92182777013E+02 0.  0.
          4    1    3    3  502    0  0.11582555478E+03  0.24636146544E+03  0.45045710084E+02  0.27593232285E+03  0.00000000000E+00 0. -1.
         -3    1    3    3    0  502  0.18751889666E+03  0.21755976157E+03  0.10366704767E+03  0.30535625625E+03  0.00000000000E+00 0.  1.
         11    1    5    5    0    0 -0.33319038987E+02  0.52255682897E+02 -0.15742289369E+03  0.16918268887E+03  0.00000000000E+00 0.  1.
        -11    1    5    5    0    0  0.21850506281E+02 -0.24728517217E+02 -0.74028130866E+02  0.81050036077E+02  0.00000000000E+00 0. -1.
          2    1    6    6  503    0 -0.22500357095E+03 -0.29286532135E+03  0.43404014952E+03  0.56990135531E+03  0.00000000000E+00 0. -1.
         -2    1    6    6    0  503 -0.66872347780E+02 -0.19858307135E+03  0.25984582807E+03  0.33380683260E+03  0.00000000000E+00 0.  1.
<mgrwt>
<rscale>  0 0.16240443E+04</rscale>
<asrwt>0</asrwt>
<pdfrwt beam="1">  1        4 0.18049055E+00 0.16240443E+04</pdfrwt>
<pdfrwt beam="2">  1       -3 0.86467829E-01 0.16240443E+04</pdfrwt>
<totfact> 0.47638988E-01</totfact>
</mgrwt>
</event>
<event>
12    6  0.1457317E-007  0.1433099E+04  0.7818608E-02  0.8930202E-01
          2   -1    0    0  501    0  0.00000000000E+00  0.00000000000E+00  0.16526649770E+04  0.16526649770E+04  0.00000000000E+00 0. -1.
         -1   -1    0    0    0  501 -0.00000000000E+00 -0.00000000000E+00 -0.31067594077E+03  0.31067594077E+03  0.00000000000E+00 0.  1.
         24    2    1    2    0    0 -0.95680016028E+02 -0.12464286817E+03 -0.13711811177E+03  0.22334759945E+03  0.79951632579E+02 0.  0.
        254    2    1    2    0    0  0.95680016028E+02  0.12464286817E+03  0.14791071480E+04  0.17399933183E+04  0.90284455056E+03 0.  0.
         23    2    4    4    0    0 -0.19533240663E+03  0.32715280304E+03  0.26735418460E+03  0.47417838743E+03  0.90460916745E+02 0.  0.
         23    2    4    4    0    0  0.29101242266E+03 -0.20250993487E+03  0.12117529634E+04  0.12658149309E+04  0.90794774640E+02 0.  0.
          2    1    3    3  502    0  0.14397133785E+02 -0.11945873897E+02 -0.16375961375E+02  0.24862692439E+02  0.00000000000E+00 0. -1.
         -1    1    3    3    0  502 -0.11007714981E+03 -0.11269699428E+03 -0.12074215040E+03  0.19848490701E+03  0.00000000000E+00 0.  1.
         11    1    5    5    0    0 -0.28252124150E+02  0.13066672975E+03  0.89305994934E+02  0.16077169376E+03  0.00000000000E+00 0.  1.
        -11    1    5    5    0    0 -0.16708028248E+03  0.19648607329E+03  0.17804818967E+03  0.31340669367E+03  0.00000000000E+00 0. -1.
          2    1    6    6  503    0  0.26522489014E+03 -0.15923913665E+03  0.94498691986E+03  0.99433476440E+03  0.00000000000E+00 0. -1.
         -2    1    6    6    0  503  0.25787532514E+02 -0.43270798220E+02  0.26676604355E+03  0.27148016650E+03  0.00000000000E+00 0.  1.
<mgrwt>
<rscale>  0 0.14330991E+04</rscale>
<asrwt>0</asrwt>
<pdfrwt beam="1">  1        2 0.25425614E+00 0.14330991E+04</pdfrwt>
<pdfrwt beam="2">  1       -1 0.47796300E-01 0.14330991E+04</pdfrwt>
<totfact> 0.50403873E+01</totfact>
</mgrwt>
</event>
<event>
12    6  0.1457317E-007  0.2168321E+04  0.7818608E-02  0.8531731E-01
         -1   -1    0    0    0  501 -0.00000000000E+00  0.00000000000E+00  0.10449191658E+04  0.10449191658E+04  0.00000000000E+00 0.  1.
          2   -1    0    0  501    0  0.00000000000E+00 -0.00000000000E+00 -0.11248750837E+04  0.11248750837E+04  0.00000000000E+00 0. -1.
         24    2    1    2    0    0  0.16464937538E+02  0.85390715251E+03  0.23904789251E+03  0.89058166945E+03  0.81014170216E+02 0.  0.
        254    2    1    2    0    0 -0.16464937538E+02 -0.85390715251E+03 -0.31900381035E+03  0.12792125801E+04  0.89732540067E+03 0.  0.
         23    2    4    4    0    0  0.34945947560E+03 -0.16479492741E+03 -0.29075903913E+03  0.49178184028E+03  0.89606173947E+02 0.  0.
         23    2    4    4    0    0 -0.36592441314E+03 -0.68911222510E+03 -0.28244771222E+02  0.78743073978E+03  0.10233800828E+03 0.  0.
          2    1    3    3  502    0  0.23197897192E+02  0.26707595430E+03  0.10950662790E+03  0.28958489144E+03  0.00000000000E+00 0. -1.
         -1    1    3    3    0  502 -0.67329596544E+01  0.58683119821E+03  0.12954126461E+03  0.60099677801E+03  0.00000000000E+00 0.  1.
         11    1    5    5    0    0  0.66832469684E+02 -0.34015689182E+01 -0.78817201959E+02  0.10339391181E+03  0.00000000000E+00 0. -1.
        -11    1    5    5    0    0  0.28262700591E+03 -0.16139335849E+03 -0.21194183717E+03  0.38838792847E+03  0.00000000000E+00 0.  1.
          4    1    6    6  503    0 -0.73106761155E+02 -0.10840278106E+03  0.31013416568E+02  0.13437854544E+03  0.00000000000E+00 0. -1.
         -4    1    6    6    0  503 -0.29281765198E+03 -0.58070944404E+03 -0.59258187790E+02  0.65305219434E+03  0.00000000000E+00 0.  1.
<mgrwt>
<rscale>  0 0.21683206E+04</rscale>
<asrwt>0</asrwt>
<pdfrwt beam="1">  1        2 0.17305771E+00 0.21683206E+04</pdfrwt>
<pdfrwt beam="2">  1       -1 0.16075679E+00 0.21683206E+04</pdfrwt>
<totfact> 0.63383866E+00</totfact>
</mgrwt>
</event>
<event>
12    6  0.1457317E-007  0.1424125E+04  0.7818608E-02  0.8936539E-01
         -1   -1    0    0    0  501 -0.00000000000E+00  0.00000000000E+00  0.36451568220E+03  0.36451568220E+03  0.00000000000E+00 0.  1.
          2   -1    0    0  501    0  0.00000000000E+00 -0.00000000000E+00 -0.13909765004E+04  0.13909765004E+04  0.00000000000E+00 0. -1.
         24    2    1    2    0    0  0.38370280743E+03 -0.14479518286E+03 -0.18315892896E+03  0.45527261990E+03  0.74380614175E+02 0.  0.
        254    2    1    2    0    0 -0.38370280743E+03  0.14479518286E+03 -0.84330188924E+03  0.13002195627E+04  0.90067715938E+03 0.  0.
         23    2    4    4    0    0  0.20492352950E+03 -0.19672362283E+03 -0.32078701753E+03  0.43806528559E+03  0.91121057366E+02 0.  0.
         23    2    4    4    0    0 -0.58862633693E+03  0.34151880569E+03 -0.52251487171E+03  0.86215427712E+03  0.84688530660E+02 0.  0.
          2    1    3    3  502    0  0.33884585378E+03 -0.12069135322E+03 -0.18465639965E+03  0.40432771522E+03  0.00000000000E+00 0. -1.
         -1    1    3    3    0  502  0.44856953646E+02 -0.24103829640E+02  0.14974706933E+01  0.50944904674E+02  0.00000000000E+00 0.  1.
         11    1    5    5    0    0  0.44760312595E+01  0.65291078302E+01 -0.28196034305E+02  0.29286181988E+02  0.00000000000E+00 0. -1.
        -11    1    5    5    0    0  0.20044749824E+03 -0.20325273066E+03 -0.29259098322E+03  0.40877910360E+03  0.00000000000E+00 0.  1.
          1    1    6    6  503    0 -0.17274600835E+03  0.67054465375E+02 -0.11178969822E+03  0.21641261830E+03  0.00000000000E+00 0. -1.
         -1    1    6    6    0  503 -0.41588032858E+03  0.27446434032E+03 -0.41072517349E+03  0.64574165882E+03  0.00000000000E+00 0.  1.
<mgrwt>
<rscale>  0 0.14241246E+04</rscale>
<asrwt>0</asrwt>
<pdfrwt beam="1">  1        2 0.21399639E+00 0.14241246E+04</pdfrwt>
<pdfrwt beam="2">  1       -1 0.56079336E-01 0.14241246E+04</pdfrwt>
<totfact> 0.52162823E+01</totfact>
</mgrwt>
</event>
<event>
12    6  0.1457317E-007  0.1958838E+04  0.7818608E-02  0.8626111E-01
         -1   -1    0    0    0  501 -0.00000000000E+00  0.00000000000E+00  0.33349761918E+03  0.33349761918E+03  0.00000000000E+00 0.  1.
          2   -1    0    0  501    0  0.00000000000E+00 -0.00000000000E+00 -0.28763676215E+04  0.28763676215E+04  0.00000000000E+00 0. -1.
         24    2    1    2    0    0 -0.46209446780E+03  0.48196924122E+02  0.37152631267E+01  0.47129207236E+03  0.79045389661E+02 0.  0.
        254    2    1    2    0    0  0.46209446780E+03 -0.48196924122E+02 -0.25465852655E+04  0.27385731683E+04  0.89377415680E+03 0.  0.
         23    2    4    4    0    0 -0.69562081200E+02  0.32412608793E+03 -0.71894089388E+03  0.79696132369E+03  0.91513597608E+02 0.  0.
         23    2    4    4    0    0  0.53165654900E+03 -0.37232301205E+03 -0.18276443716E+04  0.19416118446E+04  0.91046663194E+02 0.  0.
          4    1    3    3  502    0 -0.42960475341E+03  0.49878701011E+02  0.23650552622E+02  0.43313678857E+03  0.00000000000E+00 0. -1.
         -3    1    3    3    0  502 -0.32489714385E+02 -0.16817768890E+01 -0.19935289495E+02  0.38155283797E+02  0.00000000000E+00 0.  1.
         11    1    5    5    0    0 -0.89970191770E+01  0.15948350258E+03 -0.25431321976E+03  0.30031841052E+03  0.00000000000E+00 0. -1.
        -11    1    5    5    0    0 -0.60565062023E+02  0.16464258534E+03 -0.46462767412E+03  0.49664291317E+03  0.00000000000E+00 0.  1.
          4    1    6    6  503    0  0.15309415598E+03 -0.68565282472E+02 -0.40135308189E+03  0.43499806310E+03  0.00000000000E+00 0. -1.
         -4    1    6    6    0  503  0.37856239302E+03 -0.30375772958E+03 -0.14262912897E+04  0.15066137816E+04  0.00000000000E+00 0.  1.
<mgrwt>
<rscale>  0 0.19588382E+04</rscale>
<asrwt>0</asrwt>
<pdfrwt beam="1">  1        2 0.44251809E+00 0.19588382E+04</pdfrwt>
<pdfrwt beam="2">  1       -1 0.51307326E-01 0.19588382E+04</pdfrwt>
<totfact> 0.84389173E+00</totfact>
</mgrwt>
</event>
<event>
12    6  0.1457317E-007  0.2043131E+04  0.7818608E-02  0.8586717E-01
         -1   -1    0    0    0  501 -0.00000000000E+00  0.00000000000E+00  0.74795463373E+03  0.74795463373E+03  0.00000000000E+00 0.  1.
          2   -1    0    0  501    0  0.00000000000E+00 -0.00000000000E+00 -0.13952668888E+04  0.13952668888E+04  0.00000000000E+00 0. -1.
         24    2    1    2    0    0  0.64572105533E+03 -0.50149506718E+03 -0.32896747211E+03  0.88487834419E+03  0.79605920767E+02 0.  0.
        254    2    1    2    0    0 -0.64572105533E+03  0.50149506718E+03 -0.31834478299E+03  0.12583431784E+04  0.90201506085E+03 0.  0.
         23    2    4    4    0    0  0.27134838899E+02  0.43331484100E+02 -0.42004957557E+03  0.43278141755E+03  0.90797535440E+02 0.  0.
         23    2    4    4    0    0 -0.67285589423E+03  0.45816358308E+03  0.10170479258E+03  0.82556176082E+03  0.92517202983E+02 0.  0.
          2    1    3    3  502    0  0.31670110959E+03 -0.27409581284E+03 -0.20381372846E+03  0.46579839344E+03  0.00000000000E+00 0. -1.
         -1    1    3    3    0  502  0.32901994574E+03 -0.22739925434E+03 -0.12515374365E+03  0.41907995075E+03  0.00000000000E+00 0.  1.
         11    1    5    5    0    0  0.47033636045E+02  0.18987861463E+02 -0.10987601561E+03  0.12101834823E+03  0.00000000000E+00 0. -1.
        -11    1    5    5    0    0 -0.19898797146E+02  0.24343622637E+02 -0.31017355996E+03  0.31176306931E+03  0.00000000000E+00 0.  1.
          3    1    6    6  503    0 -0.13333226121E+03  0.49935433262E+02  0.87626612124E+01  0.14264579772E+03  0.00000000000E+00 0. -1.
         -3    1    6    6    0  503 -0.53952363302E+03  0.40822814982E+03  0.92942131367E+02  0.68291596311E+03  0.00000000000E+00 0.  1.
<mgrwt>
<rscale>  0 0.20431313E+04</rscale>
<asrwt>0</asrwt>
<pdfrwt beam="1">  1        2 0.21465644E+00 0.20431313E+04</pdfrwt>
<pdfrwt beam="2">  1       -1 0.11506994E+00 0.20431313E+04</pdfrwt>
<totfact> 0.10530523E+01</totfact>
</mgrwt>
</event>
<event>
12    6  0.1457317E-007  0.2298988E+04  0.7818608E-02  0.8478320E-01
         -1   -1    0    0    0  501 -0.00000000000E+00  0.00000000000E+00  0.49148664078E+03  0.49148664078E+03  0.00000000000E+00 0.  1.
          2   -1    0    0  501    0  0.00000000000E+00 -0.00000000000E+00 -0.26884482402E+04  0.26884482402E+04  0.00000000000E+00 0. -1.
         24    2    1    2    0    0  0.58079757769E+03 -0.52402928362E+03 -0.13022092662E+03  0.79699259550E+03  0.79417826730E+02 0.  0.
        254    2    1    2    0    0 -0.58079757769E+03  0.52402928362E+03 -0.20667406728E+04  0.23829422855E+04  0.89166384419E+03 0.  0.
         23    2    4    4    0    0 -0.39131351284E+03  0.76608392023E+03 -0.15322664508E+04  0.17597582202E+04  0.94327510556E+02 0.  0.
         23    2    4    4    0    0 -0.18948406485E+03 -0.24205463661E+03 -0.53447422203E+03  0.62318406529E+03  0.90559523401E+02 0.  0.
          4    1    3    3  502    0  0.50318587104E+03 -0.46272435833E+03 -0.13938319640E+03  0.69766577102E+03  0.00000000000E+00 0. -1.
         -3    1    3    3    0  502  0.77611706645E+02 -0.61304925292E+02  0.91622697816E+01  0.99326824479E+02  0.00000000000E+00 0.  1.
         11    1    5    5    0    0 -0.31618110323E+03  0.55850158171E+03 -0.11999180817E+04  0.13607710717E+04  0.00000000000E+00 0. -1.
        -11    1    5    5    0    0 -0.75132409606E+02  0.20758233853E+03 -0.33234836911E+03  0.39898714853E+03  0.00000000000E+00 0.  1.
          4    1    6    6  503    0 -0.10352346795E+03 -0.18291114084E+03 -0.29746814816E+03  0.36422643099E+03  0.00000000000E+00 0. -1.
         -4    1    6    6    0  503 -0.85960596896E+02 -0.59143495763E+02 -0.23700607387E+03  0.25895763429E+03  0.00000000000E+00 0.  1.
<mgrwt>
<rscale>  0 0.22989879E+04</rscale>
<asrwt>0</asrwt>
<pdfrwt beam="1">  1        2 0.41360743E+00 0.22989879E+04</pdfrwt>
<pdfrwt beam="2">  1       -1 0.75613328E-01 0.22989879E+04</pdfrwt>
<totfact> 0.48924698E+00</totfact>
</mgrwt>
</event>
<event>
12    6  0.1457317E-007  0.1341532E+04  0.7818608E-02  0.8997263E-01
         -1   -1    0    0    0  501 -0.00000000000E+00  0.00000000000E+00  0.39909936294E+03  0.39909936294E+03  0.00000000000E+00 0.  1.
          2   -1    0    0  501    0  0.00000000000E+00 -0.00000000000E+00 -0.11273559397E+04  0.11273559397E+04  0.00000000000E+00 0. -1.
         24    2    1    2    0    0 -0.21061592996E+03 -0.29417781141E+02 -0.53815761998E+03  0.58406485261E+03  0.79332542568E+02 0.  0.
        254    2    1    2    0    0  0.21061592996E+03  0.29417781141E+02 -0.19009895677E+03  0.94239045001E+03  0.89818576648E+03 0.  0.
         23    2    4    4    0    0  0.55500558127E+03  0.48168034269E+02 -0.87640935822E+02  0.57111360910E+03  0.90213447490E+02 0.  0.
         23    2    4    4    0    0 -0.34438965130E+03 -0.18750253128E+02 -0.10245802094E+03  0.37127684091E+03  0.91613550441E+02 0.  0.
          2    1    3    3  502    0 -0.17978698733E+03 -0.53307995033E+02 -0.45870460480E+03  0.49555526191E+03  0.00000000000E+00 0. -1.
         -3    1    3    3    0  502 -0.30828942636E+02  0.23890213892E+02 -0.79453015183E+02  0.88509590698E+02  0.00000000000E+00 0.  1.
         11    1    5    5    0    0  0.15376596854E+03  0.42735363235E+02 -0.53776577618E+02  0.16841082106E+03  0.00000000000E+00 0.  1.
        -11    1    5    5    0    0  0.40123961273E+03  0.54326710338E+01 -0.33864358204E+02  0.40270278804E+03  0.00000000000E+00 0. -1.
          3    1    6    6  503    0 -0.26541309534E+03 -0.34251877394E+02 -0.42620725305E+02  0.27098676814E+03  0.00000000000E+00 0. -1.
         -3    1    6    6    0  503 -0.78976555966E+02  0.15501624266E+02 -0.59837295638E+02  0.10029007277E+03  0.00000000000E+00 0.  1.
<mgrwt>
<rscale>  0 0.13415320E+04</rscale>
<asrwt>0</asrwt>
<pdfrwt beam="1">  1        2 0.17343937E+00 0.13415320E+04</pdfrwt>
<pdfrwt beam="2">  1       -1 0.61399902E-01 0.13415320E+04</pdfrwt>
<totfact> 0.62844788E+01</totfact>
</mgrwt>
</event>
<event>
12    6  0.1457317E-007  0.3484417E+04  0.7818608E-02  0.8117493E-01
          2   -1    0    0  501    0  0.00000000000E+00  0.00000000000E+00  0.20190302874E+04  0.20190302874E+04  0.00000000000E+00 0. -1.
         -1   -1    0    0    0  501 -0.00000000000E+00 -0.00000000000E+00 -0.15033407063E+04  0.15033407063E+04  0.00000000000E+00 0.  1.
         24    2    1    2    0    0 -0.48403647776E+02 -0.20174186444E+03  0.18650571463E+04  0.18788837995E+04  0.93399570902E+02 0.  0.
        254    2    1    2    0    0  0.48403647776E+02  0.20174186444E+03 -0.13493675652E+04  0.16434871943E+04  0.91499433806E+03 0.  0.
         23    2    4    4    0    0  0.22715617264E+03 -0.93515249122E+02 -0.12393532218E+04  0.12667043690E+04  0.90545686365E+02 0.  0.
         23    2    4    4    0    0 -0.17875252486E+03  0.29525711356E+03 -0.11001434340E+03  0.37678282531E+03  0.10359977530E+03 0.  0.
          2    1    3    3  502    0 -0.68870291235E+02 -0.98445897776E+02  0.86653623244E+03  0.87482555629E+03  0.00000000000E+00 0. -1.
         -3    1    3    3    0  502  0.20466643459E+02 -0.10329596667E+03  0.99852091390E+03  0.10040582432E+04  0.00000000000E+00 0.  1.
         11    1    5    5    0    0  0.11363593160E+02 -0.36952340588E+02 -0.17321261889E+03  0.17747455611E+03  0.00000000000E+00 0. -1.
        -11    1    5    5    0    0  0.21579257948E+03 -0.56562908534E+02 -0.10661406029E+04  0.10892298129E+04  0.00000000000E+00 0.  1.
          4    1    6    6  503    0  0.22047559806E+00  0.47156181203E+02  0.99316705294E+01  0.48191203706E+02  0.00000000000E+00 0. -1.
         -4    1    6    6    0  503 -0.17897300046E+03  0.24810093236E+03 -0.11994601393E+03  0.32859162161E+03  0.00000000000E+00 0.  1.
<mgrwt>
<rscale>  0 0.34844170E+04</rscale>
<asrwt>0</asrwt>
<pdfrwt beam="1">  1        2 0.31062004E+00 0.34844170E+04</pdfrwt>
<pdfrwt beam="2">  1       -1 0.23128319E+00 0.34844170E+04</pdfrwt>
<totfact> 0.56479538E-01</totfact>
</mgrwt>
</event>
<event>
12    6  0.1457317E-007  0.1889465E+04  0.7818608E-02  0.8660118E-01
          2   -1    0    0  501    0  0.00000000000E+00  0.00000000000E+00  0.19594575612E+04  0.19594575612E+04  0.00000000000E+00 0. -1.
         -1   -1    0    0    0  501 -0.00000000000E+00 -0.00000000000E+00 -0.45549298859E+03  0.45549298859E+03  0.00000000000E+00 0.  1.
         24    2    1    2    0    0 -0.58692563598E+03 -0.20282819292E+03  0.10627259544E+04  0.12334693667E+04  0.80244915094E+02 0.  0.
        254    2    1    2    0    0  0.58692563598E+03  0.20282819292E+03  0.44123861820E+03  0.11814811831E+04  0.90309760812E+03 0.  0.
         23    2    4    4    0    0  0.53352324391E+03  0.27047700922E+03 -0.11141931559E+03  0.61473981487E+03  0.87669332095E+02 0.  0.
         23    2    4    4    0    0  0.53402392067E+02 -0.67648816303E+02  0.55265793379E+03  0.56674136822E+03  0.91306127100E+02 0.  0.
          2    1    3    3  502    0 -0.34730221334E+03 -0.12729815798E+03  0.55483506773E+03  0.66683251330E+03  0.00000000000E+00 0. -1.
         -1    1    3    3    0  502 -0.23962342264E+03 -0.75530034934E+02  0.50789088666E+03  0.56663685338E+03  0.00000000000E+00 0.  1.
         11    1    5    5    0    0  0.52095169939E+03  0.24730787575E+03 -0.11532616218E+03  0.58809181442E+03  0.00000000000E+00 0.  1.
        -11    1    5    5    0    0  0.12571544518E+02  0.23169133474E+02  0.39068465968E+01  0.26648000447E+02  0.00000000000E+00 0. -1.
          1    1    6    6  503    0  0.21646603647E+02 -0.69807660811E+02  0.20517515621E+03  0.21780387894E+03  0.00000000000E+00 0. -1.
         -1    1    6    6    0  503  0.31755788420E+02  0.21588445078E+01  0.34748277758E+03  0.34893748928E+03  0.00000000000E+00 0.  1.
<mgrwt>
<rscale>  0 0.18894647E+04</rscale>
<asrwt>0</asrwt>
<pdfrwt beam="1">  1        2 0.30145501E+00 0.18894647E+04</pdfrwt>
<pdfrwt beam="2">  1       -1 0.70075845E-01 0.18894647E+04</pdfrwt>
<totfact> 0.15463177E+01</totfact>
</mgrwt>
</event>
<event>
12    6  0.1457317E-007  0.1647679E+04  0.7818608E-02  0.8791781E-01
          2   -1    0    0  501    0  0.00000000000E+00  0.00000000000E+00  0.11613529826E+04  0.11613529826E+04  0.00000000000E+00 0. -1.
         -1   -1    0    0    0  501 -0.00000000000E+00 -0.00000000000E+00 -0.58441444571E+03  0.58441444571E+03  0.00000000000E+00 0.  1.
         24    2    1    2    0    0  0.28160247226E+03  0.25953956060E+03  0.65855799867E+03  0.76620158220E+03  0.81887062799E+02 0.  0.
        254    2    1    2    0    0 -0.28160247226E+03 -0.25953956060E+03 -0.81619461737E+02  0.97956584615E+03  0.89790131669E+03 0.  0.
         23    2    4    4    0    0 -0.47936839584E+03 -0.20399360673E+03 -0.34610241392E+03  0.63251391303E+03  0.94231198319E+02 0.  0.
         23    2    4    4    0    0  0.19776592358E+03 -0.55545953873E+02  0.26448295219E+03  0.34705193312E+03  0.91088411818E+02 0.  0.
          4    1    3    3  502    0  0.11679954313E+03  0.70754381938E+02  0.28965316971E+03  0.32023003382E+03  0.00000000000E+00 0. -1.
         -3    1    3    3    0  502  0.16480292912E+03  0.18878517866E+03  0.36890482897E+03  0.44597154838E+03  0.00000000000E+00 0.  1.
         11    1    5    5    0    0 -0.34814459791E+03 -0.10170470710E+03 -0.24776475694E+03  0.43924467360E+03  0.00000000000E+00 0.  1.
        -11    1    5    5    0    0 -0.13122379792E+03 -0.10228889963E+03 -0.98337656981E+02  0.19326923943E+03  0.00000000000E+00 0. -1.
          1    1    6    6  503    0  0.89517548680E+02 -0.30279811974E+01  0.53941164598E+02  0.10455720649E+03  0.00000000000E+00 0. -1.
         -1    1    6    6    0  503  0.10824837490E+03 -0.52517972676E+02  0.21054178759E+03  0.24249472663E+03  0.00000000000E+00 0.  1.
<mgrwt>
<rscale>  0 0.16476789E+04</rscale>
<asrwt>0</asrwt>
<pdfrwt beam="1">  1        2 0.17866969E+00 0.16476789E+04</pdfrwt>
<pdfrwt beam="2">  1       -1 0.89909915E-01 0.16476789E+04</pdfrwt>
<totfact> 0.26362322E+01</totfact>
</mgrwt>
</event>
<event>
12    6  0.1457317E-007  0.1631054E+04  0.7818608E-02  0.8801694E-01
          2   -1    0    0  501    0  0.00000000000E+00  0.00000000000E+00  0.30605325254E+04  0.30605325254E+04  0.00000000000E+00 0. -1.
         -1   -1    0    0    0  501 -0.00000000000E+00 -0.00000000000E+00 -0.21731011317E+03  0.21731011317E+03  0.00000000000E+00 0.  1.
         24    2    1    2    0    0  0.33806611902E+03 -0.21030008182E+03  0.16564354884E+04  0.17054234487E+04  0.78586174964E+02 0.  0.
        254    2    1    2    0    0 -0.33806611902E+03  0.21030008182E+03  0.11867869238E+04  0.15724191898E+04  0.95159029044E+03 0.  0.
         23    2    4    4    0    0 -0.20464538563E+03 -0.36760073660E+03  0.45162614932E+03  0.62404054194E+03  0.91925969299E+02 0.  0.
         23    2    4    4    0    0 -0.13342073338E+03  0.57790081841E+03  0.73516077448E+03  0.94837864790E+03  0.84795326783E+02 0.  0.
          2    1    3    3  502    0  0.22826627078E+03 -0.11601319727E+03  0.11814044483E+04  0.12088345721E+04  0.00000000000E+00 0. -1.
         -1    1    3    3    0  502  0.10979984824E+03 -0.94286884548E+02  0.47503104011E+03  0.49658887658E+03  0.00000000000E+00 0.  1.
         11    1    5    5    0    0  0.45282031480E+01 -0.45191581591E+02  0.35949535840E+02  0.57923680801E+02  0.00000000000E+00 0. -1.
        -11    1    5    5    0    0 -0.20917358878E+03 -0.32240915501E+03  0.41567661348E+03  0.56611686114E+03  0.00000000000E+00 0.  1.
          1    1    6    6  503    0 -0.77921155076E+01  0.20867200888E+03  0.27076536907E+03  0.34193363310E+03  0.00000000000E+00 0. -1.
         -1    1    6    6    0  503 -0.12562861788E+03  0.36922880953E+03  0.46439540541E+03  0.60644501481E+03  0.00000000000E+00 0.  1.
<mgrwt>
<rscale>  0 0.16310545E+04</rscale>
<asrwt>0</asrwt>
<pdfrwt beam="1">  1        2 0.47085113E+00 0.16310545E+04</pdfrwt>
<pdfrwt beam="2">  1       -1 0.33432327E-01 0.16310545E+04</pdfrwt>
<totfact> 0.14720774E+01</totfact>
</mgrwt>
</event>
<event>
12    6  0.1457317E-007  0.2591395E+04  0.7818608E-02  0.8371130E-01
         -1   -1    0    0    0  501 -0.00000000000E+00  0.00000000000E+00  0.99015860369E+03  0.99015860369E+03  0.00000000000E+00 0.  1.
          2   -1    0    0  501    0  0.00000000000E+00 -0.00000000000E+00 -0.16955181853E+04  0.16955181853E+04  0.00000000000E+00 0. -1.
         24    2    1    2    0    0 -0.46663053746E+03  0.91724387809E+03  0.18844255006E+03  0.10488128024E+04  0.73602373287E+02 0.  0.
        254    2    1    2    0    0  0.46663053746E+03 -0.91724387809E+03 -0.89380213165E+03  0.16368639866E+04  0.90628972724E+03 0.  0.
         23    2    4    4    0    0  0.37080476364E+03 -0.11696205368E+03  0.38114430457E+02  0.40121850250E+03  0.91363462099E+02 0.  0.
         23    2    4    4    0    0  0.95825773827E+02 -0.80028182442E+03 -0.93191656211E+03  0.12356454841E+04  0.93368657639E+02 0.  0.
          4    1    3    3  502    0 -0.14507871194E+03  0.25186850649E+03  0.23373493092E+02  0.29160229320E+03  0.00000000000E+00 0. -1.
         -3    1    3    3    0  502 -0.32155182552E+03  0.66537537161E+03  0.16506905696E+03  0.75721050917E+03  0.00000000000E+00 0.  1.
         11    1    5    5    0    0  0.20412617047E+03 -0.76674568126E+02  0.65253036540E+02  0.22760589106E+03  0.00000000000E+00 0. -1.
        -11    1    5    5    0    0  0.16667859316E+03 -0.40287485552E+02 -0.27138606083E+02  0.17361261144E+03  0.00000000000E+00 0.  1.
          2    1    6    6  503    0  0.74274921852E+02 -0.77328375540E+03 -0.89182042931E+03  0.11827206807E+04  0.00000000000E+00 0. -1.
         -2    1    6    6    0  503  0.21550851975E+02 -0.26998069012E+02 -0.40096132796E+02  0.52924803414E+02  0.00000000000E+00 0.  1.
<mgrwt>
<rscale>  0 0.25913949E+04</rscale>
<asrwt>0</asrwt>
<pdfrwt beam="1">  1        2 0.26084895E+00 0.25913949E+04</pdfrwt>
<pdfrwt beam="2">  1       -1 0.15233209E+00 0.25913949E+04</pdfrwt>
<totfact> 0.33261481E+00</totfact>
</mgrwt>
</event>
<event>
12    6  0.1457317E-007  0.1253035E+04  0.7818608E-02  0.9067661E-01
         -1   -1    0    0    0  501 -0.00000000000E+00  0.00000000000E+00  0.96019626981E+03  0.96019626981E+03  0.00000000000E+00 0.  1.
          2   -1    0    0  501    0  0.00000000000E+00 -0.00000000000E+00 -0.40879595484E+03  0.40879595484E+03  0.00000000000E+00 0. -1.
         24    2    1    2    0    0  0.25366569200E+02  0.10258794629E+03 -0.16029967036E+03  0.20765579775E+03  0.79102442862E+02 0.  0.
        254    2    1    2    0    0 -0.25366569200E+02 -0.10258794629E+03  0.71169998532E+03  0.11613364269E+04  0.91160171006E+03 0.  0.
         23    2    4    4    0    0 -0.12661026930E+03  0.36657853015E+03  0.17377734629E+03  0.43461038729E+03  0.90981556343E+02 0.  0.
         23    2    4    4    0    0  0.10124370010E+03 -0.46916647643E+03  0.53792263903E+03  0.72672603961E+03  0.91665160522E+02 0.  0.
          4    1    3    3  502    0 -0.12684090678E+02  0.91446182588E+02 -0.10997703241E+03  0.14359052240E+03  0.00000000000E+00 0. -1.
         -1    1    3    3    0  502  0.38050659877E+02  0.11141763698E+02 -0.50322637946E+02  0.64065275347E+02  0.00000000000E+00 0.  1.
         11    1    5    5    0    0 -0.57367994924E+02  0.26732645436E+03  0.14791588016E+03  0.31085949824E+03  0.00000000000E+00 0. -1.
        -11    1    5    5    0    0 -0.69242274380E+02  0.99252075789E+02  0.25861466133E+02  0.12375088905E+03  0.00000000000E+00 0.  1.
          2    1    6    6  503    0  0.41202201220E+01  0.25091979904E+01  0.12229650397E+00  0.48256859454E+01  0.00000000000E+00 0.  1.
         -2    1    6    6    0  503  0.97123479982E+02 -0.47167567442E+03  0.53780034252E+03  0.72190035367E+03  0.00000000000E+00 0. -1.
<mgrwt>
<rscale>  0 0.12530353E+04</rscale>
<asrwt>0</asrwt>
<pdfrwt beam="1">  1        2 0.62891686E-01 0.12530353E+04</pdfrwt>
<pdfrwt beam="2">  1       -1 0.14772250E+00 0.12530353E+04</pdfrwt>
<totfact> 0.31744169E+01</totfact>
</mgrwt>
</event>
<event>
12    6  0.1457317E-007  0.1873495E+04  0.7818608E-02  0.8668163E-01
         -1   -1    0    0    0  501 -0.00000000000E+00  0.00000000000E+00  0.94596509859E+03  0.94596509859E+03  0.00000000000E+00 0.  1.
          2   -1    0    0  501    0  0.00000000000E+00 -0.00000000000E+00 -0.92761924962E+03  0.92761924962E+03  0.00000000000E+00 0. -1.
         24    2    1    2    0    0  0.86213941945E+02 -0.38003618693E+02 -0.70586863166E+03  0.71649941327E+03  0.79017499564E+02 0.  0.
        254    2    1    2    0    0 -0.86213941945E+02  0.38003618693E+02  0.72421448063E+03  0.11570849349E+04  0.89748638647E+03 0.  0.
         23    2    4    4    0    0  0.23884406458E+03  0.35590040847E+03  0.32469962205E+03  0.54547106003E+03  0.91636482031E+02 0.  0.
         23    2    4    4    0    0 -0.32505800652E+03 -0.31789678977E+03  0.39951485858E+03  0.61161387491E+03  0.87967796427E+02 0.  0.
          4    1    3    3  502    0  0.95770663719E+02 -0.48446397453E+02 -0.58090441415E+03  0.59073599166E+03  0.00000000000E+00 0. -1.
         -3    1    3    3    0  502 -0.95567217740E+01  0.10442778760E+02 -0.12496421750E+03  0.12576342161E+03  0.00000000000E+00 0.  1.
         11    1    5    5    0    0  0.61764477745E+02  0.33014176634E+02  0.53352354078E+02  0.88041241789E+02  0.00000000000E+00 0.  1.
        -11    1    5    5    0    0  0.17707958683E+03  0.32288623183E+03  0.27134726797E+03  0.45742981824E+03  0.00000000000E+00 0. -1.
          4    1    6    6  503    0 -0.22590005399E+03 -0.22142552873E+03  0.22150493592E+03  0.38616646126E+03  0.00000000000E+00 0. -1.
         -4    1    6    6    0  503 -0.99157952537E+02 -0.96471261042E+02  0.17800992266E+03  0.22544741365E+03  0.00000000000E+00 0.  1.
<mgrwt>
<rscale>  0 0.18734945E+04</rscale>
<asrwt>0</asrwt>
<pdfrwt beam="1">  1        2 0.14271065E+00 0.18734945E+04</pdfrwt>
<pdfrwt beam="2">  1       -1 0.14553309E+00 0.18734945E+04</pdfrwt>
<totfact> 0.11384410E+01</totfact>
</mgrwt>
</event>
<event>
12    6  0.1457317E-007  0.3042356E+04  0.7818608E-02  0.8231738E-01
         -1   -1    0    0    0  501 -0.00000000000E+00  0.00000000000E+00  0.10752272205E+04  0.10752272205E+04  0.00000000000E+00 0.  1.
          2   -1    0    0  501    0  0.00000000000E+00 -0.00000000000E+00 -0.21520865967E+04  0.21520865967E+04  0.00000000000E+00 0. -1.
         24    2    1    2    0    0 -0.63121861309E+03 -0.30595075645E+03 -0.17593278930E+04  0.18956457365E+04  0.78710355642E+02 0.  0.
        254    2    1    2    0    0  0.63121861309E+03  0.30595075645E+03  0.68246851675E+03  0.13316680807E+04  0.90306909927E+03 0.  0.
         23    2    4    4    0    0  0.28332021199E+03  0.28664453124E+03  0.84206732554E+03  0.93767938048E+03  0.87919338171E+02 0.  0.
         23    2    4    4    0    0  0.34789840110E+03  0.19306225210E+02 -0.15959880879E+03  0.39398870027E+03  0.91374440366E+02 0.  0.
          4    1    3    3  502    0 -0.34175375841E+03 -0.20522416586E+03 -0.95159761998E+03  0.10317221622E+04  0.00000000000E+00 0. -1.
         -3    1    3    3    0  502 -0.28946485468E+03 -0.10072659058E+03 -0.80773027305E+03  0.86392357425E+03  0.00000000000E+00 0.  1.
         11    1    5    5    0    0  0.48161938369E+02  0.92559038381E+02  0.16650697282E+03  0.19649763329E+03  0.00000000000E+00 0.  1.
        -11    1    5    5    0    0  0.23515827362E+03  0.19408549285E+03  0.67556035273E+03  0.74118174719E+03  0.00000000000E+00 0. -1.
          4    1    6    6  503    0  0.33594256583E+03  0.35346153810E+02 -0.16044691397E+03  0.37396519935E+03  0.00000000000E+00 0. -1.
         -4    1    6    6    0  503  0.11955835270E+02 -0.16039928600E+02  0.84810517778E+00  0.20023500915E+02  0.00000000000E+00 0.  1.
<mgrwt>
<rscale>  0 0.30423557E+04</rscale>
<asrwt>0</asrwt>
<pdfrwt beam="1">  1        2 0.33109024E+00 0.30423557E+04</pdfrwt>
<pdfrwt beam="2">  1       -1 0.16541957E+00 0.30423557E+04</pdfrwt>
<totfact> 0.14179597E+00</totfact>
</mgrwt>
</event>
<event>
12    6  0.1457317E-007  0.1049285E+04  0.7818608E-02  0.9256082E-01
         -1   -1    0    0    0  501 -0.00000000000E+00  0.00000000000E+00  0.22711398101E+03  0.22711398101E+03  0.00000000000E+00 0.  1.
          2   -1    0    0  501    0  0.00000000000E+00 -0.00000000000E+00 -0.12119464574E+04  0.12119464574E+04  0.00000000000E+00 0. -1.
         24    2    1    2    0    0  0.10807049771E+03 -0.60147632768E+02 -0.14323306690E+03  0.20555991325E+03  0.80263293484E+02 0.  0.
        254    2    1    2    0    0 -0.10807049771E+03  0.60147632768E+02 -0.84159940947E+03  0.12335005251E+04  0.89327319970E+03 0.  0.
         23    2    4    4    0    0 -0.24833993041E+03 -0.26575210531E+03 -0.73104327483E+02  0.38217139486E+03  0.91726930817E+02 0.  0.
         23    2    4    4    0    0  0.14026943270E+03  0.32589973808E+03 -0.76849508198E+03  0.85132913028E+03  0.91051875349E+02 0.  0.
          4    1    3    3  502    0  0.19305356293E+02 -0.38948123114E+02 -0.89897172621E+02  0.99855669449E+02  0.00000000000E+00 0. -1.
         -3    1    3    3    0  502  0.88765141412E+02 -0.21199509654E+02 -0.53335894274E+02  0.10570424380E+03  0.00000000000E+00 0.  1.
         11    1    5    5    0    0 -0.20478904509E+03 -0.15731866602E+03 -0.48402300810E+02  0.26273655701E+03  0.00000000000E+00 0. -1.
        -11    1    5    5    0    0 -0.43550885316E+02 -0.10843343929E+03 -0.24702026672E+02  0.11943483784E+03  0.00000000000E+00 0.  1.
          4    1    6    6  503    0  0.11147194134E+03  0.14522499941E+03 -0.36799158212E+03  0.41101593481E+03  0.00000000000E+00 0. -1.
         -4    1    6    6    0  503  0.28797491368E+02  0.18067473867E+03 -0.40050349986E+03  0.44031319547E+03  0.00000000000E+00 0.  1.
<mgrwt>
<rscale>  0 0.10492854E+04</rscale>
<asrwt>0</asrwt>
<pdfrwt beam="1">  1        2 0.18645330E+00 0.10492854E+04</pdfrwt>
<pdfrwt beam="2">  1       -1 0.34940613E-01 0.10492854E+04</pdfrwt>
<totfact> 0.16440127E+02</totfact>
</mgrwt>
</event>
<event>
12    6  0.1457317E-007  0.1255334E+04  0.7818608E-02  0.9065755E-01
         -1   -1    0    0    0  501 -0.00000000000E+00  0.00000000000E+00  0.23636329339E+03  0.23636329339E+03  0.00000000000E+00 0.  1.
          2   -1    0    0  501    0  0.00000000000E+00 -0.00000000000E+00 -0.16667820959E+04  0.16667820959E+04  0.00000000000E+00 0. -1.
         24    2    1    2    0    0 -0.22797344869E+03 -0.17256849742E+03 -0.42689081264E+03  0.51930427955E+03  0.75428040131E+02 0.  0.
        254    2    1    2    0    0  0.22797344869E+03  0.17256849742E+03 -0.10035279898E+04  0.13838411097E+04  0.90895325013E+03 0.  0.
         23    2    4    4    0    0  0.24771414162E+03 -0.31485126096E+02  0.77598745215E+02  0.27972178509E+03  0.99343357458E+02 0.  0.
         23    2    4    4    0    0 -0.19740692933E+02  0.20405362351E+03 -0.10811267351E+04  0.11041193246E+04  0.90647060143E+02 0.  0.
          2    1    3    3  502    0 -0.37903366747E+02 -0.42524925265E+02 -0.41999875983E+02  0.70774459109E+02  0.00000000000E+00 0. -1.
         -1    1    3    3    0  502 -0.19007008194E+03 -0.13004357215E+03 -0.38489093665E+03  0.44852982044E+03  0.00000000000E+00 0.  1.
         11    1    5    5    0    0 -0.20162116810E+01 -0.17080945813E+02  0.12447299481E+02  0.21231087673E+02  0.00000000000E+00 0.  1.
        -11    1    5    5    0    0  0.24973035330E+03 -0.14404180283E+02  0.65151445734E+02  0.25849069742E+03  0.00000000000E+00 0. -1.
          3    1    6    6  503    0  0.99939961100E-01  0.18173065471E+03 -0.10202766275E+04  0.10363350990E+04  0.00000000000E+00 0. -1.
         -3    1    6    6    0  503 -0.19840632894E+02  0.22322968802E+02 -0.60850107589E+02  0.67784225623E+02  0.00000000000E+00 0.  1.
<mgrwt>
<rscale>  0 0.12553344E+04</rscale>
<asrwt>0</asrwt>
<pdfrwt beam="1">  1        2 0.25642803E+00 0.12553344E+04</pdfrwt>
<pdfrwt beam="2">  1       -1 0.36363582E-01 0.12553344E+04</pdfrwt>
<totfact> 0.83019522E+01</totfact>
</mgrwt>
</event>
<event>
12    6  0.1457317E-007  0.3781794E+04  0.7818608E-02  0.8050073E-01
          2   -1    0    0  501    0  0.00000000000E+00  0.00000000000E+00  0.28684937745E+04  0.28684937745E+04  0.00000000000E+00 0. -1.
         -1   -1    0    0    0  501 -0.00000000000E+00 -0.00000000000E+00 -0.12464698744E+04  0.12464698744E+04  0.00000000000E+00 0.  1.
         24    2    1    2    0    0 -0.64316644724E+03 -0.44586574967E+03 -0.97855979508E+03  0.12555142719E+04  0.79230478841E+02 0.  0.
        254    2    1    2    0    0  0.64316644724E+03  0.44586574967E+03  0.26005836952E+04  0.28594493770E+04  0.89496136138E+03 0.  0.
         23    2    4    4    0    0  0.25026431222E+02  0.28795088135E+03  0.18266259454E+04  0.18515470808E+04  0.90123336184E+02 0.  0.
         23    2    4    4    0    0  0.61814001601E+03  0.15791486832E+03  0.77395774974E+03  0.10079022961E+04  0.99107291114E+02 0.  0.
          2    1    3    3  502    0 -0.33619945472E+03 -0.26706280668E+03 -0.49084011201E+03  0.65213237278E+03  0.00000000000E+00 0. -1.
         -1    1    3    3    0  502 -0.30696699252E+03 -0.17880294299E+03 -0.48771968307E+03  0.60338189911E+03  0.00000000000E+00 0.  1.
         11    1    5    5    0    0 -0.29222697855E+02  0.59333646440E+02  0.32655222106E+03  0.33318283382E+03  0.00000000000E+00 0. -1.
        -11    1    5    5    0    0  0.54249129076E+02  0.22861723491E+03  0.15000737244E+04  0.15183642470E+04  0.00000000000E+00 0.  1.
          1    1    6    6  503    0  0.37917428255E+03  0.11061415510E+03  0.54898208711E+03  0.67630611400E+03  0.00000000000E+00 0. -1.
         -1    1    6    6    0  503  0.23896573346E+03  0.47300713215E+02  0.22497566263E+03  0.33159618215E+03  0.00000000000E+00 0.  1.
<mgrwt>
<rscale>  0 0.37817938E+04</rscale>
<asrwt>0</asrwt>
<pdfrwt beam="1">  1        2 0.44130673E+00 0.37817938E+04</pdfrwt>
<pdfrwt beam="2">  1       -1 0.19176460E+00 0.37817938E+04</pdfrwt>
<totfact> 0.32888051E-01</totfact>
</mgrwt>
</event>
<event>
12    6  0.1457317E-007  0.2143950E+04  0.7818608E-02  0.8542126E-01
         -1   -1    0    0    0  501 -0.00000000000E+00  0.00000000000E+00  0.54594007822E+03  0.54594007822E+03  0.00000000000E+00 0.  1.
          2   -1    0    0  501    0  0.00000000000E+00 -0.00000000000E+00 -0.21048650388E+04  0.21048650388E+04  0.00000000000E+00 0. -1.
         24    2    1    2    0    0 -0.74711799702E+03  0.46181654889E+03 -0.51055740992E+03  0.10188919918E+04  0.77538350391E+02 0.  0.
        254    2    1    2    0    0  0.74711799702E+03 -0.46181654889E+03 -0.10483675507E+04  0.16319131252E+04  0.89028428086E+03 0.  0.
         23    2    4    4    0    0  0.49201611297E+03  0.17142958649E+03 -0.27491294897E+03  0.59634895617E+03  0.92666010338E+02 0.  0.
         23    2    4    4    0    0  0.25510188405E+03 -0.63324613538E+03 -0.77345460170E+03  0.10355641691E+04  0.89908220746E+02 0.  0.
          4    1    3    3  502    0 -0.41203030819E+03  0.22250058220E+03 -0.30319085593E+03  0.55785318773E+03  0.00000000000E+00 0. -1.
         -3    1    3    3    0  502 -0.33508768883E+03  0.23931596669E+03 -0.20736655399E+03  0.46103880405E+03  0.00000000000E+00 0.  1.
         11    1    5    5    0    0  0.38490063769E+03  0.16536874230E+03 -0.24354105167E+03  0.48456946423E+03  0.00000000000E+00 0. -1.
        -11    1    5    5    0    0  0.10711547529E+03  0.60608441851E+01 -0.31371897304E+02  0.11177949194E+03  0.00000000000E+00 0.  1.
          4    1    6    6  503    0  0.25497675938E+03 -0.57396901991E+03 -0.72323346845E+03  0.95787276479E+03  0.00000000000E+00 0. -1.
         -4    1    6    6    0  503  0.12512467014E+00 -0.59277115467E+02 -0.50221133249E+02  0.77691404281E+02  0.00000000000E+00 0.  1.
<mgrwt>
<rscale>  0 0.21439498E+04</rscale>
<asrwt>0</asrwt>
<pdfrwt beam="1">  1        2 0.32382540E+00 0.21439498E+04</pdfrwt>
<pdfrwt beam="2">  1       -1 0.83990779E-01 0.21439498E+04</pdfrwt>
<totfact> 0.85741737E+00</totfact>
</mgrwt>
</event>
<event>
12    6  0.1457317E-007  0.1831651E+04  0.7818608E-02  0.8689646E-01
         -1   -1    0    0    0  501 -0.00000000000E+00  0.00000000000E+00  0.72935827581E+03  0.72935827581E+03  0.00000000000E+00 0.  1.
          2   -1    0    0  501    0  0.00000000000E+00 -0.00000000000E+00 -0.11499651540E+04  0.11499651540E+04  0.00000000000E+00 0. -1.
         24    2    1    2    0    0 -0.81768931623E+02  0.68356254548E+03 -0.23997348665E+03  0.73375826754E+03  0.82885518195E+02 0.  0.
        254    2    1    2    0    0  0.81768931623E+02 -0.68356254548E+03 -0.18063339158E+03  0.11455651623E+04  0.89763422795E+03 0.  0.
         23    2    4    4    0    0 -0.31223761659E+03 -0.10510756406E+03 -0.26764163850E+03  0.43435222831E+03  0.92140557556E+02 0.  0.
         23    2    4    4    0    0  0.39400654821E+03 -0.57845498142E+03  0.87008246928E+02  0.71121293400E+03  0.91662843548E+02 0.  0.
          2    1    3    3  502    0 -0.85701083295E+02  0.54737143494E+03 -0.16421160533E+03  0.57786297233E+03  0.00000000000E+00 0. -1.
         -1    1    3    3    0  502  0.39321516725E+01  0.13619111054E+03 -0.75761881323E+02  0.15589529521E+03  0.00000000000E+00 0.  1.
         11    1    5    5    0    0 -0.35380218258E+02  0.31679750149E+01 -0.66588441640E+02  0.75470633161E+02  0.00000000000E+00 0. -1.
        -11    1    5    5    0    0 -0.27685739833E+03 -0.10827553907E+03 -0.20105319687E+03  0.35888159515E+03  0.00000000000E+00 0.  1.
          1    1    6    6  503    0  0.19269386020E+03 -0.29965106269E+03  0.89443604449E+02  0.36731708578E+03  0.00000000000E+00 0. -1.
         -1    1    6    6    0  503  0.20131268801E+03 -0.27880391873E+03 -0.24353575213E+01  0.34389584822E+03  0.00000000000E+00 0.  1.
<mgrwt>
<rscale>  0 0.18316513E+04</rscale>
<asrwt>0</asrwt>
<pdfrwt beam="1">  1        2 0.17691771E+00 0.18316513E+04</pdfrwt>
<pdfrwt beam="2">  1       -1 0.11220897E+00 0.18316513E+04</pdfrwt>
<totfact> 0.15874186E+01</totfact>
</mgrwt>
</event>
<event>
12    6  0.1457317E-007  0.1329572E+04  0.7818608E-02  0.9006438E-01
         -1   -1    0    0    0  501 -0.00000000000E+00  0.00000000000E+00  0.76975769974E+03  0.76975769974E+03  0.00000000000E+00 0.  1.
          2   -1    0    0  501    0  0.00000000000E+00 -0.00000000000E+00 -0.57412898278E+03  0.57412898278E+03  0.00000000000E+00 0. -1.
         24    2    1    2    0    0 -0.30715889098E+03 -0.15335851981E+03  0.12109761648E+03  0.37264296272E+03  0.79578420700E+02 0.  0.
        254    2    1    2    0    0  0.30715889098E+03  0.15335851981E+03  0.74531100477E+02  0.97124371980E+03  0.90548001546E+03 0.  0.
         23    2    4    4    0    0  0.16727178526E+03  0.52133368540E+03  0.10928608867E+03  0.56565936050E+03  0.90875746275E+02 0.  0.
         23    2    4    4    0    0  0.13988710572E+03 -0.36797516559E+03 -0.34754988196E+02  0.40558435930E+03  0.91195605529E+02 0.  0.
          4    1    3    3  502    0 -0.12359549495E+03 -0.63327083230E+02  0.82628568313E+01  0.13912023809E+03  0.00000000000E+00 0. -1.
         -3    1    3    3    0  502 -0.18356339603E+03 -0.90031436585E+02  0.11283475965E+03  0.23352272463E+03  0.00000000000E+00 0.  1.
         11    1    5    5    0    0  0.97938123314E+02  0.42435188738E+03  0.93124087743E+02  0.44535210344E+03  0.00000000000E+00 0.  1.
        -11    1    5    5    0    0  0.69333661943E+02  0.96981798023E+02  0.16162000929E+02  0.12030725706E+03  0.00000000000E+00 0. -1.
          2    1    6    6  503    0  0.95989094054E+02 -0.14745967439E+03  0.10383708152E+02  0.17625573223E+03  0.00000000000E+00 0.  1.
         -2    1    6    6    0  503  0.43898011668E+02 -0.22051549120E+03 -0.45138696348E+02  0.22932862707E+03  0.00000000000E+00 0. -1.
<mgrwt>
<rscale>  0 0.13295717E+04</rscale>
<asrwt>0</asrwt>
<pdfrwt beam="1">  1        2 0.88327536E-01 0.13295717E+04</pdfrwt>
<pdfrwt beam="2">  1       -1 0.11842426E+00 0.13295717E+04</pdfrwt>
<totfact> 0.37406737E+01</totfact>
</mgrwt>
</event>
<event>
12    6  0.1457317E-007  0.1433707E+04  0.7818608E-02  0.8929775E-01
          2   -1    0    0  501    0  0.00000000000E+00  0.00000000000E+00  0.78187544357E+03  0.78187544357E+03  0.00000000000E+00 0. -1.
         -1   -1    0    0    0  501 -0.00000000000E+00 -0.00000000000E+00 -0.65723886784E+03  0.65723886784E+03  0.00000000000E+00 0.  1.
         24    2    1    2    0    0 -0.88097757778E+02  0.30540335849E+03 -0.24730142067E+03  0.41044335296E+03  0.79204337150E+02 0.  0.
        254    2    1    2    0    0  0.88097757778E+02 -0.30540335849E+03  0.37193799641E+03  0.10286709584E+04  0.90487216847E+03 0.  0.
         23    2    4    4    0    0  0.57764238494E+02  0.14540087242E+03  0.51763179634E+03  0.54702008232E+03  0.82523771913E+02 0.  0.
         23    2    4    4    0    0  0.30333519285E+02 -0.45080423091E+03 -0.14569379993E+03  0.48165087612E+03  0.81340679436E+02 0.  0.
          2    1    3    3  502    0 -0.74610494651E+02  0.28464421578E+03 -0.24921639612E+03  0.38561362474E+03  0.00000000000E+00 0. -1.
         -1    1    3    3    0  502 -0.13487263128E+02  0.20759142705E+02  0.19149754500E+01  0.24829728220E+02  0.00000000000E+00 0.  1.
         11    1    5    5    0    0  0.75110509287E+02  0.13812847251E+03  0.47702168020E+03  0.50226561390E+03  0.00000000000E+00 0. -1.
        -11    1    5    5    0    0 -0.17346270794E+02  0.72723999103E+01  0.40610116140E+02  0.44754468423E+02  0.00000000000E+00 0.  1.
          4    1    6    6  503    0  0.25294066310E+02 -0.45124109401E+03 -0.14867941394E+03  0.47577713569E+03  0.00000000000E+00 0. -1.
         -4    1    6    6    0  503  0.50394529750E+01  0.43686310181E+00  0.29856140076E+01  0.58737404317E+01  0.00000000000E+00 0.  1.
<mgrwt>
<rscale>  0 0.14337070E+04</rscale>
<asrwt>0</asrwt>
<pdfrwt beam="1">  1        2 0.12028853E+00 0.14337070E+04</pdfrwt>
<pdfrwt beam="2">  1       -1 0.10111367E+00 0.14337070E+04</pdfrwt>
<totfact> 0.36592598E+01</totfact>
</mgrwt>
</event>
<event>
12    6  0.1457317E-007  0.1528704E+04  0.7818608E-02  0.8865586E-01
          2   -1    0    0  501    0  0.00000000000E+00  0.00000000000E+00  0.22699605729E+04  0.22699605729E+04  0.00000000000E+00 0. -1.
         -1   -1    0    0    0  501 -0.00000000000E+00 -0.00000000000E+00 -0.25737628102E+03  0.25737628102E+03  0.00000000000E+00 0.  1.
         24    2    1    2    0    0 -0.27959158578E+03  0.39804433643E+03  0.80740909883E+03  0.94581862622E+03  0.77798921714E+02 0.  0.
        254    2    1    2    0    0  0.27959158578E+03 -0.39804433643E+03  0.12051751931E+04  0.15815182277E+04  0.90118916439E+03 0.  0.
         23    2    4    4    0    0  0.30818731707E+03 -0.55403213473E+03  0.12414730122E+04  0.13966753863E+04  0.86694094109E+02 0.  0.
         23    2    4    4    0    0 -0.28595731283E+02  0.15598779830E+03 -0.36297819191E+02  0.18484284137E+03  0.87746425911E+02 0.  0.
          2    1    3    3  502    0 -0.11883367355E+03  0.14843080258E+03  0.38641946825E+03  0.43066593848E+03  0.00000000000E+00 0. -1.
         -1    1    3    3    0  502 -0.16075791224E+03  0.24961353385E+03  0.42098963059E+03  0.51515268774E+03  0.00000000000E+00 0.  1.
         11    1    5    5    0    0  0.14192074371E+03 -0.20024269909E+03  0.40902260810E+03  0.47700957010E+03  0.00000000000E+00 0.  1.
        -11    1    5    5    0    0  0.16626657336E+03 -0.35378943564E+03  0.83245040414E+03  0.91966581623E+03  0.00000000000E+00 0. -1.
          1    1    6    6  503    0  0.11809741990E+02  0.12564010348E+03 -0.69037311490E+01  0.12638262187E+03  0.00000000000E+00 0. -1.
         -1    1    6    6    0  503 -0.40405473272E+02  0.30347694825E+02 -0.29394088042E+02  0.58460219494E+02  0.00000000000E+00 0.  1.
<mgrwt>
<rscale>  0 0.15287040E+04</rscale>
<asrwt>0</asrwt>
<pdfrwt beam="1">  1        2 0.34922469E+00 0.15287040E+04</pdfrwt>
<pdfrwt beam="2">  1       -1 0.39596352E-01 0.15287040E+04</pdfrwt>
<totfact> 0.32166846E+01</totfact>
</mgrwt>
</event>
<event>
12    6  0.1457317E-007  0.1666851E+04  0.7818608E-02  0.8780500E-01
         -1   -1    0    0    0  501 -0.00000000000E+00  0.00000000000E+00  0.72288095253E+03  0.72288095253E+03  0.00000000000E+00 0.  1.
          2   -1    0    0  501    0  0.00000000000E+00 -0.00000000000E+00 -0.96087424146E+03  0.96087424146E+03  0.00000000000E+00 0. -1.
         24    2    1    2    0    0 -0.37553159348E+03 -0.21967507457E+03  0.30623200492E+03  0.53871687425E+03  0.84597362100E+02 0.  0.
        254    2    1    2    0    0  0.37553159348E+03  0.21967507457E+03 -0.54422529385E+03  0.11450383197E+04  0.90865310605E+03 0.  0.
         23    2    4    4    0    0 -0.18276398081E+03  0.29791438646E+03 -0.75430662465E+01  0.36133572640E+03  0.91383559664E+02 0.  0.
         23    2    4    4    0    0  0.55829557429E+03 -0.78239311900E+02 -0.53668222760E+03  0.78370259335E+03  0.91359746064E+02 0.  0.
          2    1    3    3  502    0  0.26104754347E+01 -0.32248044596E+01 -0.23815047224E+01  0.47838802808E+01  0.00000000000E+00 0. -1.
         -1    1    3    3    0  502 -0.37814206891E+03 -0.21645027011E+03  0.30861350964E+03  0.53393299397E+03  0.00000000000E+00 0.  1.
         11    1    5    5    0    0 -0.10476495450E+03  0.86406044564E+02 -0.48813692757E+01  0.13588792439E+03  0.00000000000E+00 0.  1.
        -11    1    5    5    0    0 -0.77999026311E+02  0.21150834190E+03 -0.26616969708E+01  0.22544780201E+03  0.00000000000E+00 0. -1.
          1    1    6    6  503    0  0.39830996349E+03 -0.27982412730E+02 -0.41932474772E+03  0.57902252676E+03  0.00000000000E+00 0. -1.
         -1    1    6    6    0  503  0.15998561080E+03 -0.50256899169E+02 -0.11735747988E+03  0.20468006659E+03  0.00000000000E+00 0.  1.
<mgrwt>
<rscale>  0 0.16668505E+04</rscale>
<asrwt>0</asrwt>
<pdfrwt beam="1">  1        2 0.14782681E+00 0.16668505E+04</pdfrwt>
<pdfrwt beam="2">  1       -1 0.11121245E+00 0.16668505E+04</pdfrwt>
<totfact> 0.21622101E+01</totfact>
</mgrwt>
</event>
<event>
12    6  0.1457317E-007  0.1337810E+04  0.7818608E-02  0.9000107E-01
         -1   -1    0    0    0  501 -0.00000000000E+00  0.00000000000E+00  0.19820454782E+03  0.19820454782E+03  0.00000000000E+00 0.  1.
          2   -1    0    0  501    0  0.00000000000E+00 -0.00000000000E+00 -0.22574357422E+04  0.22574357422E+04  0.00000000000E+00 0. -1.
         24    2    1    2    0    0 -0.23403226695E+03  0.24888841568E+03 -0.34110720283E+03  0.48923157494E+03  0.79226666376E+02 0.  0.
        254    2    1    2    0    0  0.23403226695E+03 -0.24888841568E+03 -0.17181239915E+04  0.19664087151E+04  0.89336254620E+03 0.  0.
         23    2    4    4    0    0  0.29532391200E+03  0.24577855214E+03 -0.10880383364E+04  0.11578099808E+04  0.95253454603E+02 0.  0.
         23    2    4    4    0    0 -0.61291645044E+02 -0.49466696782E+03 -0.63008565515E+03  0.80859873422E+03  0.91498116653E+02 0.  0.
          4    1    3    3  502    0 -0.71300090865E+02  0.77261485947E+02 -0.15953075376E+03  0.19105784874E+03  0.00000000000E+00 0. -1.
         -3    1    3    3    0  502 -0.16273217609E+03  0.17162692973E+03 -0.18157644906E+03  0.29817372620E+03  0.00000000000E+00 0.  1.
         11    1    5    5    0    0  0.26857305974E+03  0.18172230362E+03 -0.84619423129E+03  0.90620039789E+03  0.00000000000E+00 0. -1.
        -11    1    5    5    0    0  0.26750852259E+02  0.64056248518E+02 -0.24184410509E+03  0.25160958296E+03  0.00000000000E+00 0.  1.
          4    1    6    6  503    0 -0.41888000068E+02 -0.38756763779E+03 -0.42696696183E+03  0.57815574451E+03  0.00000000000E+00 0. -1.
         -4    1    6    6    0  503 -0.19403644977E+02 -0.10709933002E+03 -0.20311869332E+03  0.23044298971E+03  0.00000000000E+00 0.  1.
<mgrwt>
<rscale>  0 0.13378102E+04</rscale>
<asrwt>0</asrwt>
<pdfrwt beam="1">  1        2 0.34729783E+00 0.13378102E+04</pdfrwt>
<pdfrwt beam="2">  1       -1 0.30493005E-01 0.13378102E+04</pdfrwt>
<totfact> 0.53033735E+01</totfact>
</mgrwt>
</event>
<event>
12    6  0.1457317E-007  0.1536258E+04  0.7818608E-02  0.8860693E-01
         -1   -1    0    0    0  501 -0.00000000000E+00  0.00000000000E+00  0.33584766660E+03  0.33584766660E+03  0.00000000000E+00 0.  1.
          2   -1    0    0  501    0  0.00000000000E+00 -0.00000000000E+00 -0.17568146680E+04  0.17568146680E+04  0.00000000000E+00 0. -1.
         24    2    1    2    0    0 -0.30351591351E+03  0.21916713539E+03 -0.92048790128E+03  0.99704871450E+03  0.81559914727E+02 0.  0.
        254    2    1    2    0    0  0.30351591351E+03 -0.21916713539E+03 -0.50047910011E+03  0.10956136201E+04  0.89985206112E+03 0.  0.
         23    2    4    4    0    0  0.49952062206E+03 -0.39504589220E+03 -0.17576503643E+03  0.66786071396E+03  0.97787915506E+02 0.  0.
         23    2    4    4    0    0 -0.19600470855E+03  0.17587875681E+03 -0.32471406368E+03  0.42775290613E+03  0.90455197106E+02 0.  0.
          2    1    3    3  502    0 -0.12064749349E+03  0.87813716694E+02 -0.47512629301E+03  0.49800809314E+03  0.00000000000E+00 0. -1.
         -1    1    3    3    0  502 -0.18286842001E+03  0.13135341870E+03 -0.44536160827E+03  0.49904062136E+03  0.00000000000E+00 0.  1.
         11    1    5    5    0    0  0.29361000145E+03 -0.16999398636E+03 -0.90767425968E+02  0.35120295267E+03  0.00000000000E+00 0. -1.
        -11    1    5    5    0    0  0.20591062061E+03 -0.22505190584E+03 -0.84997610461E+02  0.31665776129E+03  0.00000000000E+00 0.  1.
          4    1    6    6  503    0 -0.96208898190E+02  0.32949481953E+02 -0.93151302037E+02  0.13790933806E+03  0.00000000000E+00 0. -1.
         -4    1    6    6    0  503 -0.99795810362E+02  0.14292927485E+03 -0.23156276164E+03  0.28984356807E+03  0.00000000000E+00 0.  1.
<mgrwt>
<rscale>  0 0.15362579E+04</rscale>
<asrwt>0</asrwt>
<pdfrwt beam="1">  1        2 0.27027918E+00 0.15362579E+04</pdfrwt>
<pdfrwt beam="2">  1       -1 0.51668871E-01 0.15362579E+04</pdfrwt>
<totfact> 0.37730627E+01</totfact>
</mgrwt>
</event>
<event>
12    6  0.1457317E-007  0.1290200E+04  0.7818608E-02  0.9037373E-01
         -1   -1    0    0    0  501 -0.00000000000E+00  0.00000000000E+00  0.16318426325E+03  0.16318426325E+03  0.00000000000E+00 0.  1.
          2   -1    0    0  501    0  0.00000000000E+00 -0.00000000000E+00 -0.25502084504E+04  0.25502084504E+04  0.00000000000E+00 0. -1.
         24    2    1    2    0    0 -0.21557218082E+03  0.20945362917E+03 -0.62589216747E+03  0.69940777979E+03  0.84190552981E+02 0.  0.
        254    2    1    2    0    0  0.21557218082E+03 -0.20945362917E+03 -0.17611320196E+04  0.20139849338E+04  0.92962741740E+03 0.  0.
         23    2    4    4    0    0  0.56453382348E+02  0.33455020998E+03 -0.37628617849E+03  0.51454928331E+03  0.89771094793E+02 0.  0.
         23    2    4    4    0    0  0.15911879847E+03 -0.54400383914E+03 -0.13848458411E+04  0.14994356505E+04  0.96178465680E+02 0.  0.
          2    1    3    3  502    0 -0.97920390469E+02  0.14385004071E+03 -0.40311613183E+03  0.43907158052E+03  0.00000000000E+00 0. -1.
         -1    1    3    3    0  502 -0.11765179035E+03  0.65603588454E+02 -0.22277603564E+03  0.26033619927E+03  0.00000000000E+00 0.  1.
         11    1    5    5    0    0  0.39124137450E+02  0.15560582076E+03 -0.24111592529E+03  0.28962175163E+03  0.00000000000E+00 0. -1.
        -11    1    5    5    0    0  0.17329244898E+02  0.17894438921E+03 -0.13517025319E+03  0.22492753168E+03  0.00000000000E+00 0.  1.
          4    1    6    6  503    0  0.60910379874E+02 -0.26798295430E+03 -0.55334500074E+03  0.61783139125E+03  0.00000000000E+00 0. -1.
         -4    1    6    6    0  503  0.98208418600E+02 -0.27602088485E+03 -0.83150084041E+03  0.88160425927E+03  0.00000000000E+00 0.  1.
<mgrwt>
<rscale>  0 0.12901998E+04</rscale>
<asrwt>0</asrwt>
<pdfrwt beam="1">  1        2 0.39233976E+00 0.12901998E+04</pdfrwt>
<pdfrwt beam="2">  1       -1 0.25105271E-01 0.12901998E+04</pdfrwt>
<totfact> 0.50838258E+01</totfact>
</mgrwt>
</event>
<event>
12    6  0.1457317E-007  0.1159842E+04  0.7818608E-02  0.9148751E-01
         -1   -1    0    0    0  501 -0.00000000000E+00  0.00000000000E+00  0.42111869172E+03  0.42111869172E+03  0.00000000000E+00 0.  1.
          2   -1    0    0  501    0  0.00000000000E+00 -0.00000000000E+00 -0.79860765451E+03  0.79860765451E+03  0.00000000000E+00 0. -1.
         24    2    1    2    0    0  0.18048614540E+02 -0.40640170051E+02 -0.30231154642E+03  0.31581766848E+03  0.79819500883E+02 0.  0.
        254    2    1    2    0    0 -0.18048614540E+02  0.40640170051E+02 -0.75177416381E+02  0.90390867774E+03  0.89967876370E+03 0.  0.
         23    2    4    4    0    0 -0.16412086672E+02 -0.36039850570E+03 -0.25802919161E+03  0.45507708788E+03  0.10178237909E+03 0.  0.
         23    2    4    4    0    0 -0.16365278680E+01  0.40103867575E+03  0.18285177523E+03  0.44883158986E+03  0.84736808308E+02 0.  0.
          4    1    3    3  502    0 -0.16205773849E+02  0.23830275617E+01 -0.19060754405E+03  0.19131006711E+03  0.00000000000E+00 0. -1.
         -3    1    3    3    0  502  0.34254388388E+02 -0.43023197613E+02 -0.11170400236E+03  0.12450760138E+03  0.00000000000E+00 0.  1.
         11    1    5    5    0    0  0.38427054591E+02 -0.23259503673E+03 -0.16527551425E+03  0.28791159276E+03  0.00000000000E+00 0. -1.
        -11    1    5    5    0    0 -0.54839141262E+02 -0.12780346897E+03 -0.92753677356E+02  0.16716549512E+03  0.00000000000E+00 0.  1.
          3    1    6    6  503    0 -0.14498367391E+02  0.31957880204E+03  0.17829329438E+03  0.36623668875E+03  0.00000000000E+00 0. -1.
         -3    1    6    6    0  503  0.12861839523E+02  0.81459873716E+02  0.45584808482E+01  0.82594901110E+02  0.00000000000E+00 0.  1.
<mgrwt>
<rscale>  0 0.11598424E+04</rscale>
<asrwt>0</asrwt>
<pdfrwt beam="1">  1        2 0.12286272E+00 0.11598424E+04</pdfrwt>
<pdfrwt beam="2">  1       -1 0.64787492E-01 0.11598424E+04</pdfrwt>
<totfact> 0.94208025E+01</totfact>
</mgrwt>
</event>
<event>
12    6  0.1457317E-007  0.2554192E+04  0.7818608E-02  0.8383930E-01
          2   -1    0    0  501    0  0.00000000000E+00  0.00000000000E+00  0.72136953430E+03  0.72136953430E+03  0.00000000000E+00 0. -1.
         -1   -1    0    0    0  501 -0.00000000000E+00 -0.00000000000E+00 -0.22609415506E+04  0.22609415506E+04  0.00000000000E+00 0.  1.
         24    2    1    2    0    0  0.75368443556E+02  0.77818193815E+03  0.25856846179E+03  0.82733929798E+03  0.79907029687E+02 0.  0.
        254    2    1    2    0    0 -0.75368443556E+02 -0.77818193815E+03 -0.17981404781E+04  0.21549717869E+04  0.89406190630E+03 0.  0.
         23    2    4    4    0    0  0.80472779511E+02 -0.53883940111E+03 -0.17694240615E+04  0.18539884974E+04  0.97918694314E+02 0.  0.
         23    2    4    4    0    0 -0.15584122307E+03 -0.23934253704E+03 -0.28716416541E+02  0.30098328945E+03  0.90526079713E+02 0.  0.
          4    1    3    3  502    0  0.61662405611E+02  0.73736943020E+03  0.22709013368E+03  0.77400636798E+03  0.00000000000E+00 0. -1.
         -3    1    3    3    0  502  0.13706037945E+02  0.40812507954E+02  0.31478328107E+02  0.53332929997E+02  0.00000000000E+00 0.  1.
         11    1    5    5    0    0  0.10277194510E+03 -0.44952141383E+03 -0.14490815351E+04  0.15206803969E+04  0.00000000000E+00 0.  1.
        -11    1    5    5    0    0 -0.22299165594E+02 -0.89317987279E+02 -0.32034252641E+03  0.33330810051E+03  0.00000000000E+00 0. -1.
          3    1    6    6  503    0 -0.24826068563E+02 -0.11480454930E+03  0.28175759044E+01  0.11749194421E+03  0.00000000000E+00 0. -1.
         -3    1    6    6    0  503 -0.13101515450E+03 -0.12453798774E+03 -0.31533992445E+02  0.18349134525E+03  0.00000000000E+00 0.  1.
<mgrwt>
<rscale>  0 0.25541921E+04</rscale>
<asrwt>0</asrwt>
<pdfrwt beam="1">  1        2 0.11097993E+00 0.25541921E+04</pdfrwt>
<pdfrwt beam="2">  1       -1 0.34783716E+00 0.25541921E+04</pdfrwt>
<totfact> 0.64146716E-01</totfact>
</mgrwt>
</event>
<event>
12    6  0.1457317E-007  0.1845356E+04  0.7818608E-02  0.8682545E-01
          2   -1    0    0  501    0  0.00000000000E+00  0.00000000000E+00  0.31498275141E+03  0.31498275141E+03  0.00000000000E+00 0. -1.
         -1   -1    0    0    0  501 -0.00000000000E+00 -0.00000000000E+00 -0.27027978970E+04  0.27027978970E+04  0.00000000000E+00 0.  1.
         24    2    1    2    0    0 -0.10335806578E+03 -0.32716065627E+03 -0.19286603067E+04  0.19605374649E+04  0.79117557891E+02 0.  0.
        254    2    1    2    0    0  0.10335806578E+03  0.32716065627E+03 -0.45915483891E+03  0.10572431835E+04  0.88838223653E+03 0.  0.
         23    2    4    4    0    0 -0.35225562974E+03  0.45862491589E+02 -0.34235316745E+03  0.50161688724E+03  0.90699578191E+02 0.  0.
         23    2    4    4    0    0  0.45561369552E+03  0.28129816468E+03 -0.11680167147E+03  0.55562629626E+03  0.91462853908E+02 0.  0.
          2    1    3    3  502    0 -0.50856346606E+02 -0.97091964918E+02 -0.79980777495E+03  0.80728290860E+03  0.00000000000E+00 0. -1.
         -1    1    3    3    0  502 -0.52501719178E+02 -0.23006869135E+03 -0.11288525317E+04  0.11532545563E+04  0.00000000000E+00 0.  1.
         11    1    5    5    0    0 -0.27444650305E+03  0.67879858196E+02 -0.23771315034E+03  0.36937257617E+03  0.00000000000E+00 0. -1.
        -11    1    5    5    0    0 -0.77809126687E+02 -0.22017366607E+02 -0.10464001711E+03  0.13224431106E+03  0.00000000000E+00 0.  1.
          2    1    6    6  503    0  0.28669145954E+03  0.22126451572E+03 -0.56768225018E+02  0.36656869787E+03  0.00000000000E+00 0. -1.
         -2    1    6    6    0  503  0.16892223598E+03  0.60033648958E+02 -0.60033446450E+02  0.18905759839E+03  0.00000000000E+00 0.  1.
<mgrwt>
<rscale>  0 0.18453560E+04</rscale>
<asrwt>0</asrwt>
<pdfrwt beam="1">  1        2 0.48458885E-01 0.18453560E+04</pdfrwt>
<pdfrwt beam="2">  1       -1 0.41581506E+00 0.18453560E+04</pdfrwt>
<totfact> 0.62505147E-01</totfact>
</mgrwt>
</event>
<event>
12    6  0.1457317E-007  0.2134526E+04  0.7818608E-02  0.8546185E-01
          2   -1    0    0  501    0  0.00000000000E+00  0.00000000000E+00  0.22316697161E+04  0.22316697161E+04  0.00000000000E+00 0. -1.
         -1   -1    0    0    0  501 -0.00000000000E+00 -0.00000000000E+00 -0.51040260745E+03  0.51040260745E+03  0.00000000000E+00 0.  1.
         24    2    1    2    0    0 -0.27199066110E+03  0.43248469612E+03  0.16398726196E+04  0.17194933648E+04  0.80332378626E+02 0.  0.
        254    2    1    2    0    0  0.27199066110E+03 -0.43248469612E+03  0.81394489052E+02  0.10225789587E+04  0.88205483496E+03 0.  0.
         23    2    4    4    0    0  0.49972985162E+03 -0.43226781697E+03 -0.15136749332E+03  0.68401071768E+03  0.91504937988E+02 0.  0.
         23    2    4    4    0    0 -0.22773919052E+03 -0.21687915075E+00  0.23276198237E+03  0.33856824105E+03  0.92655962963E+02 0.  0.
          2    1    3    3  502    0 -0.25661788471E+03  0.40780601205E+03  0.15935653429E+04  0.16648150000E+04  0.00000000000E+00 0. -1.
         -1    1    3    3    0  502 -0.15372776393E+02  0.24678684068E+02  0.46307276673E+02  0.54678364773E+02  0.00000000000E+00 0.  1.
         11    1    5    5    0    0  0.35347130084E+02 -0.69281920448E+01 -0.18174081005E+02  0.40344970821E+02  0.00000000000E+00 0. -1.
        -11    1    5    5    0    0  0.46438272154E+03 -0.42533962493E+03 -0.13319341232E+03  0.64366574686E+03  0.00000000000E+00 0.  1.
          4    1    6    6  503    0 -0.18412953472E+03  0.23483760866E+02  0.21895884733E+03  0.28705077844E+03  0.00000000000E+00 0.  1.
         -4    1    6    6    0  503 -0.43609655803E+02 -0.23700640017E+02  0.13803135045E+02  0.51517462608E+02  0.00000000000E+00 0. -1.
<mgrwt>
<rscale>  0 0.21345257E+04</rscale>
<asrwt>0</asrwt>
<pdfrwt beam="1">  1        2 0.34333380E+00 0.21345257E+04</pdfrwt>
<pdfrwt beam="2">  1       -1 0.78523479E-01 0.21345257E+04</pdfrwt>
<totfact> 0.84123774E+00</totfact>
</mgrwt>
</event>
<event>
12    6  0.1457317E-007  0.1706035E+04  0.7818608E-02  0.8757930E-01
         -1   -1    0    0    0  501 -0.00000000000E+00  0.00000000000E+00  0.12386532472E+04  0.12386532472E+04  0.00000000000E+00 0.  1.
          2   -1    0    0  501    0  0.00000000000E+00 -0.00000000000E+00 -0.58744344687E+03  0.58744344687E+03  0.00000000000E+00 0. -1.
         24    2    1    2    0    0 -0.40088171014E+03 -0.44830752080E+03  0.36062563271E+03  0.70545187651E+03  0.76978726753E+02 0.  0.
        254    2    1    2    0    0  0.40088171014E+03  0.44830752080E+03  0.29058416766E+03  0.11206448176E+04  0.89984435877E+03 0.  0.
         23    2    4    4    0    0  0.23849011191E+03  0.70622555187E+03  0.28235005076E+03  0.80289672133E+03  0.96382209884E+02 0.  0.
         23    2    4    4    0    0  0.16239159823E+03 -0.25791803107E+03  0.82341168978E+01  0.31774809627E+03  0.89461221072E+02 0.  0.
          2    1    3    3  502    0 -0.30638470676E+03 -0.32140794743E+03  0.22886457865E+03  0.49955345317E+03  0.00000000000E+00 0. -1.
         -1    1    3    3    0  502 -0.94497003378E+02 -0.12689957337E+03  0.13176105406E+03  0.20589842334E+03  0.00000000000E+00 0.  1.
         11    1    5    5    0    0 -0.14432657778E+01  0.23781564861E+02 -0.53052353198E+01  0.24408837849E+02  0.00000000000E+00 0. -1.
        -11    1    5    5    0    0  0.23993337768E+03  0.68244398700E+03  0.28765528608E+03  0.77848788349E+03  0.00000000000E+00 0.  1.
          4    1    6    6  503    0  0.65513209118E+02 -0.80751219439E+02  0.43590857982E+02  0.11275150957E+03  0.00000000000E+00 0. -1.
         -4    1    6    6    0  503  0.96878389116E+02 -0.17716681163E+03 -0.35356741084E+02  0.20499658670E+03  0.00000000000E+00 0.  1.
<mgrwt>
<rscale>  0 0.17060349E+04</rscale>
<asrwt>0</asrwt>
<pdfrwt beam="1">  1        2 0.90375915E-01 0.17060349E+04</pdfrwt>
<pdfrwt beam="2">  1       -1 0.19056204E+00 0.17060349E+04</pdfrwt>
<totfact> 0.96792464E+00</totfact>
</mgrwt>
</event>
<event>
12    6  0.1457317E-007  0.1739615E+04  0.7818608E-02  0.8739088E-01
         -1   -1    0    0    0  501 -0.00000000000E+00  0.00000000000E+00  0.10844855436E+04  0.10844855436E+04  0.00000000000E+00 0.  1.
          2   -1    0    0  501    0  0.00000000000E+00 -0.00000000000E+00 -0.69762556733E+03  0.69762556733E+03  0.00000000000E+00 0. -1.
         24    2    1    2    0    0 -0.54880113103E+03 -0.29411299354E+03  0.20419202588E+03  0.65990199293E+03  0.78045643440E+02 0.  0.
        254    2    1    2    0    0  0.54880113103E+03  0.29411299354E+03  0.18266795034E+03  0.11222091179E+04  0.91558756541E+03 0.  0.
         23    2    4    4    0    0 -0.12288161927E+03  0.69161514394E+02  0.35023191706E+03  0.38841213684E+03  0.91205180199E+02 0.  0.
         23    2    4    4    0    0  0.67168275029E+03  0.22495147915E+03 -0.16756396672E+03  0.73379698110E+03  0.92840947452E+02 0.  0.
          2    1    3    3  502    0 -0.45171946761E+03 -0.21637300011E+03  0.14066186451E+03  0.52024370513E+03  0.00000000000E+00 0. -1.
         -1    1    3    3    0  502 -0.97081663414E+02 -0.77739993430E+02  0.63530161364E+02  0.13965828780E+03  0.00000000000E+00 0.  1.
         11    1    5    5    0    0 -0.67484687945E+02  0.81826164991E+01  0.24782836217E+03  0.25698255859E+03  0.00000000000E+00 0.  1.
        -11    1    5    5    0    0 -0.55396931320E+02  0.60978897895E+02  0.10240355489E+03  0.13142957826E+03  0.00000000000E+00 0. -1.
          2    1    6    6  503    0  0.62294649374E+03  0.23257305589E+03 -0.15958263085E+03  0.68382686146E+03  0.00000000000E+00 0.  1.
         -2    1    6    6    0  503  0.48736256554E+02 -0.76215767409E+01 -0.79813358683E+01  0.49970119643E+02  0.00000000000E+00 0. -1.
<mgrwt>
<rscale>  0 0.17396147E+04</rscale>
<asrwt>0</asrwt>
<pdfrwt beam="1">  1        2 0.10732701E+00 0.17396147E+04</pdfrwt>
<pdfrwt beam="2">  1       -1 0.16684393E+00 0.17396147E+04</pdfrwt>
<totfact> 0.11573310E+01</totfact>
</mgrwt>
</event>
<event>
12    6  0.1457317E-007  0.1247126E+04  0.7818608E-02  0.9072578E-01
         -1   -1    0    0    0  501 -0.00000000000E+00  0.00000000000E+00  0.52363351130E+03  0.52363351130E+03  0.00000000000E+00 0.  1.
          2   -1    0    0  501    0  0.00000000000E+00 -0.00000000000E+00 -0.74256317600E+03  0.74256317600E+03  0.00000000000E+00 0. -1.
         24    2    1    2    0    0  0.62880686911E+02  0.25118582742E+03 -0.18331967236E+03  0.32693615432E+03  0.78948375824E+02 0.  0.
        254    2    1    2    0    0 -0.62880686911E+02 -0.25118582742E+03 -0.35609992347E+02  0.93926053298E+03  0.90216072658E+03 0.  0.
         23    2    4    4    0    0 -0.41411770677E+02 -0.39006451282E+03 -0.38121762078E+03  0.55455222658E+03  0.91301909642E+02 0.  0.
         23    2    4    4    0    0 -0.21468916234E+02  0.13887868540E+03  0.34560762843E+03  0.38470830640E+03  0.93849051993E+02 0.  0.
          2    1    3    3  502    0  0.48141776409E+02  0.25131435745E+03 -0.17146227818E+03  0.30801923598E+03  0.00000000000E+00 0. -1.
         -1    1    3    3    0  502  0.14738910502E+02 -0.12853002903E+00 -0.11857394181E+02  0.18916918341E+02  0.00000000000E+00 0.  1.
         11    1    5    5    0    0  0.21714846559E+02 -0.50656145970E+02 -0.75082556216E+02  0.93139518646E+02  0.00000000000E+00 0. -1.
        -11    1    5    5    0    0 -0.63126617236E+02 -0.33940836685E+03 -0.30613506456E+03  0.46141270794E+03  0.00000000000E+00 0.  1.
          1    1    6    6  503    0 -0.51863356633E+01 -0.11210788186E+01  0.11023783895E+03  0.11036546575E+03  0.00000000000E+00 0. -1.
         -1    1    6    6    0  503 -0.16282580570E+02  0.13999976422E+03  0.23536978948E+03  0.27434284065E+03  0.00000000000E+00 0.  1.
<mgrwt>
<rscale>  0 0.12471262E+04</rscale>
<asrwt>0</asrwt>
<pdfrwt beam="1">  1        2 0.11424049E+00 0.12471262E+04</pdfrwt>
<pdfrwt beam="2">  1       -1 0.80559002E-01 0.12471262E+04</pdfrwt>
<totfact> 0.65613901E+01</totfact>
</mgrwt>
</event>
<event>
12    6  0.1457317E-007  0.1631258E+04  0.7818608E-02  0.8801572E-01
         -1   -1    0    0    0  501 -0.00000000000E+00  0.00000000000E+00  0.22494793382E+03  0.22494793382E+03  0.00000000000E+00 0.  1.
          2   -1    0    0  501    0  0.00000000000E+00 -0.00000000000E+00 -0.29573524056E+04  0.29573524056E+04  0.00000000000E+00 0. -1.
         24    2    1    2    0    0 -0.20134742751E+03 -0.21907286204E+03 -0.20457658960E+02  0.30748470287E+03  0.74797200769E+02 0.  0.
        254    2    1    2    0    0  0.20134742751E+03  0.21907286204E+03 -0.27119468128E+04  0.28748156365E+04  0.90629781153E+03 0.  0.
         23    2    4    4    0    0 -0.14101830459E+03  0.34367981105E+03 -0.22360742899E+04  0.22685729934E+04  0.91614528265E+02 0.  0.
         23    2    4    4    0    0  0.34236573210E+03 -0.12460694901E+03 -0.47587252287E+03  0.60624264309E+03  0.91292376563E+02 0.  0.
          4    1    3    3  502    0 -0.16961796320E+03 -0.17570815767E+03  0.12341435734E+02  0.24453204523E+03  0.00000000000E+00 0. -1.
         -3    1    3    3    0  502 -0.31729464309E+02 -0.43364704371E+02 -0.32799094695E+02  0.62952657635E+02  0.00000000000E+00 0.  1.
         11    1    5    5    0    0  0.53007294482E+01  0.76988684112E+01 -0.16615751431E+02  0.19064456539E+02  0.00000000000E+00 0. -1.
        -11    1    5    5    0    0 -0.14631903404E+03  0.33598094264E+03 -0.22194585385E+04  0.22495085369E+04  0.00000000000E+00 0.  1.
          4    1    6    6  503    0  0.27405842931E+03 -0.11473658336E+03 -0.43253807235E+03  0.52474916891E+03  0.00000000000E+00 0. -1.
         -4    1    6    6    0  503  0.68307302784E+02 -0.98703656474E+01 -0.43334450521E+02  0.81493474178E+02  0.00000000000E+00 0.  1.
<mgrwt>
<rscale>  0 0.16312576E+04</rscale>
<asrwt>0</asrwt>
<pdfrwt beam="1">  1        2 0.45497728E+00 0.16312576E+04</pdfrwt>
<pdfrwt beam="2">  1       -1 0.34607376E-01 0.16312576E+04</pdfrwt>
<totfact> 0.16052121E+01</totfact>
</mgrwt>
</event>
<event>
12    6  0.1457317E-007  0.2241020E+04  0.7818608E-02  0.8501546E-01
         -3   -1    0    0    0  501 -0.00000000000E+00  0.00000000000E+00  0.40379620096E+03  0.40379620096E+03  0.00000000000E+00 0.  1.
          2   -1    0    0  501    0  0.00000000000E+00 -0.00000000000E+00 -0.31093467203E+04  0.31093467203E+04  0.00000000000E+00 0. -1.
         24    2    1    2    0    0 -0.43214996451E+03 -0.18834795025E+03  0.13332305065E+03  0.49600018476E+03  0.77540990798E+02 0.  0.
        254    2    1    2    0    0  0.43214996451E+03  0.18834795025E+03 -0.28388735700E+04  0.30171427365E+04  0.90648695735E+03 0.  0.
         23    2    4    4    0    0  0.15460562061E+03  0.18523039985E+03 -0.12072714490E+03  0.28328889462E+03  0.86396500795E+02 0.  0.
         23    2    4    4    0    0  0.27754434390E+03  0.31175504050E+01 -0.27181464251E+04  0.27338538419E+04  0.92716010369E+02 0.  0.
          4    1    3    3  502    0 -0.11844796221E+03 -0.65291767325E+02  0.47640254835E+01  0.13533525250E+03  0.00000000000E+00 0. -1.
         -3    1    3    3    0  502 -0.31370200230E+03 -0.12305618293E+03  0.12855902517E+03  0.36066493225E+03  0.00000000000E+00 0.  1.
         11    1    5    5    0    0  0.87208109672E+02  0.51128450052E+02 -0.21455337044E+02  0.10334265472E+03  0.00000000000E+00 0.  1.
        -11    1    5    5    0    0  0.67397510936E+02  0.13410194980E+03 -0.99271807858E+02  0.17994623990E+03  0.00000000000E+00 0. -1.
          4    1    6    6  503    0  0.14019180831E+02  0.86491020909E+01 -0.48382043521E+02  0.51109358570E+02  0.00000000000E+00 0. -1.
         -4    1    6    6    0  503  0.26352516307E+03 -0.55315516859E+01 -0.26697643816E+04  0.26827444833E+04  0.00000000000E+00 0.  1.
<mgrwt>
<rscale>  0 0.22410198E+04</rscale>
<asrwt>0</asrwt>
<pdfrwt beam="1">  1        2 0.47836104E+00 0.22410198E+04</pdfrwt>
<pdfrwt beam="2">  1       -3 0.62122492E-01 0.22410198E+04</pdfrwt>
<totfact> 0.21991473E+00</totfact>
</mgrwt>
</event>
<event>
12    6  0.1457317E-007  0.1893524E+04  0.7818608E-02  0.8658087E-01
          2   -1    0    0  501    0  0.00000000000E+00  0.00000000000E+00  0.97630202433E+03  0.97630202433E+03  0.00000000000E+00 0. -1.
         -1   -1    0    0    0  501 -0.00000000000E+00 -0.00000000000E+00 -0.91811599776E+03  0.91811599776E+03  0.00000000000E+00 0.  1.
         24    2    1    2    0    0 -0.19527421503E+03  0.14373992146E+02  0.69606166310E+03  0.72739925050E+03  0.79178280324E+02 0.  0.
        254    2    1    2    0    0  0.19527421503E+03 -0.14373992146E+02 -0.63787563654E+03  0.11670187716E+04  0.95744913956E+03 0.  0.
         23    2    4    4    0    0 -0.34722790605E+03 -0.42787473863E+02 -0.46617744101E+03  0.58981784771E+03  0.90364264537E+02 0.  0.
         23    2    4    4    0    0  0.54250212109E+03  0.28413481717E+02 -0.17169819552E+03  0.57720092388E+03  0.92545982372E+02 0.  0.
          2    1    3    3  502    0 -0.50619542496E+02  0.33931024473E+02  0.27756388495E+03  0.28417488055E+03  0.00000000000E+00 0. -1.
         -1    1    3    3    0  502 -0.14465467254E+03 -0.19557032327E+02  0.41849777815E+03  0.44322436995E+03  0.00000000000E+00 0.  1.
         11    1    5    5    0    0 -0.45820459906E+02  0.16970340360E+02 -0.33948973333E+02  0.59498233488E+02  0.00000000000E+00 0. -1.
        -11    1    5    5    0    0 -0.30140744615E+03 -0.59757814224E+02 -0.43222846768E+03  0.53031961422E+03  0.00000000000E+00 0.  1.
          1    1    6    6  503    0  0.77823542761E+02 -0.27196100697E+02 -0.35784883610E+02  0.89870404450E+02  0.00000000000E+00 0. -1.
         -1    1    6    6    0  503  0.46467857833E+03  0.55609582415E+02 -0.13591331191E+03  0.48733051943E+03  0.00000000000E+00 0.  1.
<mgrwt>
<rscale>  0 0.18935242E+04</rscale>
<asrwt>0</asrwt>
<pdfrwt beam="1">  1        2 0.15020031E+00 0.18935242E+04</pdfrwt>
<pdfrwt beam="2">  1       -1 0.14124861E+00 0.18935242E+04</pdfrwt>
<totfact> 0.11424330E+01</totfact>
</mgrwt>
</event>
<event>
12    6  0.1457317E-007  0.2769719E+04  0.7818608E-02  0.8312731E-01
          2   -1    0    0  501    0  0.00000000000E+00  0.00000000000E+00  0.24458869101E+04  0.24458869101E+04  0.00000000000E+00 0. -1.
         -1   -1    0    0    0  501 -0.00000000000E+00 -0.00000000000E+00 -0.78410659830E+03  0.78410659830E+03  0.00000000000E+00 0.  1.
         24    2    1    2    0    0 -0.11851292839E+04 -0.23338870805E+03  0.10702912344E+04  0.16157877441E+04  0.79025306485E+02 0.  0.
        254    2    1    2    0    0  0.11851292839E+04  0.23338870805E+03  0.59148907747E+03  0.16142057643E+04  0.89263610280E+03 0.  0.
         23    2    4    4    0    0  0.39212133860E+03  0.13221857006E+03  0.68300822085E+03  0.80448666026E+03  0.97250513303E+02 0.  0.
         23    2    4    4    0    0  0.79300794534E+03  0.10117013800E+03 -0.91519143379E+02  0.80971910403E+03  0.90400639583E+02 0.  0.
          4    1    3    3  502    0 -0.71935717917E+03 -0.11084525222E+03  0.67611716890E+03  0.99342631697E+03  0.00000000000E+00 0. -1.
         -3    1    3    3    0  502 -0.46577210477E+03 -0.12254345584E+03  0.39417406545E+03  0.62236142716E+03  0.00000000000E+00 0.  1.
         11    1    5    5    0    0  0.14765176176E+03  0.55112979527E+02  0.17526462116E+03  0.23570356530E+03  0.00000000000E+00 0.  1.
        -11    1    5    5    0    0  0.24446957683E+03  0.77105590528E+02  0.50774359969E+03  0.56878309497E+03  0.00000000000E+00 0. -1.
          1    1    6    6  503    0  0.66595100223E+03  0.72230313440E+02 -0.45047873438E+02  0.67136969432E+03  0.00000000000E+00 0. -1.
         -1    1    6    6    0  503  0.12705694311E+03  0.28939824559E+02 -0.46471269941E+02  0.13834940971E+03  0.00000000000E+00 0.  1.
<mgrwt>
<rscale>  0 0.27697192E+04</rscale>
<asrwt>0</asrwt>
<pdfrwt beam="1">  1        2 0.37629029E+00 0.27697192E+04</pdfrwt>
<pdfrwt beam="2">  1       -1 0.12063179E+00 0.27697192E+04</pdfrwt>
<totfact> 0.22671299E+00</totfact>
</mgrwt>
</event>
<event>
12    6  0.3215081E-007  0.2338561E+04  0.7818608E-02  0.8462870E-01
         -1   -1    0    0    0  501 -0.00000000000E+00  0.00000000000E+00  0.12593379220E+04  0.12593379220E+04  0.00000000000E+00 0.  1.
          2   -1    0    0  501    0  0.00000000000E+00 -0.00000000000E+00 -0.10856631545E+04  0.10856631545E+04  0.00000000000E+00 0. -1.
         24    2    1    2    0    0  0.22258915178E+03  0.40207582103E+03  0.87299324089E+03  0.99018240720E+03  0.84457708567E+02 0.  0.
        254    2    1    2    0    0 -0.22258915178E+03 -0.40207582103E+03 -0.69931847338E+03  0.13548186694E+04  0.10654935022E+04 0.  0.
         23    2    4    4    0    0  0.39061610914E+03 -0.31615800746E+03 -0.17956471556E+03  0.54105010672E+03  0.89190248992E+02 0.  0.
         23    2    4    4    0    0 -0.61320526091E+03 -0.85917813571E+02 -0.51975375782E+03  0.81376856264E+03  0.93127558083E+02 0.  0.
          4    1    3    3  502    0  0.23993075768E+02  0.93881286261E+01  0.68784191462E+02  0.73451137765E+02  0.00000000000E+00 0. -1.
         -3    1    3    3    0  502  0.19859607601E+03  0.39268769240E+03  0.80420904943E+03  0.91673126943E+03  0.00000000000E+00 0.  1.
         11    1    5    5    0    0  0.37411382752E+03 -0.31307414336E+03 -0.18732108954E+03  0.52255694979E+03  0.00000000000E+00 0.  1.
        -11    1    5    5    0    0  0.16502281615E+02 -0.30838640972E+01  0.77563739774E+01  0.18493156938E+02  0.00000000000E+00 0. -1.
          3    1    6    6  503    0 -0.95362340112E+02 -0.46637595223E+02 -0.74410186023E+02  0.12963763722E+03  0.00000000000E+00 0. -1.
         -3    1    6    6    0  503 -0.51784292080E+03 -0.39280218348E+02 -0.44534357180E+03  0.68413092542E+03  0.00000000000E+00 0.  1.
<mgrwt>
<rscale>  0 0.23385609E+04</rscale>
<asrwt>0</asrwt>
<pdfrwt beam="1">  1        2 0.16702510E+00 0.23385609E+04</pdfrwt>
<pdfrwt beam="2">  1       -1 0.19374430E+00 0.23385609E+04</pdfrwt>
<totfact> 0.38111877E+00</totfact>
</mgrwt>
</event>
<event>
12    6  0.1457317E-007  0.1473952E+04  0.7818608E-02  0.8901962E-01
          2   -1    0    0  501    0  0.00000000000E+00  0.00000000000E+00  0.10273993481E+04  0.10273993481E+04  0.00000000000E+00 0. -1.
         -1   -1    0    0    0  501 -0.00000000000E+00 -0.00000000000E+00 -0.52864887743E+03  0.52864887743E+03  0.00000000000E+00 0.  1.
         24    2    1    2    0    0 -0.38113210095E+03 -0.18287101937E+03 -0.19397514852E+02  0.43032818433E+03  0.78119104871E+02 0.  0.
        254    2    1    2    0    0  0.38113210095E+03  0.18287101937E+03  0.51814798552E+03  0.11257200412E+04  0.90557428638E+03 0.  0.
         23    2    4    4    0    0 -0.13597327351E+03  0.13010777877E+03 -0.16194590564E+03  0.26534856672E+03  0.93630231780E+02 0.  0.
         23    2    4    4    0    0  0.51710537446E+03  0.52763240598E+02  0.68009389116E+03  0.86037147448E+03  0.86772377247E+02 0.  0.
          4    1    3    3  502    0 -0.62653074385E+01  0.12759366380E+00  0.10371783063E+02  0.12117930572E+02  0.00000000000E+00 0. -1.
         -1    1    3    3    0  502 -0.37486679351E+03 -0.18299861303E+03 -0.29769297914E+02  0.41821025376E+03  0.00000000000E+00 0.  1.
         11    1    5    5    0    0 -0.50940499195E+02  0.70547876585E+02 -0.19652732214E+02  0.89208560309E+02  0.00000000000E+00 0. -1.
        -11    1    5    5    0    0 -0.85032774313E+02  0.59559902182E+02 -0.14229317342E+03  0.17614000641E+03  0.00000000000E+00 0.  1.
          2    1    6    6  503    0  0.28032277929E+01  0.37031568313E+01  0.28193975520E+02  0.28573969137E+02  0.00000000000E+00 0. -1.
         -2    1    6    6    0  503  0.51430214667E+03  0.49060083767E+02  0.65189991564E+03  0.83179750534E+03  0.00000000000E+00 0.  1.
<mgrwt>
<rscale>  0 0.14739518E+04</rscale>
<asrwt>0</asrwt>
<pdfrwt beam="1">  1        2 0.15806144E+00 0.14739518E+04</pdfrwt>
<pdfrwt beam="2">  1       -1 0.81330596E-01 0.14739518E+04</pdfrwt>
<totfact> 0.40241100E+01</totfact>
</mgrwt>
</event>
<event>
12    6  0.1457317E-007  0.1929387E+04  0.7818608E-02  0.8640365E-01
          2   -1    0    0  501    0  0.00000000000E+00  0.00000000000E+00  0.27930943440E+04  0.27930943440E+04  0.00000000000E+00 0. -1.
         -1   -1    0    0    0  501 -0.00000000000E+00 -0.00000000000E+00 -0.33319079084E+03  0.33319079084E+03  0.00000000000E+00 0.  1.
         24    2    1    2    0    0  0.26208040398E+03 -0.31369236319E+03 -0.54279056193E+02  0.41993737085E+03  0.79448993786E+02 0.  0.
        254    2    1    2    0    0 -0.26208040398E+03  0.31369236319E+03  0.25141826094E+04  0.27063477640E+04  0.91439323576E+03 0.  0.
         23    2    4    4    0    0 -0.24904740799E+03 -0.28339700199E+03  0.83351935152E+03  0.92042048581E+03  0.10040363126E+03 0.  0.
         23    2    4    4    0    0 -0.13032995996E+02  0.59708936518E+03  0.16806632579E+04  0.17859272782E+04  0.90673522778E+02 0.  0.
          4    1    3    3  502    0  0.10351214367E+03 -0.16898304507E+03 -0.53504010953E+02  0.20526254553E+03  0.00000000000E+00 0. -1.
         -3    1    3    3    0  502  0.15856826031E+03 -0.14470931813E+03 -0.77504524029E+00  0.21467482532E+03  0.00000000000E+00 0.  1.
         11    1    5    5    0    0 -0.72921703760E+02 -0.13921902146E+03  0.41927265752E+03  0.44776006092E+03  0.00000000000E+00 0.  1.
        -11    1    5    5    0    0 -0.17612570423E+03 -0.14417798053E+03  0.41424669401E+03  0.47266042489E+03  0.00000000000E+00 0. -1.
          2    1    6    6  503    0  0.35605629019E+02  0.34403448378E+03  0.99943058376E+03  0.10575863930E+04  0.00000000000E+00 0. -1.
         -2    1    6    6    0  503 -0.48638625014E+02  0.25305488140E+03  0.68123267409E+03  0.72834088523E+03  0.00000000000E+00 0.  1.
<mgrwt>
<rscale>  0 0.19293868E+04</rscale>
<asrwt>0</asrwt>
<pdfrwt beam="1">  1        2 0.42970681E+00 0.19293868E+04</pdfrwt>
<pdfrwt beam="2">  1       -1 0.51260123E-01 0.19293868E+04</pdfrwt>
<totfact> 0.95220264E+00</totfact>
</mgrwt>
</event>
<event>
12    6  0.1457317E-007  0.1456928E+04  0.7818608E-02  0.8913611E-01
         -1   -1    0    0    0  501 -0.00000000000E+00  0.00000000000E+00  0.59846693175E+03  0.59846693175E+03  0.00000000000E+00 0.  1.
          2   -1    0    0  501    0  0.00000000000E+00 -0.00000000000E+00 -0.88669868475E+03  0.88669868475E+03  0.00000000000E+00 0. -1.
         24    2    1    2    0    0 -0.30600623923E+03  0.99864167958E+02  0.21557820240E+03  0.39628549465E+03  0.83400008569E+02 0.  0.
        254    2    1    2    0    0  0.30600623923E+03 -0.99864167958E+02 -0.50380995540E+03  0.10888801218E+04  0.91006745800E+03 0.  0.
         23    2    4    4    0    0 -0.87768323282E+02 -0.50957413145E+02 -0.64394314614E+03  0.65841890078E+03  0.92481008426E+02 0.  0.
         23    2    4    4    0    0  0.39377456251E+03 -0.48906754813E+02  0.14013319074E+03  0.43046122107E+03  0.90605049239E+02 0.  0.
          2    1    3    3  502    0 -0.57851347961E+02 -0.20615691653E+01  0.70758093602E+02  0.91420655973E+02  0.00000000000E+00 0. -1.
         -1    1    3    3    0  502 -0.24815489127E+03  0.10192573712E+03  0.14482010880E+03  0.30486483868E+03  0.00000000000E+00 0.  1.
         11    1    5    5    0    0 -0.99131254773E+02 -0.29202823542E+02 -0.39594756365E+03  0.40921178348E+03  0.00000000000E+00 0. -1.
        -11    1    5    5    0    0  0.11362931491E+02 -0.21754589604E+02 -0.24799558249E+03  0.24920711731E+03  0.00000000000E+00 0.  1.
          1    1    6    6  503    0  0.49813956238E+02  0.65544226272E+01 -0.97589623896E+01  0.51182302010E+02  0.00000000000E+00 0. -1.
         -1    1    6    6    0  503  0.34396060627E+03 -0.55461177441E+02  0.14989215313E+03  0.37927891906E+03  0.00000000000E+00 0.  1.
<mgrwt>
<rscale>  0 0.14569281E+04</rscale>
<asrwt>0</asrwt>
<pdfrwt beam="1">  1        2 0.13641518E+00 0.14569281E+04</pdfrwt>
<pdfrwt beam="2">  1       -1 0.92071835E-01 0.14569281E+04</pdfrwt>
<totfact> 0.38051604E+01</totfact>
</mgrwt>
</event>
<event>
12    6  0.1457317E-007  0.1180821E+04  0.7818608E-02  0.9129811E-01
          2   -1    0    0  501    0  0.00000000000E+00  0.00000000000E+00  0.12787472347E+04  0.12787472347E+04  0.00000000000E+00 0. -1.
         -1   -1    0    0    0  501 -0.00000000000E+00 -0.00000000000E+00 -0.27259867908E+03  0.27259867908E+03  0.00000000000E+00 0.  1.
         24    2    1    2    0    0  0.10153952333E+03  0.93336465752E+02 -0.35249069228E+02  0.16283955710E+03  0.79071194752E+02 0.  0.
        254    2    1    2    0    0 -0.10153952333E+03 -0.93336465752E+02  0.10413976248E+04  0.13885063566E+04  0.90797517523E+03 0.  0.
         23    2    4    4    0    0  0.15460191103E+03 -0.42768766833E+03  0.69397271754E+03  0.83468839315E+03  0.91038939051E+02 0.  0.
         23    2    4    4    0    0 -0.25614143436E+03  0.33435120258E+03  0.34742490727E+03  0.55381796350E+03  0.92796063685E+02 0.  0.
          4    1    3    3  502    0  0.21420954506E+02  0.77208682113E+01 -0.39403936669E+02  0.45509771730E+02  0.00000000000E+00 0. -1.
         -3    1    3    3    0  502  0.80118568823E+02  0.85615597540E+02  0.41548674412E+01  0.11732978537E+03  0.00000000000E+00 0.  1.
         11    1    5    5    0    0  0.32221488653E+00 -0.11584493629E+03  0.16921118220E+03  0.20506725059E+03  0.00000000000E+00 0. -1.
        -11    1    5    5    0    0  0.15427969614E+03 -0.31184273205E+03  0.52476153535E+03  0.62962114255E+03  0.00000000000E+00 0.  1.
          1    1    6    6  503    0 -0.18368007089E+02  0.83001004178E+00  0.29513907291E+01  0.18622118793E+02  0.00000000000E+00 0. -1.
         -1    1    6    6    0  503 -0.23777342727E+03  0.33352119254E+03  0.34447351654E+03  0.53519584470E+03  0.00000000000E+00 0.  1.
<mgrwt>
<rscale>  0 0.11808214E+04</rscale>
<asrwt>0</asrwt>
<pdfrwt beam="1">  1        2 0.19673034E+00 0.11808214E+04</pdfrwt>
<pdfrwt beam="2">  1       -1 0.41938259E-01 0.11808214E+04</pdfrwt>
<totfact> 0.10688517E+02</totfact>
</mgrwt>
</event>
<event>
12    6  0.1457317E-007  0.2429309E+04  0.7818608E-02  0.8428612E-01
          2   -1    0    0  501    0  0.00000000000E+00  0.00000000000E+00  0.27253605572E+04  0.27253605572E+04  0.00000000000E+00 0. -1.
         -1   -1    0    0    0  501 -0.00000000000E+00 -0.00000000000E+00 -0.54135426096E+03  0.54135426096E+03  0.00000000000E+00 0.  1.
         24    2    1    2    0    0  0.17089039907E+03 -0.89444143268E+03  0.17460282601E+04  0.19709690828E+04  0.82918245807E+02 0.  0.
        254    2    1    2    0    0 -0.17089039907E+03  0.89444143268E+03  0.43797803615E+03  0.12957457353E+04  0.81111235068E+03 0.  0.
         23    2    4    4    0    0 -0.44539610771E+03  0.41394327199E+03  0.39818115763E+03  0.73254261497E+03  0.91343983174E+02 0.  0.
         23    2    4    4    0    0  0.27450570864E+03  0.48049816069E+03  0.39796878515E+02  0.56320312034E+03  0.96861223992E+02 0.  0.
          4    1    3    3  502    0  0.90363164815E+01 -0.80857122664E+02  0.11191370445E+03  0.13836259084E+03  0.00000000000E+00 0. -1.
         -3    1    3    3    0  502  0.16185408259E+03 -0.81358431002E+03  0.16341145556E+04  0.18326064920E+04  0.00000000000E+00 0.  1.
         11    1    5    5    0    0 -0.36179671592E+03  0.30093045528E+03  0.27140346403E+03  0.54324565608E+03  0.00000000000E+00 0. -1.
        -11    1    5    5    0    0 -0.83599391796E+02  0.11301281672E+03  0.12677769360E+03  0.18929695889E+03  0.00000000000E+00 0.  1.
          1    1    6    6  503    0  0.27912254680E+03  0.44075974577E+03  0.39437145247E+02  0.52319579322E+03  0.00000000000E+00 0. -1.
         -1    1    6    6    0  503 -0.46168381503E+01  0.39738414919E+02  0.35973326773E+00  0.40007327114E+02  0.00000000000E+00 0.  1.
<mgrwt>
<rscale>  0 0.24293090E+04</rscale>
<asrwt>0</asrwt>
<pdfrwt beam="1">  1        2 0.41928623E+00 0.24293090E+04</pdfrwt>
<pdfrwt beam="2">  1       -1 0.83285273E-01 0.24293090E+04</pdfrwt>
<totfact> 0.37441350E+00</totfact>
</mgrwt>
</event>
<event>
12    6  0.1457317E-007  0.1464183E+04  0.7818608E-02  0.8908626E-01
         -1   -1    0    0    0  501 -0.00000000000E+00  0.00000000000E+00  0.30554305901E+03  0.30554305901E+03  0.00000000000E+00 0.  1.
          2   -1    0    0  501    0  0.00000000000E+00 -0.00000000000E+00 -0.17541164681E+04  0.17541164681E+04  0.00000000000E+00 0. -1.
         24    2    1    2    0    0  0.24006584369E+03 -0.32846032680E+03 -0.18294441075E+03  0.45286729372E+03  0.78117428984E+02 0.  0.
        254    2    1    2    0    0 -0.24006584369E+03  0.32846032680E+03 -0.12656289983E+04  0.16067922334E+04  0.90246702113E+03 0.  0.
         23    2    4    4    0    0 -0.37948604637E+02  0.50355437044E+03 -0.12156719006E+04  0.13195330097E+04  0.91115822245E+02 0.  0.
         23    2    4    4    0    0 -0.20211723905E+03 -0.17509404364E+03 -0.49957097711E+02  0.28725922370E+03  0.92265093879E+02 0.  0.
          2    1    3    3  502    0  0.63813403902E+02 -0.10352685009E+03 -0.18059502465E+02  0.12294756946E+03  0.00000000000E+00 0. -1.
         -1    1    3    3    0  502  0.17625243979E+03 -0.22493347670E+03 -0.16488490829E+03  0.32991972426E+03  0.00000000000E+00 0.  1.
         11    1    5    5    0    0  0.52203698461E+01  0.35157652796E+03 -0.90717462112E+03  0.97293324564E+03  0.00000000000E+00 0.  1.
        -11    1    5    5    0    0 -0.43168974483E+02  0.15197784248E+03 -0.30849727950E+03  0.34659976402E+03  0.00000000000E+00 0. -1.
          3    1    6    6  503    0 -0.41134899013E+02 -0.67873441185E+02 -0.50067720310E+02  0.93838481190E+02  0.00000000000E+00 0. -1.
         -3    1    6    6    0  503 -0.16098234004E+03 -0.10722060246E+03  0.11062259875E+00  0.19342074251E+03  0.00000000000E+00 0.  1.
<mgrwt>
<rscale>  0 0.14641832E+04</rscale>
<asrwt>0</asrwt>
<pdfrwt beam="1">  1        2 0.26986407E+00 0.14641832E+04</pdfrwt>
<pdfrwt beam="2">  1       -1 0.47006624E-01 0.14641832E+04</pdfrwt>
<totfact> 0.45567457E+01</totfact>
</mgrwt>
</event>
<event>
12    6  0.1457317E-007  0.2838553E+04  0.7818608E-02  0.8291398E-01
         -1   -1    0    0    0  501 -0.00000000000E+00  0.00000000000E+00  0.11208739487E+04  0.11208739487E+04  0.00000000000E+00 0.  1.
          2   -1    0    0  501    0  0.00000000000E+00 -0.00000000000E+00 -0.17971208928E+04  0.17971208928E+04  0.00000000000E+00 0. -1.
         24    2    1    2    0    0  0.17672841037E+03  0.33141819473E+03  0.95135987134E+03  0.10258816454E+04  0.79224963361E+02 0.  0.
        254    2    1    2    0    0 -0.17672841037E+03 -0.33141819473E+03 -0.16276068155E+04  0.18921131961E+04  0.88877300263E+03 0.  0.
         23    2    4    4    0    0 -0.44289236339E+03  0.55966484191E+02 -0.54849314896E+03  0.71192838434E+03  0.81923116820E+02 0.  0.
         23    2    4    4    0    0  0.26616395302E+03 -0.38738467893E+03 -0.10791136665E+04  0.11801848117E+04  0.86253958058E+02 0.  0.
          2    1    3    3  502    0  0.37249933265E+02  0.12869763622E+03  0.26920943236E+03  0.30070643087E+03  0.00000000000E+00 0. -1.
         -1    1    3    3    0  502  0.13947847711E+03  0.20272055852E+03  0.68215043898E+03  0.72517521457E+03  0.00000000000E+00 0.  1.
         11    1    5    5    0    0 -0.88813836089E+02  0.41605041156E+02 -0.14312000809E+03  0.17349989523E+03  0.00000000000E+00 0. -1.
        -11    1    5    5    0    0 -0.35407852730E+03  0.14361443035E+02 -0.40537314087E+03  0.53842848911E+03  0.00000000000E+00 0.  1.
          1    1    6    6  503    0  0.14732476292E+03 -0.15482461368E+03 -0.55176285833E+03  0.59170727442E+03  0.00000000000E+00 0. -1.
         -1    1    6    6    0  503  0.11883919010E+03 -0.23256006525E+03 -0.52735080817E+03  0.58847753731E+03  0.00000000000E+00 0.  1.
<mgrwt>
<rscale>  0 0.28385531E+04</rscale>
<asrwt>0</asrwt>
<pdfrwt beam="1">  1        2 0.27648013E+00 0.28385531E+04</pdfrwt>
<pdfrwt beam="2">  1       -1 0.17244215E+00 0.28385531E+04</pdfrwt>
<totfact> 0.20187975E+00</totfact>
</mgrwt>
</event>
<event>
12    6  0.1457317E-007  0.1222866E+04  0.7818608E-02  0.9093074E-01
          2   -1    0    0  501    0  0.00000000000E+00  0.00000000000E+00  0.37324513465E+03  0.37324513465E+03  0.00000000000E+00 0. -1.
         -1   -1    0    0    0  501 -0.00000000000E+00 -0.00000000000E+00 -0.10016221990E+04  0.10016221990E+04  0.00000000000E+00 0.  1.
         24    2    1    2    0    0 -0.59695984746E+02 -0.19129381391E+03  0.53155478038E+02  0.22072488457E+03  0.75743224065E+02 0.  0.
        254    2    1    2    0    0  0.59695984746E+02  0.19129381391E+03 -0.68153254236E+03  0.11541424490E+04  0.90961599181E+03 0.  0.
         23    2    4    4    0    0  0.18729251803E+03  0.44306111578E+03 -0.70284047583E+03  0.85653309131E+03  0.91008584257E+02 0.  0.
         23    2    4    4    0    0 -0.12759653328E+03 -0.25176730187E+03  0.21307933470E+02  0.29760935774E+03  0.91921989672E+02 0.  0.
          4    1    3    3  502    0 -0.31957337781E+02 -0.62182361812E+02  0.54522670769E+02  0.88660245806E+02  0.00000000000E+00 0. -1.
         -3    1    3    3    0  502 -0.27738646965E+02 -0.12911145209E+03 -0.13671927309E+01  0.13206463877E+03  0.00000000000E+00 0.  1.
         11    1    5    5    0    0  0.46945563588E+02  0.61113635014E+02 -0.16495940188E+03  0.18207242129E+03  0.00000000000E+00 0.  1.
        -11    1    5    5    0    0  0.14034695444E+03  0.38194748076E+03 -0.53788107395E+03  0.67446067001E+03  0.00000000000E+00 0. -1.
          1    1    6    6  503    0 -0.91187365786E+01 -0.11345295227E+03 -0.30975139791E+01  0.11386096051E+03  0.00000000000E+00 0.  1.
         -1    1    6    6    0  503 -0.11847779671E+03 -0.13831434961E+03  0.24405447449E+02  0.18374839723E+03  0.00000000000E+00 0. -1.
<mgrwt>
<rscale>  0 0.12228665E+04</rscale>
<asrwt>0</asrwt>
<pdfrwt beam="1">  1        2 0.57422329E-01 0.12228665E+04</pdfrwt>
<pdfrwt beam="2">  1       -1 0.15409572E+00 0.12228665E+04</pdfrwt>
<totfact> 0.31447099E+01</totfact>
</mgrwt>
</event>
<event>
12    6  0.1457317E-007  0.1314587E+04  0.7818608E-02  0.9018077E-01
          2   -1    0    0  501    0  0.00000000000E+00  0.00000000000E+00  0.70516440498E+03  0.70516440498E+03  0.00000000000E+00 0. -1.
         -1   -1    0    0    0  501 -0.00000000000E+00 -0.00000000000E+00 -0.61267212005E+03  0.61267212005E+03  0.00000000000E+00 0.  1.
         24    2    1    2    0    0  0.19895653383E+03 -0.12803423469E+03 -0.22266577073E+03  0.33389868684E+03  0.77018309586E+02 0.  0.
        254    2    1    2    0    0 -0.19895653383E+03  0.12803423469E+03  0.31515805566E+03  0.98393783819E+03  0.90157229425E+03 0.  0.
         23    2    4    4    0    0  0.33675028340E+03  0.13040881655E+03  0.36393839050E+02  0.37330427933E+03  0.87317584958E+02 0.  0.
         23    2    4    4    0    0 -0.53570681722E+03 -0.23745818565E+01  0.27876421661E+03  0.61063355886E+03  0.90423570422E+02 0.  0.
          2    1    3    3  502    0  0.45459513587E+02 -0.35342696722E+02 -0.14947497330E+02  0.59490345970E+02  0.00000000000E+00 0. -1.
         -1    1    3    3    0  502  0.15349702024E+03 -0.92691537968E+02 -0.20771827340E+03  0.27440834087E+03  0.00000000000E+00 0.  1.
         11    1    5    5    0    0  0.44186968799E+02  0.45621499554E+02 -0.12705788889E+02  0.64770722587E+02  0.00000000000E+00 0.  1.
        -11    1    5    5    0    0  0.29256331460E+03  0.84787316992E+02  0.49099627939E+02  0.30853355674E+03  0.00000000000E+00 0. -1.
          3    1    6    6  503    0 -0.32109415576E+03 -0.21611933954E+02  0.21072524467E+03  0.38467344761E+03  0.00000000000E+00 0.  1.
         -3    1    6    6    0  503 -0.21461266146E+03  0.19237352098E+02  0.68038971940E+02  0.22596011125E+03  0.00000000000E+00 0. -1.
<mgrwt>
<rscale>  0 0.13145867E+04</rscale>
<asrwt>0</asrwt>
<pdfrwt beam="1">  1        2 0.10848683E+00 0.13145867E+04</pdfrwt>
<pdfrwt beam="2">  1       -1 0.94257249E-01 0.13145867E+04</pdfrwt>
<totfact> 0.49501118E+01</totfact>
</mgrwt>
</event>
<event>
12    6  0.1457317E-007  0.1595782E+04  0.7818608E-02  0.8823143E-01
         -1   -1    0    0    0  501 -0.00000000000E+00  0.00000000000E+00  0.35010820832E+03  0.35010820832E+03  0.00000000000E+00 0.  1.
          2   -1    0    0  501    0  0.00000000000E+00 -0.00000000000E+00 -0.18183810618E+04  0.18183810618E+04  0.00000000000E+00 0. -1.
         24    2    1    2    0    0 -0.34481297461E+03  0.41924154233E+03 -0.56877811947E+03  0.79019489569E+03  0.78993453650E+02 0.  0.
        254    2    1    2    0    0  0.34481297461E+03 -0.41924154233E+03 -0.89949473400E+03  0.13782943744E+04  0.89215758012E+03 0.  0.
         23    2    4    4    0    0 -0.20045444789E+02  0.25390968984E+03 -0.26912349908E+03  0.38246093019E+03  0.94746793701E+02 0.  0.
         23    2    4    4    0    0  0.36485841940E+03 -0.67315123217E+03 -0.63037123492E+03  0.99583344422E+03  0.89789237882E+02 0.  0.
          2    1    3    3  502    0 -0.26691216815E+03  0.29176835840E+03 -0.45210598033E+03  0.60064190490E+03  0.00000000000E+00 0. -1.
         -1    1    3    3    0  502 -0.77900806457E+02  0.12747318393E+03 -0.11667213914E+03  0.18955299080E+03  0.00000000000E+00 0.  1.
         11    1    5    5    0    0  0.28411692041E+02  0.17815428221E+03 -0.19752859349E+03  0.26751395807E+03  0.00000000000E+00 0.  1.
        -11    1    5    5    0    0 -0.48457136830E+02  0.75755407622E+02 -0.71594905593E+02  0.11494697212E+03  0.00000000000E+00 0. -1.
          4    1    6    6  503    0  0.17766202783E+03 -0.25549806056E+03 -0.29096368648E+03  0.42603159734E+03  0.00000000000E+00 0. -1.
         -4    1    6    6    0  503  0.18719639157E+03 -0.41765317161E+03 -0.33940754843E+03  0.56980184688E+03  0.00000000000E+00 0.  1.
<mgrwt>
<rscale>  0 0.15957821E+04</rscale>
<asrwt>0</asrwt>
<pdfrwt beam="1">  1        2 0.27975093E+00 0.15957821E+04</pdfrwt>
<pdfrwt beam="2">  1       -1 0.53862802E-01 0.15957821E+04</pdfrwt>
<totfact> 0.32043009E+01</totfact>
</mgrwt>
</event>
<event>
12    6  0.1457317E-007  0.2055185E+04  0.7818608E-02  0.8581246E-01
          2   -1    0    0  501    0  0.00000000000E+00  0.00000000000E+00  0.26879682565E+04  0.26879682565E+04  0.00000000000E+00 0. -1.
         -1   -1    0    0    0  501 -0.00000000000E+00 -0.00000000000E+00 -0.39284165712E+03  0.39284165712E+03  0.00000000000E+00 0.  1.
         24    2    1    2    0    0  0.25355274207E+03 -0.78239402859E+03  0.11422621680E+04  0.14099422096E+04  0.82126518085E+02 0.  0.
        254    2    1    2    0    0 -0.25355274207E+03  0.78239402859E+03  0.11528644314E+04  0.16708677040E+04  0.88672040586E+03 0.  0.
         23    2    4    4    0    0  0.14847921835E+03 -0.12349808163E+03  0.23813030584E+03  0.31904037036E+03  0.88220524339E+02 0.  0.
         23    2    4    4    0    0 -0.40203196042E+03  0.90589211022E+03  0.91473412554E+03  0.13518273336E+04  0.91806355971E+02 0.  0.
          4    1    3    3  502    0  0.31404145965E+01 -0.46965973646E+01  0.10867101441E+00  0.56508441876E+01  0.00000000000E+00 0. -1.
         -1    1    3    3    0  502  0.25041232748E+03 -0.77769743123E+03  0.11421534970E+04  0.14042913654E+04  0.00000000000E+00 0.  1.
         11    1    5    5    0    0  0.78242144823E+02 -0.14517333758E+02  0.11774817489E+03  0.14211691981E+03  0.00000000000E+00 0. -1.
        -11    1    5    5    0    0  0.70237073526E+02 -0.10898074787E+03  0.12038213095E+03  0.17692345055E+03  0.00000000000E+00 0.  1.
          4    1    6    6  503    0 -0.85597962589E+02  0.11573282564E+03  0.12235520477E+03  0.18892298501E+03  0.00000000000E+00 0. -1.
         -4    1    6    6    0  503 -0.31643399783E+03  0.79015928458E+03  0.79237892077E+03  0.11629043486E+04  0.00000000000E+00 0.  1.
<mgrwt>
<rscale>  0 0.20551846E+04</rscale>
<asrwt>0</asrwt>
<pdfrwt beam="1">  1        2 0.41353357E+00 0.20551846E+04</pdfrwt>
<pdfrwt beam="2">  1       -1 0.60437180E-01 0.20551846E+04</pdfrwt>
<totfact> 0.78971865E+00</totfact>
</mgrwt>
</event>
<event>
12    6  0.1457317E-007  0.2670569E+04  0.7818608E-02  0.8344618E-01
          2   -1    0    0  501    0  0.00000000000E+00  0.00000000000E+00  0.11786414927E+04  0.11786414927E+04  0.00000000000E+00 0. -1.
         -1   -1    0    0    0  501 -0.00000000000E+00 -0.00000000000E+00 -0.15127459036E+04  0.15127459036E+04  0.00000000000E+00 0.  1.
         24    2    1    2    0    0 -0.40266669747E+03  0.99583146811E+03 -0.63821090772E+03  0.12519804783E+04  0.79505805374E+02 0.  0.
        254    2    1    2    0    0  0.40266669747E+03 -0.99583146811E+03  0.30410649684E+03  0.14394069181E+04  0.90862023542E+03 0.  0.
         23    2    4    4    0    0  0.45615056558E+03 -0.10295614387E+03 -0.36090126695E+02  0.47822541515E+03  0.93400987225E+02 0.  0.
         23    2    4    4    0    0 -0.53483868112E+02 -0.89287532424E+03  0.34019662354E+03  0.96118150290E+03  0.89717724436E+02 0.  0.
          2    1    3    3  502    0 -0.11771865631E+03  0.33943136368E+03 -0.25194886613E+03  0.43880469897E+03  0.00000000000E+00 0. -1.
         -1    1    3    3    0  502 -0.28494804116E+03  0.65640010443E+03 -0.38626204159E+03  0.81317577929E+03  0.00000000000E+00 0.  1.
         11    1    5    5    0    0  0.60991491356E+02 -0.13176268060E+02 -0.37871164972E+02  0.72991788539E+02  0.00000000000E+00 0. -1.
        -11    1    5    5    0    0  0.39515907422E+03 -0.89779875807E+02  0.17810382763E+01  0.40523362661E+03  0.00000000000E+00 0.  1.
          1    1    6    6  503    0  0.10736079406E+01 -0.12013185585E+02  0.17980096336E+02  0.21650707290E+02  0.00000000000E+00 0. -1.
         -1    1    6    6    0  503 -0.54557476052E+02 -0.88086213865E+03  0.32221652720E+03  0.93953079561E+03  0.00000000000E+00 0.  1.
<mgrwt>
<rscale>  0 0.26705693E+04</rscale>
<asrwt>0</asrwt>
<pdfrwt beam="1">  1        2 0.18132946E+00 0.26705693E+04</pdfrwt>
<pdfrwt beam="2">  1       -1 0.23273014E+00 0.26705693E+04</pdfrwt>
<totfact> 0.17700562E+00</totfact>
</mgrwt>
</event>
<event>
12    6  0.1457317E-007  0.2505521E+04  0.7818608E-02  0.8401021E-01
         -1   -1    0    0    0  501 -0.00000000000E+00  0.00000000000E+00  0.35015214229E+03  0.35015214229E+03  0.00000000000E+00 0.  1.
          2   -1    0    0  501    0  0.00000000000E+00 -0.00000000000E+00 -0.44820756395E+04  0.44820756395E+04  0.00000000000E+00 0. -1.
         24    2    1    2    0    0 -0.38557819990E+03 -0.23342761060E+03  0.11038416619E+03  0.47107857279E+03  0.81063925168E+02 0.  0.
        254    2    1    2    0    0  0.38557819990E+03  0.23342761060E+03 -0.42423076634E+04  0.43611492090E+04  0.90514590792E+03 0.  0.
         23    2    4    4    0    0 -0.25045944430E+03 -0.38467921728E+02 -0.18395227366E+04  0.18591374978E+04  0.91316061880E+02 0.  0.
         23    2    4    4    0    0  0.63603764420E+03  0.27189553233E+03 -0.24027849268E+04  0.25020117112E+04  0.90642887291E+02 0.  0.
          2    1    3    3  502    0 -0.83442836874E+01  0.57725224055E+01 -0.23032443145E+01  0.10404519189E+02  0.00000000000E+00 0. -1.
         -1    1    3    3    0  502 -0.37723391622E+03 -0.23920013301E+03  0.11268741051E+03  0.46067405360E+03  0.00000000000E+00 0.  1.
         11    1    5    5    0    0 -0.17998120324E+03  0.15101772096E+02 -0.12683062974E+04  0.12811019323E+04  0.00000000000E+00 0.  1.
        -11    1    5    5    0    0 -0.70478241057E+02 -0.53569693824E+02 -0.57121643918E+03  0.57803556547E+03  0.00000000000E+00 0. -1.
          1    1    6    6  503    0  0.44512576714E+03  0.23244044755E+03 -0.17735181188E+04  0.18432395471E+04  0.00000000000E+00 0. -1.
         -1    1    6    6    0  503  0.19091187706E+03  0.39455084781E+02 -0.62926680803E+03  0.65877216411E+03  0.00000000000E+00 0.  1.
<mgrwt>
<rscale>  0 0.25055206E+04</rscale>
<asrwt>0</asrwt>
<pdfrwt beam="1">  1        2 0.68955010E+00 0.25055206E+04</pdfrwt>
<pdfrwt beam="2">  1       -1 0.53869560E-01 0.25055206E+04</pdfrwt>
<totfact> 0.45449292E-01</totfact>
</mgrwt>
</event>
<event>
12    6  0.1457317E-007  0.3017676E+04  0.7818608E-02  0.8238701E-01
          2   -1    0    0  501    0  0.00000000000E+00  0.00000000000E+00  0.72117939253E+03  0.72117939253E+03  0.00000000000E+00 0. -1.
         -1   -1    0    0    0  501 -0.00000000000E+00 -0.00000000000E+00 -0.31567623460E+04  0.31567623460E+04  0.00000000000E+00 0.  1.
         24    2    1    2    0    0  0.35845468866E+03 -0.10966860796E+04 -0.20599938872E+04  0.23624929310E+04  0.81165958179E+02 0.  0.
        254    2    1    2    0    0 -0.35845468866E+03  0.10966860796E+04 -0.37558906622E+03  0.15154488075E+04  0.90791399398E+03 0.  0.
         23    2    4    4    0    0 -0.57211808001E+03  0.93919555659E+03 -0.77723886576E+02  0.11062225515E+04  0.90994175122E+02 0.  0.
         23    2    4    4    0    0  0.21366339135E+03  0.15749052300E+03 -0.29786517965E+03  0.40922625599E+03  0.91033805279E+02 0.  0.
          4    1    3    3  502    0  0.30767564670E+03 -0.86627278983E+03 -0.15909039331E+04  0.18374080043E+04  0.00000000000E+00 0. -1.
         -3    1    3    3    0  502  0.50779041959E+02 -0.23041328976E+03 -0.46908995409E+03  0.52508492669E+03  0.00000000000E+00 0.  1.
         11    1    5    5    0    0 -0.54650205070E+03  0.92370014298E+03 -0.71459155655E+02  0.10756360242E+04  0.00000000000E+00 0. -1.
        -11    1    5    5    0    0 -0.25616029315E+02  0.15495413611E+02 -0.62647309208E+01  0.30586527334E+02  0.00000000000E+00 0.  1.
          4    1    6    6  503    0  0.35812492642E+02  0.41752263014E+02 -0.12126439637E+03  0.13315720004E+03  0.00000000000E+00 0.  1.
         -4    1    6    6    0  503  0.17785089871E+03  0.11573825999E+03 -0.17660078328E+03  0.27606905595E+03  0.00000000000E+00 0. -1.
<mgrwt>
<rscale>  0 0.30176759E+04</rscale>
<asrwt>0</asrwt>
<pdfrwt beam="1">  1        2 0.11095067E+00 0.30176759E+04</pdfrwt>
<pdfrwt beam="2">  1       -1 0.48565575E+00 0.30176759E+04</pdfrwt>
<totfact> 0.71012596E-02</totfact>
</mgrwt>
</event>
<event>
12    6  0.1457317E-007  0.1395784E+04  0.7818608E-02  0.8956876E-01
          2   -1    0    0  501    0  0.00000000000E+00  0.00000000000E+00  0.41255653642E+03  0.41255653642E+03  0.00000000000E+00 0. -1.
         -1   -1    0    0    0  501 -0.00000000000E+00 -0.00000000000E+00 -0.11805736442E+04  0.11805736442E+04  0.00000000000E+00 0.  1.
         24    2    1    2    0    0  0.82088648603E+02 -0.33375683442E+03 -0.46405919291E+03  0.58354904272E+03  0.83942718447E+02 0.  0.
        254    2    1    2    0    0 -0.82088648603E+02  0.33375683442E+03 -0.30395791483E+03  0.10095811379E+04  0.89929499564E+03 0.  0.
         23    2    4    4    0    0  0.20507062529E+03 -0.13490438058E+03  0.13852295052E+03  0.29779585175E+03  0.96128082489E+02 0.  0.
         23    2    4    4    0    0 -0.28715927389E+03  0.46866121501E+03 -0.44248086534E+03  0.71178528611E+03  0.93515743575E+02 0.  0.
          4    1    3    3  502    0 -0.12972669353E+02 -0.12504946896E+02 -0.16064640387E+02  0.24139936160E+02  0.00000000000E+00 0. -1.
         -3    1    3    3    0  502  0.95061317957E+02 -0.32125188753E+03 -0.44799455252E+03  0.55940910656E+03  0.00000000000E+00 0.  1.
         11    1    5    5    0    0  0.16447137548E+03 -0.75985868068E+02  0.13539048586E+03  0.22617530625E+03  0.00000000000E+00 0. -1.
        -11    1    5    5    0    0  0.40599249811E+02 -0.58918512515E+02  0.31324646542E+01  0.71620545495E+02  0.00000000000E+00 0.  1.
          3    1    6    6  503    0 -0.14189346173E+03  0.25567467320E+03 -0.29216002673E+03  0.41335308662E+03  0.00000000000E+00 0. -1.
         -3    1    6    6    0  503 -0.14526581216E+03  0.21298654180E+03 -0.15032083861E+03  0.29843219949E+03  0.00000000000E+00 0.  1.
<mgrwt>
<rscale>  0 0.13957842E+04</rscale>
<asrwt>0</asrwt>
<pdfrwt beam="1">  1        2 0.63470238E-01 0.13957842E+04</pdfrwt>
<pdfrwt beam="2">  1       -1 0.18162671E+00 0.13957842E+04</pdfrwt>
<totfact> 0.17326322E+01</totfact>
</mgrwt>
</event>
<event>
12    6  0.1457317E-007  0.3409776E+04  0.7818608E-02  0.8135511E-01
         -1   -1    0    0    0  501 -0.00000000000E+00  0.00000000000E+00  0.11935731227E+04  0.11935731227E+04  0.00000000000E+00 0.  1.
          2   -1    0    0  501    0  0.00000000000E+00 -0.00000000000E+00 -0.24352452577E+04  0.24352452577E+04  0.00000000000E+00 0. -1.
         24    2    1    2    0    0  0.46050488987E+03 -0.15070900943E+04 -0.76074585529E+03  0.17517409389E+04  0.80478286271E+02 0.  0.
        254    2    1    2    0    0 -0.46050488987E+03  0.15070900943E+04 -0.48092627967E+03  0.18770774416E+04  0.89930213456E+03 0.  0.
         23    2    4    4    0    0  0.12574889435E+03  0.60518080197E+03  0.12800312150E+03  0.63767443068E+03  0.90483661109E+02 0.  0.
         23    2    4    4    0    0 -0.58625378422E+03  0.90190929235E+03 -0.60892940117E+03  0.12394030109E+04  0.90503793742E+02 0.  0.
          4    1    3    3  502    0  0.57328690886E+02 -0.19206474917E+03 -0.12727743487E+03  0.23743418477E+03  0.00000000000E+00 0. -1.
         -3    1    3    3    0  502  0.40317619898E+03 -0.13150253451E+04 -0.63346842042E+03  0.15143067541E+04  0.00000000000E+00 0.  1.
         11    1    5    5    0    0  0.46873879111E+02  0.42754238383E+03  0.96131640376E+02  0.44071639724E+03  0.00000000000E+00 0. -1.
        -11    1    5    5    0    0  0.78875015241E+02  0.17763841814E+03  0.31871481123E+02  0.19695803344E+03  0.00000000000E+00 0.  1.
          2    1    6    6  503    0 -0.48777665895E+03  0.74990762085E+03 -0.54397391708E+03  0.10469933769E+04  0.00000000000E+00 0. -1.
         -2    1    6    6    0  503 -0.98477125271E+02  0.15200167150E+03 -0.64955484093E+02  0.19240963399E+03  0.00000000000E+00 0.  1.
<mgrwt>
<rscale>  0 0.34097761E+04</rscale>
<asrwt>0</asrwt>
<pdfrwt beam="1">  1        2 0.37465312E+00 0.34097761E+04</pdfrwt>
<pdfrwt beam="2">  1       -1 0.18362663E+00 0.34097761E+04</pdfrwt>
<totfact> 0.69971140E-01</totfact>
</mgrwt>
</event>
<event>
12    6  0.1457317E-007  0.1944011E+04  0.7818608E-02  0.8633254E-01
         -1   -1    0    0    0  501 -0.00000000000E+00  0.00000000000E+00  0.36478895236E+03  0.36478895236E+03  0.00000000000E+00 0.  1.
          2   -1    0    0  501    0  0.00000000000E+00 -0.00000000000E+00 -0.25899756012E+04  0.25899756012E+04  0.00000000000E+00 0. -1.
         24    2    1    2    0    0  0.70722009381E+03  0.61268383072E+02 -0.45093161298E+03  0.84476967291E+03  0.79889954584E+02 0.  0.
        254    2    1    2    0    0 -0.70722009381E+03 -0.61268383072E+02 -0.17742550358E+04  0.21099948806E+04  0.89452970223E+03 0.  0.
         23    2    4    4    0    0 -0.51769699793E+03 -0.42481867045E+03 -0.13656936477E+04  0.15241088827E+04  0.96476227769E+02 0.  0.
         23    2    4    4    0    0 -0.18952309588E+03  0.36355028737E+03 -0.40856138808E+03  0.58588599787E+03  0.90841506740E+02 0.  0.
          2    1    3    3  502    0  0.73568317132E+02  0.26182796586E+01 -0.77689329910E+02  0.10702702769E+03  0.00000000000E+00 0. -1.
         -1    1    3    3    0  502  0.63365177668E+03  0.58650103414E+02 -0.37324228307E+03  0.73774264523E+03  0.00000000000E+00 0.  1.
         11    1    5    5    0    0 -0.43115259913E+03 -0.31043407496E+03 -0.10266444445E+04  0.11559674278E+04  0.00000000000E+00 0.  1.
        -11    1    5    5    0    0 -0.86544398793E+02 -0.11438459549E+03 -0.33904920321E+03  0.36814145494E+03  0.00000000000E+00 0. -1.
          1    1    6    6  503    0 -0.15497409468E+03  0.32555521070E+03 -0.39036836913E+03  0.53140439295E+03  0.00000000000E+00 0.  1.
         -1    1    6    6    0  503 -0.34549001203E+02  0.37995076671E+02 -0.18193018954E+02  0.54481604914E+02  0.00000000000E+00 0. -1.
<mgrwt>
<rscale>  0 0.19440108E+04</rscale>
<asrwt>0</asrwt>
<pdfrwt beam="1">  1        2 0.39845780E+00 0.19440108E+04</pdfrwt>
<pdfrwt beam="2">  1       -1 0.56121375E-01 0.19440108E+04</pdfrwt>
<totfact> 0.10537882E+01</totfact>
</mgrwt>
</event>
<event>
12    6  0.1457317E-007  0.1618942E+04  0.7818608E-02  0.8808995E-01
         -1   -1    0    0    0  501 -0.00000000000E+00  0.00000000000E+00  0.68419034965E+03  0.68419034965E+03  0.00000000000E+00 0.  1.
          2   -1    0    0  501    0  0.00000000000E+00 -0.00000000000E+00 -0.95769098017E+03  0.95769098017E+03  0.00000000000E+00 0. -1.
         24    2    1    2    0    0  0.35131176972E+03  0.63811544547E+02  0.31661148896E+03  0.48426475962E+03  0.82326482434E+02 0.  0.
        254    2    1    2    0    0 -0.35131176972E+03 -0.63811544547E+02 -0.59011211949E+03  0.11576165702E+04  0.92970529592E+03 0.  0.
         23    2    4    4    0    0 -0.50243047388E+03 -0.30197974802E+03 -0.62164423952E+03  0.85883175219E+03  0.86731013767E+02 0.  0.
         23    2    4    4    0    0  0.15111870416E+03  0.23816820347E+03  0.31532120033E+02  0.29878481800E+03  0.93365609200E+02 0.  0.
          4    1    3    3  502    0  0.18963388468E+03  0.56789795046E+02  0.21930223155E+03  0.29543114224E+03  0.00000000000E+00 0. -1.
         -3    1    3    3    0  502  0.16167788504E+03  0.70217495010E+01  0.97309257406E+02  0.18883361739E+03  0.00000000000E+00 0.  1.
         11    1    5    5    0    0 -0.14005995775E+03 -0.12460702902E+03 -0.22776897251E+03  0.29499560723E+03  0.00000000000E+00 0.  1.
        -11    1    5    5    0    0 -0.36237051613E+03 -0.17737271900E+03 -0.39387526701E+03  0.56383614496E+03  0.00000000000E+00 0. -1.
          1    1    6    6  503    0  0.98459661832E+02  0.13125169333E+03 -0.26537858167E+02  0.16620941588E+03  0.00000000000E+00 0. -1.
         -1    1    6    6    0  503  0.52659042329E+02  0.10691651014E+03  0.58069978200E+02  0.13257540212E+03  0.00000000000E+00 0.  1.
<mgrwt>
<rscale>  0 0.16189415E+04</rscale>
<asrwt>0</asrwt>
<pdfrwt beam="1">  1        2 0.14733707E+00 0.16189415E+04</pdfrwt>
<pdfrwt beam="2">  1       -1 0.10526005E+00 0.16189415E+04</pdfrwt>
<totfact> 0.24824805E+01</totfact>
</mgrwt>
</event>
<event>
12    6  0.1457317E-007  0.1969896E+04  0.7818608E-02  0.8620826E-01
         -1   -1    0    0    0  501 -0.00000000000E+00  0.00000000000E+00  0.14729062875E+04  0.14729062875E+04  0.00000000000E+00 0.  1.
          2   -1    0    0  501    0  0.00000000000E+00 -0.00000000000E+00 -0.65864530172E+03  0.65864530172E+03  0.00000000000E+00 0. -1.
         24    2    1    2    0    0  0.10717058790E+03 -0.71148658683E+03  0.64572695471E+03  0.97009715569E+03  0.80165412099E+02 0.  0.
        254    2    1    2    0    0 -0.10717058790E+03  0.71148658683E+03  0.16853403103E+03  0.11614544335E+04  0.89603235619E+03 0.  0.
         23    2    4    4    0    0 -0.38045897356E+03  0.78752388785E+01  0.63949131385E+02  0.39448327510E+03  0.81954334726E+02 0.  0.
         23    2    4    4    0    0  0.27328838566E+03  0.70361134795E+03  0.10458489965E+03  0.76697115840E+03  0.86898135050E+02 0.  0.
          4    1    3    3  502    0  0.16018031858E+02 -0.31632082432E+02  0.51727530535E+02  0.62712864700E+02  0.00000000000E+00 0. -1.
         -3    1    3    3    0  502  0.91152556039E+02 -0.67985450440E+03  0.59399942418E+03  0.90738429099E+03  0.00000000000E+00 0.  1.
         11    1    5    5    0    0 -0.23304037979E+03 -0.11522890277E+02  0.18108340342E+01  0.23333211252E+03  0.00000000000E+00 0. -1.
        -11    1    5    5    0    0 -0.14741859377E+03  0.19398129156E+02  0.62138297351E+02  0.16115116258E+03  0.00000000000E+00 0.  1.
          3    1    6    6  503    0  0.55585996218E+02  0.16827270884E+03  0.60990816470E+02  0.18741768115E+03  0.00000000000E+00 0. -1.
         -3    1    6    6    0  503  0.21770238945E+03  0.53533863911E+03  0.43594083177E+02  0.57955347724E+03  0.00000000000E+00 0.  1.
<mgrwt>
<rscale>  0 0.19698962E+04</rscale>
<asrwt>0</asrwt>
<pdfrwt beam="1">  1        2 0.10133005E+00 0.19698962E+04</pdfrwt>
<pdfrwt beam="2">  1       -1 0.22660097E+00 0.19698962E+04</pdfrwt>
<totfact> 0.46758933E+00</totfact>
</mgrwt>
</event>
<event>
12    6  0.1457317E-007  0.2187314E+04  0.7818608E-02  0.8523727E-01
          2   -1    0    0  501    0  0.00000000000E+00  0.00000000000E+00  0.12296177394E+04  0.12296177394E+04  0.00000000000E+00 0. -1.
         -1   -1    0    0    0  501 -0.00000000000E+00 -0.00000000000E+00 -0.97272959594E+03  0.97272959594E+03  0.00000000000E+00 0.  1.
         24    2    1    2    0    0 -0.51520829591E+03  0.73081341393E+03  0.23716313873E+03  0.92845080262E+03  0.79036095297E+02 0.  0.
        254    2    1    2    0    0  0.51520829591E+03 -0.73081341393E+03  0.19725004747E+02  0.12738965327E+04  0.90713585872E+03 0.  0.
         23    2    4    4    0    0  0.13244633255E+03 -0.30189309661E+02  0.36467657906E+03  0.39973407043E+03  0.91350393144E+02 0.  0.
         23    2    4    4    0    0  0.38276196336E+03 -0.70062410427E+03 -0.34495157431E+03  0.87416246231E+03  0.88247185847E+02 0.  0.
          2    1    3    3  502    0 -0.40763827650E+03  0.60491249883E+03  0.22036959341E+03  0.76200449697E+03  0.00000000000E+00 0. -1.
         -1    1    3    3    0  502 -0.10757001941E+03  0.12590091510E+03  0.16793545317E+02  0.16644630564E+03  0.00000000000E+00 0.  1.
         11    1    5    5    0    0  0.64187072870E+01 -0.28137538074E+02  0.13192276223E+03  0.13504271934E+03  0.00000000000E+00 0. -1.
        -11    1    5    5    0    0  0.12602762526E+03 -0.20517715874E+01  0.23275381683E+03  0.26469135109E+03  0.00000000000E+00 0.  1.
          2    1    6    6  503    0  0.28275242375E+03 -0.43092547417E+03 -0.21272066706E+03  0.55758028984E+03  0.00000000000E+00 0. -1.
         -2    1    6    6    0  503  0.10000953961E+03 -0.26969863010E+03 -0.13223090725E+03  0.31658217247E+03  0.00000000000E+00 0.  1.
<mgrwt>
<rscale>  0 0.21873139E+04</rscale>
<asrwt>0</asrwt>
<pdfrwt beam="1">  1        2 0.18917196E+00 0.21873139E+04</pdfrwt>
<pdfrwt beam="2">  1       -1 0.14965071E+00 0.21873139E+04</pdfrwt>
<totfact> 0.66603484E+00</totfact>
</mgrwt>
</event>
<event>
12    6  0.1457317E-007  0.1759134E+04  0.7818608E-02  0.8728339E-01
         -1   -1    0    0    0  501 -0.00000000000E+00  0.00000000000E+00  0.12732230711E+04  0.12732230711E+04  0.00000000000E+00 0.  1.
          2   -1    0    0  501    0  0.00000000000E+00 -0.00000000000E+00 -0.60762172970E+03  0.60762172970E+03  0.00000000000E+00 0. -1.
         24    2    1    2    0    0  0.50736624716E+03 -0.35540630753E+03  0.35238028877E+02  0.62538431572E+03  0.78292218551E+02 0.  0.
        254    2    1    2    0    0 -0.50736624716E+03  0.35540630753E+03  0.63036331247E+03  0.12554604850E+04  0.89167761639E+03 0.  0.
         23    2    4    4    0    0 -0.69505124349E+02 -0.20151517773E+03  0.46914621570E+03  0.52321012538E+03  0.90616413655E+02 0.  0.
         23    2    4    4    0    0 -0.43786112281E+03  0.55692148527E+03  0.16121709677E+03  0.73225035966E+03  0.91190642654E+02 0.  0.
          4    1    3    3  502    0  0.35624185973E+03 -0.25866583816E+03  0.59749755967E+02  0.44428179323E+03  0.00000000000E+00 0. -1.
         -3    1    3    3    0  502  0.15112438743E+03 -0.96740469370E+02 -0.24511727089E+02  0.18110252250E+03  0.00000000000E+00 0.  1.
         11    1    5    5    0    0  0.54311452107E+01 -0.45590534125E+02  0.41466265896E+02  0.61866350689E+02  0.00000000000E+00 0. -1.
        -11    1    5    5    0    0 -0.74936269560E+02 -0.15592464361E+03  0.42767994980E+03  0.46134377469E+03  0.00000000000E+00 0.  1.
          4    1    6    6  503    0 -0.37953591111E+02  0.45511087478E+02  0.40866054765E+02  0.71984502455E+02  0.00000000000E+00 0. -1.
         -4    1    6    6    0  503 -0.39990753170E+03  0.51141039779E+03  0.12035104201E+03  0.66026585720E+03  0.00000000000E+00 0.  1.
<mgrwt>
<rscale>  0 0.17591339E+04</rscale>
<asrwt>0</asrwt>
<pdfrwt beam="1">  1        2 0.93480266E-01 0.17591339E+04</pdfrwt>
<pdfrwt beam="2">  1       -1 0.19588047E+00 0.17591339E+04</pdfrwt>
<totfact> 0.84920513E+00</totfact>
</mgrwt>
</event>
<event>
12    6  0.1457317E-007  0.1525646E+04  0.7818608E-02  0.8867576E-01
          2   -1    0    0  501    0  0.00000000000E+00  0.00000000000E+00  0.57100256826E+03  0.57100256826E+03  0.00000000000E+00 0. -1.
         -1   -1    0    0    0  501 -0.00000000000E+00 -0.00000000000E+00 -0.10190825798E+04  0.10190825798E+04  0.00000000000E+00 0.  1.
         24    2    1    2    0    0  0.43436009213E+02  0.40908867097E+03  0.12989572397E+03  0.43942362129E+03  0.83546347751E+02 0.  0.
        254    2    1    2    0    0 -0.43436009213E+02 -0.40908867097E+03 -0.57797573556E+03  0.11506615268E+04  0.90593916505E+03 0.  0.
         23    2    4    4    0    0 -0.33657363111E+03 -0.46496224688E+03 -0.60479703322E+03  0.83861082651E+03  0.89537516035E+02 0.  0.
         23    2    4    4    0    0  0.29313762189E+03  0.55873575904E+02  0.26821297660E+02  0.31205070030E+03  0.87205135717E+02 0.  0.
          2    1    3    3  502    0  0.67671121587E+02  0.29397448191E+03  0.10288218117E+03  0.31872420666E+03  0.00000000000E+00 0. -1.
         -1    1    3    3    0  502 -0.24235112374E+02  0.11511418906E+03  0.27013542808E+02  0.12069941462E+03  0.00000000000E+00 0.  1.
         11    1    5    5    0    0 -0.63315144011E+02 -0.15373524036E+03 -0.15758162910E+03  0.22907488169E+03  0.00000000000E+00 0. -1.
        -11    1    5    5    0    0 -0.27325848710E+03 -0.31122700652E+03 -0.44721540412E+03  0.60953594483E+03  0.00000000000E+00 0.  1.
          1    1    6    6  503    0  0.81302681088E+01 -0.62865466126E+00 -0.16384668714E+02  0.18301744045E+02  0.00000000000E+00 0. -1.
         -1    1    6    6    0  503  0.28500735379E+03  0.56502230565E+02  0.43205966374E+02  0.29374895626E+03  0.00000000000E+00 0.  1.
<mgrwt>
<rscale>  0 0.15256458E+04</rscale>
<asrwt>0</asrwt>
<pdfrwt beam="1">  1        2 0.87846549E-01 0.15256458E+04</pdfrwt>
<pdfrwt beam="2">  1       -1 0.15678194E+00 0.15256458E+04</pdfrwt>
<totfact> 0.17940801E+01</totfact>
</mgrwt>
</event>
<event>
12    6  0.1457317E-007  0.1449371E+04  0.7818608E-02  0.8918837E-01
          2   -1    0    0  501    0  0.00000000000E+00  0.00000000000E+00  0.91592446272E+03  0.91592446272E+03  0.00000000000E+00 0. -1.
         -1   -1    0    0    0  501 -0.00000000000E+00 -0.00000000000E+00 -0.57337559982E+03  0.57337559982E+03  0.00000000000E+00 0.  1.
         24    2    1    2    0    0 -0.39433740636E+03  0.99887379757E+02  0.23893210304E+03  0.47827122930E+03  0.78583333025E+02 0.  0.
        254    2    1    2    0    0  0.39433740636E+03 -0.99887379757E+02  0.10361675987E+03  0.10110288332E+04  0.91976268136E+03 0.  0.
         23    2    4    4    0    0  0.10573055206E+03 -0.18020029342E+03  0.47410592321E+03  0.52590002448E+03  0.90240312157E+02 0.  0.
         23    2    4    4    0    0  0.28860685430E+03  0.80312913665E+02 -0.37048916334E+03  0.48512880876E+03  0.91343639515E+02 0.  0.
          2    1    3    3  502    0 -0.94035846993E+02  0.74440328366E+01  0.23227948047E+02  0.97147782862E+02  0.00000000000E+00 0. -1.
         -1    1    3    3    0  502 -0.30030155937E+03  0.92443346920E+02  0.21570415499E+03  0.38112344644E+03  0.00000000000E+00 0.  1.
         11    1    5    5    0    0  0.93649316096E+02 -0.18884000800E+03  0.42194186369E+03  0.47166267540E+03  0.00000000000E+00 0. -1.
        -11    1    5    5    0    0  0.12081235964E+02  0.86397145762E+01  0.52164059518E+02  0.54237349084E+02  0.00000000000E+00 0.  1.
          4    1    6    6  503    0  0.13619831697E+03  0.66506799284E+02 -0.12798883453E+03  0.19837912607E+03  0.00000000000E+00 0.  1.
         -4    1    6    6    0  503  0.15240853733E+03  0.13806114381E+02 -0.24250032881E+03  0.28674968269E+03  0.00000000000E+00 0. -1.
<mgrwt>
<rscale>  0 0.14493705E+04</rscale>
<asrwt>0</asrwt>
<pdfrwt beam="1">  1        2 0.14091146E+00 0.14493705E+04</pdfrwt>
<pdfrwt beam="2">  1       -1 0.88211631E-01 0.14493705E+04</pdfrwt>
<totfact> 0.39985301E+01</totfact>
</mgrwt>
</event>
<event>
12    6  0.1457317E-007  0.2414029E+04  0.7818608E-02  0.8434270E-01
          2   -1    0    0  501    0  0.00000000000E+00  0.00000000000E+00  0.21666041777E+04  0.21666041777E+04  0.00000000000E+00 0. -1.
         -1   -1    0    0    0  501 -0.00000000000E+00 -0.00000000000E+00 -0.67242761852E+03  0.67242761852E+03  0.00000000000E+00 0.  1.
         24    2    1    2    0    0  0.17099347124E+03 -0.99948552728E+03  0.37454782339E+03  0.10840096455E+04  0.81121841607E+02 0.  0.
        254    2    1    2    0    0 -0.17099347124E+03  0.99948552728E+03  0.11196287358E+04  0.17550221507E+04  0.89348987513E+03 0.  0.
         23    2    4    4    0    0  0.31378061276E+03  0.55265126354E+03  0.33021711240E+03  0.72248129961E+03  0.95153533410E+02 0.  0.
         23    2    4    4    0    0 -0.48477408400E+03  0.44683426373E+03  0.78941162344E+03  0.10325408511E+04  0.91121491612E+02 0.  0.
          2    1    3    3  502    0  0.97220113855E+02 -0.70457660253E+03  0.29321580192E+03  0.76932141909E+03  0.00000000000E+00 0. -1.
         -1    1    3    3    0  502  0.73773357382E+02 -0.29490892474E+03  0.81332021473E+02  0.31468822645E+03  0.00000000000E+00 0.  1.
         11    1    5    5    0    0  0.40461404098E+02  0.61589150614E+02  0.75332974709E+02  0.10538218907E+03  0.00000000000E+00 0. -1.
        -11    1    5    5    0    0  0.27331920866E+03  0.49106211293E+03  0.25488413769E+03  0.61709911053E+03  0.00000000000E+00 0.  1.
          1    1    6    6  503    0 -0.39198458995E+03  0.31552615097E+03  0.62774577742E+03  0.80453305201E+03  0.00000000000E+00 0.  1.
         -1    1    6    6    0  503 -0.92789494042E+02  0.13130811277E+03  0.16166584602E+03  0.22800779910E+03  0.00000000000E+00 0. -1.
<mgrwt>
<rscale>  0 0.24140294E+04</rscale>
<asrwt>0</asrwt>
<pdfrwt beam="1">  1        2 0.33332372E+00 0.24140294E+04</pdfrwt>
<pdfrwt beam="2">  1       -1 0.10345040E+00 0.24140294E+04</pdfrwt>
<totfact> 0.48557915E+00</totfact>
</mgrwt>
</event>
<event>
12    6  0.1457317E-007  0.3172775E+04  0.7818608E-02  0.8196044E-01
          2   -1    0    0  501    0  0.00000000000E+00  0.00000000000E+00  0.30577139248E+04  0.30577139248E+04  0.00000000000E+00 0. -1.
         -1   -1    0    0    0  501 -0.00000000000E+00 -0.00000000000E+00 -0.82304155198E+03  0.82304155198E+03  0.00000000000E+00 0.  1.
         24    2    1    2    0    0 -0.26051644898E+02 -0.60991117870E+03 -0.59050262026E+03  0.85315487414E+03  0.80681848242E+02 0.  0.
        254    2    1    2    0    0  0.26051644898E+02  0.60991117870E+03  0.28251749931E+04  0.30276006027E+04  0.90115555453E+03 0.  0.
         23    2    4    4    0    0  0.22469965887E+03  0.53304144162E+03  0.27029484997E+04  0.27657252424E+04  0.93179447324E+02 0.  0.
         23    2    4    4    0    0 -0.19864801397E+03  0.76869737081E+02  0.12222649342E+03  0.26187536024E+03  0.90936234109E+02 0.  0.
          2    1    3    3  502    0  0.19712416367E+02 -0.23272979944E+03 -0.18981388480E+03  0.30096685826E+03  0.00000000000E+00 0. -1.
         -1    1    3    3    0  502 -0.45764061265E+02 -0.37718137926E+03 -0.40068873545E+03  0.55218801588E+03  0.00000000000E+00 0.  1.
         11    1    5    5    0    0  0.14007796397E+03  0.36759273535E+03  0.16295364760E+04  0.16763458419E+04  0.00000000000E+00 0. -1.
        -11    1    5    5    0    0  0.84621694898E+02  0.16544870627E+03  0.10734120237E+04  0.10893794006E+04  0.00000000000E+00 0.  1.
          1    1    6    6  503    0 -0.13603569435E+03  0.81134923814E+02  0.49791950306E+02  0.16603561159E+03  0.00000000000E+00 0. -1.
         -1    1    6    6    0  503 -0.62612319626E+02 -0.42651867335E+01  0.72434543112E+02  0.95839748657E+02  0.00000000000E+00 0.  1.
<mgrwt>
<rscale>  0 0.31727752E+04</rscale>
<asrwt>0</asrwt>
<pdfrwt beam="1">  1        2 0.47041752E+00 0.31727752E+04</pdfrwt>
<pdfrwt beam="2">  1       -1 0.12662178E+00 0.31727752E+04</pdfrwt>
<totfact> 0.83110309E-01</totfact>
</mgrwt>
</event>
<event>
12    6  0.1457317E-007  0.1027682E+04  0.7818608E-02  0.9278694E-01
          2   -1    0    0  501    0  0.00000000000E+00  0.00000000000E+00  0.15512748433E+04  0.15512748433E+04  0.00000000000E+00 0. -1.
         -1   -1    0    0    0  501 -0.00000000000E+00 -0.00000000000E+00 -0.17020376814E+03  0.17020376814E+03  0.00000000000E+00 0.  1.
         24    2    1    2    0    0  0.20159093440E+02 -0.77697212639E+02  0.23935590615E+03  0.26288038966E+03  0.73291224289E+02 0.  0.
        254    2    1    2    0    0 -0.20159093440E+02  0.77697212639E+02  0.11417151690E+04  0.14585982218E+04  0.90418582136E+03 0.  0.
         23    2    4    4    0    0 -0.18727163955E+02 -0.89954549110E+02 -0.12320144944E+03  0.17895080093E+03  0.91663866555E+02 0.  0.
         23    2    4    4    0    0 -0.14319294853E+01  0.16765176175E+03  0.12649166184E+04  0.12796474209E+04  0.96821002050E+02 0.  0.
          2    1    3    3  502    0  0.34185707101E+02 -0.84310928131E+02  0.22006311948E+03  0.23812763747E+03  0.00000000000E+00 0. -1.
         -1    1    3    3    0  502 -0.14026613660E+02  0.66137154927E+01  0.19292786677E+02  0.24752752193E+02  0.00000000000E+00 0.  1.
         11    1    5    5    0    0 -0.20718791624E+01 -0.92663531023E+02 -0.53042301539E+02  0.10679095663E+03  0.00000000000E+00 0.  1.
        -11    1    5    5    0    0 -0.16655284793E+02  0.27089819128E+01 -0.70159147905E+02  0.72159844299E+02  0.00000000000E+00 0. -1.
          3    1    6    6  503    0 -0.33575035537E+02  0.78212212139E+02  0.83631139814E+03  0.84063142209E+03  0.00000000000E+00 0. -1.
         -3    1    6    6    0  503  0.32143106052E+02  0.89439549609E+02  0.42860522031E+03  0.43901599877E+03  0.00000000000E+00 0.  1.
<mgrwt>
<rscale>  0 0.10276825E+04</rscale>
<asrwt>0</asrwt>
<pdfrwt beam="1">  1        2 0.23865766E+00 0.10276825E+04</pdfrwt>
<pdfrwt beam="2">  1       -1 0.26185196E-01 0.10276825E+04</pdfrwt>
<totfact> 0.17435674E+02</totfact>
</mgrwt>
</event>
<event>
12    6  0.1457317E-007  0.1402333E+04  0.7818608E-02  0.8952131E-01
          2   -1    0    0  501    0  0.00000000000E+00  0.00000000000E+00  0.32156841252E+04  0.32156841252E+04  0.00000000000E+00 0. -1.
         -1   -1    0    0    0  501 -0.00000000000E+00 -0.00000000000E+00 -0.15288653141E+03  0.15288653141E+03  0.00000000000E+00 0.  1.
         24    2    1    2    0    0  0.36830316746E+03 -0.16009787467E+03  0.68733642964E+03  0.79924377450E+03  0.71278965569E+02 0.  0.
        254    2    1    2    0    0 -0.36830316746E+03  0.16009787467E+03  0.23754611641E+04  0.25693268821E+04  0.89294251335E+03 0.  0.
         23    2    4    4    0    0 -0.29338708264E+03 -0.17408165813E+03  0.29906800018E+03  0.46294187085E+03  0.92158033292E+02 0.  0.
         23    2    4    4    0    0 -0.74916084813E+02  0.33417953280E+03  0.20763931640E+04  0.21063850112E+04  0.90337502544E+02 0.  0.
          2    1    3    3  502    0  0.10219026860E+03 -0.12041617729E+02  0.19022692052E+03  0.21627328278E+03  0.00000000000E+00 0. -1.
         -1    1    3    3    0  502  0.26611289885E+03 -0.14805625694E+03  0.49710950912E+03  0.58297049172E+03  0.00000000000E+00 0.  1.
         11    1    5    5    0    0 -0.12529003654E+03 -0.12485392950E+03  0.17038835056E+03  0.24559781549E+03  0.00000000000E+00 0. -1.
        -11    1    5    5    0    0 -0.16809704611E+03 -0.49227728630E+02  0.12867964962E+03  0.21734405536E+03  0.00000000000E+00 0.  1.
          2    1    6    6  503    0  0.17816976678E+02  0.60515836206E+02  0.29080646836E+03  0.29757018186E+03  0.00000000000E+00 0. -1.
         -2    1    6    6    0  503 -0.92733061491E+02  0.27366369659E+03  0.17855866956E+04  0.18088148294E+04  0.00000000000E+00 0.  1.
<mgrwt>
<rscale>  0 0.14023335E+04</rscale>
<asrwt>0</asrwt>
<pdfrwt beam="1">  1        2 0.49472058E+00 0.14023335E+04</pdfrwt>
<pdfrwt beam="2">  1       -1 0.23521007E-01 0.14023335E+04</pdfrwt>
<totfact> 0.22092422E+01</totfact>
</mgrwt>
</event>
<event>
12    6  0.1457317E-007  0.1224946E+04  0.7818608E-02  0.9091297E-01
         -1   -1    0    0    0  501 -0.00000000000E+00  0.00000000000E+00  0.12613391564E+03  0.12613391564E+03  0.00000000000E+00 0.  1.
          2   -1    0    0  501    0  0.00000000000E+00 -0.00000000000E+00 -0.29740068074E+04  0.29740068074E+04  0.00000000000E+00 0. -1.
         24    2    1    2    0    0  0.12495906581E+03  0.23951942202E+03 -0.63698112552E+03  0.69653013380E+03  0.80155794328E+02 0.  0.
        254    2    1    2    0    0 -0.12495906581E+03 -0.23951942202E+03 -0.22108917662E+04  0.24036105892E+04  0.90350270672E+03 0.  0.
         23    2    4    4    0    0 -0.41686255076E+03 -0.40768322546E+03 -0.14860875919E+04  0.15990452138E+04  0.92245684291E+02 0.  0.
         23    2    4    4    0    0  0.29190348495E+03  0.16816380344E+03 -0.72480417434E+03  0.80456537549E+03  0.92182660965E+02 0.  0.
          4    1    3    3  502    0  0.43879221067E+02  0.16730473180E+03 -0.40566130780E+03  0.44099586843E+03  0.00000000000E+00 0. -1.
         -3    1    3    3    0  502  0.81079844744E+02  0.72214690214E+02 -0.23131981772E+03  0.25553426537E+03  0.00000000000E+00 0.  1.
         11    1    5    5    0    0 -0.37350667402E+03 -0.39787715620E+03 -0.13835291573E+04  0.14872680983E+04  0.00000000000E+00 0.  1.
        -11    1    5    5    0    0 -0.43355876749E+02 -0.98060692579E+01 -0.10255843458E+03  0.11177711549E+03  0.00000000000E+00 0. -1.
          1    1    6    6  503    0  0.33495093682E+02 -0.10329358264E+02 -0.80094573285E+02  0.87428585786E+02  0.00000000000E+00 0. -1.
         -1    1    6    6    0  503  0.25840839127E+03  0.17849316171E+03 -0.64470960106E+03  0.71713678971E+03  0.00000000000E+00 0.  1.
<mgrwt>
<rscale>  0 0.12249459E+04</rscale>
<asrwt>0</asrwt>
<pdfrwt beam="1">  1        2 0.45753948E+00 0.12249459E+04</pdfrwt>
<pdfrwt beam="2">  1       -1 0.19405219E-01 0.12249459E+04</pdfrwt>
<totfact> 0.44215709E+01</totfact>
</mgrwt>
</event>
<event>
12    6  0.1457317E-007  0.2235645E+04  0.7818608E-02  0.8503737E-01
          2   -1    0    0  501    0  0.00000000000E+00  0.00000000000E+00  0.13274799752E+04  0.13274799752E+04  0.00000000000E+00 0. -1.
         -1   -1    0    0    0  501 -0.00000000000E+00 -0.00000000000E+00 -0.94127783443E+03  0.94127783443E+03  0.00000000000E+00 0.  1.
         24    2    1    2    0    0  0.76113924127E+03 -0.41541026349E+03 -0.19485080817E+03  0.89226954528E+03  0.79243121952E+02 0.  0.
        254    2    1    2    0    0 -0.76113924127E+03  0.41541026349E+03  0.58105294894E+03  0.13764882644E+04  0.89732869162E+03 0.  0.
         23    2    4    4    0    0 -0.29493063940E+03 -0.79585602539E+02 -0.16825162992E+03  0.36044235840E+03  0.91061147439E+02 0.  0.
         23    2    4    4    0    0 -0.46620860188E+03  0.49499586603E+03  0.74930457886E+03  0.10160459059E+04  0.92306897062E+02 0.  0.
          4    1    3    3  502    0  0.17162861092E+01 -0.57575249025E+01 -0.69394117167E+01  0.91787889172E+01  0.00000000000E+00 0. -1.
         -3    1    3    3    0  502  0.75942295516E+03 -0.40965273859E+03 -0.18791139645E+03  0.88309075637E+03  0.00000000000E+00 0.  1.
         11    1    5    5    0    0 -0.24515032261E+03 -0.90274993872E+02 -0.16590819826E+03  0.30947340022E+03  0.00000000000E+00 0.  1.
        -11    1    5    5    0    0 -0.49780316783E+02  0.10689391334E+02 -0.23434316672E+01  0.50968958181E+02  0.00000000000E+00 0. -1.
          3    1    6    6  503    0 -0.22262424236E+02  0.32699878830E+02  0.80564912556E+02  0.89753009662E+02  0.00000000000E+00 0. -1.
         -3    1    6    6    0  503 -0.44394617764E+03  0.46229598720E+03  0.66873966631E+03  0.92629289629E+03  0.00000000000E+00 0.  1.
<mgrwt>
<rscale>  0 0.22356453E+04</rscale>
<asrwt>0</asrwt>
<pdfrwt beam="1">  1        2 0.20422769E+00 0.22356453E+04</pdfrwt>
<pdfrwt beam="2">  1       -1 0.14481197E+00 0.22356453E+04</pdfrwt>
<totfact> 0.63452964E+00</totfact>
</mgrwt>
</event>
<event>
12    6  0.1457317E-007  0.1352070E+04  0.7818608E-02  0.8989263E-01
          2   -1    0    0  501    0  0.00000000000E+00  0.00000000000E+00  0.31144686477E+04  0.31144686477E+04  0.00000000000E+00 0. -1.
         -1   -1    0    0    0  501 -0.00000000000E+00 -0.00000000000E+00 -0.14674200344E+03  0.14674200344E+03  0.00000000000E+00 0.  1.
         24    2    1    2    0    0 -0.35915373987E+02  0.33067915200E+03  0.41955894101E+03  0.54154133059E+03  0.81232334119E+02 0.  0.
        254    2    1    2    0    0  0.35915373987E+02 -0.33067915200E+03  0.25481677032E+04  0.27196693205E+04  0.89039539166E+03 0.  0.
         23    2    4    4    0    0 -0.86039559215E+02 -0.27852527662E+03  0.25384531682E+04  0.25568010165E+04  0.92237819956E+02 0.  0.
         23    2    4    4    0    0  0.12195493320E+03 -0.52153875379E+02  0.97145350487E+01  0.16286830402E+03  0.94014253244E+02 0.  0.
          4    1    3    3  502    0 -0.26200056114E+02  0.12902563929E+03  0.22773872874E+03  0.26305700352E+03  0.00000000000E+00 0. -1.
         -3    1    3    3    0  502 -0.97153178721E+01  0.20165351271E+03  0.19182021227E+03  0.27848432707E+03  0.00000000000E+00 0.  1.
         11    1    5    5    0    0 -0.57339151850E+02 -0.58233701198E+02  0.81555190749E+03  0.81963641701E+03  0.00000000000E+00 0.  1.
        -11    1    5    5    0    0 -0.28700407365E+02 -0.22029157542E+03  0.17229012607E+04  0.17371645995E+04  0.00000000000E+00 0. -1.
          2    1    6    6  503    0 -0.47000599916E+01 -0.10991885020E+01  0.24996197506E+02  0.25457978495E+02  0.00000000000E+00 0.  1.
         -2    1    6    6    0  503  0.12665499319E+03 -0.51054686877E+02 -0.15281662457E+02  0.13741032552E+03  0.00000000000E+00 0. -1.
<mgrwt>
<rscale>  0 0.13520701E+04</rscale>
<asrwt>0</asrwt>
<pdfrwt beam="1">  1        2 0.47914897E+00 0.13520701E+04</pdfrwt>
<pdfrwt beam="2">  1       -1 0.22575695E-01 0.13520701E+04</pdfrwt>
<totfact> 0.27645501E+01</totfact>
</mgrwt>
</event>
<event>
12    6  0.1457317E-007  0.2005375E+04  0.7818608E-02  0.8604112E-01
          2   -1    0    0  501    0  0.00000000000E+00  0.00000000000E+00  0.98224461625E+03  0.98224461625E+03  0.00000000000E+00 0. -1.
         -1   -1    0    0    0  501 -0.00000000000E+00 -0.00000000000E+00 -0.10235554060E+04  0.10235554060E+04  0.00000000000E+00 0.  1.
         24    2    1    2    0    0  0.10965275579E+03 -0.59885278425E+03  0.49735497965E+03  0.79013842884E+03  0.79425291304E+02 0.  0.
        254    2    1    2    0    0 -0.10965275579E+03  0.59885278425E+03 -0.53866576940E+03  0.12156615934E+04  0.90389375179E+03 0.  0.
         23    2    4    4    0    0 -0.13741882863E+02  0.65449519734E+03 -0.17502680190E+01  0.65994689377E+03  0.83510696786E+02 0.  0.
         23    2    4    4    0    0 -0.95910872926E+02 -0.55642413093E+02 -0.53691550138E+03  0.55571469964E+03  0.90805275686E+02 0.  0.
          2    1    3    3  502    0  0.10694054487E+03 -0.49216997902E+03  0.37593279838E+03  0.62848471524E+03  0.00000000000E+00 0. -1.
         -1    1    3    3    0  502  0.27122109205E+01 -0.10668280522E+03  0.12142218126E+03  0.16165371360E+03  0.00000000000E+00 0.  1.
         11    1    5    5    0    0  0.54815485947E+00 -0.12316931278E+01 -0.38307031863E+01  0.40610132495E+01  0.00000000000E+00 0.  1.
        -11    1    5    5    0    0 -0.14290037722E+02  0.65572689047E+03  0.20804351673E+01  0.65588588053E+03  0.00000000000E+00 0. -1.
          3    1    6    6  503    0 -0.59023859396E+02 -0.71779726657E+02 -0.45555351660E+03  0.46493564245E+03  0.00000000000E+00 0. -1.
         -3    1    6    6    0  503 -0.36887013531E+02  0.16137313564E+02 -0.81361984787E+02  0.90779057192E+02  0.00000000000E+00 0.  1.
<mgrwt>
<rscale>  0 0.20053746E+04</rscale>
<asrwt>0</asrwt>
<pdfrwt beam="1">  1        2 0.15111456E+00 0.20053746E+04</pdfrwt>
<pdfrwt beam="2">  1       -1 0.15747006E+00 0.20053746E+04</pdfrwt>
<totfact> 0.83703016E+00</totfact>
</mgrwt>
</event>
<event>
12    6  0.1457317E-007  0.2234021E+04  0.7818608E-02  0.8504400E-01
         -3   -1    0    0    0  501 -0.00000000000E+00  0.00000000000E+00  0.51120814619E+03  0.51120814619E+03  0.00000000000E+00 0.  1.
          2   -1    0    0  501    0  0.00000000000E+00 -0.00000000000E+00 -0.24407133734E+04  0.24407133734E+04  0.00000000000E+00 0. -1.
         24    2    1    2    0    0  0.22615268169E+02  0.92731802415E+03 -0.97136068721E+03  0.13452935962E+04  0.76440218951E+02 0.  0.
        254    2    1    2    0    0 -0.22615268169E+02 -0.92731802415E+03 -0.95814454001E+03  0.16066279234E+04  0.89598111386E+03 0.  0.
         23    2    4    4    0    0  0.86078830948E+02 -0.95417118001E+02 -0.70877449725E+03  0.72643882628E+03  0.94011110088E+02 0.  0.
         23    2    4    4    0    0 -0.10869409912E+03 -0.83190090615E+03 -0.24937004275E+03  0.88018909711E+03  0.93133794175E+02 0.  0.
          2    1    3    3  502    0  0.31672376245E+02  0.24162729034E+03 -0.28651927153E+03  0.37613851147E+03  0.00000000000E+00 0. -1.
         -1    1    3    3    0  502 -0.90571080762E+01  0.68569073381E+03 -0.68484141569E+03  0.96915508474E+03  0.00000000000E+00 0.  1.
         11    1    5    5    0    0 -0.18423109808E+02 -0.22532139456E+02 -0.86823813510E+02  0.91572282247E+02  0.00000000000E+00 0.  1.
        -11    1    5    5    0    0  0.10450194076E+03 -0.72884978544E+02 -0.62195068374E+03  0.63486654403E+03  0.00000000000E+00 0. -1.
          3    1    6    6  503    0 -0.11655927405E+03 -0.81922648680E+03 -0.25209444531E+03  0.86502584377E+03  0.00000000000E+00 0. -1.
         -3    1    6    6    0  503  0.78651749333E+01 -0.12674419354E+02  0.27244025518E+01  0.15163253343E+02  0.00000000000E+00 0.  1.
<mgrwt>
<rscale>  0 0.22340211E+04</rscale>
<asrwt>0</asrwt>
<pdfrwt beam="1">  1        2 0.37549436E+00 0.22340211E+04</pdfrwt>
<pdfrwt beam="2">  1       -3 0.78647407E-01 0.22340211E+04</pdfrwt>
<totfact> 0.33227964E+00</totfact>
</mgrwt>
</event>
<event>
12    6  0.1457317E-007  0.1464562E+04  0.7818608E-02  0.8908367E-01
          2   -1    0    0  501    0  0.00000000000E+00  0.00000000000E+00  0.36034425394E+03  0.36034425394E+03  0.00000000000E+00 0. -1.
         -1   -1    0    0    0  501 -0.00000000000E+00 -0.00000000000E+00 -0.14881198054E+04  0.14881198054E+04  0.00000000000E+00 0.  1.
         24    2    1    2    0    0  0.28379782025E+03  0.14143303957E+03 -0.75827750369E+03  0.82586015273E+03  0.80719959114E+02 0.  0.
        254    2    1    2    0    0 -0.28379782025E+03 -0.14143303957E+03 -0.36949804775E+03  0.10226039066E+04  0.89924714902E+03 0.  0.
         23    2    4    4    0    0 -0.15560063588E+03  0.26954159136E+03  0.13683943294E+03  0.35184051207E+03  0.90567588943E+02 0.  0.
         23    2    4    4    0    0 -0.12819718437E+03 -0.41097463093E+03 -0.50633748068E+03  0.67076339452E+03  0.90615791902E+02 0.  0.
          4    1    3    3  502    0  0.31089823394E+02  0.69645085182E+01 -0.31780080290E+02  0.45000611116E+02  0.00000000000E+00 0. -1.
         -3    1    3    3    0  502  0.25270799686E+03  0.13446853105E+03 -0.72649742340E+03  0.78085954162E+03  0.00000000000E+00 0.  1.
         11    1    5    5    0    0  0.24854731113E+00  0.74191906223E+02  0.33846357043E+02  0.81548001875E+02  0.00000000000E+00 0. -1.
        -11    1    5    5    0    0 -0.15584918319E+03  0.19534968514E+03  0.10299307589E+03  0.27029251019E+03  0.00000000000E+00 0.  1.
          2    1    6    6  503    0 -0.10476902407E+03 -0.18977693962E+03 -0.23063876913E+03  0.31652184291E+03  0.00000000000E+00 0. -1.
         -2    1    6    6    0  503 -0.23428160305E+02 -0.22119769131E+03 -0.27569871155E+03  0.35424155161E+03  0.00000000000E+00 0.  1.
<mgrwt>
<rscale>  0 0.14645619E+04</rscale>
<asrwt>0</asrwt>
<pdfrwt beam="1">  1        2 0.55437578E-01 0.14645619E+04</pdfrwt>
<pdfrwt beam="2">  1       -1 0.22894151E+00 0.14645619E+04</pdfrwt>
<totfact> 0.95150036E+00</totfact>
</mgrwt>
</event>
<event>
12    6  0.1457317E-007  0.1768830E+04  0.7818608E-02  0.8723053E-01
          2   -1    0    0  501    0  0.00000000000E+00  0.00000000000E+00  0.50343448105E+03  0.50343448105E+03  0.00000000000E+00 0. -1.
         -1   -1    0    0    0  501 -0.00000000000E+00 -0.00000000000E+00 -0.15537071900E+04  0.15537071900E+04  0.00000000000E+00 0.  1.
         24    2    1    2    0    0  0.11099357066E+02 -0.52852785895E+03 -0.81078830887E+03  0.97126157060E+03  0.80662651262E+02 0.  0.
        254    2    1    2    0    0 -0.11099357066E+02  0.52852785895E+03 -0.23948440012E+03  0.10858801005E+04  0.91777879759E+03 0.  0.
         23    2    4    4    0    0 -0.19897408432E+03  0.73008948410E+03 -0.11744729071E+03  0.77103813770E+03  0.89914418507E+02 0.  0.
         23    2    4    4    0    0  0.18787472726E+03 -0.20156162515E+03 -0.12203710941E+03  0.31484196279E+03  0.91150444774E+02 0.  0.
          4    1    3    3  502    0  0.32894553353E+02 -0.19404090583E+03 -0.34860003104E+03  0.40031975521E+03  0.00000000000E+00 0. -1.
         -3    1    3    3    0  502 -0.21795196287E+02 -0.33448695312E+03 -0.46218827783E+03  0.57094181539E+03  0.00000000000E+00 0.  1.
         11    1    5    5    0    0 -0.15323717965E+03  0.57630269205E+03 -0.54957740122E+02  0.59885455604E+03  0.00000000000E+00 0. -1.
        -11    1    5    5    0    0 -0.45736904675E+02  0.15378679206E+03 -0.62489550586E+02  0.17218358166E+03  0.00000000000E+00 0.  1.
          2    1    6    6  503    0  0.10401731444E+03 -0.13617613396E+03 -0.29498500977E+02  0.17387841362E+03  0.00000000000E+00 0. -1.
         -2    1    6    6    0  503  0.83857412819E+02 -0.65385491194E+02 -0.92538608434E+02  0.14096354917E+03  0.00000000000E+00 0.  1.
<mgrwt>
<rscale>  0 0.17688299E+04</rscale>
<asrwt>0</asrwt>
<pdfrwt beam="1">  1        2 0.77451459E-01 0.17688299E+04</pdfrwt>
<pdfrwt beam="2">  1       -1 0.23903187E+00 0.17688299E+04</pdfrwt>
<totfact> 0.54359679E+00</totfact>
</mgrwt>
</event>
<event>
12    6  0.1457317E-007  0.1054709E+04  0.7818608E-02  0.9250496E-01
         -1   -1    0    0    0  501 -0.00000000000E+00  0.00000000000E+00  0.11110708470E+04  0.11110708470E+04  0.00000000000E+00 0.  1.
          2   -1    0    0  501    0  0.00000000000E+00 -0.00000000000E+00 -0.25030167798E+03  0.25030167798E+03  0.00000000000E+00 0. -1.
         24    2    1    2    0    0 -0.11042991432E+03 -0.34545035931E+02  0.19395163246E+03  0.24024041047E+03  0.81915161032E+02 0.  0.
        254    2    1    2    0    0  0.11042991432E+03  0.34545035931E+02  0.66681753654E+03  0.11211321145E+04  0.89381399945E+03 0.  0.
         23    2    4    4    0    0 -0.22199873546E+03  0.26611095463E+03  0.60285052152E+03  0.70110511298E+03  0.89560869917E+02 0.  0.
         23    2    4    4    0    0  0.33242864978E+03 -0.23156591870E+03  0.63967015014E+02  0.42002700151E+03  0.90550102625E+02 0.  0.
          2    1    3    3  502    0 -0.61793047939E+02 -0.19361158413E+02  0.35605232376E+02  0.73898361290E+02  0.00000000000E+00 0. -1.
         -1    1    3    3    0  502 -0.48636866382E+02 -0.15183877518E+02  0.15834640008E+03  0.16634204918E+03  0.00000000000E+00 0.  1.
         11    1    5    5    0    0 -0.11579012813E+03  0.19742341543E+03  0.42728396883E+03  0.48472151670E+03  0.00000000000E+00 0.  1.
        -11    1    5    5    0    0 -0.10620860734E+03  0.68687539199E+02  0.17556655269E+03  0.21638359628E+03  0.00000000000E+00 0. -1.
          2    1    6    6  503    0  0.49675996259E+02 -0.80279301757E+02  0.12105527429E+02  0.95178856314E+02  0.00000000000E+00 0. -1.
         -2    1    6    6    0  503  0.28275265352E+03 -0.15128661694E+03  0.51861487586E+02  0.32484814519E+03  0.00000000000E+00 0.  1.
<mgrwt>
<rscale>  0 0.10547092E+04</rscale>
<asrwt>0</asrwt>
<pdfrwt beam="1">  1        2 0.38507951E-01 0.10547092E+04</pdfrwt>
<pdfrwt beam="2">  1       -1 0.17093397E+00 0.10547092E+04</pdfrwt>
<totfact> 0.37179371E+01</totfact>
</mgrwt>
</event>
<event>
12    6  0.1457317E-007  0.1801000E+04  0.7818608E-02  0.8705768E-01
          2   -1    0    0  501    0  0.00000000000E+00  0.00000000000E+00  0.12758188074E+04  0.12758188074E+04  0.00000000000E+00 0. -1.
         -1   -1    0    0    0  501 -0.00000000000E+00 -0.00000000000E+00 -0.63559174495E+03  0.63559174495E+03  0.00000000000E+00 0.  1.
         24    2    1    2    0    0 -0.33712070762E+03  0.51534421694E+03 -0.58932267623E+02  0.62370796841E+03  0.79426596593E+02 0.  0.
        254    2    1    2    0    0  0.33712070762E+03 -0.51534421694E+03  0.69915933009E+03  0.12877025840E+04  0.88888927456E+03 0.  0.
         23    2    4    4    0    0  0.49026542099E+03 -0.33598294462E+03  0.81161897840E+03  0.10100790224E+04  0.91046929581E+02 0.  0.
         23    2    4    4    0    0 -0.15314471337E+03 -0.17936127232E+03 -0.11245964831E+03  0.27762356152E+03  0.93829100873E+02 0.  0.
          4    1    3    3  502    0 -0.54195165601E+02  0.76898789584E+02  0.19396229532E+02  0.96055991661E+02  0.00000000000E+00 0. -1.
         -3    1    3    3    0  502 -0.28292554202E+03  0.43844542736E+03 -0.78328497155E+02  0.52765197675E+03  0.00000000000E+00 0.  1.
         11    1    5    5    0    0  0.71466272619E+02 -0.53313058947E+02  0.18304175188E+03  0.20360253758E+03  0.00000000000E+00 0. -1.
        -11    1    5    5    0    0  0.41879914837E+03 -0.28266988567E+03  0.62857722652E+03  0.80647648486E+03  0.00000000000E+00 0.  1.
          2    1    6    6  503    0 -0.11625556585E+03 -0.16505095117E+03 -0.12334970324E+03  0.23658470442E+03  0.00000000000E+00 0. -1.
         -2    1    6    6    0  503 -0.36889147513E+02 -0.14310321152E+02  0.10890054932E+02  0.41038857101E+02  0.00000000000E+00 0.  1.
<mgrwt>
<rscale>  0 0.18009996E+04</rscale>
<asrwt>0</asrwt>
<pdfrwt beam="1">  1        2 0.19627982E+00 0.18009996E+04</pdfrwt>
<pdfrwt beam="2">  1       -1 0.97783345E-01 0.18009996E+04</pdfrwt>
<totfact> 0.18439029E+01</totfact>
</mgrwt>
</event>
<event>
12    6  0.1457317E-007  0.1367879E+04  0.7818608E-02  0.8977403E-01
          2   -1    0    0  501    0  0.00000000000E+00  0.00000000000E+00  0.14564457000E+04  0.14564457000E+04  0.00000000000E+00 0. -1.
         -1   -1    0    0    0  501 -0.00000000000E+00 -0.00000000000E+00 -0.32117434015E+03  0.32117434015E+03  0.00000000000E+00 0.  1.
         24    2    1    2    0    0  0.56355271478E+02  0.13518099522E+03  0.78873384744E+03  0.80668265127E+03  0.84770275883E+02 0.  0.
        254    2    1    2    0    0 -0.56355271478E+02 -0.13518099522E+03  0.34653751236E+03  0.97093738883E+03  0.89508734069E+03 0.  0.
         23    2    4    4    0    0 -0.43055013074E+03  0.10383761943E+03  0.20767422064E+03  0.49708549283E+03  0.88372727560E+02 0.  0.
         23    2    4    4    0    0  0.37419485926E+03 -0.23901861465E+03  0.13886329172E+03  0.47385189601E+03  0.90005081619E+02 0.  0.
          4    1    3    3  502    0  0.40988606571E+02  0.12505861265E+03  0.76698506194E+03  0.77819393965E+03  0.00000000000E+00 0. -1.
         -3    1    3    3    0  502  0.15366664906E+02  0.10122382568E+02  0.21748785499E+02  0.28488711622E+02  0.00000000000E+00 0.  1.
         11    1    5    5    0    0 -0.39087359967E+03  0.65526086527E+02  0.18635246860E+03  0.43795328687E+03  0.00000000000E+00 0.  1.
        -11    1    5    5    0    0 -0.39676531070E+02  0.38311532898E+02  0.21321752039E+02  0.59132205952E+02  0.00000000000E+00 0. -1.
          1    1    6    6  503    0  0.71939006763E+02 -0.83822599064E+02  0.57257819765E+02  0.12441827330E+03  0.00000000000E+00 0. -1.
         -1    1    6    6    0  503  0.30225585250E+03 -0.15519601558E+03  0.81605471959E+02  0.34943362270E+03  0.00000000000E+00 0.  1.
<mgrwt>
<rscale>  0 0.13678786E+04</rscale>
<asrwt>0</asrwt>
<pdfrwt beam="1">  1        2 0.22406857E+00 0.13678786E+04</pdfrwt>
<pdfrwt beam="2">  1       -1 0.49411438E-01 0.13678786E+04</pdfrwt>
<totfact> 0.61311951E+01</totfact>
</mgrwt>
</event>
<event>
12    6  0.1457317E-007  0.1835481E+04  0.7818608E-02  0.8687655E-01
         -1   -1    0    0    0  501 -0.00000000000E+00  0.00000000000E+00  0.34094841799E+03  0.34094841799E+03  0.00000000000E+00 0.  1.
          2   -1    0    0  501    0  0.00000000000E+00 -0.00000000000E+00 -0.24703081944E+04  0.24703081944E+04  0.00000000000E+00 0. -1.
         24    2    1    2    0    0  0.51598806611E+01 -0.27390992127E+03  0.16797552509E+03  0.33055736261E+03  0.77454009646E+02 0.  0.
        254    2    1    2    0    0 -0.51598806611E+01  0.27390992127E+03 -0.22973353015E+04  0.24806992497E+04  0.89502291089E+03 0.  0.
         23    2    4    4    0    0  0.42733995165E+03  0.20851301186E+03 -0.13193992264E+04  0.14055017815E+04  0.92324584428E+02 0.  0.
         23    2    4    4    0    0 -0.43249983231E+03  0.65396909412E+02 -0.97793607510E+03  0.10751974682E+04  0.91420829333E+02 0.  0.
          4    1    3    3  502    0 -0.10879206822E+00 -0.22821449818E+03  0.10161801880E+03  0.24981611389E+03  0.00000000000E+00 0. -1.
         -3    1    3    3    0  502  0.52686727294E+01 -0.45695423087E+02  0.66357506294E+02  0.80741248720E+02  0.00000000000E+00 0.  1.
         11    1    5    5    0    0  0.11229590365E+03  0.37030720185E+02 -0.23072452054E+03  0.25925942334E+03  0.00000000000E+00 0.  1.
        -11    1    5    5    0    0  0.31504404799E+03  0.17148229167E+03 -0.10886747058E+04  0.11462423582E+04  0.00000000000E+00 0. -1.
          3    1    6    6  503    0 -0.32013153220E+03  0.33095617816E+02 -0.61851259329E+03  0.69723550245E+03  0.00000000000E+00 0. -1.
         -3    1    6    6    0  503 -0.11236830011E+03  0.32301291596E+02 -0.35942348181E+03  0.37796196579E+03  0.00000000000E+00 0.  1.
<mgrwt>
<rscale>  0 0.18354810E+04</rscale>
<asrwt>0</asrwt>
<pdfrwt beam="1">  1        2 0.38004742E+00 0.18354810E+04</pdfrwt>
<pdfrwt beam="2">  1       -1 0.52453602E-01 0.18354810E+04</pdfrwt>
<totfact> 0.14228285E+01</totfact>
</mgrwt>
</event>
<event>
12    6  0.1457317E-007  0.1194215E+04  0.7818608E-02  0.9117935E-01
         -1   -1    0    0    0  501 -0.00000000000E+00  0.00000000000E+00  0.81535863511E+03  0.81535863511E+03  0.00000000000E+00 0.  1.
          2   -1    0    0  501    0  0.00000000000E+00 -0.00000000000E+00 -0.43727681836E+03  0.43727681836E+03  0.00000000000E+00 0. -1.
         24    2    1    2    0    0  0.40353638014E+02  0.25078227713E+03  0.26299812900E+03  0.37430472668E+03  0.80098975881E+02 0.  0.
        254    2    1    2    0    0 -0.40353638014E+02 -0.25078227713E+03  0.11508368775E+03  0.87833072679E+03  0.83288681332E+03 0.  0.
         23    2    4    4    0    0 -0.41837024576E+03 -0.50629882440E+02  0.26989994555E+02  0.43218619707E+03  0.91975005258E+02 0.  0.
         23    2    4    4    0    0  0.37801660775E+03 -0.20015239469E+03  0.88093693198E+02  0.44614452972E+03  0.91251880994E+02 0.  0.
          2    1    3    3  502    0  0.61538584832E+01  0.14236843819E+03  0.94296651558E+02  0.17087568774E+03  0.00000000000E+00 0. -1.
         -1    1    3    3    0  502  0.34199779530E+02  0.10841383895E+03  0.16870147744E+03  0.20342903894E+03  0.00000000000E+00 0.  1.
         11    1    5    5    0    0 -0.38535395988E+03 -0.70854576081E+02  0.16916323797E+02  0.39217879514E+03  0.00000000000E+00 0.  1.
        -11    1    5    5    0    0 -0.33016285888E+02  0.20224693640E+02  0.10073670758E+02  0.40007401930E+02  0.00000000000E+00 0. -1.
          4    1    6    6  503    0  0.21310883804E+03 -0.11085991662E+03  0.30676568993E+01  0.24023885715E+03  0.00000000000E+00 0. -1.
         -4    1    6    6    0  503  0.16490776971E+03 -0.89292478073E+02  0.85026036298E+02  0.20590567258E+03  0.00000000000E+00 0.  1.
<mgrwt>
<rscale>  0 0.11942151E+04</rscale>
<asrwt>0</asrwt>
<pdfrwt beam="1">  1        2 0.67273357E-01 0.11942151E+04</pdfrwt>
<pdfrwt beam="2">  1       -1 0.12543979E+00 0.11942151E+04</pdfrwt>
<totfact> 0.45043206E+01</totfact>
</mgrwt>
</event>
<event>
12    6  0.1457317E-007  0.2520959E+04  0.7818608E-02  0.8395557E-01
          2   -1    0    0  501    0  0.00000000000E+00  0.00000000000E+00  0.52229844478E+03  0.52229844478E+03  0.00000000000E+00 0. -1.
         -1   -1    0    0    0  501 -0.00000000000E+00 -0.00000000000E+00 -0.30419561737E+04  0.30419561737E+04  0.00000000000E+00 0.  1.
         24    2    1    2    0    0  0.11182984104E+03  0.47165159274E+03  0.29237734102E+03  0.57183107655E+03  0.80901991861E+02 0.  0.
        254    2    1    2    0    0 -0.11182984104E+03 -0.47165159274E+03 -0.28120350699E+04  0.29924235419E+04  0.90116384832E+03 0.  0.
         23    2    4    4    0    0  0.33889939510E+03 -0.18994425989E+02 -0.13374474147E+04  0.13828619540E+04  0.91257922410E+02 0.  0.
         23    2    4    4    0    0 -0.45072923614E+03 -0.45265716675E+03 -0.14745876552E+04  0.16095615880E+04  0.90688464590E+02 0.  0.
          2    1    3    3  502    0  0.11597315063E+03  0.45764438582E+03  0.26655112623E+03  0.54216017784E+03  0.00000000000E+00 0. -1.
         -1    1    3    3    0  502 -0.41433095910E+01  0.14007206916E+02  0.25826214784E+02  0.29670898706E+02  0.00000000000E+00 0.  1.
         11    1    5    5    0    0  0.23690671184E+03 -0.49288219437E+02 -0.10090538184E+04  0.10376626269E+04  0.00000000000E+00 0.  1.
        -11    1    5    5    0    0  0.10199268326E+03  0.30293793448E+02 -0.32839359627E+03  0.34519932710E+03  0.00000000000E+00 0. -1.
          4    1    6    6  503    0 -0.10495640039E+03 -0.14864048809E+03 -0.48825718296E+03  0.52106133746E+03  0.00000000000E+00 0. -1.
         -4    1    6    6    0  503 -0.34577283575E+03 -0.30401667865E+03 -0.98633047227E+03  0.10885002505E+04  0.00000000000E+00 0.  1.
<mgrwt>
<rscale>  0 0.25209593E+04</rscale>
<asrwt>0</asrwt>
<pdfrwt beam="1">  1        2 0.80353607E-01 0.25209593E+04</pdfrwt>
<pdfrwt beam="2">  1       -1 0.46799326E+00 0.25209593E+04</pdfrwt>
<totfact> 0.14455604E-01</totfact>
</mgrwt>
</event>
<event>
12    6  0.1457317E-007  0.1421571E+04  0.7818608E-02  0.8938351E-01
          2   -1    0    0  501    0  0.00000000000E+00  0.00000000000E+00  0.64486657270E+03  0.64486657270E+03  0.00000000000E+00 0. -1.
         -1   -1    0    0    0  501 -0.00000000000E+00 -0.00000000000E+00 -0.78344243348E+03  0.78344243348E+03  0.00000000000E+00 0.  1.
         24    2    1    2    0    0  0.30236132460E+03  0.29801164499E+03  0.30952312848E+02  0.43333682036E+03  0.81175384495E+02 0.  0.
        254    2    1    2    0    0 -0.30236132460E+03 -0.29801164499E+03 -0.16952817363E+03  0.99497218582E+03  0.88374008494E+03 0.  0.
         23    2    4    4    0    0  0.94719989810E+02 -0.17673366471E+03  0.29304618356E+03  0.36687209548E+03  0.92262690365E+02 0.  0.
         23    2    4    4    0    0 -0.39708131441E+03 -0.12127798027E+03 -0.46257435719E+03  0.62810009033E+03  0.90292684032E+02 0.  0.
          2    1    3    3  502    0  0.11047162051E+03  0.10675787839E+03 -0.27784216650E+02  0.15611914114E+03  0.00000000000E+00 0. -1.
         -1    1    3    3    0  502  0.19188970410E+03  0.19125376660E+03  0.58736529498E+02  0.27721767922E+03  0.00000000000E+00 0.  1.
         11    1    5    5    0    0  0.10594046831E+02  0.10229821918E+02  0.29505152641E+02  0.32976311454E+02  0.00000000000E+00 0. -1.
        -11    1    5    5    0    0  0.84125942979E+02 -0.18696348663E+03  0.26354103092E+03  0.33389578403E+03  0.00000000000E+00 0.  1.
          1    1    6    6  503    0 -0.15575317893E+03 -0.92435329506E+02 -0.21585456872E+03  0.28177391243E+03  0.00000000000E+00 0. -1.
         -1    1    6    6    0  503 -0.24132813548E+03 -0.28842650768E+02 -0.24671978847E+03  0.34632617790E+03  0.00000000000E+00 0.  1.
<mgrwt>
<rscale>  0 0.14215707E+04</rscale>
<asrwt>0</asrwt>
<pdfrwt beam="1">  1        2 0.99210243E-01 0.14215707E+04</pdfrwt>
<pdfrwt beam="2">  1       -1 0.12052960E+00 0.14215707E+04</pdfrwt>
<totfact> 0.30884505E+01</totfact>
</mgrwt>
</event>
<event>
12    6  0.1457317E-007  0.1870676E+04  0.7818608E-02  0.8669592E-01
         -1   -1    0    0    0  501 -0.00000000000E+00  0.00000000000E+00  0.99665829937E+03  0.99665829937E+03  0.00000000000E+00 0.  1.
          2   -1    0    0  501    0  0.00000000000E+00 -0.00000000000E+00 -0.87779081569E+03  0.87779081569E+03  0.00000000000E+00 0. -1.
         24    2    1    2    0    0 -0.17873391428E+03  0.28665643180E+03  0.67930264356E+03  0.76305618778E+03  0.81761495576E+02 0.  0.
        254    2    1    2    0    0  0.17873391428E+03 -0.28665643180E+03 -0.56043515987E+03  0.11113929273E+04  0.89832563605E+03 0.  0.
         23    2    4    4    0    0 -0.16549143592E+03 -0.39930798342E+03 -0.43021485160E+01  0.44179363182E+03  0.91262389028E+02 0.  0.
         23    2    4    4    0    0  0.34422535020E+03  0.11265155162E+03 -0.55613301135E+03  0.66959929546E+03  0.88869715643E+02 0.  0.
          2    1    3    3  502    0 -0.38645600728E+02  0.59135455056E+02  0.79013429292E+02  0.10598870935E+03  0.00000000000E+00 0. -1.
         -1    1    3    3    0  502 -0.14008831355E+03  0.22752097675E+03  0.60028921426E+03  0.65706747843E+03  0.00000000000E+00 0.  1.
         11    1    5    5    0    0 -0.93971470439E+02 -0.26863434730E+03  0.37544545770E+02  0.28706208862E+03  0.00000000000E+00 0.  1.
        -11    1    5    5    0    0 -0.71519965480E+02 -0.13067363612E+03 -0.41846694286E+02  0.15473154320E+03  0.00000000000E+00 0. -1.
          1    1    6    6  503    0  0.14814020455E+03  0.42411491323E+02 -0.16054956028E+03  0.22253183167E+03  0.00000000000E+00 0. -1.
         -1    1    6    6    0  503  0.19608514566E+03  0.70240060294E+02 -0.39558345108E+03  0.44706746379E+03  0.00000000000E+00 0.  1.
<mgrwt>
<rscale>  0 0.18706763E+04</rscale>
<asrwt>0</asrwt>
<pdfrwt beam="1">  1        2 0.13504474E+00 0.18706763E+04</pdfrwt>
<pdfrwt beam="2">  1       -1 0.15333205E+00 0.18706763E+04</pdfrwt>
<totfact> 0.10692383E+01</totfact>
</mgrwt>
</event>
<event>
12    6  0.1457317E-007  0.2055961E+04  0.7818608E-02  0.8580895E-01
         -1   -1    0    0    0  501 -0.00000000000E+00  0.00000000000E+00  0.27345233954E+03  0.27345233954E+03  0.00000000000E+00 0.  1.
          2   -1    0    0  501    0  0.00000000000E+00 -0.00000000000E+00 -0.38644532196E+04  0.38644532196E+04  0.00000000000E+00 0. -1.
         24    2    1    2    0    0  0.64271446556E+03 -0.39956091067E+03 -0.21029727084E+04  0.22364709413E+04  0.81100268373E+02 0.  0.
        254    2    1    2    0    0 -0.64271446556E+03  0.39956091067E+03 -0.14880281717E+04  0.19014346178E+04  0.91021698547E+03 0.  0.
         23    2    4    4    0    0 -0.74020790490E+03  0.58753074859E+03 -0.11359478836E+04  0.14803178370E+04  0.88674579618E+02 0.  0.
         23    2    4    4    0    0  0.97493439339E+02 -0.18796983792E+03 -0.35208028803E+03  0.42111678087E+03  0.92418522133E+02 0.  0.
          2    1    3    3  502    0  0.64050228360E+03 -0.40174585707E+03 -0.21007043452E+04  0.22326221478E+04  0.00000000000E+00 0. -1.
         -3    1    3    3    0  502  0.22121819605E+01  0.21849464070E+01 -0.22683631906E+01  0.38487934983E+01  0.00000000000E+00 0.  1.
         11    1    5    5    0    0 -0.37277368188E+03  0.31779272676E+03 -0.65197370807E+03  0.81548890311E+03  0.00000000000E+00 0.  1.
        -11    1    5    5    0    0 -0.36743422302E+03  0.26973802183E+03 -0.48397417557E+03  0.66482893385E+03  0.00000000000E+00 0. -1.
          3    1    6    6  503    0  0.11381326450E+03 -0.17492375511E+03 -0.30449127018E+03  0.36914321462E+03  0.00000000000E+00 0. -1.
         -3    1    6    6    0  503 -0.16319825165E+02 -0.13046082809E+02 -0.47589017843E+02  0.51973566256E+02  0.00000000000E+00 0.  1.
<mgrwt>
<rscale>  0 0.20559609E+04</rscale>
<asrwt>0</asrwt>
<pdfrwt beam="1">  1        2 0.59453124E+00 0.20559609E+04</pdfrwt>
<pdfrwt beam="2">  1       -1 0.42069592E-01 0.20559609E+04</pdfrwt>
<totfact> 0.25811138E+00</totfact>
</mgrwt>
</event>
<event>
12    6  0.1457317E-007  0.1670712E+04  0.7818608E-02  0.8778247E-01
         -1   -1    0    0    0  501 -0.00000000000E+00  0.00000000000E+00  0.27015355563E+03  0.27015355563E+03  0.00000000000E+00 0.  1.
          2   -1    0    0  501    0  0.00000000000E+00 -0.00000000000E+00 -0.25830474005E+04  0.25830474005E+04  0.00000000000E+00 0. -1.
         24    2    1    2    0    0 -0.14219441036E+03  0.53103187163E+03 -0.11581623631E+04  0.12844936111E+04  0.79810265958E+02 0.  0.
        254    2    1    2    0    0  0.14219441036E+03 -0.53103187163E+03 -0.11547314817E+04  0.15687073450E+04  0.90841831794E+03 0.  0.
         23    2    4    4    0    0 -0.19128762098E+03  0.69782868678E+02 -0.71239228714E+03  0.74652254187E+03  0.91282703938E+02 0.  0.
         23    2    4    4    0    0  0.33348203135E+03 -0.60081474031E+03 -0.44233919453E+03  0.82218480310E+03  0.90195731743E+02 0.  0.
          4    1    3    3  502    0 -0.81734360716E+02  0.41796116848E+03 -0.85004401480E+03  0.95076120617E+03  0.00000000000E+00 0. -1.
         -3    1    3    3    0  502 -0.60460049646E+02  0.11307070316E+03 -0.30811834835E+03  0.33373240494E+03  0.00000000000E+00 0.  1.
         11    1    5    5    0    0 -0.14738671364E+03  0.47422322496E+02 -0.64326270698E+03  0.66163330495E+03  0.00000000000E+00 0. -1.
        -11    1    5    5    0    0 -0.43900907348E+02  0.22360546181E+02 -0.69129580160E+02  0.84889236918E+02  0.00000000000E+00 0.  1.
          2    1    6    6  503    0  0.62725846508E+02 -0.19764153653E+03 -0.12803286658E+03  0.24369883813E+03  0.00000000000E+00 0.  1.
         -2    1    6    6    0  503  0.27075618484E+03 -0.40317320378E+03 -0.31430632795E+03  0.57848596497E+03  0.00000000000E+00 0. -1.
<mgrwt>
<rscale>  0 0.16707118E+04</rscale>
<asrwt>0</asrwt>
<pdfrwt beam="1">  1        2 0.39739190E+00 0.16707118E+04</pdfrwt>
<pdfrwt beam="2">  1       -1 0.41562087E-01 0.16707118E+04</pdfrwt>
<totfact> 0.19238347E+01</totfact>
</mgrwt>
</event>
<event>
12    6  0.1457317E-007  0.2015066E+04  0.7818608E-02  0.8599609E-01
         -3   -1    0    0    0  501 -0.00000000000E+00  0.00000000000E+00  0.81024139260E+03  0.81024139260E+03  0.00000000000E+00 0.  1.
          2   -1    0    0  501    0  0.00000000000E+00 -0.00000000000E+00 -0.12528647870E+04  0.12528647870E+04  0.00000000000E+00 0. -1.
         24    2    1    2    0    0 -0.54121509706E+03 -0.36699945463E+03 -0.65046030009E+03  0.92537563648E+03  0.74960560390E+02 0.  0.
        254    2    1    2    0    0  0.54121509706E+03  0.36699945463E+03  0.20783690572E+03  0.11377305431E+04  0.90754186038E+03 0.  0.
         23    2    4    4    0    0  0.19363892113E+03 -0.25007054435E+03 -0.12200122463E+03  0.35107456904E+03  0.91311254983E+02 0.  0.
         23    2    4    4    0    0  0.34757617593E+03  0.61706999898E+03  0.32983813035E+03  0.78665597405E+03  0.91923052439E+02 0.  0.
          4    1    3    3  502    0 -0.50743863786E+03 -0.32669468158E+03 -0.61679342278E+03  0.86293540462E+03  0.00000000000E+00 0. -1.
         -3    1    3    3    0  502 -0.33776459194E+02 -0.40304773051E+02 -0.33666877314E+02  0.62440231858E+02  0.00000000000E+00 0.  1.
         11    1    5    5    0    0  0.35782497058E+02 -0.11583031896E+03 -0.33704922514E+02  0.12582953424E+03  0.00000000000E+00 0.  1.
        -11    1    5    5    0    0  0.15785642407E+03 -0.13424022540E+03 -0.88296302120E+02  0.22524503480E+03  0.00000000000E+00 0. -1.
          2    1    6    6  503    0  0.27791217595E+03  0.54453726431E+03  0.30426900579E+03  0.68288771965E+03  0.00000000000E+00 0. -1.
         -2    1    6    6    0  503  0.69663999978E+02  0.72532734667E+02  0.25569124561E+02  0.10376825440E+03  0.00000000000E+00 0.  1.
<mgrwt>
<rscale>  0 0.20150662E+04</rscale>
<asrwt>0</asrwt>
<pdfrwt beam="1">  1        2 0.19274843E+00 0.20150662E+04</pdfrwt>
<pdfrwt beam="2">  1       -3 0.12465252E+00 0.20150662E+04</pdfrwt>
<totfact> 0.53374379E+00</totfact>
</mgrwt>
</event>
<event>
12    6  0.1457317E-007  0.3504478E+04  0.7818608E-02  0.8112730E-01
          2   -1    0    0  501    0  0.00000000000E+00  0.00000000000E+00  0.10496914286E+04  0.10496914286E+04  0.00000000000E+00 0. -1.
         -1   -1    0    0    0  501 -0.00000000000E+00 -0.00000000000E+00 -0.29249941448E+04  0.29249941448E+04  0.00000000000E+00 0.  1.
         24    2    1    2    0    0 -0.28929702513E+03  0.67664663135E+03 -0.25334966438E+04  0.26394058292E+04  0.79463543559E+02 0.  0.
        254    2    1    2    0    0  0.28929702513E+03 -0.67664663135E+03  0.65819392761E+03  0.13352797441E+04  0.89900462525E+03 0.  0.
         23    2    4    4    0    0  0.41584322370E+03 -0.38616498042E+02  0.33702083730E+02  0.42888939897E+03  0.91615858241E+02 0.  0.
         23    2    4    4    0    0 -0.12654619857E+03 -0.63803013331E+03  0.62449184388E+03  0.90639034514E+03  0.91961966652E+02 0.  0.
          4    1    3    3  502    0 -0.99301828420E+02  0.24928255901E+03 -0.10618084769E+04  0.10951894306E+04  0.00000000000E+00 0. -1.
         -3    1    3    3    0  502 -0.18999519671E+03  0.42736407234E+03 -0.14716881669E+04  0.15442163986E+04  0.00000000000E+00 0.  1.
         11    1    5    5    0    0  0.39109116314E+03 -0.58833831765E+02  0.28590900148E+02  0.39652384193E+03  0.00000000000E+00 0.  1.
        -11    1    5    5    0    0  0.24752060558E+02  0.20217333723E+02  0.51111835817E+01  0.32365557038E+02  0.00000000000E+00 0. -1.
          1    1    6    6  503    0 -0.43223825728E+01  0.21071090492E+01  0.21522428018E+01  0.52683060587E+01  0.00000000000E+00 0. -1.
         -1    1    6    6    0  503 -0.12222381600E+03 -0.64013724236E+03  0.62233960108E+03  0.90112203908E+03  0.00000000000E+00 0.  1.
<mgrwt>
<rscale>  0 0.35044779E+04</rscale>
<asrwt>0</asrwt>
<pdfrwt beam="1">  1        2 0.16149099E+00 0.35044779E+04</pdfrwt>
<pdfrwt beam="2">  1       -1 0.44999910E+00 0.35044779E+04</pdfrwt>
<totfact> 0.70869164E-02</totfact>
</mgrwt>
</event>
<event>
12    6  0.1457317E-007  0.1512167E+04  0.7818608E-02  0.8876402E-01
          2   -1    0    0  501    0  0.00000000000E+00  0.00000000000E+00  0.22910183405E+04  0.22910183405E+04  0.00000000000E+00 0. -1.
         -1   -1    0    0    0  501 -0.00000000000E+00 -0.00000000000E+00 -0.24952315762E+03  0.24952315762E+03  0.00000000000E+00 0.  1.
         24    2    1    2    0    0  0.41426474476E+03  0.90554768701E+02  0.36772291955E+03  0.56693613726E+03  0.79881119662E+02 0.  0.
        254    2    1    2    0    0 -0.41426474476E+03 -0.90554768701E+02  0.16737722633E+04  0.19736053609E+04  0.95592315907E+03 0.  0.
         23    2    4    4    0    0 -0.56763067406E+03 -0.36536400978E+03  0.86836062657E+03  0.11038545536E+04  0.93537457495E+02 0.  0.
         23    2    4    4    0    0  0.15336592930E+03  0.27480924108E+03  0.80541163676E+03  0.86975080726E+03  0.93473712058E+02 0.  0.
          4    1    3    3  502    0  0.17948373794E+02 -0.72406592458E+01  0.36273061746E+02  0.41113334535E+02  0.00000000000E+00 0. -1.
         -3    1    3    3    0  502  0.39631637096E+03  0.97795427947E+02  0.33144985781E+03  0.52582280272E+03  0.00000000000E+00 0.  1.
         11    1    5    5    0    0 -0.33485731930E+03 -0.26918473291E+03  0.54623657980E+03  0.69495629059E+03  0.00000000000E+00 0.  1.
        -11    1    5    5    0    0 -0.23277335476E+03 -0.96179276871E+02  0.32212404677E+03  0.40889826301E+03  0.00000000000E+00 0. -1.
          3    1    6    6  503    0  0.10594397117E+03  0.96148947270E+02  0.37228298311E+03  0.39882748727E+03  0.00000000000E+00 0. -1.
         -3    1    6    6    0  503  0.47421958133E+02  0.17866029381E+03  0.43312865365E+03  0.47092331999E+03  0.00000000000E+00 0.  1.
<mgrwt>
<rscale>  0 0.15121668E+04</rscale>
<asrwt>0</asrwt>
<pdfrwt beam="1">  1        2 0.35246435E+00 0.15121668E+04</pdfrwt>
<pdfrwt beam="2">  1       -1 0.38388180E-01 0.15121668E+04</pdfrwt>
<totfact> 0.33162804E+01</totfact>
</mgrwt>
</event>
<event>
12    6  0.1457317E-007  0.1599642E+04  0.7818608E-02  0.8820768E-01
          2   -1    0    0  501    0  0.00000000000E+00  0.00000000000E+00  0.21302933732E+04  0.21302933732E+04  0.00000000000E+00 0. -1.
         -1   -1    0    0    0  501 -0.00000000000E+00 -0.00000000000E+00 -0.30029351365E+03  0.30029351365E+03  0.00000000000E+00 0.  1.
         24    2    1    2    0    0 -0.28728759499E+03 -0.44621393350E+03  0.85838566508E+03  0.10123443846E+04  0.79838376884E+02 0.  0.
        254    2    1    2    0    0  0.28728759499E+03  0.44621393350E+03  0.97161419444E+03  0.14182425022E+04  0.88641785600E+03 0.  0.
         23    2    4    4    0    0 -0.23806484833E+03  0.40376937981E+03  0.59597723315E+03  0.76372676430E+03  0.91570322697E+02 0.  0.
         23    2    4    4    0    0  0.52535244331E+03  0.42444553690E+02  0.37563696129E+03  0.65451573787E+03  0.97421735764E+02 0.  0.
          2    1    3    3  502    0 -0.26330817640E+03 -0.35420090209E+03  0.69455787664E+03  0.82292169665E+03  0.00000000000E+00 0. -1.
         -3    1    3    3    0  502 -0.23979418584E+02 -0.92013031411E+02  0.16382778843E+03  0.18942268800E+03  0.00000000000E+00 0.  1.
         11    1    5    5    0    0 -0.12277904603E+03  0.12248766004E+03  0.20684106762E+03  0.26992804274E+03  0.00000000000E+00 0. -1.
        -11    1    5    5    0    0 -0.11528580229E+03  0.28128171977E+03  0.38913616553E+03  0.49379872156E+03  0.00000000000E+00 0.  1.
          1    1    6    6  503    0  0.18033023673E+02  0.93290122074E+01  0.41336123124E+02  0.46053181069E+02  0.00000000000E+00 0. -1.
         -1    1    6    6    0  503  0.50731941964E+03  0.33115541483E+02  0.33430083817E+03  0.60846255680E+03  0.00000000000E+00 0.  1.
<mgrwt>
<rscale>  0 0.15996416E+04</rscale>
<asrwt>0</asrwt>
<pdfrwt beam="1">  1        2 0.32773743E+00 0.15996416E+04</pdfrwt>
<pdfrwt beam="2">  1       -1 0.46199003E-01 0.15996416E+04</pdfrwt>
<totfact> 0.28788496E+01</totfact>
</mgrwt>
</event>
<event>
12    6  0.1457317E-007  0.2358879E+04  0.7818608E-02  0.8455061E-01
          2   -1    0    0  501    0  0.00000000000E+00  0.00000000000E+00  0.84282780990E+03  0.84282780990E+03  0.00000000000E+00 0. -1.
         -1   -1    0    0    0  501 -0.00000000000E+00 -0.00000000000E+00 -0.16504880592E+04  0.16504880592E+04  0.00000000000E+00 0.  1.
         24    2    1    2    0    0  0.11464411226E+03  0.91989815878E+03 -0.76998801654E+03  0.12079175112E+04  0.82627314699E+02 0.  0.
        254    2    1    2    0    0 -0.11464411226E+03 -0.91989815878E+03 -0.37672232735E+02  0.12853983579E+04  0.88964815879E+03 0.  0.
         23    2    4    4    0    0  0.24695107652E+03 -0.86764636159E+03 -0.59951349631E+02  0.90936476966E+03  0.97750074106E+02 0.  0.
         23    2    4    4    0    0 -0.36159518878E+03 -0.52251797182E+02  0.22279116896E+02  0.37603358827E+03  0.86160139279E+02 0.  0.
          4    1    3    3  502    0  0.51150825567E+02  0.54453141403E+03 -0.40536523355E+03  0.68077297273E+03  0.00000000000E+00 0. -1.
         -3    1    3    3    0  502  0.63493286691E+02  0.37536674474E+03 -0.36462278299E+03  0.52714453843E+03  0.00000000000E+00 0.  1.
         11    1    5    5    0    0  0.20605298101E+03 -0.81196132114E+03 -0.64118044456E+02  0.84014888064E+03  0.00000000000E+00 0. -1.
        -11    1    5    5    0    0  0.40898095513E+02 -0.55685040449E+02  0.41666948257E+01  0.69215889015E+02  0.00000000000E+00 0.  1.
          4    1    6    6  503    0 -0.34359307850E+03 -0.64114393463E+02  0.69725269351E+01  0.34959329967E+03  0.00000000000E+00 0. -1.
         -4    1    6    6    0  503 -0.18002110277E+02  0.11862596280E+02  0.15306589960E+02  0.26440288598E+02  0.00000000000E+00 0.  1.
<mgrwt>
<rscale>  0 0.23588787E+04</rscale>
<asrwt>0</asrwt>
<pdfrwt beam="1">  1        2 0.12966582E+00 0.23588787E+04</pdfrwt>
<pdfrwt beam="2">  1       -1 0.25392124E+00 0.23588787E+04</pdfrwt>
<totfact> 0.21718367E+00</totfact>
</mgrwt>
</event>
<event>
12    6  0.1457317E-007  0.2416561E+04  0.7818608E-02  0.8433329E-01
          2   -1    0    0  501    0  0.00000000000E+00  0.00000000000E+00  0.14462272320E+04  0.14462272320E+04  0.00000000000E+00 0. -1.
         -1   -1    0    0    0  501 -0.00000000000E+00 -0.00000000000E+00 -0.10094831058E+04  0.10094831058E+04  0.00000000000E+00 0.  1.
         24    2    1    2    0    0 -0.90152045587E+02  0.12086825222E+02 -0.86305785198E+03  0.87152809182E+03  0.80117889993E+02 0.  0.
        254    2    1    2    0    0  0.90152045587E+02 -0.12086825222E+02  0.12998019782E+04  0.15841822460E+04  0.90104091091E+03 0.  0.
         23    2    4    4    0    0 -0.34225823199E+03  0.15562520607E+03  0.84045972021E+03  0.92520781379E+03  0.90978323093E+02 0.  0.
         23    2    4    4    0    0  0.43241027757E+03 -0.16771203129E+03  0.45934225801E+03  0.65897443216E+03  0.90255297136E+02 0.  0.
          2    1    3    3  502    0 -0.48904603666E+02  0.31511255688E+02 -0.24589715436E+03  0.25268563477E+03  0.00000000000E+00 0. -1.
         -1    1    3    3    0  502 -0.41247441922E+02 -0.19424430466E+02 -0.61716069762E+03  0.61884245705E+03  0.00000000000E+00 0.  1.
         11    1    5    5    0    0 -0.16107817861E+03  0.12305677575E+03  0.43374603996E+03  0.47877424415E+03  0.00000000000E+00 0. -1.
        -11    1    5    5    0    0 -0.18118005338E+03  0.32568430316E+02  0.40671368026E+03  0.44643356964E+03  0.00000000000E+00 0.  1.
          4    1    6    6  503    0  0.11727741637E+03 -0.41280474162E+01  0.10876705507E+03  0.16000407943E+03  0.00000000000E+00 0. -1.
         -4    1    6    6    0  503  0.31513286121E+03 -0.16358398388E+03  0.35057520294E+03  0.49897035273E+03  0.00000000000E+00 0.  1.
<mgrwt>
<rscale>  0 0.24165612E+04</rscale>
<asrwt>0</asrwt>
<pdfrwt beam="1">  1        2 0.22249650E+00 0.24165612E+04</pdfrwt>
<pdfrwt beam="2">  1       -1 0.15530509E+00 0.24165612E+04</pdfrwt>
<totfact> 0.44218455E+00</totfact>
</mgrwt>
</event>
<event>
12    6  0.1457317E-007  0.2395150E+04  0.7818608E-02  0.8441322E-01
         -1   -1    0    0    0  501 -0.00000000000E+00  0.00000000000E+00  0.97731653915E+03  0.97731653915E+03  0.00000000000E+00 0.  1.
          2   -1    0    0  501    0  0.00000000000E+00 -0.00000000000E+00 -0.14674729605E+04  0.14674729605E+04  0.00000000000E+00 0. -1.
         24    2    1    2    0    0  0.22310772112E+03  0.76719348261E+03  0.46539556969E+03  0.92809777208E+03  0.80059623216E+02 0.  0.
        254    2    1    2    0    0 -0.22310772112E+03 -0.76719348261E+03 -0.95555199104E+03  0.15166917276E+04  0.86539661075E+03 0.  0.
         23    2    4    4    0    0 -0.36267698962E+03 -0.10876712433E+03 -0.68044123152E+03  0.78383835494E+03  0.89651608890E+02 0.  0.
         23    2    4    4    0    0  0.13956926850E+03 -0.65842635829E+03 -0.27511075952E+03  0.73285337263E+03  0.91560284911E+02 0.  0.
          4    1    3    3  502    0  0.25886209750E+01  0.81760429966E+02  0.32985224786E+02  0.88201439450E+02  0.00000000000E+00 0. -1.
         -3    1    3    3    0  502  0.22051910014E+03  0.68543305265E+03  0.43241034490E+03  0.83989633263E+03  0.00000000000E+00 0.  1.
         11    1    5    5    0    0 -0.31555889177E+03 -0.91681783206E+02 -0.64001812756E+03  0.71944851598E+03  0.00000000000E+00 0.  1.
        -11    1    5    5    0    0 -0.47118097851E+02 -0.17085341120E+02 -0.40423103968E+02  0.64389838955E+02  0.00000000000E+00 0. -1.
          1    1    6    6  503    0  0.66507805779E+02 -0.14163935642E+03 -0.79113555625E+02  0.17533952835E+03  0.00000000000E+00 0. -1.
         -1    1    6    6    0  503  0.73061462725E+02 -0.51678700187E+03 -0.19599720389E+03  0.55751384428E+03  0.00000000000E+00 0.  1.
<mgrwt>
<rscale>  0 0.23951498E+04</rscale>
<asrwt>0</asrwt>
<pdfrwt beam="1">  1        2 0.22576507E+00 0.23951498E+04</pdfrwt>
<pdfrwt beam="2">  1       -1 0.15035639E+00 0.23951498E+04</pdfrwt>
<totfact> 0.47052117E+00</totfact>
</mgrwt>
</event>
<event>
12    6  0.1457317E-007  0.1330765E+04  0.7818608E-02  0.9005518E-01
         -1   -1    0    0    0  501 -0.00000000000E+00  0.00000000000E+00  0.56936323634E+03  0.56936323634E+03  0.00000000000E+00 0.  1.
          2   -1    0    0  501    0  0.00000000000E+00 -0.00000000000E+00 -0.77759478857E+03  0.77759478857E+03  0.00000000000E+00 0. -1.
         24    2    1    2    0    0 -0.11731022568E+03  0.29261894546E+03  0.48298268844E+02  0.32854885448E+03  0.78892906626E+02 0.  0.
        254    2    1    2    0    0  0.11731022568E+03 -0.29261894546E+03 -0.25652982107E+03  0.10184091704E+04  0.93378913735E+03 0.  0.
         23    2    4    4    0    0 -0.39175909516E+03 -0.38878464614E+02 -0.62155169474E+02  0.40849128542E+03  0.89527322764E+02 0.  0.
         23    2    4    4    0    0  0.50906932085E+03 -0.25374048084E+03 -0.19437465160E+03  0.60991788501E+03  0.10335625878E+03 0.  0.
          2    1    3    3  502    0  0.84878438871E+01  0.79956313870E+01  0.93306511282E+01  0.14934345168E+02  0.00000000000E+00 0. -1.
         -3    1    3    3    0  502 -0.12579806957E+03  0.28462331407E+03  0.38967617716E+02  0.31361450931E+03  0.00000000000E+00 0.  1.
         11    1    5    5    0    0 -0.14900103149E+03 -0.58558757564E+02 -0.28762674827E+02  0.16265831345E+03  0.00000000000E+00 0.  1.
        -11    1    5    5    0    0 -0.24275806367E+03  0.19680292950E+02 -0.33392494647E+02  0.24583297197E+03  0.00000000000E+00 0. -1.
          3    1    6    6  503    0  0.38382386103E+03 -0.23859714355E+03 -0.14990961977E+03  0.47615359634E+03  0.00000000000E+00 0. -1.
         -3    1    6    6    0  503  0.12524545981E+03 -0.15143337289E+02 -0.44465031825E+02  0.13376428867E+03  0.00000000000E+00 0.  1.
<mgrwt>
<rscale>  0 0.13307650E+04</rscale>
<asrwt>0</asrwt>
<pdfrwt beam="1">  1        2 0.11962997E+00 0.13307650E+04</pdfrwt>
<pdfrwt beam="2">  1       -1 0.87594344E-01 0.13307650E+04</pdfrwt>
<totfact> 0.51240114E+01</totfact>
</mgrwt>
</event>
<event>
12    6  0.1457317E-007  0.2452122E+04  0.7818608E-02  0.8420244E-01
         -1   -1    0    0    0  501 -0.00000000000E+00  0.00000000000E+00  0.48067893016E+03  0.48067893016E+03  0.00000000000E+00 0.  1.
          2   -1    0    0  501    0  0.00000000000E+00 -0.00000000000E+00 -0.31272968533E+04  0.31272968533E+04  0.00000000000E+00 0. -1.
         24    2    1    2    0    0  0.11903917753E+03  0.86068359555E+03 -0.20476501216E+04  0.22256146607E+04  0.74451460151E+02 0.  0.
        254    2    1    2    0    0 -0.11903917753E+03 -0.86068359555E+03 -0.59896780157E+03  0.13823611228E+04  0.89286800205E+03 0.  0.
         23    2    4    4    0    0 -0.12973883388E+03 -0.45035204101E+03  0.16915973012E+03  0.50632472965E+03  0.90003287181E+02 0.  0.
         23    2    4    4    0    0  0.10699656356E+02 -0.41033155454E+03 -0.76812753169E+03  0.87603639315E+03  0.94516611647E+02 0.  0.
          2    1    3    3  502    0  0.11591899159E+03  0.64960529488E+03 -0.15977713874E+04  0.17286693316E+04  0.00000000000E+00 0. -1.
         -1    1    3    3    0  502  0.31201859373E+01  0.21107830067E+03 -0.44987873417E+03  0.49694532902E+03  0.00000000000E+00 0.  1.
         11    1    5    5    0    0 -0.62602198353E+02 -0.94725491303E+02  0.59381530227E+02  0.12813321222E+03  0.00000000000E+00 0.  1.
        -11    1    5    5    0    0 -0.67136635529E+02 -0.35562654971E+03  0.10977819989E+03  0.37819151744E+03  0.00000000000E+00 0. -1.
          3    1    6    6  503    0  0.44209291530E+02 -0.33896296388E+03 -0.60632228376E+03  0.69604386653E+03  0.00000000000E+00 0. -1.
         -3    1    6    6    0  503 -0.33509635174E+02 -0.71368590660E+02 -0.16180524793E+03  0.17999252662E+03  0.00000000000E+00 0.  1.
<mgrwt>
<rscale>  0 0.24521221E+04</rscale>
<asrwt>0</asrwt>
<pdfrwt beam="1">  1        2 0.48112259E+00 0.24521221E+04</pdfrwt>
<pdfrwt beam="2">  1       -1 0.73950605E-01 0.24521221E+04</pdfrwt>
<totfact> 0.27118406E+00</totfact>
</mgrwt>
</event>
<event>
12    6  0.1457317E-007  0.1977856E+04  0.7818608E-02  0.8617044E-01
         -1   -1    0    0    0  501 -0.00000000000E+00  0.00000000000E+00  0.33316652687E+03  0.33316652687E+03  0.00000000000E+00 0.  1.
          2   -1    0    0  501    0  0.00000000000E+00 -0.00000000000E+00 -0.29354056973E+04  0.29354056973E+04  0.00000000000E+00 0. -1.
         24    2    1    2    0    0  0.47509938980E+03 -0.18471759188E+02 -0.19845194909E+04  0.20422569032E+04  0.80218531211E+02 0.  0.
        254    2    1    2    0    0 -0.47509938980E+03  0.18471759188E+02 -0.61771967949E+03  0.12263153210E+04  0.94668422818E+03 0.  0.
         23    2    4    4    0    0 -0.51320770936E+03 -0.34675467276E+03 -0.56753412396E+03  0.84508160143E+03  0.91907427336E+02 0.  0.
         23    2    4    4    0    0  0.38108319554E+02  0.36522643194E+03 -0.50185555535E+02  0.38123371952E+03  0.89319473278E+02 0.  0.
          2    1    3    3  502    0  0.37945414104E+03 -0.35139113492E+02 -0.16780671614E+04  0.17207933056E+04  0.00000000000E+00 0. -1.
         -1    1    3    3    0  502  0.95645248766E+02  0.16667354304E+02 -0.30645232956E+03  0.32146359763E+03  0.00000000000E+00 0.  1.
         11    1    5    5    0    0 -0.12728652187E+03 -0.12896159371E+03 -0.13616988447E+03  0.22666095548E+03  0.00000000000E+00 0.  1.
        -11    1    5    5    0    0 -0.38592118748E+03 -0.21779307905E+03 -0.43136423949E+03  0.61842064595E+03  0.00000000000E+00 0. -1.
          2    1    6    6  503    0  0.49100556709E+02  0.26307264141E+03 -0.69950255261E+02  0.27660643076E+03  0.00000000000E+00 0. -1.
         -2    1    6    6    0  503 -0.10992237155E+02  0.10215379054E+03  0.19764699726E+02  0.10462728876E+03  0.00000000000E+00 0.  1.
<mgrwt>
<rscale>  0 0.19778563E+04</rscale>
<asrwt>0</asrwt>
<pdfrwt beam="1">  1        2 0.45160088E+00 0.19778563E+04</pdfrwt>
<pdfrwt beam="2">  1       -1 0.51256388E-01 0.19778563E+04</pdfrwt>
<totfact> 0.77643052E+00</totfact>
</mgrwt>
</event>
<event>
12    6  0.1457317E-007  0.1182765E+04  0.7818608E-02  0.9128077E-01
         -1   -1    0    0    0  501 -0.00000000000E+00  0.00000000000E+00  0.55537130035E+03  0.55537130035E+03  0.00000000000E+00 0.  1.
          2   -1    0    0  501    0  0.00000000000E+00 -0.00000000000E+00 -0.62972906215E+03  0.62972906215E+03  0.00000000000E+00 0. -1.
         24    2    1    2    0    0 -0.61965802876E+02  0.64019903529E+02 -0.24220607125E+03  0.26961267069E+03  0.78031419770E+02 0.  0.
        254    2    1    2    0    0  0.61965802876E+02 -0.64019903529E+02  0.16784830945E+03  0.91548769181E+03  0.89554807247E+03 0.  0.
         23    2    4    4    0    0  0.24191004970E+03 -0.30819733811E+03  0.36453743417E+03  0.54236087673E+03  0.88100558084E+02 0.  0.
         23    2    4    4    0    0 -0.17994424682E+03  0.24417743458E+03 -0.19668912472E+03  0.37312681508E+03  0.92382123991E+02 0.  0.
          2    1    3    3  502    0 -0.26141264655E+02  0.18916540047E+02 -0.18722274839E+03  0.18998304850E+03  0.00000000000E+00 0. -1.
         -1    1    3    3    0  502 -0.35824538221E+02  0.45103363482E+02 -0.54983322862E+02  0.79629622184E+02  0.00000000000E+00 0.  1.
         11    1    5    5    0    0  0.17066828253E+03 -0.20429158753E+03  0.18976809319E+03  0.32691687719E+03  0.00000000000E+00 0. -1.
        -11    1    5    5    0    0  0.71241767167E+02 -0.10390575058E+03  0.17476934098E+03  0.21544399954E+03  0.00000000000E+00 0.  1.
          2    1    6    6  503    0 -0.13052331189E+03  0.19737074904E+03 -0.10485515204E+03  0.25881682795E+03  0.00000000000E+00 0. -1.
         -2    1    6    6    0  503 -0.49420934934E+02  0.46806685538E+02 -0.91833972675E+02  0.11430998713E+03  0.00000000000E+00 0.  1.
<mgrwt>
<rscale>  0 0.11827653E+04</rscale>
<asrwt>0</asrwt>
<pdfrwt beam="1">  1        2 0.96881394E-01 0.11827653E+04</pdfrwt>
<pdfrwt beam="2">  1       -1 0.85441739E-01 0.11827653E+04</pdfrwt>
<totfact> 0.71481508E+01</totfact>
</mgrwt>
</event>
<event>
12    6  0.1457317E-007  0.2048861E+04  0.7818608E-02  0.8584111E-01
         -1   -1    0    0    0  501 -0.00000000000E+00  0.00000000000E+00  0.58225491466E+03  0.58225491466E+03  0.00000000000E+00 0.  1.
          2   -1    0    0  501    0  0.00000000000E+00 -0.00000000000E+00 -0.18024022174E+04  0.18024022174E+04  0.00000000000E+00 0. -1.
         24    2    1    2    0    0 -0.41959316321E+03 -0.19158600492E+03  0.30436325867E+03  0.55836852572E+03  0.79842328311E+02 0.  0.
        254    2    1    2    0    0  0.41959316321E+03  0.19158600492E+03 -0.15245105614E+04  0.18262886063E+04  0.89355134263E+03 0.  0.
         23    2    4    4    0    0  0.80907536127E+02  0.40536597445E+03 -0.25990474475E+03  0.49675994663E+03  0.91391277399E+02 0.  0.
         23    2    4    4    0    0  0.33868562708E+03 -0.21377996953E+03 -0.12646058166E+04  0.13295286597E+04  0.89491653862E+02 0.  0.
          4    1    3    3  502    0 -0.20492190895E+03 -0.13450121644E+03  0.17664509568E+03  0.30213747834E+03  0.00000000000E+00 0. -1.
         -3    1    3    3    0  502 -0.21467125426E+03 -0.57084788484E+02  0.12771816299E+03  0.25623104738E+03  0.00000000000E+00 0.  1.
         11    1    5    5    0    0 -0.72292088135E+01  0.14745684200E+03 -0.62964810300E+02  0.16050030856E+03  0.00000000000E+00 0. -1.
        -11    1    5    5    0    0  0.88136744940E+02  0.25790913246E+03 -0.19693993445E+03  0.33625963807E+03  0.00000000000E+00 0.  1.
          3    1    6    6  503    0  0.60807290801E+01  0.95618600011E+00 -0.22607255170E+01  0.65574718967E+01  0.00000000000E+00 0. -1.
         -3    1    6    6    0  503  0.33260489800E+03 -0.21473615553E+03 -0.12623450911E+04  0.13229711878E+04  0.00000000000E+00 0.  1.
<mgrwt>
<rscale>  0 0.20488607E+04</rscale>
<asrwt>0</asrwt>
<pdfrwt beam="1">  1        2 0.27729264E+00 0.20488607E+04</pdfrwt>
<pdfrwt beam="2">  1       -1 0.89577681E-01 0.20488607E+04</pdfrwt>
<totfact> 0.11063686E+01</totfact>
</mgrwt>
</event>
<event>
12    6  0.1457317E-007  0.1063746E+04  0.7818608E-02  0.9241266E-01
         -1   -1    0    0    0  501 -0.00000000000E+00  0.00000000000E+00  0.96950468937E+02  0.96950468937E+02  0.00000000000E+00 0.  1.
          2   -1    0    0  501    0  0.00000000000E+00 -0.00000000000E+00 -0.29178696478E+04  0.29178696478E+04  0.00000000000E+00 0. -1.
         24    2    1    2    0    0  0.91145094568E+02 -0.10248645302E+03 -0.48897068533E+03  0.51409581985E+03  0.79945478642E+02 0.  0.
        254    2    1    2    0    0 -0.91145094568E+02  0.10248645302E+03 -0.23319484935E+04  0.25007242969E+04  0.89265185334E+03 0.  0.
         23    2    4    4    0    0 -0.36004154639E+03  0.13661598747E+03 -0.45881341262E+03  0.60567451272E+03  0.89655031127E+02 0.  0.
         23    2    4    4    0    0  0.26889645182E+03 -0.34129534458E+02 -0.18731350809E+04  0.18950497842E+04  0.95438599122E+02 0.  0.
          4    1    3    3  502    0  0.70192335432E+02 -0.11246602095E+03 -0.37388160242E+03  0.39669008363E+03  0.00000000000E+00 0. -1.
         -3    1    3    3    0  502  0.20952759136E+02  0.99795679327E+01 -0.11508908292E+03  0.11740573622E+03  0.00000000000E+00 0.  1.
         11    1    5    5    0    0 -0.84632390199E+02  0.45826918503E+02 -0.63112011218E+02  0.11509072026E+03  0.00000000000E+00 0.  1.
        -11    1    5    5    0    0 -0.27540915619E+03  0.90789068971E+02 -0.39570140140E+03  0.49058379246E+03  0.00000000000E+00 0. -1.
          3    1    6    6  503    0  0.25891159376E+03 -0.54272337239E+02 -0.17495243711E+04  0.17694112651E+04  0.00000000000E+00 0. -1.
         -3    1    6    6    0  503  0.99848580644E+01  0.20142802781E+02 -0.12361070987E+03  0.12563851913E+03  0.00000000000E+00 0.  1.
<mgrwt>
<rscale>  0 0.10637459E+04</rscale>
<asrwt>0</asrwt>
<pdfrwt beam="1">  1        2 0.44890297E+00 0.10637459E+04</pdfrwt>
<pdfrwt beam="2">  1       -1 0.14915458E-01 0.10637459E+04</pdfrwt>
<totfact> 0.75099726E+01</totfact>
</mgrwt>
</event>
<event>
12    6  0.1457317E-007  0.1793118E+04  0.7818608E-02  0.8709968E-01
          2   -1    0    0  501    0  0.00000000000E+00  0.00000000000E+00  0.11143381078E+04  0.11143381078E+04  0.00000000000E+00 0. -1.
         -1   -1    0    0    0  501 -0.00000000000E+00 -0.00000000000E+00 -0.72134134186E+03  0.72134134186E+03  0.00000000000E+00 0.  1.
         24    2    1    2    0    0  0.49555470561E+03  0.16244246774E+03  0.58056267583E+03  0.78453095878E+03  0.80459823132E+02 0.  0.
        254    2    1    2    0    0 -0.49555470561E+03 -0.16244246774E+03 -0.18756590992E+03  0.10511484909E+04  0.89317980144E+03 0.  0.
         23    2    4    4    0    0 -0.21063840631E+03 -0.41148103952E+03 -0.39092132625E+03  0.61209412284E+03  0.90302534868E+02 0.  0.
         23    2    4    4    0    0 -0.28491629930E+03  0.24903857179E+03  0.20335541633E+03  0.43905436802E+03  0.90652109083E+02 0.  0.
          4    1    3    3  502    0  0.21407217794E+03  0.80843787705E+02  0.31274812420E+03  0.38752290844E+03  0.00000000000E+00 0. -1.
         -3    1    3    3    0  502  0.28148252766E+03  0.81598680031E+02  0.26781455163E+03  0.39700805033E+03  0.00000000000E+00 0.  1.
         11    1    5    5    0    0 -0.17868112719E+03 -0.38661930190E+03 -0.32933013038E+03  0.53838625966E+03  0.00000000000E+00 0. -1.
        -11    1    5    5    0    0 -0.31957279118E+02 -0.24861737623E+02 -0.61591195870E+02  0.73707863183E+02  0.00000000000E+00 0.  1.
          4    1    6    6  503    0 -0.23413896442E+03  0.21806545509E+03  0.13188990148E+03  0.34607592155E+03  0.00000000000E+00 0. -1.
         -4    1    6    6    0  503 -0.50777334878E+02  0.30973116699E+02  0.71465514849E+02  0.92978446470E+02  0.00000000000E+00 0.  1.
<mgrwt>
<rscale>  0 0.17931181E+04</rscale>
<asrwt>0</asrwt>
<pdfrwt beam="1">  1        2 0.17143663E+00 0.17931181E+04</pdfrwt>
<pdfrwt beam="2">  1       -1 0.11097559E+00 0.17931181E+04</pdfrwt>
<totfact> 0.17189942E+01</totfact>
</mgrwt>
</event>
<event>
12    6  0.1457317E-007  0.1519112E+04  0.7818608E-02  0.8871842E-01
          2   -1    0    0  501    0  0.00000000000E+00  0.00000000000E+00  0.38040333400E+04  0.38040333400E+04  0.00000000000E+00 0. -1.
         -1   -1    0    0    0  501 -0.00000000000E+00 -0.00000000000E+00 -0.15166155923E+03  0.15166155923E+03  0.00000000000E+00 0.  1.
         24    2    1    2    0    0  0.66013099920E+02 -0.77694080535E+02  0.24419926818E+04  0.24453800930E+04  0.78494851954E+02 0.  0.
        254    2    1    2    0    0 -0.66013099920E+02  0.77694080535E+02  0.12103790990E+04  0.15103148062E+04  0.89757403659E+03 0.  0.
         23    2    4    4    0    0 -0.38752026417E+03 -0.21630204624E+03  0.52546204325E+03  0.69343918588E+03  0.88255397942E+02 0.  0.
         23    2    4    4    0    0  0.32150716425E+03  0.29399612677E+03  0.68491705572E+03  0.81687562034E+03  0.91508615284E+02 0.  0.
          4    1    3    3  502    0  0.49277336781E+02 -0.83951185097E+02  0.23244263771E+04  0.23264638488E+04  0.00000000000E+00 0. -1.
         -3    1    3    3    0  502  0.16735763138E+02  0.62571045617E+01  0.11756630471E+03  0.11891624417E+03  0.00000000000E+00 0.  1.
         11    1    5    5    0    0 -0.32065650956E+03 -0.20896087059E+03  0.41884908502E+03  0.56737976575E+03  0.00000000000E+00 0. -1.
        -11    1    5    5    0    0 -0.66863754612E+02 -0.73411756471E+01  0.10661295823E+03  0.12605942013E+03  0.00000000000E+00 0.  1.
          4    1    6    6  503    0  0.18257338235E+03  0.21944059092E+03  0.47767104859E+03  0.55646818736E+03  0.00000000000E+00 0. -1.
         -4    1    6    6    0  503  0.13893378190E+03  0.74555535849E+02  0.20724600713E+03  0.26040743297E+03  0.00000000000E+00 0.  1.
<mgrwt>
<rscale>  0 0.15191124E+04</rscale>
<asrwt>0</asrwt>
<pdfrwt beam="1">  1        2 0.58523583E+00 0.15191124E+04</pdfrwt>
<pdfrwt beam="2">  1       -1 0.23332550E-01 0.15191124E+04</pdfrwt>
<totfact> 0.86075851E+00</totfact>
</mgrwt>
</event>
<event>
12    6  0.1457317E-007  0.1637541E+04  0.7818608E-02  0.8797812E-01
         -1   -1    0    0    0  501 -0.00000000000E+00  0.00000000000E+00  0.43065732602E+03  0.43065732602E+03  0.00000000000E+00 0.  1.
          2   -1    0    0  501    0  0.00000000000E+00 -0.00000000000E+00 -0.15566549715E+04  0.15566549715E+04  0.00000000000E+00 0. -1.
         24    2    1    2    0    0 -0.39203102969E+03  0.39429779099E+03 -0.55076002337E+03  0.78652247976E+03  0.78242773457E+02 0.  0.
        254    2    1    2    0    0  0.39203102969E+03 -0.39429779099E+03 -0.57523762214E+03  0.12007898178E+04  0.89545451495E+03 0.  0.
         23    2    4    4    0    0  0.51212642275E+02 -0.61825138516E+03 -0.26470394828E+03  0.68011100791E+03  0.87322922910E+02 0.  0.
         23    2    4    4    0    0  0.34081838742E+03  0.22395359417E+03 -0.31053367386E+03  0.52067880987E+03  0.91448755620E+02 0.  0.
          2    1    3    3  502    0 -0.34666959650E+03  0.31751333753E+03 -0.43581589666E+03  0.64103823945E+03  0.00000000000E+00 0. -1.
         -1    1    3    3    0  502 -0.45361433194E+02  0.76784453459E+02 -0.11494412671E+03  0.14548424031E+03  0.00000000000E+00 0.  1.
         11    1    5    5    0    0  0.40695083555E+02 -0.59760469897E+03 -0.23744614797E+03  0.64433542448E+03  0.00000000000E+00 0. -1.
        -11    1    5    5    0    0  0.10517558720E+02 -0.20646686192E+02 -0.27257800308E+02  0.35775583430E+02  0.00000000000E+00 0.  1.
          3    1    6    6  503    0  0.28530881191E+03  0.16351688022E+03 -0.20701230816E+03  0.38857815688E+03  0.00000000000E+00 0. -1.
         -3    1    6    6    0  503  0.55509575510E+02  0.60436713954E+02 -0.10352136570E+03  0.13210065300E+03  0.00000000000E+00 0.  1.
<mgrwt>
<rscale>  0 0.16375407E+04</rscale>
<asrwt>0</asrwt>
<pdfrwt beam="1">  1        2 0.23948538E+00 0.16375407E+04</pdfrwt>
<pdfrwt beam="2">  1       -1 0.66254973E-01 0.16375407E+04</pdfrwt>
<totfact> 0.29662272E+01</totfact>
</mgrwt>
</event>
<event>
12    6  0.1457317E-007  0.2766091E+04  0.7818608E-02  0.8313874E-01
          2   -1    0    0  501    0  0.00000000000E+00  0.00000000000E+00  0.48581138131E+04  0.48581138131E+04  0.00000000000E+00 0. -1.
         -1   -1    0    0    0  501 -0.00000000000E+00 -0.00000000000E+00 -0.39373618357E+03  0.39373618357E+03  0.00000000000E+00 0.  1.
         24    2    1    2    0    0 -0.62847548667E+03  0.70128705362E+03  0.47461906474E+03  0.10576431490E+04  0.80998797241E+02 0.  0.
        254    2    1    2    0    0  0.62847548667E+03 -0.70128705362E+03  0.39897585648E+04  0.41942068476E+04  0.88679913537E+03 0.  0.
         23    2    4    4    0    0  0.78622088530E+03 -0.62136315640E+03  0.37475493770E+04  0.38803099932E+04  0.91890463671E+02 0.  0.
         23    2    4    4    0    0 -0.15774539863E+03 -0.79923897219E+02  0.24220918776E+03  0.31389685445E+03  0.92706550273E+02 0.  0.
          4    1    3    3  502    0 -0.63408837626E+02  0.52729647859E+02  0.64451187450E+02  0.10466638436E+03  0.00000000000E+00 0. -1.
         -3    1    3    3    0  502 -0.56506664905E+03  0.64855740576E+03  0.41016787729E+03  0.95297676466E+03  0.00000000000E+00 0.  1.
         11    1    5    5    0    0  0.47549016967E+03 -0.32610968118E+03  0.20588365747E+04  0.21380473491E+04  0.00000000000E+00 0.  1.
        -11    1    5    5    0    0  0.31073071563E+03 -0.29525347522E+03  0.16887128023E+04  0.17422626441E+04  0.00000000000E+00 0. -1.
          1    1    6    6  503    0  0.83794905462E+01 -0.20342975391E+02  0.17174349414E+02  0.27910764722E+02  0.00000000000E+00 0. -1.
         -1    1    6    6    0  503 -0.16612488917E+03 -0.59580921828E+02  0.22503483835E+03  0.28598608973E+03  0.00000000000E+00 0.  1.
<mgrwt>
<rscale>  0 0.27660912E+04</rscale>
<asrwt>0</asrwt>
<pdfrwt beam="1">  1        2 0.74740208E+00 0.27660912E+04</pdfrwt>
<pdfrwt beam="2">  1       -1 0.60574801E-01 0.27660912E+04</pdfrwt>
<totfact> 0.14036475E-01</totfact>
</mgrwt>
</event>
<event>
12    6  0.1457317E-007  0.2063296E+04  0.7818608E-02  0.8577586E-01
         -1   -1    0    0    0  501 -0.00000000000E+00  0.00000000000E+00  0.17635928211E+04  0.17635928211E+04  0.00000000000E+00 0.  1.
          2   -1    0    0  501    0  0.00000000000E+00 -0.00000000000E+00 -0.60348270369E+03  0.60348270369E+03  0.00000000000E+00 0. -1.
         24    2    1    2    0    0 -0.29384569233E+03 -0.54926936779E+03 -0.16014958855E+03  0.64816512559E+03  0.80174871477E+02 0.  0.
        254    2    1    2    0    0  0.29384569233E+03  0.54926936779E+03  0.13202597060E+04  0.17189103992E+04  0.90748285937E+03 0.  0.
         23    2    4    4    0    0 -0.49729136457E+02  0.69059744911E+03  0.10006359276E+04  0.12203461632E+04  0.92599539858E+02 0.  0.
         23    2    4    4    0    0  0.34357482879E+03 -0.14132808131E+03  0.31962377841E+03  0.49856423603E+03  0.91595022650E+02 0.  0.
          2    1    3    3  502    0 -0.22490681671E+03 -0.38423605986E+03 -0.80765909788E+02  0.45248597556E+03  0.00000000000E+00 0. -1.
         -1    1    3    3    0  502 -0.68938875624E+02 -0.16503330793E+03 -0.79383678764E+02  0.19567915002E+03  0.00000000000E+00 0.  1.
         11    1    5    5    0    0 -0.30935274649E+02  0.53605258691E+03  0.70463549148E+03  0.88590097810E+03  0.00000000000E+00 0.  1.
        -11    1    5    5    0    0 -0.18793861808E+02  0.15454486220E+03  0.29600043610E+03  0.33444518511E+03  0.00000000000E+00 0. -1.
          1    1    6    6  503    0  0.18283463294E+03 -0.26161882350E+02  0.16233691298E+03  0.24589880115E+03  0.00000000000E+00 0. -1.
         -1    1    6    6    0  503  0.16074019585E+03 -0.11516619896E+03  0.15728686543E+03  0.25266543488E+03  0.00000000000E+00 0.  1.
<mgrwt>
<rscale>  0 0.20632962E+04</rscale>
<asrwt>0</asrwt>
<pdfrwt beam="1">  1        2 0.92843493E-01 0.20632962E+04</pdfrwt>
<pdfrwt beam="2">  1       -1 0.27132197E+00 0.20632962E+04</pdfrwt>
<totfact> 0.26335776E+00</totfact>
</mgrwt>
</event>
<event>
12    6  0.1457317E-007  0.2334597E+04  0.7818608E-02  0.8464403E-01
          2   -1    0    0  501    0  0.00000000000E+00  0.00000000000E+00  0.14745784882E+04  0.14745784882E+04  0.00000000000E+00 0. -1.
         -1   -1    0    0    0  501 -0.00000000000E+00 -0.00000000000E+00 -0.92405125944E+03  0.92405125944E+03  0.00000000000E+00 0.  1.
         24    2    1    2    0    0 -0.12310057554E+03 -0.24314099017E+03 -0.74611040699E+03  0.79837464529E+03  0.80312153626E+02 0.  0.
        254    2    1    2    0    0  0.12310057554E+03  0.24314099017E+03  0.12966376357E+04  0.16002551023E+04  0.89737168515E+03 0.  0.
         23    2    4    4    0    0  0.46051747901E+03  0.51047879523E+02  0.98953073505E+03  0.10965794025E+04  0.92914347102E+02 0.  0.
         23    2    4    4    0    0 -0.33741690347E+03  0.19209311065E+03  0.30710690068E+03  0.50367569982E+03  0.92868898100E+02 0.  0.
          2    1    3    3  502    0 -0.48172372204E+02 -0.38430485783E+02 -0.23006557664E+03  0.23817566886E+03  0.00000000000E+00 0. -1.
         -1    1    3    3    0  502 -0.74928203337E+02 -0.20471050439E+03 -0.51604483035E+03  0.56019897643E+03  0.00000000000E+00 0.  1.
         11    1    5    5    0    0  0.13616771212E+03 -0.27310816232E+02  0.29233117434E+03  0.32364338708E+03  0.00000000000E+00 0. -1.
        -11    1    5    5    0    0  0.32434976689E+03  0.78358695755E+02  0.69719956071E+03  0.77293601542E+03  0.00000000000E+00 0.  1.
          3    1    6    6  503    0 -0.39327678974E+02  0.60034498938E+02  0.39760278773E+02  0.82046859564E+02  0.00000000000E+00 0. -1.
         -3    1    6    6    0  503 -0.29808922450E+03  0.13205861171E+03  0.26734662190E+03  0.42162884025E+03  0.00000000000E+00 0.  1.
<mgrwt>
<rscale>  0 0.23345973E+04</rscale>
<asrwt>0</asrwt>
<pdfrwt beam="1">  1        2 0.22685823E+00 0.23345973E+04</pdfrwt>
<pdfrwt beam="2">  1       -1 0.14216173E+00 0.23345973E+04</pdfrwt>
<totfact> 0.54410612E+00</totfact>
</mgrwt>
</event>
<event>
12    6  0.1457317E-007  0.1233930E+04  0.7818608E-02  0.9083665E-01
          2   -1    0    0  501    0  0.00000000000E+00  0.00000000000E+00  0.11910854816E+04  0.11910854816E+04  0.00000000000E+00 0. -1.
         -1   -1    0    0    0  501 -0.00000000000E+00 -0.00000000000E+00 -0.31957892122E+03  0.31957892122E+03  0.00000000000E+00 0.  1.
         24    2    1    2    0    0 -0.87864110571E+02 -0.26553144566E+03  0.62292422457E+02  0.29761908697E+03  0.80434597506E+02 0.  0.
        254    2    1    2    0    0  0.87864110571E+02  0.26553144566E+03  0.80921413793E+03  0.12130453159E+04  0.85931622045E+03 0.  0.
         23    2    4    4    0    0  0.36636480309E+02  0.50256270688E+03  0.80276734791E+03  0.95239370479E+03  0.93310492529E+02 0.  0.
         23    2    4    4    0    0  0.51227630262E+02 -0.23703126122E+03  0.64467900230E+01  0.26065161107E+03  0.95339458546E+02 0.  0.
          4    1    3    3  502    0 -0.37386783016E+02 -0.40877139968E+02  0.35536227991E+02  0.65814402801E+02  0.00000000000E+00 0. -1.
         -3    1    3    3    0  502 -0.50477327555E+02 -0.22465430569E+03  0.26756194466E+02  0.23180468417E+03  0.00000000000E+00 0.  1.
         11    1    5    5    0    0  0.17983989871E+02  0.14706199599E+02  0.50529640999E+02  0.55614214171E+02  0.00000000000E+00 0.  1.
        -11    1    5    5    0    0  0.18652490438E+02  0.48785650728E+03  0.75223770691E+03  0.89677949062E+03  0.00000000000E+00 0. -1.
          3    1    6    6  503    0  0.33166157865E+02 -0.20342430955E+03  0.39867872097E+02  0.20993068134E+03  0.00000000000E+00 0. -1.
         -3    1    6    6    0  503  0.18061472397E+02 -0.33606951666E+02 -0.33421082074E+02  0.50720929728E+02  0.00000000000E+00 0.  1.
<mgrwt>
<rscale>  0 0.12339300E+04</rscale>
<asrwt>0</asrwt>
<pdfrwt beam="1">  1        2 0.18324392E+00 0.12339300E+04</pdfrwt>
<pdfrwt beam="2">  1       -1 0.49165988E-01 0.12339300E+04</pdfrwt>
<totfact> 0.89176732E+01</totfact>
</mgrwt>
</event>
<event>
12    6  0.1457317E-007  0.1386281E+04  0.7818608E-02  0.8963809E-01
         -1   -1    0    0    0  501 -0.00000000000E+00  0.00000000000E+00  0.13144400490E+03  0.13144400490E+03  0.00000000000E+00 0.  1.
          2   -1    0    0  501    0  0.00000000000E+00 -0.00000000000E+00 -0.36551213650E+04  0.36551213650E+04  0.00000000000E+00 0. -1.
         24    2    1    2    0    0  0.30390514492E+03 -0.78788261057E+02 -0.36431334330E+03  0.48765708418E+03  0.80742135563E+02 0.  0.
        254    2    1    2    0    0 -0.30390514492E+03  0.78788261057E+02 -0.31593640168E+04  0.32989082857E+04  0.89590678074E+03 0.  0.
         23    2    4    4    0    0 -0.47865604997E+03 -0.24454540339E+03 -0.14934745817E+04  0.15899247558E+04  0.92088731168E+02 0.  0.
         23    2    4    4    0    0  0.17475090505E+03  0.32333366445E+03 -0.16658894351E+04  0.17089835299E+04  0.10175734969E+03 0.  0.
          2    1    3    3  502    0  0.12576315824E+03 -0.47470165719E+02 -0.10070431635E+03  0.16796174545E+03  0.00000000000E+00 0. -1.
         -1    1    3    3    0  502  0.17814198667E+03 -0.31318095338E+02 -0.26360902695E+03  0.31969533872E+03  0.00000000000E+00 0.  1.
         11    1    5    5    0    0 -0.40448243839E+03 -0.19664247893E+03 -0.13320795042E+04  0.14059552315E+04  0.00000000000E+00 0.  1.
        -11    1    5    5    0    0 -0.74173611575E+02 -0.47902924457E+02 -0.16139507752E+03  0.18396952431E+03  0.00000000000E+00 0. -1.
          4    1    6    6  503    0  0.42027754647E+02  0.17272194740E+03 -0.67897070504E+03  0.70185498615E+03  0.00000000000E+00 0. -1.
         -4    1    6    6    0  503  0.13272315040E+03  0.15061171705E+03 -0.98691873003E+03  0.10071285438E+04  0.00000000000E+00 0.  1.
<mgrwt>
<rscale>  0 0.13862811E+04</rscale>
<asrwt>0</asrwt>
<pdfrwt beam="1">  1        2 0.56232640E+00 0.13862811E+04</pdfrwt>
<pdfrwt beam="2">  1       -1 0.20222153E-01 0.13862811E+04</pdfrwt>
<totfact> 0.14324630E+01</totfact>
</mgrwt>
</event>
<event>
12    6  0.1457317E-007  0.1441226E+04  0.7818608E-02  0.8924506E-01
         -1   -1    0    0    0  501 -0.00000000000E+00  0.00000000000E+00  0.28854390941E+03  0.28854390941E+03  0.00000000000E+00 0.  1.
          2   -1    0    0  501    0  0.00000000000E+00 -0.00000000000E+00 -0.17996674100E+04  0.17996674100E+04  0.00000000000E+00 0. -1.
         24    2    1    2    0    0 -0.37987560856E+03 -0.23451806440E+03 -0.65352307412E+03  0.79549167971E+03  0.80064995902E+02 0.  0.
        254    2    1    2    0    0  0.37987560856E+03  0.23451806440E+03 -0.85760042648E+03  0.12927196397E+04  0.85810335910E+03 0.  0.
         23    2    4    4    0    0  0.23150671285E+02  0.43412103805E+03 -0.14783992476E+03  0.46801138576E+03  0.90448795383E+02 0.  0.
         23    2    4    4    0    0  0.35672493728E+03 -0.19960297366E+03 -0.70976050172E+03  0.82470825396E+03  0.96383122876E+02 0.  0.
          2    1    3    3  502    0 -0.73719588997E+02 -0.64874581903E+02 -0.96854976331E+02  0.13792815383E+03  0.00000000000E+00 0. -1.
         -1    1    3    3    0  502 -0.30615601957E+03 -0.16964348250E+03 -0.55666809779E+03  0.65756352588E+03  0.00000000000E+00 0.  1.
         11    1    5    5    0    0  0.36558752540E+01  0.41299796931E+03 -0.14945015899E+03  0.43922208289E+03  0.00000000000E+00 0.  1.
        -11    1    5    5    0    0  0.19494796031E+02  0.21123068747E+02  0.16102342277E+01  0.28789302871E+02  0.00000000000E+00 0. -1.
          2    1    6    6  503    0  0.10062880690E+03 -0.59240709829E+02 -0.12487011360E+03  0.17096246298E+03  0.00000000000E+00 0. -1.
         -2    1    6    6    0  503  0.25609613038E+03 -0.14036226383E+03 -0.58489038812E+03  0.65374579097E+03  0.00000000000E+00 0.  1.
<mgrwt>
<rscale>  0 0.14412260E+04</rscale>
<asrwt>0</asrwt>
<pdfrwt beam="1">  1        2 0.27687191E+00 0.14412260E+04</pdfrwt>
<pdfrwt beam="2">  1       -1 0.44391371E-01 0.14412260E+04</pdfrwt>
<totfact> 0.47943418E+01</totfact>
</mgrwt>
</event>
<event>
12    6  0.1457317E-007  0.1500080E+04  0.7818608E-02  0.8884400E-01
          2   -1    0    0  501    0  0.00000000000E+00  0.00000000000E+00  0.79948267196E+03  0.79948267196E+03  0.00000000000E+00 0. -1.
         -1   -1    0    0    0  501 -0.00000000000E+00 -0.00000000000E+00 -0.70365479069E+03  0.70365479069E+03  0.00000000000E+00 0.  1.
         24    2    1    2    0    0  0.33210300741E+03  0.33159507001E+03  0.10189977734E+03  0.48707120811E+03  0.81284064631E+02 0.  0.
        254    2    1    2    0    0 -0.33210300741E+03 -0.33159507001E+03 -0.60718960607E+01  0.10160662545E+04  0.90116927806E+03 0.  0.
         23    2    4    4    0    0 -0.25976970629E+03 -0.63432772783E+03 -0.19909997257E+02  0.69176653874E+03  0.91063546633E+02 0.  0.
         23    2    4    4    0    0 -0.72333301121E+02  0.30273265782E+03  0.13838101197E+02  0.32429971581E+03  0.89998022552E+02 0.  0.
          2    1    3    3  502    0  0.23678291993E+03  0.25653331284E+03  0.10846123773E+03  0.36556713728E+03  0.00000000000E+00 0. -1.
         -1    1    3    3    0  502  0.95320087477E+02  0.75061757164E+02 -0.65614603901E+01  0.12150407083E+03  0.00000000000E+00 0.  1.
         11    1    5    5    0    0 -0.18943527360E+03 -0.54163425575E+03 -0.32526934431E+02  0.57472723213E+03  0.00000000000E+00 0.  1.
        -11    1    5    5    0    0 -0.70334432687E+02 -0.92693472080E+02  0.12616937174E+02  0.11703930661E+03  0.00000000000E+00 0. -1.
          4    1    6    6  503    0  0.15790087436E+01  0.97897765736E+02 -0.29518304414E+02  0.10226336636E+03  0.00000000000E+00 0. -1.
         -4    1    6    6    0  503 -0.73912309864E+02  0.20483489209E+03  0.43356405610E+02  0.22203634944E+03  0.00000000000E+00 0.  1.
<mgrwt>
<rscale>  0 0.15000797E+04</rscale>
<asrwt>0</asrwt>
<pdfrwt beam="1">  1        2 0.12299733E+00 0.15000797E+04</pdfrwt>
<pdfrwt beam="2">  1       -1 0.10825458E+00 0.15000797E+04</pdfrwt>
<totfact> 0.30152015E+01</totfact>
</mgrwt>
</event>
<event>
12    6  0.1457317E-007  0.4509266E+04  0.7818608E-02  0.7909017E-01
         -1   -1    0    0    0  501 -0.00000000000E+00  0.00000000000E+00  0.16030010241E+04  0.16030010241E+04  0.00000000000E+00 0.  1.
          2   -1    0    0  501    0  0.00000000000E+00 -0.00000000000E+00 -0.31711589484E+04  0.31711589484E+04  0.00000000000E+00 0. -1.
         24    2    1    2    0    0 -0.11284761743E+04 -0.12829987282E+04  0.65349520194E+03  0.18310552689E+04  0.78506090638E+02 0.  0.
        254    2    1    2    0    0  0.11284761743E+04  0.12829987282E+04 -0.22216531263E+04  0.29431047036E+04  0.89809713878E+03 0.  0.
         23    2    4    4    0    0  0.10625296767E+04  0.14047039789E+04 -0.20266966705E+04  0.26865852327E+04  0.89879010026E+02 0.  0.
         23    2    4    4    0    0  0.65946497595E+02 -0.12170525072E+03 -0.19495645581E+03  0.25651947091E+03  0.92914534379E+02 0.  0.
          2    1    3    3  502    0 -0.54944715630E+03 -0.63133878909E+03  0.36185490119E+03  0.91182224895E+03  0.00000000000E+00 0. -1.
         -1    1    3    3    0  502 -0.57902901798E+03 -0.65165993908E+03  0.29164030075E+03  0.91923301991E+03  0.00000000000E+00 0.  1.
         11    1    5    5    0    0  0.88139009162E+03  0.11701132750E+04 -0.17349983483E+04  0.22707339868E+04  0.00000000000E+00 0. -1.
        -11    1    5    5    0    0  0.18113958506E+03  0.23459070387E+03 -0.29169832218E+03  0.41585124598E+03  0.00000000000E+00 0.  1.
          4    1    6    6  503    0  0.30327259985E+01 -0.86510439364E+02 -0.14478924989E+03  0.16869256187E+03  0.00000000000E+00 0.  1.
         -4    1    6    6    0  503  0.62913771596E+02 -0.35194811360E+02 -0.50167205915E+02  0.87826909045E+02  0.00000000000E+00 0. -1.
<mgrwt>
<rscale>  0 0.45092665E+04</rscale>
<asrwt>0</asrwt>
<pdfrwt beam="1">  1        2 0.48787061E+00 0.45092665E+04</pdfrwt>
<pdfrwt beam="2">  1       -1 0.24661554E+00 0.45092665E+04</pdfrwt>
<totfact> 0.85349562E-02</totfact>
</mgrwt>
</event>
<event>
12    6  0.1457317E-007  0.1525969E+04  0.7818608E-02  0.8867365E-01
         -1   -1    0    0    0  501 -0.00000000000E+00  0.00000000000E+00  0.28332089991E+03  0.28332089991E+03  0.00000000000E+00 0.  1.
          2   -1    0    0  501    0  0.00000000000E+00 -0.00000000000E+00 -0.20547204992E+04  0.20547204992E+04  0.00000000000E+00 0. -1.
         24    2    1    2    0    0 -0.20143225281E+01  0.26534352672E+03  0.66803971647E+02  0.28604166521E+03  0.83341579891E+02 0.  0.
        254    2    1    2    0    0  0.20143225281E+01 -0.26534352672E+03 -0.18382035709E+04  0.20519997339E+04  0.87252466729E+03 0.  0.
         23    2    4    4    0    0 -0.22872484104E+03  0.54863172435E+02 -0.10604272567E+03  0.27312849637E+03  0.89605218949E+02 0.  0.
         23    2    4    4    0    0  0.23073916357E+03 -0.32020669916E+03 -0.17321608453E+04  0.17788712375E+04  0.90712700413E+02 0.  0.
          4    1    3    3  502    0  0.67472878760E+01 -0.31414420870E+01 -0.37055936789E+01  0.83142033041E+01  0.00000000000E+00 0. -1.
         -3    1    3    3    0  502 -0.87616104041E+01  0.26848496881E+03  0.70509565326E+02  0.27772746191E+03  0.00000000000E+00 0.  1.
         11    1    5    5    0    0 -0.18625105811E+03  0.56142259448E+02 -0.46553584566E+02  0.20002161428E+03  0.00000000000E+00 0. -1.
        -11    1    5    5    0    0 -0.42473782933E+02 -0.12790870131E+01 -0.59489141100E+02  0.73106882091E+02  0.00000000000E+00 0.  1.
          3    1    6    6  503    0  0.23725131278E+03 -0.30406428851E+03 -0.16857090421E+04  0.17292652346E+04  0.00000000000E+00 0. -1.
         -3    1    6    6    0  503 -0.65121492147E+01 -0.16142410647E+02 -0.46451803194E+02  0.49606002952E+02  0.00000000000E+00 0.  1.
<mgrwt>
<rscale>  0 0.15259689E+04</rscale>
<asrwt>0</asrwt>
<pdfrwt beam="1">  1        2 0.31611086E+00 0.15259689E+04</pdfrwt>
<pdfrwt beam="2">  1       -1 0.43587829E-01 0.15259689E+04</pdfrwt>
<totfact> 0.35572941E+01</totfact>
</mgrwt>
</event>
<event>
12    6  0.1457317E-007  0.3264593E+04  0.7818608E-02  0.8171963E-01
          2   -1    0    0  501    0  0.00000000000E+00  0.00000000000E+00  0.17080741703E+04  0.17080741703E+04  0.00000000000E+00 0. -1.
         -1   -1    0    0    0  501 -0.00000000000E+00 -0.00000000000E+00 -0.15598809609E+04  0.15598809609E+04  0.00000000000E+00 0.  1.
         24    2    1    2    0    0 -0.54770490235E+03 -0.10568637335E+04  0.99024447329E+03  0.15504827483E+04  0.80442679126E+02 0.  0.
        254    2    1    2    0    0  0.54770490235E+03  0.10568637335E+04 -0.84205126387E+03  0.17174723829E+04  0.90758990951E+03 0.  0.
         23    2    4    4    0    0  0.10888050929E+03  0.31632498950E+03  0.16957296474E+03  0.38597881730E+03  0.91149288231E+02 0.  0.
         23    2    4    4    0    0  0.43882439306E+03  0.74053874404E+03 -0.10116242286E+04  0.13314935656E+04  0.92342060158E+02 0.  0.
          4    1    3    3  502    0 -0.43616147969E+03 -0.81667713479E+03  0.80976817490E+03  0.12300092991E+04  0.00000000000E+00 0. -1.
         -3    1    3    3    0  502 -0.11154342265E+03 -0.24018659875E+03  0.18047629839E+03  0.32047344919E+03  0.00000000000E+00 0.  1.
         11    1    5    5    0    0  0.65749744702E+01  0.28465914767E+02  0.50007186625E+02  0.57915950367E+02  0.00000000000E+00 0.  1.
        -11    1    5    5    0    0  0.10230553482E+03  0.28785907474E+03  0.11956577811E+03  0.32806286693E+03  0.00000000000E+00 0. -1.
          3    1    6    6  503    0  0.38431618019E+03  0.60637301718E+03 -0.79789614370E+03  0.10733244703E+04  0.00000000000E+00 0. -1.
         -3    1    6    6    0  503  0.54508212866E+02  0.13416572685E+03 -0.21372808491E+03  0.25816909538E+03  0.00000000000E+00 0.  1.
<mgrwt>
<rscale>  0 0.32645933E+04</rscale>
<asrwt>0</asrwt>
<pdfrwt beam="1">  1        2 0.26278064E+00 0.32645933E+04</pdfrwt>
<pdfrwt beam="2">  1       -1 0.23998169E+00 0.32645933E+04</pdfrwt>
<totfact> 0.75035750E-01</totfact>
</mgrwt>
</event>
<event>
12    6  0.1457317E-007  0.1288932E+04  0.7818608E-02  0.9038389E-01
          2   -1    0    0  501    0  0.00000000000E+00  0.00000000000E+00  0.10899450840E+04  0.10899450840E+04  0.00000000000E+00 0. -1.
         -1   -1    0    0    0  501 -0.00000000000E+00 -0.00000000000E+00 -0.38106160990E+03  0.38106160990E+03  0.00000000000E+00 0.  1.
         24    2    1    2    0    0  0.10785181141E+03  0.23400842224E+03  0.40631614534E+03  0.48794329194E+03  0.81264329639E+02 0.  0.
        254    2    1    2    0    0 -0.10785181141E+03 -0.23400842224E+03  0.30256732874E+03  0.98306340194E+03  0.89915221676E+03 0.  0.
         23    2    4    4    0    0  0.15155880138E+03 -0.34697178707E+03  0.49437762364E+03  0.62951127188E+03  0.92280633810E+02 0.  0.
         23    2    4    4    0    0 -0.25941061279E+03  0.11296336483E+03 -0.19181029489E+03  0.35355213006E+03  0.90295800685E+02 0.  0.
          2    1    3    3  502    0  0.97843376236E+02  0.11761683385E+03  0.21779733185E+03  0.26616296444E+03  0.00000000000E+00 0. -1.
         -1    1    3    3    0  502  0.10008435179E+02  0.11639158839E+03  0.18851881349E+03  0.22178032749E+03  0.00000000000E+00 0.  1.
         11    1    5    5    0    0  0.12342986877E+03 -0.18357278730E+03  0.24548475243E+03  0.33044918583E+03  0.00000000000E+00 0. -1.
        -11    1    5    5    0    0  0.28128932609E+02 -0.16339899977E+03  0.24889287120E+03  0.29906208605E+03  0.00000000000E+00 0.  1.
          2    1    6    6  503    0 -0.16153572256E+03  0.57561254269E+02 -0.63341491367E+02  0.18280927817E+03  0.00000000000E+00 0. -1.
         -2    1    6    6    0  503 -0.97874890226E+02  0.55402110561E+02 -0.12846880353E+03  0.17074285189E+03  0.00000000000E+00 0.  1.
<mgrwt>
<rscale>  0 0.12889317E+04</rscale>
<asrwt>0</asrwt>
<pdfrwt beam="1">  1        2 0.16768386E+00 0.12889317E+04</pdfrwt>
<pdfrwt beam="2">  1       -1 0.58624864E-01 0.12889317E+04</pdfrwt>
<totfact> 0.72900104E+01</totfact>
</mgrwt>
</event>
<event>
12    6  0.2027164E-007  0.2388615E+04  0.7818608E-02  0.8443778E-01
         -1   -1    0    0    0  501 -0.00000000000E+00  0.00000000000E+00  0.75970297789E+03  0.75970297789E+03  0.00000000000E+00 0.  1.
          2   -1    0    0  501    0  0.00000000000E+00 -0.00000000000E+00 -0.18775374900E+04  0.18775374900E+04  0.00000000000E+00 0. -1.
         24    2    1    2    0    0  0.53093731460E+03  0.77979859069E+01 -0.14414461429E+04  0.15382289600E+04  0.80163021572E+02 0.  0.
        254    2    1    2    0    0 -0.53093731460E+03 -0.77979859069E+01  0.32361163083E+03  0.10990115078E+04  0.90617137787E+03 0.  0.
         23    2    4    4    0    0 -0.59585024045E+01  0.10129537081E+03 -0.26459321568E+03  0.29785216341E+03  0.91706518669E+02 0.  0.
         23    2    4    4    0    0 -0.52497881219E+03 -0.10909335672E+03  0.58820484652E+03  0.80115934440E+03  0.91472618419E+02 0.  0.
          4    1    3    3  502    0  0.45596096256E+03  0.25425260598E+02 -0.12875048624E+04  0.13660950237E+04  0.00000000000E+00 0. -1.
         -3    1    3    3    0  502  0.74976352033E+02 -0.17627274691E+02 -0.15394128052E+03  0.17213393630E+03  0.00000000000E+00 0.  1.
         11    1    5    5    0    0  0.31639912155E+02  0.83098637743E+02 -0.21710025742E+03  0.23460389896E+03  0.00000000000E+00 0. -1.
        -11    1    5    5    0    0 -0.37598414560E+02  0.18196733066E+02 -0.47492958264E+02  0.63248264453E+02  0.00000000000E+00 0.  1.
          2    1    6    6  503    0 -0.49948394441E+03 -0.93342154510E+02  0.57777302789E+03  0.76942747565E+03  0.00000000000E+00 0. -1.
         -2    1    6    6    0  503 -0.25494867782E+02 -0.15751202205E+02  0.10431818624E+02  0.31731868743E+02  0.00000000000E+00 0.  1.
<mgrwt>
<rscale>  0 0.23886153E+04</rscale>
<asrwt>0</asrwt>
<pdfrwt beam="1">  1        2 0.28885192E+00 0.23886153E+04</pdfrwt>
<pdfrwt beam="2">  1       -1 0.11687738E+00 0.23886153E+04</pdfrwt>
<totfact> 0.52848698E+00</totfact>
</mgrwt>
</event>
<event>
12    6  0.1457317E-007  0.3295554E+04  0.7818608E-02  0.8164028E-01
          2   -1    0    0  501    0  0.00000000000E+00  0.00000000000E+00  0.23191564738E+04  0.23191564738E+04  0.00000000000E+00 0. -1.
         -1   -1    0    0    0  501 -0.00000000000E+00 -0.00000000000E+00 -0.11707573632E+04  0.11707573632E+04  0.00000000000E+00 0.  1.
         24    2    1    2    0    0  0.16975949202E+03  0.31989062578E+03 -0.10364941090E+04  0.11001266193E+04  0.69355915019E+02 0.  0.
        254    2    1    2    0    0 -0.16975949202E+03 -0.31989062578E+03  0.21848932196E+04  0.23897872177E+04  0.89787319106E+03 0.  0.
         23    2    4    4    0    0  0.26281078293E+03  0.10638677474E+03  0.37140775899E+03  0.47513207326E+03  0.86134256504E+02 0.  0.
         23    2    4    4    0    0 -0.43257027494E+03 -0.42627740053E+03  0.18134854606E+04  0.19146551444E+04  0.91352839613E+02 0.  0.
          4    1    3    3  502    0  0.99397558398E+02  0.11958671553E+03 -0.40022522040E+03  0.42937289643E+03  0.00000000000E+00 0. -1.
         -3    1    3    3    0  502  0.70361933618E+02  0.20030391026E+03 -0.63626888856E+03  0.67075372285E+03  0.00000000000E+00 0.  1.
         11    1    5    5    0    0  0.51458216771E+02  0.39066546365E+02  0.38857386909E+02  0.75392570161E+02  0.00000000000E+00 0. -1.
        -11    1    5    5    0    0  0.21135256615E+03  0.67320228376E+02  0.33255037208E+03  0.39973950310E+03  0.00000000000E+00 0.  1.
          4    1    6    6  503    0 -0.31604862547E+03 -0.30562920645E+03  0.14308216719E+04  0.14968455506E+04  0.00000000000E+00 0. -1.
         -4    1    6    6    0  503 -0.11652164947E+03 -0.12064819408E+03  0.38266378864E+03  0.41780959380E+03  0.00000000000E+00 0.  1.
<mgrwt>
<rscale>  0 0.32955543E+04</rscale>
<asrwt>0</asrwt>
<pdfrwt beam="1">  1        2 0.35679330E+00 0.32955543E+04</pdfrwt>
<pdfrwt beam="2">  1       -1 0.18011652E+00 0.32955543E+04</pdfrwt>
<totfact> 0.87217525E-01</totfact>
</mgrwt>
</event>
<event>
12    6  0.1457317E-007  0.1123008E+04  0.7818608E-02  0.9183052E-01
          2   -1    0    0  501    0  0.00000000000E+00  0.00000000000E+00  0.82329923507E+03  0.82329923507E+03  0.00000000000E+00 0. -1.
         -1   -1    0    0    0  501 -0.00000000000E+00 -0.00000000000E+00 -0.38295541223E+03  0.38295541223E+03  0.00000000000E+00 0.  1.
         24    2    1    2    0    0 -0.65336316780E+02 -0.11986923340E+02  0.28197842407E+03  0.30157571009E+03  0.83806662370E+02 0.  0.
        254    2    1    2    0    0  0.65336316780E+02  0.11986923340E+02  0.15836539877E+03  0.90467893721E+03  0.88822962081E+03 0.  0.
         23    2    4    4    0    0  0.11580889542E+03  0.42879503301E+03  0.14145214090E+03  0.47478055559E+03  0.90171986837E+02 0.  0.
         23    2    4    4    0    0 -0.50472578636E+02 -0.41680810967E+03  0.16913257871E+02  0.42989838162E+03  0.90829944135E+02 0.  0.
          4    1    3    3  502    0 -0.71401325162E+02 -0.15280333878E+02  0.28488014958E+03  0.29408899582E+03  0.00000000000E+00 0. -1.
         -3    1    3    3    0  502  0.60650083819E+01  0.32934105377E+01 -0.29017255133E+01  0.74867142724E+01  0.00000000000E+00 0.  1.
         11    1    5    5    0    0  0.67946988894E+02  0.34728058617E+03  0.82426782738E+02  0.36333837307E+03  0.00000000000E+00 0.  1.
        -11    1    5    5    0    0  0.47861906522E+02  0.81514446837E+02  0.59025358158E+02  0.11144218252E+03  0.00000000000E+00 0. -1.
          3    1    6    6  503    0 -0.23154268509E+02 -0.27883649422E+03  0.52817747993E+02  0.28473781829E+03  0.00000000000E+00 0. -1.
         -3    1    6    6    0  503 -0.27318310127E+02 -0.13797161544E+03 -0.35904490122E+02  0.14516056333E+03  0.00000000000E+00 0.  1.
<mgrwt>
<rscale>  0 0.11230083E+04</rscale>
<asrwt>0</asrwt>
<pdfrwt beam="1">  1        2 0.12666142E+00 0.11230083E+04</pdfrwt>
<pdfrwt beam="2">  1       -1 0.58916218E-01 0.11230083E+04</pdfrwt>
<totfact> 0.10953295E+02</totfact>
</mgrwt>
</event>
<event>
12    6  0.1457317E-007  0.1626070E+04  0.7818608E-02  0.8804690E-01
         -1   -1    0    0    0  501 -0.00000000000E+00  0.00000000000E+00  0.18736149810E+03  0.18736149810E+03  0.00000000000E+00 0.  1.
          2   -1    0    0  501    0  0.00000000000E+00 -0.00000000000E+00 -0.35280776977E+04  0.35280776977E+04  0.00000000000E+00 0. -1.
         24    2    1    2    0    0  0.20605457358E+03 -0.45660603773E+03 -0.17020045864E+04  0.17760310091E+04  0.80740152696E+02 0.  0.
        254    2    1    2    0    0 -0.20605457358E+03  0.45660603773E+03 -0.16387116132E+04  0.19394081867E+04  0.90828453821E+03 0.  0.
         23    2    4    4    0    0  0.70622917078E+02 -0.20605499850E+03 -0.13764298000E+03  0.27302250350E+03  0.90274241339E+02 0.  0.
         23    2    4    4    0    0 -0.27667749065E+03  0.66266103623E+03 -0.15010686332E+04  0.16663856832E+04  0.89241922771E+02 0.  0.
          2    1    3    3  502    0  0.59309651693E+02 -0.78921782429E+02 -0.25759838239E+03  0.27586810098E+03  0.00000000000E+00 0. -1.
         -1    1    3    3    0  502  0.14674492188E+03 -0.37768425530E+03 -0.14444062040E+04  0.15001629081E+04  0.00000000000E+00 0.  1.
         11    1    5    5    0    0  0.27786360741E+02 -0.43403222091E+02 -0.80113456831E+02  0.95258004895E+02  0.00000000000E+00 0. -1.
        -11    1    5    5    0    0  0.42836556337E+02 -0.16265177641E+03 -0.57529523172E+02  0.17776449860E+03  0.00000000000E+00 0.  1.
          2    1    6    6  503    0 -0.10002960512E+03  0.25587892132E+03 -0.47795339062E+03  0.55128884252E+03  0.00000000000E+00 0. -1.
         -2    1    6    6    0  503 -0.17664788553E+03  0.40678211490E+03 -0.10231152426E+04  0.11150968407E+04  0.00000000000E+00 0.  1.
<mgrwt>
<rscale>  0 0.16260700E+04</rscale>
<asrwt>0</asrwt>
<pdfrwt beam="1">  1        2 0.54278115E+00 0.16260700E+04</pdfrwt>
<pdfrwt beam="2">  1       -1 0.28824848E-01 0.16260700E+04</pdfrwt>
<totfact> 0.93739911E+00</totfact>
</mgrwt>
</event>
<event>
12    6  0.1457317E-007  0.2680640E+04  0.7818608E-02  0.8341314E-01
         -1   -1    0    0    0  501 -0.00000000000E+00  0.00000000000E+00  0.94460742202E+03  0.94460742202E+03  0.00000000000E+00 0.  1.
          2   -1    0    0  501    0  0.00000000000E+00 -0.00000000000E+00 -0.19018037147E+04  0.19018037147E+04  0.00000000000E+00 0. -1.
         24    2    1    2    0    0 -0.70254439860E+03  0.21693630150E+03 -0.14168934388E+04  0.15985227381E+04  0.84011526412E+02 0.  0.
        254    2    1    2    0    0  0.70254439860E+03 -0.21693630150E+03  0.45969714612E+03  0.12478883986E+04  0.89737060249E+03 0.  0.
         23    2    4    4    0    0 -0.13278190783E+03  0.42790961598E+02 -0.11254094088E+03  0.19862349272E+03  0.85578776842E+02 0.  0.
         23    2    4    4    0    0  0.83532630642E+03 -0.25972726309E+03  0.57223808699E+03  0.10492649058E+04  0.90951223342E+02 0.  0.
          4    1    3    3  502    0 -0.28517703384E+03  0.11381673820E+03 -0.66328039578E+03  0.73090428508E+03  0.00000000000E+00 0. -1.
         -1    1    3    3    0  502 -0.41736736476E+03  0.10311956330E+03 -0.75361304298E+03  0.86761845304E+03  0.00000000000E+00 0.  1.
         11    1    5    5    0    0 -0.24641451237E+02  0.11768542045E+02  0.12833838643E+02  0.30172953373E+02  0.00000000000E+00 0.  1.
        -11    1    5    5    0    0 -0.10814045659E+03  0.31022419553E+02 -0.12537477952E+03  0.16845053935E+03  0.00000000000E+00 0. -1.
          2    1    6    6  503    0  0.77621235137E+03 -0.25269252919E+03  0.50697026496E+03  0.96092558415E+03  0.00000000000E+00 0. -1.
         -2    1    6    6    0  503  0.59113955058E+02 -0.70347339030E+01  0.65267822038E+02  0.88339321694E+02  0.00000000000E+00 0.  1.
<mgrwt>
<rscale>  0 0.26806402E+04</rscale>
<asrwt>0</asrwt>
<pdfrwt beam="1">  1        2 0.29258519E+00 0.26806402E+04</pdfrwt>
<pdfrwt beam="2">  1       -1 0.14532422E+00 0.26806402E+04</pdfrwt>
<totfact> 0.28771044E+00</totfact>
</mgrwt>
</event>
<event>
12    6  0.1457317E-007  0.2664453E+04  0.7818608E-02  0.8346632E-01
          2   -1    0    0  501    0  0.00000000000E+00  0.00000000000E+00  0.14229817315E+04  0.14229817315E+04  0.00000000000E+00 0. -1.
         -1   -1    0    0    0  501 -0.00000000000E+00 -0.00000000000E+00 -0.12472590172E+04  0.12472590172E+04  0.00000000000E+00 0.  1.
         24    2    1    2    0    0 -0.88537321792E+03 -0.45116453419E+03  0.71800731751E+03  0.12287861249E+04  0.83340631060E+02 0.  0.
        254    2    1    2    0    0  0.88537321792E+03  0.45116453419E+03 -0.54228460324E+03  0.14414546238E+04  0.89234728084E+03 0.  0.
         23    2    4    4    0    0  0.10160272570E+04  0.48514150201E+03 -0.33552687981E+03  0.11784080656E+04  0.91616691634E+02 0.  0.
         23    2    4    4    0    0 -0.13065403907E+03 -0.33976967821E+02 -0.20675772344E+03  0.26304655815E+03  0.90663241100E+02 0.  0.
          4    1    3    3  502    0 -0.85946580324E+03 -0.43781882061E+03  0.71238078418E+03  0.11991051531E+04  0.00000000000E+00 0. -1.
         -3    1    3    3    0  502 -0.25907414680E+02 -0.13345713579E+02  0.56265333345E+01  0.29680971744E+02  0.00000000000E+00 0.  1.
         11    1    5    5    0    0  0.55811824930E+03  0.22070874572E+03 -0.19877058080E+03  0.63223261102E+03  0.00000000000E+00 0. -1.
        -11    1    5    5    0    0  0.45790900768E+03  0.26443275629E+03 -0.13675629900E+03  0.54617545462E+03  0.00000000000E+00 0.  1.
          3    1    6    6  503    0 -0.13878355866E+03 -0.12138129383E+02 -0.17665387135E+03  0.22497733352E+03  0.00000000000E+00 0. -1.
         -3    1    6    6    0  503  0.81295195861E+01 -0.21838838437E+02 -0.30103852089E+02  0.38069224625E+02  0.00000000000E+00 0.  1.
<mgrwt>
<rscale>  0 0.26644525E+04</rscale>
<asrwt>0</asrwt>
<pdfrwt beam="1">  1        2 0.21892027E+00 0.26644525E+04</pdfrwt>
<pdfrwt beam="2">  1       -1 0.19188600E+00 0.26644525E+04</pdfrwt>
<totfact> 0.24116867E+00</totfact>
</mgrwt>
</event>
<event>
12    6  0.1457317E-007  0.1708993E+04  0.7818608E-02  0.8756252E-01
          2   -1    0    0  501    0  0.00000000000E+00  0.00000000000E+00  0.16049636307E+04  0.16049636307E+04  0.00000000000E+00 0. -1.
         -1   -1    0    0    0  501 -0.00000000000E+00 -0.00000000000E+00 -0.45494108854E+03  0.45494108854E+03  0.00000000000E+00 0.  1.
         24    2    1    2    0    0  0.11750060306E+03 -0.60437720039E+01  0.11442975174E+04  0.11530156021E+04  0.78646369520E+02 0.  0.
        254    2    1    2    0    0 -0.11750060306E+03  0.60437720039E+01  0.57250247046E+01  0.90688911709E+03  0.89920641451E+03 0.  0.
         23    2    4    4    0    0 -0.31290850603E+03 -0.35763559441E+03 -0.52359480951E+01  0.48387404899E+03  0.91058929284E+02 0.  0.
         23    2    4    4    0    0  0.19540790297E+03  0.36367936641E+03  0.10960972800E+02  0.42301506810E+03  0.91513249432E+02 0.  0.
          4    1    3    3  502    0  0.87308011052E+02 -0.30660728889E+02  0.57611289019E+03  0.58349707054E+03  0.00000000000E+00 0. -1.
         -3    1    3    3    0  502  0.30192592010E+02  0.24616956885E+02  0.56818462725E+03  0.56951853159E+03  0.00000000000E+00 0.  1.
         11    1    5    5    0    0 -0.49783498737E+02 -0.10384932684E+03 -0.24702746134E+02  0.11778499521E+03  0.00000000000E+00 0.  1.
        -11    1    5    5    0    0 -0.26312500729E+03 -0.25378626757E+03  0.19466798039E+02  0.36608905378E+03  0.00000000000E+00 0. -1.
          3    1    6    6  503    0  0.17314857787E+03  0.26890815750E+03  0.37736472451E+02  0.32204979202E+03  0.00000000000E+00 0. -1.
         -3    1    6    6    0  503  0.22259325096E+02  0.94771208910E+02 -0.26775499652E+02  0.10096527608E+03  0.00000000000E+00 0.  1.
<mgrwt>
<rscale>  0 0.17089926E+04</rscale>
<asrwt>0</asrwt>
<pdfrwt beam="1">  1        2 0.24691748E+00 0.17089926E+04</pdfrwt>
<pdfrwt beam="2">  1       -1 0.69990938E-01 0.17089926E+04</pdfrwt>
<totfact> 0.24773304E+01</totfact>
</mgrwt>
</event>
<event>
12    6  0.1457317E-007  0.1606839E+04  0.7818608E-02  0.8816357E-01
         -1   -1    0    0    0  501 -0.00000000000E+00  0.00000000000E+00  0.47213474644E+03  0.47213474644E+03  0.00000000000E+00 0.  1.
          2   -1    0    0  501    0  0.00000000000E+00 -0.00000000000E+00 -0.13671588951E+04  0.13671588951E+04  0.00000000000E+00 0. -1.
         24    2    1    2    0    0 -0.25011745379E+03  0.45369596427E+03 -0.40373037897E+03  0.66168586167E+03  0.80194712706E+02 0.  0.
        254    2    1    2    0    0  0.25011745379E+03 -0.45369596427E+03 -0.49129376965E+03  0.11776077798E+04  0.93647837474E+03 0.  0.
         23    2    4    4    0    0 -0.29737815577E+03 -0.39425933092E+02  0.24329669581E+02  0.31415576881E+03  0.90076315004E+02 0.  0.
         23    2    4    4    0    0  0.54749560956E+03 -0.41427003118E+03 -0.51562343923E+03  0.86345201103E+03  0.91163276845E+02 0.  0.
          2    1    3    3  502    0 -0.14402964401E+03  0.23390523869E+03 -0.26123344481E+03  0.37907665679E+03  0.00000000000E+00 0. -1.
         -1    1    3    3    0  502 -0.10608780978E+03  0.21979072558E+03 -0.14249693417E+03  0.28260920488E+03  0.00000000000E+00 0.  1.
         11    1    5    5    0    0 -0.69439051125E+02 -0.33803230682E+02  0.37326752252E+02  0.85777191953E+02  0.00000000000E+00 0.  1.
        -11    1    5    5    0    0 -0.22793910465E+03 -0.56227024096E+01 -0.12997082670E+02  0.22837857686E+03  0.00000000000E+00 0. -1.
          4    1    6    6  503    0  0.51410553001E+03 -0.39339984263E+03 -0.45536959339E+03  0.79147292989E+03  0.00000000000E+00 0. -1.
         -4    1    6    6    0  503  0.33390079543E+02 -0.20870188550E+02 -0.60253845843E+02  0.71979081134E+02  0.00000000000E+00 0.  1.
<mgrwt>
<rscale>  0 0.16068394E+04</rscale>
<asrwt>0</asrwt>
<pdfrwt beam="1">  1        2 0.21033213E+00 0.16068394E+04</pdfrwt>
<pdfrwt beam="2">  1       -1 0.72636116E-01 0.16068394E+04</pdfrwt>
<totfact> 0.31558937E+01</totfact>
</mgrwt>
</event>
<event>
12    6  0.1457317E-007  0.2119679E+04  0.7818608E-02  0.8552624E-01
          2   -1    0    0  501    0  0.00000000000E+00  0.00000000000E+00  0.24379981810E+04  0.24379981810E+04  0.00000000000E+00 0. -1.
         -1   -1    0    0    0  501 -0.00000000000E+00 -0.00000000000E+00 -0.46073043463E+03  0.46073043463E+03  0.00000000000E+00 0.  1.
         24    2    1    2    0    0  0.23151289475E+03 -0.16760565243E+03  0.19277607790E+04  0.19504578081E+04  0.79587467502E+02 0.  0.
        254    2    1    2    0    0 -0.23151289475E+03  0.16760565243E+03  0.49506967359E+02  0.94827080751E+03  0.90281598867E+03 0.  0.
         23    2    4    4    0    0 -0.49542785558E+03  0.32952241619E+03 -0.67536663602E+02  0.60538094257E+03  0.88831874027E+02 0.  0.
         23    2    4    4    0    0  0.26391496082E+03 -0.16191676375E+03  0.11704363096E+03  0.34288986494E+03  0.89476829417E+02 0.  0.
          4    1    3    3  502    0  0.56018500004E+02 -0.32106011040E+02  0.68837625782E+03  0.69139767183E+03  0.00000000000E+00 0. -1.
         -3    1    3    3    0  502  0.17549439475E+03 -0.13549964139E+03  0.12393845212E+04  0.12590601363E+04  0.00000000000E+00 0.  1.
         11    1    5    5    0    0 -0.35810944789E+03  0.28205459067E+03 -0.41018230165E+02  0.45768948425E+03  0.00000000000E+00 0. -1.
        -11    1    5    5    0    0 -0.13731840769E+03  0.47467825521E+02 -0.26518433437E+02  0.14769145832E+03  0.00000000000E+00 0.  1.
          4    1    6    6  503    0  0.13948311545E+03 -0.13630542972E+03  0.64525466807E+02  0.20542211549E+03  0.00000000000E+00 0. -1.
         -4    1    6    6    0  503  0.12443184537E+03 -0.25611334036E+02  0.52518164154E+02  0.13746774945E+03  0.00000000000E+00 0.  1.
<mgrwt>
<rscale>  0 0.21196792E+04</rscale>
<asrwt>0</asrwt>
<pdfrwt beam="1">  1        2 0.37507664E+00 0.21196792E+04</pdfrwt>
<pdfrwt beam="2">  1       -1 0.70881607E-01 0.21196792E+04</pdfrwt>
<totfact> 0.79614305E+00</totfact>
</mgrwt>
</event>
<event>
12    6  0.1457317E-007  0.2721159E+04  0.7818608E-02  0.8328172E-01
          2   -1    0    0  501    0  0.00000000000E+00  0.00000000000E+00  0.29719019421E+04  0.29719019421E+04  0.00000000000E+00 0. -1.
         -1   -1    0    0    0  501 -0.00000000000E+00 -0.00000000000E+00 -0.62289295055E+03  0.62289295055E+03  0.00000000000E+00 0.  1.
         24    2    1    2    0    0  0.25624243593E+03 -0.66098731381E+03  0.23359372708E+04  0.24425553378E+04  0.83121780700E+02 0.  0.
        254    2    1    2    0    0 -0.25624243593E+03  0.66098731381E+03  0.13071720794E+02  0.11522395548E+04  0.90825145572E+03 0.  0.
         23    2    4    4    0    0 -0.47367426788E+03  0.12513208799E+03  0.20029345735E+03  0.53756591406E+03  0.93990911266E+02 0.  0.
         23    2    4    4    0    0  0.21743183195E+03  0.53585522582E+03 -0.18722173656E+03  0.61467364076E+03  0.91401758358E+02 0.  0.
          4    1    3    3  502    0  0.26003170284E+03 -0.64324510032E+03  0.22988426410E+04  0.24012618003E+04  0.00000000000E+00 0. -1.
         -3    1    3    3    0  502 -0.37892669026E+01 -0.17742213487E+02  0.37094629735E+02  0.41293537488E+02  0.00000000000E+00 0.  1.
         11    1    5    5    0    0 -0.23149081798E+03  0.54656482319E+02  0.47145671018E+02  0.24248308017E+03  0.00000000000E+00 0.  1.
        -11    1    5    5    0    0 -0.24218344990E+03  0.70475605674E+02  0.15314778634E+03  0.29508283389E+03  0.00000000000E+00 0. -1.
          1    1    6    6  503    0  0.19991321882E+02  0.74175833180E+01 -0.79128483765E+01  0.22743936825E+02  0.00000000000E+00 0. -1.
         -1    1    6    6    0  503  0.19744051007E+03  0.52843764250E+03 -0.17930888818E+03  0.59192970394E+03  0.00000000000E+00 0.  1.
<mgrwt>
<rscale>  0 0.27211591E+04</rscale>
<asrwt>0</asrwt>
<pdfrwt beam="1">  1        2 0.45721567E+00 0.27211591E+04</pdfrwt>
<pdfrwt beam="2">  1       -1 0.95829687E-01 0.27211591E+04</pdfrwt>
<totfact> 0.18946005E+00</totfact>
</mgrwt>
</event>
<event>
12    6  0.1457317E-007  0.1421791E+04  0.7818608E-02  0.8938194E-01
          2   -1    0    0  501    0  0.00000000000E+00  0.00000000000E+00  0.12960184618E+04  0.12960184618E+04  0.00000000000E+00 0. -1.
         -1   -1    0    0    0  501 -0.00000000000E+00 -0.00000000000E+00 -0.38994227082E+03  0.38994227082E+03  0.00000000000E+00 0.  1.
         24    2    1    2    0    0 -0.39857146310E+03 -0.11039423928E+03  0.14039742915E+03  0.44406328254E+03  0.80216342008E+02 0.  0.
        254    2    1    2    0    0  0.39857146310E+03  0.11039423928E+03  0.76567876179E+03  0.12418974500E+04  0.88600181201E+03 0.  0.
         23    2    4    4    0    0  0.39770219664E+03  0.68490469147E+02  0.94746533852E+03  0.10338158070E+04  0.90700459897E+02 0.  0.
         23    2    4    4    0    0  0.86926645963E+00  0.41903770137E+02 -0.18178657673E+03  0.20808164309E+03  0.92167939843E+02 0.  0.
          2    1    3    3  502    0 -0.27457529352E+03 -0.88607025179E+02  0.13369512586E+03  0.31798928190E+03  0.00000000000E+00 0. -1.
         -1    1    3    3    0  502 -0.12399616958E+03 -0.21787214105E+02  0.67023032883E+01  0.12607400064E+03  0.00000000000E+00 0.  1.
         11    1    5    5    0    0  0.91404856481E+02 -0.14972808379E+02  0.27502210164E+03  0.29020025701E+03  0.00000000000E+00 0. -1.
        -11    1    5    5    0    0  0.30629734016E+03  0.83463277526E+02  0.67244323688E+03  0.74361554994E+03  0.00000000000E+00 0.  1.
          4    1    6    6  503    0  0.24794261059E+02  0.48271191328E+02 -0.49348766299E+02  0.73349601423E+02  0.00000000000E+00 0. -1.
         -4    1    6    6    0  503 -0.23924994600E+02 -0.63674211912E+01 -0.13243781043E+03  0.13473204166E+03  0.00000000000E+00 0.  1.
<mgrwt>
<rscale>  0 0.14217910E+04</rscale>
<asrwt>0</asrwt>
<pdfrwt beam="1">  1        2 0.19938745E+00 0.14217910E+04</pdfrwt>
<pdfrwt beam="2">  1       -1 0.59991120E-01 0.14217910E+04</pdfrwt>
<totfact> 0.51869153E+01</totfact>
</mgrwt>
</event>
<event>
12    6  0.1481091E-007  0.1630951E+04  0.7818608E-02  0.8801756E-01
         -1   -1    0    0    0  501 -0.00000000000E+00  0.00000000000E+00  0.55904020471E+03  0.55904020471E+03  0.00000000000E+00 0.  1.
          2   -1    0    0  501    0  0.00000000000E+00 -0.00000000000E+00 -0.11895398484E+04  0.11895398484E+04  0.00000000000E+00 0. -1.
         24    2    1    2    0    0  0.19025812275E+03  0.94792714705E+02  0.34186360166E+03  0.41009026766E+03  0.78227191295E+02 0.  0.
        254    2    1    2    0    0 -0.19025812275E+03 -0.94792714705E+02 -0.97236324531E+03  0.13384897854E+04  0.89491944484E+03 0.  0.
         23    2    4    4    0    0 -0.22845520246E+03 -0.15798433329E+03 -0.11158143255E+04  0.11537901773E+04  0.95075417743E+02 0.  0.
         23    2    4    4    0    0  0.38197079709E+02  0.63191618582E+02  0.14345108021E+03  0.18469960812E+03  0.89908482735E+02 0.  0.
          2    1    3    3  502    0 -0.46654166061E+01  0.75602472361E+01  0.26817738199E+01  0.92798362701E+01  0.00000000000E+00 0. -1.
         -1    1    3    3    0  502  0.19492353935E+03  0.87232467469E+02  0.33918182784E+03  0.40081043139E+03  0.00000000000E+00 0.  1.
         11    1    5    5    0    0 -0.94837873257E+02 -0.10662869648E+03 -0.42555160859E+03  0.44884080996E+03  0.00000000000E+00 0.  1.
        -11    1    5    5    0    0 -0.13361732920E+03 -0.51355636810E+02 -0.69026271693E+03  0.70494936732E+03  0.00000000000E+00 0. -1.
          1    1    6    6  503    0  0.45013299853E+02  0.26998351254E+02  0.13777542624E+03  0.14743532891E+03  0.00000000000E+00 0. -1.
         -1    1    6    6    0  503 -0.68162201439E+01  0.36193267329E+02  0.56756539685E+01  0.37264279209E+02  0.00000000000E+00 0.  1.
<mgrwt>
<rscale>  0 0.16309514E+04</rscale>
<asrwt>0</asrwt>
<pdfrwt beam="1">  1        2 0.18300613E+00 0.16309514E+04</pdfrwt>
<pdfrwt beam="2">  1       -1 0.86006186E-01 0.16309514E+04</pdfrwt>
<totfact> 0.27978022E+01</totfact>
</mgrwt>
</event>
<event>
12    6  0.1457317E-007  0.1215801E+04  0.7818608E-02  0.9099137E-01
          2   -1    0    0  501    0  0.00000000000E+00  0.00000000000E+00  0.13993456540E+04  0.13993456540E+04  0.00000000000E+00 0. -1.
         -1   -1    0    0    0  501 -0.00000000000E+00 -0.00000000000E+00 -0.26408268566E+03  0.26408268566E+03  0.00000000000E+00 0.  1.
         24    2    1    2    0    0  0.17346805258E+03 -0.16471450107E+03  0.11927328084E+03  0.27926857593E+03  0.80887513557E+02 0.  0.
        254    2    1    2    0    0 -0.17346805258E+03  0.16471450107E+03  0.10159896875E+04  0.13841597637E+04  0.90908810040E+03 0.  0.
         23    2    4    4    0    0 -0.30194166655E+03  0.14514737488E+03  0.11341720601E+04  0.11859775763E+04  0.89218939918E+02 0.  0.
         23    2    4    4    0    0  0.12847361396E+03  0.19567126189E+02 -0.11818237259E+03  0.19818218740E+03  0.91764722507E+02 0.  0.
          4    1    3    3  502    0 -0.41468553322E+01 -0.66279924927E+01 -0.65973014617E+01  0.10229911056E+02  0.00000000000E+00 0. -1.
         -3    1    3    3    0  502  0.17761490792E+03 -0.15808650858E+03  0.12587058230E+03  0.26903866487E+03  0.00000000000E+00 0.  1.
         11    1    5    5    0    0 -0.30323622983E+03  0.12878030473E+03  0.10954801712E+04  0.11439464076E+04  0.00000000000E+00 0. -1.
        -11    1    5    5    0    0  0.12945632774E+01  0.16367070149E+02  0.38691888939E+02  0.42031168780E+02  0.00000000000E+00 0.  1.
          1    1    6    6  503    0  0.12596471088E+03  0.27629632787E+02 -0.13035633853E+03  0.18336651819E+03  0.00000000000E+00 0. -1.
         -1    1    6    6    0  503  0.25089030806E+01 -0.80625065985E+01  0.12173965942E+02  0.14815669208E+02  0.00000000000E+00 0.  1.
<mgrwt>
<rscale>  0 0.12158009E+04</rscale>
<asrwt>0</asrwt>
<pdfrwt beam="1">  1        2 0.21528394E+00 0.12158009E+04</pdfrwt>
<pdfrwt beam="2">  1       -1 0.40628106E-01 0.12158009E+04</pdfrwt>
<totfact> 0.96251602E+01</totfact>
</mgrwt>
</event>
<event>
12    6  0.1457317E-007  0.1282735E+04  0.7818608E-02  0.9043370E-01
         -1   -1    0    0    0  501 -0.00000000000E+00  0.00000000000E+00  0.12521126666E+03  0.12521126666E+03  0.00000000000E+00 0.  1.
          2   -1    0    0  501    0  0.00000000000E+00 -0.00000000000E+00 -0.32852647917E+04  0.32852647917E+04  0.00000000000E+00 0. -1.
         24    2    1    2    0    0 -0.11094268655E+03  0.20820396475E+03 -0.25050421992E+03  0.35775994062E+03  0.97890961191E+02 0.  0.
        254    2    1    2    0    0  0.11094268655E+03 -0.20820396475E+03 -0.29095493051E+04  0.30527161177E+04  0.89327563824E+03 0.  0.
         23    2    4    4    0    0 -0.25088178579E+02 -0.60498678356E+02  0.21058938902E+02  0.11380948300E+03  0.90662079863E+02 0.  0.
         23    2    4    4    0    0  0.13603086513E+03 -0.14770528639E+03 -0.29306082440E+04  0.29389066347E+04  0.91576633665E+02 0.  0.
          2    1    3    3  502    0 -0.57317544495E+02  0.35549386680E+02 -0.10898454788E+03  0.12816665509E+03  0.00000000000E+00 0. -1.
         -1    1    3    3    0  502 -0.53625142058E+02  0.17265457807E+03 -0.14151967203E+03  0.22959328553E+03  0.00000000000E+00 0.  1.
         11    1    5    5    0    0  0.46965832219E+00  0.22549775166E+02 -0.49834524711E+01  0.23098652288E+02  0.00000000000E+00 0. -1.
        -11    1    5    5    0    0 -0.25557836901E+02 -0.83048453522E+02  0.26042391373E+02  0.90710830709E+02  0.00000000000E+00 0.  1.
          2    1    6    6  503    0 -0.61365746227E+01 -0.26863260333E+02 -0.19429758584E+03  0.19624180025E+03  0.00000000000E+00 0. -1.
         -2    1    6    6    0  503  0.14216743975E+03 -0.12084202606E+03 -0.27363106582E+04  0.27426648345E+04  0.00000000000E+00 0.  1.
<mgrwt>
<rscale>  0 0.12827348E+04</rscale>
<asrwt>0</asrwt>
<pdfrwt beam="1">  1        2 0.50542537E+00 0.12827348E+04</pdfrwt>
<pdfrwt beam="2">  1       -1 0.19263271E-01 0.12827348E+04</pdfrwt>
<totfact> 0.28212202E+01</totfact>
</mgrwt>
</event>
<event>
12    6  0.1457317E-007  0.1330838E+04  0.7818608E-02  0.9005462E-01
          2   -1    0    0  501    0  0.00000000000E+00  0.00000000000E+00  0.40518480200E+03  0.40518480200E+03  0.00000000000E+00 0. -1.
         -1   -1    0    0    0  501 -0.00000000000E+00 -0.00000000000E+00 -0.10927909740E+04  0.10927909740E+04  0.00000000000E+00 0.  1.
         24    2    1    2    0    0 -0.28431494708E+03  0.27316919412E+02  0.47161625941E+02  0.30023232013E+03  0.79586580972E+02 0.  0.
        254    2    1    2    0    0  0.28431494708E+03 -0.27316919412E+02 -0.73476779798E+03  0.11977434559E+04  0.90173414375E+03 0.  0.
         23    2    4    4    0    0  0.37011324016E+03  0.11826164463E+03 -0.87642625647E+03  0.96305926025E+03  0.91599828574E+02 0.  0.
         23    2    4    4    0    0 -0.85798293084E+02 -0.14557856405E+03  0.14165845848E+03  0.23468419566E+03  0.80343558722E+02 0.  0.
          2    1    3    3  502    0 -0.26211706179E+03  0.10674219417E+02  0.60844335364E+02  0.26929783918E+03  0.00000000000E+00 0. -1.
         -1    1    3    3    0  502 -0.22197885285E+02  0.16642699995E+02 -0.13682709423E+02  0.30934480946E+02  0.00000000000E+00 0.  1.
         11    1    5    5    0    0  0.16644596376E+03  0.29318395815E+02 -0.28617664239E+03  0.33235658235E+03  0.00000000000E+00 0. -1.
        -11    1    5    5    0    0  0.20366727641E+03  0.88943248819E+02 -0.59024961408E+03  0.63070267790E+03  0.00000000000E+00 0.  1.
          1    1    6    6  503    0 -0.48229213288E+01 -0.16102501143E+01 -0.95035900757E+01  0.10778297635E+02  0.00000000000E+00 0. -1.
         -1    1    6    6    0  503 -0.80975371755E+02 -0.14396831393E+03  0.15116204856E+03  0.22390589803E+03  0.00000000000E+00 0.  1.
<mgrwt>
<rscale>  0 0.13308378E+04</rscale>
<asrwt>0</asrwt>
<pdfrwt beam="1">  1        2 0.62336124E-01 0.13308378E+04</pdfrwt>
<pdfrwt beam="2">  1       -1 0.16812169E+00 0.13308378E+04</pdfrwt>
<totfact> 0.22281857E+01</totfact>
</mgrwt>
</event>
<event>
12    6  0.1457317E-007  0.1730589E+04  0.7818608E-02  0.8744108E-01
          2   -1    0    0  501    0  0.00000000000E+00  0.00000000000E+00  0.82346209303E+03  0.82346209303E+03  0.00000000000E+00 0. -1.
         -1   -1    0    0    0  501 -0.00000000000E+00 -0.00000000000E+00 -0.90925191016E+03  0.90925191016E+03  0.00000000000E+00 0.  1.
         24    2    1    2    0    0  0.61606119641E+03 -0.21866891998E+02  0.85128503563E+02  0.62756673099E+03  0.81139269402E+02 0.  0.
        254    2    1    2    0    0 -0.61606119641E+03  0.21866891998E+02 -0.17091832069E+03  0.11051472722E+04  0.90118137032E+03 0.  0.
         23    2    4    4    0    0 -0.29275263884E+03  0.33646974159E+02  0.36085846202E+03  0.47603867153E+03  0.97763800856E+02 0.  0.
         23    2    4    4    0    0 -0.32330855757E+03 -0.11780082161E+02 -0.53177678271E+03  0.62910860067E+03  0.91235360889E+02 0.  0.
          2    1    3    3  502    0  0.53910472265E+03  0.12996027943E+01  0.92022526294E+02  0.54690377243E+03  0.00000000000E+00 0. -1.
         -1    1    3    3    0  502  0.76956473767E+02 -0.23166494793E+02 -0.68940227311E+01  0.80662958568E+02  0.00000000000E+00 0.  1.
         11    1    5    5    0    0 -0.23418027655E+03 -0.41894679142E+01  0.23283911388E+03  0.33026051311E+03  0.00000000000E+00 0. -1.
        -11    1    5    5    0    0 -0.58572362292E+02  0.37836442074E+02  0.12801934814E+03  0.14577815842E+03  0.00000000000E+00 0.  1.
          2    1    6    6  503    0 -0.33425179307E+02  0.11709562919E+01 -0.12529022148E+03  0.12967749746E+03  0.00000000000E+00 0. -1.
         -2    1    6    6    0  503 -0.28988337826E+03 -0.12951038453E+02 -0.40648656123E+03  0.49943110321E+03  0.00000000000E+00 0.  1.
<mgrwt>
<rscale>  0 0.17305889E+04</rscale>
<asrwt>0</asrwt>
<pdfrwt beam="1">  1        2 0.12668648E+00 0.17305889E+04</pdfrwt>
<pdfrwt beam="2">  1       -1 0.13988491E+00 0.17305889E+04</pdfrwt>
<totfact> 0.15084467E+01</totfact>
</mgrwt>
</event>
<event>
12    6  0.1457317E-007  0.2691022E+04  0.7818608E-02  0.8337924E-01
          2   -1    0    0  501    0  0.00000000000E+00  0.00000000000E+00  0.22454995721E+04  0.22454995721E+04  0.00000000000E+00 0. -1.
         -1   -1    0    0    0  501 -0.00000000000E+00 -0.00000000000E+00 -0.80623490297E+03  0.80623490297E+03  0.00000000000E+00 0.  1.
         24    2    1    2    0    0  0.37616115221E+03  0.41725270610E+03 -0.55798586428E+03  0.79437930576E+03  0.63978304903E+02 0.  0.
        254    2    1    2    0    0 -0.37616115221E+03 -0.41725270610E+03  0.19972505334E+04  0.22573551693E+04  0.88940746233E+03 0.  0.
         23    2    4    4    0    0 -0.77602455772E+02 -0.63965312976E+03  0.14484551963E+04  0.15880862786E+04  0.93900505538E+02 0.  0.
         23    2    4    4    0    0 -0.29855869644E+03  0.22240042366E+03  0.54879533711E+03  0.66926889075E+03  0.90251218381E+02 0.  0.
          2    1    3    3  502    0 -0.21421368927E+01  0.32005372416E+01 -0.79175417027E+01  0.88045247297E+01  0.00000000000E+00 0. -1.
         -1    1    3    3    0  502  0.37830328910E+03  0.41405216886E+03 -0.55006832258E+03  0.78557478103E+03  0.00000000000E+00 0.  1.
         11    1    5    5    0    0 -0.28504483658E+02 -0.43374324773E+03  0.10607312964E+04  0.11463405226E+04  0.00000000000E+00 0. -1.
        -11    1    5    5    0    0 -0.49097972114E+02 -0.20590988203E+03  0.38772389989E+03  0.44174575598E+03  0.00000000000E+00 0.  1.
          4    1    6    6  503    0 -0.94243430572E+02  0.91857145969E+02  0.12779620836E+03  0.18344326192E+03  0.00000000000E+00 0. -1.
         -4    1    6    6    0  503 -0.20431526587E+03  0.13054327770E+03  0.42099912875E+03  0.48582562883E+03  0.00000000000E+00 0.  1.
<mgrwt>
<rscale>  0 0.26910222E+04</rscale>
<asrwt>0</asrwt>
<pdfrwt beam="1">  1        2 0.34546147E+00 0.26910222E+04</pdfrwt>
<pdfrwt beam="2">  1       -1 0.12403614E+00 0.26910222E+04</pdfrwt>
<totfact> 0.27723784E+00</totfact>
</mgrwt>
</event>
<event>
12    6  0.1457317E-007  0.1348275E+04  0.7818608E-02  0.8992135E-01
          2   -1    0    0  501    0  0.00000000000E+00  0.00000000000E+00  0.59383934420E+03  0.59383934420E+03  0.00000000000E+00 0. -1.
         -1   -1    0    0    0  501 -0.00000000000E+00 -0.00000000000E+00 -0.76529321877E+03  0.76529321877E+03  0.00000000000E+00 0.  1.
         24    2    1    2    0    0  0.32754758237E+03 -0.15344638583E+03 -0.11038314081E+03  0.38615148245E+03  0.78072514877E+02 0.  0.
        254    2    1    2    0    0 -0.32754758237E+03  0.15344638583E+03 -0.61070733761E+02  0.97298108052E+03  0.90118218829E+03 0.  0.
         23    2    4    4    0    0 -0.60999391477E+03  0.80763107462E+02  0.95357316462E+02  0.62927924452E+03  0.91016999503E+02 0.  0.
         23    2    4    4    0    0  0.28244633239E+03  0.72683278368E+02 -0.15642805022E+03  0.34370183601E+03  0.92749272456E+02 0.  0.
          2    1    3    3  502    0  0.85046386348E+02 -0.33277197818E+02  0.60518623751E+01  0.91525323073E+02  0.00000000000E+00 0. -1.
         -1    1    3    3    0  502  0.24250119602E+03 -0.12016918801E+03 -0.11643500319E+03  0.29462615938E+03  0.00000000000E+00 0.  1.
         11    1    5    5    0    0 -0.18082045299E+03  0.84977255129E+01 -0.10673076347E+02  0.18133439309E+03  0.00000000000E+00 0. -1.
        -11    1    5    5    0    0 -0.42917346177E+03  0.72265381949E+02  0.10603039281E+03  0.44794485142E+03  0.00000000000E+00 0.  1.
          2    1    6    6  503    0 -0.53869074133E+01 -0.55739030878E+01 -0.35853241157E+01  0.85405922585E+01  0.00000000000E+00 0. -1.
         -2    1    6    6    0  503  0.28783323981E+03  0.78257181455E+02 -0.15284272611E+03  0.33516124375E+03  0.00000000000E+00 0.  1.
<mgrwt>
<rscale>  0 0.13482748E+04</rscale>
<asrwt>0</asrwt>
<pdfrwt beam="1">  1        2 0.91359900E-01 0.13482748E+04</pdfrwt>
<pdfrwt beam="2">  1       -1 0.11773742E+00 0.13482748E+04</pdfrwt>
<totfact> 0.36375575E+01</totfact>
</mgrwt>
</event>
<event>
12    6  0.1457317E-007  0.1472920E+04  0.7818608E-02  0.8902663E-01
          2   -1    0    0  501    0  0.00000000000E+00  0.00000000000E+00  0.39594957428E+03  0.39594957428E+03  0.00000000000E+00 0. -1.
         -1   -1    0    0    0  501 -0.00000000000E+00 -0.00000000000E+00 -0.13698037788E+04  0.13698037788E+04  0.00000000000E+00 0.  1.
         24    2    1    2    0    0 -0.20764769506E+03 -0.27080803065E+03 -0.66176280202E+03  0.74872517811E+03  0.78770752645E+02 0.  0.
        254    2    1    2    0    0  0.20764769506E+03  0.27080803065E+03 -0.31209140247E+03  0.10170281749E+04  0.90580942277E+03 0.  0.
         23    2    4    4    0    0  0.34619288840E+03  0.38902508668E+03 -0.50889622478E+03  0.73385611955E+03  0.91539076661E+02 0.  0.
         23    2    4    4    0    0 -0.13854519335E+03 -0.11821705603E+03  0.19680482231E+03  0.28317205538E+03  0.91017756135E+02 0.  0.
          4    1    3    3  502    0 -0.19128730999E+02 -0.14158984126E+02 -0.15895339912E+02  0.28618997397E+02  0.00000000000E+00 0. -1.
         -3    1    3    3    0  502 -0.18851896406E+03 -0.25664904653E+03 -0.64586746211E+03  0.72010618071E+03  0.00000000000E+00 0.  1.
         11    1    5    5    0    0  0.41079814017E+02  0.80305790601E+02 -0.54141170871E+02  0.10520379036E+03  0.00000000000E+00 0. -1.
        -11    1    5    5    0    0  0.30511307439E+03  0.30871929608E+03 -0.45475505391E+03  0.62865232918E+03  0.00000000000E+00 0.  1.
          1    1    6    6  503    0  0.44182005140E+01 -0.24689098064E+02  0.57515214090E+02  0.62746090801E+02  0.00000000000E+00 0. -1.
         -1    1    6    6    0  503 -0.14296339386E+03 -0.93527957962E+02  0.13928960822E+03  0.22042596458E+03  0.00000000000E+00 0.  1.
<mgrwt>
<rscale>  0 0.14729199E+04</rscale>
<asrwt>0</asrwt>
<pdfrwt beam="1">  1        2 0.60915319E-01 0.14729199E+04</pdfrwt>
<pdfrwt beam="2">  1       -1 0.21073904E+00 0.14729199E+04</pdfrwt>
<totfact> 0.11322503E+01</totfact>
</mgrwt>
</event>
<event>
12    6  0.1457317E-007  0.2284758E+04  0.7818608E-02  0.8483955E-01
          2   -1    0    0  501    0  0.00000000000E+00  0.00000000000E+00  0.10024384191E+04  0.10024384191E+04  0.00000000000E+00 0. -1.
         -1   -1    0    0    0  501 -0.00000000000E+00 -0.00000000000E+00 -0.13018547820E+04  0.13018547820E+04  0.00000000000E+00 0.  1.
         24    2    1    2    0    0 -0.36684651591E+03 -0.18879937963E+03 -0.10094154734E+04  0.10929526625E+04  0.73514301507E+02 0.  0.
        254    2    1    2    0    0  0.36684651591E+03  0.18879937963E+03  0.70999911053E+03  0.12113405386E+04  0.89051984345E+03 0.  0.
         23    2    4    4    0    0  0.48715494603E+03  0.34763895219E+03  0.17086203161E+03  0.62938070266E+03  0.93559887322E+02 0.  0.
         23    2    4    4    0    0 -0.12030843012E+03 -0.15883957256E+03  0.53913707892E+03  0.58195983596E+03  0.91128111128E+02 0.  0.
          4    1    3    3  502    0 -0.65478297697E+02 -0.63430961566E+02 -0.26076062582E+03  0.27623721388E+03  0.00000000000E+00 0. -1.
         -3    1    3    3    0  502 -0.30136821821E+03 -0.12536841807E+03 -0.74865484762E+03  0.81671544865E+03  0.00000000000E+00 0.  1.
         11    1    5    5    0    0  0.99097468348E+02  0.49765459771E+02 -0.92249518461E+00  0.11089526688E+03  0.00000000000E+00 0.  1.
        -11    1    5    5    0    0  0.38805747768E+03  0.29787349242E+03  0.17178452680E+03  0.51848543578E+03  0.00000000000E+00 0. -1.
          2    1    6    6  503    0 -0.11462763981E+03 -0.13047521601E+03  0.35106188253E+03  0.39167297988E+03  0.00000000000E+00 0. -1.
         -2    1    6    6    0  503 -0.56807903092E+01 -0.28364356548E+02  0.18807519638E+03  0.19028685608E+03  0.00000000000E+00 0.  1.
<mgrwt>
<rscale>  0 0.22847575E+04</rscale>
<asrwt>0</asrwt>
<pdfrwt beam="1">  1        2 0.15422129E+00 0.22847575E+04</pdfrwt>
<pdfrwt beam="2">  1       -1 0.20028535E+00 0.22847575E+04</pdfrwt>
<totfact> 0.38922301E+00</totfact>
</mgrwt>
</event>
<event>
12    6  0.1457317E-007  0.1357986E+04  0.7818608E-02  0.8984805E-01
          2   -1    0    0  501    0  0.00000000000E+00  0.00000000000E+00  0.44822927654E+04  0.44822927654E+04  0.00000000000E+00 0. -1.
         -1   -1    0    0    0  501 -0.00000000000E+00 -0.00000000000E+00 -0.10285613602E+03  0.10285613602E+03  0.00000000000E+00 0.  1.
         24    2    1    2    0    0  0.20496331611E+03 -0.97551415607E+02  0.22871599651E+03  0.33262028578E+03  0.82456096284E+02 0.  0.
        254    2    1    2    0    0 -0.20496331611E+03  0.97551415607E+02  0.41507206329E+04  0.42525286156E+04  0.89665579515E+03 0.  0.
         23    2    4    4    0    0 -0.47092161023E+03 -0.19389649502E+03  0.21684013828E+04  0.22292980913E+04  0.91882583222E+02 0.  0.
         23    2    4    4    0    0  0.26595829411E+03  0.29144791062E+03  0.19823192501E+04  0.20232305243E+04  0.90534229176E+02 0.  0.
          2    1    3    3  502    0  0.45424157972E+02 -0.32170700116E+02  0.11001390187E+03  0.12329382254E+03  0.00000000000E+00 0. -1.
         -1    1    3    3    0  502  0.15953915814E+03 -0.65380715491E+02  0.11870209464E+03  0.20932646324E+03  0.00000000000E+00 0.  1.
         11    1    5    5    0    0 -0.28333659198E+03 -0.75180456704E+02  0.13379736637E+04  0.13697099146E+04  0.00000000000E+00 0. -1.
        -11    1    5    5    0    0 -0.18758501825E+03 -0.11871603831E+03  0.83042771914E+03  0.85958817671E+03  0.00000000000E+00 0.  1.
          2    1    6    6  503    0  0.22445055189E+03  0.21745111905E+03  0.13785120679E+04  0.14134916204E+04  0.00000000000E+00 0. -1.
         -2    1    6    6    0  503  0.41507742221E+02  0.73996791578E+02  0.60380718212E+03  0.60973890396E+03  0.00000000000E+00 0.  1.
<mgrwt>
<rscale>  0 0.13579857E+04</rscale>
<asrwt>0</asrwt>
<pdfrwt beam="1">  1        2 0.68958335E+00 0.13579857E+04</pdfrwt>
<pdfrwt beam="2">  1       -1 0.15824024E-01 0.13579857E+04</pdfrwt>
<totfact> 0.44867697E+00</totfact>
</mgrwt>
</event>
<event>
12    6  0.1457317E-007  0.1557796E+04  0.7818608E-02  0.8846904E-01
          2   -1    0    0  501    0  0.00000000000E+00  0.00000000000E+00  0.11817287372E+04  0.11817287372E+04  0.00000000000E+00 0. -1.
         -1   -1    0    0    0  501 -0.00000000000E+00 -0.00000000000E+00 -0.51338491767E+03  0.51338491767E+03  0.00000000000E+00 0.  1.
         24    2    1    2    0    0  0.38978656181E+03  0.15527967145E+03  0.54506794052E+03  0.69245283967E+03  0.79665144518E+02 0.  0.
        254    2    1    2    0    0 -0.38978656181E+03 -0.15527967145E+03  0.12327587906E+03  0.10026608152E+04  0.90226738162E+03 0.  0.
         23    2    4    4    0    0  0.11161552076E+03  0.19078490396E+03 -0.19670640751E+03  0.30930690330E+03  0.90113515193E+02 0.  0.
         23    2    4    4    0    0 -0.50140208257E+03 -0.34606457542E+03  0.31998228657E+03  0.69335391194E+03  0.84771721207E+02 0.  0.
          4    1    3    3  502    0  0.35432073318E+03  0.16273047289E+03  0.48492461689E+03  0.62223490165E+03  0.00000000000E+00 0. -1.
         -3    1    3    3    0  502  0.35465828630E+02 -0.74508014332E+01  0.60143323633E+02  0.70217938021E+02  0.00000000000E+00 0.  1.
         11    1    5    5    0    0  0.10615525185E+02  0.83360631497E+02 -0.10940002736E+03  0.13794944815E+03  0.00000000000E+00 0.  1.
        -11    1    5    5    0    0  0.10099999558E+03  0.10742427247E+03 -0.87306380147E+02  0.17135745515E+03  0.00000000000E+00 0. -1.
          1    1    6    6  503    0 -0.27925802158E+03 -0.16621920790E+03  0.12926540320E+03  0.34974764067E+03  0.00000000000E+00 0. -1.
         -1    1    6    6    0  503 -0.22214406100E+03 -0.17984536752E+03  0.19071688337E+03  0.34360627127E+03  0.00000000000E+00 0.  1.
<mgrwt>
<rscale>  0 0.15577955E+04</rscale>
<asrwt>0</asrwt>
<pdfrwt beam="1">  1        2 0.18180442E+00 0.15577955E+04</pdfrwt>
<pdfrwt beam="2">  1       -1 0.78982295E-01 0.15577955E+04</pdfrwt>
<totfact> 0.34163144E+01</totfact>
</mgrwt>
</event>
<event>
12    6  0.1457317E-007  0.2141775E+04  0.7818608E-02  0.8543061E-01
          2   -1    0    0  501    0  0.00000000000E+00  0.00000000000E+00  0.13576472074E+04  0.13576472074E+04  0.00000000000E+00 0. -1.
         -1   -1    0    0    0  501 -0.00000000000E+00 -0.00000000000E+00 -0.84469649636E+03  0.84469649636E+03  0.00000000000E+00 0.  1.
         24    2    1    2    0    0 -0.70063676243E+03  0.52620111796E+03  0.31170454091E+03  0.93350926505E+03  0.80624671829E+02 0.  0.
        254    2    1    2    0    0  0.70063676243E+03 -0.52620111796E+03  0.20124617016E+03  0.12688344387E+04  0.89535541687E+03 0.  0.
         23    2    4    4    0    0  0.61263035111E+03  0.33510374748E+02  0.29605326248E+03  0.68728485523E+03  0.90961781443E+02 0.  0.
         23    2    4    4    0    0  0.88006411321E+02 -0.55971149270E+03 -0.94807092317E+02  0.58154958351E+03  0.90495579060E+02 0.  0.
          4    1    3    3  502    0 -0.62258887469E+02  0.70301165191E+02  0.51030844104E+02  0.10687642371E+03  0.00000000000E+00 0. -1.
         -3    1    3    3    0  502 -0.63837787496E+03  0.45589995277E+03  0.26067369680E+03  0.82663284134E+03  0.00000000000E+00 0.  1.
         11    1    5    5    0    0  0.49630708640E+03  0.60462454578E+02  0.25310038280E+03  0.56038936125E+03  0.00000000000E+00 0. -1.
        -11    1    5    5    0    0  0.11632326471E+03 -0.26952079830E+02  0.42952879679E+02  0.12689549398E+03  0.00000000000E+00 0.  1.
          3    1    6    6  503    0  0.66070786704E+02 -0.51369044642E+03 -0.10761448669E+03  0.52898402750E+03  0.00000000000E+00 0. -1.
         -3    1    6    6    0  503  0.21935624617E+02 -0.46021046281E+02  0.12807394378E+02  0.52565556012E+02  0.00000000000E+00 0.  1.
<mgrwt>
<rscale>  0 0.21417748E+04</rscale>
<asrwt>0</asrwt>
<pdfrwt beam="1">  1        2 0.20886880E+00 0.21417748E+04</pdfrwt>
<pdfrwt beam="2">  1       -1 0.12995331E+00 0.21417748E+04</pdfrwt>
<totfact> 0.81320339E+00</totfact>
</mgrwt>
</event>
<event>
12    6  0.1457317E-007  0.2597144E+04  0.7818608E-02  0.8369172E-01
          2   -1    0    0  501    0  0.00000000000E+00  0.00000000000E+00  0.14128161712E+04  0.14128161712E+04  0.00000000000E+00 0. -1.
         -1   -1    0    0    0  501 -0.00000000000E+00 -0.00000000000E+00 -0.11935659697E+04  0.11935659697E+04  0.00000000000E+00 0.  1.
         24    2    1    2    0    0  0.95183017622E+03 -0.61554198431E+03  0.17515003122E+03  0.11495454880E+04  0.76841894190E+02 0.  0.
        254    2    1    2    0    0 -0.95183017622E+03  0.61554198431E+03  0.44100170286E+02  0.14568366530E+04  0.91408729867E+03 0.  0.
         23    2    4    4    0    0 -0.96793617838E+02  0.44433711798E+03 -0.25609466194E+03  0.53007746294E+03  0.92699309450E+02 0.  0.
         23    2    4    4    0    0 -0.85503655838E+03  0.17120486633E+03  0.30019483223E+03  0.92675919003E+03  0.91471506914E+02 0.  0.
          2    1    3    3  502    0  0.48230047795E+02 -0.30331678052E+02  0.26298420411E+02  0.62751534801E+02  0.00000000000E+00 0. -1.
         -1    1    3    3    0  502  0.90360012843E+03 -0.58521030626E+03  0.14885161081E+03  0.10867939532E+04  0.00000000000E+00 0.  1.
         11    1    5    5    0    0 -0.99027998300E+02  0.27981277595E+03 -0.13670914501E+03  0.32678911298E+03  0.00000000000E+00 0. -1.
        -11    1    5    5    0    0  0.22343804623E+01  0.16452434202E+03 -0.11938551693E+03  0.20328834996E+03  0.00000000000E+00 0.  1.
          1    1    6    6  503    0 -0.73965055297E+03  0.11973034222E+03  0.27341604151E+03  0.79760555860E+03  0.00000000000E+00 0. -1.
         -1    1    6    6    0  503 -0.11538600541E+03  0.51474524118E+02  0.26778790714E+02  0.12915363143E+03  0.00000000000E+00 0.  1.
<mgrwt>
<rscale>  0 0.25971440E+04</rscale>
<asrwt>0</asrwt>
<pdfrwt beam="1">  1        2 0.21735633E+00 0.25971440E+04</pdfrwt>
<pdfrwt beam="2">  1       -1 0.18362553E+00 0.25971440E+04</pdfrwt>
<totfact> 0.28113021E+00</totfact>
</mgrwt>
</event>
<event>
12    6  0.1457317E-007  0.1358085E+04  0.7818608E-02  0.8984730E-01
          2   -1    0    0  501    0  0.00000000000E+00  0.00000000000E+00  0.44192600928E+04  0.44192600928E+04  0.00000000000E+00 0. -1.
         -1   -1    0    0    0  501 -0.00000000000E+00 -0.00000000000E+00 -0.10433844625E+03  0.10433844625E+03  0.00000000000E+00 0.  1.
         24    2    1    2    0    0  0.18475519495E+03  0.81950733559E+02  0.17098748167E+03  0.27617957869E+03  0.78664070615E+02 0.  0.
        254    2    1    2    0    0 -0.18475519495E+03 -0.81950733559E+02  0.41439341649E+04  0.42474189603E+04  0.90968514175E+03 0.  0.
         23    2    4    4    0    0 -0.18713717097E+03 -0.17650255475E+03  0.40926758199E+04  0.41017495171E+04  0.90444800461E+02 0.  0.
         23    2    4    4    0    0  0.23819760144E+01  0.94551821192E+02  0.51258345021E+02  0.14566944326E+03  0.98216332984E+02 0.  0.
          2    1    3    3  502    0  0.61062773521E+02  0.36033721932E+01  0.16552252195E+02  0.63368948657E+02  0.00000000000E+00 0. -1.
         -1    1    3    3    0  502  0.12369242143E+03  0.78347361365E+02  0.15443522948E+03  0.21281063004E+03  0.00000000000E+00 0.  1.
         11    1    5    5    0    0 -0.18908163303E+03 -0.15269369036E+03  0.39056232181E+04  0.39131777302E+04  0.00000000000E+00 0. -1.
        -11    1    5    5    0    0  0.19444620585E+01 -0.23808864389E+02  0.18705260180E+03  0.18857178685E+03  0.00000000000E+00 0.  1.
          1    1    6    6  503    0  0.32694309038E+01 -0.10755315246E+02 -0.16848579469E+02  0.20254397414E+02  0.00000000000E+00 0. -1.
         -1    1    6    6    0  503 -0.88745488941E+00  0.10530713644E+03  0.68106924489E+02  0.12541504585E+03  0.00000000000E+00 0.  1.
<mgrwt>
<rscale>  0 0.13580850E+04</rscale>
<asrwt>0</asrwt>
<pdfrwt beam="1">  1        2 0.67988602E+00 0.13580850E+04</pdfrwt>
<pdfrwt beam="2">  1       -1 0.16052072E-01 0.13580850E+04</pdfrwt>
<totfact> 0.50271106E+00</totfact>
</mgrwt>
</event>
<event>
12    6  0.1457317E-007  0.1858868E+04  0.7818608E-02  0.8675606E-01
         -1   -1    0    0    0  501 -0.00000000000E+00  0.00000000000E+00  0.49556929543E+03  0.49556929543E+03  0.00000000000E+00 0.  1.
          2   -1    0    0  501    0  0.00000000000E+00 -0.00000000000E+00 -0.17431409813E+04  0.17431409813E+04  0.00000000000E+00 0. -1.
         24    2    1    2    0    0  0.43168510626E+03  0.42845493627E+03 -0.41727893177E+02  0.61477664975E+03  0.79268206924E+02 0.  0.
        254    2    1    2    0    0 -0.43168510626E+03 -0.42845493627E+03 -0.12058437927E+04  0.16239336270E+04  0.90176244604E+03 0.  0.
         23    2    4    4    0    0 -0.30726296450E+03 -0.35324921910E+03 -0.13296455886E+04  0.14125746246E+04  0.90631885248E+02 0.  0.
         23    2    4    4    0    0 -0.12442214176E+03 -0.75205717167E+02  0.12380179587E+03  0.21135900242E+03  0.90603388389E+02 0.  0.
          2    1    3    3  502    0  0.20254568843E+03  0.21960277848E+03  0.16974246966E+02  0.29922944587E+03  0.00000000000E+00 0. -1.
         -1    1    3    3    0  502  0.22913941784E+03  0.20885215779E+03 -0.58702140143E+02  0.31554720388E+03  0.00000000000E+00 0.  1.
         11    1    5    5    0    0 -0.27542570946E+03 -0.28208126542E+03 -0.10276861369E+04  0.11007124773E+04  0.00000000000E+00 0. -1.
        -11    1    5    5    0    0 -0.31837255039E+02 -0.71167953678E+02 -0.30195945165E+03  0.31186214723E+03  0.00000000000E+00 0.  1.
          1    1    6    6  503    0 -0.13219301934E+03 -0.63922746813E+02  0.13019156852E+03  0.19624208630E+03  0.00000000000E+00 0. -1.
         -1    1    6    6    0  503  0.77708775751E+01 -0.11282970353E+02 -0.63897726543E+01  0.15116916116E+02  0.00000000000E+00 0.  1.
<mgrwt>
<rscale>  0 0.18588676E+04</rscale>
<asrwt>0</asrwt>
<pdfrwt beam="1">  1        2 0.26817553E+00 0.18588676E+04</pdfrwt>
<pdfrwt beam="2">  1       -1 0.76241431E-01 0.18588676E+04</pdfrwt>
<totfact> 0.17154151E+01</totfact>
</mgrwt>
</event>
<event>
12    6  0.1457317E-007  0.1417495E+04  0.7818608E-02  0.8941251E-01
          2   -1    0    0  501    0  0.00000000000E+00  0.00000000000E+00  0.20330508766E+04  0.20330508766E+04  0.00000000000E+00 0. -1.
         -1   -1    0    0    0  501 -0.00000000000E+00 -0.00000000000E+00 -0.24707848227E+03  0.24707848227E+03  0.00000000000E+00 0.  1.
         24    2    1    2    0    0  0.17508141589E+03  0.26162086374E+03  0.11419568622E+03  0.34414619294E+03  0.79353442445E+02 0.  0.
        254    2    1    2    0    0 -0.17508141589E+03 -0.26162086374E+03  0.16717767081E+04  0.19359831659E+04  0.92417232076E+03 0.  0.
         23    2    4    4    0    0 -0.32041305958E+03 -0.18474368834E+03  0.16071142625E+03  0.41311841252E+03  0.89687797958E+02 0.  0.
         23    2    4    4    0    0  0.14533164369E+03 -0.76877175409E+02  0.15110652818E+04  0.15228647534E+04  0.93634312081E+02 0.  0.
          4    1    3    3  502    0  0.41773477671E+02  0.26854349422E+02  0.41070392885E+02  0.64443437923E+02  0.00000000000E+00 0. -1.
         -3    1    3    3    0  502  0.13330793822E+03  0.23476651432E+03  0.73125293339E+02  0.27970275502E+03  0.00000000000E+00 0.  1.
         11    1    5    5    0    0 -0.18737397932E+02 -0.21078657681E+02  0.40725481054E+02  0.49537507991E+02  0.00000000000E+00 0. -1.
        -11    1    5    5    0    0 -0.30167566165E+03 -0.16366503065E+03  0.11998594520E+03  0.36358090453E+03  0.00000000000E+00 0.  1.
          3    1    6    6  503    0  0.10177407454E+02 -0.46696144222E+02  0.51615004213E+03  0.51835796077E+03  0.00000000000E+00 0. -1.
         -3    1    6    6    0  503  0.13515423624E+03 -0.30181031186E+02  0.99491523972E+03  0.10045067926E+04  0.00000000000E+00 0.  1.
<mgrwt>
<rscale>  0 0.14174951E+04</rscale>
<asrwt>0</asrwt>
<pdfrwt beam="1">  1        2 0.31277705E+00 0.14174951E+04</pdfrwt>
<pdfrwt beam="2">  1       -1 0.38012076E-01 0.14174951E+04</pdfrwt>
<totfact> 0.47434814E+01</totfact>
</mgrwt>
</event>
<event>
12    6  0.1457317E-007  0.1227583E+04  0.7818608E-02  0.9089050E-01
         -1   -1    0    0    0  501 -0.00000000000E+00  0.00000000000E+00  0.49118072789E+03  0.49118072789E+03  0.00000000000E+00 0.  1.
          2   -1    0    0  501    0  0.00000000000E+00 -0.00000000000E+00 -0.76700831692E+03  0.76700831692E+03  0.00000000000E+00 0. -1.
         24    2    1    2    0    0 -0.24670997671E+02  0.55936519478E+02 -0.32429854540E+03  0.33962941954E+03  0.80256113361E+02 0.  0.
        254    2    1    2    0    0  0.24670997671E+02 -0.55936519478E+02  0.48470956374E+02  0.91855962527E+03  0.91524029590E+03 0.  0.
         23    2    4    4    0    0  0.38989192768E+03 -0.26646856326E+03 -0.25987765570E+02  0.48116030395E+03  0.88423207749E+02 0.  0.
         23    2    4    4    0    0 -0.36522093000E+03  0.21053204378E+03  0.74458721944E+02  0.43739932132E+03  0.89799754136E+02 0.  0.
          2    1    3    3  502    0 -0.95129222660E+01  0.74998920525E+02 -0.26361321368E+03  0.27423942130E+03  0.00000000000E+00 0. -1.
         -1    1    3    3    0  502 -0.15158075406E+02 -0.19062401046E+02 -0.60685331724E+02  0.65389998242E+02  0.00000000000E+00 0.  1.
         11    1    5    5    0    0  0.57716526692E+00 -0.18562073836E+02  0.24928013815E+01  0.18737602930E+02  0.00000000000E+00 0. -1.
        -11    1    5    5    0    0  0.38931476241E+03 -0.24790648943E+03 -0.28480566951E+02  0.46242270103E+03  0.00000000000E+00 0.  1.
          4    1    6    6  503    0 -0.12967793298E+03  0.11631323667E+03  0.56264168271E+02  0.18305953118E+03  0.00000000000E+00 0. -1.
         -4    1    6    6    0  503 -0.23554299703E+03  0.94218807116E+02  0.18194553674E+02  0.25433979014E+03  0.00000000000E+00 0.  1.
<mgrwt>
<rscale>  0 0.12275825E+04</rscale>
<asrwt>0</asrwt>
<pdfrwt beam="1">  1        2 0.11800128E+00 0.12275825E+04</pdfrwt>
<pdfrwt beam="2">  1       -1 0.75566266E-01 0.12275825E+04</pdfrwt>
<totfact> 0.72112283E+01</totfact>
</mgrwt>
</event>
<event>
12    6  0.1457317E-007  0.1481899E+04  0.7818608E-02  0.8896580E-01
         -1   -1    0    0    0  501 -0.00000000000E+00  0.00000000000E+00  0.21704795781E+04  0.21704795781E+04  0.00000000000E+00 0.  1.
          2   -1    0    0  501    0  0.00000000000E+00 -0.00000000000E+00 -0.25294245347E+03  0.25294245347E+03  0.00000000000E+00 0. -1.
         24    2    1    2    0    0  0.10225478760E+03  0.18851681397E+03  0.12882864342E+04  0.13084740078E+04  0.80172699536E+02 0.  0.
        254    2    1    2    0    0 -0.10225478760E+03 -0.18851681397E+03  0.62925069044E+03  0.11149480238E+04  0.89507431738E+03 0.  0.
         23    2    4    4    0    0 -0.30730891586E+03  0.25592477959E+03  0.20348583207E+03  0.45968138358E+03  0.99820979663E+02 0.  0.
         23    2    4    4    0    0  0.20505412826E+03 -0.44444159357E+03  0.42576485838E+03  0.65526664023E+03  0.92320796983E+02 0.  0.
          4    1    3    3  502    0  0.11829798728E+02  0.60389030683E+02  0.20957243827E+03  0.21842020522E+03  0.00000000000E+00 0. -1.
         -3    1    3    3    0  502  0.90424988868E+02  0.12812778329E+03  0.10787139959E+04  0.10900538026E+04  0.00000000000E+00 0.  1.
         11    1    5    5    0    0 -0.85020612308E+01  0.41168954137E+02  0.72733484688E+01  0.42662271715E+02  0.00000000000E+00 0.  1.
        -11    1    5    5    0    0 -0.29880685463E+03  0.21475582546E+03  0.19621248360E+03  0.41701911186E+03  0.00000000000E+00 0. -1.
          4    1    6    6  503    0  0.20860515453E+03 -0.43576962312E+03  0.42821091758E+03  0.64558180338E+03  0.00000000000E+00 0. -1.
         -4    1    6    6    0  503 -0.35510262676E+01 -0.86719704523E+01 -0.24460592011E+01  0.96848368440E+01  0.00000000000E+00 0.  1.
<mgrwt>
<rscale>  0 0.14818994E+04</rscale>
<asrwt>0</asrwt>
<pdfrwt beam="1">  1        2 0.38914225E-01 0.14818994E+04</pdfrwt>
<pdfrwt beam="2">  1       -1 0.33391992E+00 0.14818994E+04</pdfrwt>
<totfact> 0.29346133E+00</totfact>
</mgrwt>
</event>
<event>
12    6  0.1457317E-007  0.1363466E+04  0.7818608E-02  0.8980697E-01
         -1   -1    0    0    0  501 -0.00000000000E+00  0.00000000000E+00  0.10786988650E+04  0.10786988650E+04  0.00000000000E+00 0.  1.
          2   -1    0    0  501    0  0.00000000000E+00 -0.00000000000E+00 -0.43085202628E+03  0.43085202628E+03  0.00000000000E+00 0. -1.
         24    2    1    2    0    0  0.22957413599E+03  0.30524847311E+03  0.18498054813E+03  0.43188058631E+03  0.80138151936E+02 0.  0.
        254    2    1    2    0    0 -0.22957413599E+03 -0.30524847311E+03  0.46286629055E+03  0.10776703049E+04  0.89512410813E+03 0.  0.
         23    2    4    4    0    0 -0.25536406822E+03 -0.20217364638E+03 -0.20561843522E+03  0.39458811114E+03  0.85649552960E+02 0.  0.
         23    2    4    4    0    0  0.25789932223E+02 -0.10307482673E+03  0.66848472577E+03  0.68308219379E+03  0.91869006640E+02 0.  0.
          4    1    3    3  502    0  0.20886693116E+02  0.46966400908E+01  0.23924776574E+02  0.32104630687E+02  0.00000000000E+00 0. -1.
         -3    1    3    3    0  502  0.20868744288E+03  0.30055183302E+03  0.16105577155E+03  0.39977595563E+03  0.00000000000E+00 0.  1.
         11    1    5    5    0    0 -0.91154923893E+02 -0.35002692206E+02 -0.31326921523E+02  0.10254649981E+03  0.00000000000E+00 0.  1.
        -11    1    5    5    0    0 -0.16420914432E+03 -0.16717095418E+03 -0.17429151370E+03  0.29204161133E+03  0.00000000000E+00 0. -1.
          2    1    6    6  503    0  0.19134345301E+02 -0.12015462151E+03  0.56058518730E+03  0.57363665195E+03  0.00000000000E+00 0. -1.
         -2    1    6    6    0  503  0.66555869222E+01  0.17079794786E+02  0.10789953847E+03  0.10944554184E+03  0.00000000000E+00 0.  1.
<mgrwt>
<rscale>  0 0.13634656E+04</rscale>
<asrwt>0</asrwt>
<pdfrwt beam="1">  1        2 0.66284927E-01 0.13634656E+04</pdfrwt>
<pdfrwt beam="2">  1       -1 0.16595367E+00 0.13634656E+04</pdfrwt>
<totfact> 0.21510885E+01</totfact>
</mgrwt>
</event>
<event>
12    6  0.1457317E-007  0.1492267E+04  0.7818608E-02  0.8889612E-01
          2   -1    0    0  501    0  0.00000000000E+00  0.00000000000E+00  0.27035293152E+04  0.27035293152E+04  0.00000000000E+00 0. -1.
         -1   -1    0    0    0  501 -0.00000000000E+00 -0.00000000000E+00 -0.20592156542E+03  0.20592156542E+03  0.00000000000E+00 0.  1.
         24    2    1    2    0    0  0.26589570916E+03 -0.20790989771E+03  0.15273816722E+03  0.37890869238E+03  0.79471980679E+02 0.  0.
        254    2    1    2    0    0 -0.26589570916E+03  0.20790989771E+03  0.23448695826E+04  0.25305421883E+04  0.88955233324E+03 0.  0.
         23    2    4    4    0    0 -0.29602643239E+03 -0.27934483259E+03  0.74170823181E+03  0.85225368607E+03  0.10266479494E+03 0.  0.
         23    2    4    4    0    0  0.30130723226E+02  0.48725473031E+03  0.16031613508E+04  0.16782885022E+04  0.90559081827E+02 0.  0.
          4    1    3    3  502    0  0.59585046382E+02 -0.75047439387E+02  0.13512320208E+02  0.96773336763E+02  0.00000000000E+00 0. -1.
         -3    1    3    3    0  502  0.20631066278E+03 -0.13286245832E+03  0.13922584701E+03  0.28213535561E+03  0.00000000000E+00 0.  1.
         11    1    5    5    0    0 -0.76572716299E+01 -0.73414752496E+00 -0.14445198161E+01  0.78268396497E+01  0.00000000000E+00 0. -1.
        -11    1    5    5    0    0 -0.28836916076E+03 -0.27861068507E+03  0.74315275162E+03  0.84442684642E+03  0.00000000000E+00 0.  1.
          2    1    6    6  503    0 -0.28985423693E+02  0.92353600360E+02  0.28635234126E+03  0.30226975639E+03  0.00000000000E+00 0. -1.
         -2    1    6    6    0  503  0.59116146919E+02  0.39490112995E+03  0.13168090095E+04  0.13760187458E+04  0.00000000000E+00 0.  1.
<mgrwt>
<rscale>  0 0.14922667E+04</rscale>
<asrwt>0</asrwt>
<pdfrwt beam="1">  1        2 0.41592756E+00 0.14922667E+04</pdfrwt>
<pdfrwt beam="2">  1       -1 0.31680243E-01 0.14922667E+04</pdfrwt>
<totfact> 0.27086982E+01</totfact>
</mgrwt>
</event>
<event>
12    6  0.1457317E-007  0.2012795E+04  0.7818608E-02  0.8600662E-01
         -1   -1    0    0    0  501 -0.00000000000E+00  0.00000000000E+00  0.17181131701E+04  0.17181131701E+04  0.00000000000E+00 0.  1.
          2   -1    0    0  501    0  0.00000000000E+00 -0.00000000000E+00 -0.58950481090E+03  0.58950481090E+03  0.00000000000E+00 0. -1.
         24    2    1    2    0    0  0.19982064393E+02 -0.74025556597E+02  0.13590695909E+04  0.13630147308E+04  0.69713252996E+02 0.  0.
        254    2    1    2    0    0 -0.19982064393E+02  0.74025556597E+02 -0.23046123168E+03  0.94460325019E+03  0.91284382839E+03 0.  0.
         23    2    4    4    0    0 -0.45376637723E+03 -0.18064321055E+02 -0.11527222188E+03  0.47738541014E+03  0.91536330946E+02 0.  0.
         23    2    4    4    0    0  0.43378431284E+03  0.92089877652E+02 -0.11518900980E+03  0.46721784004E+03  0.91512985128E+02 0.  0.
          4    1    3    3  502    0 -0.17783833369E+02  0.27642566796E+01  0.21942941533E+03  0.22016624209E+03  0.00000000000E+00 0. -1.
         -3    1    3    3    0  502  0.37765897763E+02 -0.76789813277E+02  0.11396401755E+04  0.11428484887E+04  0.00000000000E+00 0.  1.
         11    1    5    5    0    0 -0.83734452031E+02 -0.70643774789E+01 -0.59612345640E+02  0.10302910093E+03  0.00000000000E+00 0.  1.
        -11    1    5    5    0    0 -0.37003192520E+03 -0.10999943576E+02 -0.55659876239E+02  0.37435630921E+03  0.00000000000E+00 0. -1.
          1    1    6    6  503    0  0.39195578264E+03  0.67476792900E+02 -0.76181013576E+02  0.40495184894E+03  0.00000000000E+00 0. -1.
         -1    1    6    6    0  503  0.41828530192E+02  0.24613084752E+02 -0.39007996223E+02  0.62265991106E+02  0.00000000000E+00 0.  1.
<mgrwt>
<rscale>  0 0.20127951E+04</rscale>
<asrwt>0</asrwt>
<pdfrwt beam="1">  1        2 0.90693049E-01 0.20127951E+04</pdfrwt>
<pdfrwt beam="2">  1       -1 0.26432510E+00 0.20127951E+04</pdfrwt>
<totfact> 0.30205963E+00</totfact>
</mgrwt>
</event>
<event>
12    6  0.1457317E-007  0.1715089E+04  0.7818608E-02  0.8752805E-01
         -1   -1    0    0    0  501 -0.00000000000E+00  0.00000000000E+00  0.55967128672E+03  0.55967128672E+03  0.00000000000E+00 0.  1.
          2   -1    0    0  501    0  0.00000000000E+00 -0.00000000000E+00 -0.13139551125E+04  0.13139551125E+04  0.00000000000E+00 0. -1.
         24    2    1    2    0    0  0.13324523141E+03  0.59351241715E+01 -0.92962956947E+03  0.94253190710E+03  0.79785600664E+02 0.  0.
        254    2    1    2    0    0 -0.13324523141E+03 -0.59351241715E+01  0.17534574366E+03  0.93109449216E+03  0.90465535212E+03 0.  0.
         23    2    4    4    0    0 -0.45467728095E+03 -0.51811563428E+02 -0.12166705851E+03  0.48203194372E+03  0.90200076097E+02 0.  0.
         23    2    4    4    0    0  0.32143204953E+03  0.45876439256E+02  0.29701280217E+03  0.44906254843E+03  0.89539698499E+02 0.  0.
          4    1    3    3  502    0  0.13059812967E+03  0.13847100828E+02 -0.66899465749E+03  0.68176349670E+03  0.00000000000E+00 0. -1.
         -3    1    3    3    0  502  0.26471017445E+01 -0.79119766566E+01 -0.26063491198E+03  0.26076841040E+03  0.00000000000E+00 0.  1.
         11    1    5    5    0    0 -0.49526082087E+02  0.46400352500E+01 -0.42391450581E+02  0.65355931761E+02  0.00000000000E+00 0.  1.
        -11    1    5    5    0    0 -0.40515119886E+03 -0.56451598678E+02 -0.79275607927E+02  0.41667601196E+03  0.00000000000E+00 0. -1.
          4    1    6    6  503    0  0.26921197679E+02 -0.38931125911E+01  0.66250644704E+02  0.71617422000E+02  0.00000000000E+00 0.  1.
         -4    1    6    6    0  503  0.29451085185E+03  0.49769551848E+02  0.23076215746E+03  0.37744512643E+03  0.00000000000E+00 0. -1.
<mgrwt>
<rscale>  0 0.17150894E+04</rscale>
<asrwt>0</asrwt>
<pdfrwt beam="1">  1        2 0.20214694E+00 0.17150894E+04</pdfrwt>
<pdfrwt beam="2">  1       -1 0.86103277E-01 0.17150894E+04</pdfrwt>
<totfact> 0.23401917E+01</totfact>
</mgrwt>
</event>
<event>
12    6  0.1457317E-007  0.1210024E+04  0.7818608E-02  0.9104128E-01
          2   -1    0    0  501    0  0.00000000000E+00  0.00000000000E+00  0.17558581356E+04  0.17558581356E+04  0.00000000000E+00 0. -1.
         -1   -1    0    0    0  501 -0.00000000000E+00 -0.00000000000E+00 -0.20846760341E+03  0.20846760341E+03  0.00000000000E+00 0.  1.
         24    2    1    2    0    0  0.82666531745E+02 -0.25449306602E+03  0.34453985426E+03  0.44337741072E+03  0.79217050185E+02 0.  0.
        254    2    1    2    0    0 -0.82666531745E+02  0.25449306602E+03  0.12028506780E+04  0.15209483283E+04  0.89153440082E+03 0.  0.
         23    2    4    4    0    0 -0.26853326793E+03 -0.35625765218E+02  0.11191411496E+04  0.11551121971E+04  0.91803942954E+02 0.  0.
         23    2    4    4    0    0  0.18586673619E+03  0.29011883124E+03  0.83709528338E+02  0.36583613124E+03  0.90074468799E+02 0.  0.
          2    1    3    3  502    0  0.34270233498E+01  0.22899903214E+01  0.27329200080E+02  0.27638265534E+02  0.00000000000E+00 0. -1.
         -1    1    3    3    0  502  0.79239508395E+02 -0.25678305634E+03  0.31721065418E+03  0.41573914519E+03  0.00000000000E+00 0.  1.
         11    1    5    5    0    0 -0.65906812786E+02 -0.79995800935E+01  0.46596786847E+03  0.47067372532E+03  0.00000000000E+00 0. -1.
        -11    1    5    5    0    0 -0.20262645515E+03 -0.27626185125E+02  0.65317328114E+03  0.68443847176E+03  0.00000000000E+00 0.  1.
          3    1    6    6  503    0 -0.20909317654E+01  0.55345963370E+02  0.13440262636E+02  0.56992879527E+02  0.00000000000E+00 0. -1.
         -3    1    6    6    0  503  0.18795766795E+03  0.23477286787E+03  0.70269265702E+02  0.30884325172E+03  0.00000000000E+00 0.  1.
<mgrwt>
<rscale>  0 0.12100240E+04</rscale>
<asrwt>0</asrwt>
<pdfrwt beam="1">  1        2 0.27013201E+00 0.12100240E+04</pdfrwt>
<pdfrwt beam="2">  1       -1 0.32071940E-01 0.12100240E+04</pdfrwt>
<totfact> 0.93022167E+01</totfact>
</mgrwt>
</event>
<event>
12    6  0.1457317E-007  0.3695225E+04  0.7818608E-02  0.8069021E-01
         -1   -1    0    0    0  501 -0.00000000000E+00  0.00000000000E+00  0.12127253553E+04  0.12127253553E+04  0.00000000000E+00 0.  1.
          2   -1    0    0  501    0  0.00000000000E+00 -0.00000000000E+00 -0.28148767041E+04  0.28148767041E+04  0.00000000000E+00 0. -1.
         24    2    1    2    0    0 -0.84210726015E+03 -0.99866662880E+03 -0.20002477518E+04  0.23903443886E+04  0.79218398281E+02 0.  0.
        254    2    1    2    0    0  0.84210726015E+03  0.99866662880E+03  0.39809640292E+03  0.16372576708E+04  0.90313468624E+03 0.  0.
         23    2    4    4    0    0  0.21109048305E+02 -0.95316046101E+02 -0.11280340276E+03  0.17428698780E+03  0.90114404396E+02 0.  0.
         23    2    4    4    0    0  0.82099821184E+03  0.10939826749E+04  0.51089980568E+03  0.14629706830E+04  0.91806595759E+02 0.  0.
          2    1    3    3  502    0 -0.56393282440E+03 -0.66495810725E+03 -0.14018428766E+04  0.16508643087E+04  0.00000000000E+00 0. -1.
         -1    1    3    3    0  502 -0.27817443575E+03 -0.33370852155E+03 -0.59840487515E+03  0.73948007996E+03  0.00000000000E+00 0.  1.
         11    1    5    5    0    0 -0.19148526490E+02 -0.81111095957E+02 -0.99025602270E+02  0.12942853572E+03  0.00000000000E+00 0. -1.
        -11    1    5    5    0    0  0.40257574795E+02 -0.14204950144E+02 -0.13777800486E+02  0.44858452082E+02  0.00000000000E+00 0.  1.
          3    1    6    6  503    0  0.48647604288E+03  0.69047067790E+03  0.35427607561E+03  0.91592588952E+03  0.00000000000E+00 0. -1.
         -3    1    6    6    0  503  0.33452216896E+03  0.40351199701E+03  0.15662373007E+03  0.54704479348E+03  0.00000000000E+00 0.  1.
<mgrwt>
<rscale>  0 0.36952252E+04</rscale>
<asrwt>0</asrwt>
<pdfrwt beam="1">  1        2 0.43305795E+00 0.36952252E+04</pdfrwt>
<pdfrwt beam="2">  1       -1 0.18657314E+00 0.36952252E+04</pdfrwt>
<totfact> 0.38851043E-01</totfact>
</mgrwt>
</event>
<event>
12    6  0.1457317E-007  0.2615660E+04  0.7818608E-02  0.8362901E-01
         -1   -1    0    0    0  501 -0.00000000000E+00  0.00000000000E+00  0.92205172277E+03  0.92205172277E+03  0.00000000000E+00 0.  1.
          2   -1    0    0  501    0  0.00000000000E+00 -0.00000000000E+00 -0.18550149451E+04  0.18550149451E+04  0.00000000000E+00 0. -1.
         24    2    1    2    0    0  0.76845201284E+03 -0.85472412658E+03 -0.37583835442E+03  0.12118655344E+04  0.79320717747E+02 0.  0.
        254    2    1    2    0    0 -0.76845201284E+03  0.85472412658E+03 -0.55712486795E+03  0.15652011335E+04  0.90465166844E+03 0.  0.
         23    2    4    4    0    0 -0.26012402567E+03  0.23106977081E+03  0.23648145201E+03  0.43140019618E+03  0.95524365532E+02 0.  0.
         23    2    4    4    0    0 -0.50832798717E+03  0.62365435578E+03 -0.79360631996E+03  0.11338009373E+04  0.91386412411E+02 0.  0.
          2    1    3    3  502    0  0.49547952796E+03 -0.58826571312E+03 -0.22174201808E+03  0.80045364290E+03  0.00000000000E+00 0. -1.
         -1    1    3    3    0  502  0.27297248487E+03 -0.26645841347E+03 -0.15409633634E+03  0.41141189151E+03  0.00000000000E+00 0.  1.
         11    1    5    5    0    0  0.81312635131E+00  0.24273569494E+01  0.24908986848E+02  0.25040184944E+02  0.00000000000E+00 0.  1.
        -11    1    5    5    0    0 -0.26093715202E+03  0.22864241386E+03  0.21157246516E+03  0.40636001123E+03  0.00000000000E+00 0. -1.
          3    1    6    6  503    0 -0.39729038048E+03  0.53844002833E+03 -0.67290657609E+03  0.94897869875E+03  0.00000000000E+00 0. -1.
         -3    1    6    6    0  503 -0.11103760669E+03  0.85214327446E+02 -0.12069974386E+03  0.18482223857E+03  0.00000000000E+00 0.  1.
<mgrwt>
<rscale>  0 0.26156603E+04</rscale>
<asrwt>0</asrwt>
<pdfrwt beam="1">  1        2 0.28538691E+00 0.26156603E+04</pdfrwt>
<pdfrwt beam="2">  1       -1 0.14185411E+00 0.26156603E+04</pdfrwt>
<totfact> 0.32742998E+00</totfact>
</mgrwt>
</event>
<event>
12    6  0.1457317E-007  0.1722720E+04  0.7818608E-02  0.8748511E-01
         -1   -1    0    0    0  501 -0.00000000000E+00  0.00000000000E+00  0.61989032254E+03  0.61989032254E+03  0.00000000000E+00 0.  1.
          2   -1    0    0  501    0  0.00000000000E+00 -0.00000000000E+00 -0.11968910335E+04  0.11968910335E+04  0.00000000000E+00 0. -1.
         24    2    1    2    0    0  0.30168854402E+03  0.46368140447E+03  0.11057751599E+03  0.56901530578E+03  0.74394950973E+02 0.  0.
        254    2    1    2    0    0 -0.30168854402E+03 -0.46368140447E+03 -0.68757822691E+03  0.12477660502E+04  0.88212236993E+03 0.  0.
         23    2    4    4    0    0 -0.50422346112E+03 -0.41458053526E+02 -0.54505845908E+03  0.74964496236E+03  0.94439275916E+02 0.  0.
         23    2    4    4    0    0  0.20253491710E+03 -0.42222335095E+03 -0.14251976783E+03  0.49812108787E+03  0.92302671801E+02 0.  0.
          4    1    3    3  502    0  0.17938190527E+02  0.22481069181E+02 -0.10566131216E+02  0.30640174278E+02  0.00000000000E+00 0. -1.
         -3    1    3    3    0  502  0.28375035349E+03  0.44120033529E+03  0.12114364720E+03  0.53837513151E+03  0.00000000000E+00 0.  1.
         11    1    5    5    0    0 -0.47188107011E+03 -0.62362886777E+02 -0.49904229240E+03  0.68964054665E+03  0.00000000000E+00 0. -1.
        -11    1    5    5    0    0 -0.32342391006E+02  0.20904833251E+02 -0.46016166675E+02  0.60004415710E+02  0.00000000000E+00 0.  1.
          3    1    6    6  503    0  0.13980045049E+03 -0.36986861432E+03 -0.12322202020E+03  0.41416255755E+03  0.00000000000E+00 0. -1.
         -3    1    6    6    0  503  0.62734466616E+02 -0.52354736631E+02 -0.19297747635E+02  0.83958530318E+02  0.00000000000E+00 0.  1.
<mgrwt>
<rscale>  0 0.17227201E+04</rscale>
<asrwt>0</asrwt>
<pdfrwt beam="1">  1        2 0.18413708E+00 0.17227201E+04</pdfrwt>
<pdfrwt beam="2">  1       -1 0.95367742E-01 0.17227201E+04</pdfrwt>
<totfact> 0.21872533E+01</totfact>
</mgrwt>
</event>
<event>
12    6  0.1457317E-007  0.1243408E+04  0.7818608E-02  0.9075688E-01
         -1   -1    0    0    0  501 -0.00000000000E+00  0.00000000000E+00  0.23685874184E+03  0.23685874184E+03  0.00000000000E+00 0.  1.
          2   -1    0    0  501    0  0.00000000000E+00 -0.00000000000E+00 -0.16318400169E+04  0.16318400169E+04  0.00000000000E+00 0. -1.
         24    2    1    2    0    0 -0.22744754268E+03 -0.10091766639E+03 -0.18544114909E+03  0.32031921987E+03  0.79367643183E+02 0.  0.
        254    2    1    2    0    0  0.22744754268E+03  0.10091766639E+03 -0.12095401260E+04  0.15483795389E+04  0.93411729454E+03 0.  0.
         23    2    4    4    0    0  0.45427673409E+03  0.32677684038E+03 -0.46843519707E+03  0.73554704219E+03  0.91910080358E+02 0.  0.
         23    2    4    4    0    0 -0.22682919142E+03 -0.22585917399E+03 -0.74110492891E+03  0.81283249668E+03  0.94848845275E+02 0.  0.
          2    1    3    3  502    0 -0.90385267112E+01 -0.24781235936E+02 -0.37162026798E+02  0.45572149997E+02  0.00000000000E+00 0. -1.
         -1    1    3    3    0  502 -0.21840901597E+03 -0.76136430458E+02 -0.14827912229E+03  0.27474706988E+03  0.00000000000E+00 0.  1.
         11    1    5    5    0    0  0.37899671958E+03  0.26319545993E+03 -0.42690161531E+03  0.62861383435E+03  0.00000000000E+00 0. -1.
        -11    1    5    5    0    0  0.75280014515E+02  0.63581380452E+02 -0.41533581760E+02  0.10693320784E+03  0.00000000000E+00 0.  1.
          3    1    6    6  503    0 -0.21262596213E+03 -0.18387703450E+03 -0.56274785910E+03  0.62905144186E+03  0.00000000000E+00 0. -1.
         -3    1    6    6    0  503 -0.14203229285E+02 -0.41982139491E+02 -0.17835706981E+03  0.18378105482E+03  0.00000000000E+00 0.  1.
<mgrwt>
<rscale>  0 0.12434075E+04</rscale>
<asrwt>0</asrwt>
<pdfrwt beam="1">  1        2 0.25105231E+00 0.12434075E+04</pdfrwt>
<pdfrwt beam="2">  1       -1 0.36439807E-01 0.12434075E+04</pdfrwt>
<totfact> 0.86569632E+01</totfact>
</mgrwt>
</event>
<event>
12    6  0.1457317E-007  0.1644540E+04  0.7818608E-02  0.8793643E-01
          2   -1    0    0  501    0  0.00000000000E+00  0.00000000000E+00  0.11870703831E+04  0.11870703831E+04  0.00000000000E+00 0. -1.
         -1   -1    0    0    0  501 -0.00000000000E+00 -0.00000000000E+00 -0.56957709878E+03  0.56957709878E+03  0.00000000000E+00 0.  1.
         24    2    1    2    0    0  0.33234919932E+03 -0.30860308559E+03  0.63400157690E+03  0.78375432707E+03  0.81369472021E+02 0.  0.
        254    2    1    2    0    0 -0.33234919932E+03  0.30860308559E+03 -0.16508292612E+02  0.97289315477E+03  0.86055604823E+03 0.  0.
         23    2    4    4    0    0 -0.11686107758E+03  0.24835046932E+03  0.39856894844E+03  0.49273309307E+03  0.92705055333E+02 0.  0.
         23    2    4    4    0    0 -0.21548812174E+03  0.60252616267E+02 -0.41507724105E+03  0.48016006170E+03  0.90548663355E+02 0.  0.
          4    1    3    3  502    0  0.24109563639E+03 -0.23809850289E+03  0.41074888720E+03  0.53247784114E+03  0.00000000000E+00 0. -1.
         -3    1    3    3    0  502  0.91253562926E+02 -0.70504582700E+02  0.22325268970E+03  0.25127648594E+03  0.00000000000E+00 0.  1.
         11    1    5    5    0    0 -0.12579661763E+03  0.18583308268E+03  0.33424493296E+03  0.40258961591E+03  0.00000000000E+00 0.  1.
        -11    1    5    5    0    0  0.89355400508E+01  0.62517386640E+02  0.64324015477E+02  0.90143477165E+02  0.00000000000E+00 0. -1.
          3    1    6    6  503    0 -0.28213600189E+02  0.48557296397E+01 -0.97605729649E+01  0.30246555681E+02  0.00000000000E+00 0. -1.
         -3    1    6    6    0  503 -0.18727452155E+03  0.55396886627E+02 -0.40531666809E+03  0.44991350602E+03  0.00000000000E+00 0.  1.
<mgrwt>
<rscale>  0 0.16445402E+04</rscale>
<asrwt>0</asrwt>
<pdfrwt beam="1">  1        2 0.18262621E+00 0.16445402E+04</pdfrwt>
<pdfrwt beam="2">  1       -1 0.87627246E-01 0.16445402E+04</pdfrwt>
<totfact> 0.26923008E+01</totfact>
</mgrwt>
</event>
<event>
12    6  0.1457317E-007  0.1782372E+04  0.7818608E-02  0.8715731E-01
         -1   -1    0    0    0  501 -0.00000000000E+00  0.00000000000E+00  0.61240769009E+03  0.61240769009E+03  0.00000000000E+00 0.  1.
          2   -1    0    0  501    0  0.00000000000E+00 -0.00000000000E+00 -0.12968681860E+04  0.12968681860E+04  0.00000000000E+00 0. -1.
         24    2    1    2    0    0  0.53128950047E+03  0.13313526272E+03  0.14028762265E+03  0.57037359154E+03  0.75179022126E+02 0.  0.
        254    2    1    2    0    0 -0.53128950047E+03 -0.13313526272E+03 -0.82474811855E+03  0.13389022845E+04  0.90136359866E+03 0.  0.
         23    2    4    4    0    0 -0.51336907884E+03  0.12961424866E+03 -0.90153500548E+03  0.10497483009E+04  0.94119416533E+02 0.  0.
         23    2    4    4    0    0 -0.17920421633E+02 -0.26274951138E+03  0.76786886933E+02  0.28915398363E+03  0.91407620061E+02 0.  0.
          2    1    3    3  502    0  0.52564646177E+02  0.20815631632E+02 -0.72332059562E+01  0.56996945676E+02  0.00000000000E+00 0. -1.
         -1    1    3    3    0  502  0.47872485429E+03  0.11231963108E+03  0.14752082861E+03  0.51337664586E+03  0.00000000000E+00 0.  1.
         11    1    5    5    0    0 -0.32011252253E+03  0.98265504418E+02 -0.48344021636E+03  0.58808381991E+03  0.00000000000E+00 0. -1.
        -11    1    5    5    0    0 -0.19325655630E+03  0.31348744246E+02 -0.41809478912E+03  0.46166448099E+03  0.00000000000E+00 0.  1.
          2    1    6    6  503    0 -0.10989425162E+02 -0.21288709652E+02  0.37382724563E+02  0.44400954041E+02  0.00000000000E+00 0.  1.
         -2    1    6    6    0  503 -0.69309964708E+01 -0.24146080173E+03  0.39404162370E+02  0.24475302959E+03  0.00000000000E+00 0. -1.
<mgrwt>
<rscale>  0 0.17823715E+04</rscale>
<asrwt>0</asrwt>
<pdfrwt beam="1">  1        2 0.19951818E+00 0.17823715E+04</pdfrwt>
<pdfrwt beam="2">  1       -1 0.94216569E-01 0.17823715E+04</pdfrwt>
<totfact> 0.19518808E+01</totfact>
</mgrwt>
</event>
<event>
12    6  0.1457317E-007  0.1688240E+04  0.7818608E-02  0.8768100E-01
          2   -1    0    0  501    0  0.00000000000E+00  0.00000000000E+00  0.10088420356E+04  0.10088420356E+04  0.00000000000E+00 0. -1.
         -3   -1    0    0    0  501 -0.00000000000E+00 -0.00000000000E+00 -0.70629314475E+03  0.70629314475E+03  0.00000000000E+00 0.  1.
         24    2    1    2    0    0 -0.52356344629E+03 -0.15475534918E+03  0.38775888372E+03  0.67439159586E+03  0.79869720589E+02 0.  0.
        254    2    1    2    0    0  0.52356344629E+03  0.15475534918E+03 -0.85209992912E+02  0.10407435844E+04  0.88194022772E+03 0.  0.
         23    2    4    4    0    0 -0.60576962530E+02  0.32448460154E+03  0.16043548016E+03  0.37872490498E+03  0.93451513265E+02 0.  0.
         23    2    4    4    0    0  0.58414040882E+03 -0.16972925236E+03 -0.24564547307E+03  0.66201867946E+03  0.88876302751E+02 0.  0.
          4    1    3    3  502    0 -0.32911232489E+03 -0.10435007602E+03  0.19772092599E+03  0.39786608970E+03  0.00000000000E+00 0. -1.
         -3    1    3    3    0  502 -0.19445112140E+03 -0.50405273164E+02  0.19003795773E+03  0.27652550616E+03  0.00000000000E+00 0.  1.
         11    1    5    5    0    0  0.31017976829E+01  0.31998669518E+02  0.50446526720E+02  0.59819629369E+02  0.00000000000E+00 0. -1.
        -11    1    5    5    0    0 -0.63678760212E+02  0.29248593202E+03  0.10998895344E+03  0.31890527561E+03  0.00000000000E+00 0.  1.
          2    1    6    6  503    0  0.11069956930E+03 -0.16348404465E+00 -0.60318196083E+02  0.12606627681E+03  0.00000000000E+00 0. -1.
         -2    1    6    6    0  503  0.47344083952E+03 -0.16956576831E+03 -0.18532727699E+03  0.53595240265E+03  0.00000000000E+00 0.  1.
<mgrwt>
<rscale>  0 0.16882396E+04</rscale>
<asrwt>0</asrwt>
<pdfrwt beam="1">  1        2 0.15520647E+00 0.16882396E+04</pdfrwt>
<pdfrwt beam="2">  1       -3 0.10866048E+00 0.16882396E+04</pdfrwt>
<totfact> 0.10769724E+01</totfact>
</mgrwt>
</event>
<event>
12    6  0.1457317E-007  0.2740747E+04  0.7818608E-02  0.8321904E-01
          2   -1    0    0  501    0  0.00000000000E+00  0.00000000000E+00  0.35657115138E+04  0.35657115138E+04  0.00000000000E+00 0. -1.
         -1   -1    0    0    0  501 -0.00000000000E+00 -0.00000000000E+00 -0.52666175569E+03  0.52666175569E+03  0.00000000000E+00 0.  1.
         24    2    1    2    0    0  0.45073082841E+03  0.10230798726E+04  0.20939391094E+04  0.23748755713E+04  0.74848377751E+02 0.  0.
        254    2    1    2    0    0 -0.45073082841E+03 -0.10230798726E+04  0.94511064872E+03  0.17174976982E+04  0.89817231073E+03 0.  0.
         23    2    4    4    0    0  0.20019428956E+03 -0.43695608797E+01  0.11653005529E+03  0.24902805909E+03  0.91317434209E+02 0.  0.
         23    2    4    4    0    0 -0.65092511797E+03 -0.10187103117E+04  0.82858059343E+03  0.14684696392E+04  0.91559122486E+02 0.  0.
          2    1    3    3  502    0  0.33865313084E+03  0.83136864487E+03  0.17114590779E+04  0.19326023755E+04  0.00000000000E+00 0. -1.
         -3    1    3    3    0  502  0.11207769756E+03  0.19171122774E+03  0.38248003154E+03  0.44227319573E+03  0.00000000000E+00 0.  1.
         11    1    5    5    0    0  0.13821865499E+02  0.27684253393E+02  0.14979331560E+02  0.34377932250E+02  0.00000000000E+00 0.  1.
        -11    1    5    5    0    0  0.18637242406E+03 -0.32053814273E+02  0.10155072373E+03  0.21465012684E+03  0.00000000000E+00 0. -1.
          4    1    6    6  503    0 -0.21562132795E+03 -0.30585172238E+03  0.21016478431E+03  0.42919351080E+03  0.00000000000E+00 0. -1.
         -4    1    6    6    0  503 -0.43530379002E+03 -0.71285858935E+03  0.61841580912E+03  0.10392761284E+04  0.00000000000E+00 0.  1.
<mgrwt>
<rscale>  0 0.27407473E+04</rscale>
<asrwt>0</asrwt>
<pdfrwt beam="1">  1        2 0.54857099E+00 0.27407473E+04</pdfrwt>
<pdfrwt beam="2">  1       -1 0.81024888E-01 0.27407473E+04</pdfrwt>
<totfact> 0.11023614E+00</totfact>
</mgrwt>
</event>
<event>
12    6  0.1457317E-007  0.1549452E+04  0.7818608E-02  0.8852218E-01
          2   -1    0    0  501    0  0.00000000000E+00  0.00000000000E+00  0.37618260240E+04  0.37618260240E+04  0.00000000000E+00 0. -1.
         -1   -1    0    0    0  501 -0.00000000000E+00 -0.00000000000E+00 -0.15955029092E+03  0.15955029092E+03  0.00000000000E+00 0.  1.
         24    2    1    2    0    0  0.48122811523E+03  0.18819014295E+03  0.12343705266E+04  0.13403898126E+04  0.77318975781E+02 0.  0.
        254    2    1    2    0    0 -0.48122811523E+03 -0.18819014295E+03  0.23679052064E+04  0.25809865022E+04  0.88742336537E+03 0.  0.
         23    2    4    4    0    0 -0.21962187418E+03 -0.53358879206E+03  0.13288816122E+04  0.14516066708E+04  0.91020991525E+02 0.  0.
         23    2    4    4    0    0 -0.26160624105E+03  0.34539864910E+03  0.10390235942E+04  0.11293798314E+04  0.90502608452E+02 0.  0.
          2    1    3    3  502    0  0.24634514013E+03  0.13069591421E+03  0.71600228519E+03  0.76839223217E+03  0.00000000000E+00 0. -1.
         -1    1    3    3    0  502  0.23488297510E+03  0.57494228749E+02  0.51836824145E+03  0.57199758048E+03  0.00000000000E+00 0.  1.
         11    1    5    5    0    0 -0.14491275196E+03 -0.23977796148E+03  0.59974713569E+03  0.66195906464E+03  0.00000000000E+00 0. -1.
        -11    1    5    5    0    0 -0.74709122216E+02 -0.29381083057E+03  0.72913447654E+03  0.78964760620E+03  0.00000000000E+00 0.  1.
          1    1    6    6  503    0 -0.10089906245E+03  0.20798672848E+03  0.53668832355E+03  0.58435730222E+03  0.00000000000E+00 0. -1.
         -1    1    6    6    0  503 -0.16070717860E+03  0.13741192062E+03  0.50233527064E+03  0.54502252918E+03  0.00000000000E+00 0.  1.
<mgrwt>
<rscale>  0 0.15494521E+04</rscale>
<asrwt>0</asrwt>
<pdfrwt beam="1">  1        2 0.57874240E+00 0.15494521E+04</pdfrwt>
<pdfrwt beam="2">  1       -1 0.24546201E-01 0.15494521E+04</pdfrwt>
<totfact> 0.84616132E+00</totfact>
</mgrwt>
</event>
<event>
12    6  0.1457317E-007  0.1578740E+04  0.7818608E-02  0.8833716E-01
          2   -1    0    0  501    0  0.00000000000E+00  0.00000000000E+00  0.25762896953E+04  0.25762896953E+04  0.00000000000E+00 0. -1.
         -1   -1    0    0    0  501 -0.00000000000E+00 -0.00000000000E+00 -0.24186136188E+03  0.24186136188E+03  0.00000000000E+00 0.  1.
         24    2    1    2    0    0  0.16626105039E+03 -0.50611167033E+02 -0.92252101135E+02  0.21190859019E+03  0.78680196534E+02 0.  0.
        254    2    1    2    0    0 -0.16626105039E+03  0.50611167033E+02  0.24266804346E+04  0.26062424670E+04  0.93462165512E+03 0.  0.
         23    2    4    4    0    0 -0.51320363709E+03  0.17466791127E+03  0.16868926384E+04  0.17746034282E+04  0.98608831353E+02 0.  0.
         23    2    4    4    0    0  0.34694258670E+03 -0.12405674424E+03  0.73978779619E+03  0.83163903880E+03  0.92618967915E+02 0.  0.
          2    1    3    3  502    0  0.40475511740E+02  0.17341914353E+02 -0.40606572208E+02  0.59899104756E+02  0.00000000000E+00 0. -1.
         -1    1    3    3    0  502  0.12578553865E+03 -0.67953081386E+02 -0.51645528927E+02  0.15200948543E+03  0.00000000000E+00 0.  1.
         11    1    5    5    0    0 -0.50946528882E+03  0.17379302428E+03  0.16097790712E+04  0.16973943424E+04  0.00000000000E+00 0. -1.
        -11    1    5    5    0    0 -0.37383482706E+01  0.87488699518E+00  0.77113567243E+02  0.77209085787E+02  0.00000000000E+00 0.  1.
          4    1    6    6  503    0  0.32210551834E+03 -0.11673839129E+03  0.72486508394E+03  0.80175383184E+03  0.00000000000E+00 0. -1.
         -4    1    6    6    0  503  0.24837068361E+02 -0.73183529516E+01  0.14922712242E+02  0.29885206965E+02  0.00000000000E+00 0.  1.
<mgrwt>
<rscale>  0 0.15787399E+04</rscale>
<asrwt>0</asrwt>
<pdfrwt beam="1">  1        2 0.39635224E+00 0.15787399E+04</pdfrwt>
<pdfrwt beam="2">  1       -1 0.37209442E-01 0.15787399E+04</pdfrwt>
<totfact> 0.23948663E+01</totfact>
</mgrwt>
</event>
<event>
12    6  0.1457317E-007  0.1231600E+04  0.7818608E-02  0.9085638E-01
         -1   -1    0    0    0  501 -0.00000000000E+00  0.00000000000E+00  0.23577244269E+03  0.23577244269E+03  0.00000000000E+00 0.  1.
          2   -1    0    0  501    0  0.00000000000E+00 -0.00000000000E+00 -0.16083706234E+04  0.16083706234E+04  0.00000000000E+00 0. -1.
         24    2    1    2    0    0 -0.89720080395E+02 -0.25254375457E+03 -0.23279670107E+03  0.36398100176E+03  0.80373035363E+02 0.  0.
        254    2    1    2    0    0  0.89720080395E+02  0.25254375457E+03 -0.11398014797E+04  0.14801620643E+04  0.90548566134E+03 0.  0.
         23    2    4    4    0    0 -0.67872818837E+02 -0.18564823256E+03 -0.94082748882E+03  0.96546045219E+03  0.88800536263E+02 0.  0.
         23    2    4    4    0    0  0.15759289923E+03  0.43819198714E+03 -0.19897399084E+03  0.51470161215E+03  0.92083446084E+02 0.  0.
          4    1    3    3  502    0 -0.12228945982E+02  0.29732425147E+01 -0.77324529259E+01  0.14770853703E+02  0.00000000000E+00 0. -1.
         -3    1    3    3    0  502 -0.77491134414E+02 -0.25551699709E+03 -0.22506424814E+03  0.34921014806E+03  0.00000000000E+00 0.  1.
         11    1    5    5    0    0  0.97435017334E+01 -0.87506042030E+02 -0.30579180520E+03  0.31821513374E+03  0.00000000000E+00 0.  1.
        -11    1    5    5    0    0 -0.77616320570E+02 -0.98142190533E+02 -0.63503568362E+03  0.64724531845E+03  0.00000000000E+00 0. -1.
          4    1    6    6  503    0  0.63699699179E+02  0.10118027120E+03 -0.18296389400E+02  0.12095394504E+03  0.00000000000E+00 0. -1.
         -4    1    6    6    0  503  0.93893200053E+02  0.33701171594E+03 -0.18067760144E+03  0.39374766711E+03  0.00000000000E+00 0.  1.
<mgrwt>
<rscale>  0 0.12315997E+04</rscale>
<asrwt>0</asrwt>
<pdfrwt beam="1">  1        2 0.24744164E+00 0.12315997E+04</pdfrwt>
<pdfrwt beam="2">  1       -1 0.36272682E-01 0.12315997E+04</pdfrwt>
<totfact> 0.90036300E+01</totfact>
</mgrwt>
</event>
<event>
12    6  0.1457317E-007  0.1660547E+04  0.7818608E-02  0.8784192E-01
         -1   -1    0    0    0  501 -0.00000000000E+00  0.00000000000E+00  0.51599153375E+03  0.51599153375E+03  0.00000000000E+00 0.  1.
          2   -1    0    0  501    0  0.00000000000E+00 -0.00000000000E+00 -0.13359786603E+04  0.13359786603E+04  0.00000000000E+00 0. -1.
         24    2    1    2    0    0 -0.27849251971E+03  0.43563185200E+03 -0.58728604501E+03  0.78655610251E+03  0.80202304923E+02 0.  0.
        254    2    1    2    0    0  0.27849251971E+03 -0.43563185200E+03 -0.23270108153E+03  0.10654140915E+04  0.90201119676E+03 0.  0.
         23    2    4    4    0    0  0.53988678387E+03 -0.50403165375E+03 -0.23422676366E+03  0.78005277364E+03  0.89969469706E+02 0.  0.
         23    2    4    4    0    0 -0.26139426416E+03  0.68399801747E+02  0.15256821268E+01  0.28536131789E+03  0.91778318920E+02 0.  0.
          2    1    3    3  502    0 -0.21267072632E+03  0.37796931687E+03 -0.46124961659E+03  0.63311993424E+03  0.00000000000E+00 0. -1.
         -1    1    3    3    0  502 -0.65821793390E+02  0.57662535126E+02 -0.12603642843E+03  0.15343616827E+03  0.00000000000E+00 0.  1.
         11    1    5    5    0    0  0.28855375261E+03 -0.24303228139E+03 -0.76842543174E+02  0.38501004452E+03  0.00000000000E+00 0. -1.
        -11    1    5    5    0    0  0.25133303126E+03 -0.26099937236E+03 -0.15738422048E+03  0.39504272912E+03  0.00000000000E+00 0.  1.
          2    1    6    6  503    0 -0.98307557705E+02 -0.13564944260E+02 -0.21044528563E+02  0.10144582691E+03  0.00000000000E+00 0. -1.
         -2    1    6    6    0  503 -0.16308670646E+03  0.81964746007E+02  0.22570210689E+02  0.18391549098E+03  0.00000000000E+00 0.  1.
<mgrwt>
<rscale>  0 0.16605465E+04</rscale>
<asrwt>0</asrwt>
<pdfrwt beam="1">  1        2 0.20553518E+00 0.16605465E+04</pdfrwt>
<pdfrwt beam="2">  1       -1 0.79383313E-01 0.16605465E+04</pdfrwt>
<totfact> 0.27182443E+01</totfact>
</mgrwt>
</event>
<event>
12    6  0.1457317E-007  0.1331933E+04  0.7818608E-02  0.9004618E-01
          2   -1    0    0  501    0  0.00000000000E+00  0.00000000000E+00  0.11144742091E+04  0.11144742091E+04  0.00000000000E+00 0. -1.
         -1   -1    0    0    0  501 -0.00000000000E+00 -0.00000000000E+00 -0.39795565442E+03  0.39795565442E+03  0.00000000000E+00 0.  1.
         24    2    1    2    0    0  0.48331683751E+02  0.69741529252E+02 -0.19629594968E+03  0.22783596371E+03  0.78595762882E+02 0.  0.
        254    2    1    2    0    0 -0.48331683751E+02 -0.69741529252E+02  0.91281450432E+03  0.12845938998E+04  0.89986184244E+03 0.  0.
         23    2    4    4    0    0  0.18067091222E+03 -0.22497447071E+03 -0.23542886934E+02  0.30396110991E+03  0.92642311157E+02 0.  0.
         23    2    4    4    0    0 -0.22900259597E+03  0.15523294146E+03  0.93635739126E+03  0.98063278986E+03  0.91301967752E+02 0.  0.
          4    1    3    3  502    0  0.22038678270E+02  0.49653317886E+02 -0.38439396066E+02  0.66548797787E+02  0.00000000000E+00 0. -1.
         -3    1    3    3    0  502  0.26293005481E+02  0.20088211366E+02 -0.15785655361E+03  0.16128716592E+03  0.00000000000E+00 0.  1.
         11    1    5    5    0    0  0.88203297335E+02 -0.14907246854E+03  0.24710701288E+02  0.17496582894E+03  0.00000000000E+00 0. -1.
        -11    1    5    5    0    0  0.92467614887E+02 -0.75902002169E+02 -0.48253588222E+02  0.12899528097E+03  0.00000000000E+00 0.  1.
          1    1    6    6  503    0  0.30225175632E+01 -0.42097964887E+01  0.58687351698E+02  0.58915730057E+02  0.00000000000E+00 0. -1.
         -1    1    6    6    0  503 -0.23202511354E+03  0.15944273795E+03  0.87767003956E+03  0.92171705981E+03  0.00000000000E+00 0.  1.
<mgrwt>
<rscale>  0 0.13319329E+04</rscale>
<asrwt>0</asrwt>
<pdfrwt beam="1">  1        2 0.17145757E+00 0.13319329E+04</pdfrwt>
<pdfrwt beam="2">  1       -1 0.61223947E-01 0.13319329E+04</pdfrwt>
<totfact> 0.64410944E+01</totfact>
</mgrwt>
</event>
<event>
12    6  0.1457317E-007  0.1184034E+04  0.7818608E-02  0.9126947E-01
         -1   -1    0    0    0  501 -0.00000000000E+00  0.00000000000E+00  0.27478782978E+03  0.27478782978E+03  0.00000000000E+00 0.  1.
          2   -1    0    0  501    0  0.00000000000E+00 -0.00000000000E+00 -0.12754721563E+04  0.12754721563E+04  0.00000000000E+00 0. -1.
         24    2    1    2    0    0  0.12685318873E+02 -0.21137038928E+03 -0.64033283502E+02  0.23835785633E+03  0.88745971713E+02 0.  0.
        254    2    1    2    0    0 -0.12685318873E+02  0.21137038928E+03 -0.93665104302E+03  0.13119021298E+04  0.89383089165E+03 0.  0.
         23    2    4    4    0    0  0.42952751224E+02  0.42348017298E+03 -0.10541051392E+03  0.44764992531E+03  0.89992685457E+02 0.  0.
         23    2    4    4    0    0 -0.55638070096E+02 -0.21210978370E+03 -0.83124052910E+03  0.86425220445E+03  0.88796962127E+02 0.  0.
          4    1    3    3  502    0  0.10594701623E+02 -0.72410121002E+02 -0.67187562816E+02  0.99346071504E+02  0.00000000000E+00 0. -1.
         -3    1    3    3    0  502  0.20906172494E+01 -0.13896026828E+03  0.31542793148E+01  0.13901178482E+03  0.00000000000E+00 0.  1.
         11    1    5    5    0    0  0.56722033423E+02  0.25846766863E+03 -0.32090094509E+02  0.26655712140E+03  0.00000000000E+00 0.  1.
        -11    1    5    5    0    0 -0.13769282199E+02  0.16501250435E+03 -0.73320419411E+02  0.18109280391E+03  0.00000000000E+00 0. -1.
          2    1    6    6  503    0  0.10841585706E+02 -0.10093801121E+03 -0.27531868264E+03  0.29343891885E+03  0.00000000000E+00 0. -1.
         -2    1    6    6    0  503 -0.66479655803E+02 -0.11117177249E+03 -0.55592184646E+03  0.57081328559E+03  0.00000000000E+00 0.  1.
<mgrwt>
<rscale>  0 0.11840342E+04</rscale>
<asrwt>0</asrwt>
<pdfrwt beam="1">  1        2 0.19622649E+00 0.11840342E+04</pdfrwt>
<pdfrwt beam="2">  1       -1 0.42275051E-01 0.11840342E+04</pdfrwt>
<totfact> 0.10576395E+02</totfact>
</mgrwt>
</event>
<event>
12    6  0.1457317E-007  0.1262315E+04  0.7818608E-02  0.9059995E-01
          2   -1    0    0  501    0  0.00000000000E+00  0.00000000000E+00  0.39750168830E+04  0.39750168830E+04  0.00000000000E+00 0. -1.
         -1   -1    0    0    0  501 -0.00000000000E+00 -0.00000000000E+00 -0.10021591440E+03  0.10021591440E+03  0.00000000000E+00 0.  1.
         24    2    1    2    0    0 -0.21112680855E+03 -0.66164283156E+02  0.16254384837E+04  0.16426797375E+04  0.85989615521E+02 0.  0.
        254    2    1    2    0    0  0.21112680855E+03  0.66164283156E+02  0.22493624849E+04  0.24325530600E+04  0.89929447861E+03 0.  0.
         23    2    4    4    0    0 -0.33095816646E+03  0.53146158257E+02  0.59166781588E+03  0.68613681114E+03  0.91406220604E+02 0.  0.
         23    2    4    4    0    0  0.54208497501E+03  0.13018124899E+02  0.16576946691E+04  0.17464162488E+04  0.89400820101E+02 0.  0.
          2    1    3    3  502    0 -0.19024963528E+03 -0.82401436139E+02  0.15148815124E+04  0.15290032430E+04  0.00000000000E+00 0. -1.
         -1    1    3    3    0  502 -0.20877173273E+02  0.16237152983E+02  0.11055697129E+03  0.11367649450E+03  0.00000000000E+00 0.  1.
         11    1    5    5    0    0 -0.25190977903E+02 -0.12104422036E+02  0.19368311511E+02  0.34003439405E+02  0.00000000000E+00 0. -1.
        -11    1    5    5    0    0 -0.30576718856E+03  0.65250580293E+02  0.57229950437E+03  0.65213337173E+03  0.00000000000E+00 0.  1.
          3    1    6    6  503    0  0.49287049492E+02  0.56411480781E+01  0.86274070193E+02  0.99520103431E+02  0.00000000000E+00 0. -1.
         -3    1    6    6    0  503  0.49279792552E+03  0.73769768205E+01  0.15714205989E+04  0.16468961454E+04  0.00000000000E+00 0.  1.
<mgrwt>
<rscale>  0 0.12623153E+04</rscale>
<asrwt>0</asrwt>
<pdfrwt beam="1">  1        2 0.61154094E+00 0.12623153E+04</pdfrwt>
<pdfrwt beam="2">  1       -1 0.15417836E-01 0.12623153E+04</pdfrwt>
<totfact> 0.13069053E+01</totfact>
</mgrwt>
</event>
<event>
12    6  0.1457317E-007  0.1543665E+04  0.7818608E-02  0.8855924E-01
         -1   -1    0    0    0  501 -0.00000000000E+00  0.00000000000E+00  0.10683980627E+04  0.10683980627E+04  0.00000000000E+00 0.  1.
          2   -1    0    0  501    0  0.00000000000E+00 -0.00000000000E+00 -0.55758767341E+03  0.55758767341E+03  0.00000000000E+00 0. -1.
         24    2    1    2    0    0  0.17344583788E+02 -0.48996972441E+03  0.37848610301E+02  0.49826506566E+03  0.80401448602E+02 0.  0.
        254    2    1    2    0    0 -0.17344583788E+02  0.48996972441E+03  0.47296177895E+03  0.11277206704E+04  0.89871569514E+03 0.  0.
         23    2    4    4    0    0  0.30705715783E+03 -0.10689992978E+03  0.17521983394E+03  0.38031352901E+03  0.90690115133E+02 0.  0.
         23    2    4    4    0    0 -0.32440174162E+03  0.59686965419E+03  0.29774194502E+03  0.74740714140E+03  0.92072227822E+02 0.  0.
          4    1    3    3  502    0  0.18979162212E+02 -0.33234613583E+03  0.62538515007E+02  0.33871112833E+03  0.00000000000E+00 0. -1.
         -3    1    3    3    0  502 -0.16345784240E+01 -0.15762358858E+03 -0.24689904705E+02  0.15955393733E+03  0.00000000000E+00 0.  1.
         11    1    5    5    0    0  0.24180523736E+03 -0.12013370817E+03  0.15169939845E+03  0.30970080423E+03  0.00000000000E+00 0.  1.
        -11    1    5    5    0    0  0.65251920467E+02  0.13233778384E+02  0.23520435490E+02  0.70612724778E+02  0.00000000000E+00 0. -1.
          4    1    6    6  503    0 -0.10313985557E+03  0.11166815132E+03  0.74649552460E+02  0.16935218189E+03  0.00000000000E+00 0. -1.
         -4    1    6    6    0  503 -0.22126188604E+03  0.48520150287E+03  0.22309239256E+03  0.57805495951E+03  0.00000000000E+00 0.  1.
<mgrwt>
<rscale>  0 0.15436652E+04</rscale>
<asrwt>0</asrwt>
<pdfrwt beam="1">  1        2 0.85782719E-01 0.15436652E+04</pdfrwt>
<pdfrwt beam="2">  1       -1 0.16436893E+00 0.15436652E+04</pdfrwt>
<totfact> 0.16148749E+01</totfact>
</mgrwt>
</event>
<event>
12    6  0.1457317E-007  0.1045000E+04  0.7818608E-02  0.9260521E-01
         -1   -1    0    0    0  501 -0.00000000000E+00  0.00000000000E+00  0.14326578338E+03  0.14326578338E+03  0.00000000000E+00 0.  1.
          2   -1    0    0  501    0  0.00000000000E+00 -0.00000000000E+00 -0.19055935096E+04  0.19055935096E+04  0.00000000000E+00 0. -1.
         24    2    1    2    0    0 -0.83282167484E+02  0.65090702874E+02 -0.19025131340E+03  0.23158760784E+03  0.79148839730E+02 0.  0.
        254    2    1    2    0    0  0.83282167484E+02 -0.65090702874E+02 -0.15720764128E+04  0.18172716851E+04  0.90547192715E+03 0.  0.
         23    2    4    4    0    0  0.40957029701E+03 -0.92762394808E+02 -0.36648692680E+03  0.56462672648E+03  0.90210767970E+02 0.  0.
         23    2    4    4    0    0 -0.32628812953E+03  0.27671691934E+02 -0.12055894860E+04  0.12526449586E+04  0.91889703749E+02 0.  0.
          4    1    3    3  502    0 -0.93400309353E+02  0.58415876727E+02 -0.18980447385E+03  0.21945790196E+03  0.00000000000E+00 0. -1.
         -3    1    3    3    0  502  0.10118141870E+02  0.66748261469E+01 -0.44683955385E+00  0.12129705873E+02  0.00000000000E+00 0.  1.
         11    1    5    5    0    0  0.36868888598E+03 -0.10448428432E+03 -0.35008345502E+03  0.51904420409E+03  0.00000000000E+00 0. -1.
        -11    1    5    5    0    0  0.40881411027E+02  0.11721889511E+02 -0.16403471775E+02  0.45582522391E+02  0.00000000000E+00 0.  1.
          4    1    6    6  503    0 -0.31325331918E+03  0.17906873927E+02 -0.11877270238E+04  0.12284721328E+04  0.00000000000E+00 0. -1.
         -4    1    6    6    0  503 -0.13034810341E+02  0.97648180068E+01 -0.17862462216E+02  0.24172825812E+02  0.00000000000E+00 0.  1.
<mgrwt>
<rscale>  0 0.10450002E+04</rscale>
<asrwt>0</asrwt>
<pdfrwt beam="1">  1        2 0.29316825E+00 0.10450002E+04</pdfrwt>
<pdfrwt beam="2">  1       -1 0.22040889E-01 0.10450002E+04</pdfrwt>
<totfact> 0.14882615E+02</totfact>
</mgrwt>
</event>
<event>
12    6  0.1457317E-007  0.1329573E+04  0.7818608E-02  0.9006437E-01
          4   -1    0    0  501    0  0.00000000000E+00  0.00000000000E+00  0.63057869444E+03  0.63057869444E+03  0.00000000000E+00 0. -1.
         -3   -1    0    0    0  501 -0.00000000000E+00 -0.00000000000E+00 -0.70084998650E+03  0.70084998650E+03  0.00000000000E+00 0.  1.
         24    2    1    2    0    0  0.15563336898E+03  0.28676375361E+03 -0.20867461217E+03  0.39613704946E+03  0.83212212249E+02 0.  0.
        254    2    1    2    0    0 -0.15563336898E+03 -0.28676375361E+03  0.13840332010E+03  0.93529163148E+03  0.86554015561E+03 0.  0.
         23    2    4    4    0    0 -0.31915349495E+03  0.21051753891E+03  0.62886501736E+02  0.39858792960E+03  0.93493518474E+02 0.  0.
         23    2    4    4    0    0  0.16352012597E+03 -0.49728129252E+03  0.75516818366E+02  0.53670370188E+03  0.91217094129E+02 0.  0.
          4    1    3    3  502    0  0.74235353117E+02  0.78836520438E+02 -0.36844113123E+02  0.11438344845E+03  0.00000000000E+00 0. -1.
         -3    1    3    3    0  502  0.81398015860E+02  0.20792723317E+03 -0.17183049905E+03  0.28175360101E+03  0.00000000000E+00 0.  1.
         11    1    5    5    0    0 -0.23234984627E+03  0.18467906680E+03  0.77725343603E+02  0.30681270804E+03  0.00000000000E+00 0. -1.
        -11    1    5    5    0    0 -0.86803648680E+02  0.25838472110E+02 -0.14838841867E+02  0.91775221564E+02  0.00000000000E+00 0.  1.
          4    1    6    6  503    0  0.11530094821E+03 -0.24808986891E+03  0.71897094304E+02  0.28286407315E+03  0.00000000000E+00 0. -1.
         -4    1    6    6    0  503  0.48219177764E+02 -0.24919142361E+03  0.36197240615E+01  0.25383962872E+03  0.00000000000E+00 0.  1.
<mgrwt>
<rscale>  0 0.13295730E+04</rscale>
<asrwt>0</asrwt>
<pdfrwt beam="1">  1        4 0.97012107E-01 0.13295730E+04</pdfrwt>
<pdfrwt beam="2">  1       -3 0.10782307E+00 0.13295730E+04</pdfrwt>
<totfact> 0.14518102E+00</totfact>
</mgrwt>
</event>
<event>
12    6  0.1457317E-007  0.1637580E+04  0.7818608E-02  0.8797788E-01
          2   -1    0    0  501    0  0.00000000000E+00  0.00000000000E+00  0.59587121914E+03  0.59587121914E+03  0.00000000000E+00 0. -1.
         -1   -1    0    0    0  501 -0.00000000000E+00 -0.00000000000E+00 -0.11251041644E+04  0.11251041644E+04  0.00000000000E+00 0.  1.
         24    2    1    2    0    0 -0.14004474025E+03  0.26980827912E+03  0.32067949618E+03  0.44874161769E+03  0.78260228872E+02 0.  0.
        254    2    1    2    0    0  0.14004474025E+03 -0.26980827912E+03 -0.84991244145E+03  0.12722337659E+04  0.89655928979E+03 0.  0.
         23    2    4    4    0    0 -0.16015679910E+03 -0.50707158960E+03 -0.37928522881E+03  0.65961603117E+03  0.92001230994E+02 0.  0.
         23    2    4    4    0    0  0.30020153935E+03  0.23726331048E+03 -0.47062721263E+03  0.61261773469E+03  0.85998097982E+02 0.  0.
          4    1    3    3  502    0 -0.17975543182E+02  0.94075568094E+02  0.13447005854E+03  0.16509248714E+03  0.00000000000E+00 0. -1.
         -3    1    3    3    0  502 -0.12206919707E+03  0.17573271102E+03  0.18620943764E+03  0.28364913055E+03  0.00000000000E+00 0.  1.
         11    1    5    5    0    0 -0.10949945529E+02 -0.99296331947E+00 -0.14402589816E+02  0.18119654430E+02  0.00000000000E+00 0.  1.
        -11    1    5    5    0    0 -0.14920685357E+03 -0.50607862628E+03 -0.36488263900E+03  0.64149637674E+03  0.00000000000E+00 0. -1.
          2    1    6    6  503    0  0.14276809330E+03  0.67644476648E+02 -0.15578168115E+03  0.22187031317E+03  0.00000000000E+00 0. -1.
         -2    1    6    6    0  503  0.15743344604E+03  0.16961883384E+03 -0.31484553149E+03  0.39074742152E+03  0.00000000000E+00 0.  1.
<mgrwt>
<rscale>  0 0.16375802E+04</rscale>
<asrwt>0</asrwt>
<pdfrwt beam="1">  1        2 0.91672497E-01 0.16375802E+04</pdfrwt>
<pdfrwt beam="2">  1       -1 0.17309295E+00 0.16375802E+04</pdfrwt>
<totfact> 0.12759208E+01</totfact>
</mgrwt>
</event>
<event>
12    6  0.1457317E-007  0.1131487E+04  0.7818608E-02  0.9175035E-01
         -1   -1    0    0    0  501 -0.00000000000E+00  0.00000000000E+00  0.53312695252E+03  0.53312695252E+03  0.00000000000E+00 0.  1.
          2   -1    0    0  501    0  0.00000000000E+00 -0.00000000000E+00 -0.60035519440E+03  0.60035519440E+03  0.00000000000E+00 0. -1.
         24    2    1    2    0    0  0.12257697479E+03 -0.60397270016E+02  0.12318806726E+03  0.19890249963E+03  0.75590736665E+02 0.  0.
        254    2    1    2    0    0 -0.12257697479E+03  0.60397270016E+02 -0.19041630914E+03  0.93457964728E+03  0.90471420977E+03 0.  0.
         23    2    4    4    0    0 -0.97928846745E+02  0.41259482060E+03  0.12551089699E+03  0.45139922857E+03  0.90463988848E+02 0.  0.
         23    2    4    4    0    0 -0.24648128043E+02 -0.35219755058E+03 -0.31592720613E+03  0.48318041872E+03  0.94882414637E+02 0.  0.
          2    1    3    3  502    0  0.52318114533E+02  0.10332984474E+02  0.24727490997E+02  0.58782688671E+02  0.00000000000E+00 0. -1.
         -1    1    3    3    0  502  0.70258860254E+02 -0.70730254490E+02  0.98460576263E+02  0.14011981096E+03  0.00000000000E+00 0.  1.
         11    1    5    5    0    0 -0.49271277222E+02  0.64498042783E+02  0.35416694833E+02  0.88555059453E+02  0.00000000000E+00 0. -1.
        -11    1    5    5    0    0 -0.48657569523E+02  0.34809677782E+03  0.90094202156E+02  0.36284416911E+03  0.00000000000E+00 0.  1.
          4    1    6    6  503    0 -0.20659130259E+02 -0.13638106849E+02 -0.36920852330E+02  0.44451624922E+02  0.00000000000E+00 0. -1.
         -4    1    6    6    0  503 -0.39889977836E+01 -0.33855944373E+03 -0.27900635380E+03  0.43872879380E+03  0.00000000000E+00 0.  1.
<mgrwt>
<rscale>  0 0.11314867E+04</rscale>
<asrwt>0</asrwt>
<pdfrwt beam="1">  1        2 0.92362338E-01 0.11314867E+04</pdfrwt>
<pdfrwt beam="2">  1       -1 0.82019531E-01 0.11314867E+04</pdfrwt>
<totfact> 0.83050779E+01</totfact>
</mgrwt>
</event>
<event>
12    6  0.1457317E-007  0.1559457E+04  0.7818608E-02  0.8845850E-01
         -1   -1    0    0    0  501 -0.00000000000E+00  0.00000000000E+00  0.88653455754E+03  0.88653455754E+03  0.00000000000E+00 0.  1.
          2   -1    0    0  501    0  0.00000000000E+00 -0.00000000000E+00 -0.68578979468E+03  0.68578979468E+03  0.00000000000E+00 0. -1.
         24    2    1    2    0    0  0.15844716344E+03 -0.12408302433E+03 -0.41286956091E+03  0.46636764375E+03  0.80841847350E+02 0.  0.
        254    2    1    2    0    0 -0.15844716344E+03  0.12408302433E+03  0.61361432377E+03  0.11059567085E+04  0.89783940777E+03 0.  0.
         23    2    4    4    0    0  0.11885401355E+03 -0.32499105692E+03  0.12573611468E+03  0.38039040737E+03  0.95612906386E+02 0.  0.
         23    2    4    4    0    0 -0.27730117699E+03  0.44907408125E+03  0.48787820909E+03  0.72556630110E+03  0.99286641520E+02 0.  0.
          2    1    3    3  502    0  0.16435580533E+03 -0.12557827104E+03 -0.37727248108E+03  0.43025255129E+03  0.00000000000E+00 0. -1.
         -1    1    3    3    0  502 -0.59086418913E+01  0.14952467123E+01 -0.35597079822E+02  0.36115092463E+02  0.00000000000E+00 0.  1.
         11    1    5    5    0    0  0.66143427704E+02 -0.24750794388E+03  0.12854909463E+03  0.28663566603E+03  0.00000000000E+00 0. -1.
        -11    1    5    5    0    0  0.52710585848E+02 -0.77483113036E+02 -0.28129799475E+01  0.93754741333E+02  0.00000000000E+00 0.  1.
          2    1    6    6  503    0 -0.17621032055E+03  0.36399998073E+03  0.35379826875E+03  0.53732604442E+03  0.00000000000E+00 0. -1.
         -2    1    6    6    0  503 -0.10109085645E+03  0.85074100513E+02  0.13407994034E+03  0.18824025668E+03  0.00000000000E+00 0.  1.
<mgrwt>
<rscale>  0 0.15594568E+04</rscale>
<asrwt>0</asrwt>
<pdfrwt beam="1">  1        2 0.10550612E+00 0.15594568E+04</pdfrwt>
<pdfrwt beam="2">  1       -1 0.13638993E+00 0.15594568E+04</pdfrwt>
<totfact> 0.20730639E+01</totfact>
</mgrwt>
</event>
<event>
12    6  0.1457317E-007  0.1143477E+04  0.7818608E-02  0.9163823E-01
          2   -1    0    0  501    0  0.00000000000E+00  0.00000000000E+00  0.11971361596E+03  0.11971361596E+03  0.00000000000E+00 0. -1.
         -1   -1    0    0    0  501 -0.00000000000E+00 -0.00000000000E+00 -0.27305566952E+04  0.27305566952E+04  0.00000000000E+00 0.  1.
         24    2    1    2    0    0 -0.20245533632E+03 -0.26102683250E+02 -0.30761939600E+03  0.37755454732E+03  0.79045747068E+02 0.  0.
        254    2    1    2    0    0  0.20245533632E+03  0.26102683250E+02 -0.23032236833E+04  0.24727157639E+04  0.87625019283E+03 0.  0.
         23    2    4    4    0    0  0.40387946535E+03  0.96127696564E+02 -0.21558897191E+04  0.21973707885E+04  0.90657292569E+02 0.  0.
         23    2    4    4    0    0 -0.20142412903E+03 -0.70025013314E+02 -0.14733396422E+03  0.27534497541E+03  0.92910581869E+02 0.  0.
          2    1    3    3  502    0 -0.20308535363E+03 -0.14441922601E+02 -0.26997277747E+03  0.33813833052E+03  0.00000000000E+00 0. -1.
         -3    1    3    3    0  502  0.63001730879E+00 -0.11660760649E+02 -0.37646618527E+02  0.39416216805E+02  0.00000000000E+00 0.  1.
         11    1    5    5    0    0  0.20061492289E+03  0.77174606753E+02 -0.92332886641E+03  0.94801817639E+03  0.00000000000E+00 0.  1.
        -11    1    5    5    0    0  0.20326454246E+03  0.18953089810E+02 -0.12325608527E+04  0.12493526121E+04  0.00000000000E+00 0. -1.
          4    1    6    6  503    0 -0.16726296394E+03 -0.57102755154E+02 -0.70522091906E+02  0.19029185268E+03  0.00000000000E+00 0. -1.
         -4    1    6    6    0  503 -0.34161165096E+02 -0.12922258160E+02 -0.76811872315E+02  0.85053122725E+02  0.00000000000E+00 0.  1.
<mgrwt>
<rscale>  0 0.11434768E+04</rscale>
<asrwt>0</asrwt>
<pdfrwt beam="1">  1        2 0.18417480E-01 0.11434768E+04</pdfrwt>
<pdfrwt beam="2">  1       -1 0.42008564E+00 0.11434768E+04</pdfrwt>
<totfact> 0.18945314E+00</totfact>
</mgrwt>
</event>
<event>
12    6  0.1457317E-007  0.1418547E+04  0.7818608E-02  0.8940502E-01
         -1   -1    0    0    0  501 -0.00000000000E+00  0.00000000000E+00  0.20534294712E+03  0.20534294712E+03  0.00000000000E+00 0.  1.
          2   -1    0    0  501    0  0.00000000000E+00 -0.00000000000E+00 -0.24498945437E+04  0.24498945437E+04  0.00000000000E+00 0. -1.
         24    2    1    2    0    0 -0.22073769859E+03  0.14392463493E+03 -0.12423208078E+04  0.12722822446E+04  0.76822446906E+02 0.  0.
        254    2    1    2    0    0  0.22073769859E+03 -0.14392463493E+03 -0.10022307888E+04  0.13829552462E+04  0.91578339519E+03 0.  0.
         23    2    4    4    0    0  0.41930049808E+03 -0.36706888944E+03 -0.88487422675E+03  0.10496146645E+04  0.90200162965E+02 0.  0.
         23    2    4    4    0    0 -0.19856279949E+03  0.22314425450E+03 -0.11735656203E+03  0.33334058174E+03  0.90126783629E+02 0.  0.
          2    1    3    3  502    0 -0.21157644593E+03  0.12222174099E+03 -0.11911022566E+04  0.12159059718E+04  0.00000000000E+00 0. -1.
         -1    1    3    3    0  502 -0.91612526564E+01  0.21702893947E+02 -0.51218551217E+02  0.56376272887E+02  0.00000000000E+00 0.  1.
         11    1    5    5    0    0  0.21174903252E+02 -0.29365224310E+02 -0.26189207287E+02  0.44682966607E+02  0.00000000000E+00 0. -1.
        -11    1    5    5    0    0  0.39812559483E+03 -0.33770366513E+03 -0.85868501947E+03  0.10049316979E+04  0.00000000000E+00 0.  1.
          3    1    6    6  503    0 -0.17980344135E+03  0.15349818080E+03 -0.11027065859E+03  0.26086507466E+03  0.00000000000E+00 0.  1.
         -3    1    6    6    0  503 -0.18759358137E+02  0.69646073700E+02 -0.70859034420E+01  0.72475507085E+02  0.00000000000E+00 0. -1.
<mgrwt>
<rscale>  0 0.14185465E+04</rscale>
<asrwt>0</asrwt>
<pdfrwt beam="1">  1        2 0.37690686E+00 0.14185465E+04</pdfrwt>
<pdfrwt beam="2">  1       -1 0.31591222E-01 0.14185465E+04</pdfrwt>
<totfact> 0.38492597E+01</totfact>
</mgrwt>
</event>
<event>
12    6  0.1457317E-007  0.1342240E+04  0.7818608E-02  0.8996723E-01
          2   -1    0    0  501    0  0.00000000000E+00  0.00000000000E+00  0.35411388291E+03  0.35411388291E+03  0.00000000000E+00 0. -1.
         -1   -1    0    0    0  501 -0.00000000000E+00 -0.00000000000E+00 -0.12719124800E+04  0.12719124800E+04  0.00000000000E+00 0.  1.
         24    2    1    2    0    0  0.32024208802E+03  0.22359171764E+02 -0.52533565230E+02  0.33471921877E+03  0.78881255280E+02 0.  0.
        254    2    1    2    0    0 -0.32024208802E+03 -0.22359171764E+02 -0.86526503191E+03  0.12913071442E+04  0.90318084440E+03 0.  0.
         23    2    4    4    0    0  0.29311124528E+03 -0.11956405714E+03 -0.33272262005E+03  0.46798633606E+03  0.89983903943E+02 0.  0.
         23    2    4    4    0    0 -0.61335333331E+03  0.97204885374E+02 -0.53254241185E+03  0.82332080813E+03  0.92761152764E+02 0.  0.
          4    1    3    3  502    0  0.32468810136E+03  0.19769590985E+02 -0.52892386608E+02  0.32956153363E+03  0.00000000000E+00 0. -1.
         -1    1    3    3    0  502 -0.44460133335E+01  0.25895807797E+01  0.35882137803E+00  0.51576851355E+01  0.00000000000E+00 0.  1.
         11    1    5    5    0    0  0.21671910704E+03 -0.11561931085E+03 -0.29115393159E+03  0.38092730052E+03  0.00000000000E+00 0. -1.
        -11    1    5    5    0    0  0.76392138242E+02 -0.39447462867E+01 -0.41568688464E+02  0.87059035540E+02  0.00000000000E+00 0.  1.
          3    1    6    6  503    0 -0.57824801985E+03  0.85816251602E+02 -0.52484727509E+03  0.78562068689E+03  0.00000000000E+00 0. -1.
         -3    1    6    6    0  503 -0.35105313455E+02  0.11388633772E+02 -0.76951367678E+01  0.37700121245E+02  0.00000000000E+00 0.  1.
<mgrwt>
<rscale>  0 0.13422397E+04</rscale>
<asrwt>0</asrwt>
<pdfrwt beam="1">  1        2 0.54479060E-01 0.13422397E+04</pdfrwt>
<pdfrwt beam="2">  1       -1 0.19567884E+00 0.13422397E+04</pdfrwt>
<totfact> 0.16454471E+01</totfact>
</mgrwt>
</event>
<event>
12    6  0.1457317E-007  0.2058981E+04  0.7818608E-02  0.8579531E-01
          2   -1    0    0  501    0  0.00000000000E+00  0.00000000000E+00  0.28023716574E+04  0.28023716574E+04  0.00000000000E+00 0. -1.
         -1   -1    0    0    0  501 -0.00000000000E+00 -0.00000000000E+00 -0.37819771887E+03  0.37819771887E+03  0.00000000000E+00 0.  1.
         24    2    1    2    0    0  0.18992773942E+03 -0.67913308043E+03  0.30630510100E+03  0.77308911809E+03  0.80930108555E+02 0.  0.
        254    2    1    2    0    0 -0.18992773942E+03  0.67913308043E+03  0.21178688376E+04  0.24074802582E+04  0.90183063457E+03 0.  0.
         23    2    4    4    0    0 -0.27688414231E+03  0.11020341604E+03  0.15938383953E+04  0.16237668650E+04  0.86535428218E+02 0.  0.
         23    2    4    4    0    0  0.86956402891E+02  0.56892966440E+03  0.52403044223E+03  0.78371339319E+03  0.91413342859E+02 0.  0.
          2    1    3    3  502    0  0.15442632196E+02 -0.57910523506E+02  0.52601865982E+02  0.79743714026E+02  0.00000000000E+00 0. -1.
         -1    1    3    3    0  502  0.17448510722E+03 -0.62122255692E+03  0.25370323502E+03  0.69334540406E+03  0.00000000000E+00 0.  1.
         11    1    5    5    0    0 -0.14418870291E+03  0.37010470059E+02  0.58669243169E+03  0.60528354211E+03  0.00000000000E+00 0.  1.
        -11    1    5    5    0    0 -0.13269543940E+03  0.73192945976E+02  0.10071459636E+04  0.10184833229E+04  0.00000000000E+00 0. -1.
          3    1    6    6  503    0 -0.73601862358E+01  0.24132217475E+03  0.20296598380E+03  0.31541362518E+03  0.00000000000E+00 0. -1.
         -3    1    6    6    0  503  0.94316589127E+02  0.32760748964E+03  0.32106445842E+03  0.46829976801E+03  0.00000000000E+00 0.  1.
<mgrwt>
<rscale>  0 0.20589809E+04</rscale>
<asrwt>0</asrwt>
<pdfrwt beam="1">  1        2 0.43113409E+00 0.20589809E+04</pdfrwt>
<pdfrwt beam="2">  1       -1 0.58184266E-01 0.20589809E+04</pdfrwt>
<totfact> 0.72680678E+00</totfact>
</mgrwt>
</event>
<event>
12    6  0.1457317E-007  0.1654727E+04  0.7818608E-02  0.8787615E-01
         -1   -1    0    0    0  501 -0.00000000000E+00  0.00000000000E+00  0.39179589382E+03  0.39179589382E+03  0.00000000000E+00 0.  1.
          2   -1    0    0  501    0  0.00000000000E+00 -0.00000000000E+00 -0.17471601034E+04  0.17471601034E+04  0.00000000000E+00 0. -1.
         24    2    1    2    0    0  0.27545554868E+03 -0.21323757171E+03 -0.10756176401E+04  0.11341447047E+04  0.89358168277E+02 0.  0.
        254    2    1    2    0    0 -0.27545554868E+03  0.21323757171E+03 -0.27974656941E+03  0.10048112925E+04  0.90002309362E+03 0.  0.
         23    2    4    4    0    0 -0.25250042360E+03  0.35394108137E+02  0.29236006489E+03  0.39827334012E+03  0.90211080813E+02 0.  0.
         23    2    4    4    0    0 -0.22955125083E+02  0.17784346358E+03 -0.57210663430E+03  0.60653795233E+03  0.91798972212E+02 0.  0.
          2    1    3    3  502    0  0.22301719267E+03 -0.18619755962E+03 -0.97643806079E+03  0.10187430913E+04  0.00000000000E+00 0. -1.
         -1    1    3    3    0  502  0.52438356007E+02 -0.27040012097E+02 -0.99179579345E+02  0.11540161348E+03  0.00000000000E+00 0.  1.
         11    1    5    5    0    0 -0.87376745693E+02 -0.12167395775E+02  0.15473719286E+03  0.17811889305E+03  0.00000000000E+00 0.  1.
        -11    1    5    5    0    0 -0.16512367790E+03  0.47561503912E+02  0.13762287203E+03  0.22015444707E+03  0.00000000000E+00 0. -1.
          2    1    6    6  503    0 -0.51902110820E+02  0.60076364610E+02 -0.25300355722E+03  0.26516749170E+03  0.00000000000E+00 0.  1.
         -2    1    6    6    0  503  0.28946985737E+02  0.11776709897E+03 -0.31910307709E+03  0.34137046063E+03  0.00000000000E+00 0. -1.
<mgrwt>
<rscale>  0 0.16547268E+04</rscale>
<asrwt>0</asrwt>
<pdfrwt beam="1">  1        2 0.26879386E+00 0.16547268E+04</pdfrwt>
<pdfrwt beam="2">  1       -1 0.60276293E-01 0.16547268E+04</pdfrwt>
<totfact> 0.28027397E+01</totfact>
</mgrwt>
</event>
<event>
12    6  0.1457317E-007  0.1761215E+04  0.7818608E-02  0.8727201E-01
          2   -1    0    0  501    0  0.00000000000E+00  0.00000000000E+00  0.25316312981E+04  0.25316312981E+04  0.00000000000E+00 0. -1.
         -1   -1    0    0    0  501 -0.00000000000E+00 -0.00000000000E+00 -0.30631227161E+03  0.30631227161E+03  0.00000000000E+00 0.  1.
         24    2    1    2    0    0  0.58569181931E+03  0.22854644748E+03  0.11290254950E+04  0.12949814402E+04  0.83725601013E+02 0.  0.
        254    2    1    2    0    0 -0.58569181931E+03 -0.22854644748E+03  0.10962935315E+04  0.15429621295E+04  0.88521423397E+03 0.  0.
         23    2    4    4    0    0 -0.75979259054E+02 -0.40312630543E+03  0.14374756302E+03  0.44487852841E+03  0.94709435816E+02 0.  0.
         23    2    4    4    0    0 -0.50971256026E+03  0.17457985795E+03  0.95254596845E+03  0.10980836011E+04  0.90325810538E+02 0.  0.
          2    1    3    3  502    0  0.57850107051E+03  0.22261583873E+03  0.11257157443E+04  0.12850903615E+04  0.00000000000E+00 0. -1.
         -1    1    3    3    0  502  0.71907488002E+01  0.59306087512E+01  0.33097506964E+01  0.98910787147E+01  0.00000000000E+00 0.  1.
         11    1    5    5    0    0 -0.49508071875E+02 -0.14909972964E+03  0.98695872876E+02  0.18553343064E+03  0.00000000000E+00 0.  1.
        -11    1    5    5    0    0 -0.26471187180E+02 -0.25402657579E+03  0.45051690144E+02  0.25934509778E+03  0.00000000000E+00 0. -1.
          1    1    6    6  503    0 -0.45681760309E+03  0.18238878841E+03  0.87713176941E+03  0.10056381723E+04  0.00000000000E+00 0. -1.
         -1    1    6    6    0  503 -0.52894957169E+02 -0.78089304577E+01  0.75414199039E+02  0.92445428798E+02  0.00000000000E+00 0.  1.
<mgrwt>
<rscale>  0 0.17612152E+04</rscale>
<asrwt>0</asrwt>
<pdfrwt beam="1">  1        2 0.38948172E+00 0.17612152E+04</pdfrwt>
<pdfrwt beam="2">  1       -1 0.47124966E-01 0.17612152E+04</pdfrwt>
<totfact> 0.16182191E+01</totfact>
</mgrwt>
</event>
<event>
12    6  0.1457317E-007  0.1840210E+04  0.7818608E-02  0.8685204E-01
          2   -1    0    0  501    0  0.00000000000E+00  0.00000000000E+00  0.12014841753E+04  0.12014841753E+04  0.00000000000E+00 0. -1.
         -1   -1    0    0    0  501 -0.00000000000E+00 -0.00000000000E+00 -0.70462284420E+03  0.70462284420E+03  0.00000000000E+00 0.  1.
         24    2    1    2    0    0  0.61526128799E+03  0.10720853233E+03  0.50794593110E+03  0.80861761564E+03  0.76244721123E+02 0.  0.
        254    2    1    2    0    0 -0.61526128799E+03 -0.10720853233E+03 -0.11084599978E+02  0.10974894039E+04  0.90239680926E+03 0.  0.
         23    2    4    4    0    0 -0.10400690213E+03 -0.42133027018E+03  0.15172732099E+03  0.46867717803E+03  0.91106997603E+02 0.  0.
         23    2    4    4    0    0 -0.51125438586E+03  0.31412173785E+03 -0.16281192096E+03  0.62881222584E+03  0.94040313236E+02 0.  0.
          2    1    3    3  502    0  0.20717040472E+03  0.26572575720E+02  0.21560436057E+03  0.30018480753E+03  0.00000000000E+00 0. -1.
         -1    1    3    3    0  502  0.40809088327E+03  0.80635956611E+02  0.29234157052E+03  0.50843280811E+03  0.00000000000E+00 0.  1.
         11    1    5    5    0    0 -0.86573689556E+02 -0.29455043560E+03  0.14757583425E+03  0.34063703511E+03  0.00000000000E+00 0. -1.
        -11    1    5    5    0    0 -0.17433212573E+02 -0.12677983458E+03  0.41514867402E+01  0.12804014292E+03  0.00000000000E+00 0.  1.
          2    1    6    6  503    0 -0.40721265737E+03  0.22633997626E+03 -0.16019649353E+03  0.49266098862E+03  0.00000000000E+00 0. -1.
         -2    1    6    6    0  503 -0.10404172849E+03  0.87781761594E+02 -0.26154274319E+01  0.13615123722E+03  0.00000000000E+00 0.  1.
<mgrwt>
<rscale>  0 0.18402100E+04</rscale>
<asrwt>0</asrwt>
<pdfrwt beam="1">  1        2 0.18484372E+00 0.18402100E+04</pdfrwt>
<pdfrwt beam="2">  1       -1 0.10840351E+00 0.18402100E+04</pdfrwt>
<totfact> 0.16024526E+01</totfact>
</mgrwt>
</event>
<event>
12    6  0.1457317E-007  0.1240182E+04  0.7818608E-02  0.9078394E-01
          2   -1    0    0  501    0  0.00000000000E+00  0.00000000000E+00  0.36252709230E+04  0.36252709230E+04  0.00000000000E+00 0. -1.
         -1   -1    0    0    0  501 -0.00000000000E+00 -0.00000000000E+00 -0.10606459933E+03  0.10606459933E+03  0.00000000000E+00 0.  1.
         24    2    1    2    0    0  0.22119283809E+03 -0.17117996493E+03  0.11353273728E+04  0.11721627379E+04  0.82270217273E+02 0.  0.
        254    2    1    2    0    0 -0.22119283809E+03  0.17117996493E+03  0.23838789508E+04  0.25591727844E+04  0.88783874445E+03 0.  0.
         23    2    4    4    0    0  0.11941155695E+03  0.12244939245E+03  0.50813219435E+02  0.19920036549E+03  0.88576682590E+02 0.  0.
         23    2    4    4    0    0 -0.34060439504E+03  0.48730572481E+02  0.23330657314E+04  0.23599724189E+04  0.88814910666E+02 0.  0.
          2    1    3    3  502    0  0.19582174462E+03 -0.17856169205E+03  0.10412721684E+04  0.10744664547E+04  0.00000000000E+00 0. -1.
         -1    1    3    3    0  502  0.25371093474E+02  0.73817271239E+01  0.94055204400E+02  0.97696283215E+02  0.00000000000E+00 0.  1.
         11    1    5    5    0    0  0.55444678101E+02  0.42901564767E+01  0.30150738220E+02  0.63258080808E+02  0.00000000000E+00 0.  1.
        -11    1    5    5    0    0  0.63966878847E+02  0.11815923597E+03  0.20662481215E+02  0.13594228468E+03  0.00000000000E+00 0. -1.
          3    1    6    6  503    0 -0.20853490276E+03 -0.76475717168E+01  0.12260085904E+04  0.12436407660E+04  0.00000000000E+00 0. -1.
         -3    1    6    6    0  503 -0.13206949228E+03  0.56378144198E+02  0.11070571410E+04  0.11163316529E+04  0.00000000000E+00 0.  1.
<mgrwt>
<rscale>  0 0.12401821E+04</rscale>
<asrwt>0</asrwt>
<pdfrwt beam="1">  1        2 0.55773389E+00 0.12401821E+04</pdfrwt>
<pdfrwt beam="2">  1       -1 0.16317633E-01 0.12401821E+04</pdfrwt>
<totfact> 0.21849294E+01</totfact>
</mgrwt>
</event>
<event>
12    6  0.1457317E-007  0.2293588E+04  0.7818608E-02  0.8480453E-01
          2   -1    0    0  501    0  0.00000000000E+00  0.00000000000E+00  0.13158843456E+04  0.13158843456E+04  0.00000000000E+00 0. -1.
         -1   -1    0    0    0  501 -0.00000000000E+00 -0.00000000000E+00 -0.99943207370E+03  0.99943207370E+03  0.00000000000E+00 0.  1.
         24    2    1    2    0    0  0.37277490675E+03  0.40714178584E+03 -0.66622969639E+03  0.86910491927E+03  0.82193597448E+02 0.  0.
        254    2    1    2    0    0 -0.37277490675E+03 -0.40714178584E+03  0.98268196833E+03  0.14462115001E+04  0.90616680980E+03 0.  0.
         23    2    4    4    0    0 -0.11615062010E+03 -0.19378595795E+03  0.10637818979E+04  0.10909442440E+04  0.86506954885E+02 0.  0.
         23    2    4    4    0    0 -0.25662428665E+03 -0.21335582789E+03 -0.81099929570E+02  0.35526725604E+03  0.90889442998E+02 0.  0.
          2    1    3    3  502    0 -0.33710287243E+01  0.13529858260E+01 -0.85816776237E+00  0.37324063570E+01  0.00000000000E+00 0. -1.
         -1    1    3    3    0  502  0.37614593548E+03  0.40578880001E+03 -0.66537152863E+03  0.86537251291E+03  0.00000000000E+00 0.  1.
         11    1    5    5    0    0 -0.11526781281E+03 -0.15936074985E+03  0.75305983785E+03  0.77831975219E+03  0.00000000000E+00 0.  1.
        -11    1    5    5    0    0 -0.88280729702E+00 -0.34425208103E+02  0.31072206004E+03  0.31262449184E+03  0.00000000000E+00 0. -1.
          1    1    6    6  503    0 -0.13988130931E+03 -0.12055312183E+03  0.17390477397E+01  0.18466959729E+03  0.00000000000E+00 0. -1.
         -1    1    6    6    0  503 -0.11674297734E+03 -0.92802706060E+02 -0.82838977310E+02  0.17059765875E+03  0.00000000000E+00 0.  1.
<mgrwt>
<rscale>  0 0.22935885E+04</rscale>
<asrwt>0</asrwt>
<pdfrwt beam="1">  1        2 0.20244375E+00 0.22935885E+04</pdfrwt>
<pdfrwt beam="2">  1       -1 0.15375878E+00 0.22935885E+04</pdfrwt>
<totfact> 0.54575480E+00</totfact>
</mgrwt>
</event>
<event>
12    6  0.1457317E-007  0.9678673E+03  0.7818608E-02  0.9344507E-01
         -3   -1    0    0    0  501 -0.00000000000E+00  0.00000000000E+00  0.21378268033E+03  0.21378268033E+03  0.00000000000E+00 0.  1.
          2   -1    0    0  501    0  0.00000000000E+00 -0.00000000000E+00 -0.10954666170E+04  0.10954666170E+04  0.00000000000E+00 0. -1.
         24    2    1    2    0    0 -0.93142173180E+01  0.14339646654E+02 -0.53469690662E+02  0.94941110162E+02  0.76566483979E+02 0.  0.
        254    2    1    2    0    0  0.93142173180E+01 -0.14339646654E+02 -0.82821424602E+03  0.12143081872E+04  0.88787001076E+03 0.  0.
         23    2    4    4    0    0  0.26460535539E+03  0.19660067324E+03 -0.27999292918E+02  0.34327950036E+03  0.91591681670E+02 0.  0.
         23    2    4    4    0    0 -0.25529113807E+03 -0.21094031989E+03 -0.80021495310E+03  0.87102868681E+03  0.93153734981E+02 0.  0.
          4    1    3    3  502    0  0.57742799889E+01  0.43456456956E+02 -0.40475914544E+02  0.59666620641E+02  0.00000000000E+00 0. -1.
         -3    1    3    3    0  502 -0.15088497307E+02 -0.29116810302E+02 -0.12993776118E+02  0.35274489521E+02  0.00000000000E+00 0.  1.
         11    1    5    5    0    0  0.22864227119E+03  0.18424109524E+03 -0.52150215524E+02  0.29823097480E+03  0.00000000000E+00 0. -1.
        -11    1    5    5    0    0  0.35963084193E+02  0.12359578000E+02  0.24150922606E+02  0.45048525567E+02  0.00000000000E+00 0.  1.
          1    1    6    6  503    0 -0.11741521106E+03 -0.95988995738E+02 -0.25139944996E+03  0.29360160512E+03  0.00000000000E+00 0. -1.
         -1    1    6    6    0  503 -0.13787592701E+03 -0.11495132415E+03 -0.54881550314E+03  0.57742708169E+03  0.00000000000E+00 0.  1.
<mgrwt>
<rscale>  0 0.96786732E+03</rscale>
<asrwt>0</asrwt>
<pdfrwt beam="1">  1        2 0.16853333E+00 0.96786732E+03</pdfrwt>
<pdfrwt beam="2">  1       -3 0.32889643E-01 0.96786732E+03</pdfrwt>
<totfact> 0.12774282E+02</totfact>
</mgrwt>
</event>
<event>
12    6  0.1457317E-007  0.1582324E+04  0.7818608E-02  0.8831481E-01
         -1   -1    0    0    0  501 -0.00000000000E+00  0.00000000000E+00  0.32026380582E+03  0.32026380582E+03  0.00000000000E+00 0.  1.
          2   -1    0    0  501    0  0.00000000000E+00 -0.00000000000E+00 -0.19544436501E+04  0.19544436501E+04  0.00000000000E+00 0. -1.
         24    2    1    2    0    0  0.23606973496E+03  0.23991730676E+03 -0.11379582179E+04  0.11892302710E+04  0.77656280718E+02 0.  0.
        254    2    1    2    0    0 -0.23606973496E+03 -0.23991730676E+03 -0.49622162632E+03  0.10854771849E+04  0.90484008674E+03 0.  0.
         23    2    4    4    0    0  0.76810227415E+02 -0.49865556561E+03 -0.12356166858E+03  0.52682982863E+03  0.87891969176E+02 0.  0.
         23    2    4    4    0    0 -0.31287996237E+03  0.25873825885E+03 -0.37265995774E+03  0.55864735623E+03  0.91499000382E+02 0.  0.
          2    1    3    3  502    0  0.16890294493E+03  0.20212054200E+03 -0.78701409776E+03  0.82992295328E+03  0.00000000000E+00 0. -1.
         -1    1    3    3    0  502  0.67166790024E+02  0.37796764759E+02 -0.35094412015E+03  0.35930731774E+03  0.00000000000E+00 0.  1.
         11    1    5    5    0    0  0.62110381569E+02 -0.37919969599E+03 -0.13170587015E+03  0.40619766761E+03  0.00000000000E+00 0.  1.
        -11    1    5    5    0    0  0.14699845845E+02 -0.11945586961E+03  0.81442015710E+01  0.12063216102E+03  0.00000000000E+00 0. -1.
          1    1    6    6  503    0 -0.31785393148E+03  0.24458435444E+03 -0.35661818755E+03  0.53668348204E+03  0.00000000000E+00 0. -1.
         -1    1    6    6    0  503  0.49739691122E+01  0.14153904409E+02 -0.16041770188E+02  0.21963874192E+02  0.00000000000E+00 0.  1.
<mgrwt>
<rscale>  0 0.15823243E+04</rscale>
<asrwt>0</asrwt>
<pdfrwt beam="1">  1        2 0.30068363E+00 0.15823243E+04</pdfrwt>
<pdfrwt beam="2">  1       -1 0.49271355E-01 0.15823243E+04</pdfrwt>
<totfact> 0.31981096E+01</totfact>
</mgrwt>
</event>
<event>
12    6  0.1457317E-007  0.1033422E+04  0.7818608E-02  0.9272629E-01
         -1   -1    0    0    0  501 -0.00000000000E+00  0.00000000000E+00  0.80904003970E+03  0.80904003970E+03  0.00000000000E+00 0.  1.
          2   -1    0    0  501    0  0.00000000000E+00 -0.00000000000E+00 -0.33000900848E+03  0.33000900848E+03  0.00000000000E+00 0. -1.
         24    2    1    2    0    0 -0.54022907448E+02  0.32704152558E+02 -0.24250122250E+02  0.10299398408E+03  0.77663738030E+02 0.  0.
        254    2    1    2    0    0  0.54022907448E+02 -0.32704152558E+02  0.50328115347E+03  0.10360550641E+04  0.90339921423E+03 0.  0.
         23    2    4    4    0    0  0.26281232580E+03  0.28116888307E+03 -0.61416638849E+01  0.39563253272E+03  0.91439168401E+02 0.  0.
         23    2    4    4    0    0 -0.20878941835E+03 -0.31387303563E+03  0.50942281736E+03  0.64042253137E+03  0.92304431837E+02 0.  0.
          4    1    3    3  502    0  0.17296923930E+02 -0.64193990742E+01 -0.76425538973E+01  0.19969999799E+02  0.00000000000E+00 0. -1.
         -3    1    3    3    0  502 -0.71319831377E+02  0.39123551632E+02 -0.16607568352E+02  0.83023984285E+02  0.00000000000E+00 0.  1.
         11    1    5    5    0    0  0.18987206684E+03  0.17836313299E+03 -0.43599424312E+02  0.26413201013E+03  0.00000000000E+00 0. -1.
        -11    1    5    5    0    0  0.72940258959E+02  0.10280575008E+03  0.37457760427E+02  0.13150052260E+03  0.00000000000E+00 0.  1.
          2    1    6    6  503    0 -0.13690872338E+03 -0.12419947534E+03  0.22798995570E+03  0.29351137646E+03  0.00000000000E+00 0. -1.
         -2    1    6    6    0  503 -0.71880694970E+02 -0.18967356028E+03  0.28143286166E+03  0.34691115492E+03  0.00000000000E+00 0.  1.
<mgrwt>
<rscale>  0 0.10334225E+04</rscale>
<asrwt>0</asrwt>
<pdfrwt beam="1">  1        2 0.50770617E-01 0.10334225E+04</pdfrwt>
<pdfrwt beam="2">  1       -1 0.12446770E+00 0.10334225E+04</pdfrwt>
<totfact> 0.63758687E+01</totfact>
</mgrwt>
</event>
<event>
12    6  0.1457317E-007  0.1624946E+04  0.7818608E-02  0.8805368E-01
         -1   -1    0    0    0  501 -0.00000000000E+00  0.00000000000E+00  0.24994081040E+03  0.24994081040E+03  0.00000000000E+00 0.  1.
          2   -1    0    0  501    0  0.00000000000E+00 -0.00000000000E+00 -0.26410743800E+04  0.26410743800E+04  0.00000000000E+00 0. -1.
         24    2    1    2    0    0 -0.51251997705E+03  0.16386019393E+03 -0.55348792538E+03  0.77618875268E+03  0.81198560437E+02 0.  0.
        254    2    1    2    0    0  0.51251997705E+03 -0.16386019393E+03 -0.18376456442E+04  0.21148264377E+04  0.89778753494E+03 0.  0.
         23    2    4    4    0    0  0.70931023953E+03 -0.27990169625E+03 -0.11389247021E+04  0.13735968952E+04  0.90293843218E+02 0.  0.
         23    2    4    4    0    0 -0.19679026248E+03  0.11604150232E+03 -0.69872094213E+03  0.74122954247E+03  0.94964424895E+02 0.  0.
          2    1    3    3  502    0 -0.29882902683E+03  0.11557229417E+03 -0.27786812300E+03  0.42410663310E+03  0.00000000000E+00 0. -1.
         -1    1    3    3    0  502 -0.21369095022E+03  0.48287899765E+02 -0.27561980237E+03  0.35208211959E+03  0.00000000000E+00 0.  1.
         11    1    5    5    0    0  0.21036834632E+03 -0.92995967450E+02 -0.27405547983E+03  0.35778414879E+03  0.00000000000E+00 0.  1.
        -11    1    5    5    0    0  0.49894189320E+03 -0.18690572880E+03 -0.86486922222E+03  0.10158127464E+04  0.00000000000E+00 0. -1.
          1    1    6    6  503    0 -0.17694057262E+03  0.12738256612E+03 -0.56572341993E+03  0.60628151238E+03  0.00000000000E+00 0. -1.
         -1    1    6    6    0  503 -0.19849689854E+02 -0.11341063802E+02 -0.13299752219E+03  0.13494803009E+03  0.00000000000E+00 0.  1.
<mgrwt>
<rscale>  0 0.16249459E+04</rscale>
<asrwt>0</asrwt>
<pdfrwt beam="1">  1        2 0.40631913E+00 0.16249459E+04</pdfrwt>
<pdfrwt beam="2">  1       -1 0.38452433E-01 0.16249459E+04</pdfrwt>
<totfact> 0.20593870E+01</totfact>
</mgrwt>
</event>
<event>
12    6  0.1457317E-007  0.1273880E+04  0.7818608E-02  0.9050539E-01
         -1   -1    0    0    0  501 -0.00000000000E+00  0.00000000000E+00  0.86418165031E+03  0.86418165031E+03  0.00000000000E+00 0.  1.
          2   -1    0    0  501    0  0.00000000000E+00 -0.00000000000E+00 -0.46945286590E+03  0.46945286590E+03  0.00000000000E+00 0. -1.
         24    2    1    2    0    0  0.19369842735E+03 -0.96377856589E+02 -0.11622082208E+03  0.25794127420E+03  0.78858413952E+02 0.  0.
        254    2    1    2    0    0 -0.19369842735E+03  0.96377856589E+02  0.51094960649E+03  0.10756932420E+04  0.92154146870E+03 0.  0.
         23    2    4    4    0    0  0.27173398667E+02  0.74618615646E+02  0.73686140677E+03  0.74643104237E+03  0.88815746546E+02 0.  0.
         23    2    4    4    0    0 -0.22087182602E+03  0.21759240942E+02 -0.22591180028E+03  0.32926219964E+03  0.90108970199E+02 0.  0.
          2    1    3    3  502    0  0.12533486494E+03 -0.41459073626E+02 -0.10668582998E+03  0.16973376056E+03  0.00000000000E+00 0. -1.
         -1    1    3    3    0  502  0.68363562410E+02 -0.54918782962E+02 -0.95349920974E+01  0.88207513636E+02  0.00000000000E+00 0.  1.
         11    1    5    5    0    0  0.56849726866E+02  0.31693940374E+02  0.47316566307E+03  0.47762133747E+03  0.00000000000E+00 0. -1.
        -11    1    5    5    0    0 -0.29676328199E+02  0.42924675273E+02  0.26369574370E+03  0.26880970490E+03  0.00000000000E+00 0.  1.
          1    1    6    6  503    0 -0.22716296744E+03  0.11460252155E+02 -0.21369377597E+03  0.31208873906E+03  0.00000000000E+00 0. -1.
         -1    1    6    6    0  503  0.62911414224E+01  0.10298988787E+02 -0.12218024303E+02  0.17173460580E+02  0.00000000000E+00 0.  1.
<mgrwt>
<rscale>  0 0.12738800E+04</rscale>
<asrwt>0</asrwt>
<pdfrwt beam="1">  1        2 0.72223518E-01 0.12738800E+04</pdfrwt>
<pdfrwt beam="2">  1       -1 0.13295102E+00 0.12738800E+04</pdfrwt>
<totfact> 0.35650384E+01</totfact>
</mgrwt>
</event>
<event>
12    6  0.1457317E-007  0.1279303E+04  0.7818608E-02  0.9046141E-01
         -1   -1    0    0    0  501 -0.00000000000E+00  0.00000000000E+00  0.58283094236E+03  0.58283094236E+03  0.00000000000E+00 0.  1.
          2   -1    0    0  501    0  0.00000000000E+00 -0.00000000000E+00 -0.70201198460E+03  0.70201198460E+03  0.00000000000E+00 0. -1.
         24    2    1    2    0    0 -0.27964656890E+03 -0.10465561838E+03 -0.26639545341E+03  0.40813085053E+03  0.80307232550E+02 0.  0.
        254    2    1    2    0    0  0.27964656890E+03  0.10465561838E+03  0.14721441116E+03  0.87671207643E+03  0.81104684214E+03 0.  0.
         23    2    4    4    0    0  0.55209129900E+03  0.38273011031E+02  0.36748665676E+02  0.56205991592E+03  0.91056349842E+02 0.  0.
         23    2    4    4    0    0 -0.27244473010E+03  0.66382607347E+02  0.11046574549E+03  0.31465216052E+03  0.90390926942E+02 0.  0.
          2    1    3    3  502    0 -0.25473455437E+03 -0.10701613887E+03 -0.21202005196E+03  0.34827381412E+03  0.00000000000E+00 0. -1.
         -1    1    3    3    0  502 -0.24912014533E+02  0.23605204932E+01 -0.54375401445E+02  0.59857036407E+02  0.00000000000E+00 0.  1.
         11    1    5    5    0    0  0.38762828064E+03 -0.96246450445E+01  0.46097566057E+01  0.38777515083E+03  0.00000000000E+00 0. -1.
        -11    1    5    5    0    0  0.16446301836E+03  0.47897656075E+02  0.32138909070E+02  0.17428476508E+03  0.00000000000E+00 0.  1.
          2    1    6    6  503    0 -0.13071390370E+03 -0.13745185631E+02  0.57262102587E+02  0.14336667375E+03  0.00000000000E+00 0.  1.
         -2    1    6    6    0  503 -0.14173082640E+03  0.80127792978E+02  0.53203642898E+02  0.17128548676E+03  0.00000000000E+00 0. -1.
<mgrwt>
<rscale>  0 0.12793034E+04</rscale>
<asrwt>0</asrwt>
<pdfrwt beam="1">  1        2 0.10800184E+00 0.12793034E+04</pdfrwt>
<pdfrwt beam="2">  1       -1 0.89666299E-01 0.12793034E+04</pdfrwt>
<totfact> 0.55770890E+01</totfact>
</mgrwt>
</event>
<event>
12    6  0.1457317E-007  0.1252044E+04  0.7818608E-02  0.9068483E-01
         -1   -1    0    0    0  501 -0.00000000000E+00  0.00000000000E+00  0.79918829633E+03  0.79918829633E+03  0.00000000000E+00 0.  1.
          2   -1    0    0  501    0  0.00000000000E+00 -0.00000000000E+00 -0.49037732812E+03  0.49037732812E+03  0.00000000000E+00 0. -1.
         24    2    1    2    0    0  0.25945885518E+03  0.17555317068E+02  0.22286521571E+03  0.35175403131E+03  0.80217875039E+02 0.  0.
        254    2    1    2    0    0 -0.25945885518E+03 -0.17555317068E+02  0.85945752497E+02  0.93781159315E+03  0.89692632093E+03 0.  0.
         23    2    4    4    0    0  0.17829981347E+03  0.15055575565E+03  0.31948018443E+03  0.40621142868E+03  0.92099280691E+02 0.  0.
         23    2    4    4    0    0 -0.43775866866E+03 -0.16811107272E+03 -0.23353443194E+03  0.53160016447E+03  0.90368242234E+02 0.  0.
          2    1    3    3  502    0  0.88842765946E+02 -0.25154453767E+02  0.10605247450E+03  0.14061618311E+03  0.00000000000E+00 0. -1.
         -1    1    3    3    0  502  0.17061608924E+03  0.42709770835E+02  0.11681274121E+03  0.21113784820E+03  0.00000000000E+00 0.  1.
         11    1    5    5    0    0  0.31286325392E+01  0.46268627240E+02  0.71003199659E+02  0.84805828633E+02  0.00000000000E+00 0.  1.
        -11    1    5    5    0    0  0.17517118093E+03  0.10428712841E+03  0.24847698478E+03  0.32140560005E+03  0.00000000000E+00 0. -1.
          3    1    6    6  503    0 -0.41649001609E+03 -0.14709445073E+03 -0.19501376924E+03  0.48283649524E+03  0.00000000000E+00 0. -1.
         -3    1    6    6    0  503 -0.21268652563E+02 -0.21016621987E+02 -0.38520662702E+02  0.48763669228E+02  0.00000000000E+00 0.  1.
<mgrwt>
<rscale>  0 0.12520444E+04</rscale>
<asrwt>0</asrwt>
<pdfrwt beam="1">  1        2 0.75442666E-01 0.12520444E+04</pdfrwt>
<pdfrwt beam="2">  1       -1 0.12295205E+00 0.12520444E+04</pdfrwt>
<totfact> 0.41318445E+01</totfact>
</mgrwt>
</event>
<event>
12    6  0.1457317E-007  0.1136397E+04  0.7818608E-02  0.9170425E-01
          2   -1    0    0  501    0  0.00000000000E+00  0.00000000000E+00  0.27804367984E+03  0.27804367984E+03  0.00000000000E+00 0. -1.
         -1   -1    0    0    0  501 -0.00000000000E+00 -0.00000000000E+00 -0.11611466958E+04  0.11611466958E+04  0.00000000000E+00 0.  1.
         24    2    1    2    0    0  0.11208884428E+03  0.91267473584E+02 -0.34711653982E+03  0.38455224847E+03  0.80603218516E+02 0.  0.
        254    2    1    2    0    0 -0.11208884428E+03 -0.91267473584E+02 -0.53598647610E+03  0.10546381271E+04  0.89670865721E+03 0.  0.
         23    2    4    4    0    0 -0.30435726366E+03 -0.28604905896E+03 -0.62181697748E+03  0.75446291896E+03  0.90002969607E+02 0.  0.
         23    2    4    4    0    0  0.19226841938E+03  0.19478158537E+03  0.85830501377E+02  0.30017520818E+03  0.88494460522E+02 0.  0.
          2    1    3    3  502    0  0.13234492313E+02  0.66854477277E+00 -0.90711312504E+00  0.13282379046E+02  0.00000000000E+00 0. -1.
         -1    1    3    3    0  502  0.98854351966E+02  0.90598928811E+02 -0.34620942670E+03  0.37126986942E+03  0.00000000000E+00 0.  1.
         11    1    5    5    0    0 -0.13819128790E+02 -0.70063950418E+01 -0.67345090412E+02  0.69104407201E+02  0.00000000000E+00 0.  1.
        -11    1    5    5    0    0 -0.29053813487E+03 -0.27904266392E+03 -0.55447188706E+03  0.68535851176E+03  0.00000000000E+00 0. -1.
          2    1    6    6  503    0  0.28039592965E+02  0.47456334497E+02 -0.15692962470E+02  0.57311356018E+02  0.00000000000E+00 0. -1.
         -2    1    6    6    0  503  0.16422882642E+03  0.14732525088E+03  0.10152346385E+03  0.24286385216E+03  0.00000000000E+00 0.  1.
<mgrwt>
<rscale>  0 0.11363969E+04</rscale>
<asrwt>0</asrwt>
<pdfrwt beam="1">  1        2 0.42775951E-01 0.11363969E+04</pdfrwt>
<pdfrwt beam="2">  1       -1 0.17863795E+00 0.11363969E+04</pdfrwt>
<totfact> 0.28894112E+01</totfact>
</mgrwt>
</event>
<event>
12    6  0.1457317E-007  0.2454806E+04  0.7818608E-02  0.8419265E-01
         -1   -1    0    0    0  501 -0.00000000000E+00  0.00000000000E+00  0.75167377052E+03  0.75167377052E+03  0.00000000000E+00 0.  1.
          2   -1    0    0  501    0  0.00000000000E+00 -0.00000000000E+00 -0.20042179643E+04  0.20042179643E+04  0.00000000000E+00 0. -1.
         24    2    1    2    0    0  0.78957658224E+03 -0.59503917499E+03 -0.10804699852E+03  0.99802381733E+03  0.82913129641E+02 0.  0.
        254    2    1    2    0    0 -0.78957658224E+03  0.59503917499E+03 -0.11444971952E+04  0.17578679175E+04  0.89594809358E+03 0.  0.
         23    2    4    4    0    0 -0.56691381123E+03  0.26172875704E+03 -0.10430566836E+03  0.63958237698E+03  0.91064443466E+02 0.  0.
         23    2    4    4    0    0 -0.22266277101E+03  0.33331041795E+03 -0.10401915269E+04  0.11182855405E+04  0.88823381972E+02 0.  0.
          4    1    3    3  502    0  0.86042804969E+02 -0.66930286879E+02 -0.38414275674E+02  0.11557977403E+03  0.00000000000E+00 0. -1.
         -3    1    3    3    0  502  0.70353377727E+03 -0.52810888811E+03 -0.69632722849E+02  0.88244404330E+03  0.00000000000E+00 0.  1.
         11    1    5    5    0    0 -0.54629057363E+03  0.26182933399E+03 -0.85739025875E+02  0.61183263360E+03  0.00000000000E+00 0. -1.
        -11    1    5    5    0    0 -0.20623237598E+02 -0.10057694526E+00 -0.18566642481E+02  0.27749743382E+02  0.00000000000E+00 0.  1.
          3    1    6    6  503    0 -0.12588975689E+03  0.18333371631E+03 -0.69442822977E+03  0.72917079530E+03  0.00000000000E+00 0. -1.
         -3    1    6    6    0  503 -0.96773014124E+02  0.14997670164E+03 -0.34576329710E+03  0.38911474518E+03  0.00000000000E+00 0.  1.
<mgrwt>
<rscale>  0 0.24548060E+04</rscale>
<asrwt>0</asrwt>
<pdfrwt beam="1">  1        2 0.30834122E+00 0.24548060E+04</pdfrwt>
<pdfrwt beam="2">  1       -1 0.11564212E+00 0.24548060E+04</pdfrwt>
<totfact> 0.45843513E+00</totfact>
</mgrwt>
</event>
<event>
12    6  0.1457317E-007  0.1782118E+04  0.7818608E-02  0.8715867E-01
          2   -1    0    0  501    0  0.00000000000E+00  0.00000000000E+00  0.19153412604E+04  0.19153412604E+04  0.00000000000E+00 0. -1.
         -1   -1    0    0    0  501 -0.00000000000E+00 -0.00000000000E+00 -0.41454049326E+03  0.41454049326E+03  0.00000000000E+00 0.  1.
         24    2    1    2    0    0 -0.55857560333E+03 -0.13572790477E+03  0.84672165404E+03  0.10265953275E+04  0.80818552131E+02 0.  0.
        254    2    1    2    0    0  0.55857560333E+03  0.13572790477E+03  0.65407911310E+03  0.13032864261E+04  0.96969441243E+03 0.  0.
         23    2    4    4    0    0  0.77106431389E+03 -0.26475588205E+02  0.65807424316E+03  0.10181967238E+04  0.91769962343E+02 0.  0.
         23    2    4    4    0    0 -0.21248871056E+03  0.16220349297E+03 -0.39951300578E+01  0.28508970227E+03  0.98988645946E+02 0.  0.
          2    1    3    3  502    0 -0.32485911759E+03 -0.89275029631E+02  0.42648040487E+03  0.54349702201E+03  0.00000000000E+00 0. -1.
         -1    1    3    3    0  502 -0.23371648574E+03 -0.46452875139E+02  0.42024124916E+03  0.48309830554E+03  0.00000000000E+00 0.  1.
         11    1    5    5    0    0  0.47638384908E+03  0.28270263682E+02  0.40135882617E+03  0.62356209540E+03  0.00000000000E+00 0. -1.
        -11    1    5    5    0    0  0.29468046481E+03 -0.54745851887E+02  0.25671541699E+03  0.39463462843E+03  0.00000000000E+00 0.  1.
          1    1    6    6  503    0 -0.17810824510E+03  0.13094086704E+03  0.35760731372E+02  0.22393500741E+03  0.00000000000E+00 0. -1.
         -1    1    6    6    0  503 -0.34380465462E+02  0.31262625933E+02 -0.39755861430E+02  0.61154694862E+02  0.00000000000E+00 0.  1.
<mgrwt>
<rscale>  0 0.17821184E+04</rscale>
<asrwt>0</asrwt>
<pdfrwt beam="1">  1        2 0.29466788E+00 0.17821184E+04</pdfrwt>
<pdfrwt beam="2">  1       -1 0.63775461E-01 0.17821184E+04</pdfrwt>
<totfact> 0.19990378E+01</totfact>
</mgrwt>
</event>
<event>
12    6  0.1457317E-007  0.2327240E+04  0.7818608E-02  0.8467258E-01
         -1   -1    0    0    0  501 -0.00000000000E+00  0.00000000000E+00  0.14592741255E+04  0.14592741255E+04  0.00000000000E+00 0.  1.
          2   -1    0    0  501    0  0.00000000000E+00 -0.00000000000E+00 -0.92786629589E+03  0.92786629589E+03  0.00000000000E+00 0. -1.
         24    2    1    2    0    0  0.68623859262E+03  0.57754580041E+03 -0.19385523430E+03  0.92188584853E+03  0.88380474581E+02 0.  0.
        254    2    1    2    0    0 -0.68623859262E+03 -0.57754580041E+03  0.72526306392E+03  0.14652545729E+04  0.90359387663E+03 0.  0.
         23    2    4    4    0    0 -0.86524258612E+03 -0.40353144894E+03  0.72223974839E+03  0.12005266352E+04  0.90286126228E+02 0.  0.
         23    2    4    4    0    0  0.17900399350E+03 -0.17401435147E+03  0.30233155337E+01  0.26472793766E+03  0.88024521209E+02 0.  0.
          2    1    3    3  502    0  0.53445666571E+03  0.48783976571E+03 -0.17566575578E+03  0.74464086799E+03  0.00000000000E+00 0. -1.
         -1    1    3    3    0  502  0.15178192691E+03  0.89706034705E+02 -0.18189478514E+02  0.17724498054E+03  0.00000000000E+00 0.  1.
         11    1    5    5    0    0 -0.79917370260E+03 -0.34474694308E+03  0.64879584486E+03  0.10855713288E+04  0.00000000000E+00 0. -1.
        -11    1    5    5    0    0 -0.66068883526E+02 -0.58784505856E+02  0.73443903532E+02  0.11495530638E+03  0.00000000000E+00 0.  1.
          3    1    6    6  503    0  0.71741961735E+02 -0.10385615286E+03 -0.35088875739E+02  0.13101236110E+03  0.00000000000E+00 0. -1.
         -3    1    6    6    0  503  0.10726203177E+03 -0.70158198607E+02  0.38112191272E+02  0.13371557656E+03  0.00000000000E+00 0.  1.
<mgrwt>
<rscale>  0 0.23272398E+04</rscale>
<asrwt>0</asrwt>
<pdfrwt beam="1">  1        2 0.14274866E+00 0.23272398E+04</pdfrwt>
<pdfrwt beam="2">  1       -1 0.22450371E+00 0.23272398E+04</pdfrwt>
<totfact> 0.29747181E+00</totfact>
</mgrwt>
</event>
<event>
12    6  0.1457317E-007  0.1287441E+04  0.7818608E-02  0.9039584E-01
          2   -1    0    0  501    0  0.00000000000E+00  0.00000000000E+00  0.17705565939E+04  0.17705565939E+04  0.00000000000E+00 0. -1.
         -1   -1    0    0    0  501 -0.00000000000E+00 -0.00000000000E+00 -0.23403726343E+03  0.23403726343E+03  0.00000000000E+00 0.  1.
         24    2    1    2    0    0  0.37626501971E+02  0.30611235802E+03  0.57048861657E+03  0.65381409433E+03  0.83036611999E+02 0.  0.
        254    2    1    2    0    0 -0.37626501971E+02 -0.30611235802E+03  0.96603071392E+03  0.13507797630E+04  0.89233967667E+03 0.  0.
         23    2    4    4    0    0 -0.40751200235E+03 -0.36601079486E+03  0.50916955035E+03  0.75318468678E+03  0.89462882705E+02 0.  0.
         23    2    4    4    0    0  0.36988550038E+03  0.59898436846E+02  0.45686116357E+03  0.59759507623E+03  0.89412785612E+02 0.  0.
          4    1    3    3  502    0 -0.23423374595E+02  0.40168196712E+02  0.79528803105E+02  0.92124747098E+02  0.00000000000E+00 0. -1.
         -3    1    3    3    0  502  0.61049876566E+02  0.26594416130E+03  0.49095981346E+03  0.56168934723E+03  0.00000000000E+00 0.  1.
         11    1    5    5    0    0 -0.21671049174E+03 -0.21063343763E+03  0.33821920098E+03  0.45356599320E+03  0.00000000000E+00 0.  1.
        -11    1    5    5    0    0 -0.19080151061E+03 -0.15537735723E+03  0.17095034937E+03  0.29961869358E+03  0.00000000000E+00 0. -1.
          1    1    6    6  503    0  0.35324560496E+03  0.51679524044E+02  0.45584816581E+03  0.57900844631E+03  0.00000000000E+00 0. -1.
         -1    1    6    6    0  503  0.16639895425E+02  0.82189128013E+01  0.10129977584E+01  0.18586629922E+02  0.00000000000E+00 0.  1.
<mgrwt>
<rscale>  0 0.12874412E+04</rscale>
<asrwt>0</asrwt>
<pdfrwt beam="1">  1        2 0.27239331E+00 0.12874412E+04</pdfrwt>
<pdfrwt beam="2">  1       -1 0.36005734E-01 0.12874412E+04</pdfrwt>
<totfact> 0.73846520E+01</totfact>
</mgrwt>
</event>
<event>
12    6  0.1457317E-007  0.1296242E+04  0.7818608E-02  0.9032551E-01
          2   -1    0    0  501    0  0.00000000000E+00  0.00000000000E+00  0.10588328054E+03  0.10588328054E+03  0.00000000000E+00 0. -1.
         -1   -1    0    0    0  501 -0.00000000000E+00 -0.00000000000E+00 -0.39672044917E+04  0.39672044917E+04  0.00000000000E+00 0.  1.
         24    2    1    2    0    0  0.10181965625E+03 -0.29480817520E+03 -0.11389403451E+04  0.11835963610E+04  0.80225517324E+02 0.  0.
        254    2    1    2    0    0 -0.10181965625E+03  0.29480817520E+03 -0.27223808661E+04  0.28894914112E+04  0.91680092327E+03 0.  0.
         23    2    4    4    0    0 -0.86157315756E+02 -0.30613910069E+03 -0.64640608482E+03  0.72641458404E+03  0.93236738391E+02 0.  0.
         23    2    4    4    0    0 -0.15662340495E+02  0.60094727588E+03 -0.20759747812E+04  0.21630768272E+04  0.88584030796E+02 0.  0.
          2    1    3    3  502    0  0.91319725887E+02 -0.19589432040E+03 -0.88143755262E+03  0.90754946767E+03  0.00000000000E+00 0. -1.
         -1    1    3    3    0  502  0.10499930364E+02 -0.98913854791E+02 -0.25750279244E+03  0.27604689334E+03  0.00000000000E+00 0.  1.
         11    1    5    5    0    0 -0.39905958490E+02 -0.27039352547E+02 -0.83491519135E+02  0.96407706520E+02  0.00000000000E+00 0. -1.
        -11    1    5    5    0    0 -0.46251357266E+02 -0.27909974814E+03 -0.56291456569E+03  0.63000687752E+03  0.00000000000E+00 0.  1.
          4    1    6    6  503    0  0.30662956757E+02  0.26224280485E+03 -0.98690799823E+03  0.10216158293E+04  0.00000000000E+00 0. -1.
         -4    1    6    6    0  503 -0.46325297252E+02  0.33870447104E+03 -0.10890667830E+04  0.11414609979E+04  0.00000000000E+00 0.  1.
<mgrwt>
<rscale>  0 0.12962417E+04</rscale>
<asrwt>0</asrwt>
<pdfrwt beam="1">  1        2 0.16289735E-01 0.12962417E+04</pdfrwt>
<pdfrwt beam="2">  1       -1 0.61033918E+00 0.12962417E+04</pdfrwt>
<totfact> 0.16128715E-01</totfact>
</mgrwt>
</event>
<event>
12    6  0.1457317E-007  0.1899492E+04  0.7818608E-02  0.8655109E-01
         -1   -1    0    0    0  501 -0.00000000000E+00  0.00000000000E+00  0.16243288648E+04  0.16243288648E+04  0.00000000000E+00 0.  1.
          2   -1    0    0  501    0  0.00000000000E+00 -0.00000000000E+00 -0.55531682816E+03  0.55531682816E+03  0.00000000000E+00 0. -1.
         24    2    1    2    0    0  0.14278198638E+03  0.55786002504E+03  0.94483846292E+03  0.11093375784E+04  0.79470992724E+02 0.  0.
        254    2    1    2    0    0 -0.14278198638E+03 -0.55786002504E+03  0.12417357376E+03  0.10703081146E+04  0.89361394380E+03 0.  0.
         23    2    4    4    0    0  0.14933465588E+03 -0.67868121241E+03  0.21179117208E+03  0.73220625882E+03  0.91441114116E+02 0.  0.
         23    2    4    4    0    0 -0.29211664227E+03  0.12082118737E+03 -0.87617598315E+02  0.33810185578E+03  0.81890960044E+02 0.  0.
          2    1    3    3  502    0  0.14212234129E+02  0.18111343173E+03  0.25944903893E+03  0.31672995841E+03  0.00000000000E+00 0. -1.
         -1    1    3    3    0  502  0.12856975226E+03  0.37674659331E+03  0.68538942399E+03  0.79260762001E+03  0.00000000000E+00 0.  1.
         11    1    5    5    0    0  0.14389618795E+03 -0.49579131237E+03  0.13380811845E+03  0.53331018263E+03  0.00000000000E+00 0.  1.
        -11    1    5    5    0    0  0.54384679298E+01 -0.18288990004E+03  0.77983053628E+02  0.19889607619E+03  0.00000000000E+00 0. -1.
          3    1    6    6  503    0 -0.10061224825E+02 -0.56203220181E+01 -0.17816162153E+02  0.21218668630E+02  0.00000000000E+00 0. -1.
         -3    1    6    6    0  503 -0.28205541744E+03  0.12644150939E+03 -0.69801436162E+02  0.31688318715E+03  0.00000000000E+00 0.  1.
<mgrwt>
<rscale>  0 0.18994917E+04</rscale>
<asrwt>0</asrwt>
<pdfrwt beam="1">  1        2 0.85433359E-01 0.18994917E+04</pdfrwt>
<pdfrwt beam="2">  1       -1 0.24989675E+00 0.18994917E+04</pdfrwt>
<totfact> 0.40662009E+00</totfact>
</mgrwt>
</event>
<event>
12    6  0.1457317E-007  0.2369587E+04  0.7818608E-02  0.8450978E-01
          2   -1    0    0  501    0  0.00000000000E+00  0.00000000000E+00  0.29404011823E+04  0.29404011823E+04  0.00000000000E+00 0. -1.
         -1   -1    0    0    0  501 -0.00000000000E+00 -0.00000000000E+00 -0.47739579587E+03  0.47739579587E+03  0.00000000000E+00 0.  1.
         24    2    1    2    0    0 -0.76491569361E+03 -0.66406801204E+03  0.11554748701E+04  0.15386823750E+04  0.79617414404E+02 0.  0.
        254    2    1    2    0    0  0.76491569361E+03  0.66406801204E+03  0.13075305163E+04  0.18791146032E+04  0.89182582261E+03 0.  0.
         23    2    4    4    0    0  0.37539350769E+03  0.82603710462E+03  0.80037948384E+03  0.12130926122E+04  0.87913501544E+02 0.  0.
         23    2    4    4    0    0  0.38952218591E+03 -0.16196909257E+03  0.50715103245E+03  0.66602199099E+03  0.91769289513E+02 0.  0.
          4    1    3    3  502    0 -0.50422175130E+03 -0.40411804006E+03  0.77894180048E+03  0.10120777111E+04  0.00000000000E+00 0. -1.
         -1    1    3    3    0  502 -0.26069394231E+03 -0.25994997198E+03  0.37653306966E+03  0.52660466390E+03  0.00000000000E+00 0.  1.
         11    1    5    5    0    0  0.14389862236E+02  0.47491659512E+02  0.21192286510E+02  0.53959604019E+02  0.00000000000E+00 0. -1.
        -11    1    5    5    0    0  0.36100364546E+03  0.77854544510E+03  0.77918719733E+03  0.11591330082E+04  0.00000000000E+00 0.  1.
          4    1    6    6  503    0  0.23184855087E+03 -0.98666261360E+02  0.37009853394E+03  0.44772950148E+03  0.00000000000E+00 0. -1.
         -4    1    6    6    0  503  0.15767363505E+03 -0.63302831211E+02  0.13705249851E+03  0.21829248951E+03  0.00000000000E+00 0.  1.
<mgrwt>
<rscale>  0 0.23695866E+04</rscale>
<asrwt>0</asrwt>
<pdfrwt beam="1">  1        2 0.45236940E+00 0.23695866E+04</pdfrwt>
<pdfrwt beam="2">  1       -1 0.73445509E-01 0.23695866E+04</pdfrwt>
<totfact> 0.36347340E+00</totfact>
</mgrwt>
</event>
<event>
12    6  0.1457317E-007  0.1852506E+04  0.7818608E-02  0.8678865E-01
         -1   -1    0    0    0  501 -0.00000000000E+00  0.00000000000E+00  0.61370660614E+03  0.61370660614E+03  0.00000000000E+00 0.  1.
          2   -1    0    0  501    0  0.00000000000E+00 -0.00000000000E+00 -0.13979714864E+04  0.13979714864E+04  0.00000000000E+00 0. -1.
         24    2    1    2    0    0 -0.62644524971E+03  0.25462930635E+03 -0.51446767875E+03  0.85330838153E+03  0.78666809846E+02 0.  0.
        254    2    1    2    0    0  0.62644524971E+03 -0.25462930635E+03 -0.26979720154E+03  0.11583697111E+04  0.90097731547E+03 0.  0.
         23    2    4    4    0    0  0.69041822833E+03 -0.28767525893E+03 -0.49737494452E+03  0.90303582385E+03  0.93045575465E+02 0.  0.
         23    2    4    4    0    0 -0.63972978617E+02  0.33045952582E+02  0.22757774298E+03  0.25533388721E+03  0.90659736817E+02 0.  0.
          4    1    3    3  502    0 -0.53950288706E+03  0.24742741961E+03 -0.44775070450E+03  0.74348126170E+03  0.00000000000E+00 0. -1.
         -3    1    3    3    0  502 -0.86942362654E+02  0.72018867304E+01 -0.66716974253E+02  0.10982711983E+03  0.00000000000E+00 0.  1.
         11    1    5    5    0    0  0.62931810451E+03 -0.27453651126E+03 -0.42533169589E+03  0.80766244447E+03  0.00000000000E+00 0. -1.
        -11    1    5    5    0    0  0.61100123815E+02 -0.13138747667E+02 -0.72043248636E+02  0.95373379380E+02  0.00000000000E+00 0.  1.
          3    1    6    6  503    0 -0.45750824014E+02  0.64428195592E+02  0.16625077032E+03  0.18407457434E+03  0.00000000000E+00 0. -1.
         -3    1    6    6    0  503 -0.18222154603E+02 -0.31382243010E+02  0.61326972661E+02  0.71259312868E+02  0.00000000000E+00 0.  1.
<mgrwt>
<rscale>  0 0.18525057E+04</rscale>
<asrwt>0</asrwt>
<pdfrwt beam="1">  1        2 0.21507253E+00 0.18525057E+04</pdfrwt>
<pdfrwt beam="2">  1       -1 0.94416403E-01 0.18525057E+04</pdfrwt>
<totfact> 0.16878820E+01</totfact>
</mgrwt>
</event>
<event>
12    6  0.1457317E-007  0.1104672E+04  0.7818608E-02  0.9200650E-01
          4   -1    0    0  501    0  0.00000000000E+00  0.00000000000E+00  0.35846913154E+03  0.35846913154E+03  0.00000000000E+00 0. -1.
         -3   -1    0    0    0  501 -0.00000000000E+00 -0.00000000000E+00 -0.85105026810E+03  0.85105026810E+03  0.00000000000E+00 0.  1.
         24    2    1    2    0    0  0.40440014095E+01  0.10282435060E+03  0.55093456664E+02  0.14200444623E+03  0.80875044093E+02 0.  0.
        254    2    1    2    0    0 -0.40440014095E+01 -0.10282435060E+03 -0.54767459322E+03  0.10675149534E+04  0.91052266017E+03 0.  0.
         23    2    4    4    0    0 -0.30332541199E+03 -0.28716127513E+03 -0.20689578639E+02  0.42723981754E+03  0.87395077298E+02 0.  0.
         23    2    4    4    0    0  0.29928141058E+03  0.18433692453E+03 -0.52698501458E+03  0.64027513587E+03  0.93217914363E+02 0.  0.
          4    1    3    3  502    0 -0.34370718540E+02  0.75979793610E+02  0.41849495005E+02  0.93304102601E+02  0.00000000000E+00 0. -1.
         -3    1    3    3    0  502  0.38414719950E+02  0.26844556992E+02  0.13243961659E+02  0.48700343626E+02  0.00000000000E+00 0.  1.
         11    1    5    5    0    0 -0.30458818743E+03 -0.26392673509E+03 -0.23975346938E+02  0.40374014252E+03  0.00000000000E+00 0.  1.
        -11    1    5    5    0    0  0.12627754468E+01 -0.23234540048E+02  0.32857682995E+01  0.23499675028E+02  0.00000000000E+00 0. -1.
          3    1    6    6  503    0  0.14976512176E+02 -0.51189814212E+01 -0.53323577748E+01  0.16701315134E+02  0.00000000000E+00 0. -1.
         -3    1    6    6    0  503  0.28430489840E+03  0.18945590595E+03 -0.52165265680E+03  0.62357382074E+03  0.00000000000E+00 0.  1.
<mgrwt>
<rscale>  0 0.11046724E+04</rscale>
<asrwt>0</asrwt>
<pdfrwt beam="1">  1        4 0.55149098E-01 0.11046724E+04</pdfrwt>
<pdfrwt beam="2">  1       -3 0.13093081E+00 0.11046724E+04</pdfrwt>
<totfact> 0.32462292E+00</totfact>
</mgrwt>
</event>
<event>
12    6  0.1457317E-007  0.1980504E+04  0.7818608E-02  0.8615790E-01
         -1   -1    0    0    0  501 -0.00000000000E+00  0.00000000000E+00  0.53793178265E+03  0.53793178265E+03  0.00000000000E+00 0.  1.
          2   -1    0    0  501    0  0.00000000000E+00 -0.00000000000E+00 -0.18229057306E+04  0.18229057306E+04  0.00000000000E+00 0. -1.
         24    2    1    2    0    0 -0.55880824028E+03 -0.10897316080E+03 -0.11581182559E+04  0.12930015824E+04  0.80457430687E+02 0.  0.
        254    2    1    2    0    0  0.55880824028E+03  0.10897316080E+03 -0.12685569202E+03  0.10678359309E+04  0.89444922129E+03 0.  0.
         23    2    4    4    0    0  0.39812589955E+03 -0.26596104471E+03  0.21010073683E+03  0.53085803032E+03  0.91806424301E+02 0.  0.
         23    2    4    4    0    0  0.16068234073E+03  0.37493420551E+03 -0.33695642886E+03  0.53697790054E+03  0.91712363619E+02 0.  0.
          4    1    3    3  502    0 -0.23847845093E+03 -0.23660070545E+02 -0.56087660975E+03  0.60992978437E+03  0.00000000000E+00 0. -1.
         -3    1    3    3    0  502 -0.32032978934E+03 -0.85313090257E+02 -0.59724164619E+03  0.68307179802E+03  0.00000000000E+00 0.  1.
         11    1    5    5    0    0  0.20249689764E+03 -0.15289193398E+03  0.15822517973E+03  0.29902532423E+03  0.00000000000E+00 0. -1.
        -11    1    5    5    0    0  0.19562900191E+03 -0.11306911073E+03  0.51875557105E+02  0.23183270609E+03  0.00000000000E+00 0.  1.
          1    1    6    6  503    0  0.14487727742E+03  0.22907701890E+03 -0.22889147975E+03  0.35476332337E+03  0.00000000000E+00 0. -1.
         -1    1    6    6    0  503  0.15805063307E+02  0.14585718661E+03 -0.10806494910E+03  0.18221457718E+03  0.00000000000E+00 0.  1.
<mgrwt>
<rscale>  0 0.19805039E+04</rscale>
<asrwt>0</asrwt>
<pdfrwt beam="1">  1        2 0.28044704E+00 0.19805039E+04</pdfrwt>
<pdfrwt beam="2">  1       -1 0.82758734E-01 0.19805039E+04</pdfrwt>
<totfact> 0.12879887E+01</totfact>
</mgrwt>
</event>
<event>
12    6  0.1457317E-007  0.1894665E+04  0.7818608E-02  0.8657517E-01
          2   -1    0    0  501    0  0.00000000000E+00  0.00000000000E+00  0.42870317667E+03  0.42870317667E+03  0.00000000000E+00 0. -1.
         -1   -1    0    0    0  501 -0.00000000000E+00 -0.00000000000E+00 -0.20933797334E+04  0.20933797334E+04  0.00000000000E+00 0.  1.
         24    2    1    2    0    0  0.50188510931E+03 -0.52740586266E+03 -0.58214237485E+03  0.93592033230E+03  0.83734801027E+02 0.  0.
        254    2    1    2    0    0 -0.50188510931E+03  0.52740586266E+03 -0.10825341819E+04  0.15861625778E+04  0.90221164992E+03 0.  0.
         23    2    4    4    0    0 -0.39656543979E+03 -0.32349798616E+01 -0.93251794747E+03  0.10174565769E+04  0.91397758962E+02 0.  0.
         23    2    4    4    0    0 -0.10531966952E+03  0.53064084252E+03 -0.15001623442E+03  0.56870600089E+03  0.90827904999E+02 0.  0.
          2    1    3    3  502    0  0.38402004030E+03 -0.36777009614E+03 -0.38729463456E+03  0.65781712423E+03  0.00000000000E+00 0. -1.
         -1    1    3    3    0  502  0.11786506902E+03 -0.15963576651E+03 -0.19484774030E+03  0.27810320808E+03  0.00000000000E+00 0.  1.
         11    1    5    5    0    0 -0.11541110204E+03  0.31125152412E+02 -0.34732280281E+03  0.36731679370E+03  0.00000000000E+00 0.  1.
        -11    1    5    5    0    0 -0.28115433776E+03 -0.34360132274E+02 -0.58519514467E+03  0.65013978318E+03  0.00000000000E+00 0. -1.
          4    1    6    6  503    0 -0.43102965508E+02  0.40870620309E+03 -0.99996634798E+02  0.42296329989E+03  0.00000000000E+00 0. -1.
         -4    1    6    6    0  503 -0.62216704011E+02  0.12193463943E+03 -0.50019599618E+02  0.14574270100E+03  0.00000000000E+00 0.  1.
<mgrwt>
<rscale>  0 0.18946647E+04</rscale>
<asrwt>0</asrwt>
<pdfrwt beam="1">  1        2 0.65954337E-01 0.18946647E+04</pdfrwt>
<pdfrwt beam="2">  1       -1 0.32205841E+00 0.18946647E+04</pdfrwt>
<totfact> 0.18706151E+00</totfact>
</mgrwt>
</event>
<event>
12    6  0.1457317E-007  0.1635029E+04  0.7818608E-02  0.8799313E-01
         -1   -1    0    0    0  501 -0.00000000000E+00  0.00000000000E+00  0.24731156496E+03  0.24731156496E+03  0.00000000000E+00 0.  1.
          2   -1    0    0  501    0  0.00000000000E+00 -0.00000000000E+00 -0.27023799975E+04  0.27023799975E+04  0.00000000000E+00 0. -1.
         24    2    1    2    0    0 -0.44781519050E+03  0.23319696755E+03 -0.13073369523E+04  0.14036837560E+04  0.79239570483E+02 0.  0.
        254    2    1    2    0    0  0.44781519050E+03 -0.23319696755E+03 -0.11477314802E+04  0.15460078064E+04  0.90439665872E+03 0.  0.
         23    2    4    4    0    0  0.35037299648E+03 -0.49354757030E+02 -0.12467472950E+04  0.12990593010E+04  0.89325927126E+02 0.  0.
         23    2    4    4    0    0  0.97442194015E+02 -0.18384221052E+03  0.99015814755E+02  0.24694850543E+03  0.88805930088E+02 0.  0.
          2    1    3    3  502    0 -0.23696267607E+03  0.13558191836E+03 -0.80941810724E+03  0.85421978364E+03  0.00000000000E+00 0. -1.
         -1    1    3    3    0  502 -0.21085251442E+03  0.97615049188E+02 -0.49791884507E+03  0.54946397238E+03  0.00000000000E+00 0.  1.
         11    1    5    5    0    0  0.12904500115E+03  0.21536290621E+02 -0.39053642412E+03  0.41186784616E+03  0.00000000000E+00 0. -1.
        -11    1    5    5    0    0  0.22132799533E+03 -0.70891047651E+02 -0.85621087086E+03  0.88719145484E+03  0.00000000000E+00 0.  1.
          4    1    6    6  503    0 -0.10166325884E+02 -0.51559267186E+02  0.65224180226E+01  0.52955208918E+02  0.00000000000E+00 0. -1.
         -4    1    6    6    0  503  0.10760851990E+03 -0.13228294333E+03  0.92493396732E+02  0.19399329651E+03  0.00000000000E+00 0.  1.
<mgrwt>
<rscale>  0 0.16350288E+04</rscale>
<asrwt>0</asrwt>
<pdfrwt beam="1">  1        2 0.41575075E+00 0.16350288E+04</pdfrwt>
<pdfrwt beam="2">  1       -1 0.38047934E-01 0.16350288E+04</pdfrwt>
<totfact> 0.19297221E+01</totfact>
</mgrwt>
</event>
<event>
12    6  0.1457317E-007  0.2888759E+04  0.7818608E-02  0.8276230E-01
         -1   -1    0    0    0  501 -0.00000000000E+00  0.00000000000E+00  0.10966836767E+04  0.10966836767E+04  0.00000000000E+00 0.  1.
          2   -1    0    0  501    0  0.00000000000E+00 -0.00000000000E+00 -0.19023092779E+04  0.19023092779E+04  0.00000000000E+00 0. -1.
         24    2    1    2    0    0  0.18854043145E+03 -0.79286892416E+03  0.69093132741E+03  0.10714050050E+04  0.79586181397E+02 0.  0.
        254    2    1    2    0    0 -0.18854043145E+03  0.79286892416E+03 -0.14965569286E+04  0.19275879496E+04  0.90095728965E+03 0.  0.
         23    2    4    4    0    0 -0.10340494448E+03  0.23647221426E+03  0.51672010875E+02  0.27767520882E+03  0.88441134249E+02 0.  0.
         23    2    4    4    0    0 -0.85135486967E+02  0.55639670990E+03 -0.15482289395E+04  0.16499127408E+04  0.91508760609E+02 0.  0.
          2    1    3    3  502    0  0.54062870781E+02 -0.12679587463E+03  0.14167534513E+03  0.19766611049E+03  0.00000000000E+00 0. -1.
         -1    1    3    3    0  502  0.13447756067E+03 -0.66607304953E+03  0.54925598228E+03  0.87373889447E+03  0.00000000000E+00 0.  1.
         11    1    5    5    0    0 -0.87419039866E+00  0.19508427310E+02 -0.19273209466E+02  0.27437192788E+02  0.00000000000E+00 0.  1.
        -11    1    5    5    0    0 -0.10253075408E+03  0.21696378695E+03  0.70945220341E+02  0.25023801603E+03  0.00000000000E+00 0. -1.
          2    1    6    6  503    0 -0.91442990573E+02  0.51410222567E+03 -0.13578872605E+04  0.14548267014E+04  0.00000000000E+00 0. -1.
         -2    1    6    6    0  503  0.63075036065E+01  0.42294484228E+02 -0.19034167902E+03  0.19508603940E+03  0.00000000000E+00 0.  1.
<mgrwt>
<rscale>  0 0.28887586E+04</rscale>
<asrwt>0</asrwt>
<pdfrwt beam="1">  1        2 0.29266296E+00 0.28887586E+04</pdfrwt>
<pdfrwt beam="2">  1       -1 0.16872057E+00 0.28887586E+04</pdfrwt>
<totfact> 0.18713425E+00</totfact>
</mgrwt>
</event>
<event>
12    6  0.1457317E-007  0.2078802E+04  0.7818608E-02  0.8570639E-01
         -1   -1    0    0    0  501 -0.00000000000E+00  0.00000000000E+00  0.78554211015E+03  0.78554211015E+03  0.00000000000E+00 0.  1.
          2   -1    0    0  501    0  0.00000000000E+00 -0.00000000000E+00 -0.13752979579E+04  0.13752979579E+04  0.00000000000E+00 0. -1.
         24    2    1    2    0    0 -0.13144981628E+03 -0.47091763304E+03  0.46161680526E+03  0.67726080161E+03  0.80929890531E+02 0.  0.
        254    2    1    2    0    0  0.13144981628E+03  0.47091763304E+03 -0.10513726530E+04  0.14835792665E+04  0.92551634942E+03 0.  0.
         23    2    4    4    0    0  0.36452576811E+03  0.47458790601E+03 -0.26881196022E+03  0.66199947791E+03  0.88717093323E+02 0.  0.
         23    2    4    4    0    0 -0.23307595183E+03 -0.36702729639E+01 -0.78256069279E+03  0.82157978855E+03  0.90852852573E+02 0.  0.
          2    1    3    3  502    0 -0.10633759812E+02 -0.64677745605E+02  0.10292860117E+03  0.12202698293E+03  0.00000000000E+00 0. -1.
         -1    1    3    3    0  502 -0.12081605647E+03 -0.40623988744E+03  0.35868820409E+03  0.55523381867E+03  0.00000000000E+00 0.  1.
         11    1    5    5    0    0  0.12002644927E+03  0.21295412656E+03 -0.13831129218E+03  0.28086619962E+03  0.00000000000E+00 0. -1.
        -11    1    5    5    0    0  0.24449931884E+03  0.26163377944E+03 -0.13050066804E+03  0.38113327829E+03  0.00000000000E+00 0.  1.
          3    1    6    6  503    0 -0.20611479938E+03 -0.13188665331E+02 -0.55417260607E+03  0.59140893529E+03  0.00000000000E+00 0. -1.
         -3    1    6    6    0  503 -0.26961152448E+02  0.95183923669E+01 -0.22838808672E+03  0.23017085326E+03  0.00000000000E+00 0.  1.
<mgrwt>
<rscale>  0 0.20788020E+04</rscale>
<asrwt>0</asrwt>
<pdfrwt beam="1">  1        2 0.21158430E+00 0.20788020E+04</pdfrwt>
<pdfrwt beam="2">  1       -1 0.12085263E+00 0.20788020E+04</pdfrwt>
<totfact> 0.95702387E+00</totfact>
</mgrwt>
</event>
<event>
12    6  0.1457317E-007  0.1164819E+04  0.7818608E-02  0.9144220E-01
          2   -1    0    0  501    0  0.00000000000E+00  0.00000000000E+00  0.14565737397E+04  0.14565737397E+04  0.00000000000E+00 0. -1.
         -1   -1    0    0    0  501 -0.00000000000E+00 -0.00000000000E+00 -0.23287575033E+03  0.23287575033E+03  0.00000000000E+00 0.  1.
         24    2    1    2    0    0 -0.12571953902E+03 -0.99268804086E+02  0.46247809830E+03  0.49589124673E+03  0.79764899657E+02 0.  0.
        254    2    1    2    0    0  0.12571953902E+03  0.99268804086E+02  0.76121989107E+03  0.11935582433E+04  0.90524353610E+03 0.  0.
         23    2    4    4    0    0 -0.25521819209E+03  0.16327990468E+03  0.73033426083E+03  0.79574600924E+03  0.89593112668E+02 0.  0.
         23    2    4    4    0    0  0.38093773111E+03 -0.64011100596E+02  0.30885630242E+02  0.39781223406E+03  0.89942623027E+02 0.  0.
          2    1    3    3  502    0 -0.57786358499E+02 -0.38417680022E+02  0.31451157243E+03  0.32207562864E+03  0.00000000000E+00 0. -1.
         -1    1    3    3    0  502 -0.67933180517E+02 -0.60851124064E+02  0.14796652587E+03  0.17381561809E+03  0.00000000000E+00 0.  1.
         11    1    5    5    0    0 -0.17165818418E+03  0.15557615972E+03  0.51883153035E+03  0.56820474352E+03  0.00000000000E+00 0. -1.
        -11    1    5    5    0    0 -0.83560007906E+02  0.77037449639E+01  0.21150273048E+03  0.22754126572E+03  0.00000000000E+00 0.  1.
          3    1    6    6  503    0  0.37711548688E+03 -0.74572666377E+02  0.25251520383E+02  0.38524643060E+03  0.00000000000E+00 0. -1.
         -3    1    6    6    0  503  0.38222442302E+01  0.10561565781E+02  0.56341098587E+01  0.12565803460E+02  0.00000000000E+00 0.  1.
<mgrwt>
<rscale>  0 0.11648188E+04</rscale>
<asrwt>0</asrwt>
<pdfrwt beam="1">  1        2 0.22408826E+00 0.11648188E+04</pdfrwt>
<pdfrwt beam="2">  1       -1 0.35827040E-01 0.11648188E+04</pdfrwt>
<totfact> 0.11257028E+02</totfact>
</mgrwt>
</event>
<event>
12    6  0.1457317E-007  0.2070103E+04  0.7818608E-02  0.8574529E-01
          2   -1    0    0  501    0  0.00000000000E+00  0.00000000000E+00  0.21821152570E+04  0.21821152570E+04  0.00000000000E+00 0. -1.
         -1   -1    0    0    0  501 -0.00000000000E+00 -0.00000000000E+00 -0.49096036583E+03  0.49096036583E+03  0.00000000000E+00 0.  1.
         24    2    1    2    0    0  0.74746958538E+03 -0.28966213825E+03  0.37273176752E+03  0.88777686538E+03  0.81264117464E+02 0.  0.
        254    2    1    2    0    0 -0.74746958538E+03  0.28966213825E+03  0.13184231236E+04  0.17852987574E+04  0.89801847693E+03 0.  0.
         23    2    4    4    0    0 -0.28869666125E+03 -0.18411459899E+03  0.97238000999E+03  0.10348935218E+04  0.90762160450E+02 0.  0.
         23    2    4    4    0    0 -0.45877292414E+03  0.47377673723E+03  0.34604311364E+03  0.75040523567E+03  0.91788825848E+02 0.  0.
          2    1    3    3  502    0  0.11323172722E+03 -0.13984399029E+02  0.48221247751E+02  0.12386394229E+03  0.00000000000E+00 0. -1.
         -1    1    3    3    0  502  0.63423785816E+03 -0.27567773922E+03  0.32451051977E+03  0.76391292309E+03  0.00000000000E+00 0.  1.
         11    1    5    5    0    0 -0.16713792344E+03 -0.15718741986E+03  0.65002283354E+03  0.68932768299E+03  0.00000000000E+00 0. -1.
        -11    1    5    5    0    0 -0.12155873781E+03 -0.26927179130E+02  0.32235717645E+03  0.34556583876E+03  0.00000000000E+00 0.  1.
          2    1    6    6  503    0 -0.92725468034E+01 -0.37412568096E+01  0.64027590890E+01  0.11873181995E+02  0.00000000000E+00 0.  1.
         -2    1    6    6    0  503 -0.44950037733E+03  0.47751799404E+03  0.33964035456E+03  0.73853205367E+03  0.00000000000E+00 0. -1.
<mgrwt>
<rscale>  0 0.20701035E+04</rscale>
<asrwt>0</asrwt>
<pdfrwt beam="1">  1        2 0.33571003E+00 0.20701035E+04</pdfrwt>
<pdfrwt beam="2">  1       -1 0.75532365E-01 0.20701035E+04</pdfrwt>
<totfact> 0.97897065E+00</totfact>
</mgrwt>
</event>
<event>
12    6  0.1457317E-007  0.1259071E+04  0.7818608E-02  0.9062667E-01
          2   -1    0    0  501    0  0.00000000000E+00  0.00000000000E+00  0.13216034203E+04  0.13216034203E+04  0.00000000000E+00 0. -1.
         -3   -1    0    0    0  501 -0.00000000000E+00 -0.00000000000E+00 -0.29987424533E+03  0.29987424533E+03  0.00000000000E+00 0.  1.
         24    2    1    2    0    0  0.23866748048E+03 -0.47082734483E+02  0.14702681499E+02  0.25643134239E+03  0.79761609743E+02 0.  0.
        254    2    1    2    0    0 -0.23866748048E+03  0.47082734483E+02  0.10070264934E+04  0.13650463232E+04  0.88885890662E+03 0.  0.
         23    2    4    4    0    0 -0.57587695063E+02 -0.38136648188E+03  0.24086485022E+03  0.46392263436E+03  0.91932575713E+02 0.  0.
         23    2    4    4    0    0 -0.18107978542E+03  0.42844921636E+03  0.76616164321E+03  0.90112368883E+03  0.93067821336E+02 0.  0.
          4    1    3    3  502    0  0.68859048082E+01  0.13996794740E+02 -0.36994147101E+01  0.16031581869E+02  0.00000000000E+00 0. -1.
         -3    1    3    3    0  502  0.23178157568E+03 -0.61079529223E+02  0.18402096209E+02  0.24039976052E+03  0.00000000000E+00 0.  1.
         11    1    5    5    0    0 -0.64836343073E+02 -0.26286902598E+03  0.20595187533E+03  0.34017650000E+03  0.00000000000E+00 0.  1.
        -11    1    5    5    0    0  0.72486480097E+01 -0.11849745590E+03  0.34912974889E+02  0.12374613436E+03  0.00000000000E+00 0. -1.
          4    1    6    6  503    0 -0.51977754059E+02  0.20216466285E+03  0.40721439979E+03  0.45759786409E+03  0.00000000000E+00 0. -1.
         -4    1    6    6    0  503 -0.12910203136E+03  0.22628455351E+03  0.35894724342E+03  0.44352582475E+03  0.00000000000E+00 0.  1.
<mgrwt>
<rscale>  0 0.12590708E+04</rscale>
<asrwt>0</asrwt>
<pdfrwt beam="1">  1        2 0.20332360E+00 0.12590708E+04</pdfrwt>
<pdfrwt beam="2">  1       -3 0.46134500E-01 0.12590708E+04</pdfrwt>
<totfact> 0.47200441E+01</totfact>
</mgrwt>
</event>
<event>
12    6  0.1457317E-007  0.1496074E+04  0.7818608E-02  0.8887068E-01
         -1   -1    0    0    0  501 -0.00000000000E+00  0.00000000000E+00  0.38132892712E+03  0.38132892712E+03  0.00000000000E+00 0.  1.
          2   -1    0    0  501    0  0.00000000000E+00 -0.00000000000E+00 -0.14673924012E+04  0.14673924012E+04  0.00000000000E+00 0. -1.
         24    2    1    2    0    0  0.15772304027E+03  0.21315811266E+02 -0.90201794834E+03  0.91944182683E+03  0.80037319856E+02 0.  0.
        254    2    1    2    0    0 -0.15772304027E+03 -0.21315811266E+02 -0.18404552576E+03  0.92927950150E+03  0.89685936195E+03 0.  0.
         23    2    4    4    0    0 -0.34963038876E+03 -0.30609232931E+03 -0.29388342614E+03  0.55745901734E+03  0.91973719332E+02 0.  0.
         23    2    4    4    0    0  0.19190734849E+03  0.28477651804E+03  0.10983790037E+03  0.37182048416E+03  0.90884610632E+02 0.  0.
          4    1    3    3  502    0  0.13472936649E+03  0.43355635382E+02 -0.80448008956E+03  0.81683531254E+03  0.00000000000E+00 0. -1.
         -3    1    3    3    0  502  0.22993673779E+02 -0.22039824115E+02 -0.97537858776E+02  0.10260651429E+03  0.00000000000E+00 0.  1.
         11    1    5    5    0    0 -0.96033463007E+02 -0.10360071803E+03 -0.13783693017E+03  0.19736908095E+03  0.00000000000E+00 0.  1.
        -11    1    5    5    0    0 -0.25359692575E+03 -0.20249161128E+03 -0.15604649596E+03  0.36008993639E+03  0.00000000000E+00 0. -1.
          2    1    6    6  503    0  0.63314739762E+02  0.70694054556E+02 -0.88560478698E+01  0.95314401874E+02  0.00000000000E+00 0. -1.
         -2    1    6    6    0  503  0.12859260873E+03  0.21408246349E+03  0.11869394824E+03  0.27650608229E+03  0.00000000000E+00 0.  1.
<mgrwt>
<rscale>  0 0.14960738E+04</rscale>
<asrwt>0</asrwt>
<pdfrwt beam="1">  1        2 0.22575268E+00 0.14960738E+04</pdfrwt>
<pdfrwt beam="2">  1       -1 0.58665989E-01 0.14960738E+04</pdfrwt>
<totfact> 0.42952709E+01</totfact>
</mgrwt>
</event>
<event>
12    6  0.1457317E-007  0.1819595E+04  0.7818608E-02  0.8695948E-01
          2   -1    0    0  501    0  0.00000000000E+00  0.00000000000E+00  0.98417724039E+03  0.98417724039E+03  0.00000000000E+00 0. -1.
         -1   -1    0    0    0  501 -0.00000000000E+00 -0.00000000000E+00 -0.84103863505E+03  0.84103863505E+03  0.00000000000E+00 0.  1.
         24    2    1    2    0    0 -0.19303393018E+03  0.39048873628E+03 -0.47454928710E+03  0.64948016861E+03  0.82969344740E+02 0.  0.
        254    2    1    2    0    0  0.19303393018E+03 -0.39048873628E+03  0.61768789244E+03  0.11757357068E+04  0.90059567424E+03 0.  0.
         23    2    4    4    0    0 -0.24010079384E+03 -0.47449213224E+03  0.42092196405E+03  0.68421783272E+03  0.90485181245E+02 0.  0.
         23    2    4    4    0    0  0.43313472402E+03  0.84003395960E+02  0.19676592839E+03  0.49151787410E+03  0.90613080200E+02 0.  0.
          4    1    3    3  502    0  0.47448803015E+01  0.13592023856E+00 -0.13015626270E+01  0.49220350119E+01  0.00000000000E+00 0. -1.
         -3    1    3    3    0  502 -0.19777881048E+03  0.39035281605E+03 -0.47324772447E+03  0.64455813360E+03  0.00000000000E+00 0.  1.
         11    1    5    5    0    0 -0.22695237102E+03 -0.36964918703E+03  0.33860148430E+03  0.55027162870E+03  0.00000000000E+00 0.  1.
        -11    1    5    5    0    0 -0.13148422819E+02 -0.10484294522E+03  0.82320479749E+02  0.13394620402E+03  0.00000000000E+00 0. -1.
          1    1    6    6  503    0  0.14956944160E+03  0.87498147897E+01  0.10903556342E+03  0.18530065086E+03  0.00000000000E+00 0. -1.
         -1    1    6    6    0  503  0.28356528242E+03  0.75253581170E+02  0.87730364972E+02  0.30621722324E+03  0.00000000000E+00 0.  1.
<mgrwt>
<rscale>  0 0.18195946E+04</rscale>
<asrwt>0</asrwt>
<pdfrwt beam="1">  1        2 0.15141188E+00 0.18195946E+04</pdfrwt>
<pdfrwt beam="2">  1       -1 0.12939056E+00 0.18195946E+04</pdfrwt>
<totfact> 0.14234251E+01</totfact>
</mgrwt>
</event>
<event>
12    6  0.1457317E-007  0.1626050E+04  0.7818608E-02  0.8804702E-01
         -1   -1    0    0    0  501 -0.00000000000E+00  0.00000000000E+00  0.24757923041E+03  0.24757923041E+03  0.00000000000E+00 0.  1.
          2   -1    0    0  501    0  0.00000000000E+00 -0.00000000000E+00 -0.26698924714E+04  0.26698924714E+04  0.00000000000E+00 0. -1.
         24    2    1    2    0    0  0.25333582142E+03  0.16845927817E+03  0.31525254936E+01  0.31480226219E+03  0.80826722365E+02 0.  0.
        254    2    1    2    0    0 -0.25333582142E+03 -0.16845927817E+03 -0.24254657665E+04  0.26026694397E+04  0.89355831413E+03 0.  0.
         23    2    4    4    0    0 -0.12933638820E+03  0.34064258793E+03 -0.67085418155E+03  0.76925250267E+03  0.94545258690E+02 0.  0.
         23    2    4    4    0    0 -0.12399943321E+03 -0.50910186610E+03 -0.17546115850E+04  0.18334169370E+04  0.90527792461E+02 0.  0.
          2    1    3    3  502    0  0.66083400823E+01  0.32320055165E+02 -0.83370283361E-01  0.32988832582E+02  0.00000000000E+00 0. -1.
         -3    1    3    3    0  502  0.24672748133E+03  0.13613922301E+03  0.32358957770E+01  0.28181342961E+03  0.00000000000E+00 0.  1.
         11    1    5    5    0    0 -0.18851141931E+02  0.52070049257E+02 -0.18803581509E+03  0.19602072170E+03  0.00000000000E+00 0.  1.
        -11    1    5    5    0    0 -0.11048524627E+03  0.28857253867E+03 -0.48281836646E+03  0.57323178097E+03  0.00000000000E+00 0. -1.
          2    1    6    6  503    0 -0.63718027872E+01 -0.20035652954E+02 -0.15932420238E+03  0.16070540975E+03  0.00000000000E+00 0. -1.
         -2    1    6    6    0  503 -0.11762763043E+03 -0.48906621315E+03 -0.15952873826E+04  0.16727115272E+04  0.00000000000E+00 0.  1.
<mgrwt>
<rscale>  0 0.16260503E+04</rscale>
<asrwt>0</asrwt>
<pdfrwt beam="1">  1        2 0.41075268E+00 0.16260503E+04</pdfrwt>
<pdfrwt beam="2">  1       -1 0.38089113E-01 0.16260503E+04</pdfrwt>
<totfact> 0.20146930E+01</totfact>
</mgrwt>
</event>
<event>
12    6  0.1457317E-007  0.1447819E+04  0.7818608E-02  0.8919914E-01
         -1   -1    0    0    0  501 -0.00000000000E+00  0.00000000000E+00  0.10291098129E+04  0.10291098129E+04  0.00000000000E+00 0.  1.
          2   -1    0    0  501    0  0.00000000000E+00 -0.00000000000E+00 -0.50922155233E+03  0.50922155233E+03  0.00000000000E+00 0. -1.
         24    2    1    2    0    0 -0.21803735988E+02 -0.33810709923E+03  0.45629308953E+03  0.57414350054E+03  0.81520317734E+02 0.  0.
        254    2    1    2    0    0  0.21803735988E+02  0.33810709923E+03  0.63595171034E+02  0.96418786468E+03  0.90045659483E+03 0.  0.
         23    2    4    4    0    0 -0.22307688514E+03  0.50062789348E+03  0.24510685763E+03  0.60720596903E+03  0.90720079084E+02 0.  0.
         23    2    4    4    0    0  0.24488062113E+03 -0.16252079425E+03 -0.18151168659E+03  0.35698189566E+03  0.90055839834E+02 0.  0.
          2    1    3    3  502    0  0.12085466109E+02 -0.99625193756E+02  0.84770835330E+02  0.13136716578E+03  0.00000000000E+00 0. -1.
         -1    1    3    3    0  502 -0.33889202097E+02 -0.23848190548E+03  0.37152225420E+03  0.44277633476E+03  0.00000000000E+00 0.  1.
         11    1    5    5    0    0 -0.11996352713E+03  0.30553633346E+03  0.19187839053E+03  0.38021180368E+03  0.00000000000E+00 0.  1.
        -11    1    5    5    0    0 -0.10311335801E+03  0.19509156002E+03  0.53228467100E+02  0.22699416535E+03  0.00000000000E+00 0. -1.
          4    1    6    6  503    0  0.51656608240E+00 -0.28643771743E+02 -0.19744082367E+02  0.34793121285E+02  0.00000000000E+00 0. -1.
         -4    1    6    6    0  503  0.24436405505E+03 -0.13387702251E+03 -0.16176760423E+03  0.32218877437E+03  0.00000000000E+00 0.  1.
<mgrwt>
<rscale>  0 0.14478189E+04</rscale>
<asrwt>0</asrwt>
<pdfrwt beam="1">  1        2 0.78341777E-01 0.14478189E+04</pdfrwt>
<pdfrwt beam="2">  1       -1 0.15832459E+00 0.14478189E+04</pdfrwt>
<totfact> 0.20116749E+01</totfact>
</mgrwt>
</event>
<event>
12    6  0.1457317E-007  0.2676255E+04  0.7818608E-02  0.8342751E-01
         -1   -1    0    0    0  501 -0.00000000000E+00  0.00000000000E+00  0.11929780082E+04  0.11929780082E+04  0.00000000000E+00 0.  1.
          2   -1    0    0  501    0  0.00000000000E+00 -0.00000000000E+00 -0.15009369553E+04  0.15009369553E+04  0.00000000000E+00 0. -1.
         24    2    1    2    0    0  0.83216555896E+03 -0.79004734782E+03 -0.44528021261E+03  0.12333230250E+04  0.78338285604E+02 0.  0.
        254    2    1    2    0    0 -0.83216555896E+03  0.79004734782E+03  0.13732126542E+03  0.14605919385E+04  0.89319502434E+03 0.  0.
         23    2    4    4    0    0  0.57154336002E+02 -0.26214886308E+02 -0.17780632746E+03  0.20959587703E+03  0.91441255416E+02 0.  0.
         23    2    4    4    0    0 -0.88931989497E+03  0.81626223412E+03  0.31512759289E+03  0.12509960615E+04  0.92259609485E+02 0.  0.
          4    1    3    3  502    0  0.21215383471E+03 -0.23346384994E+03 -0.15056446315E+03  0.34954867526E+03  0.00000000000E+00 0. -1.
         -3    1    3    3    0  502  0.62001172426E+03 -0.55658349788E+03 -0.29471574945E+03  0.88377434977E+03  0.00000000000E+00 0.  1.
         11    1    5    5    0    0  0.50925322386E+02  0.19970158783E+02 -0.13749720152E+03  0.14797863403E+03  0.00000000000E+00 0. -1.
        -11    1    5    5    0    0  0.62290136159E+01 -0.46185045091E+02 -0.40309125942E+02  0.61617243000E+02  0.00000000000E+00 0.  1.
          1    1    6    6  503    0 -0.42620434077E+02  0.18740664514E+02  0.28469050648E+01  0.46645672637E+02  0.00000000000E+00 0. -1.
         -1    1    6    6    0  503 -0.84669946089E+03  0.79752156961E+03  0.31228068782E+03  0.12043503888E+04  0.00000000000E+00 0.  1.
<mgrwt>
<rscale>  0 0.26762547E+04</rscale>
<asrwt>0</asrwt>
<pdfrwt beam="1">  1        2 0.23091338E+00 0.26762547E+04</pdfrwt>
<pdfrwt beam="2">  1       -1 0.18353508E+00 0.26762547E+04</pdfrwt>
<totfact> 0.24918695E+00</totfact>
</mgrwt>
</event>
<event>
12    6  0.1457317E-007  0.1900531E+04  0.7818608E-02  0.8654592E-01
         -1   -1    0    0    0  501 -0.00000000000E+00  0.00000000000E+00  0.63238422294E+03  0.63238422294E+03  0.00000000000E+00 0.  1.
          2   -1    0    0  501    0  0.00000000000E+00 -0.00000000000E+00 -0.14279370201E+04  0.14279370201E+04  0.00000000000E+00 0. -1.
         24    2    1    2    0    0  0.43284705816E+03  0.47591386194E+03 -0.67885610101E+03  0.93856755810E+03  0.78821795781E+02 0.  0.
        254    2    1    2    0    0 -0.43284705816E+03 -0.47591386194E+03 -0.11669669612E+03  0.11217536849E+04  0.91151666523E+03 0.  0.
         23    2    4    4    0    0 -0.50860269607E+03 -0.63845343560E+03 -0.27278517174E+03  0.86553653292E+03  0.91881706689E+02 0.  0.
         23    2    4    4    0    0  0.75755637907E+02  0.16253957366E+03  0.15608847563E+03  0.25621715200E+03  0.95527938708E+02 0.  0.
          2    1    3    3  502    0  0.16522523451E+03  0.17869032662E+03 -0.31333683090E+03  0.39674876250E+03  0.00000000000E+00 0. -1.
         -1    1    3    3    0  502  0.26762182364E+03  0.29722353532E+03 -0.36551927011E+03  0.54181879559E+03  0.00000000000E+00 0.  1.
         11    1    5    5    0    0 -0.18543640198E+03 -0.26461736650E+03 -0.15061737847E+03  0.35650330227E+03  0.00000000000E+00 0.  1.
        -11    1    5    5    0    0 -0.32316629409E+03 -0.37383606910E+03 -0.12216779327E+03  0.50903323065E+03  0.00000000000E+00 0. -1.
          1    1    6    6  503    0  0.71918401963E+02  0.43882198033E+02  0.59008291993E+02  0.10285855516E+03  0.00000000000E+00 0. -1.
         -1    1    6    6    0  503  0.38372359439E+01  0.11865737562E+03  0.97080183634E+02  0.15335859684E+03  0.00000000000E+00 0.  1.
<mgrwt>
<rscale>  0 0.19005313E+04</rscale>
<asrwt>0</asrwt>
<pdfrwt beam="1">  1        2 0.21968262E+00 0.19005313E+04</pdfrwt>
<pdfrwt beam="2">  1       -1 0.97289880E-01 0.19005313E+04</pdfrwt>
<totfact> 0.15105325E+01</totfact>
</mgrwt>
</event>
<event>
12    6  0.1457317E-007  0.1525486E+04  0.7818608E-02  0.8867680E-01
         -1   -1    0    0    0  501 -0.00000000000E+00  0.00000000000E+00  0.31295232777E+03  0.31295232777E+03  0.00000000000E+00 0.  1.
          2   -1    0    0  501    0  0.00000000000E+00 -0.00000000000E+00 -0.18589952010E+04  0.18589952010E+04  0.00000000000E+00 0. -1.
         24    2    1    2    0    0  0.29583668763E+03  0.16167562601E+03 -0.10236275580E+04  0.10807009632E+04  0.80267306876E+02 0.  0.
        254    2    1    2    0    0 -0.29583668763E+03 -0.16167562601E+03 -0.52241531522E+03  0.10912465656E+04  0.89679593638E+03 0.  0.
         23    2    4    4    0    0  0.26770535912E+03  0.67190399999E+02 -0.10457261229E+02  0.29088267321E+03  0.91228647402E+02 0.  0.
         23    2    4    4    0    0 -0.56354204675E+03 -0.22886602601E+03 -0.51195805399E+03  0.80036389237E+03  0.92314759623E+02 0.  0.
          4    1    3    3  502    0  0.21107110931E+03  0.12807593486E+03 -0.62997590224E+03  0.67662699893E+03  0.00000000000E+00 0. -1.
         -3    1    3    3    0  502  0.84765578320E+02  0.33599691153E+02 -0.39365165576E+03  0.40407396426E+03  0.00000000000E+00 0.  1.
         11    1    5    5    0    0  0.16198610141E+03  0.77360069075E+01 -0.37868363360E+02  0.16653334741E+03  0.00000000000E+00 0. -1.
        -11    1    5    5    0    0  0.10571925770E+03  0.59454393091E+02  0.27411102131E+02  0.12434932580E+03  0.00000000000E+00 0.  1.
          4    1    6    6  503    0 -0.16604373871E+03 -0.27698304158E+02 -0.11710948695E+03  0.20506669927E+03  0.00000000000E+00 0.  1.
         -4    1    6    6    0  503 -0.39749830804E+03 -0.20116772185E+03 -0.39484856705E+03  0.59529719309E+03  0.00000000000E+00 0. -1.
<mgrwt>
<rscale>  0 0.15254860E+04</rscale>
<asrwt>0</asrwt>
<pdfrwt beam="1">  1        2 0.28599928E+00 0.15254860E+04</pdfrwt>
<pdfrwt beam="2">  1       -1 0.48146510E-01 0.15254860E+04</pdfrwt>
<totfact> 0.37912178E+01</totfact>
</mgrwt>
</event>
<event>
12    6  0.1457317E-007  0.1070560E+04  0.7818608E-02  0.9234371E-01
          2   -1    0    0  501    0  0.00000000000E+00  0.00000000000E+00  0.15079699434E+04  0.15079699434E+04  0.00000000000E+00 0. -1.
         -1   -1    0    0    0  501 -0.00000000000E+00 -0.00000000000E+00 -0.19000679332E+03  0.19000679332E+03  0.00000000000E+00 0.  1.
         24    2    1    2    0    0 -0.74813268518E+02  0.10297910404E+03  0.11523144941E+03  0.18958923109E+03  0.80399431580E+02 0.  0.
        254    2    1    2    0    0  0.74813268518E+02 -0.10297910404E+03  0.12027317007E+04  0.15083875056E+04  0.90136984770E+03 0.  0.
         23    2    4    4    0    0 -0.74693445906E+02 -0.39779950511E+03  0.10580416392E+04  0.11362984230E+04  0.88873160862E+02 0.  0.
         23    2    4    4    0    0  0.14950671442E+03  0.29482040107E+03  0.14469006144E+03  0.37208908260E+03  0.90795071248E+02 0.  0.
          2    1    3    3  502    0 -0.62784004483E+02  0.11196572355E+03  0.11795164467E+03  0.17432941505E+03  0.00000000000E+00 0. -1.
         -1    1    3    3    0  502 -0.12029264035E+02 -0.89866195138E+01 -0.27201952620E+01  0.15259816047E+02  0.00000000000E+00 0.  1.
         11    1    5    5    0    0 -0.51406969829E+02 -0.30543056380E+03  0.89959778827E+03  0.95142350534E+03  0.00000000000E+00 0. -1.
        -11    1    5    5    0    0 -0.23286476077E+02 -0.92368941307E+02  0.15844385097E+03  0.18487491770E+03  0.00000000000E+00 0.  1.
          3    1    6    6  503    0  0.14158946294E+03  0.21306303488E+03  0.13535413207E+03  0.28942041033E+03  0.00000000000E+00 0.  1.
         -3    1    6    6    0  503  0.79172514885E+01  0.81757366187E+02  0.93359293731E+01  0.82668672266E+02  0.00000000000E+00 0. -1.
<mgrwt>
<rscale>  0 0.10705597E+04</rscale>
<asrwt>0</asrwt>
<pdfrwt beam="1">  1        2 0.23199537E+00 0.10705597E+04</pdfrwt>
<pdfrwt beam="2">  1       -1 0.29231815E-01 0.10705597E+04</pdfrwt>
<totfact> 0.15191368E+02</totfact>
</mgrwt>
</event>
<event>
12    6  0.1457317E-007  0.1517185E+04  0.7818608E-02  0.8873105E-01
         -1   -1    0    0    0  501 -0.00000000000E+00  0.00000000000E+00  0.62486713786E+03  0.62486713786E+03  0.00000000000E+00 0.  1.
          2   -1    0    0  501    0  0.00000000000E+00 -0.00000000000E+00 -0.92093557683E+03  0.92093557683E+03  0.00000000000E+00 0. -1.
         24    2    1    2    0    0  0.20524193261E+03 -0.42223480131E+03  0.41258838549E+02  0.47805198812E+03  0.80155681339E+02 0.  0.
        254    2    1    2    0    0 -0.20524193261E+03  0.42223480131E+03 -0.33732727752E+03  0.10677507266E+04  0.89771679477E+03 0.  0.
         23    2    4    4    0    0  0.33522799582E+03  0.25717840901E+03 -0.21357080676E+03  0.48209193088E+03  0.91003280615E+02 0.  0.
         23    2    4    4    0    0 -0.54046992842E+03  0.16505639230E+03 -0.12375647076E+03  0.58565879569E+03  0.91264476926E+02 0.  0.
          2    1    3    3  502    0  0.13840711249E+03 -0.22926120586E+03 -0.82085174247E+01  0.26792649936E+03  0.00000000000E+00 0. -1.
         -1    1    3    3    0  502  0.66834820117E+02 -0.19297359545E+03  0.49467355974E+02  0.21012548876E+03  0.00000000000E+00 0.  1.
         11    1    5    5    0    0  0.28893595876E+03  0.25269638585E+03 -0.20369284963E+03  0.43454600294E+03  0.00000000000E+00 0.  1.
        -11    1    5    5    0    0  0.46292037058E+02  0.44820231594E+01 -0.98779571377E+01  0.47545927941E+02  0.00000000000E+00 0. -1.
          2    1    6    6  503    0 -0.35300243221E+03  0.13609766486E+03 -0.11637698941E+03  0.39582432365E+03  0.00000000000E+00 0. -1.
         -2    1    6    6    0  503 -0.18746749621E+03  0.28958727439E+02 -0.73794813417E+01  0.18983447204E+03  0.00000000000E+00 0.  1.
<mgrwt>
<rscale>  0 0.15171847E+04</rscale>
<asrwt>0</asrwt>
<pdfrwt beam="1">  1        2 0.14168240E+00 0.15171847E+04</pdfrwt>
<pdfrwt beam="2">  1       -1 0.96133406E-01 0.15171847E+04</pdfrwt>
<totfact> 0.32596145E+01</totfact>
</mgrwt>
</event>
<event>
12    6  0.1457317E-007  0.1417229E+04  0.7818608E-02  0.8941441E-01
          2   -1    0    0  501    0  0.00000000000E+00  0.00000000000E+00  0.93010517626E+03  0.93010517626E+03  0.00000000000E+00 0. -1.
         -1   -1    0    0    0  501 -0.00000000000E+00 -0.00000000000E+00 -0.53986831807E+03  0.53986831807E+03  0.00000000000E+00 0.  1.
         24    2    1    2    0    0 -0.45861488611E+02  0.13879355354E+03  0.51709480268E+03  0.54558076234E+03  0.94363163551E+02 0.  0.
        254    2    1    2    0    0  0.45861488611E+02 -0.13879355354E+03 -0.12685794449E+03  0.92439273199E+03  0.90390378815E+03 0.  0.
         23    2    4    4    0    0 -0.18039288837E+03 -0.51126048372E+02  0.33505899623E+03  0.39498235061E+03  0.92687967604E+02 0.  0.
         23    2    4    4    0    0  0.22625437698E+03 -0.87667505168E+02 -0.46191694072E+03  0.52941038138E+03  0.89618397754E+02 0.  0.
          2    1    3    3  502    0 -0.49422169070E+02  0.13837542909E+03  0.52037456513E+03  0.54072173824E+03  0.00000000000E+00 0. -1.
         -1    1    3    3    0  502  0.35606804592E+01  0.41812445196E+00 -0.32797624557E+01  0.48590240950E+01  0.00000000000E+00 0.  1.
         11    1    5    5    0    0 -0.12381065526E+03 -0.73411275395E+02  0.26970828738E+03  0.30571367976E+03  0.00000000000E+00 0. -1.
        -11    1    5    5    0    0 -0.56582233111E+02  0.22285227023E+02  0.65350708849E+02  0.89268670845E+02  0.00000000000E+00 0.  1.
          1    1    6    6  503    0  0.15751244788E+03 -0.18472577266E+02 -0.32087978595E+03  0.35793189908E+03  0.00000000000E+00 0. -1.
         -1    1    6    6    0  503  0.68741929100E+02 -0.69194927902E+02 -0.14103715478E+03  0.17147848230E+03  0.00000000000E+00 0.  1.
<mgrwt>
<rscale>  0 0.14172287E+04</rscale>
<asrwt>0</asrwt>
<pdfrwt beam="1">  1        2 0.14309310E+00 0.14172287E+04</pdfrwt>
<pdfrwt beam="2">  1       -1 0.83056665E-01 0.14172287E+04</pdfrwt>
<totfact> 0.44701223E+01</totfact>
</mgrwt>
</event>
<event>
12    6  0.1457317E-007  0.1496256E+04  0.7818608E-02  0.8886947E-01
          2   -1    0    0  501    0  0.00000000000E+00  0.00000000000E+00  0.31121820575E+04  0.31121820575E+04  0.00000000000E+00 0. -1.
         -1   -1    0    0    0  501 -0.00000000000E+00 -0.00000000000E+00 -0.17984012727E+03  0.17984012727E+03  0.00000000000E+00 0.  1.
         24    2    1    2    0    0 -0.23626844502E+03  0.25877818136E+03  0.16298279182E+04  0.16690918828E+04  0.82095949741E+02 0.  0.
        254    2    1    2    0    0  0.23626844502E+03 -0.25877818136E+03  0.13025140121E+04  0.16229303020E+04  0.90253592080E+03 0.  0.
         23    2    4    4    0    0  0.55849469424E+03 -0.19747685104E+03  0.10068462389E+04  0.11717812560E+04  0.91752563900E+02 0.  0.
         23    2    4    4    0    0 -0.32222624922E+03 -0.61301330318E+02  0.29566777316E+03  0.45114904600E+03  0.92349449548E+02 0.  0.
          2    1    3    3  502    0 -0.11077275472E+03  0.86193749447E+02  0.80287649151E+03  0.81505252975E+03  0.00000000000E+00 0. -1.
         -1    1    3    3    0  502 -0.12549569029E+03  0.17258443191E+03  0.82695142666E+03  0.85403935300E+03  0.00000000000E+00 0.  1.
         11    1    5    5    0    0  0.42612219114E+03 -0.11479096887E+03  0.69951667394E+03  0.82709169107E+03  0.00000000000E+00 0.  1.
        -11    1    5    5    0    0  0.13237250310E+03 -0.82685882175E+02  0.30732956497E+03  0.34468956496E+03  0.00000000000E+00 0. -1.
          3    1    6    6  503    0 -0.93237562225E+02  0.15848307089E+02  0.51752548907E+02  0.10780880375E+03  0.00000000000E+00 0. -1.
         -3    1    6    6    0  503 -0.22898868700E+03 -0.77149637406E+02  0.24391522426E+03  0.34334024225E+03  0.00000000000E+00 0.  1.
<mgrwt>
<rscale>  0 0.14962556E+04</rscale>
<asrwt>0</asrwt>
<pdfrwt beam="1">  1        2 0.47879720E+00 0.14962556E+04</pdfrwt>
<pdfrwt beam="2">  1       -1 0.27667714E-01 0.14962556E+04</pdfrwt>
<totfact> 0.19290198E+01</totfact>
</mgrwt>
</event>
<event>
12    6  0.1457317E-007  0.1789249E+04  0.7818608E-02  0.8712038E-01
          2   -1    0    0  501    0  0.00000000000E+00  0.00000000000E+00  0.17899561449E+04  0.17899561449E+04  0.00000000000E+00 0. -1.
         -1   -1    0    0    0  501 -0.00000000000E+00 -0.00000000000E+00 -0.44713547065E+03  0.44713547065E+03  0.00000000000E+00 0.  1.
         24    2    1    2    0    0 -0.14866325713E+03 -0.55029145328E+03  0.80662183081E+02  0.58105612713E+03  0.78729838809E+02 0.  0.
        254    2    1    2    0    0  0.14866325713E+03  0.55029145328E+03  0.12621584912E+04  0.16560354884E+04  0.90801323474E+03 0.  0.
         23    2    4    4    0    0 -0.13627156230E+03  0.70830314869E+03  0.94085233790E+03  0.11892707867E+04  0.94332355089E+02 0.  0.
         23    2    4    4    0    0  0.28493481943E+03 -0.15801169541E+03  0.32130615326E+03  0.46676470170E+03  0.92065712540E+02 0.  0.
          4    1    3    3  502    0 -0.66347796771E+02 -0.14825534112E+03  0.48065647293E+02  0.16938707966E+03  0.00000000000E+00 0. -1.
         -1    1    3    3    0  502 -0.82315460362E+02 -0.40203611216E+03  0.32596535788E+02  0.41166904747E+03  0.00000000000E+00 0.  1.
         11    1    5    5    0    0 -0.12040131053E+03  0.66627409274E+03  0.91209656686E+03  0.11359303630E+04  0.00000000000E+00 0.  1.
        -11    1    5    5    0    0 -0.15870251770E+02  0.42029055954E+02  0.28755771045E+02  0.53340423733E+02  0.00000000000E+00 0. -1.
          2    1    6    6  503    0  0.20006498042E+02  0.14079198612E+01 -0.10630510533E+01  0.20084130048E+02  0.00000000000E+00 0. -1.
         -2    1    6    6    0  503  0.26492832139E+03 -0.15941961527E+03  0.32236920431E+03  0.44668057166E+03  0.00000000000E+00 0.  1.
<mgrwt>
<rscale>  0 0.17892489E+04</rscale>
<asrwt>0</asrwt>
<pdfrwt beam="1">  1        2 0.27537787E+00 0.17892489E+04</pdfrwt>
<pdfrwt beam="2">  1       -1 0.68790073E-01 0.17892489E+04</pdfrwt>
<totfact> 0.20113939E+01</totfact>
</mgrwt>
</event>
<event>
12    6  0.1457317E-007  0.1107019E+04  0.7818608E-02  0.9198378E-01
         -1   -1    0    0    0  501 -0.00000000000E+00  0.00000000000E+00  0.57374176752E+03  0.57374176752E+03  0.00000000000E+00 0.  1.
          2   -1    0    0  501    0  0.00000000000E+00 -0.00000000000E+00 -0.53399055546E+03  0.53399055546E+03  0.00000000000E+00 0. -1.
         24    2    1    2    0    0  0.18617746687E+03 -0.59740032559E+02 -0.15655377104E+02  0.21154801285E+03  0.79224682062E+02 0.  0.
        254    2    1    2    0    0 -0.18617746687E+03  0.59740032559E+02  0.55406589161E+02  0.89618431012E+03  0.87283761773E+03 0.  0.
         23    2    4    4    0    0  0.28177417032E+01  0.29680907604E+03  0.34708946324E+03  0.46568544419E+03  0.91039937150E+02 0.  0.
         23    2    4    4    0    0 -0.18899520857E+03 -0.23706904348E+03 -0.29168287408E+03  0.43049886593E+03  0.91265844106E+02 0.  0.
          4    1    3    3  502    0  0.14923644643E+03 -0.50270428124E+02  0.20735976445E+02  0.15883517748E+03  0.00000000000E+00 0. -1.
         -3    1    3    3    0  502  0.36941020441E+02 -0.94696044354E+01 -0.36391353549E+02  0.52712835368E+02  0.00000000000E+00 0.  1.
         11    1    5    5    0    0  0.45485685888E+02  0.11389384800E+03  0.13823181624E+03  0.18479391563E+03  0.00000000000E+00 0.  1.
        -11    1    5    5    0    0 -0.42667944185E+02  0.18291522804E+03  0.20885764700E+03  0.28089152856E+03  0.00000000000E+00 0. -1.
          1    1    6    6  503    0 -0.12087220871E+02 -0.66114368223E+02 -0.38399695186E+02  0.77406376896E+02  0.00000000000E+00 0. -1.
         -1    1    6    6    0  503 -0.17690798770E+03 -0.17095467525E+03 -0.25328317889E+03  0.35309248904E+03  0.00000000000E+00 0.  1.
<mgrwt>
<rscale>  0 0.11070189E+04</rscale>
<asrwt>0</asrwt>
<pdfrwt beam="1">  1        2 0.82152393E-01 0.11070189E+04</pdfrwt>
<pdfrwt beam="2">  1       -1 0.88267964E-01 0.11070189E+04</pdfrwt>
<totfact> 0.81608699E+01</totfact>
</mgrwt>
</event>
<event>
12    6  0.1457317E-007  0.1956991E+04  0.7818608E-02  0.8626997E-01
         -1   -1    0    0    0  501 -0.00000000000E+00  0.00000000000E+00  0.42724310212E+03  0.42724310212E+03  0.00000000000E+00 0.  1.
          2   -1    0    0  501    0  0.00000000000E+00 -0.00000000000E+00 -0.22410049279E+04  0.22410049279E+04  0.00000000000E+00 0. -1.
         24    2    1    2    0    0 -0.16535343030E+03  0.82353167607E+02  0.29919609603E+03  0.35988493801E+03  0.76648963461E+02 0.  0.
        254    2    1    2    0    0  0.16535343030E+03 -0.82353167607E+02 -0.21129579218E+04  0.23083630920E+04  0.91094741019E+03 0.  0.
         23    2    4    4    0    0  0.38162440041E+02 -0.67480986686E+02 -0.21448602782E+04  0.21481545168E+04  0.90178486555E+02 0.  0.
         23    2    4    4    0    0  0.12719099026E+03 -0.14872180921E+02  0.31902356458E+02  0.16020857521E+03  0.90831148031E+02 0.  0.
          2    1    3    3  502    0 -0.14754483964E+02  0.23830738359E+01  0.84015425134E+02  0.85334433251E+02  0.00000000000E+00 0. -1.
         -1    1    3    3    0  502 -0.15059894634E+03  0.79970093771E+02  0.21518067089E+03  0.27455050476E+03  0.00000000000E+00 0.  1.
         11    1    5    5    0    0 -0.31728567726E+01 -0.57463828500E+02 -0.61094431883E+03  0.61364901965E+03  0.00000000000E+00 0. -1.
        -11    1    5    5    0    0  0.41335296813E+02 -0.10017158186E+02 -0.15339159594E+04  0.15345054971E+04  0.00000000000E+00 0.  1.
          1    1    6    6  503    0 -0.62258278843E+01  0.17995931440E+02  0.83762690529E+01  0.20803277734E+02  0.00000000000E+00 0. -1.
         -1    1    6    6    0  503  0.13341681815E+03 -0.32868112362E+02  0.23526087406E+02  0.13940529747E+03  0.00000000000E+00 0.  1.
<mgrwt>
<rscale>  0 0.19569915E+04</rscale>
<asrwt>0</asrwt>
<pdfrwt beam="1">  1        2 0.34476999E+00 0.19569915E+04</pdfrwt>
<pdfrwt beam="2">  1       -1 0.65729707E-01 0.19569915E+04</pdfrwt>
<totfact> 0.12193744E+01</totfact>
</mgrwt>
</event>
<event>
12    6  0.1457317E-007  0.2464527E+04  0.7818608E-02  0.8415733E-01
          2   -1    0    0  501    0  0.00000000000E+00  0.00000000000E+00  0.22515841486E+04  0.22515841486E+04  0.00000000000E+00 0. -1.
         -1   -1    0    0    0  501 -0.00000000000E+00 -0.00000000000E+00 -0.67440236835E+03  0.67440236835E+03  0.00000000000E+00 0.  1.
         24    2    1    2    0    0  0.18413709141E+03  0.10455902005E+04  0.70611853140E+03  0.12769077176E+04  0.68735747217E+02 0.  0.
        254    2    1    2    0    0 -0.18413709141E+03 -0.10455902005E+04  0.87106324887E+03  0.16490787994E+04  0.91298650984E+03 0.  0.
         23    2    4    4    0    0 -0.50629991075E+02 -0.11489089688E+04  0.88919936479E+03  0.14563506580E+04  0.87900591460E+02 0.  0.
         23    2    4    4    0    0 -0.13350710034E+03  0.10331876830E+03 -0.18136115920E+02  0.19272814140E+03  0.91193772064E+02 0.  0.
          4    1    3    3  502    0  0.16599102303E+01  0.10746571479E+03  0.85916590301E+02  0.13759831266E+03  0.00000000000E+00 0. -1.
         -3    1    3    3    0  502  0.18247718118E+03  0.93812448575E+03  0.62020194110E+03  0.11393094049E+04  0.00000000000E+00 0.  1.
         11    1    5    5    0    0 -0.45596475745E+02 -0.10793533503E+04  0.85965951217E+03  0.13806147798E+04  0.00000000000E+00 0.  1.
        -11    1    5    5    0    0 -0.50335153302E+01 -0.69555618542E+02  0.29539852615E+02  0.75735878154E+02  0.00000000000E+00 0. -1.
          2    1    6    6  503    0 -0.33161565420E+02  0.71876569524E+02 -0.34422345091E+02  0.86318181800E+02  0.00000000000E+00 0.  1.
         -2    1    6    6    0  503 -0.10034553492E+03  0.31442198780E+02  0.16286229172E+02  0.10640995960E+03  0.00000000000E+00 0. -1.
<mgrwt>
<rscale>  0 0.24645273E+04</rscale>
<asrwt>0</asrwt>
<pdfrwt beam="1">  1        2 0.34639756E+00 0.24645273E+04</pdfrwt>
<pdfrwt beam="2">  1       -1 0.10375421E+00 0.24645273E+04</pdfrwt>
<totfact> 0.43008356E+00</totfact>
</mgrwt>
</event>
<event>
12    6  0.1457317E-007  0.3436775E+04  0.7818608E-02  0.8128939E-01
          2   -1    0    0  501    0  0.00000000000E+00  0.00000000000E+00  0.24707210657E+04  0.24707210657E+04  0.00000000000E+00 0. -1.
         -1   -1    0    0    0  501 -0.00000000000E+00 -0.00000000000E+00 -0.11951388558E+04  0.11951388558E+04  0.00000000000E+00 0.  1.
         24    2    1    2    0    0 -0.83485216739E+03 -0.93804370986E+03 -0.44686042953E+03  0.13357208819E+04  0.86959115338E+02 0.  0.
        254    2    1    2    0    0  0.83485216739E+03  0.93804370986E+03  0.17224426395E+04  0.23301390396E+04  0.94118816118E+03 0.  0.
         23    2    4    4    0    0 -0.27708738178E+02  0.58677136918E+03  0.42615388915E+03  0.73132845792E+03  0.90364607400E+02 0.  0.
         23    2    4    4    0    0  0.86256090557E+03  0.35127234069E+03  0.12962887503E+04  0.15988105817E+04  0.91799666891E+02 0.  0.
          2    1    3    3  502    0 -0.35432834911E+02 -0.70643547813E+02 -0.23531636818E+02  0.82460503084E+02  0.00000000000E+00 0. -1.
         -1    1    3    3    0  502 -0.79941933248E+03 -0.86740016205E+03 -0.42332879271E+03  0.12532603788E+04  0.00000000000E+00 0.  1.
         11    1    5    5    0    0 -0.10141682307E+01  0.50353841570E+03  0.33358347379E+03  0.60401150536E+03  0.00000000000E+00 0.  1.
        -11    1    5    5    0    0 -0.26694569947E+02  0.83232953476E+02  0.92570415360E+02  0.12731695256E+03  0.00000000000E+00 0. -1.
          1    1    6    6  503    0  0.25239323586E+03  0.86035439574E+02  0.30738792120E+03  0.40692969475E+03  0.00000000000E+00 0. -1.
         -1    1    6    6    0  503  0.61016766971E+03  0.26523690111E+03  0.98890082911E+03  0.11918808870E+04  0.00000000000E+00 0.  1.
<mgrwt>
<rscale>  0 0.34367745E+04</rscale>
<asrwt>0</asrwt>
<pdfrwt beam="1">  1        2 0.38011093E+00 0.34367745E+04</pdfrwt>
<pdfrwt beam="2">  1       -1 0.18386752E+00 0.34367745E+04</pdfrwt>
<totfact> 0.66336035E-01</totfact>
</mgrwt>
</event>
<event>
12    6  0.1457317E-007  0.1846381E+04  0.7818608E-02  0.8682016E-01
          2   -1    0    0  501    0  0.00000000000E+00  0.00000000000E+00  0.65802955922E+03  0.65802955922E+03  0.00000000000E+00 0. -1.
         -1   -1    0    0    0  501 -0.00000000000E+00 -0.00000000000E+00 -0.12952013678E+04  0.12952013678E+04  0.00000000000E+00 0.  1.
         24    2    1    2    0    0 -0.35377747208E+03 -0.52383201930E+03 -0.54835088125E+03  0.84164996937E+03  0.90152636049E+02 0.  0.
        254    2    1    2    0    0  0.35377747208E+03  0.52383201930E+03 -0.88820927354E+02  0.11115809577E+04  0.91003548510E+03 0.  0.
         23    2    4    4    0    0 -0.27205533384E+03  0.31632288917E+03 -0.12290986705E+03  0.44479712392E+03  0.93077232131E+02 0.  0.
         23    2    4    4    0    0  0.62583280592E+03  0.20750913012E+03  0.34088939695E+02  0.66678383376E+03  0.93337479649E+02 0.  0.
          2    1    3    3  502    0 -0.55979179143E+02 -0.50382161518E+02 -0.97775297690E+02  0.12341814913E+03  0.00000000000E+00 0. -1.
         -1    1    3    3    0  502 -0.29779829294E+03 -0.47344985778E+03 -0.45057558356E+03  0.71823182024E+03  0.00000000000E+00 0.  1.
         11    1    5    5    0    0 -0.21983116148E+03  0.27152518554E+03 -0.66072459248E+02  0.35555201562E+03  0.00000000000E+00 0. -1.
        -11    1    5    5    0    0 -0.52224172359E+02  0.44797703635E+02 -0.56837407801E+02  0.89245108298E+02  0.00000000000E+00 0.  1.
          2    1    6    6  503    0  0.46451069041E+03  0.10989662237E+03  0.21934279443E+02  0.47783738001E+03  0.00000000000E+00 0. -1.
         -2    1    6    6    0  503  0.16132211551E+03  0.97612507751E+02  0.12154660253E+02  0.18894645376E+03  0.00000000000E+00 0.  1.
<mgrwt>
<rscale>  0 0.18463811E+04</rscale>
<asrwt>0</asrwt>
<pdfrwt beam="1">  1        2 0.10123532E+00 0.18463811E+04</pdfrwt>
<pdfrwt beam="2">  1       -1 0.19926175E+00 0.18463811E+04</pdfrwt>
<totfact> 0.72418327E+00</totfact>
</mgrwt>
</event>
<event>
12    6  0.1457317E-007  0.1682970E+04  0.7818608E-02  0.8771137E-01
         -1   -1    0    0    0  501 -0.00000000000E+00  0.00000000000E+00  0.30038570013E+03  0.30038570013E+03  0.00000000000E+00 0.  1.
          2   -1    0    0  501    0  0.00000000000E+00 -0.00000000000E+00 -0.23572919522E+04  0.23572919522E+04  0.00000000000E+00 0. -1.
         24    2    1    2    0    0 -0.45233627368E+03  0.64826312196E+02 -0.13403987203E+04  0.14185333309E+04  0.82204173404E+02 0.  0.
        254    2    1    2    0    0  0.45233627368E+03 -0.64826312196E+02 -0.71650753177E+03  0.12391443215E+04  0.90182318176E+03 0.  0.
         23    2    4    4    0    0  0.68212166861E+02  0.35844314614E+03 -0.49007132503E+03  0.61755027801E+03  0.89800075313E+02 0.  0.
         23    2    4    4    0    0  0.38412410682E+03 -0.42326945834E+03 -0.22643620674E+03  0.62159404348E+03  0.91637521612E+02 0.  0.
          4    1    3    3  502    0 -0.44906568645E+03  0.60151903582E+02 -0.12791574118E+04  0.13570268702E+04  0.00000000000E+00 0. -1.
         -3    1    3    3    0  502 -0.32705872258E+01  0.46744086145E+01 -0.61241308507E+02  0.61506460672E+02  0.00000000000E+00 0.  1.
         11    1    5    5    0    0  0.35578711840E+02  0.38384962778E+02 -0.90676469431E+02  0.10469704968E+03  0.00000000000E+00 0. -1.
        -11    1    5    5    0    0  0.32633455021E+02  0.32005818336E+03 -0.39939485560E+03  0.51285322833E+03  0.00000000000E+00 0.  1.
          3    1    6    6  503    0  0.12833750773E+03 -0.11520246516E+03 -0.11015458526E+03  0.20463664512E+03  0.00000000000E+00 0. -1.
         -3    1    6    6    0  503  0.25578659909E+03 -0.30806699317E+03 -0.11628162147E+03  0.41695739836E+03  0.00000000000E+00 0.  1.
<mgrwt>
<rscale>  0 0.16829697E+04</rscale>
<asrwt>0</asrwt>
<pdfrwt beam="1">  1        2 0.36266031E+00 0.16829697E+04</pdfrwt>
<pdfrwt beam="2">  1       -1 0.46213183E-01 0.16829697E+04</pdfrwt>
<totfact> 0.21284151E+01</totfact>
</mgrwt>
</event>
<event>
12    6  0.1457317E-007  0.2015316E+04  0.7818608E-02  0.8599493E-01
         -1   -1    0    0    0  501 -0.00000000000E+00  0.00000000000E+00  0.43811272111E+03  0.43811272111E+03  0.00000000000E+00 0.  1.
          2   -1    0    0  501    0  0.00000000000E+00 -0.00000000000E+00 -0.23176113765E+04  0.23176113765E+04  0.00000000000E+00 0. -1.
         24    2    1    2    0    0  0.97838904319E+02 -0.42547957755E+03 -0.16864726262E+04  0.17438585410E+04  0.79040307760E+02 0.  0.
        254    2    1    2    0    0 -0.97838904319E+02  0.42547957755E+03 -0.19302602921E+03  0.10118655566E+04  0.89219254340E+03 0.  0.
         23    2    4    4    0    0 -0.11339360982E+03  0.68818557301E+03 -0.66333257261E+02  0.70593679138E+03  0.86539925848E+02 0.  0.
         23    2    4    4    0    0  0.15554705498E+02 -0.26270599546E+03 -0.12669277195E+03  0.30592876518E+03  0.91021766556E+02 0.  0.
          4    1    3    3  502    0  0.60641984048E+02 -0.13260680905E+03 -0.65040027044E+03  0.66654521814E+03  0.00000000000E+00 0. -1.
         -3    1    3    3    0  502  0.37196920271E+02 -0.29287276850E+03 -0.10360723557E+04  0.10773133229E+04  0.00000000000E+00 0.  1.
         11    1    5    5    0    0 -0.17625813510E+02  0.18389890091E+03 -0.54066191474E+02  0.19249059228E+03  0.00000000000E+00 0.  1.
        -11    1    5    5    0    0 -0.95767796307E+02  0.50428667210E+03 -0.12267065787E+02  0.51344619910E+03  0.00000000000E+00 0. -1.
          1    1    6    6  503    0  0.16695725215E+02 -0.13541550041E+03 -0.11437494969E+03  0.17803857477E+03  0.00000000000E+00 0. -1.
         -1    1    6    6    0  503 -0.11410197162E+01 -0.12729049505E+03 -0.12317822256E+02  0.12789019040E+03  0.00000000000E+00 0.  1.
<mgrwt>
<rscale>  0 0.20153164E+04</rscale>
<asrwt>0</asrwt>
<pdfrwt beam="1">  1        2 0.35655560E+00 0.20153164E+04</pdfrwt>
<pdfrwt beam="2">  1       -1 0.67401957E-01 0.20153164E+04</pdfrwt>
<totfact> 0.10434636E+01</totfact>
</mgrwt>
</event>
<event>
12    6  0.1457317E-007  0.2821941E+04  0.7818608E-02  0.8296489E-01
         -1   -1    0    0    0  501 -0.00000000000E+00  0.00000000000E+00  0.80957048121E+03  0.80957048121E+03  0.00000000000E+00 0.  1.
          2   -1    0    0  501    0  0.00000000000E+00 -0.00000000000E+00 -0.24591286869E+04  0.24591286869E+04  0.00000000000E+00 0. -1.
         24    2    1    2    0    0 -0.11844814912E+04 -0.99917976116E+02 -0.12526139005E+04  0.17284094086E+04  0.73331404793E+02 0.  0.
        254    2    1    2    0    0  0.11844814912E+04  0.99917976116E+02 -0.39694430519E+03  0.15402897595E+04  0.89551535822E+03 0.  0.
         23    2    4    4    0    0  0.92010756482E+03  0.27092481518E+03 -0.61793381853E+03  0.11444168353E+04  0.88597418198E+02 0.  0.
         23    2    4    4    0    0  0.26437392641E+03 -0.17100683906E+03  0.22098951335E+03  0.39587292421E+03  0.93499171891E+02 0.  0.
          4    1    3    3  502    0 -0.90442840639E+03 -0.92834749615E+02 -0.99498198099E+03  0.13478123666E+04  0.00000000000E+00 0. -1.
         -3    1    3    3    0  502 -0.28005308485E+03 -0.70832265013E+01 -0.25763191950E+03  0.38059704199E+03  0.00000000000E+00 0.  1.
         11    1    5    5    0    0  0.33916927339E+03  0.11815398820E+03 -0.18527936108E+03  0.40413438679E+03  0.00000000000E+00 0.  1.
        -11    1    5    5    0    0  0.58093829143E+03  0.15277082698E+03 -0.43265445745E+03  0.74028244851E+03  0.00000000000E+00 0. -1.
          1    1    6    6  503    0  0.59277699603E+02 -0.90109783081E+02  0.67679226733E+02  0.12733458449E+03  0.00000000000E+00 0.  1.
         -1    1    6    6    0  503  0.20509622681E+03 -0.80897055978E+02  0.15331028661E+03  0.26853833972E+03  0.00000000000E+00 0. -1.
<mgrwt>
<rscale>  0 0.28219412E+04</rscale>
<asrwt>0</asrwt>
<pdfrwt beam="1">  1        2 0.37832749E+00 0.28219412E+04</pdfrwt>
<pdfrwt beam="2">  1       -1 0.12454930E+00 0.28219412E+04</pdfrwt>
<totfact> 0.20493248E+00</totfact>
</mgrwt>
</event>
<event>
12    6  0.1457317E-007  0.1288223E+04  0.7818608E-02  0.9038957E-01
          2   -1    0    0  501    0  0.00000000000E+00  0.00000000000E+00  0.19847056402E+04  0.19847056402E+04  0.00000000000E+00 0. -1.
         -1   -1    0    0    0  501 -0.00000000000E+00 -0.00000000000E+00 -0.20903838764E+03  0.20903838764E+03  0.00000000000E+00 0.  1.
         24    2    1    2    0    0 -0.26494175984E+03  0.16830140254E+03  0.51263722538E+03  0.60648581716E+03  0.80676039620E+02 0.  0.
        254    2    1    2    0    0  0.26494175984E+03 -0.16830140254E+03  0.12630300272E+04  0.15872582107E+04  0.90863869587E+03 0.  0.
         23    2    4    4    0    0  0.20191410761E+03  0.33808820300E+03  0.33663949500E+03  0.52598326281E+03  0.90880709141E+02 0.  0.
         23    2    4    4    0    0  0.63027652228E+02 -0.50638960554E+03  0.92639053215E+03  0.10612749479E+04  0.87762061018E+02 0.  0.
          4    1    3    3  502    0 -0.26600266421E+03  0.17296843233E+03  0.51086821028E+03  0.60138325902E+03  0.00000000000E+00 0. -1.
         -3    1    3    3    0  502  0.10609043710E+01 -0.46670297939E+01  0.17690150977E+01  0.51025581425E+01  0.00000000000E+00 0.  1.
         11    1    5    5    0    0  0.16943162401E+03  0.20151547894E+03  0.23168729484E+03  0.35070581127E+03  0.00000000000E+00 0. -1.
        -11    1    5    5    0    0  0.32482483603E+02  0.13657272406E+03  0.10495220016E+03  0.17527745154E+03  0.00000000000E+00 0.  1.
          3    1    6    6  503    0  0.60127136967E+02 -0.45838050589E+03  0.88203335302E+03  0.99584677367E+03  0.00000000000E+00 0. -1.
         -3    1    6    6    0  503  0.29005152612E+01 -0.48009099653E+02  0.44357179129E+02  0.65428174195E+02  0.00000000000E+00 0.  1.
<mgrwt>
<rscale>  0 0.12882231E+04</rscale>
<asrwt>0</asrwt>
<pdfrwt beam="1">  1        2 0.30533932E+00 0.12882231E+04</pdfrwt>
<pdfrwt beam="2">  1       -1 0.32159753E-01 0.12882231E+04</pdfrwt>
<totfact> 0.68772309E+01</totfact>
</mgrwt>
</event>
<event>
12    6  0.1457317E-007  0.1166149E+04  0.7818608E-02  0.9143013E-01
          2   -1    0    0  501    0  0.00000000000E+00  0.00000000000E+00  0.62201593699E+03  0.62201593699E+03  0.00000000000E+00 0. -1.
         -1   -1    0    0    0  501 -0.00000000000E+00 -0.00000000000E+00 -0.54657100339E+03  0.54657100339E+03  0.00000000000E+00 0.  1.
         24    2    1    2    0    0  0.14980327394E+03  0.20374762992E+03 -0.91140413506E+02  0.28110273595E+03  0.82207393831E+02 0.  0.
        254    2    1    2    0    0 -0.14980327394E+03 -0.20374762992E+03  0.16658534710E+03  0.88748420443E+03  0.83422024529E+03 0.  0.
         23    2    4    4    0    0 -0.83075855160E+02  0.27750887298E+03  0.24019171226E+03  0.38738165886E+03  0.91976729072E+02 0.  0.
         23    2    4    4    0    0 -0.66727418779E+02 -0.48125650290E+03 -0.73606365160E+02  0.50010254556E+03  0.92867050590E+02 0.  0.
          2    1    3    3  502    0  0.13860548280E+03  0.21047433191E+03 -0.81488657107E+02  0.26486095502E+03  0.00000000000E+00 0. -1.
         -1    1    3    3    0  502  0.11197791135E+02 -0.67267019921E+01 -0.96517563986E+01  0.16241780924E+02  0.00000000000E+00 0.  1.
         11    1    5    5    0    0 -0.40247745614E+01 -0.24164058692E+01  0.25317431774E+02  0.25748984042E+02  0.00000000000E+00 0.  1.
        -11    1    5    5    0    0 -0.79051080599E+02  0.27992527885E+03  0.21487428049E+03  0.36163267482E+03  0.00000000000E+00 0. -1.
          1    1    6    6  503    0 -0.53116879539E+01 -0.26670477663E+03 -0.56538635863E+01  0.26681757453E+03  0.00000000000E+00 0. -1.
         -1    1    6    6    0  503 -0.61415730825E+02 -0.21455172628E+03 -0.67952501573E+02  0.23328497104E+03  0.00000000000E+00 0.  1.
<mgrwt>
<rscale>  0 0.11661490E+04</rscale>
<asrwt>0</asrwt>
<pdfrwt beam="1">  1        2 0.95694759E-01 0.11661490E+04</pdfrwt>
<pdfrwt beam="2">  1       -1 0.84087847E-01 0.11661490E+04</pdfrwt>
<totfact> 0.75211287E+01</totfact>
</mgrwt>
</event>
<event>
12    6  0.1457317E-007  0.1199511E+04  0.7818608E-02  0.9113285E-01
         -1   -1    0    0    0  501 -0.00000000000E+00  0.00000000000E+00  0.37035097595E+03  0.37035097595E+03  0.00000000000E+00 0.  1.
          2   -1    0    0  501    0  0.00000000000E+00 -0.00000000000E+00 -0.97125873414E+03  0.97125873414E+03  0.00000000000E+00 0. -1.
         24    2    1    2    0    0  0.21457076499E+03 -0.11784775235E+03 -0.86464094208E+02  0.27112756088E+03  0.78137115142E+02 0.  0.
        254    2    1    2    0    0 -0.21457076499E+03  0.11784775235E+03 -0.51444366398E+03  0.10704821492E+04  0.90628419518E+03 0.  0.
         23    2    4    4    0    0 -0.35289830847E+03 -0.30917606916E+03 -0.20837750977E+03  0.52087105219E+03  0.88081828810E+02 0.  0.
         23    2    4    4    0    0  0.13832754348E+03  0.42702382151E+03 -0.30606615421E+03  0.54961109702E+03  0.83138521711E+02 0.  0.
          2    1    3    3  502    0  0.18534017876E+03 -0.76709136147E+02 -0.91382685778E+02  0.22042247773E+03  0.00000000000E+00 0. -1.
         -1    1    3    3    0  502  0.29230586230E+02 -0.41138616199E+02  0.49185915696E+01  0.50705083150E+02  0.00000000000E+00 0.  1.
         11    1    5    5    0    0 -0.54318313911E+02 -0.85623296441E+02 -0.21394097927E+02  0.10363173040E+03  0.00000000000E+00 0. -1.
        -11    1    5    5    0    0 -0.29857999456E+03 -0.22355277272E+03 -0.18698341184E+03  0.41723932179E+03  0.00000000000E+00 0.  1.
          2    1    6    6  503    0  0.88064072979E+01  0.10776122611E+03 -0.43987264266E+02  0.11672580725E+03  0.00000000000E+00 0. -1.
         -2    1    6    6    0  503  0.12952113618E+03  0.31926259540E+03 -0.26207888994E+03  0.43288528976E+03  0.00000000000E+00 0.  1.
<mgrwt>
<rscale>  0 0.11995109E+04</rscale>
<asrwt>0</asrwt>
<pdfrwt beam="1">  1        2 0.14942442E+00 0.11995109E+04</pdfrwt>
<pdfrwt beam="2">  1       -1 0.56977073E-01 0.11995109E+04</pdfrwt>
<totfact> 0.92298287E+01</totfact>
</mgrwt>
</event>
<event>
12    6  0.1457317E-007  0.1171844E+04  0.7818608E-02  0.9137865E-01
         -1   -1    0    0    0  501 -0.00000000000E+00  0.00000000000E+00  0.18035173809E+03  0.18035173809E+03  0.00000000000E+00 0.  1.
          2   -1    0    0  501    0  0.00000000000E+00 -0.00000000000E+00 -0.19035274731E+04  0.19035274731E+04  0.00000000000E+00 0. -1.
         24    2    1    2    0    0  0.56430631205E+02 -0.21646562290E+03 -0.43101046424E+03  0.49200755623E+03  0.79117842886E+02 0.  0.
        254    2    1    2    0    0 -0.56430631205E+02  0.21646562290E+03 -0.12921652708E+04  0.15918716550E+04  0.90239819198E+03 0.  0.
         23    2    4    4    0    0  0.20790102492E+03 -0.27977438202E+03 -0.49737832851E+03  0.61415073945E+03  0.91100977454E+02 0.  0.
         23    2    4    4    0    0 -0.26433165612E+03  0.49624000492E+03 -0.79478694226E+03  0.97772091553E+03  0.90147313704E+02 0.  0.
          4    1    3    3  502    0  0.54599626557E+02 -0.86296644294E+02 -0.24032957055E+03  0.26112551105E+03  0.00000000000E+00 0. -1.
         -3    1    3    3    0  502  0.18310046481E+01 -0.13016897860E+03 -0.19068089369E+03  0.23088204518E+03  0.00000000000E+00 0.  1.
         11    1    5    5    0    0  0.18763331447E+03 -0.27826299537E+03 -0.48668785700E+03  0.59118662488E+03  0.00000000000E+00 0. -1.
        -11    1    5    5    0    0  0.20267710449E+02 -0.15113866485E+01 -0.10690471511E+02  0.22964114561E+02  0.00000000000E+00 0.  1.
          4    1    6    6  503    0 -0.18085158402E+03  0.41583870646E+03 -0.63892149727E+03  0.78348567626E+03  0.00000000000E+00 0. -1.
         -4    1    6    6    0  503 -0.83480072101E+02  0.80401298459E+02 -0.15586544499E+03  0.19423523927E+03  0.00000000000E+00 0.  1.
<mgrwt>
<rscale>  0 0.11718438E+04</rscale>
<asrwt>0</asrwt>
<pdfrwt beam="1">  1        2 0.29285041E+00 0.11718438E+04</pdfrwt>
<pdfrwt beam="2">  1       -1 0.27746419E-01 0.11718438E+04</pdfrwt>
<totfact> 0.99662855E+01</totfact>
</mgrwt>
</event>
<event>
12    6  0.1457317E-007  0.1684381E+04  0.7818608E-02  0.8770323E-01
          2   -1    0    0  501    0  0.00000000000E+00  0.00000000000E+00  0.76736540364E+03  0.76736540364E+03  0.00000000000E+00 0. -1.
         -1   -1    0    0    0  501 -0.00000000000E+00 -0.00000000000E+00 -0.92431210737E+03  0.92431210737E+03  0.00000000000E+00 0.  1.
         24    2    1    2    0    0 -0.38909851608E+03  0.23739454987E+03  0.38664594801E+03  0.60276284673E+03  0.77936722848E+02 0.  0.
        254    2    1    2    0    0  0.38909851608E+03 -0.23739454987E+03 -0.54359265174E+03  0.10889146643E+04  0.82612852967E+03 0.  0.
         23    2    4    4    0    0 -0.63052094124E+01 -0.17842575694E+03  0.17209050430E+03  0.26404527511E+03  0.90715264630E+02 0.  0.
         23    2    4    4    0    0  0.39540372549E+03 -0.58968792935E+02 -0.71568315604E+03  0.82486938917E+03  0.91573493308E+02 0.  0.
          2    1    3    3  502    0 -0.10222362552E+03  0.10361198866E+03  0.11133849513E+03  0.18325221501E+03  0.00000000000E+00 0. -1.
         -1    1    3    3    0  502 -0.28687489056E+03  0.13378256121E+03  0.27530745287E+03  0.41951063172E+03  0.00000000000E+00 0.  1.
         11    1    5    5    0    0 -0.29256882700E+02 -0.15197262814E+03  0.16858136391E+03  0.22884781219E+03  0.00000000000E+00 0.  1.
        -11    1    5    5    0    0  0.22951673287E+02 -0.26453128798E+02  0.35091403914E+01  0.35197462922E+02  0.00000000000E+00 0. -1.
          3    1    6    6  503    0  0.10783569049E+03 -0.58229466582E+02 -0.21139849008E+03  0.24435328631E+03  0.00000000000E+00 0. -1.
         -3    1    6    6    0  503  0.28756803500E+03 -0.73932635310E+00 -0.50428466595E+03  0.58051610285E+03  0.00000000000E+00 0.  1.
<mgrwt>
<rscale>  0 0.16843814E+04</rscale>
<asrwt>0</asrwt>
<pdfrwt beam="1">  1        2 0.11805622E+00 0.16843814E+04</pdfrwt>
<pdfrwt beam="2">  1       -1 0.14220186E+00 0.16843814E+04</pdfrwt>
<totfact> 0.15929322E+01</totfact>
</mgrwt>
</event>
<event>
12    6  0.1457317E-007  0.2545551E+04  0.7818608E-02  0.8386935E-01
          2   -1    0    0  501    0  0.00000000000E+00  0.00000000000E+00  0.31776635052E+04  0.31776635052E+04  0.00000000000E+00 0. -1.
         -1   -1    0    0    0  501 -0.00000000000E+00 -0.00000000000E+00 -0.50979526977E+03  0.50979526977E+03  0.00000000000E+00 0.  1.
         24    2    1    2    0    0 -0.52786875886E+03 -0.11043722319E+03 -0.23583323574E+03  0.59401917392E+03  0.79997856594E+02 0.  0.
        254    2    1    2    0    0  0.52786875886E+03  0.11043722319E+03  0.29037014711E+04  0.30934396010E+04  0.92035021859E+03 0.  0.
         23    2    4    4    0    0  0.27050428786E+03 -0.17193421542E+03  0.26358017712E+03  0.42451628045E+03  0.89474121468E+02 0.  0.
         23    2    4    4    0    0  0.25736447100E+03  0.28237143861E+03  0.26401212940E+04  0.26689233206E+04  0.83313526538E+02 0.  0.
          2    1    3    3  502    0 -0.42632654619E+03 -0.11074873845E+03 -0.16570701338E+03  0.47061493956E+03  0.00000000000E+00 0. -1.
         -1    1    3    3    0  502 -0.10154221266E+03  0.31151525622E+00 -0.70126222358E+02  0.12340423435E+03  0.00000000000E+00 0.  1.
         11    1    5    5    0    0  0.13892919657E+03 -0.13945467227E+03  0.14577675181E+03  0.24494854285E+03  0.00000000000E+00 0. -1.
        -11    1    5    5    0    0  0.13157509129E+03 -0.32479543154E+02  0.11780342531E+03  0.17956773760E+03  0.00000000000E+00 0.  1.
          3    1    6    6  503    0  0.15606714926E+03  0.11784277356E+03  0.11844797424E+04  0.12005149456E+04  0.00000000000E+00 0. -1.
         -3    1    6    6    0  503  0.10129732174E+03  0.16452866505E+03  0.14556415516E+04  0.14684083750E+04  0.00000000000E+00 0.  1.
<mgrwt>
<rscale>  0 0.25455513E+04</rscale>
<asrwt>0</asrwt>
<pdfrwt beam="1">  1        2 0.48887130E+00 0.25455513E+04</pdfrwt>
<pdfrwt beam="2">  1       -1 0.78430043E-01 0.25455513E+04</pdfrwt>
<totfact> 0.22051212E+00</totfact>
</mgrwt>
</event>
<event>
12    6  0.1457317E-007  0.1465318E+04  0.7818608E-02  0.8907849E-01
         -1   -1    0    0    0  501 -0.00000000000E+00  0.00000000000E+00  0.38224441481E+03  0.38224441481E+03  0.00000000000E+00 0.  1.
          2   -1    0    0  501    0  0.00000000000E+00 -0.00000000000E+00 -0.14043089277E+04  0.14043089277E+04  0.00000000000E+00 0. -1.
         24    2    1    2    0    0  0.28323592282E+03  0.33759793424E+03 -0.21603867382E+03  0.49721344543E+03  0.79709149777E+02 0.  0.
        254    2    1    2    0    0 -0.28323592282E+03 -0.33759793424E+03 -0.80602583909E+03  0.12893398971E+04  0.90472358418E+03 0.  0.
         23    2    4    4    0    0  0.29965933905E+03 -0.10278051581E+03 -0.46166984643E+03  0.56710460995E+03  0.90050194969E+02 0.  0.
         23    2    4    4    0    0 -0.58289526187E+03 -0.23481741843E+03 -0.34435599266E+03  0.72223528714E+03  0.90203403493E+02 0.  0.
          4    1    3    3  502    0  0.16162863974E+03  0.18350941403E+03 -0.16298043648E+03  0.29387436924E+03  0.00000000000E+00 0. -1.
         -3    1    3    3    0  502  0.12160728308E+03  0.15408852021E+03 -0.53058237343E+02  0.20333907620E+03  0.00000000000E+00 0.  1.
         11    1    5    5    0    0  0.23616963585E+03 -0.80877518783E+02 -0.28931295307E+03  0.38212465866E+03  0.00000000000E+00 0. -1.
        -11    1    5    5    0    0  0.63489703204E+02 -0.21902997026E+02 -0.17235689335E+03  0.18497995129E+03  0.00000000000E+00 0.  1.
          1    1    6    6  503    0 -0.77090022497E+02 -0.66274346623E+02 -0.51924013565E+02  0.11415456090E+03  0.00000000000E+00 0. -1.
         -1    1    6    6    0  503 -0.50580523937E+03 -0.16854307180E+03 -0.29243197909E+03  0.60808072624E+03  0.00000000000E+00 0.  1.
<mgrwt>
<rscale>  0 0.14653180E+04</rscale>
<asrwt>0</asrwt>
<pdfrwt beam="1">  1        2 0.21604752E+00 0.14653180E+04</pdfrwt>
<pdfrwt beam="2">  1       -1 0.58806834E-01 0.14653180E+04</pdfrwt>
<totfact> 0.46551608E+01</totfact>
</mgrwt>
</event>
<event>
12    6  0.1457317E-007  0.1274705E+04  0.7818608E-02  0.9049869E-01
          2   -1    0    0  501    0  0.00000000000E+00  0.00000000000E+00  0.20602776324E+03  0.20602776324E+03  0.00000000000E+00 0. -1.
         -1   -1    0    0    0  501 -0.00000000000E+00 -0.00000000000E+00 -0.19716658226E+04  0.19716658226E+04  0.00000000000E+00 0.  1.
         24    2    1    2    0    0 -0.83168939306E+02 -0.49767387776E+02  0.50675588203E+02  0.13564425740E+03  0.80233932818E+02 0.  0.
        254    2    1    2    0    0  0.83168939306E+02  0.49767387776E+02 -0.18163136475E+04  0.20420493284E+04  0.92821135960E+03 0.  0.
         23    2    4    4    0    0 -0.17440913345E+03  0.26048371783E+03 -0.16031205156E+04  0.16358447194E+04  0.87876305687E+02 0.  0.
         23    2    4    4    0    0  0.25757807276E+03 -0.21071633006E+03 -0.21319313190E+03  0.40620460905E+03  0.93824504320E+02 0.  0.
          4    1    3    3  502    0 -0.90235925740E+02 -0.52666546192E+02  0.23065144275E+02  0.10699667407E+03  0.00000000000E+00 0. -1.
         -3    1    3    3    0  502  0.70669864345E+01  0.28991584160E+01  0.27610443929E+02  0.28647583331E+02  0.00000000000E+00 0.  1.
         11    1    5    5    0    0  0.84620940215E+01  0.23018306553E+01 -0.31709263424E+02  0.32899587330E+02  0.00000000000E+00 0.  1.
        -11    1    5    5    0    0 -0.18287122747E+03  0.25818188718E+03 -0.15714112522E+04  0.16029451320E+04  0.00000000000E+00 0. -1.
          1    1    6    6  503    0  0.26532903208E+03 -0.20189601811E+03 -0.20116575480E+03  0.38939588891E+03  0.00000000000E+00 0. -1.
         -1    1    6    6    0  503 -0.77509593209E+01 -0.88203119439E+01 -0.12027377094E+02  0.16808720146E+02  0.00000000000E+00 0.  1.
<mgrwt>
<rscale>  0 0.12747045E+04</rscale>
<asrwt>0</asrwt>
<pdfrwt beam="1">  1        2 0.31696578E-01 0.12747045E+04</pdfrwt>
<pdfrwt beam="2">  1       -1 0.30333321E+00 0.12747045E+04</pdfrwt>
<totfact> 0.59528887E+00</totfact>
</mgrwt>
</event>
<event>
12    6  0.1457317E-007  0.2079325E+04  0.7818608E-02  0.8570406E-01
         -1   -1    0    0    0  501 -0.00000000000E+00  0.00000000000E+00  0.64231122042E+03  0.64231122042E+03  0.00000000000E+00 0.  1.
          2   -1    0    0  501    0  0.00000000000E+00 -0.00000000000E+00 -0.16828261811E+04  0.16828261811E+04  0.00000000000E+00 0. -1.
         24    2    1    2    0    0 -0.67295610301E+03 -0.38640129607E+03 -0.79535778164E+03  0.11142087655E+04  0.81800330430E+02 0.  0.
        254    2    1    2    0    0  0.67295610301E+03  0.38640129607E+03 -0.24515717905E+03  0.12109286360E+04  0.89669963810E+03 0.  0.
         23    2    4    4    0    0  0.54416272150E+03  0.38596208362E+03  0.22800723619E+03  0.71207070334E+03  0.99887883791E+02 0.  0.
         23    2    4    4    0    0  0.12879338151E+03  0.43921245075E+00 -0.47316441524E+03  0.49885793271E+03  0.91579174189E+02 0.  0.
          4    1    3    3  502    0 -0.40376936934E+03 -0.25583344665E+03 -0.53690622606E+03  0.71885238514E+03  0.00000000000E+00 0. -1.
         -3    1    3    3    0  502 -0.26918673368E+03 -0.13056784942E+03 -0.25845155557E+03  0.39535638033E+03  0.00000000000E+00 0.  1.
         11    1    5    5    0    0  0.37212236177E+03  0.22173595223E+03  0.11186480383E+03  0.44738754898E+03  0.00000000000E+00 0. -1.
        -11    1    5    5    0    0  0.17204035973E+03  0.16422613138E+03  0.11614243237E+03  0.26468315436E+03  0.00000000000E+00 0.  1.
          1    1    6    6  503    0  0.42181579865E+02  0.18626276062E+02 -0.30841139061E+03  0.31183939728E+03  0.00000000000E+00 0. -1.
         -1    1    6    6    0  503  0.86611801644E+02 -0.18187063611E+02 -0.16475302464E+03  0.18701853543E+03  0.00000000000E+00 0.  1.
<mgrwt>
<rscale>  0 0.20793250E+04</rscale>
<asrwt>0</asrwt>
<pdfrwt beam="1">  1        2 0.25889633E+00 0.20793250E+04</pdfrwt>
<pdfrwt beam="2">  1       -1 0.98817112E-01 0.20793250E+04</pdfrwt>
<totfact> 0.10322445E+01</totfact>
</mgrwt>
</event>
<event>
12    6  0.1457317E-007  0.1121625E+04  0.7818608E-02  0.9184367E-01
          2   -1    0    0  501    0  0.00000000000E+00  0.00000000000E+00  0.30163225846E+04  0.30163225846E+04  0.00000000000E+00 0. -1.
         -1   -1    0    0    0  501 -0.00000000000E+00 -0.00000000000E+00 -0.10426959957E+03  0.10426959957E+03  0.00000000000E+00 0.  1.
         24    2    1    2    0    0 -0.13288539959E+03  0.13828336699E+02  0.87576965583E+03  0.88963834419E+03  0.81450236732E+02 0.  0.
        254    2    1    2    0    0  0.13288539959E+03 -0.13828336699E+02  0.20362833292E+04  0.22309538400E+04  0.90158498602E+03 0.  0.
         23    2    4    4    0    0  0.23176733132E+03  0.26566786167E+03  0.31523535887E+03  0.48190954548E+03  0.92563329408E+02 0.  0.
         23    2    4    4    0    0 -0.98881931727E+02 -0.27949619837E+03  0.17210479704E+04  0.17490442945E+04  0.96198059252E+02 0.  0.
          2    1    3    3  502    0 -0.22445585285E+02  0.33741271211E+02  0.32781367492E+03  0.33030907215E+03  0.00000000000E+00 0. -1.
         -1    1    3    3    0  502 -0.11043981431E+03 -0.19912934512E+02  0.54795598091E+03  0.55932927204E+03  0.00000000000E+00 0.  1.
         11    1    5    5    0    0  0.28420969075E+02  0.91749465920E+02  0.68885661939E+02  0.11819877495E+03  0.00000000000E+00 0.  1.
        -11    1    5    5    0    0  0.20334636225E+03  0.17391839575E+03  0.24634969693E+03  0.36371077053E+03  0.00000000000E+00 0. -1.
          4    1    6    6  503    0 -0.11484309393E+03 -0.24140981640E+03  0.13943084136E+04  0.14197054582E+04  0.00000000000E+00 0. -1.
         -4    1    6    6    0  503  0.15961162198E+02 -0.38086381966E+02  0.32673955674E+03  0.32933883635E+03  0.00000000000E+00 0.  1.
<mgrwt>
<rscale>  0 0.11216252E+04</rscale>
<asrwt>0</asrwt>
<pdfrwt beam="1">  1        2 0.46404956E+00 0.11216252E+04</pdfrwt>
<pdfrwt beam="2">  1       -1 0.16041479E-01 0.11216252E+04</pdfrwt>
<totfact> 0.57661320E+01</totfact>
</mgrwt>
</event>
<event>
12    6  0.1457317E-007  0.2083919E+04  0.7818608E-02  0.8568361E-01
          2   -1    0    0  501    0  0.00000000000E+00  0.00000000000E+00  0.23938845048E+04  0.23938845048E+04  0.00000000000E+00 0. -1.
         -1   -1    0    0    0  501 -0.00000000000E+00 -0.00000000000E+00 -0.45352191286E+03  0.45352191286E+03  0.00000000000E+00 0.  1.
         24    2    1    2    0    0  0.30005526713E+03 -0.35929911668E+02  0.18281858281E+04  0.18546495742E+04  0.78342192667E+02 0.  0.
        254    2    1    2    0    0 -0.30005526713E+03  0.35929911668E+02  0.11217676385E+03  0.99275684346E+03  0.93896666715E+03 0.  0.
         23    2    4    4    0    0 -0.30234731074E+03 -0.41766619597E+03  0.48121458771E+02  0.52577359233E+03  0.90902409413E+02 0.  0.
         23    2    4    4    0    0  0.22920436088E+01  0.45359610763E+03  0.64055305080E+02  0.46698325113E+03  0.90639905130E+02 0.  0.
          2    1    3    3  502    0  0.24115214982E+03 -0.83596207001E+01  0.15680494016E+04  0.15865065926E+04  0.00000000000E+00 0. -1.
         -1    1    3    3    0  502  0.58903117311E+02 -0.27570290968E+02  0.26013642651E+03  0.26814298158E+03  0.00000000000E+00 0.  1.
         11    1    5    5    0    0 -0.60634165792E+02 -0.32490234353E+02  0.41468753986E+01  0.68915266561E+02  0.00000000000E+00 0. -1.
        -11    1    5    5    0    0 -0.24171314495E+03 -0.38517596161E+03  0.43974583373E+02  0.45685832577E+03  0.00000000000E+00 0.  1.
          1    1    6    6  503    0  0.33793981394E+02  0.85021535843E+02  0.25991047388E+02  0.95111667423E+02  0.00000000000E+00 0. -1.
         -1    1    6    6    0  503 -0.31501937785E+02  0.36857457179E+03  0.38064257692E+02  0.37187158371E+03  0.00000000000E+00 0.  1.
<mgrwt>
<rscale>  0 0.20839185E+04</rscale>
<asrwt>0</asrwt>
<pdfrwt beam="1">  1        2 0.36828992E+00 0.20839185E+04</pdfrwt>
<pdfrwt beam="2">  1       -1 0.69772603E-01 0.20839185E+04</pdfrwt>
<totfact> 0.87445519E+00</totfact>
</mgrwt>
</event>
<event>
12    6  0.1457317E-007  0.1694213E+04  0.7818608E-02  0.8764672E-01
         -1   -1    0    0    0  501 -0.00000000000E+00  0.00000000000E+00  0.52998879368E+03  0.52998879368E+03  0.00000000000E+00 0.  1.
          2   -1    0    0  501    0  0.00000000000E+00 -0.00000000000E+00 -0.13539710420E+04  0.13539710420E+04  0.00000000000E+00 0. -1.
         24    2    1    2    0    0  0.25499093313E+03 -0.11999967496E+02 -0.90226490138E+03  0.94120151919E+03  0.81326331920E+02 0.  0.
        254    2    1    2    0    0 -0.25499093313E+03  0.11999967496E+02  0.78282653089E+02  0.94275831646E+03  0.90415744994E+03 0.  0.
         23    2    4    4    0    0 -0.48260699486E+03  0.50393293127E+00 -0.23436186841E+03  0.54407247436E+03  0.90441177366E+02 0.  0.
         23    2    4    4    0    0  0.22761606172E+03  0.11496034565E+02  0.31264452150E+03  0.39868584210E+03  0.96242264631E+02 0.  0.
          4    1    3    3  502    0  0.23390450740E+03 -0.33496744482E+02 -0.82822887372E+03  0.86127604039E+03  0.00000000000E+00 0. -1.
         -3    1    3    3    0  502  0.21086425732E+02  0.21496776986E+02 -0.74036027655E+02  0.79925478803E+02  0.00000000000E+00 0.  1.
         11    1    5    5    0    0 -0.27179646964E+03  0.10764040191E+02 -0.17983569700E+03  0.32608290876E+03  0.00000000000E+00 0.  1.
        -11    1    5    5    0    0 -0.21081052522E+03 -0.10260107259E+02 -0.54526171406E+02  0.21798956561E+03  0.00000000000E+00 0. -1.
          3    1    6    6  503    0  0.27918857807E+02  0.95466628975E+01  0.22446638222E+01  0.29591213382E+02  0.00000000000E+00 0. -1.
         -3    1    6    6    0  503  0.19969720392E+03  0.19493716674E+01  0.31039985767E+03  0.36909462871E+03  0.00000000000E+00 0.  1.
<mgrwt>
<rscale>  0 0.16942131E+04</rscale>
<asrwt>0</asrwt>
<pdfrwt beam="1">  1        2 0.20830324E+00 0.16942131E+04</pdfrwt>
<pdfrwt beam="2">  1       -1 0.81536738E-01 0.16942131E+04</pdfrwt>
<totfact> 0.24996802E+01</totfact>
</mgrwt>
</event>
<event>
12    6  0.1457317E-007  0.2359641E+04  0.7818608E-02  0.8454770E-01
          2   -1    0    0  501    0  0.00000000000E+00  0.00000000000E+00  0.27443241052E+04  0.27443241052E+04  0.00000000000E+00 0. -1.
         -1   -1    0    0    0  501 -0.00000000000E+00 -0.00000000000E+00 -0.50721998082E+03  0.50721998082E+03  0.00000000000E+00 0.  1.
         24    2    1    2    0    0 -0.54493397677E+03 -0.32447728606E+03  0.20612157630E+04  0.21578896186E+04  0.75090853177E+02 0.  0.
        254    2    1    2    0    0  0.54493397677E+03  0.32447728606E+03  0.17588836141E+03  0.10936544674E+04  0.87344423420E+03 0.  0.
         23    2    4    4    0    0 -0.18049195086E+03  0.28061372370E+03  0.78941398298E+02  0.35470148270E+03  0.90884493787E+02 0.  0.
         23    2    4    4    0    0  0.72542592763E+03  0.43863562354E+02  0.96946963111E+02  0.73895298473E+03  0.92119549548E+02 0.  0.
          4    1    3    3  502    0 -0.44820446922E+03 -0.25351061372E+03  0.17559761086E+04  0.18299199358E+04  0.00000000000E+00 0. -1.
         -3    1    3    3    0  502 -0.96729507554E+02 -0.70966672341E+02  0.30523965439E+03  0.32796968278E+03  0.00000000000E+00 0.  1.
         11    1    5    5    0    0 -0.11525723983E+02  0.20419990608E+02 -0.18116317888E+02  0.29631390510E+02  0.00000000000E+00 0.  1.
        -11    1    5    5    0    0 -0.16896622687E+03  0.26019373309E+03  0.97057716186E+02  0.32507009219E+03  0.00000000000E+00 0. -1.
          1    1    6    6  503    0  0.57934677070E+03  0.33017510333E+02  0.11433465651E+03  0.59144336194E+03  0.00000000000E+00 0. -1.
         -1    1    6    6    0  503  0.14607915693E+03  0.10846052021E+02 -0.17387693394E+02  0.14750962279E+03  0.00000000000E+00 0.  1.
<mgrwt>
<rscale>  0 0.23596407E+04</rscale>
<asrwt>0</asrwt>
<pdfrwt beam="1">  1        2 0.42220370E+00 0.23596407E+04</pdfrwt>
<pdfrwt beam="2">  1       -1 0.78033845E-01 0.23596407E+04</pdfrwt>
<totfact> 0.42174749E+00</totfact>
</mgrwt>
</event>
<event>
12    6  0.1457317E-007  0.1540184E+04  0.7818608E-02  0.8858162E-01
          2   -1    0    0  501    0  0.00000000000E+00  0.00000000000E+00  0.23264567530E+04  0.23264567530E+04  0.00000000000E+00 0. -1.
         -1   -1    0    0    0  501 -0.00000000000E+00 -0.00000000000E+00 -0.25491186056E+03  0.25491186056E+03  0.00000000000E+00 0.  1.
         24    2    1    2    0    0  0.33114229313E+02  0.48460206846E+03  0.94105159856E+03  0.10619109336E+04  0.78364551041E+02 0.  0.
        254    2    1    2    0    0 -0.33114229313E+02 -0.48460206846E+03  0.11304932939E+04  0.15194576800E+04  0.89151603278E+03 0.  0.
         23    2    4    4    0    0 -0.28639154311E+03  0.99944417695E+02  0.62860378494E+03  0.70393864654E+03  0.91530853007E+02 0.  0.
         23    2    4    4    0    0  0.25327731380E+03 -0.58454648616E+03  0.50188950897E+03  0.81551903343E+03  0.85640075423E+02 0.  0.
          4    1    3    3  502    0  0.42934485932E+02  0.46206219413E+03  0.86000536323E+03  0.97721751218E+03  0.00000000000E+00 0. -1.
         -3    1    3    3    0  502 -0.98202566191E+01  0.22539874331E+02  0.81046235328E+02  0.84693421444E+02  0.00000000000E+00 0.  1.
         11    1    5    5    0    0 -0.95377336175E+02  0.69186409119E+02  0.30418301148E+03  0.32620683613E+03  0.00000000000E+00 0.  1.
        -11    1    5    5    0    0 -0.19101420694E+03  0.30758008576E+02  0.32442077346E+03  0.37773181041E+03  0.00000000000E+00 0. -1.
          3    1    6    6  503    0  0.22908032600E+03 -0.56977919870E+03  0.48493511839E+03  0.78248846642E+03  0.00000000000E+00 0. -1.
         -3    1    6    6    0  503  0.24196987802E+02 -0.14767287457E+02  0.16954390575E+02  0.33030567014E+02  0.00000000000E+00 0.  1.
<mgrwt>
<rscale>  0 0.15401837E+04</rscale>
<asrwt>0</asrwt>
<pdfrwt beam="1">  1        2 0.35791641E+00 0.15401837E+04</pdfrwt>
<pdfrwt beam="2">  1       -1 0.39217211E-01 0.15401837E+04</pdfrwt>
<totfact> 0.30387229E+01</totfact>
</mgrwt>
</event>
<event>
12    6  0.1457317E-007  0.1405684E+04  0.7818608E-02  0.8949714E-01
         -1   -1    0    0    0  501 -0.00000000000E+00  0.00000000000E+00  0.17340493815E+03  0.17340493815E+03  0.00000000000E+00 0.  1.
          2   -1    0    0  501    0  0.00000000000E+00 -0.00000000000E+00 -0.28487488190E+04  0.28487488190E+04  0.00000000000E+00 0. -1.
         24    2    1    2    0    0  0.89294903144E+01 -0.40908539055E+03 -0.55062428636E+03  0.69067743584E+03  0.80110068569E+02 0.  0.
        254    2    1    2    0    0 -0.89294903144E+01  0.40908539055E+03 -0.21247195945E+04  0.23314763213E+04  0.86828445169E+03 0.  0.
         23    2    4    4    0    0 -0.37294113299E+03  0.40483883708E+03 -0.15221568231E+04  0.16212367388E+04  0.92019544092E+02 0.  0.
         23    2    4    4    0    0  0.36401164267E+03  0.42465534711E+01 -0.60256277142E+03  0.71023958251E+03  0.93999265197E+02 0.  0.
          4    1    3    3  502    0  0.24864738917E+01 -0.41034313814E+03 -0.54303658514E+03  0.68064411139E+03  0.00000000000E+00 0. -1.
         -3    1    3    3    0  502  0.64430164226E+01  0.12577475904E+01 -0.75877012192E+01  0.10033324445E+02  0.00000000000E+00 0.  1.
         11    1    5    5    0    0 -0.73325292299E+02  0.33862430157E+02 -0.24427566765E+03  0.25728168313E+03  0.00000000000E+00 0.  1.
        -11    1    5    5    0    0 -0.29961584069E+03  0.37097640692E+03 -0.12778811554E+04  0.13639550556E+04  0.00000000000E+00 0. -1.
          2    1    6    6  503    0  0.25474849471E+03  0.45932480171E+02 -0.40490899915E+03  0.48058077977E+03  0.00000000000E+00 0.  1.
         -2    1    6    6    0  503  0.10926314796E+03 -0.41685926700E+02 -0.19765377227E+03  0.22965880275E+03  0.00000000000E+00 0. -1.
<mgrwt>
<rscale>  0 0.14056843E+04</rscale>
<asrwt>0</asrwt>
<pdfrwt beam="1">  1        2 0.43826903E+00 0.14056843E+04</pdfrwt>
<pdfrwt beam="2">  1       -1 0.26677684E-01 0.14056843E+04</pdfrwt>
<totfact> 0.30183131E+01</totfact>
</mgrwt>
</event>
<event>
12    6  0.1457317E-007  0.1282442E+04  0.7818608E-02  0.9043606E-01
         -1   -1    0    0    0  501 -0.00000000000E+00  0.00000000000E+00  0.26405228119E+03  0.26405228119E+03  0.00000000000E+00 0.  1.
          2   -1    0    0  501    0  0.00000000000E+00 -0.00000000000E+00 -0.15571320458E+04  0.15571320458E+04  0.00000000000E+00 0. -1.
         24    2    1    2    0    0 -0.31405455283E+02 -0.19132943595E+03 -0.68815529153E+03  0.72028835853E+03  0.87546321953E+02 0.  0.
        254    2    1    2    0    0  0.31405455283E+02  0.19132943595E+03 -0.60492447306E+03  0.11008959684E+04  0.89913572920E+03 0.  0.
         23    2    4    4    0    0  0.34894908799E+03 -0.12428298333E+03 -0.51892086308E+02  0.38358538105E+03  0.85048397880E+02 0.  0.
         23    2    4    4    0    0 -0.31754363271E+03  0.31561241928E+03 -0.55303238675E+03  0.71731058738E+03  0.90799229614E+02 0.  0.
          2    1    3    3  502    0 -0.59098526172E+01 -0.44970093083E+02 -0.32141789905E+03  0.32460237439E+03  0.00000000000E+00 0. -1.
         -1    1    3    3    0  502 -0.25495602666E+02 -0.14635934287E+03 -0.36673739248E+03  0.39568598414E+03  0.00000000000E+00 0.  1.
         11    1    5    5    0    0  0.26710386162E+03 -0.72851764560E+02 -0.68561695852E+01  0.27694558952E+03  0.00000000000E+00 0. -1.
        -11    1    5    5    0    0  0.81845226368E+02 -0.51431218768E+02 -0.45035916722E+02  0.10663979153E+03  0.00000000000E+00 0.  1.
          2    1    6    6  503    0 -0.11689213653E+03  0.58588352539E+02 -0.15748557046E+03  0.20469018428E+03  0.00000000000E+00 0. -1.
         -2    1    6    6    0  503 -0.20065149617E+03  0.25702406674E+03 -0.39554681629E+03  0.51262040311E+03  0.00000000000E+00 0.  1.
<mgrwt>
<rscale>  0 0.12824418E+04</rscale>
<asrwt>0</asrwt>
<pdfrwt beam="1">  1        2 0.23955878E+00 0.12824418E+04</pdfrwt>
<pdfrwt beam="2">  1       -1 0.40623428E-01 0.12824418E+04</pdfrwt>
<totfact> 0.78004071E+01</totfact>
</mgrwt>
</event>
<event>
12    6  0.1457317E-007  0.2082087E+04  0.7818608E-02  0.8569176E-01
          2   -1    0    0  501    0  0.00000000000E+00  0.00000000000E+00  0.19132917614E+04  0.19132917614E+04  0.00000000000E+00 0. -1.
         -1   -1    0    0    0  501 -0.00000000000E+00 -0.00000000000E+00 -0.56644329419E+03  0.56644329419E+03  0.00000000000E+00 0.  1.
         24    2    1    2    0    0  0.17362639795E+03  0.11538335067E+02  0.15352712888E+04  0.15470590061E+04  0.77809890211E+02 0.  0.
        254    2    1    2    0    0 -0.17362639795E+03 -0.11538335067E+02 -0.18842282157E+03  0.93267604948E+03  0.89671745514E+03 0.  0.
         23    2    4    4    0    0 -0.36207706204E+03 -0.33126500594E+03 -0.22629926289E+03  0.54817053399E+03  0.91887294752E+02 0.  0.
         23    2    4    4    0    0  0.18845066408E+03  0.31972667087E+03  0.37876441326E+02  0.38450551550E+03  0.93118579134E+02 0.  0.
          4    1    3    3  502    0  0.48397341798E+02  0.10554045057E+02  0.77152123323E+03  0.77310976186E+03  0.00000000000E+00 0. -1.
         -3    1    3    3    0  502  0.12522905616E+03  0.98429001055E+00  0.76375005556E+03  0.77394924427E+03  0.00000000000E+00 0.  1.
         11    1    5    5    0    0 -0.36410507397E+03 -0.33295982773E+03 -0.22938570390E+03  0.54410711531E+03  0.00000000000E+00 0. -1.
        -11    1    5    5    0    0  0.20280119345E+01  0.16948217913E+01  0.30864410072E+01  0.40634186840E+01  0.00000000000E+00 0.  1.
          2    1    6    6  503    0  0.18101590069E+03  0.31408648607E+03  0.53366094339E+02  0.36642191127E+03  0.00000000000E+00 0. -1.
         -2    1    6    6    0  503  0.74347633900E+01  0.56401848013E+01 -0.15489653014E+02  0.18083604224E+02  0.00000000000E+00 0.  1.
<mgrwt>
<rscale>  0 0.20820867E+04</rscale>
<asrwt>0</asrwt>
<pdfrwt beam="1">  1        2 0.29435258E+00 0.20820867E+04</pdfrwt>
<pdfrwt beam="2">  1       -1 0.87145123E-01 0.20820867E+04</pdfrwt>
<totfact> 0.10171029E+01</totfact>
</mgrwt>
</event>
<event>
12    6  0.1457317E-007  0.3573666E+04  0.7818608E-02  0.8096551E-01
         -1   -1    0    0    0  501 -0.00000000000E+00  0.00000000000E+00  0.20648699635E+04  0.20648699635E+04  0.00000000000E+00 0.  1.
          2   -1    0    0  501    0  0.00000000000E+00 -0.00000000000E+00 -0.15462338310E+04  0.15462338310E+04  0.00000000000E+00 0. -1.
         24    2    1    2    0    0  0.11029502855E+04 -0.99125810841E+03 -0.53650883499E+03  0.15796261872E+04  0.91023028286E+02 0.  0.
        254    2    1    2    0    0 -0.11029502855E+04  0.99125810841E+03  0.10551449674E+04  0.20314776073E+04  0.90248456880E+03 0.  0.
         23    2    4    4    0    0 -0.10430273272E+04  0.11321554200E+04  0.85349145552E+03  0.17624580064E+04  0.90159077602E+02 0.  0.
         23    2    4    4    0    0 -0.59922958243E+02 -0.14089731161E+03  0.20165351189E+03  0.26901960087E+03  0.90909809456E+02 0.  0.
          4    1    3    3  502    0  0.30261638439E+03 -0.27064804782E+03 -0.19049738027E+03  0.44845991324E+03  0.00000000000E+00 0. -1.
         -3    1    3    3    0  502  0.80033390106E+03 -0.72061006059E+03 -0.34601145472E+03  0.11311662740E+04  0.00000000000E+00 0.  1.
         11    1    5    5    0    0 -0.22804529943E+03  0.19534736436E+03  0.17157449547E+03  0.34583675173E+03  0.00000000000E+00 0. -1.
        -11    1    5    5    0    0 -0.81498202778E+03  0.93680805566E+03  0.68191696006E+03  0.14166212547E+04  0.00000000000E+00 0.  1.
          4    1    6    6  503    0  0.10411183839E+02  0.16892156641E+00 -0.28708913548E+01  0.10801078677E+02  0.00000000000E+00 0. -1.
         -4    1    6    6    0  503 -0.70334142082E+02 -0.14106623317E+03  0.20452440324E+03  0.25821852220E+03  0.00000000000E+00 0.  1.
<mgrwt>
<rscale>  0 0.35736658E+04</rscale>
<asrwt>0</asrwt>
<pdfrwt beam="1">  1        2 0.23788213E+00 0.35736658E+04</pdfrwt>
<pdfrwt beam="2">  1       -1 0.31767230E+00 0.35736658E+04</pdfrwt>
<totfact> 0.28169612E-01</totfact>
</mgrwt>
</event>
<event>
12    6  0.1457317E-007  0.1709106E+04  0.7818608E-02  0.8756188E-01
         -1   -1    0    0    0  501 -0.00000000000E+00  0.00000000000E+00  0.32437220528E+03  0.32437220528E+03  0.00000000000E+00 0.  1.
          2   -1    0    0  501    0  0.00000000000E+00 -0.00000000000E+00 -0.22513051670E+04  0.22513051670E+04  0.00000000000E+00 0. -1.
         24    2    1    2    0    0 -0.31599345733E+03 -0.51679915248E+03 -0.53772775505E+03  0.81395574468E+03  0.80247035295E+02 0.  0.
        254    2    1    2    0    0  0.31599345733E+03  0.51679915248E+03 -0.13892052067E+04  0.17617216276E+04  0.89824203746E+03 0.  0.
         23    2    4    4    0    0 -0.20123712829E+03 -0.55747766408E+02 -0.65104486383E+03  0.69007493924E+03  0.93486960530E+02 0.  0.
         23    2    4    4    0    0  0.51723058562E+03  0.57254691889E+03 -0.73816034288E+03  0.10716466884E+04  0.90600661806E+02 0.  0.
          4    1    3    3  502    0 -0.47682870223E+02 -0.10974299508E+03 -0.71558208318E+02  0.13941936113E+03  0.00000000000E+00 0. -1.
         -3    1    3    3    0  502 -0.26831058711E+03 -0.40705615740E+03 -0.46616954673E+03  0.67453638355E+03  0.00000000000E+00 0.  1.
         11    1    5    5    0    0 -0.10101448135E+03 -0.73647792319E+02 -0.40317614738E+03  0.42211245963E+03  0.00000000000E+00 0.  1.
        -11    1    5    5    0    0 -0.10022264694E+03  0.17900025911E+02 -0.24786871644E+03  0.26796247961E+03  0.00000000000E+00 0. -1.
          4    1    6    6  503    0  0.42742562506E+03  0.51887205487E+03 -0.64048855704E+03  0.92851842522E+03  0.00000000000E+00 0.  1.
         -4    1    6    6    0  503  0.89804960568E+02  0.53674864014E+02 -0.97671785843E+02  0.14312826317E+03  0.00000000000E+00 0. -1.
<mgrwt>
<rscale>  0 0.17091060E+04</rscale>
<asrwt>0</asrwt>
<pdfrwt beam="1">  1        2 0.34635465E+00 0.17091060E+04</pdfrwt>
<pdfrwt beam="2">  1       -1 0.49903416E-01 0.17091060E+04</pdfrwt>
<totfact> 0.21088344E+01</totfact>
</mgrwt>
</event>
<event>
12    6  0.1457317E-007  0.1195315E+04  0.7818608E-02  0.9116967E-01
         -1   -1    0    0    0  501 -0.00000000000E+00  0.00000000000E+00  0.28830426368E+03  0.28830426368E+03  0.00000000000E+00 0.  1.
          2   -1    0    0  501    0  0.00000000000E+00 -0.00000000000E+00 -0.12389503286E+04  0.12389503286E+04  0.00000000000E+00 0. -1.
         24    2    1    2    0    0 -0.28406072114E+02 -0.22388240194E+03 -0.58088254776E+03  0.62815958225E+03  0.78928395733E+02 0.  0.
        254    2    1    2    0    0  0.28406072114E+02  0.22388240194E+03 -0.36976351716E+03  0.89909501002E+03  0.78785566164E+03 0.  0.
         23    2    4    4    0    0  0.15653664041E+03  0.42770185329E+03 -0.20834428388E+02  0.46633361467E+03  0.97981486350E+02 0.  0.
         23    2    4    4    0    0 -0.12813056830E+03 -0.20381945135E+03 -0.34892908877E+03  0.43276139534E+03  0.87012097032E+02 0.  0.
          4    1    3    3  502    0 -0.32450940885E+02 -0.22020009019E+03 -0.58151205442E+03  0.62265352542E+03  0.00000000000E+00 0. -1.
         -3    1    3    3    0  502  0.40448687710E+01 -0.36823117521E+01  0.62950665946E+00  0.55060568330E+01  0.00000000000E+00 0.  1.
         11    1    5    5    0    0  0.12986701090E+03  0.23027421520E+03  0.10931079831E+02  0.26459618896E+03  0.00000000000E+00 0. -1.
        -11    1    5    5    0    0  0.26669629511E+02  0.19742763809E+03 -0.31765508219E+02  0.20173742571E+03  0.00000000000E+00 0.  1.
          2    1    6    6  503    0 -0.13375668460E+03 -0.16405517684E+03 -0.26062156637E+03  0.33575072982E+03  0.00000000000E+00 0. -1.
         -2    1    6    6    0  503  0.56261162965E+01 -0.39764274512E+02 -0.88307522401E+02  0.97010665520E+02  0.00000000000E+00 0.  1.
<mgrwt>
<rscale>  0 0.11953153E+04</rscale>
<asrwt>0</asrwt>
<pdfrwt beam="1">  1        2 0.19060774E+00 0.11953153E+04</pdfrwt>
<pdfrwt beam="2">  1       -1 0.44354503E-01 0.11953153E+04</pdfrwt>
<totfact> 0.10159800E+02</totfact>
</mgrwt>
</event>
<event>
12    6  0.1457317E-007  0.1820061E+04  0.7818608E-02  0.8695703E-01
          2   -1    0    0  501    0  0.00000000000E+00  0.00000000000E+00  0.41348756728E+04  0.41348756728E+04  0.00000000000E+00 0. -1.
         -1   -1    0    0    0  501 -0.00000000000E+00 -0.00000000000E+00 -0.20028551999E+03  0.20028551999E+03  0.00000000000E+00 0.  1.
         24    2    1    2    0    0  0.16375644735E+03 -0.41447831645E+03  0.20803719748E+03  0.50032938107E+03  0.91877990680E+02 0.  0.
        254    2    1    2    0    0 -0.16375644735E+03  0.41447831645E+03  0.37265529554E+04  0.38348318118E+04  0.78748310863E+03 0.  0.
         23    2    4    4    0    0  0.38086507736E+02 -0.19861420331E+03  0.14439138444E+04  0.14608979687E+04  0.91855871814E+02 0.  0.
         23    2    4    4    0    0 -0.20184295509E+03  0.61309251976E+03  0.22826391110E+04  0.23739338430E+04  0.92182231267E+02 0.  0.
          2    1    3    3  502    0  0.51560268270E+01  0.45104825783E+01  0.15101860699E+01  0.70149645541E+01  0.00000000000E+00 0. -1.
         -3    1    3    3    0  502  0.15860042053E+03 -0.41898879903E+03  0.20652701141E+03  0.49331441652E+03  0.00000000000E+00 0.  1.
         11    1    5    5    0    0  0.77830305739E+01  0.81249145893E+01  0.41266336108E+02  0.42772658296E+02  0.00000000000E+00 0. -1.
        -11    1    5    5    0    0  0.30303477162E+02 -0.20673911790E+03  0.14026475083E+04  0.14181253104E+04  0.00000000000E+00 0.  1.
          1    1    6    6  503    0 -0.53590878004E+02  0.20694082245E+03  0.61225659347E+03  0.64850182918E+03  0.00000000000E+00 0. -1.
         -1    1    6    6    0  503 -0.14825207708E+03  0.40615169731E+03  0.16703825175E+04  0.17254320138E+04  0.00000000000E+00 0.  1.
<mgrwt>
<rscale>  0 0.18200612E+04</rscale>
<asrwt>0</asrwt>
<pdfrwt beam="1">  1        2 0.63613465E+00 0.18200612E+04</pdfrwt>
<pdfrwt beam="2">  1       -1 0.30813160E-01 0.18200612E+04</pdfrwt>
<totfact> 0.28072805E+00</totfact>
</mgrwt>
</event>
<event>
12    6  0.1457317E-007  0.1316687E+04  0.7818608E-02  0.9016436E-01
          2   -1    0    0  501    0  0.00000000000E+00  0.00000000000E+00  0.10537435324E+04  0.10537435324E+04  0.00000000000E+00 0. -1.
         -1   -1    0    0    0  501 -0.00000000000E+00 -0.00000000000E+00 -0.41131099412E+03  0.41131099412E+03  0.00000000000E+00 0.  1.
         24    2    1    2    0    0 -0.31741714178E+03 -0.66615528637E+02  0.36972679856E+02  0.33411220555E+03  0.71223003922E+02 0.  0.
        254    2    1    2    0    0  0.31741714178E+03  0.66615528637E+02  0.60545985844E+03  0.11309423210E+04  0.89847516531E+03 0.  0.
         23    2    4    4    0    0  0.23037288076E+03 -0.33218248259E+03  0.24131731990E+02  0.41461940065E+03  0.88938411112E+02 0.  0.
         23    2    4    4    0    0  0.87044261022E+02  0.39879801123E+03  0.58132812645E+03  0.71632292035E+03  0.92517990017E+02 0.  0.
          2    1    3    3  502    0 -0.10856099076E+03 -0.38843004685E+02  0.43715337880E+02  0.12330976642E+03  0.00000000000E+00 0. -1.
         -1    1    3    3    0  502 -0.20885615103E+03 -0.27772523952E+02 -0.67426580244E+01  0.21080243913E+03  0.00000000000E+00 0.  1.
         11    1    5    5    0    0  0.58764023717E+02 -0.33816281682E+02  0.18890746579E+02  0.70381898927E+02  0.00000000000E+00 0.  1.
        -11    1    5    5    0    0  0.17160885705E+03 -0.29836620091E+03  0.52409854116E+01  0.34423750172E+03  0.00000000000E+00 0. -1.
          3    1    6    6  503    0  0.30342258869E+02  0.18713356302E+03  0.34762031284E+03  0.39595391775E+03  0.00000000000E+00 0. -1.
         -3    1    6    6    0  503  0.56702002153E+02  0.21166444821E+03  0.23370781361E+03  0.32036900260E+03  0.00000000000E+00 0.  1.
<mgrwt>
<rscale>  0 0.13166872E+04</rscale>
<asrwt>0</asrwt>
<pdfrwt beam="1">  1        2 0.16211439E+00 0.13166872E+04</pdfrwt>
<pdfrwt beam="2">  1       -1 0.63278615E-01 0.13166872E+04</pdfrwt>
<totfact> 0.65858642E+01</totfact>
</mgrwt>
</event>
<event>
12    6  0.1457317E-007  0.2438046E+04  0.7818608E-02  0.8425396E-01
          2   -1    0    0  501    0  0.00000000000E+00  0.00000000000E+00  0.85604855917E+03  0.85604855917E+03  0.00000000000E+00 0. -1.
         -1   -1    0    0    0  501 -0.00000000000E+00 -0.00000000000E+00 -0.17359022113E+04  0.17359022113E+04  0.00000000000E+00 0.  1.
         24    2    1    2    0    0  0.32594495129E+03  0.71311851934E+02  0.68333204824E+03  0.76471765246E+03  0.80776904670E+02 0.  0.
        254    2    1    2    0    0 -0.32594495129E+03 -0.71311851934E+02 -0.15631857004E+04  0.18272331180E+04  0.88538457305E+03 0.  0.
         23    2    4    4    0    0 -0.25033596283E+03  0.38801990778E+03 -0.74424661207E+03  0.88058311749E+03  0.91082732221E+02 0.  0.
         23    2    4    4    0    0 -0.75608988457E+02 -0.45933175972E+03 -0.81893908833E+03  0.94665000054E+03  0.93715572382E+02 0.  0.
          4    1    3    3  502    0  0.31503072648E+03  0.53170561952E+02  0.61288523959E+03  0.69115829171E+03  0.00000000000E+00 0. -1.
         -3    1    3    3    0  502  0.10914224815E+02  0.18141289982E+02  0.70446808648E+02  0.73559360752E+02  0.00000000000E+00 0.  1.
         11    1    5    5    0    0 -0.18415560671E+03  0.28658253713E+03 -0.61777388645E+03  0.70546963992E+03  0.00000000000E+00 0. -1.
        -11    1    5    5    0    0 -0.66180356121E+02  0.10143737065E+03 -0.12647272563E+03  0.17511347758E+03  0.00000000000E+00 0.  1.
          3    1    6    6  503    0 -0.97612145756E+02 -0.39285493530E+03 -0.69443114734E+03  0.80380205871E+03  0.00000000000E+00 0. -1.
         -3    1    6    6    0  503  0.22003157299E+02 -0.66476824414E+02 -0.12450794100E+03  0.14284794183E+03  0.00000000000E+00 0.  1.
<mgrwt>
<rscale>  0 0.24380456E+04</rscale>
<asrwt>0</asrwt>
<pdfrwt beam="1">  1        2 0.13169978E+00 0.24380456E+04</pdfrwt>
<pdfrwt beam="2">  1       -1 0.26706188E+00 0.24380456E+04</pdfrwt>
<totfact> 0.17349146E+00</totfact>
</mgrwt>
</event>
<event>
12    6  0.1457317E-007  0.2143082E+04  0.7818608E-02  0.8542499E-01
         -1   -1    0    0    0  501 -0.00000000000E+00  0.00000000000E+00  0.30379179929E+03  0.30379179929E+03  0.00000000000E+00 0.  1.
          2   -1    0    0  501    0  0.00000000000E+00 -0.00000000000E+00 -0.37795628257E+04  0.37795628257E+04  0.00000000000E+00 0. -1.
         24    2    1    2    0    0 -0.79688784139E+03  0.11549363445E+03 -0.73856465411E+03  0.10954379239E+04  0.78342105884E+02 0.  0.
        254    2    1    2    0    0  0.79688784139E+03 -0.11549363445E+03 -0.27372063723E+04  0.29879167011E+04  0.88711807357E+03 0.  0.
         23    2    4    4    0    0  0.95439383735E+03 -0.11805785524E+03 -0.25446735060E+04  0.27222626051E+04  0.10268975224E+03 0.  0.
         23    2    4    4    0    0 -0.15750599596E+03  0.25642207856E+01 -0.19253286636E+03  0.26565409597E+03  0.93212016847E+02 0.  0.
          2    1    3    3  502    0 -0.11923120330E+03 -0.10470475246E+02 -0.10452844380E+03  0.15890848390E+03  0.00000000000E+00 0. -1.
         -1    1    3    3    0  502 -0.67765663810E+03  0.12596410970E+03 -0.63403621031E+03  0.93652944005E+03  0.00000000000E+00 0.  1.
         11    1    5    5    0    0  0.41468410579E+03 -0.16260080219E+00 -0.10836844669E+04  0.11603167490E+04  0.00000000000E+00 0. -1.
        -11    1    5    5    0    0  0.53970973155E+03 -0.11789525444E+03 -0.14609890390E+04  0.15619458561E+04  0.00000000000E+00 0.  1.
          2    1    6    6  503    0 -0.12414719789E+03 -0.24559804968E+02 -0.18150381321E+03  0.22126758681E+03  0.00000000000E+00 0. -1.
         -2    1    6    6    0  503 -0.33358798069E+02  0.27124025753E+02 -0.11029053151E+02  0.44386509156E+02  0.00000000000E+00 0.  1.
<mgrwt>
<rscale>  0 0.21430821E+04</rscale>
<asrwt>0</asrwt>
<pdfrwt beam="1">  1        2 0.58147120E+00 0.21430821E+04</pdfrwt>
<pdfrwt beam="2">  1       -1 0.46737200E-01 0.21430821E+04</pdfrwt>
<totfact> 0.24410501E+00</totfact>
</mgrwt>
</event>
<event>
12    6  0.1457317E-007  0.1797511E+04  0.7818608E-02  0.8707624E-01
          2   -1    0    0  501    0  0.00000000000E+00  0.00000000000E+00  0.19680942157E+04  0.19680942157E+04  0.00000000000E+00 0. -1.
         -1   -1    0    0    0  501 -0.00000000000E+00 -0.00000000000E+00 -0.41042810402E+03  0.41042810402E+03  0.00000000000E+00 0.  1.
         24    2    1    2    0    0  0.23775157402E+03 -0.13338423048E+02 -0.24601449980E+03  0.35014142205E+03  0.73294998777E+02 0.  0.
        254    2    1    2    0    0 -0.23775157402E+03  0.13338423048E+02  0.18036806114E+04  0.20283808976E+04  0.89686208155E+03 0.  0.
         23    2    4    4    0    0 -0.57137266338E+03  0.43516410511E+02  0.10823883594E+04  0.12280567845E+04  0.90545607144E+02 0.  0.
         23    2    4    4    0    0  0.33362108936E+03 -0.30177987464E+02  0.72129225208E+03  0.80032411316E+03  0.89679601920E+02 0.  0.
          4    1    3    3  502    0  0.34569513076E+02 -0.77289738595E+01 -0.65159689011E+01  0.36017303091E+02  0.00000000000E+00 0. -1.
         -3    1    3    3    0  502  0.20318206095E+03 -0.56094491881E+01 -0.23949853090E+03  0.31412411896E+03  0.00000000000E+00 0.  1.
         11    1    5    5    0    0 -0.15735693328E+03  0.33741288376E+02  0.37995249356E+03  0.41263007205E+03  0.00000000000E+00 0. -1.
        -11    1    5    5    0    0 -0.41401573010E+03  0.97751221357E+01  0.70243586581E+03  0.81542671244E+03  0.00000000000E+00 0.  1.
          1    1    6    6  503    0  0.13226648180E+03 -0.52785160881E+02  0.33788229450E+03  0.36666761564E+03  0.00000000000E+00 0. -1.
         -1    1    6    6    0  503  0.20135460756E+03  0.22607173418E+02  0.38340995758E+03  0.43365649752E+03  0.00000000000E+00 0.  1.
<mgrwt>
<rscale>  0 0.17975107E+04</rscale>
<asrwt>0</asrwt>
<pdfrwt beam="1">  1        2 0.30278372E+00 0.17975107E+04</pdfrwt>
<pdfrwt beam="2">  1       -1 0.63142786E-01 0.17975107E+04</pdfrwt>
<totfact> 0.19039686E+01</totfact>
</mgrwt>
</event>
<event>
12    6  0.1457317E-007  0.1736481E+04  0.7818608E-02  0.8740827E-01
         -1   -1    0    0    0  501 -0.00000000000E+00  0.00000000000E+00  0.11783012922E+04  0.11783012922E+04  0.00000000000E+00 0.  1.
          2   -1    0    0  501    0  0.00000000000E+00 -0.00000000000E+00 -0.63976958588E+03  0.63976958588E+03  0.00000000000E+00 0. -1.
         24    2    1    2    0    0 -0.14273444411E+02  0.60227052068E+03  0.39568232483E+03  0.72510320307E+03  0.79225258726E+02 0.  0.
        254    2    1    2    0    0  0.14273444411E+02 -0.60227052068E+03  0.14284938153E+03  0.10929676751E+04  0.90068800460E+03 0.  0.
         23    2    4    4    0    0  0.51665011725E+01 -0.75583050448E+03  0.33326762673E+03  0.83100189427E+03  0.90500790121E+02 0.  0.
         23    2    4    4    0    0  0.91069432388E+01  0.15355998380E+03 -0.19041824520E+03  0.26196578080E+03  0.93291785084E+02 0.  0.
          2    1    3    3  502    0  0.10989491413E+02  0.40000904312E+03  0.29884878380E+03  0.49943828356E+03  0.00000000000E+00 0. -1.
         -1    1    3    3    0  502 -0.25262935824E+02  0.20226147756E+03  0.96833541028E+02  0.22566491951E+03  0.00000000000E+00 0.  1.
         11    1    5    5    0    0 -0.38513508154E+02 -0.26315845020E+03  0.99875294048E+02  0.28409634736E+03  0.00000000000E+00 0.  1.
        -11    1    5    5    0    0  0.43680009327E+02 -0.49267205428E+03  0.23339233268E+03  0.54690554691E+03  0.00000000000E+00 0. -1.
          1    1    6    6  503    0 -0.37516715038E+02  0.80744417765E+02 -0.67714691267E+02  0.11185903772E+03  0.00000000000E+00 0. -1.
         -1    1    6    6    0  503  0.46623658276E+02  0.72815566033E+02 -0.12270355393E+03  0.15010674307E+03  0.00000000000E+00 0.  1.
<mgrwt>
<rscale>  0 0.17364807E+04</rscale>
<asrwt>0</asrwt>
<pdfrwt beam="1">  1        2 0.98426090E-01 0.17364807E+04</pdfrwt>
<pdfrwt beam="2">  1       -1 0.18127712E+00 0.17364807E+04</pdfrwt>
<totfact> 0.10124370E+01</totfact>
</mgrwt>
</event>
<event>
12    6  0.1457317E-007  0.1824589E+04  0.7818608E-02  0.8693332E-01
          2   -1    0    0  501    0  0.00000000000E+00  0.00000000000E+00  0.44479785004E+03  0.44479785004E+03  0.00000000000E+00 0. -1.
         -1   -1    0    0    0  501 -0.00000000000E+00 -0.00000000000E+00 -0.18711448676E+04  0.18711448676E+04  0.00000000000E+00 0.  1.
         24    2    1    2    0    0  0.35919116512E+03 -0.39412034690E+03 -0.10589605457E+04  0.11884691456E+04  0.81928821159E+02 0.  0.
        254    2    1    2    0    0 -0.35919116512E+03  0.39412034690E+03 -0.36738647183E+03  0.11274735720E+04  0.92297058186E+03 0.  0.
         23    2    4    4    0    0 -0.40389048853E+01 -0.68568147176E+02 -0.50786708490E+03  0.52084765376E+03  0.92926847279E+02 0.  0.
         23    2    4    4    0    0 -0.35515226023E+03  0.46268849407E+03  0.14048061307E+03  0.60662591825E+03  0.89701903825E+02 0.  0.
          2    1    3    3  502    0  0.30661542088E+02 -0.80040592750E+01 -0.79471673752E+02  0.85556659922E+02  0.00000000000E+00 0. -1.
         -1    1    3    3    0  502  0.32852962303E+03 -0.38611628762E+03 -0.97948887197E+03  0.11029124857E+04  0.00000000000E+00 0.  1.
         11    1    5    5    0    0 -0.41973334409E+01  0.12061947274E+02 -0.92898348669E+01  0.15792694890E+02  0.00000000000E+00 0. -1.
        -11    1    5    5    0    0  0.15842855561E+00 -0.80630094449E+02 -0.49857725003E+03  0.50505495887E+03  0.00000000000E+00 0.  1.
          4    1    6    6  503    0 -0.10109975741E+03  0.72768485100E+02  0.35953929877E+02  0.12964990723E+03  0.00000000000E+00 0. -1.
         -4    1    6    6    0  503 -0.25405250282E+03  0.38992000897E+03  0.10452668320E+03  0.47697601102E+03  0.00000000000E+00 0.  1.
<mgrwt>
<rscale>  0 0.18245890E+04</rscale>
<asrwt>0</asrwt>
<pdfrwt beam="1">  1        2 0.68430439E-01 0.18245890E+04</pdfrwt>
<pdfrwt beam="2">  1       -1 0.28786844E+00 0.18245890E+04</pdfrwt>
<totfact> 0.30066643E+00</totfact>
</mgrwt>
</event>
<event>
12    6  0.1457317E-007  0.1241320E+04  0.7818608E-02  0.9077438E-01
          4   -1    0    0  501    0  0.00000000000E+00  0.00000000000E+00  0.10129032876E+04  0.10129032876E+04  0.00000000000E+00 0. -1.
         -3   -1    0    0    0  501 -0.00000000000E+00 -0.00000000000E+00 -0.38031170364E+03  0.38031170364E+03  0.00000000000E+00 0.  1.
         24    2    1    2    0    0  0.17588457008E+01 -0.14535220777E+03 -0.92547262830E+02  0.18977124279E+03  0.79484406595E+02 0.  0.
        254    2    1    2    0    0 -0.17588457008E+01  0.14535220777E+03  0.72513884674E+03  0.12034437484E+04  0.94937882359E+03 0.  0.
         23    2    4    4    0    0  0.36339138131E+03  0.11047663389E+03  0.72773899983E+03  0.82592627823E+03  0.91059225519E+02 0.  0.
         23    2    4    4    0    0 -0.36515022701E+03  0.34875573881E+02 -0.26001530835E+01  0.37751747018E+03  0.89228277757E+02 0.  0.
          2    1    3    3  502    0 -0.92224398252E+00  0.32724885173E+00  0.10985613890E+02  0.11029113216E+02  0.00000000000E+00 0. -1.
         -1    1    3    3    0  502  0.26810896833E+01 -0.14567945662E+03 -0.10353287672E+03  0.17874212958E+03  0.00000000000E+00 0.  1.
         11    1    5    5    0    0  0.57463065921E+02  0.49786028995E+02  0.10731038890E+03  0.13151491244E+03  0.00000000000E+00 0.  1.
        -11    1    5    5    0    0  0.30592831539E+03  0.60690604896E+02  0.62042861093E+03  0.69441136579E+03  0.00000000000E+00 0. -1.
          1    1    6    6  503    0 -0.29894900694E+03  0.62412008001E+02  0.48392762753E+01  0.30543278489E+03  0.00000000000E+00 0. -1.
         -1    1    6    6    0  503 -0.66201220075E+02 -0.27536434120E+02 -0.74394293587E+01  0.72084685285E+02  0.00000000000E+00 0.  1.
<mgrwt>
<rscale>  0 0.12413202E+04</rscale>
<asrwt>0</asrwt>
<pdfrwt beam="1">  1        4 0.15583127E+00 0.12413202E+04</pdfrwt>
<pdfrwt beam="2">  1       -3 0.58509493E-01 0.12413202E+04</pdfrwt>
<totfact> 0.17308635E+00</totfact>
</mgrwt>
</event>
<event>
12    6  0.1457317E-007  0.2847282E+04  0.7818608E-02  0.8288738E-01
         -1   -1    0    0    0  501 -0.00000000000E+00  0.00000000000E+00  0.55482326446E+03  0.55482326446E+03  0.00000000000E+00 0.  1.
          2   -1    0    0  501    0  0.00000000000E+00 -0.00000000000E+00 -0.36529726325E+04  0.36529726325E+04  0.00000000000E+00 0. -1.
         24    2    1    2    0    0 -0.16928110933E+03 -0.12355827193E+04 -0.18328953120E+04  0.22183181423E+04  0.78162686219E+02 0.  0.
        254    2    1    2    0    0  0.16928110933E+03  0.12355827193E+04 -0.12652540560E+04  0.19894777546E+04  0.89545137205E+03 0.  0.
         23    2    4    4    0    0  0.43003234128E+03  0.25893999016E+03 -0.31692772081E+03  0.60066751868E+03  0.91545369795E+02 0.  0.
         23    2    4    4    0    0 -0.26075123194E+03  0.97664272915E+03 -0.94832633520E+03  0.13888102360E+04  0.87457464511E+02 0.  0.
          2    1    3    3  502    0 -0.15976791122E+03 -0.99523732653E+03 -0.15148468248E+04  0.18195559965E+04  0.00000000000E+00 0. -1.
         -1    1    3    3    0  502 -0.95131981135E+01 -0.24034539278E+03 -0.31804848721E+03  0.39876214587E+03  0.00000000000E+00 0.  1.
         11    1    5    5    0    0  0.38497702228E+03  0.19508595254E+03 -0.25835165084E+03  0.50300239766E+03  0.00000000000E+00 0. -1.
        -11    1    5    5    0    0  0.45055318994E+02  0.63854037613E+02 -0.58576069976E+02  0.97665121015E+02  0.00000000000E+00 0.  1.
          2    1    6    6  503    0 -0.10195263000E+03  0.52892022971E+03 -0.53339927965E+03  0.75806710764E+03  0.00000000000E+00 0.  1.
         -2    1    6    6    0  503 -0.15879860195E+03  0.44772249944E+03 -0.41492705555E+03  0.63074312831E+03  0.00000000000E+00 0. -1.
<mgrwt>
<rscale>  0 0.28472824E+04</rscale>
<asrwt>0</asrwt>
<pdfrwt beam="1">  1        2 0.56199578E+00 0.28472824E+04</pdfrwt>
<pdfrwt beam="2">  1       -1 0.85357427E-01 0.28472824E+04</pdfrwt>
<totfact> 0.84444282E-01</totfact>
</mgrwt>
</event>
<event>
12    6  0.1457317E-007  0.1418255E+04  0.7818608E-02  0.8940709E-01
          2   -1    0    0  501    0  0.00000000000E+00  0.00000000000E+00  0.74692878932E+03  0.74692878932E+03  0.00000000000E+00 0. -1.
         -1   -1    0    0    0  501 -0.00000000000E+00 -0.00000000000E+00 -0.67323961554E+03  0.67323961554E+03  0.00000000000E+00 0.  1.
         24    2    1    2    0    0  0.41104696547E+03  0.74050163804E+02  0.77600911286E+02  0.43378798988E+03  0.87790000314E+02 0.  0.
        254    2    1    2    0    0 -0.41104696547E+03 -0.74050163804E+02 -0.39117375074E+01  0.98638041497E+03  0.89358155015E+03 0.  0.
         23    2    4    4    0    0 -0.56936404977E+03 -0.32478780474E+03 -0.81411666223E+02  0.66657377782E+03  0.89611397700E+02 0.  0.
         23    2    4    4    0    0  0.15831708431E+03  0.25073764093E+03  0.77499928715E+02  0.31980663715E+03  0.91303792107E+02 0.  0.
          2    1    3    3  502    0  0.20473534281E+03  0.62960386703E+02  0.75666365382E+02  0.22716947361E+03  0.00000000000E+00 0. -1.
         -1    1    3    3    0  502  0.20631162266E+03  0.11089777101E+02  0.19345459040E+01  0.20661851628E+03  0.00000000000E+00 0.  1.
         11    1    5    5    0    0 -0.47646548198E+03 -0.23754373301E+03 -0.84679638238E+02  0.53908906661E+03  0.00000000000E+00 0. -1.
        -11    1    5    5    0    0 -0.92898567798E+02 -0.87244071733E+02  0.32679720149E+01  0.12748471121E+03  0.00000000000E+00 0.  1.
          3    1    6    6  503    0  0.14980045471E+03  0.22851319975E+03  0.96053838910E+02  0.28962872554E+03  0.00000000000E+00 0. -1.
         -3    1    6    6    0  503  0.85166295964E+01  0.22224441187E+02 -0.18553910195E+02  0.30177911612E+02  0.00000000000E+00 0.  1.
<mgrwt>
<rscale>  0 0.14182553E+04</rscale>
<asrwt>0</asrwt>
<pdfrwt beam="1">  1        2 0.11491212E+00 0.14182553E+04</pdfrwt>
<pdfrwt beam="2">  1       -1 0.10357533E+00 0.14182553E+04</pdfrwt>
<totfact> 0.36794530E+01</totfact>
</mgrwt>
</event>
<event>
12    6  0.1457317E-007  0.1578695E+04  0.7818608E-02  0.8833744E-01
         -1   -1    0    0    0  501 -0.00000000000E+00  0.00000000000E+00  0.45102221462E+03  0.45102221462E+03  0.00000000000E+00 0.  1.
          2   -1    0    0  501    0  0.00000000000E+00 -0.00000000000E+00 -0.13814605875E+04  0.13814605875E+04  0.00000000000E+00 0. -1.
         24    2    1    2    0    0 -0.26892250290E+03 -0.44631301349E+03 -0.41333816875E+03  0.67063511259E+03  0.85955767216E+02 0.  0.
        254    2    1    2    0    0  0.26892250290E+03  0.44631301349E+03 -0.51710020414E+03  0.11618476895E+04  0.90054584225E+03 0.  0.
         23    2    4    4    0    0  0.36964538974E+03  0.46115111174E+03 -0.70715960074E+03  0.92675561408E+03  0.97484384968E+02 0.  0.
         23    2    4    4    0    0 -0.10072288684E+03 -0.14838098246E+02  0.19005939660E+03  0.23509207545E+03  0.93704005311E+02 0.  0.
          2    1    3    3  502    0 -0.23127702070E+03 -0.42679096722E+03 -0.37401304942E+03  0.61280123298E+03  0.00000000000E+00 0. -1.
         -1    1    3    3    0  502 -0.37645482199E+02 -0.19522046270E+02 -0.39325119326E+02  0.57833879609E+02  0.00000000000E+00 0.  1.
         11    1    5    5    0    0  0.25393381384E+02  0.23488897662E+02 -0.13220735857E+02  0.37031607960E+02  0.00000000000E+00 0. -1.
        -11    1    5    5    0    0  0.34425200836E+03  0.43766221407E+03 -0.69393886488E+03  0.88972400612E+03  0.00000000000E+00 0.  1.
          1    1    6    6  503    0 -0.56362742166E+02 -0.85832472215E+01  0.21910680023E+02  0.61077890734E+02  0.00000000000E+00 0. -1.
         -1    1    6    6    0  503 -0.44360144677E+02 -0.62548510246E+01  0.16814871658E+03  0.17401418472E+03  0.00000000000E+00 0.  1.
<mgrwt>
<rscale>  0 0.15786949E+04</rscale>
<asrwt>0</asrwt>
<pdfrwt beam="1">  1        2 0.21253240E+00 0.15786949E+04</pdfrwt>
<pdfrwt beam="2">  1       -1 0.69388034E-01 0.15786949E+04</pdfrwt>
<totfact> 0.34105679E+01</totfact>
</mgrwt>
</event>
<event>
12    6  0.1457317E-007  0.3535484E+04  0.7818608E-02  0.8105432E-01
         -1   -1    0    0    0  501 -0.00000000000E+00  0.00000000000E+00  0.97455748958E+03  0.97455748958E+03  0.00000000000E+00 0.  1.
          2   -1    0    0  501    0  0.00000000000E+00 -0.00000000000E+00 -0.32064931389E+04  0.32064931389E+04  0.00000000000E+00 0. -1.
         24    2    1    2    0    0  0.15360834458E+04  0.51159101404E+03 -0.65330764193E+03  0.17476873041E+04  0.79513016546E+02 0.  0.
        254    2    1    2    0    0 -0.15360834458E+04 -0.51159101404E+03 -0.15786280074E+04  0.24333633244E+04  0.89883978817E+03 0.  0.
         23    2    4    4    0    0 -0.90115342710E+02 -0.37061412565E+03 -0.26317362621E+03  0.47138705626E+03  0.86427970915E+02 0.  0.
         23    2    4    4    0    0 -0.14459681031E+04 -0.14097688839E+03 -0.13154543812E+04  0.19619762682E+04  0.90732627207E+02 0.  0.
          2    1    3    3  502    0  0.42707894177E+03  0.12375664357E+03 -0.14636859131E+03  0.46811952945E+03  0.00000000000E+00 0. -1.
         -1    1    3    3    0  502  0.11090045040E+04  0.38783437047E+03 -0.50693905062E+03  0.12795677746E+04  0.00000000000E+00 0.  1.
         11    1    5    5    0    0 -0.47095239591E+02 -0.20135140294E+03 -0.90269115329E+02  0.22562992319E+03  0.00000000000E+00 0. -1.
        -11    1    5    5    0    0 -0.43020103119E+02 -0.16926272271E+03 -0.17290451088E+03  0.24575713307E+03  0.00000000000E+00 0.  1.
          3    1    6    6  503    0 -0.64124408518E+03 -0.92011357015E+02 -0.63237919454E+03  0.90529747171E+03  0.00000000000E+00 0. -1.
         -3    1    6    6    0  503 -0.80472401788E+03 -0.48965531377E+02 -0.68307518667E+03  0.10566787964E+04  0.00000000000E+00 0.  1.
<mgrwt>
<rscale>  0 0.35354841E+04</rscale>
<asrwt>0</asrwt>
<pdfrwt beam="1">  1        2 0.49330663E+00 0.35354841E+04</pdfrwt>
<pdfrwt beam="2">  1       -1 0.14993192E+00 0.35354841E+04</pdfrwt>
<totfact> 0.41686340E-01</totfact>
</mgrwt>
</event>
<event>
12    6  0.1457317E-007  0.3316714E+04  0.7818608E-02  0.8158655E-01
          2   -1    0    0  501    0  0.00000000000E+00  0.00000000000E+00  0.10559106104E+04  0.10559106104E+04  0.00000000000E+00 0. -1.
         -1   -1    0    0    0  501 -0.00000000000E+00 -0.00000000000E+00 -0.26045278495E+04  0.26045278495E+04  0.00000000000E+00 0.  1.
         24    2    1    2    0    0  0.22179581615E+03 -0.12683469737E+04  0.20884648167E+03  0.13068827702E+04  0.80176631270E+02 0.  0.
        254    2    1    2    0    0 -0.22179581615E+03  0.12683469737E+04 -0.17574637208E+04  0.23535556897E+04  0.89030793806E+03 0.  0.
         23    2    4    4    0    0  0.57346106196E+02  0.91024149395E+03 -0.57141371363E+03  0.10802906066E+04  0.93198762508E+02 0.  0.
         23    2    4    4    0    0 -0.27914192234E+03  0.35810547978E+03 -0.11860500072E+04  0.12732650831E+04  0.91266668843E+02 0.  0.
          4    1    3    3  502    0  0.16811028339E+03 -0.11037391466E+04  0.19288493761E+03  0.11330074008E+04  0.00000000000E+00 0. -1.
         -3    1    3    3    0  502  0.53685532756E+02 -0.16460782712E+03  0.15961544069E+02  0.17387536934E+03  0.00000000000E+00 0.  1.
         11    1    5    5    0    0  0.25423698894E+02  0.25063850126E+03 -0.20687548357E+03  0.32598080999E+03  0.00000000000E+00 0. -1.
        -11    1    5    5    0    0  0.31922407302E+02  0.65960299269E+03 -0.36453823006E+03  0.75430979659E+03  0.00000000000E+00 0.  1.
          4    1    6    6  503    0 -0.43355203485E+02  0.13320343611E+02 -0.10947081856E+03  0.11849457937E+03  0.00000000000E+00 0. -1.
         -4    1    6    6    0  503 -0.23578671886E+03  0.34478513617E+03 -0.10765791886E+04  0.11547705037E+04  0.00000000000E+00 0.  1.
<mgrwt>
<rscale>  0 0.33167144E+04</rscale>
<asrwt>0</asrwt>
<pdfrwt beam="1">  1        2 0.16244779E+00 0.33167144E+04</pdfrwt>
<pdfrwt beam="2">  1       -1 0.40069659E+00 0.33167144E+04</pdfrwt>
<totfact> 0.15592926E-01</totfact>
</mgrwt>
</event>
<event>
12    6  0.1457317E-007  0.2007683E+04  0.7818608E-02  0.8603037E-01
         -1   -1    0    0    0  501 -0.00000000000E+00  0.00000000000E+00  0.65323772672E+03  0.65323772672E+03  0.00000000000E+00 0.  1.
          2   -1    0    0  501    0  0.00000000000E+00 -0.00000000000E+00 -0.15426200028E+04  0.15426200028E+04  0.00000000000E+00 0. -1.
         24    2    1    2    0    0 -0.32557313631E+03  0.69004670612E+03 -0.14395071831E+03  0.78053121840E+03  0.79654565957E+02 0.  0.
        254    2    1    2    0    0  0.32557313631E+03 -0.69004670612E+03 -0.74543155781E+03  0.14153265112E+04  0.93022502766E+03 0.  0.
         23    2    4    4    0    0  0.55974577403E+03 -0.54438519461E+03 -0.79788775043E+03  0.11200402762E+04  0.90525059842E+02 0.  0.
         23    2    4    4    0    0 -0.23417263772E+03 -0.14566151151E+03  0.52456192620E+02  0.29528623492E+03  0.91587161739E+02 0.  0.
          2    1    3    3  502    0 -0.11321409648E+03  0.25303782098E+03 -0.13923224900E+02  0.27755977136E+03  0.00000000000E+00 0. -1.
         -1    1    3    3    0  502 -0.21235903983E+03  0.43700888515E+03 -0.13002749341E+03  0.50297144704E+03  0.00000000000E+00 0.  1.
         11    1    5    5    0    0  0.45385634488E+03 -0.41479504356E+03 -0.67042956420E+03  0.90967923496E+03  0.00000000000E+00 0. -1.
        -11    1    5    5    0    0  0.10588942915E+03 -0.12959015105E+03 -0.12745818623E+03  0.21036104129E+03  0.00000000000E+00 0.  1.
          1    1    6    6  503    0 -0.17579631630E+03 -0.14712793721E+03  0.24503095194E+02  0.23054582279E+03  0.00000000000E+00 0. -1.
         -1    1    6    6    0  503 -0.58376321422E+02  0.14664256956E+01  0.27953097427E+02  0.64740412130E+02  0.00000000000E+00 0.  1.
<mgrwt>
<rscale>  0 0.20076828E+04</rscale>
<asrwt>0</asrwt>
<pdfrwt beam="1">  1        2 0.23732615E+00 0.20076828E+04</pdfrwt>
<pdfrwt beam="2">  1       -1 0.10049811E+00 0.20076828E+04</pdfrwt>
<totfact> 0.11971656E+01</totfact>
</mgrwt>
</event>
<event>
12    6  0.1457317E-007  0.1559548E+04  0.7818608E-02  0.8845792E-01
          2   -1    0    0  501    0  0.00000000000E+00  0.00000000000E+00  0.39617742418E+04  0.39617742418E+04  0.00000000000E+00 0. -1.
         -1   -1    0    0    0  501 -0.00000000000E+00 -0.00000000000E+00 -0.15347848790E+03  0.15347848790E+03  0.00000000000E+00 0.  1.
         24    2    1    2    0    0  0.36735295128E+03  0.27283742788E+03  0.65070754438E+03  0.79938322655E+03  0.78770436758E+02 0.  0.
        254    2    1    2    0    0 -0.36735295128E+03 -0.27283742788E+03  0.31575882096E+04  0.33158695032E+04  0.90290575821E+03 0.  0.
         23    2    4    4    0    0  0.55314009261E+02  0.21916457852E+03  0.31137008391E+03  0.39519819697E+03  0.90208279205E+02 0.  0.
         23    2    4    4    0    0 -0.42266696055E+03 -0.49200200640E+03  0.28462181256E+04  0.29206713062E+04  0.93004980502E+02 0.  0.
          2    1    3    3  502    0  0.12565395356E+03  0.11796354283E+03  0.18965263032E+03  0.25626633347E+03  0.00000000000E+00 0. -1.
         -1    1    3    3    0  502  0.24169899773E+03  0.15487388505E+03  0.46105491406E+03  0.54311689308E+03  0.00000000000E+00 0.  1.
         11    1    5    5    0    0  0.20513138188E+01  0.11395904896E+03  0.21323450641E+03  0.24178467167E+03  0.00000000000E+00 0.  1.
        -11    1    5    5    0    0  0.53262695443E+02  0.10520552956E+03  0.98135577499E+02  0.15341352530E+03  0.00000000000E+00 0. -1.
          3    1    6    6  503    0 -0.24507558091E+03 -0.33743971417E+03  0.16867607264E+04  0.17375526896E+04  0.00000000000E+00 0. -1.
         -3    1    6    6    0  503 -0.17759137963E+03 -0.15456229223E+03  0.11594573993E+04  0.11831186166E+04  0.00000000000E+00 0.  1.
<mgrwt>
<rscale>  0 0.15595475E+04</rscale>
<asrwt>0</asrwt>
<pdfrwt beam="1">  1        2 0.60950365E+00 0.15595475E+04</pdfrwt>
<pdfrwt beam="2">  1       -1 0.23612078E-01 0.15595475E+04</pdfrwt>
<totfact> 0.63436787E+00</totfact>
</mgrwt>
</event>
<event>
12    6  0.1457317E-007  0.1402577E+04  0.7818608E-02  0.8951955E-01
          2   -1    0    0  501    0  0.00000000000E+00  0.00000000000E+00  0.98337840943E+03  0.98337840943E+03  0.00000000000E+00 0. -1.
         -1   -1    0    0    0  501 -0.00000000000E+00 -0.00000000000E+00 -0.50011822991E+03  0.50011822991E+03  0.00000000000E+00 0.  1.
         24    2    1    2    0    0  0.66428713443E+02 -0.45954298149E+02 -0.27730888618E+03  0.29946763709E+03  0.79095359073E+02 0.  0.
        254    2    1    2    0    0 -0.66428713443E+02  0.45954298149E+02  0.76056906570E+03  0.11840290022E+04  0.90384445729E+03 0.  0.
         23    2    4    4    0    0 -0.13317898046E+03 -0.19952662520E+03 -0.10553303448E+03  0.27719999469E+03  0.90305596094E+02 0.  0.
         23    2    4    4    0    0  0.66750267021E+02  0.24548092335E+03  0.86610210019E+03  0.90682900756E+03  0.86542007848E+02 0.  0.
          2    1    3    3  502    0  0.20676191630E+02 -0.59792723225E+02 -0.12961610456E+03  0.14423248321E+03  0.00000000000E+00 0. -1.
         -1    1    3    3    0  502  0.45752521813E+02  0.13838425076E+02 -0.14769278162E+03  0.15523515389E+03  0.00000000000E+00 0.  1.
         11    1    5    5    0    0 -0.11986029952E+02 -0.96219492061E+02 -0.43951085434E+02  0.10645916343E+03  0.00000000000E+00 0.  1.
        -11    1    5    5    0    0 -0.12119295051E+03 -0.10330713314E+03 -0.61581949049E+02  0.17074083126E+03  0.00000000000E+00 0. -1.
          3    1    6    6  503    0  0.51181677218E+02  0.24570924840E+03  0.78173864670E+03  0.82104074842E+03  0.00000000000E+00 0. -1.
         -3    1    6    6    0  503  0.15568589803E+02 -0.22832504285E+00  0.84363453486E+02  0.85788259132E+02  0.00000000000E+00 0.  1.
<mgrwt>
<rscale>  0 0.14025769E+04</rscale>
<asrwt>0</asrwt>
<pdfrwt beam="1">  1        2 0.15128899E+00 0.14025769E+04</pdfrwt>
<pdfrwt beam="2">  1       -1 0.76941267E-01 0.14025769E+04</pdfrwt>
<totfact> 0.48584088E+01</totfact>
</mgrwt>
</event>
<event>
12    6  0.1457317E-007  0.1750121E+04  0.7818608E-02  0.8733284E-01
         -3   -1    0    0    0  501 -0.00000000000E+00  0.00000000000E+00  0.50819708166E+03  0.50819708166E+03  0.00000000000E+00 0.  1.
          2   -1    0    0  501    0  0.00000000000E+00 -0.00000000000E+00 -0.15067599093E+04  0.15067599093E+04  0.00000000000E+00 0. -1.
         24    2    1    2    0    0 -0.21143806650E+03  0.60835619680E+03 -0.49642794032E+03  0.81662089029E+03  0.75004402373E+02 0.  0.
        254    2    1    2    0    0  0.21143806650E+03 -0.60835619680E+03 -0.50213488737E+03  0.11983361007E+04  0.87696445025E+03 0.  0.
         23    2    4    4    0    0  0.20225538683E+03 -0.21838902057E+01  0.17634685301E+03  0.28409206735E+03  0.93263493856E+02 0.  0.
         23    2    4    4    0    0  0.91826796696E+01 -0.60617230660E+03 -0.67848174038E+03  0.91424403336E+03  0.89305619231E+02 0.  0.
          4    1    3    3  502    0 -0.16215905757E+03  0.39523105305E+03 -0.29411150944E+03  0.51865665448E+03  0.00000000000E+00 0. -1.
         -3    1    3    3    0  502 -0.49279008929E+02  0.21312514375E+03 -0.20231643088E+03  0.29796423582E+03  0.00000000000E+00 0.  1.
         11    1    5    5    0    0  0.17490715421E+03 -0.32086251005E+02  0.11937395655E+03  0.21417792043E+03  0.00000000000E+00 0.  1.
        -11    1    5    5    0    0  0.27348232623E+02  0.29902360799E+02  0.56972896456E+02  0.69914146920E+02  0.00000000000E+00 0. -1.
          3    1    6    6  503    0  0.35746527741E+02 -0.28678331232E+03 -0.27465900772E+03  0.39869794706E+03  0.00000000000E+00 0. -1.
         -3    1    6    6    0  503 -0.26563848072E+02 -0.31938899428E+03 -0.40382273266E+03  0.51554608630E+03  0.00000000000E+00 0.  1.
<mgrwt>
<rscale>  0 0.17501211E+04</rscale>
<asrwt>0</asrwt>
<pdfrwt beam="1">  1        2 0.23180922E+00 0.17501211E+04</pdfrwt>
<pdfrwt beam="2">  1       -3 0.78184167E-01 0.17501211E+04</pdfrwt>
<totfact> 0.11639602E+01</totfact>
</mgrwt>
</event>
<event>
12    6  0.1457317E-007  0.2116925E+04  0.7818608E-02  0.8553824E-01
         -1   -1    0    0    0  501 -0.00000000000E+00  0.00000000000E+00  0.88136642657E+03  0.88136642657E+03  0.00000000000E+00 0.  1.
          2   -1    0    0  501    0  0.00000000000E+00 -0.00000000000E+00 -0.12711431625E+04  0.12711431625E+04  0.00000000000E+00 0. -1.
         24    2    1    2    0    0 -0.36673795756E+03  0.16696402612E+03 -0.93298574524E+03  0.10193640065E+04  0.79163510347E+02 0.  0.
        254    2    1    2    0    0  0.36673795756E+03 -0.16696402612E+03  0.54320900932E+03  0.11331455826E+04  0.90915849442E+03 0.  0.
         23    2    4    4    0    0  0.37325545422E+03 -0.28684690928E+03 -0.84930764770E+02  0.48698604997E+03  0.91331235587E+02 0.  0.
         23    2    4    4    0    0 -0.65174966529E+01  0.11988288316E+03  0.62813977409E+03  0.64615953261E+03  0.92456380789E+02 0.  0.
          2    1    3    3  502    0 -0.29353148545E+03  0.14701250650E+03 -0.67747684156E+03  0.75282685982E+03  0.00000000000E+00 0. -1.
         -1    1    3    3    0  502 -0.73206472108E+02  0.19951519620E+02 -0.25550890368E+03  0.26653714666E+03  0.00000000000E+00 0.  1.
         11    1    5    5    0    0  0.48309917962E+02 -0.96166150393E+01  0.78739838804E+01  0.49883134228E+02  0.00000000000E+00 0. -1.
        -11    1    5    5    0    0  0.32494553625E+03 -0.27723029424E+03 -0.92804748651E+02  0.43710291574E+03  0.00000000000E+00 0.  1.
          2    1    6    6  503    0 -0.24581628568E+02  0.17118850178E+00  0.53108962850E+02  0.58522198382E+02  0.00000000000E+00 0. -1.
         -2    1    6    6    0  503  0.18064131915E+02  0.11971169466E+03  0.57503081124E+03  0.58763733423E+03  0.00000000000E+00 0.  1.
<mgrwt>
<rscale>  0 0.21169250E+04</rscale>
<asrwt>0</asrwt>
<pdfrwt beam="1">  1        2 0.19556049E+00 0.21169250E+04</pdfrwt>
<pdfrwt beam="2">  1       -1 0.13559483E+00 0.21169250E+04</pdfrwt>
<totfact> 0.82125631E+00</totfact>
</mgrwt>
</event>
<event>
12    6  0.1457317E-007  0.1511590E+04  0.7818608E-02  0.8876782E-01
         -1   -1    0    0    0  501 -0.00000000000E+00  0.00000000000E+00  0.42354239589E+03  0.42354239589E+03  0.00000000000E+00 0.  1.
          2   -1    0    0  501    0  0.00000000000E+00 -0.00000000000E+00 -0.13486874258E+04  0.13486874258E+04  0.00000000000E+00 0. -1.
         24    2    1    2    0    0  0.95907838271E+02 -0.43826057452E+03 -0.96331881679E+02  0.46565017042E+03  0.79243959786E+02 0.  0.
        254    2    1    2    0    0 -0.95907838271E+02  0.43826057452E+03 -0.82881314826E+03  0.13065796513E+04  0.90495773704E+03 0.  0.
         23    2    4    4    0    0 -0.31059050319E+03 -0.16447482813E+03 -0.26924056993E+03  0.45164764669E+03  0.89312275186E+02 0.  0.
         23    2    4    4    0    0  0.21468266492E+03  0.60273540265E+03 -0.55957257832E+03  0.85493200461E+03  0.91698690670E+02 0.  0.
          2    1    3    3  502    0  0.29894286287E+02 -0.32933074969E+02 -0.15512552738E+02  0.47105149102E+02  0.00000000000E+00 0. -1.
         -1    1    3    3    0  502  0.66013551984E+02 -0.40532749955E+03 -0.80819328940E+02  0.41854502131E+03  0.00000000000E+00 0.  1.
         11    1    5    5    0    0 -0.20998678808E+03 -0.80811931463E+02 -0.12695707742E+03  0.25834689652E+03  0.00000000000E+00 0. -1.
        -11    1    5    5    0    0 -0.10060371511E+03 -0.83662896667E+02 -0.14228349251E+03  0.19330075016E+03  0.00000000000E+00 0.  1.
          4    1    6    6  503    0  0.12731825273E+03  0.23342325456E+03 -0.25374716785E+03  0.36753772384E+03  0.00000000000E+00 0. -1.
         -4    1    6    6    0  503  0.87364412186E+02  0.36931214809E+03 -0.30582541047E+03  0.48739428077E+03  0.00000000000E+00 0.  1.
<mgrwt>
<rscale>  0 0.15115903E+04</rscale>
<asrwt>0</asrwt>
<pdfrwt beam="1">  1        2 0.20749038E+00 0.15115903E+04</pdfrwt>
<pdfrwt beam="2">  1       -1 0.65160367E-01 0.15115903E+04</pdfrwt>
<totfact> 0.40695028E+01</totfact>
</mgrwt>
</event>
<event>
12    6  0.1457317E-007  0.1839190E+04  0.7818608E-02  0.8685732E-01
         -1   -1    0    0    0  501 -0.00000000000E+00  0.00000000000E+00  0.24051513206E+03  0.24051513206E+03  0.00000000000E+00 0.  1.
          2   -1    0    0  501    0  0.00000000000E+00 -0.00000000000E+00 -0.35160161833E+04  0.35160161833E+04  0.00000000000E+00 0. -1.
         24    2    1    2    0    0 -0.27317376477E+03  0.10602433400E+03 -0.25355078685E+04  0.25536573769E+04  0.80627426183E+02 0.  0.
        254    2    1    2    0    0  0.27317376477E+03 -0.10602433400E+03 -0.73999318268E+03  0.12028739385E+04  0.90191503830E+03 0.  0.
         23    2    4    4    0    0 -0.23356880038E+03 -0.29128355776E+03 -0.41795068167E+03  0.56765768526E+03  0.90288314823E+02 0.  0.
         23    2    4    4    0    0  0.50674256515E+03  0.18525922376E+03 -0.32204250100E+03  0.63521625321E+03  0.93162806824E+02 0.  0.
          2    1    3    3  502    0 -0.10448900694E+03  0.42814082021E+02 -0.13272462961E+04  0.13320411888E+04  0.00000000000E+00 0. -1.
         -1    1    3    3    0  502 -0.16868475783E+03  0.63210251978E+02 -0.12082615724E+04  0.12216161880E+04  0.00000000000E+00 0.  1.
         11    1    5    5    0    0 -0.13569025972E+03 -0.18113098528E+03 -0.31511578629E+03  0.38796680165E+03  0.00000000000E+00 0. -1.
        -11    1    5    5    0    0 -0.97878540661E+02 -0.11015257248E+03 -0.10283489539E+03  0.17969088362E+03  0.00000000000E+00 0.  1.
          3    1    6    6  503    0  0.27549833973E+03  0.79269474406E+02 -0.12178634984E+03  0.31147214928E+03  0.00000000000E+00 0. -1.
         -3    1    6    6    0  503  0.23124422541E+03  0.10598974936E+03 -0.20025615116E+03  0.32374410393E+03  0.00000000000E+00 0.  1.
<mgrwt>
<rscale>  0 0.18391901E+04</rscale>
<asrwt>0</asrwt>
<pdfrwt beam="1">  1        2 0.54092556E+00 0.18391901E+04</pdfrwt>
<pdfrwt beam="2">  1       -1 0.37002329E-01 0.18391901E+04</pdfrwt>
<totfact> 0.60041648E+00</totfact>
</mgrwt>
</event>
<event>
12    6  0.1457317E-007  0.2035670E+04  0.7818608E-02  0.8590123E-01
         -1   -1    0    0    0  501 -0.00000000000E+00  0.00000000000E+00  0.66428816468E+03  0.66428816468E+03  0.00000000000E+00 0.  1.
          2   -1    0    0  501    0  0.00000000000E+00 -0.00000000000E+00 -0.15595469063E+04  0.15595469063E+04  0.00000000000E+00 0. -1.
         24    2    1    2    0    0 -0.15701662255E+03  0.63888926887E+03 -0.90155131470E+03  0.11189342523E+04  0.79908512007E+02 0.  0.
        254    2    1    2    0    0  0.15701662255E+03 -0.63888926887E+03  0.62925730970E+01  0.11049008187E+04  0.88765562297E+03 0.  0.
         23    2    4    4    0    0 -0.21429384963E+03 -0.18009810124E+03  0.31610542677E+03  0.43223223639E+03  0.92438548706E+02 0.  0.
         23    2    4    4    0    0  0.37131047218E+03 -0.45879116764E+03 -0.30981285367E+03  0.67266858228E+03  0.90212055921E+02 0.  0.
          2    1    3    3  502    0 -0.56288828421E+02  0.28194181745E+03 -0.33099962811E+03  0.43842944067E+03  0.00000000000E+00 0. -1.
         -1    1    3    3    0  502 -0.10072779413E+03  0.35694745143E+03 -0.57055168659E+03  0.68050481163E+03  0.00000000000E+00 0.  1.
         11    1    5    5    0    0  0.27877852576E+01 -0.27743092006E+02  0.17800952872E+02  0.33080580767E+02  0.00000000000E+00 0.  1.
        -11    1    5    5    0    0 -0.21708163488E+03 -0.15235500923E+03  0.29830447390E+03  0.39915165562E+03  0.00000000000E+00 0. -1.
          4    1    6    6  503    0  0.13301439908E+03 -0.10481429305E+03 -0.70575267287E+02  0.18346589531E+03  0.00000000000E+00 0. -1.
         -4    1    6    6    0  503  0.23829607310E+03 -0.35397687458E+03 -0.23923758638E+03  0.48920268697E+03  0.00000000000E+00 0.  1.
<mgrwt>
<rscale>  0 0.20356705E+04</rscale>
<asrwt>0</asrwt>
<pdfrwt beam="1">  1        2 0.23993029E+00 0.20356705E+04</pdfrwt>
<pdfrwt beam="2">  1       -1 0.10219818E+00 0.20356705E+04</pdfrwt>
<totfact> 0.11241639E+01</totfact>
</mgrwt>
</event>
<event>
12    6  0.1457317E-007  0.1367795E+04  0.7818608E-02  0.8977466E-01
          2   -1    0    0  501    0  0.00000000000E+00  0.00000000000E+00  0.51883758886E+03  0.51883758886E+03  0.00000000000E+00 0. -1.
         -1   -1    0    0    0  501 -0.00000000000E+00 -0.00000000000E+00 -0.90146815805E+03  0.90146815805E+03  0.00000000000E+00 0.  1.
         24    2    1    2    0    0  0.60817812932E+02  0.39363221732E+03 -0.11805173192E+03  0.42297009634E+03  0.79513282603E+02 0.  0.
        254    2    1    2    0    0 -0.60817812932E+02 -0.39363221732E+03 -0.26457883728E+03  0.99733565057E+03  0.87523214628E+03 0.  0.
         23    2    4    4    0    0 -0.36180865660E+03  0.56856828315E+02 -0.23831206743E+03  0.44587533773E+03  0.88735406690E+02 0.  0.
         23    2    4    4    0    0  0.30099084366E+03 -0.45048904563E+03 -0.26266769850E+02  0.55146031284E+03  0.99411595066E+02 0.  0.
          2    1    3    3  502    0  0.61331972944E+02  0.39465223100E+03 -0.12299290379E+03  0.41789861057E+03  0.00000000000E+00 0. -1.
         -1    1    3    3    0  502 -0.51416001176E+00 -0.10200136818E+01  0.49411718707E+01  0.50714857670E+01  0.00000000000E+00 0.  1.
         11    1    5    5    0    0 -0.13010774458E+03 -0.20072901465E+02 -0.99632506677E+02  0.16509870672E+03  0.00000000000E+00 0.  1.
        -11    1    5    5    0    0 -0.23170091202E+03  0.76929729780E+02 -0.13867956075E+03  0.28077663101E+03  0.00000000000E+00 0. -1.
          3    1    6    6  503    0  0.30200089603E+03 -0.41278994036E+03 -0.13504604287E+02  0.51164680239E+03  0.00000000000E+00 0. -1.
         -3    1    6    6    0  503 -0.10100523621E+01 -0.37699105271E+02 -0.12762165562E+02  0.39813510444E+02  0.00000000000E+00 0.  1.
<mgrwt>
<rscale>  0 0.13677947E+04</rscale>
<asrwt>0</asrwt>
<pdfrwt beam="1">  1        2 0.79821169E-01 0.13677947E+04</pdfrwt>
<pdfrwt beam="2">  1       -1 0.13868741E+00 0.13677947E+04</pdfrwt>
<totfact> 0.28264243E+01</totfact>
</mgrwt>
</event>
<event>
12    6  0.1457317E-007  0.1409771E+04  0.7818608E-02  0.8946776E-01
          2   -1    0    0  501    0  0.00000000000E+00  0.00000000000E+00  0.54344644997E+03  0.54344644997E+03  0.00000000000E+00 0. -1.
         -1   -1    0    0    0  501 -0.00000000000E+00 -0.00000000000E+00 -0.91428225576E+03  0.91428225576E+03  0.00000000000E+00 0.  1.
         24    2    1    2    0    0  0.78606237242E+02 -0.23337839645E+03  0.23286501877E+03  0.34832473219E+03  0.80371547363E+02 0.  0.
        254    2    1    2    0    0 -0.78606237242E+02  0.23337839645E+03 -0.60370082456E+03  0.11094039735E+04  0.89759571884E+03 0.  0.
         23    2    4    4    0    0 -0.13567529842E+03  0.90662217298E+02 -0.81311716802E+03  0.83406658900E+03  0.88770049598E+02 0.  0.
         23    2    4    4    0    0  0.57069061178E+02  0.14271617915E+03  0.20941634346E+03  0.27533738454E+03  0.91272585623E+02 0.  0.
          2    1    3    3  502    0  0.51935419809E+02 -0.22445226634E+03  0.21415574193E+03  0.31454536954E+03  0.00000000000E+00 0. -1.
         -1    1    3    3    0  502  0.26670817433E+02 -0.89261301091E+01  0.18709276836E+02  0.33779362650E+02  0.00000000000E+00 0.  1.
         11    1    5    5    0    0 -0.47559533407E+02 -0.76687109777E+01 -0.13820241440E+03  0.14635786857E+03  0.00000000000E+00 0.  1.
        -11    1    5    5    0    0 -0.88115765013E+02  0.98330928276E+02 -0.67491475362E+03  0.68770872043E+03  0.00000000000E+00 0. -1.
          1    1    6    6  503    0  0.13186591134E+02  0.80621808353E+02  0.17238754109E+03  0.19076484606E+03  0.00000000000E+00 0. -1.
         -1    1    6    6    0  503  0.43882470044E+02  0.62094370796E+02  0.37028802369E+02  0.84572538489E+02  0.00000000000E+00 0.  1.
<mgrwt>
<rscale>  0 0.14097708E+04</rscale>
<asrwt>0</asrwt>
<pdfrwt beam="1">  1        2 0.83607148E-01 0.14097708E+04</pdfrwt>
<pdfrwt beam="2">  1       -1 0.14065881E+00 0.14097708E+04</pdfrwt>
<totfact> 0.25708898E+01</totfact>
</mgrwt>
</event>
<event>
12    6  0.1457317E-007  0.1512770E+04  0.7818608E-02  0.8876005E-01
         -1   -1    0    0    0  501 -0.00000000000E+00  0.00000000000E+00  0.83779538531E+03  0.83779538531E+03  0.00000000000E+00 0.  1.
          2   -1    0    0  501    0  0.00000000000E+00 -0.00000000000E+00 -0.68288559246E+03  0.68288559246E+03  0.00000000000E+00 0. -1.
         24    2    1    2    0    0  0.24769850747E+03  0.37482649318E+03  0.22824288009E+03  0.51009020082E+03  0.79042710395E+02 0.  0.
        254    2    1    2    0    0 -0.24769850747E+03 -0.37482649318E+03 -0.73333087249E+02  0.10105907769E+04  0.90225635280E+03 0.  0.
         23    2    4    4    0    0 -0.45991814870E+03 -0.44352240861E+03  0.17016468951E+03  0.66769652039E+03  0.92875138460E+02 0.  0.
         23    2    4    4    0    0  0.21221964123E+03  0.68695915424E+02 -0.24349777676E+03  0.34289425655E+03  0.92352579665E+02 0.  0.
          2    1    3    3  502    0  0.17827384525E+03  0.23865008402E+03  0.18720302591E+03  0.35182438718E+03  0.00000000000E+00 0. -1.
         -1    1    3    3    0  502  0.69424662220E+02  0.13617640917E+03  0.41039854182E+02  0.15826581365E+03  0.00000000000E+00 0.  1.
         11    1    5    5    0    0 -0.33493828246E+03 -0.35897385418E+03  0.16034737777E+03  0.51648539437E+03  0.00000000000E+00 0. -1.
        -11    1    5    5    0    0 -0.12497986624E+03 -0.84548554426E+02  0.98173117356E+01  0.15121112602E+03  0.00000000000E+00 0.  1.
          3    1    6    6  503    0  0.10428489749E+03  0.42539712517E+02 -0.18698209226E+03  0.21828254582E+03  0.00000000000E+00 0. -1.
         -3    1    6    6    0  503  0.10793474374E+03  0.26156202907E+02 -0.56515684500E+02  0.12461171073E+03  0.00000000000E+00 0.  1.
<mgrwt>
<rscale>  0 0.15127702E+04</rscale>
<asrwt>0</asrwt>
<pdfrwt beam="1">  1        2 0.10505932E+00 0.15127702E+04</pdfrwt>
<pdfrwt beam="2">  1       -1 0.12889160E+00 0.15127702E+04</pdfrwt>
<totfact> 0.24160985E+01</totfact>
</mgrwt>
</event>
<event>
12    6  0.1457317E-007  0.1386830E+04  0.7818608E-02  0.8963407E-01
         -1   -1    0    0    0  501 -0.00000000000E+00  0.00000000000E+00  0.80993637839E+03  0.80993637839E+03  0.00000000000E+00 0.  1.
          2   -1    0    0  501    0  0.00000000000E+00 -0.00000000000E+00 -0.59365671294E+03  0.59365671294E+03  0.00000000000E+00 0. -1.
         24    2    1    2    0    0  0.18823465675E+03  0.27018121745E+03  0.26883528812E+03  0.43282905441E+03  0.81476388825E+02 0.  0.
        254    2    1    2    0    0 -0.18823465675E+03 -0.27018121745E+03 -0.52555622670E+02  0.97076403692E+03  0.91169652058E+03 0.  0.
         23    2    4    4    0    0 -0.16535253464E+03 -0.41471216204E+03 -0.38533539445E+03  0.59650441381E+03  0.89479111680E+02 0.  0.
         23    2    4    4    0    0 -0.22882122114E+02  0.14453094459E+03  0.33277977178E+03  0.37425962311E+03  0.88966867575E+02 0.  0.
          2    1    3    3  502    0  0.40636104170E+02  0.38848463422E+02  0.13091824219E+02  0.57722542682E+02  0.00000000000E+00 0. -1.
         -1    1    3    3    0  502  0.14759855258E+03  0.23133275403E+03  0.25574346391E+03  0.37510651173E+03  0.00000000000E+00 0.  1.
         11    1    5    5    0    0 -0.67269882213E+02 -0.12567580911E+03 -0.17555449543E+03  0.22613939708E+03  0.00000000000E+00 0. -1.
        -11    1    5    5    0    0 -0.98082652424E+02 -0.28903635293E+03 -0.20978089902E+03  0.37036501673E+03  0.00000000000E+00 0.  1.
          2    1    6    6  503    0  0.14438429170E+02 -0.17589157383E+00  0.74503784937E+01  0.16248301894E+02  0.00000000000E+00 0. -1.
         -2    1    6    6    0  503 -0.37320551284E+02  0.14470683616E+03  0.32532939329E+03  0.35801132121E+03  0.00000000000E+00 0.  1.
<mgrwt>
<rscale>  0 0.13868297E+04</rscale>
<asrwt>0</asrwt>
<pdfrwt beam="1">  1        2 0.91331802E-01 0.13868297E+04</pdfrwt>
<pdfrwt beam="2">  1       -1 0.12460560E+00 0.13868297E+04</pdfrwt>
<totfact> 0.31559835E+01</totfact>
</mgrwt>
</event>
<event>
12    6  0.1457317E-007  0.1467442E+04  0.7818608E-02  0.8906397E-01
          2   -1    0    0  501    0  0.00000000000E+00  0.00000000000E+00  0.23825828003E+04  0.23825828003E+04  0.00000000000E+00 0. -1.
         -1   -1    0    0    0  501 -0.00000000000E+00 -0.00000000000E+00 -0.22595079478E+03  0.22595079478E+03  0.00000000000E+00 0.  1.
         24    2    1    2    0    0 -0.35625842448E+03 -0.16227752239E+03  0.26273335377E+03  0.47829947718E+03  0.80545114063E+02 0.  0.
        254    2    1    2    0    0  0.35625842448E+03  0.16227752239E+03  0.18938986517E+04  0.21302341179E+04  0.89319160019E+03 0.  0.
         23    2    4    4    0    0 -0.63928778938E+02 -0.24688388816E+03  0.11350036438E+04  0.11668638365E+04  0.91101034526E+02 0.  0.
         23    2    4    4    0    0  0.42018720342E+03  0.40916141055E+03  0.75889500787E+03  0.96337028132E+03  0.90500387566E+02 0.  0.
          4    1    3    3  502    0 -0.95563859504E+02 -0.81018757996E+02  0.10103982643E+03  0.16095197084E+03  0.00000000000E+00 0. -1.
         -3    1    3    3    0  502 -0.26069456498E+03 -0.81258764397E+02  0.16169352734E+03  0.31734750634E+03  0.00000000000E+00 0.  1.
         11    1    5    5    0    0 -0.44414588909E+02 -0.24701203658E+03  0.10372013766E+04  0.10671336831E+04  0.00000000000E+00 0. -1.
        -11    1    5    5    0    0 -0.19514190029E+02  0.12814841633E+00  0.97802267198E+02  0.99730153432E+02  0.00000000000E+00 0.  1.
          1    1    6    6  503    0  0.42467831814E+03  0.40706135429E+03  0.74991251017E+03  0.95311037816E+03  0.00000000000E+00 0. -1.
         -1    1    6    6    0  503 -0.44911147214E+01  0.21000562648E+01  0.89824977043E+01  0.10259903156E+02  0.00000000000E+00 0.  1.
<mgrwt>
<rscale>  0 0.14674420E+04</rscale>
<asrwt>0</asrwt>
<pdfrwt beam="1">  1        2 0.36655118E+00 0.14674420E+04</pdfrwt>
<pdfrwt beam="2">  1       -1 0.34761662E-01 0.14674420E+04</pdfrwt>
<totfact> 0.35328728E+01</totfact>
</mgrwt>
</event>
<event>
12    6  0.1457317E-007  0.2738165E+04  0.7818608E-02  0.8322727E-01
          2   -1    0    0  501    0  0.00000000000E+00  0.00000000000E+00  0.22402322088E+04  0.22402322088E+04  0.00000000000E+00 0. -1.
         -1   -1    0    0    0  501 -0.00000000000E+00 -0.00000000000E+00 -0.83669336436E+03  0.83669336436E+03  0.00000000000E+00 0.  1.
         24    2    1    2    0    0 -0.83785748265E+03 -0.68941943759E+03  0.14126985434E+02  0.10882237622E+04  0.82018673301E+02 0.  0.
        254    2    1    2    0    0  0.83785748265E+03  0.68941943759E+03  0.13894118590E+04  0.19887018110E+04  0.92041580649E+03 0.  0.
         23    2    4    4    0    0  0.99518430019E+03  0.39772763529E+03  0.11132606679E+04  0.15480760328E+04  0.92795610922E+02 0.  0.
         23    2    4    4    0    0 -0.15732681754E+03  0.29169180230E+03  0.27615119115E+03  0.44062577820E+03  0.89753891237E+02 0.  0.
          2    1    3    3  502    0 -0.14680947574E+03 -0.16164673569E+03 -0.61882676348E+01  0.21845133092E+03  0.00000000000E+00 0. -1.
         -1    1    3    3    0  502 -0.69104800691E+03 -0.52777270190E+03  0.20315253069E+02  0.86977243129E+03  0.00000000000E+00 0.  1.
         11    1    5    5    0    0  0.94021457028E+03  0.35115983971E+03  0.10416933066E+04  0.14465274336E+04  0.00000000000E+00 0.  1.
        -11    1    5    5    0    0  0.54969729907E+02  0.46567795580E+02  0.71567361262E+02  0.10154859915E+03  0.00000000000E+00 0. -1.
          4    1    6    6  503    0 -0.20604105278E+02  0.97842359314E+02  0.45826094696E+02  0.10998948761E+03  0.00000000000E+00 0. -1.
         -4    1    6    6    0  503 -0.13672271227E+03  0.19384944299E+03  0.23032509646E+03  0.33063629059E+03  0.00000000000E+00 0.  1.
<mgrwt>
<rscale>  0 0.27381654E+04</rscale>
<asrwt>0</asrwt>
<pdfrwt beam="1">  1        2 0.34465111E+00 0.27381654E+04</pdfrwt>
<pdfrwt beam="2">  1       -1 0.12872206E+00 0.27381654E+04</pdfrwt>
<totfact> 0.25342008E+00</totfact>
</mgrwt>
</event>
<event>
12    6  0.1457317E-007  0.1477076E+04  0.7818608E-02  0.8899842E-01
         -1   -1    0    0    0  501 -0.00000000000E+00  0.00000000000E+00  0.63903534264E+03  0.63903534264E+03  0.00000000000E+00 0.  1.
          2   -1    0    0  501    0  0.00000000000E+00 -0.00000000000E+00 -0.85353367827E+03  0.85353367827E+03  0.00000000000E+00 0. -1.
         24    2    1    2    0    0 -0.16910579509E+03 -0.22980013923E+03  0.29563118099E+03  0.41836450273E+03  0.78906197763E+02 0.  0.
        254    2    1    2    0    0  0.16910579509E+03  0.22980013923E+03 -0.51012951662E+03  0.10742045182E+04  0.90126486077E+03 0.  0.
         23    2    4    4    0    0  0.21147910138E+03  0.16786735159E+03  0.20260650454E+03  0.35102361200E+03  0.96256544985E+02 0.  0.
         23    2    4    4    0    0 -0.42373306285E+02  0.61932787641E+02 -0.71273602115E+03  0.72318090619E+03  0.96782332884E+02 0.  0.
          2    1    3    3  502    0 -0.35528328913E+02 -0.33852671199E+02  0.15783696583E+02  0.51549884388E+02  0.00000000000E+00 0. -1.
         -1    1    3    3    0  502 -0.13357746618E+03 -0.19594746803E+03  0.27984748441E+03  0.36681461834E+03  0.00000000000E+00 0.  1.
         11    1    5    5    0    0  0.19509833923E+03  0.11482414352E+03  0.18624734162E+03  0.29314845755E+03  0.00000000000E+00 0.  1.
        -11    1    5    5    0    0  0.16380762147E+02  0.53043208073E+02  0.16359162919E+02  0.57875154450E+02  0.00000000000E+00 0. -1.
          2    1    6    6  503    0 -0.49048307416E+02  0.84439231364E+02 -0.61229563278E+03  0.62003359761E+03  0.00000000000E+00 0.  1.
         -2    1    6    6    0  503  0.66750011309E+01 -0.22506443723E+02 -0.10044038838E+03  0.10314730858E+03  0.00000000000E+00 0. -1.
<mgrwt>
<rscale>  0 0.14770757E+04</rscale>
<asrwt>0</asrwt>
<pdfrwt beam="1">  1        2 0.13131287E+00 0.14770757E+04</pdfrwt>
<pdfrwt beam="2">  1       -1 0.98313129E-01 0.14770757E+04</pdfrwt>
<totfact> 0.34559018E+01</totfact>
</mgrwt>
</event>
<event>
12    6  0.1457317E-007  0.1078903E+04  0.7818608E-02  0.9226002E-01
          2   -1    0    0  501    0  0.00000000000E+00  0.00000000000E+00  0.15122205946E+04  0.15122205946E+04  0.00000000000E+00 0. -1.
         -1   -1    0    0    0  501 -0.00000000000E+00 -0.00000000000E+00 -0.19243757781E+03  0.19243757781E+03  0.00000000000E+00 0.  1.
         24    2    1    2    0    0 -0.46274007143E+02 -0.11457150700E+03  0.30693850977E+03  0.33990721226E+03  0.77831550240E+02 0.  0.
        254    2    1    2    0    0  0.46274007143E+02  0.11457150700E+03  0.10128445071E+04  0.13647509602E+04  0.90632404465E+03 0.  0.
         23    2    4    4    0    0  0.10115193031E+03  0.25107658815E+03  0.11239057948E+04  0.11596661058E+04  0.91597352925E+02 0.  0.
         23    2    4    4    0    0 -0.54877923164E+02 -0.13650508115E+03 -0.11106128777E+03  0.20508485443E+03  0.89888621332E+02 0.  0.
          2    1    3    3  502    0 -0.28091669125E+02 -0.11956362834E+03  0.23052505501E+03  0.26120184548E+03  0.00000000000E+00 0. -1.
         -1    1    3    3    0  502 -0.18182338018E+02  0.49921213362E+01  0.76413454770E+02  0.78705366787E+02  0.00000000000E+00 0.  1.
         11    1    5    5    0    0  0.86836258816E+02  0.18617061751E+03  0.66601124641E+03  0.69697275055E+03  0.00000000000E+00 0.  1.
        -11    1    5    5    0    0  0.14315671491E+02  0.64905970641E+02  0.45789454843E+03  0.46269335521E+03  0.00000000000E+00 0. -1.
          3    1    6    6  503    0  0.58915075393E+01 -0.93870273973E+02 -0.83900736375E+02  0.12603837416E+03  0.00000000000E+00 0. -1.
         -3    1    6    6    0  503 -0.60769430703E+02 -0.42634807176E+02 -0.27160551400E+02  0.79046480271E+02  0.00000000000E+00 0.  1.
<mgrwt>
<rscale>  0 0.10789033E+04</rscale>
<asrwt>0</asrwt>
<pdfrwt beam="1">  1        2 0.23264931E+00 0.10789033E+04</pdfrwt>
<pdfrwt beam="2">  1       -1 0.29605782E-01 0.10789033E+04</pdfrwt>
<totfact> 0.14767921E+02</totfact>
</mgrwt>
</event>
<event>
12    6  0.1457317E-007  0.1868909E+04  0.7818608E-02  0.8670489E-01
          2   -1    0    0  501    0  0.00000000000E+00  0.00000000000E+00  0.11954443156E+04  0.11954443156E+04  0.00000000000E+00 0. -1.
         -1   -1    0    0    0  501 -0.00000000000E+00 -0.00000000000E+00 -0.73044404866E+03  0.73044404866E+03  0.00000000000E+00 0.  1.
         24    2    1    2    0    0  0.54286239548E+03 -0.66793322852E+02  0.64798560084E+03  0.85176799884E+03  0.80389405696E+02 0.  0.
        254    2    1    2    0    0 -0.54286239548E+03  0.66793322852E+02 -0.18298533388E+03  0.10741203654E+04  0.90614016501E+03 0.  0.
         23    2    4    4    0    0 -0.77042061498E+03 -0.68418706083E+02 -0.13706293280E+03  0.79078091259E+03  0.91209434002E+02 0.  0.
         23    2    4    4    0    0  0.22755821950E+03  0.13521202893E+03 -0.45922401078E+02  0.28333945285E+03  0.90040782949E+02 0.  0.
          4    1    3    3  502    0  0.44974649803E+03 -0.39340633848E+02  0.48943047615E+03  0.66585417994E+03  0.00000000000E+00 0. -1.
         -3    1    3    3    0  502  0.93115897448E+02 -0.27452689003E+02  0.15855512470E+03  0.18591381890E+03  0.00000000000E+00 0.  1.
         11    1    5    5    0    0 -0.57212633555E+03 -0.84976650379E+02 -0.12273610163E+03  0.59128142672E+03  0.00000000000E+00 0.  1.
        -11    1    5    5    0    0 -0.19829427942E+03  0.16557944296E+02 -0.14326831168E+02  0.19949948587E+03  0.00000000000E+00 0. -1.
          2    1    6    6  503    0  0.10818210588E+03  0.13736219167E+02 -0.12352300104E+02  0.10974803446E+03  0.00000000000E+00 0. -1.
         -2    1    6    6    0  503  0.11937611361E+03  0.12147580977E+03 -0.33570100974E+02  0.17359141839E+03  0.00000000000E+00 0.  1.
<mgrwt>
<rscale>  0 0.18689090E+04</rscale>
<asrwt>0</asrwt>
<pdfrwt beam="1">  1        2 0.18391451E+00 0.18689090E+04</pdfrwt>
<pdfrwt beam="2">  1       -1 0.11237601E+00 0.18689090E+04</pdfrwt>
<totfact> 0.14803288E+01</totfact>
</mgrwt>
</event>
<event>
12    6  0.1457317E-007  0.2840878E+04  0.7818608E-02  0.8290688E-01
          2   -1    0    0  501    0  0.00000000000E+00  0.00000000000E+00  0.95088094303E+03  0.95088094303E+03  0.00000000000E+00 0. -1.
         -1   -1    0    0    0  501 -0.00000000000E+00 -0.00000000000E+00 -0.21218719318E+04  0.21218719318E+04  0.00000000000E+00 0.  1.
         24    2    1    2    0    0  0.34270635508E+03  0.51280482869E+03  0.67568189380E+03  0.91869400979E+03  0.83882202352E+02 0.  0.
        254    2    1    2    0    0 -0.34270635508E+03 -0.51280482869E+03 -0.18466728825E+04  0.21540588650E+04  0.92160317959E+03 0.  0.
         23    2    4    4    0    0 -0.84371085756E+02 -0.57977855974E+03 -0.49277585120E+03  0.77114380000E+03  0.92590832674E+02 0.  0.
         23    2    4    4    0    0 -0.25833526933E+03  0.66973731051E+02 -0.13538970313E+04  0.13829150650E+04  0.90522447610E+02 0.  0.
          4    1    3    3  502    0  0.30353481092E+03  0.46720439770E+03  0.64100582127E+03  0.84929488022E+03  0.00000000000E+00 0. -1.
         -3    1    3    3    0  502  0.39171544164E+02  0.45600430997E+02  0.34676072537E+02  0.69399129576E+02  0.00000000000E+00 0.  1.
         11    1    5    5    0    0  0.27517045131E+01 -0.88928502741E+02 -0.39440825128E+02  0.97321267790E+02  0.00000000000E+00 0. -1.
        -11    1    5    5    0    0 -0.87122790269E+02 -0.49085005700E+03 -0.45333502607E+03  0.67382253221E+03  0.00000000000E+00 0.  1.
          1    1    6    6  503    0 -0.71731491500E+02 -0.42654550202E+01 -0.54525901658E+03  0.54997363222E+03  0.00000000000E+00 0. -1.
         -1    1    6    6    0  503 -0.18660377783E+03  0.71239186072E+02 -0.80863801476E+03  0.83294143278E+03  0.00000000000E+00 0.  1.
<mgrwt>
<rscale>  0 0.28408784E+04</rscale>
<asrwt>0</asrwt>
<pdfrwt beam="1">  1        2 0.14628938E+00 0.28408784E+04</pdfrwt>
<pdfrwt beam="2">  1       -1 0.32644184E+00 0.28408784E+04</pdfrwt>
<totfact> 0.59531074E-01</totfact>
</mgrwt>
</event>
<event>
12    6  0.1457317E-007  0.1555735E+04  0.7818608E-02  0.8848213E-01
         -1   -1    0    0    0  501 -0.00000000000E+00  0.00000000000E+00  0.32570198726E+03  0.32570198726E+03  0.00000000000E+00 0.  1.
          2   -1    0    0  501    0  0.00000000000E+00 -0.00000000000E+00 -0.18577644401E+04  0.18577644401E+04  0.00000000000E+00 0. -1.
         24    2    1    2    0    0  0.23879852405E+03 -0.45034998983E+03 -0.60568883406E+03  0.79579548738E+03  0.81188950049E+02 0.  0.
        254    2    1    2    0    0 -0.23879852405E+03  0.45034998983E+03 -0.92637361877E+03  0.13876709400E+04  0.89867831156E+03 0.  0.
         23    2    4    4    0    0  0.92546587305E+02 -0.13403089273E+03  0.55230797869E+02  0.19472779590E+03  0.91319890681E+02 0.  0.
         23    2    4    4    0    0 -0.33134511135E+03  0.58438088256E+03 -0.98160441663E+03  0.11929431441E+04  0.90969860503E+02 0.  0.
          4    1    3    3  502    0  0.40096683943E+02 -0.69798841021E+02 -0.54782466888E+02  0.97369096480E+02  0.00000000000E+00 0. -1.
         -3    1    3    3    0  502  0.19870184011E+03 -0.38055114880E+03 -0.55090636717E+03  0.69842639090E+03  0.00000000000E+00 0.  1.
         11    1    5    5    0    0  0.80174204930E+02 -0.14345966552E+03  0.33045454648E+02  0.16763227863E+03  0.00000000000E+00 0. -1.
        -11    1    5    5    0    0  0.12372382375E+02  0.94287727896E+01  0.22185343221E+02  0.27095517263E+02  0.00000000000E+00 0.  1.
          3    1    6    6  503    0 -0.13006591399E+03  0.16141599007E+03 -0.34668498134E+03  0.40393407893E+03  0.00000000000E+00 0. -1.
         -3    1    6    6    0  503 -0.20127919736E+03  0.42296489248E+03 -0.63491943529E+03  0.78900906514E+03  0.00000000000E+00 0.  1.
<mgrwt>
<rscale>  0 0.15557346E+04</rscale>
<asrwt>0</asrwt>
<pdfrwt beam="1">  1        2 0.28580991E+00 0.15557346E+04</pdfrwt>
<pdfrwt beam="2">  1       -1 0.50107998E-01 0.15557346E+04</pdfrwt>
<totfact> 0.35116037E+01</totfact>
</mgrwt>
</event>
<event>
12    6  0.1457317E-007  0.2148928E+04  0.7818608E-02  0.8539991E-01
          2   -1    0    0  501    0  0.00000000000E+00  0.00000000000E+00  0.31892725293E+04  0.31892725293E+04  0.00000000000E+00 0. -1.
         -1   -1    0    0    0  501 -0.00000000000E+00 -0.00000000000E+00 -0.36198625557E+03  0.36198625557E+03  0.00000000000E+00 0.  1.
         24    2    1    2    0    0  0.33403868893E+02 -0.63771252815E+03  0.16107404310E+03  0.66323748745E+03  0.78396622266E+02 0.  0.
        254    2    1    2    0    0 -0.33403868893E+02  0.63771252815E+03  0.26662122306E+04  0.28880212974E+04  0.90784705132E+03 0.  0.
         23    2    4    4    0    0 -0.13023485675E+03 -0.16482226289E+03  0.10937523487E+04  0.11173816461E+04  0.90111300454E+02 0.  0.
         23    2    4    4    0    0  0.96830987853E+02  0.80253479105E+03  0.15724598819E+04  0.17706396513E+04  0.95374858018E+02 0.  0.
          2    1    3    3  502    0  0.20284094043E+02 -0.59423557156E+02  0.32416647397E+02  0.70664295402E+02  0.00000000000E+00 0. -1.
         -1    1    3    3    0  502  0.13119774849E+02 -0.57828897100E+03  0.12865739570E+03  0.59257319205E+03  0.00000000000E+00 0.  1.
         11    1    5    5    0    0  0.29477261257E+01  0.88780887226E+01  0.34142218270E+02  0.35400573683E+02  0.00000000000E+00 0.  1.
        -11    1    5    5    0    0 -0.13318258287E+03 -0.17370035162E+03  0.10596101305E+04  0.10819810724E+04  0.00000000000E+00 0. -1.
          1    1    6    6  503    0  0.70415262854E+02  0.22421191672E+03  0.44746277540E+03  0.50542282122E+03  0.00000000000E+00 0. -1.
         -1    1    6    6    0  503  0.26415724999E+02  0.57832287433E+03  0.11249971065E+04  0.12652168301E+04  0.00000000000E+00 0.  1.
<mgrwt>
<rscale>  0 0.21489279E+04</rscale>
<asrwt>0</asrwt>
<pdfrwt beam="1">  1        2 0.49065729E+00 0.21489279E+04</pdfrwt>
<pdfrwt beam="2">  1       -1 0.55690195E-01 0.21489279E+04</pdfrwt>
<totfact> 0.44989975E+00</totfact>
</mgrwt>
</event>
<event>
12    6  0.1457317E-007  0.2480439E+04  0.7818608E-02  0.8409987E-01
          2   -1    0    0  501    0  0.00000000000E+00  0.00000000000E+00  0.12041598112E+04  0.12041598112E+04  0.00000000000E+00 0. -1.
         -1   -1    0    0    0  501 -0.00000000000E+00 -0.00000000000E+00 -0.12773593945E+04  0.12773593945E+04  0.00000000000E+00 0.  1.
         24    2    1    2    0    0  0.20957262795E+03  0.40928567871E+03  0.93994221272E+03  0.10494444130E+04  0.80042235390E+02 0.  0.
        254    2    1    2    0    0 -0.20957262795E+03 -0.40928567871E+03 -0.10131417959E+04  0.14320747927E+04  0.90163543638E+03 0.  0.
         23    2    4    4    0    0 -0.32548716212E+03  0.18079798715E+03 -0.53843609702E+03  0.66104414960E+03  0.91848420083E+02 0.  0.
         23    2    4    4    0    0  0.11591453417E+03 -0.59008366586E+03 -0.47470569892E+03  0.77103064314E+03  0.86647793535E+02 0.  0.
          2    1    3    3  502    0  0.19505681070E+03  0.32234552971E+03  0.72303391594E+03  0.81531088765E+03  0.00000000000E+00 0. -1.
         -1    1    3    3    0  502  0.14515817248E+02  0.86940149005E+02  0.21690829678E+03  0.23413352530E+03  0.00000000000E+00 0.  1.
         11    1    5    5    0    0 -0.22253472262E+03  0.16222562688E+03 -0.34818475825E+03  0.44392733940E+03  0.00000000000E+00 0. -1.
        -11    1    5    5    0    0 -0.10295243950E+03  0.18572360278E+02 -0.19025133877E+03  0.21711681020E+03  0.00000000000E+00 0.  1.
          3    1    6    6  503    0  0.95979359076E+01 -0.23952423620E+03 -0.21474193085E+03  0.32183548121E+03  0.00000000000E+00 0. -1.
         -3    1    6    6    0  503  0.10631659827E+03 -0.35055942966E+03 -0.25996376807E+03  0.44919516193E+03  0.00000000000E+00 0.  1.
<mgrwt>
<rscale>  0 0.24804394E+04</rscale>
<asrwt>0</asrwt>
<pdfrwt beam="1">  1        2 0.18525536E+00 0.24804394E+04</pdfrwt>
<pdfrwt beam="2">  1       -1 0.19651683E+00 0.24804394E+04</pdfrwt>
<totfact> 0.30506121E+00</totfact>
</mgrwt>
</event>
<event>
12    6  0.1457317E-007  0.1249558E+04  0.7818608E-02  0.9070551E-01
         -1   -1    0    0    0  501 -0.00000000000E+00  0.00000000000E+00  0.23868413526E+03  0.23868413526E+03  0.00000000000E+00 0.  1.
          2   -1    0    0  501    0  0.00000000000E+00 -0.00000000000E+00 -0.16354205840E+04  0.16354205840E+04  0.00000000000E+00 0. -1.
         24    2    1    2    0    0  0.95855950554E+02 -0.23385074557E+03 -0.48763560593E+03  0.55497360482E+03  0.79578159138E+02 0.  0.
        254    2    1    2    0    0 -0.95855950554E+02  0.23385074557E+03 -0.90910084277E+03  0.13191311144E+04  0.92182862844E+03 0.  0.
         23    2    4    4    0    0  0.38820543589E+02  0.54974172464E+03 -0.35939190979E+03  0.66474215017E+03  0.94850318766E+02 0.  0.
         23    2    4    4    0    0 -0.13467649414E+03 -0.31589097906E+03 -0.54970893298E+03  0.65438896425E+03  0.90111801684E+02 0.  0.
          2    1    3    3  502    0  0.84967099736E+02 -0.10386638132E+03 -0.26119941068E+03  0.29365415942E+03  0.00000000000E+00 0. -1.
         -1    1    3    3    0  502  0.10888850818E+02 -0.12998436426E+03 -0.22643619525E+03  0.26131944540E+03  0.00000000000E+00 0.  1.
         11    1    5    5    0    0  0.46098254458E+02  0.28020781196E+03 -0.23119084559E+03  0.36618393470E+03  0.00000000000E+00 0. -1.
        -11    1    5    5    0    0 -0.72777108692E+01  0.26953391268E+03 -0.12820106420E+03  0.29855821547E+03  0.00000000000E+00 0.  1.
          1    1    6    6  503    0 -0.26996936390E+02 -0.16615434830E+03 -0.22564115385E+03  0.28151382265E+03  0.00000000000E+00 0. -1.
         -1    1    6    6    0  503 -0.10767955775E+03 -0.14973663077E+03 -0.32406777912E+03  0.37287514159E+03  0.00000000000E+00 0.  1.
<mgrwt>
<rscale>  0 0.12495582E+04</rscale>
<asrwt>0</asrwt>
<pdfrwt beam="1">  1        2 0.25160316E+00 0.12495582E+04</pdfrwt>
<pdfrwt beam="2">  1       -1 0.36720637E-01 0.12495582E+04</pdfrwt>
<totfact> 0.84950493E+01</totfact>
</mgrwt>
</event>
<event>
12    6  0.1457317E-007  0.1161803E+04  0.7818608E-02  0.9146964E-01
         -1   -1    0    0    0  501 -0.00000000000E+00  0.00000000000E+00  0.12935775424E+04  0.12935775424E+04  0.00000000000E+00 0.  1.
          2   -1    0    0  501    0  0.00000000000E+00 -0.00000000000E+00 -0.26086288440E+03  0.26086288440E+03  0.00000000000E+00 0. -1.
         24    2    1    2    0    0  0.11175003993E+02  0.21818263807E+03  0.11001545357E+03  0.25724776479E+03  0.79652170053E+02 0.  0.
        254    2    1    2    0    0 -0.11175003993E+02 -0.21818263807E+03  0.92269920445E+03  0.12971926620E+04  0.88521547450E+03 0.  0.
         23    2    4    4    0    0  0.70925517225E+02  0.29062155313E+03  0.11504480883E+03  0.33368515908E+03  0.92839437829E+02 0.  0.
         23    2    4    4    0    0 -0.82100521218E+02 -0.50880419121E+03  0.80765439563E+03  0.96350750296E+03  0.10207293918E+03 0.  0.
          4    1    3    3  502    0  0.90490525894E+01  0.16643439785E+03  0.42240632497E+02  0.17194930989E+03  0.00000000000E+00 0. -1.
         -1    1    3    3    0  502  0.21259514038E+01  0.51748240229E+02  0.67774821077E+02  0.85298454900E+02  0.00000000000E+00 0.  1.
         11    1    5    5    0    0  0.15830726813E+02  0.85833725502E+02  0.80662663543E+02  0.11884656341E+03  0.00000000000E+00 0.  1.
        -11    1    5    5    0    0  0.55094790412E+02  0.20478782763E+03  0.34382145284E+02  0.21483859567E+03  0.00000000000E+00 0. -1.
          2    1    6    6  503    0 -0.18430477972E+02 -0.16029557027E+03  0.34430126844E+03  0.38023376469E+03  0.00000000000E+00 0. -1.
         -2    1    6    6    0  503 -0.63670043246E+02 -0.34850862094E+03  0.46335312719E+03  0.58327373827E+03  0.00000000000E+00 0.  1.
<mgrwt>
<rscale>  0 0.11618027E+04</rscale>
<asrwt>0</asrwt>
<pdfrwt beam="1">  1        2 0.40132752E-01 0.11618027E+04</pdfrwt>
<pdfrwt beam="2">  1       -1 0.19901193E+00 0.11618027E+04</pdfrwt>
<totfact> 0.22261160E+01</totfact>
</mgrwt>
</event>
<event>
12    6  0.1457317E-007  0.1578775E+04  0.7818608E-02  0.8833695E-01
         -1   -1    0    0    0  501 -0.00000000000E+00  0.00000000000E+00  0.42353914421E+03  0.42353914421E+03  0.00000000000E+00 0.  1.
          2   -1    0    0  501    0  0.00000000000E+00 -0.00000000000E+00 -0.14712507306E+04  0.14712507306E+04  0.00000000000E+00 0. -1.
         24    2    1    2    0    0 -0.42608486566E+03 -0.46766683146E+01  0.16859320734E+02  0.43362906437E+03  0.78611352844E+02 0.  0.
        254    2    1    2    0    0  0.42608486566E+03  0.46766683146E+01 -0.10645709071E+04  0.14611608104E+04  0.90559898060E+03 0.  0.
         23    2    4    4    0    0  0.57559122485E+03 -0.15483207029E+02 -0.26157675148E+03  0.63903276443E+03  0.91626902523E+02 0.  0.
         23    2    4    4    0    0 -0.14950635919E+03  0.20159875343E+02 -0.80299415563E+03  0.82212804599E+03  0.91303548795E+02 0.  0.
          4    1    3    3  502    0 -0.17538841175E+03 -0.41558372341E+01 -0.31683359346E+02  0.17827563271E+03  0.00000000000E+00 0. -1.
         -3    1    3    3    0  502 -0.25069645391E+03 -0.52083108049E+00  0.48542680080E+02  0.25535343166E+03  0.00000000000E+00 0.  1.
         11    1    5    5    0    0  0.68539109783E+02 -0.15999917613E+02 -0.44777000559E+01  0.70524157076E+02  0.00000000000E+00 0. -1.
        -11    1    5    5    0    0  0.50705211507E+03  0.51671058407E+00 -0.25709905143E+03  0.56850860735E+03  0.00000000000E+00 0.  1.
          3    1    6    6  503    0 -0.29755180622E+02  0.12038046709E+02 -0.40898717356E+03  0.41024479701E+03  0.00000000000E+00 0. -1.
         -3    1    6    6    0  503 -0.11975117857E+03  0.81218286338E+01 -0.39400698207E+03  0.41188324898E+03  0.00000000000E+00 0.  1.
<mgrwt>
<rscale>  0 0.15787746E+04</rscale>
<asrwt>0</asrwt>
<pdfrwt beam="1">  1        2 0.22634627E+00 0.15787746E+04</pdfrwt>
<pdfrwt beam="2">  1       -1 0.65159868E-01 0.15787746E+04</pdfrwt>
<totfact> 0.34442045E+01</totfact>
</mgrwt>
</event>
<event>
12    6  0.1457317E-007  0.2279710E+04  0.7818608E-02  0.8485964E-01
         -1   -1    0    0    0  501 -0.00000000000E+00  0.00000000000E+00  0.13398988929E+04  0.13398988929E+04  0.00000000000E+00 0.  1.
          2   -1    0    0  501    0  0.00000000000E+00 -0.00000000000E+00 -0.96967727027E+03  0.96967727027E+03  0.00000000000E+00 0. -1.
         24    2    1    2    0    0 -0.96857272997E+03 -0.14962827230E+02  0.29608222181E+03  0.10160617183E+04  0.79747814667E+02 0.  0.
        254    2    1    2    0    0  0.96857272997E+03  0.14962827230E+02  0.74139400821E+02  0.12935144448E+04  0.85400582481E+03 0.  0.
         23    2    4    4    0    0  0.36512380813E+03  0.39360730759E+03 -0.10137476751E+03  0.55409544502E+03  0.92210687306E+02 0.  0.
         23    2    4    4    0    0  0.60344892185E+03 -0.37864448036E+03  0.17551416833E+03  0.73941899982E+03  0.91722353979E+02 0.  0.
          2    1    3    3  502    0 -0.63955688513E+03 -0.30886521185E+02  0.22810563457E+03  0.67971991808E+03  0.00000000000E+00 0. -1.
         -1    1    3    3    0  502 -0.32901584484E+03  0.15923693955E+02  0.67976587241E+02  0.33634180026E+03  0.00000000000E+00 0.  1.
         11    1    5    5    0    0  0.15890959026E+03  0.23154259118E+03 -0.73865303631E+02  0.29037960067E+03  0.00000000000E+00 0. -1.
        -11    1    5    5    0    0  0.20621421787E+03  0.16206471642E+03 -0.27509463876E+02  0.26371584435E+03  0.00000000000E+00 0.  1.
          1    1    6    6  503    0  0.28230531078E+03 -0.16072003028E+03  0.35291502868E+02  0.32676093219E+03  0.00000000000E+00 0. -1.
         -1    1    6    6    0  503  0.32114361106E+03 -0.21792445008E+03  0.14022266546E+03  0.41265806763E+03  0.00000000000E+00 0.  1.
<mgrwt>
<rscale>  0 0.22797101E+04</rscale>
<asrwt>0</asrwt>
<pdfrwt beam="1">  1        2 0.14918112E+00 0.22797101E+04</pdfrwt>
<pdfrwt beam="2">  1       -1 0.20613829E+00 0.22797101E+04</pdfrwt>
<totfact> 0.37277435E+00</totfact>
</mgrwt>
</event>
<event>
12    6  0.1457317E-007  0.1637966E+04  0.7818608E-02  0.8797558E-01
         -1   -1    0    0    0  501 -0.00000000000E+00  0.00000000000E+00  0.64518287616E+03  0.64518287616E+03  0.00000000000E+00 0.  1.
          2   -1    0    0  501    0  0.00000000000E+00 -0.00000000000E+00 -0.10396012710E+04  0.10396012710E+04  0.00000000000E+00 0. -1.
         24    2    1    2    0    0 -0.17942592901E+03 -0.51335378637E+03  0.27699037889E+02  0.55023709353E+03  0.79169744310E+02 0.  0.
        254    2    1    2    0    0  0.17942592901E+03  0.51335378637E+03 -0.42211743274E+03  0.11345470536E+04  0.90182488096E+03 0.  0.
         23    2    4    4    0    0 -0.14023000610E+03 -0.12157024314E+03  0.11604710915E+03  0.23811129160E+03  0.93735142901E+02 0.  0.
         23    2    4    4    0    0  0.31965593511E+03  0.63492402951E+03 -0.53816454189E+03  0.89643576204E+03  0.93099738033E+02 0.  0.
          2    1    3    3  502    0 -0.55324426293E+02 -0.24493096628E+03 -0.14493745063E+02  0.25151946055E+03  0.00000000000E+00 0. -1.
         -1    1    3    3    0  502 -0.12410150272E+03 -0.26842282009E+03  0.42192782952E+02  0.29871763298E+03  0.00000000000E+00 0.  1.
         11    1    5    5    0    0 -0.12261639925E+03 -0.12846427891E+03  0.74732609085E+02  0.19267281901E+03  0.00000000000E+00 0. -1.
        -11    1    5    5    0    0 -0.17613606841E+02  0.68940357728E+01  0.41314500070E+02  0.45438472589E+02  0.00000000000E+00 0.  1.
          2    1    6    6  503    0  0.13141391300E+02  0.27108306373E+02 -0.25149488802E+01  0.30230471508E+02  0.00000000000E+00 0. -1.
         -2    1    6    6    0  503  0.30651454381E+03  0.60781572314E+03 -0.53564959301E+03  0.86620529054E+03  0.00000000000E+00 0.  1.
<mgrwt>
<rscale>  0 0.16379657E+04</rscale>
<asrwt>0</asrwt>
<pdfrwt beam="1">  1        2 0.15993866E+00 0.16379657E+04</pdfrwt>
<pdfrwt beam="2">  1       -1 0.99258905E-01 0.16379657E+04</pdfrwt>
<totfact> 0.25135342E+01</totfact>
</mgrwt>
</event>
<event>
12    6  0.1457317E-007  0.1738044E+04  0.7818608E-02  0.8739959E-01
         -1   -1    0    0    0  501 -0.00000000000E+00  0.00000000000E+00  0.37942399085E+03  0.37942399085E+03  0.00000000000E+00 0.  1.
          2   -1    0    0  501    0  0.00000000000E+00 -0.00000000000E+00 -0.19903824146E+04  0.19903824146E+04  0.00000000000E+00 0. -1.
         24    2    1    2    0    0 -0.51483935327E+03 -0.31967502869E+03 -0.85148024355E+03  0.10479640091E+04  0.77189867584E+02 0.  0.
        254    2    1    2    0    0  0.51483935327E+03  0.31967502869E+03 -0.75947818020E+03  0.13218423963E+04  0.89621901947E+03 0.  0.
         23    2    4    4    0    0  0.74830828550E+03  0.32439909889E+03 -0.65148412974E+03  0.10478601966E+04  0.91538815989E+02 0.  0.
         23    2    4    4    0    0 -0.23346893224E+03 -0.47240702027E+01 -0.10799405046E+03  0.27398219970E+03  0.94199106468E+02 0.  0.
          2    1    3    3  502    0 -0.49459537490E+03 -0.32076517938E+03 -0.81012552563E+03  0.10019073073E+04  0.00000000000E+00 0. -1.
         -1    1    3    3    0  502 -0.20243978370E+02  0.10901506921E+01 -0.41354717926E+02  0.46056701831E+02  0.00000000000E+00 0.  1.
         11    1    5    5    0    0  0.44147833735E+03  0.22591863039E+03 -0.43476590935E+03  0.65951781313E+03  0.00000000000E+00 0. -1.
        -11    1    5    5    0    0  0.30682994815E+03  0.98480468506E+02 -0.21671822039E+03  0.38834238348E+03  0.00000000000E+00 0.  1.
          2    1    6    6  503    0 -0.60030825630E+02  0.75464178903E+01  0.13344841385E+02  0.61957511574E+02  0.00000000000E+00 0. -1.
         -2    1    6    6    0  503 -0.17343810661E+03 -0.12270488093E+02 -0.12133889185E+03  0.21202468813E+03  0.00000000000E+00 0.  1.
<mgrwt>
<rscale>  0 0.17380435E+04</rscale>
<asrwt>0</asrwt>
<pdfrwt beam="1">  1        2 0.30621268E+00 0.17380435E+04</pdfrwt>
<pdfrwt beam="2">  1       -1 0.58372922E-01 0.17380435E+04</pdfrwt>
<totfact> 0.21735775E+01</totfact>
</mgrwt>
</event>
<event>
12    6  0.1457317E-007  0.2127046E+04  0.7818608E-02  0.8549422E-01
          2   -1    0    0  501    0  0.00000000000E+00  0.00000000000E+00  0.17699992380E+04  0.17699992380E+04  0.00000000000E+00 0. -1.
         -1   -1    0    0    0  501 -0.00000000000E+00 -0.00000000000E+00 -0.63902921206E+03  0.63902921206E+03  0.00000000000E+00 0.  1.
         24    2    1    2    0    0 -0.79384243116E+03  0.20754209154E+03  0.84471180581E+03  0.11802482580E+04  0.78666323615E+02 0.  0.
        254    2    1    2    0    0  0.79384243116E+03 -0.20754209154E+03  0.28625822015E+03  0.12287801920E+04  0.86873325391E+03 0.  0.
         23    2    4    4    0    0  0.66315904797E+03 -0.27394782964E+03  0.55369029979E+03  0.91050498861E+03  0.87287169418E+02 0.  0.
         23    2    4    4    0    0  0.13068338320E+03  0.66405738103E+02 -0.26743207964E+03  0.31827520341E+03  0.91056681189E+02 0.  0.
          2    1    3    3  502    0 -0.66795240948E+03  0.20365384999E+03  0.71215706463E+03  0.99739811342E+03  0.00000000000E+00 0. -1.
         -1    1    3    3    0  502 -0.12589002169E+03  0.38882415516E+01  0.13255474118E+03  0.18285014463E+03  0.00000000000E+00 0.  1.
         11    1    5    5    0    0  0.90350716530E+02 -0.79561594302E+01  0.81624605877E+02  0.12202101759E+03  0.00000000000E+00 0. -1.
        -11    1    5    5    0    0  0.57280833144E+03 -0.26599167021E+03  0.47206569391E+03  0.78848397102E+03  0.00000000000E+00 0.  1.
          2    1    6    6  503    0  0.14735912310E+02 -0.19002434776E+02 -0.69179149405E+02  0.73239295132E+02  0.00000000000E+00 0. -1.
         -2    1    6    6    0  503  0.11594747089E+03  0.85408172879E+02 -0.19825293024E+03  0.24503590828E+03  0.00000000000E+00 0.  1.
<mgrwt>
<rscale>  0 0.21270460E+04</rscale>
<asrwt>0</asrwt>
<pdfrwt beam="1">  1        2 0.27230757E+00 0.21270460E+04</pdfrwt>
<pdfrwt beam="2">  1       -1 0.98312187E-01 0.21270460E+04</pdfrwt>
<totfact> 0.93021912E+00</totfact>
</mgrwt>
</event>
<event>
12    6  0.1457317E-007  0.1640958E+04  0.7818608E-02  0.8795774E-01
          2   -1    0    0  501    0  0.00000000000E+00  0.00000000000E+00  0.11086833832E+04  0.11086833832E+04  0.00000000000E+00 0. -1.
         -1   -1    0    0    0  501 -0.00000000000E+00 -0.00000000000E+00 -0.60719393845E+03  0.60719393845E+03  0.00000000000E+00 0.  1.
         24    2    1    2    0    0  0.15585909100E+03  0.33043093409E+03  0.61159146775E+03  0.71683302675E+03  0.79553795365E+02 0.  0.
        254    2    1    2    0    0 -0.15585909100E+03 -0.33043093409E+03 -0.11010202299E+03  0.99904429492E+03  0.92330406113E+03 0.  0.
         23    2    4    4    0    0 -0.45025592566E+03 -0.46047309235E+02  0.17302835106E+03  0.49338745115E+03  0.92960278610E+02 0.  0.
         23    2    4    4    0    0  0.29439683466E+03 -0.28438362486E+03 -0.28313037405E+03  0.50565684377E+03  0.89344796167E+02 0.  0.
          4    1    3    3  502    0  0.12424014055E+03  0.18255205299E+03  0.32729655019E+03  0.39482134737E+03  0.00000000000E+00 0. -1.
         -3    1    3    3    0  502  0.31618950459E+02  0.14787888110E+03  0.28429491756E+03  0.32201167937E+03  0.00000000000E+00 0.  1.
         11    1    5    5    0    0 -0.35532067523E+03 -0.37810112928E+02  0.93726859153E+02  0.36941455170E+03  0.00000000000E+00 0.  1.
        -11    1    5    5    0    0 -0.94935250434E+02 -0.82371963074E+01  0.79301491909E+02  0.12397289945E+03  0.00000000000E+00 0. -1.
          3    1    6    6  503    0  0.13136168456E+03 -0.12444052596E+03 -0.17942945792E+03  0.25482595441E+03  0.00000000000E+00 0. -1.
         -3    1    6    6    0  503  0.16303515010E+03 -0.15994309890E+03 -0.10370091613E+03  0.25083088936E+03  0.00000000000E+00 0.  1.
<mgrwt>
<rscale>  0 0.16409580E+04</rscale>
<asrwt>0</asrwt>
<pdfrwt beam="1">  1        2 0.17056667E+00 0.16409580E+04</pdfrwt>
<pdfrwt beam="2">  1       -1 0.93414452E-01 0.16409580E+04</pdfrwt>
<totfact> 0.26093037E+01</totfact>
</mgrwt>
</event>
<event>
12    6  0.1457317E-007  0.1852606E+04  0.7818608E-02  0.8678814E-01
          2   -1    0    0  501    0  0.00000000000E+00  0.00000000000E+00  0.87755708218E+03  0.87755708218E+03  0.00000000000E+00 0. -1.
         -1   -1    0    0    0  501 -0.00000000000E+00 -0.00000000000E+00 -0.97775648620E+03  0.97775648620E+03  0.00000000000E+00 0.  1.
         24    2    1    2    0    0  0.62798016737E+03 -0.10305210358E+03  0.26719626499E+03  0.69496673082E+03  0.81277833704E+02 0.  0.
        254    2    1    2    0    0 -0.62798016737E+03  0.10305210358E+03 -0.36739566901E+03  0.11603468376E+04  0.89802359611E+03 0.  0.
         23    2    4    4    0    0  0.44612107950E+02  0.18479555898E+03 -0.42463532944E+03  0.47426785864E+03  0.92060849058E+02 0.  0.
         23    2    4    4    0    0 -0.67259227532E+03 -0.81743455405E+02  0.57239660430E+02  0.68607897893E+03  0.91463792133E+02 0.  0.
          2    1    3    3  502    0  0.56915807128E+03 -0.73896873786E+02  0.25569215985E+03  0.62831531786E+03  0.00000000000E+00 0. -1.
         -1    1    3    3    0  502  0.58822096098E+02 -0.29155229793E+02  0.11504105141E+02  0.66651412954E+02  0.00000000000E+00 0.  1.
         11    1    5    5    0    0 -0.20533355106E+02  0.22218495690E+02 -0.30449504117E+02  0.42923799035E+02  0.00000000000E+00 0. -1.
        -11    1    5    5    0    0  0.65145463056E+02  0.16257706329E+03 -0.39418582533E+03  0.43134405960E+03  0.00000000000E+00 0.  1.
          3    1    6    6  503    0 -0.70925194778E+02  0.18236282665E+02  0.14596819159E+02  0.74672701768E+02  0.00000000000E+00 0. -1.
         -3    1    6    6    0  503 -0.60166708055E+03 -0.99979738070E+02  0.42642841271E+02  0.61140627716E+03  0.00000000000E+00 0.  1.
<mgrwt>
<rscale>  0 0.18526059E+04</rscale>
<asrwt>0</asrwt>
<pdfrwt beam="1">  1        2 0.13500878E+00 0.18526059E+04</pdfrwt>
<pdfrwt beam="2">  1       -1 0.15042407E+00 0.18526059E+04</pdfrwt>
<totfact> 0.11283682E+01</totfact>
</mgrwt>
</event>
<event>
12    6  0.1457317E-007  0.1433733E+04  0.7818608E-02  0.8929756E-01
         -1   -1    0    0    0  501 -0.00000000000E+00  0.00000000000E+00  0.31542938225E+03  0.31542938225E+03  0.00000000000E+00 0.  1.
          2   -1    0    0  501    0  0.00000000000E+00 -0.00000000000E+00 -0.16292008130E+04  0.16292008130E+04  0.00000000000E+00 0. -1.
         24    2    1    2    0    0 -0.29630993479E+03 -0.10575312866E+03 -0.75565504883E+03  0.82259022272E+03  0.81589337620E+02 0.  0.
        254    2    1    2    0    0  0.29630993479E+03  0.10575312866E+03 -0.55811638195E+03  0.11220399726E+04  0.92113869887E+03 0.  0.
         23    2    4    4    0    0 -0.21592106882E+03 -0.32858561585E+02 -0.53194008864E+03  0.58281456999E+03  0.94926140068E+02 0.  0.
         23    2    4    4    0    0  0.51223100361E+03  0.13861169024E+03 -0.26176293313E+02  0.53922540257E+03  0.92114248165E+02 0.  0.
          2    1    3    3  502    0 -0.27372926815E+03 -0.70553659986E+02 -0.64162558786E+03  0.70113402868E+03  0.00000000000E+00 0. -1.
         -1    1    3    3    0  502 -0.22580666642E+02 -0.35199468672E+02 -0.11402946097E+03  0.12145619404E+03  0.00000000000E+00 0.  1.
         11    1    5    5    0    0 -0.13638873360E+03 -0.59913747482E+02 -0.39503314261E+03  0.42218802393E+03  0.00000000000E+00 0. -1.
        -11    1    5    5    0    0 -0.79532335222E+02  0.27055185897E+02 -0.13690694602E+03  0.16062654606E+03  0.00000000000E+00 0.  1.
          2    1    6    6  503    0  0.36124482615E+03  0.84190360117E+02 -0.58493598977E+02  0.37550944366E+03  0.00000000000E+00 0.  1.
         -2    1    6    6    0  503  0.15098617746E+03  0.54421330127E+02  0.32317305664E+02  0.16371595891E+03  0.00000000000E+00 0. -1.
<mgrwt>
<rscale>  0 0.14337333E+04</rscale>
<asrwt>0</asrwt>
<pdfrwt beam="1">  1        2 0.25064628E+00 0.14337333E+04</pdfrwt>
<pdfrwt beam="2">  1       -1 0.48527596E-01 0.14337333E+04</pdfrwt>
<totfact> 0.50473522E+01</totfact>
</mgrwt>
</event>
<event>
12    6  0.1457317E-007  0.1558536E+04  0.7818608E-02  0.8846434E-01
         -1   -1    0    0    0  501 -0.00000000000E+00  0.00000000000E+00  0.66516471945E+03  0.66516471945E+03  0.00000000000E+00 0.  1.
          2   -1    0    0  501    0  0.00000000000E+00 -0.00000000000E+00 -0.91294419020E+03  0.91294419020E+03  0.00000000000E+00 0. -1.
         24    2    1    2    0    0  0.56528446035E+02 -0.35054233887E+03 -0.45988899465E+03  0.58648984268E+03  0.79981570466E+02 0.  0.
        254    2    1    2    0    0 -0.56528446035E+02  0.35054233887E+03  0.21210952390E+03  0.99161906698E+03  0.90124498740E+03 0.  0.
         23    2    4    4    0    0  0.17014006598E+03  0.36798852105E+03 -0.23781087387E+03  0.47920514328E+03  0.93382888883E+02 0.  0.
         23    2    4    4    0    0 -0.22666851201E+03 -0.17446182179E+02  0.44992039776E+03  0.51241392370E+03  0.91960215688E+02 0.  0.
          4    1    3    3  502    0  0.73640832000E+02 -0.32330109784E+03 -0.42472993576E+03  0.53883401000E+03  0.00000000000E+00 0. -1.
         -3    1    3    3    0  502 -0.17112385965E+02 -0.27241241029E+02 -0.35159058884E+02  0.47655832674E+02  0.00000000000E+00 0.  1.
         11    1    5    5    0    0  0.15217652788E+03  0.36321000147E+03 -0.21153573191E+03  0.44701964910E+03  0.00000000000E+00 0.  1.
        -11    1    5    5    0    0  0.17963538095E+02  0.47785195751E+01 -0.26275141956E+02  0.32185494171E+02  0.00000000000E+00 0. -1.
          4    1    6    6  503    0 -0.23321647766E+03 -0.13766600167E+02  0.44697280300E+03  0.50434525015E+03  0.00000000000E+00 0.  1.
         -4    1    6    6    0  503  0.65479656493E+01 -0.36795820126E+01  0.29475947668E+01  0.80686735490E+01  0.00000000000E+00 0. -1.
<mgrwt>
<rscale>  0 0.15585356E+04</rscale>
<asrwt>0</asrwt>
<pdfrwt beam="1">  1        2 0.14045295E+00 0.15585356E+04</pdfrwt>
<pdfrwt beam="2">  1       -1 0.10233303E+00 0.15585356E+04</pdfrwt>
<totfact> 0.28521455E+01</totfact>
</mgrwt>
</event>
<event>
12    6  0.1457317E-007  0.1465601E+04  0.7818608E-02  0.8907655E-01
         -1   -1    0    0    0  501 -0.00000000000E+00  0.00000000000E+00  0.27008318391E+03  0.27008318391E+03  0.00000000000E+00 0.  1.
          2   -1    0    0  501    0  0.00000000000E+00 -0.00000000000E+00 -0.19882647622E+04  0.19882647622E+04  0.00000000000E+00 0. -1.
         24    2    1    2    0    0 -0.21273307817E+03 -0.35925581810E+02  0.70530722121E+02  0.24097660379E+03  0.80926700396E+02 0.  0.
        254    2    1    2    0    0  0.21273307817E+03  0.35925581810E+02 -0.17887123004E+04  0.20173713423E+04  0.90760642859E+03 0.  0.
         23    2    4    4    0    0 -0.26399540800E+03  0.85271265825E+02 -0.12782506391E+04  0.13109920549E+04  0.88378206394E+02 0.  0.
         23    2    4    4    0    0  0.47672848617E+03 -0.49345684015E+02 -0.51046166133E+03  0.70637928746E+03  0.93249900869E+02 0.  0.
          4    1    3    3  502    0 -0.28127689995E+02 -0.26090153473E+02  0.36597041580E+02  0.53020812000E+02  0.00000000000E+00 0. -1.
         -3    1    3    3    0  502 -0.18460538817E+03 -0.98354283366E+01  0.33933680541E+02  0.18795579179E+03  0.00000000000E+00 0.  1.
         11    1    5    5    0    0 -0.83301268333E+02  0.58759580886E+02 -0.59929332490E+03  0.60790153720E+03  0.00000000000E+00 0. -1.
        -11    1    5    5    0    0 -0.18069413967E+03  0.26511684939E+02 -0.67895731419E+03  0.70309051767E+03  0.00000000000E+00 0.  1.
          1    1    6    6  503    0  0.47594235417E+03 -0.38678143974E+02 -0.50077622890E+03  0.69194938741E+03  0.00000000000E+00 0. -1.
         -1    1    6    6    0  503  0.78613200216E+00 -0.10667540041E+02 -0.96854324304E+01  0.14429900049E+02  0.00000000000E+00 0.  1.
<mgrwt>
<rscale>  0 0.14656014E+04</rscale>
<asrwt>0</asrwt>
<pdfrwt beam="1">  1        2 0.30588688E+00 0.14656014E+04</pdfrwt>
<pdfrwt beam="2">  1       -1 0.41551259E-01 0.14656014E+04</pdfrwt>
<totfact> 0.42520454E+01</totfact>
</mgrwt>
</event>
<event>
12    6  0.1457317E-007  0.1485745E+04  0.7818608E-02  0.8893988E-01
         -1   -1    0    0    0  501 -0.00000000000E+00  0.00000000000E+00  0.21599228659E+03  0.21599228659E+03  0.00000000000E+00 0.  1.
          2   -1    0    0  501    0  0.00000000000E+00 -0.00000000000E+00 -0.25549955505E+04  0.25549955505E+04  0.00000000000E+00 0. -1.
         24    2    1    2    0    0 -0.82245595582E+00  0.56430817981E+02  0.11850189570E+03  0.15321582891E+03  0.79039719717E+02 0.  0.
        254    2    1    2    0    0  0.82245595582E+00 -0.56430817981E+02 -0.24575051596E+04  0.26177720082E+04  0.90011863866E+03 0.  0.
         23    2    4    4    0    0 -0.28874065565E+03 -0.26907618332E+03 -0.19374896528E+04  0.19791718918E+04  0.86498922463E+02 0.  0.
         23    2    4    4    0    0  0.28956311160E+03  0.21264536534E+03 -0.52001550678E+03  0.63860011644E+03  0.91264091621E+02 0.  0.
          4    1    3    3  502    0  0.73127812896E+01 -0.19450063729E+02  0.23940819015E+02  0.31700860625E+02  0.00000000000E+00 0. -1.
         -3    1    3    3    0  502 -0.81352372454E+01  0.75880881709E+02  0.94561076682E+02  0.12151496828E+03  0.00000000000E+00 0.  1.
         11    1    5    5    0    0 -0.99474134970E+02 -0.14409854734E+03 -0.94638622983E+03  0.96244812374E+03  0.00000000000E+00 0.  1.
        -11    1    5    5    0    0 -0.18926652068E+03 -0.12497763598E+03 -0.99110342301E+03  0.10167237680E+04  0.00000000000E+00 0. -1.
          4    1    6    6  503    0  0.28449584590E+03  0.17790121365E+03 -0.47246109338E+03  0.57948788850E+03  0.00000000000E+00 0. -1.
         -4    1    6    6    0  503  0.50672657002E+01  0.34744151694E+02 -0.47554413397E+02  0.59112227941E+02  0.00000000000E+00 0.  1.
<mgrwt>
<rscale>  0 0.14857447E+04</rscale>
<asrwt>0</asrwt>
<pdfrwt beam="1">  1        2 0.39307621E+00 0.14857447E+04</pdfrwt>
<pdfrwt beam="2">  1       -1 0.33229585E-01 0.14857447E+04</pdfrwt>
<totfact> 0.30430576E+01</totfact>
</mgrwt>
</event>
<event>
12    6  0.1457317E-007  0.1680200E+04  0.7818608E-02  0.8772738E-01
          2   -1    0    0  501    0  0.00000000000E+00  0.00000000000E+00  0.10657134586E+04  0.10657134586E+04  0.00000000000E+00 0. -1.
         -1   -1    0    0    0  501 -0.00000000000E+00 -0.00000000000E+00 -0.66224946782E+03  0.66224946782E+03  0.00000000000E+00 0.  1.
         24    2    1    2    0    0 -0.15472747049E+03  0.36560105118E+03 -0.32152817020E+03  0.51765365757E+03  0.83547748145E+02 0.  0.
        254    2    1    2    0    0  0.15472747049E+03 -0.36560105118E+03  0.72499216096E+03  0.12103092688E+04  0.88409850922E+03 0.  0.
         23    2    4    4    0    0 -0.44414526935E+02  0.49600720150E+02 -0.16721103609E+03  0.20214678320E+03  0.92037545192E+02 0.  0.
         23    2    4    4    0    0  0.19914199742E+03 -0.41520177133E+03  0.89220319705E+03  0.10081624856E+04  0.91186657691E+02 0.  0.
          2    1    3    3  502    0 -0.14901269494E+02  0.47989080326E+01 -0.27591446739E+02  0.31723260929E+02  0.00000000000E+00 0. -1.
         -1    1    3    3    0  502 -0.13982620099E+03  0.36080214315E+03 -0.29393672346E+03  0.48593039664E+03  0.00000000000E+00 0.  1.
         11    1    5    5    0    0  0.13598374493E+02  0.26827941447E+02 -0.79272018748E+01  0.31104577810E+02  0.00000000000E+00 0. -1.
        -11    1    5    5    0    0 -0.58012901428E+02  0.22772778702E+02 -0.15928383422E+03  0.17104220539E+03  0.00000000000E+00 0.  1.
          4    1    6    6  503    0  0.22323392672E+02 -0.13882795957E+03  0.29384301482E+03  0.32575336311E+03  0.00000000000E+00 0. -1.
         -4    1    6    6    0  503  0.17681860475E+03 -0.27637381176E+03  0.59836018223E+03  0.68240912251E+03  0.00000000000E+00 0.  1.
<mgrwt>
<rscale>  0 0.16802002E+04</rscale>
<asrwt>0</asrwt>
<pdfrwt beam="1">  1        2 0.16395592E+00 0.16802002E+04</pdfrwt>
<pdfrwt beam="2">  1       -1 0.10188453E+00 0.16802002E+04</pdfrwt>
<totfact> 0.22716072E+01</totfact>
</mgrwt>
</event>
<event>
12    6  0.1457317E-007  0.2097589E+04  0.7818608E-02  0.8562306E-01
         -1   -1    0    0    0  501 -0.00000000000E+00  0.00000000000E+00  0.51996382436E+03  0.51996382436E+03  0.00000000000E+00 0.  1.
          2   -1    0    0  501    0  0.00000000000E+00 -0.00000000000E+00 -0.21154742719E+04  0.21154742719E+04  0.00000000000E+00 0. -1.
         24    2    1    2    0    0  0.73016627560E+03  0.13875622766E+03 -0.11818704565E+04  0.13980518190E+04  0.73041303563E+02 0.  0.
        254    2    1    2    0    0 -0.73016627560E+03 -0.13875622766E+03 -0.41363999110E+03  0.12373862773E+04  0.89868274502E+03 0.  0.
         23    2    4    4    0    0 -0.36924925460E+03 -0.76603351171E+01  0.25721244863E+03  0.45967889468E+03  0.93502672300E+02 0.  0.
         23    2    4    4    0    0 -0.36091702100E+03 -0.13109589255E+03 -0.67085243973E+03  0.77770738259E+03  0.85665325227E+02 0.  0.
          4    1    3    3  502    0  0.52715967230E+03  0.13241272760E+03 -0.84684933761E+03  0.10062724537E+04  0.00000000000E+00 0. -1.
         -3    1    3    3    0  502  0.20300660330E+03  0.63435000614E+01 -0.33502111884E+03  0.39177936526E+03  0.00000000000E+00 0.  1.
         11    1    5    5    0    0 -0.27213778619E+03 -0.47047915497E+02  0.18489390910E+03  0.33235258182E+03  0.00000000000E+00 0. -1.
        -11    1    5    5    0    0 -0.97111468415E+02  0.39387580380E+02  0.72318539533E+02  0.12732631286E+03  0.00000000000E+00 0.  1.
          1    1    6    6  503    0 -0.16016501039E+03 -0.38325392377E+02 -0.36344415003E+03  0.39901543385E+03  0.00000000000E+00 0. -1.
         -1    1    6    6    0  503 -0.20075201061E+03 -0.92770500170E+02 -0.30740828970E+03  0.37869194874E+03  0.00000000000E+00 0.  1.
<mgrwt>
<rscale>  0 0.20975892E+04</rscale>
<asrwt>0</asrwt>
<pdfrwt beam="1">  1        2 0.32545758E+00 0.20975892E+04</pdfrwt>
<pdfrwt beam="2">  1       -1 0.79994435E-01 0.20975892E+04</pdfrwt>
<totfact> 0.94279684E+00</totfact>
</mgrwt>
</event>
<event>
12    6  0.1457317E-007  0.1945870E+04  0.7818608E-02  0.8632355E-01
          2   -1    0    0  501    0  0.00000000000E+00  0.00000000000E+00  0.88325293441E+03  0.88325293441E+03  0.00000000000E+00 0. -1.
         -1   -1    0    0    0  501 -0.00000000000E+00 -0.00000000000E+00 -0.10717233439E+04  0.10717233439E+04  0.00000000000E+00 0.  1.
         24    2    1    2    0    0  0.61227055112E+02  0.26607936353E+03  0.64640133793E+03  0.70618221400E+03  0.79445891750E+02 0.  0.
        254    2    1    2    0    0 -0.61227055112E+02 -0.26607936353E+03 -0.83487174743E+03  0.12487940643E+04  0.88765353625E+03 0.  0.
         23    2    4    4    0    0 -0.19637200283E+03 -0.51671649533E+03 -0.29810121484E+03  0.63460817854E+03  0.91133451231E+02 0.  0.
         23    2    4    4    0    0  0.13514494772E+03  0.25063713180E+03 -0.53677053259E+03  0.61418588576E+03  0.89546462147E+02 0.  0.
          4    1    3    3  502    0  0.57349830899E+02  0.27148633407E+03  0.62649131990E+03  0.68518990550E+03  0.00000000000E+00 0. -1.
         -3    1    3    3    0  502  0.38772242133E+01 -0.54069705423E+01  0.19910018032E+02  0.20992308498E+02  0.00000000000E+00 0.  1.
         11    1    5    5    0    0 -0.54293614877E+02 -0.69420753988E+02 -0.71300144525E+02  0.11336114109E+03  0.00000000000E+00 0. -1.
        -11    1    5    5    0    0 -0.14207838796E+03 -0.44729574135E+03 -0.22680107031E+03  0.52124703745E+03  0.00000000000E+00 0.  1.
          1    1    6    6  503    0  0.31223129958E+02  0.49402893118E+01 -0.62320478036E+02  0.69879412458E+02  0.00000000000E+00 0. -1.
         -1    1    6    6    0  503  0.10392181776E+03  0.24569684249E+03 -0.47445005455E+03  0.54430647331E+03  0.00000000000E+00 0.  1.
<mgrwt>
<rscale>  0 0.19458703E+04</rscale>
<asrwt>0</asrwt>
<pdfrwt beam="1">  1        2 0.13588507E+00 0.19458703E+04</pdfrwt>
<pdfrwt beam="2">  1       -1 0.16488051E+00 0.19458703E+04</pdfrwt>
<totfact> 0.86071002E+00</totfact>
</mgrwt>
</event>
<event>
12    6  0.1457317E-007  0.1816593E+04  0.7818608E-02  0.8697525E-01
          2   -1    0    0  501    0  0.00000000000E+00  0.00000000000E+00  0.16777430529E+04  0.16777430529E+04  0.00000000000E+00 0. -1.
         -1   -1    0    0    0  501 -0.00000000000E+00 -0.00000000000E+00 -0.49173348586E+03  0.49173348586E+03  0.00000000000E+00 0.  1.
         24    2    1    2    0    0 -0.40105253428E+03 -0.43396058158E+03  0.35434061792E+02  0.59738192332E+03  0.80278689313E+02 0.  0.
        254    2    1    2    0    0  0.40105253428E+03  0.43396058158E+03  0.11505755052E+04  0.15720946154E+04  0.89358411187E+03 0.  0.
         23    2    4    4    0    0 -0.12892207321E+03  0.40267040717E+03  0.19479418202E+03  0.47465822594E+03  0.92689267634E+02 0.  0.
         23    2    4    4    0    0  0.52997460749E+03  0.31290174415E+02  0.95578132321E+03  0.10974363895E+04  0.94850047805E+02 0.  0.
          2    1    3    3  502    0 -0.31088400548E+02 -0.96262482211E+01  0.91237371944E+01  0.33799347387E+02  0.00000000000E+00 0. -1.
         -1    1    3    3    0  502 -0.36996413374E+03 -0.42433433336E+03  0.26310324598E+02  0.56358257594E+03  0.00000000000E+00 0.  1.
         11    1    5    5    0    0 -0.72854856528E+02  0.30898029217E+03  0.10847986159E+03  0.33547657361E+03  0.00000000000E+00 0.  1.
        -11    1    5    5    0    0 -0.56067216680E+02  0.93690114993E+02  0.86314320426E+02  0.13918165233E+03  0.00000000000E+00 0. -1.
          2    1    6    6  503    0  0.34381881400E+01 -0.94288929633E+01  0.98107308790E+01  0.14034799627E+02  0.00000000000E+00 0. -1.
         -2    1    6    6    0  503  0.52653641935E+03  0.40719067378E+02  0.94597059233E+03  0.10834015899E+04  0.00000000000E+00 0.  1.
<mgrwt>
<rscale>  0 0.18165929E+04</rscale>
<asrwt>0</asrwt>
<pdfrwt beam="1">  1        2 0.25811431E+00 0.18165929E+04</pdfrwt>
<pdfrwt beam="2">  1       -1 0.75651306E-01 0.18165929E+04</pdfrwt>
<totfact> 0.19027257E+01</totfact>
</mgrwt>
</event>
<event>
12    6  0.1457317E-007  0.1395998E+04  0.7818608E-02  0.8956721E-01
         -3   -1    0    0    0  501 -0.00000000000E+00  0.00000000000E+00  0.12446460357E+04  0.12446460357E+04  0.00000000000E+00 0.  1.
          4   -1    0    0  501    0  0.00000000000E+00 -0.00000000000E+00 -0.39143852768E+03  0.39143852768E+03  0.00000000000E+00 0. -1.
         24    2    1    2    0    0  0.13871019678E+03  0.16407180013E+03 -0.14864194723E+03  0.27303788782E+03  0.79342204508E+02 0.  0.
        254    2    1    2    0    0 -0.13871019678E+03 -0.16407180013E+03  0.10018494553E+04  0.13630466756E+04  0.89890702215E+03 0.  0.
         23    2    4    4    0    0  0.23977995033E+03  0.19469021149E+03  0.65340114036E+03  0.72860786090E+03  0.92399468111E+02 0.  0.
         23    2    4    4    0    0 -0.37849014712E+03 -0.35876201162E+03  0.34844831489E+03  0.63443881466E+03  0.95558405930E+02 0.  0.
          2    1    3    3  502    0  0.14212389037E+03  0.15637730802E+03 -0.11962239725E+03  0.24282211720E+03  0.00000000000E+00 0. -1.
         -1    1    3    3    0  502 -0.34136935868E+01  0.76944921160E+01 -0.29019549987E+02  0.30215770621E+02  0.00000000000E+00 0.  1.
         11    1    5    5    0    0  0.71849238796E+01 -0.22198977230E+01 -0.12175847558E+00  0.75210306596E+01  0.00000000000E+00 0.  1.
        -11    1    5    5    0    0  0.23259502645E+03  0.19691010921E+03  0.65352289883E+03  0.72108683024E+03  0.00000000000E+00 0. -1.
          1    1    6    6  503    0 -0.36432968939E+03 -0.33424051841E+03  0.35048887003E+03  0.60604892107E+03  0.00000000000E+00 0. -1.
         -1    1    6    6    0  503 -0.14160457732E+02 -0.24521493216E+02 -0.20405551384E+01  0.28389893589E+02  0.00000000000E+00 0.  1.
<mgrwt>
<rscale>  0 0.13959977E+04</rscale>
<asrwt>0</asrwt>
<pdfrwt beam="1">  1        4 0.60221312E-01 0.13959977E+04</pdfrwt>
<pdfrwt beam="2">  1       -3 0.19148400E+00 0.13959977E+04</pdfrwt>
<totfact> 0.96307135E-01</totfact>
</mgrwt>
</event>
<event>
12    6  0.1457317E-007  0.1358676E+04  0.7818608E-02  0.8984286E-01
         -1   -1    0    0    0  501 -0.00000000000E+00  0.00000000000E+00  0.79780373628E+03  0.79780373628E+03  0.00000000000E+00 0.  1.
          2   -1    0    0  501    0  0.00000000000E+00 -0.00000000000E+00 -0.57846351975E+03  0.57846351975E+03  0.00000000000E+00 0. -1.
         24    2    1    2    0    0  0.79698342908E+02  0.60750155629E+02 -0.29599108310E+03  0.32193625658E+03  0.77393958133E+02 0.  0.
        254    2    1    2    0    0 -0.79698342908E+02 -0.60750155629E+02  0.51533129963E+03  0.10543309994E+04  0.91433314539E+03 0.  0.
         23    2    4    4    0    0 -0.38403077308E+03  0.81649101142E+02 -0.34843443690E+02  0.40447833590E+03  0.90787930116E+02 0.  0.
         23    2    4    4    0    0  0.30433243017E+03 -0.14239925677E+03  0.55017474332E+03  0.64985266355E+03  0.81978410290E+02 0.  0.
          2    1    3    3  502    0  0.25411772748E+02 -0.17240047020E+02 -0.56966099176E+02  0.64715638533E+02  0.00000000000E+00 0. -1.
         -1    1    3    3    0  502  0.54286570160E+02  0.77990202649E+02 -0.23902498392E+03  0.25722061805E+03  0.00000000000E+00 0.  1.
         11    1    5    5    0    0 -0.14414854669E+03  0.39448256147E+01  0.22338048527E+02  0.14592242314E+03  0.00000000000E+00 0. -1.
        -11    1    5    5    0    0 -0.23988222639E+03  0.77704275527E+02 -0.57181492217E+02  0.25855591276E+03  0.00000000000E+00 0.  1.
          4    1    6    6  503    0  0.17956587926E+03 -0.93440325137E+02  0.25423725029E+03  0.32497935133E+03  0.00000000000E+00 0. -1.
         -4    1    6    6    0  503  0.12476655092E+03 -0.48958931635E+02  0.29593749302E+03  0.32487331222E+03  0.00000000000E+00 0.  1.
<mgrwt>
<rscale>  0 0.13586764E+04</rscale>
<asrwt>0</asrwt>
<pdfrwt beam="1">  1        2 0.88994387E-01 0.13586764E+04</pdfrwt>
<pdfrwt beam="2">  1       -1 0.12273904E+00 0.13586764E+04</pdfrwt>
<totfact> 0.33876341E+01</totfact>
</mgrwt>
</event>
<event>
12    6  0.1457317E-007  0.1317954E+04  0.7818608E-02  0.9015448E-01
          2   -1    0    0  501    0  0.00000000000E+00  0.00000000000E+00  0.47619614079E+03  0.47619614079E+03  0.00000000000E+00 0. -1.
         -1   -1    0    0    0  501 -0.00000000000E+00 -0.00000000000E+00 -0.91191531706E+03  0.91191531706E+03  0.00000000000E+00 0.  1.
         24    2    1    2    0    0  0.33744093355E+03  0.26192799486E+02 -0.19203884742E+03  0.39711342035E+03  0.79168827939E+02 0.  0.
        254    2    1    2    0    0 -0.33744093355E+03 -0.26192799486E+02 -0.24368032885E+03  0.99099803750E+03  0.89896860972E+03 0.  0.
         23    2    4    4    0    0 -0.57377749039E+03  0.20635596464E+03 -0.16681011404E+03  0.63877129999E+03  0.91650242373E+02 0.  0.
         23    2    4    4    0    0  0.23633655683E+03 -0.23254876412E+03 -0.76870214807E+02  0.35222673751E+03  0.90668345624E+02 0.  0.
          2    1    3    3  502    0  0.74939596215E+02 -0.20183418922E+01 -0.82301215966E+01  0.75417184291E+02  0.00000000000E+00 0. -1.
         -1    1    3    3    0  502  0.26250133734E+03  0.28211141378E+02 -0.18380872583E+03  0.32169623606E+03  0.00000000000E+00 0.  1.
         11    1    5    5    0    0 -0.56177394261E+03  0.19298187285E+03 -0.17468601260E+03  0.61915036045E+03  0.00000000000E+00 0. -1.
        -11    1    5    5    0    0 -0.12003547775E+02  0.13374091792E+02  0.78758985559E+01  0.19620939542E+02  0.00000000000E+00 0.  1.
          2    1    6    6  503    0  0.23261777789E+03 -0.21111773116E+03 -0.90056889769E+02  0.32679040744E+03  0.00000000000E+00 0. -1.
         -2    1    6    6    0  503  0.37187789481E+01 -0.21431032965E+02  0.13186674962E+02  0.25436330069E+02  0.00000000000E+00 0.  1.
<mgrwt>
<rscale>  0 0.13179538E+04</rscale>
<asrwt>0</asrwt>
<pdfrwt beam="1">  1        2 0.73260946E-01 0.13179538E+04</pdfrwt>
<pdfrwt beam="2">  1       -1 0.14029466E+00 0.13179538E+04</pdfrwt>
<totfact> 0.30419824E+01</totfact>
</mgrwt>
</event>
<event>
12    6  0.1457317E-007  0.1588024E+04  0.7818608E-02  0.8827939E-01
          2   -1    0    0  501    0  0.00000000000E+00  0.00000000000E+00  0.40709912290E+04  0.40709912290E+04  0.00000000000E+00 0. -1.
         -1   -1    0    0    0  501 -0.00000000000E+00 -0.00000000000E+00 -0.15486533164E+03  0.15486533164E+03  0.00000000000E+00 0.  1.
         24    2    1    2    0    0 -0.34322870264E+03  0.18942427519E+03  0.23243564337E+04  0.23585105354E+04  0.79067163945E+02 0.  0.
        254    2    1    2    0    0  0.34322870264E+03 -0.18942427519E+03  0.15917694636E+04  0.18673460252E+04  0.89418323296E+03 0.  0.
         23    2    4    4    0    0  0.19420764248E+03 -0.41647157392E+03  0.14948045171E+04  0.15659060809E+04  0.80350043710E+02 0.  0.
         23    2    4    4    0    0  0.14902106016E+03  0.22704729873E+03  0.96964946445E+02  0.30143994423E+03  0.87784320392E+02 0.  0.
          4    1    3    3  502    0 -0.30792463963E+03  0.18697794295E+03  0.21965391941E+04  0.22258847153E+04  0.00000000000E+00 0. -1.
         -3    1    3    3    0  502 -0.35304063008E+02  0.24463322344E+01  0.12781723966E+03  0.13262582012E+03  0.00000000000E+00 0.  1.
         11    1    5    5    0    0  0.63616377378E+02 -0.14611740074E+03  0.65285032964E+03  0.67202000802E+03  0.00000000000E+00 0.  1.
        -11    1    5    5    0    0  0.13059126510E+03 -0.27035417318E+03  0.84195418750E+03  0.89388607290E+03  0.00000000000E+00 0. -1.
          3    1    6    6  503    0  0.64769186604E+02  0.11475986215E+03  0.17003810927E+01  0.13178681569E+03  0.00000000000E+00 0. -1.
         -3    1    6    6    0  503  0.84251873558E+02  0.11228743658E+03  0.95264565352E+02  0.16965312854E+03  0.00000000000E+00 0.  1.
<mgrwt>
<rscale>  0 0.15880244E+04</rscale>
<asrwt>0</asrwt>
<pdfrwt beam="1">  1        2 0.62630626E+00 0.15880244E+04</pdfrwt>
<pdfrwt beam="2">  1       -1 0.23825439E-01 0.15880244E+04</pdfrwt>
<totfact> 0.50845706E+00</totfact>
</mgrwt>
</event>
<event>
12    6  0.1457317E-007  0.2972131E+04  0.7818608E-02  0.8251734E-01
         -1   -1    0    0    0  501 -0.00000000000E+00  0.00000000000E+00  0.89769525594E+03  0.89769525594E+03  0.00000000000E+00 0.  1.
          2   -1    0    0  501    0  0.00000000000E+00 -0.00000000000E+00 -0.24600676563E+04  0.24600676563E+04  0.00000000000E+00 0. -1.
         24    2    1    2    0    0 -0.19053563533E+03  0.17780612056E+03 -0.22065317542E+04  0.22233059766E+04  0.79926455567E+02 0.  0.
        254    2    1    2    0    0  0.19053563533E+03 -0.17780612056E+03  0.64415935385E+03  0.11344569357E+04  0.89673430897E+03 0.  0.
         23    2    4    4    0    0 -0.20847875619E+03  0.23131601088E+03  0.37622334388E+03  0.49691262491E+03  0.91693312962E+02 0.  0.
         23    2    4    4    0    0  0.39901439151E+03 -0.40912213144E+03  0.26793600997E+03  0.63754431076E+03  0.89886815913E+02 0.  0.
          2    1    3    3  502    0 -0.80269000293E+02  0.11239071245E+03 -0.13793403970E+04  0.13862376115E+04  0.00000000000E+00 0. -1.
         -1    1    3    3    0  502 -0.11026663503E+03  0.65415408114E+02 -0.82719135721E+03  0.83706836511E+03  0.00000000000E+00 0.  1.
         11    1    5    5    0    0 -0.71289347162E+02  0.88331632562E+02  0.20810281701E+03  0.23704731760E+03  0.00000000000E+00 0. -1.
        -11    1    5    5    0    0 -0.13718940902E+03  0.14298437831E+03  0.16812052687E+03  0.25986530731E+03  0.00000000000E+00 0.  1.
          1    1    6    6  503    0  0.74724126172E+02 -0.12606795811E+03  0.48318957185E+02  0.15430990480E+03  0.00000000000E+00 0. -1.
         -1    1    6    6    0  503  0.32429026534E+03 -0.28305417333E+03  0.21961705279E+03  0.48323440596E+03  0.00000000000E+00 0.  1.
<mgrwt>
<rscale>  0 0.29721313E+04</rscale>
<asrwt>0</asrwt>
<pdfrwt beam="1">  1        2 0.37847194E+00 0.29721313E+04</pdfrwt>
<pdfrwt beam="2">  1       -1 0.13810696E+00 0.29721313E+04</pdfrwt>
<totfact> 0.15548333E+00</totfact>
</mgrwt>
</event>
<event>
12    6  0.1457317E-007  0.2026868E+04  0.7818608E-02  0.8594161E-01
         -1   -1    0    0    0  501 -0.00000000000E+00  0.00000000000E+00  0.47804008816E+03  0.47804008816E+03  0.00000000000E+00 0.  1.
          2   -1    0    0  501    0  0.00000000000E+00 -0.00000000000E+00 -0.21484574245E+04  0.21484574245E+04  0.00000000000E+00 0. -1.
         24    2    1    2    0    0 -0.61956672274E+03 -0.12553968918E+03 -0.12629473254E+04  0.14145059179E+04  0.78536027595E+02 0.  0.
        254    2    1    2    0    0  0.61956672274E+03  0.12553968918E+03 -0.40747001100E+03  0.12119915948E+04  0.95040448152E+03 0.  0.
         23    2    4    4    0    0  0.54301273685E+03  0.38971649021E+03  0.43248477132E+02  0.67582949101E+03  0.90184782672E+02 0.  0.
         23    2    4    4    0    0  0.76553985893E+02 -0.26417680103E+03 -0.45071848814E+03  0.53616210378E+03  0.93127606131E+02 0.  0.
          2    1    3    3  502    0 -0.44040519937E+03 -0.10613259598E+03 -0.96994791440E+03  0.10705231544E+04  0.00000000000E+00 0. -1.
         -1    1    3    3    0  502 -0.17916152337E+03 -0.19407093196E+02 -0.29299941096E+03  0.34398276345E+03  0.00000000000E+00 0.  1.
         11    1    5    5    0    0  0.31947127807E+03  0.25047805675E+03 -0.14488461729E+02  0.40621554617E+03  0.00000000000E+00 0.  1.
        -11    1    5    5    0    0  0.22354145878E+03  0.13923843346E+03  0.57736938861E+02  0.26961394485E+03  0.00000000000E+00 0. -1.
          4    1    6    6  503    0  0.76584845901E+02 -0.18474061691E+03 -0.38176049440E+03  0.43097031132E+03  0.00000000000E+00 0. -1.
         -4    1    6    6    0  503 -0.30860007719E-01 -0.79436184123E+02 -0.68957993735E+02  0.10519179246E+03  0.00000000000E+00 0.  1.
<mgrwt>
<rscale>  0 0.20268683E+04</rscale>
<asrwt>0</asrwt>
<pdfrwt beam="1">  1        2 0.33053191E+00 0.20268683E+04</pdfrwt>
<pdfrwt beam="2">  1       -1 0.73544630E-01 0.20268683E+04</pdfrwt>
<totfact> 0.10850727E+01</totfact>
</mgrwt>
</event>
<event>
12    6  0.1457317E-007  0.2455841E+04  0.7818608E-02  0.8418889E-01
         -1   -1    0    0    0  501 -0.00000000000E+00  0.00000000000E+00  0.48206725024E+03  0.48206725024E+03  0.00000000000E+00 0.  1.
          2   -1    0    0  501    0  0.00000000000E+00 -0.00000000000E+00 -0.31277548064E+04  0.31277548064E+04  0.00000000000E+00 0. -1.
         24    2    1    2    0    0  0.29603246252E+03  0.31046850939E+03 -0.25825693846E+04  0.26191851868E+04  0.80252742668E+02 0.  0.
        254    2    1    2    0    0 -0.29603246252E+03 -0.31046850939E+03 -0.63118171565E+02  0.99063686976E+03  0.89070286289E+03 0.  0.
         23    2    4    4    0    0 -0.41498758707E+03 -0.46396809583E+03 -0.27758621506E+03  0.68713470469E+03  0.87286334652E+02 0.  0.
         23    2    4    4    0    0  0.11895512455E+03  0.15349958645E+03  0.21446804350E+03  0.30350216508E+03  0.91676484595E+02 0.  0.
          4    1    3    3  502    0  0.29431222343E+03  0.28862707763E+03 -0.23800395412E+04  0.24154737615E+04  0.00000000000E+00 0. -1.
         -3    1    3    3    0  502  0.17202390834E+01  0.21841431761E+02 -0.20252984334E+03  0.20371142532E+03  0.00000000000E+00 0.  1.
         11    1    5    5    0    0 -0.16914929720E+03 -0.16394801419E+03 -0.14792988370E+03  0.27816126005E+03  0.00000000000E+00 0.  1.
        -11    1    5    5    0    0 -0.24583828987E+03 -0.30002008165E+03 -0.12965633136E+03  0.40897344464E+03  0.00000000000E+00 0. -1.
          3    1    6    6  503    0 -0.43025703678E+01 -0.92810103483E+01  0.14189378830E+02  0.17492505150E+02  0.00000000000E+00 0. -1.
         -3    1    6    6    0  503  0.12325769492E+03  0.16278059679E+03  0.20027866467E+03  0.28600965993E+03  0.00000000000E+00 0.  1.
<mgrwt>
<rscale>  0 0.24558405E+04</rscale>
<asrwt>0</asrwt>
<pdfrwt beam="1">  1        2 0.48119304E+00 0.24558405E+04</pdfrwt>
<pdfrwt beam="2">  1       -1 0.74164194E-01 0.24558405E+04</pdfrwt>
<totfact> 0.26928544E+00</totfact>
</mgrwt>
</event>
<event>
12    6  0.1457317E-007  0.1507697E+04  0.7818608E-02  0.8879351E-01
         -1   -1    0    0    0  501 -0.00000000000E+00  0.00000000000E+00  0.39635988242E+03  0.39635988242E+03  0.00000000000E+00 0.  1.
          2   -1    0    0  501    0  0.00000000000E+00 -0.00000000000E+00 -0.14337663818E+04  0.14337663818E+04  0.00000000000E+00 0. -1.
         24    2    1    2    0    0  0.21712401097E+03 -0.18738624083E+03  0.12942820043E+03  0.32526158610E+03  0.82383256382E+02 0.  0.
        254    2    1    2    0    0 -0.21712401097E+03  0.18738624083E+03 -0.11668346998E+04  0.15048646781E+04  0.90601216514E+03 0.  0.
         23    2    4    4    0    0 -0.54665335781E+02  0.40719138907E+03 -0.11402447996E+04  0.12154351918E+04  0.91276372957E+02 0.  0.
         23    2    4    4    0    0 -0.16245867519E+03 -0.21980514824E+03 -0.26589900215E+02  0.28942948629E+03  0.91407222934E+02 0.  0.
          2    1    3    3  502    0 -0.33722425637E+01 -0.15582501612E+02 -0.25476837176E+01  0.16145496856E+02  0.00000000000E+00 0. -1.
         -1    1    3    3    0  502  0.22049625353E+03 -0.17180373922E+03  0.13197588415E+03  0.30911608924E+03  0.00000000000E+00 0.  1.
         11    1    5    5    0    0 -0.47563662573E+02  0.35536009131E+03 -0.10654800613E+04  0.11241845300E+04  0.00000000000E+00 0.  1.
        -11    1    5    5    0    0 -0.71016732081E+01  0.51831297756E+02 -0.74764738315E+02  0.91250661832E+02  0.00000000000E+00 0. -1.
          4    1    6    6  503    0 -0.73622963922E+02 -0.17049996244E+03 -0.63061402356E+01  0.18582342536E+03  0.00000000000E+00 0.  1.
         -4    1    6    6    0  503 -0.88835711265E+02 -0.49305185807E+02 -0.20283759979E+02  0.10360606093E+03  0.00000000000E+00 0. -1.
<mgrwt>
<rscale>  0 0.15076969E+04</rscale>
<asrwt>0</asrwt>
<pdfrwt beam="1">  1        2 0.22057944E+00 0.15076969E+04</pdfrwt>
<pdfrwt beam="2">  1       -1 0.60978443E-01 0.15076969E+04</pdfrwt>
<totfact> 0.41544084E+01</totfact>
</mgrwt>
</event>
<event>
12    6  0.1457317E-007  0.1342047E+04  0.7818608E-02  0.8996870E-01
          2   -1    0    0  501    0  0.00000000000E+00  0.00000000000E+00  0.88011498317E+03  0.88011498317E+03  0.00000000000E+00 0. -1.
         -1   -1    0    0    0  501 -0.00000000000E+00 -0.00000000000E+00 -0.51160636686E+03  0.51160636686E+03  0.00000000000E+00 0.  1.
         24    2    1    2    0    0 -0.26983763473E+03  0.18039719756E+03 -0.49187795011E+02  0.33751833391E+03  0.78381684984E+02 0.  0.
        254    2    1    2    0    0  0.26983763473E+03 -0.18039719756E+03  0.41769641133E+03  0.10542030161E+04  0.91187620276E+03 0.  0.
         23    2    4    4    0    0  0.15463474336E+02 -0.32108651282E+02 -0.27696339436E+03  0.29401293111E+03  0.92004333152E+02 0.  0.
         23    2    4    4    0    0  0.25437416040E+03 -0.14828854628E+03  0.69465980569E+03  0.76019008501E+03  0.92957050732E+02 0.  0.
          4    1    3    3  502    0  0.36839501669E+01  0.32575549763E+01  0.51796814080E+01  0.71422862407E+01  0.00000000000E+00 0. -1.
         -3    1    3    3    0  502 -0.27352158490E+03  0.17713964258E+03 -0.54367476419E+02  0.33037604767E+03  0.00000000000E+00 0.  1.
         11    1    5    5    0    0 -0.31130409760E+02 -0.23204064969E+02 -0.56835380820E+02  0.68831617415E+02  0.00000000000E+00 0. -1.
        -11    1    5    5    0    0  0.46593884096E+02 -0.89045863133E+01 -0.22012801354E+03  0.22518131370E+03  0.00000000000E+00 0.  1.
          4    1    6    6  503    0  0.44717584626E+02  0.10296669908E+02  0.10348907220E+03  0.11320632425E+03  0.00000000000E+00 0. -1.
         -4    1    6    6    0  503  0.20965657577E+03 -0.15858521618E+03  0.59117073349E+03  0.64698376076E+03  0.00000000000E+00 0.  1.
<mgrwt>
<rscale>  0 0.13420468E+04</rscale>
<asrwt>0</asrwt>
<pdfrwt beam="1">  1        2 0.13540231E+00 0.13420468E+04</pdfrwt>
<pdfrwt beam="2">  1       -1 0.78708672E-01 0.13420468E+04</pdfrwt>
<totfact> 0.54510367E+01</totfact>
</mgrwt>
</event>
<event>
12    6  0.1457317E-007  0.1108285E+04  0.7818608E-02  0.9197154E-01
         -1   -1    0    0    0  501 -0.00000000000E+00  0.00000000000E+00  0.10699643282E+03  0.10699643282E+03  0.00000000000E+00 0.  1.
          2   -1    0    0  501    0  0.00000000000E+00 -0.00000000000E+00 -0.28699470767E+04  0.28699470767E+04  0.00000000000E+00 0. -1.
         24    2    1    2    0    0 -0.71727733473E+02 -0.13516508423E+03 -0.66685136098E+03  0.68866094529E+03  0.78413596989E+02 0.  0.
        254    2    1    2    0    0  0.71727733473E+02  0.13516508423E+03 -0.20960992829E+04  0.22882825642E+04  0.90509138885E+03 0.  0.
         23    2    4    4    0    0  0.24283806365E+03  0.32812665075E+03 -0.42866229130E+03  0.59844858944E+03  0.88045046014E+02 0.  0.
         23    2    4    4    0    0 -0.17111033018E+03 -0.19296156652E+03 -0.16674369916E+04  0.16898339747E+04  0.93165605872E+02 0.  0.
          2    1    3    3  502    0 -0.50975368965E+02 -0.85374413722E+02 -0.56219630398E+03  0.57092202880E+03  0.00000000000E+00 0. -1.
         -1    1    3    3    0  502 -0.20752364509E+02 -0.49790670507E+02 -0.10465505699E+03  0.11773891649E+03  0.00000000000E+00 0.  1.
         11    1    5    5    0    0  0.24609905035E+03  0.29448983967E+03 -0.39564575586E+03  0.55120284141E+03  0.00000000000E+00 0. -1.
        -11    1    5    5    0    0 -0.32609867018E+01  0.33636811076E+02 -0.33016535446E+02  0.47245748025E+02  0.00000000000E+00 0.  1.
          4    1    6    6  503    0 -0.17688494385E+03 -0.16800750434E+03 -0.13926681670E+04  0.14138739082E+04  0.00000000000E+00 0. -1.
         -4    1    6    6    0  503  0.57746136709E+01 -0.24954062179E+02 -0.27476882459E+03  0.27596006659E+03  0.00000000000E+00 0.  1.
<mgrwt>
<rscale>  0 0.11082853E+04</rscale>
<asrwt>0</asrwt>
<pdfrwt beam="1">  1        2 0.44153039E+00 0.11082853E+04</pdfrwt>
<pdfrwt beam="2">  1       -1 0.16460987E-01 0.11082853E+04</pdfrwt>
<totfact> 0.68010405E+01</totfact>
</mgrwt>
</event>
<event>
12    6  0.1457317E-007  0.2049078E+04  0.7818608E-02  0.8584013E-01
         -1   -1    0    0    0  501 -0.00000000000E+00  0.00000000000E+00  0.35287256148E+03  0.35287256148E+03  0.00000000000E+00 0.  1.
          2   -1    0    0  501    0  0.00000000000E+00 -0.00000000000E+00 -0.29746732699E+04  0.29746732699E+04  0.00000000000E+00 0. -1.
         24    2    1    2    0    0 -0.35853993174E+03 -0.74056984967E+03 -0.10204873933E+04  0.13132491417E+04  0.78956970586E+02 0.  0.
        254    2    1    2    0    0  0.35853993174E+03  0.74056984967E+03 -0.16013133150E+04  0.20142966897E+04  0.90343358156E+03 0.  0.
         23    2    4    4    0    0  0.26846632281E+03 -0.52480684180E+02 -0.89948285123E+02  0.30268031287E+03  0.93253895918E+02 0.  0.
         23    2    4    4    0    0  0.90073608933E+02  0.79305053385E+03 -0.15113650299E+04  0.17116163768E+04  0.91454707332E+02 0.  0.
          2    1    3    3  502    0 -0.22530512706E+03 -0.49947475364E+03 -0.62349743679E+03  0.83005209685E+03  0.00000000000E+00 0. -1.
         -1    1    3    3    0  502 -0.13323480468E+03 -0.24109509603E+03 -0.39698995655E+03  0.48319704480E+03  0.00000000000E+00 0.  1.
         11    1    5    5    0    0  0.24979501017E+03 -0.67903535083E+02 -0.98544118924E+02  0.27698263584E+03  0.00000000000E+00 0.  1.
        -11    1    5    5    0    0  0.18671312642E+02  0.15422850903E+02  0.85958338015E+01  0.25697677025E+02  0.00000000000E+00 0. -1.
          2    1    6    6  503    0 -0.13609862164E+01  0.27641186355E+03 -0.46143008007E+03  0.53788761780E+03  0.00000000000E+00 0. -1.
         -2    1    6    6    0  503  0.91434595149E+02  0.51663867030E+03 -0.10499349499E+04  0.11737287590E+04  0.00000000000E+00 0.  1.
<mgrwt>
<rscale>  0 0.20490784E+04</rscale>
<asrwt>0</asrwt>
<pdfrwt beam="1">  1        2 0.45764203E+00 0.20490784E+04</pdfrwt>
<pdfrwt beam="2">  1       -1 0.54288088E-01 0.20490784E+04</pdfrwt>
<totfact> 0.65302335E+00</totfact>
</mgrwt>
</event>
<event>
12    6  0.1457317E-007  0.1442093E+04  0.7818608E-02  0.8923901E-01
          2   -1    0    0  501    0  0.00000000000E+00  0.00000000000E+00  0.17779336660E+04  0.17779336660E+04  0.00000000000E+00 0. -1.
         -1   -1    0    0    0  501 -0.00000000000E+00 -0.00000000000E+00 -0.29242246686E+03  0.29242246686E+03  0.00000000000E+00 0.  1.
         24    2    1    2    0    0 -0.16723574491E+03  0.39011378400E+03  0.57255987111E+03  0.71722643774E+03  0.80202232845E+02 0.  0.
        254    2    1    2    0    0  0.16723574491E+03 -0.39011378400E+03  0.91295132803E+03  0.13531296951E+04  0.90405933742E+03 0.  0.
         23    2    4    4    0    0  0.48396900942E+03 -0.26141521632E+03  0.81365474977E+03  0.98582013561E+03  0.85107993399E+02 0.  0.
         23    2    4    4    0    0 -0.31673326451E+03 -0.12869856768E+03  0.99296578255E+02  0.36730955950E+03  0.90405861937E+02 0.  0.
          4    1    3    3  502    0 -0.17231833674E+03  0.37928312222E+03  0.53660717066E+03  0.67933537490E+03  0.00000000000E+00 0. -1.
         -3    1    3    3    0  502  0.50825918331E+01  0.10830661777E+02  0.35952700447E+02  0.37891062847E+02  0.00000000000E+00 0.  1.
         11    1    5    5    0    0  0.10881127746E+03 -0.40043197084E+02  0.22957530175E+03  0.25719286714E+03  0.00000000000E+00 0. -1.
        -11    1    5    5    0    0  0.37515773196E+03 -0.22137201924E+03  0.58407944802E+03  0.72862726847E+03  0.00000000000E+00 0.  1.
          2    1    6    6  503    0 -0.31634482789E+03 -0.11186110848E+03  0.87543084387E+02  0.34677189815E+03  0.00000000000E+00 0.  1.
         -2    1    6    6    0  503 -0.38843661897E+00 -0.16837459199E+02  0.11753493868E+02  0.20537661342E+02  0.00000000000E+00 0. -1.
<mgrwt>
<rscale>  0 0.14420926E+04</rscale>
<asrwt>0</asrwt>
<pdfrwt beam="1">  1        2 0.27352825E+00 0.14420926E+04</pdfrwt>
<pdfrwt beam="2">  1       -1 0.44988073E-01 0.14420926E+04</pdfrwt>
<totfact> 0.48076139E+01</totfact>
</mgrwt>
</event>
<event>
12    6  0.1457317E-007  0.1543277E+04  0.7818608E-02  0.8856174E-01
         -1   -1    0    0    0  501 -0.00000000000E+00  0.00000000000E+00  0.22652963389E+03  0.22652963389E+03  0.00000000000E+00 0.  1.
          2   -1    0    0  501    0  0.00000000000E+00 -0.00000000000E+00 -0.26284679248E+04  0.26284679248E+04  0.00000000000E+00 0. -1.
         24    2    1    2    0    0  0.45221874098E+03  0.16829281006E+03 -0.51822585427E+03  0.71251530632E+03  0.79345863810E+02 0.  0.
        254    2    1    2    0    0 -0.45221874098E+03 -0.16829281006E+03 -0.18837124366E+04  0.21424822523E+04  0.89946283866E+03 0.  0.
         23    2    4    4    0    0 -0.37365849623E+03 -0.17006264407E+03 -0.19561080158E+04  0.20009610969E+04  0.94576779195E+02 0.  0.
         23    2    4    4    0    0 -0.78560244751E+02  0.17698340155E+01  0.72395579156E+02  0.14152115546E+03  0.92802333988E+02 0.  0.
          4    1    3    3  502    0  0.70843245043E+02  0.55975944851E+02 -0.11557792817E+03  0.14666400121E+03  0.00000000000E+00 0. -1.
         -3    1    3    3    0  502  0.38137549593E+03  0.11231686521E+03 -0.40264792610E+03  0.56585130511E+03  0.00000000000E+00 0.  1.
         11    1    5    5    0    0 -0.35659636380E+03 -0.13628760143E+03 -0.17214067539E+04  0.17632289951E+04  0.00000000000E+00 0. -1.
        -11    1    5    5    0    0 -0.17062132430E+02 -0.33775042649E+02 -0.23470126188E+03  0.23773210174E+03  0.00000000000E+00 0.  1.
          4    1    6    6  503    0  0.70301265257E+01 -0.24277444172E+02  0.38070066667E+02  0.45696246569E+02  0.00000000000E+00 0. -1.
         -4    1    6    6    0  503 -0.85590371276E+02  0.26047278188E+02  0.34325512489E+02  0.95824908890E+02  0.00000000000E+00 0.  1.
<mgrwt>
<rscale>  0 0.15432769E+04</rscale>
<asrwt>0</asrwt>
<pdfrwt beam="1">  1        2 0.40437968E+00 0.15432769E+04</pdfrwt>
<pdfrwt beam="2">  1       -1 0.34850713E-01 0.15432769E+04</pdfrwt>
<totfact> 0.25195120E+01</totfact>
</mgrwt>
</event>
<event>
12    6  0.1457317E-007  0.1239382E+04  0.7818608E-02  0.9079067E-01
         -1   -1    0    0    0  501 -0.00000000000E+00  0.00000000000E+00  0.39847950969E+03  0.39847950969E+03  0.00000000000E+00 0.  1.
          2   -1    0    0  501    0  0.00000000000E+00 -0.00000000000E+00 -0.96370518861E+03  0.96370518861E+03  0.00000000000E+00 0. -1.
         24    2    1    2    0    0  0.69758344497E+02  0.87740407400E+02 -0.41448208998E+03  0.43674901282E+03  0.79935546350E+02 0.  0.
        254    2    1    2    0    0 -0.69758344497E+02 -0.87740407400E+02 -0.15074358895E+03  0.92543568549E+03  0.90616939512E+03 0.  0.
         23    2    4    4    0    0  0.27805179497E+03 -0.27761509195E+01 -0.38653997503E+03  0.48537066975E+03  0.94079897214E+02 0.  0.
         23    2    4    4    0    0 -0.34781013946E+03 -0.84964256481E+02  0.23579638609E+03  0.44006501573E+03  0.99330077953E+02 0.  0.
          2    1    3    3  502    0  0.74250103971E+02  0.76023048247E+02 -0.40980190715E+03  0.42335586084E+03  0.00000000000E+00 0. -1.
         -3    1    3    3    0  502 -0.44917594742E+01  0.11717359153E+02 -0.46801828296E+01  0.13393151982E+02  0.00000000000E+00 0.  1.
         11    1    5    5    0    0  0.27965020203E+03  0.96491279815E+01 -0.37761105904E+03  0.46998665201E+03  0.00000000000E+00 0. -1.
        -11    1    5    5    0    0 -0.15984070622E+01 -0.12425278901E+02 -0.89289159984E+01  0.15384017740E+02  0.00000000000E+00 0.  1.
          1    1    6    6  503    0 -0.26154326667E+03 -0.83360616311E+02  0.13054178681E+03  0.30396550922E+03  0.00000000000E+00 0. -1.
         -1    1    6    6    0  503 -0.86266872791E+02 -0.16036401699E+01  0.10525459928E+03  0.13609950651E+03  0.00000000000E+00 0.  1.
<mgrwt>
<rscale>  0 0.12393817E+04</rscale>
<asrwt>0</asrwt>
<pdfrwt beam="1">  1        2 0.14826234E+00 0.12393817E+04</pdfrwt>
<pdfrwt beam="2">  1       -1 0.61304540E-01 0.12393817E+04</pdfrwt>
<totfact> 0.80586371E+01</totfact>
</mgrwt>
</event>
<event>
12    6  0.1457317E-007  0.1767072E+04  0.7818608E-02  0.8724009E-01
          2   -1    0    0  501    0  0.00000000000E+00  0.00000000000E+00  0.89541142538E+03  0.89541142538E+03  0.00000000000E+00 0. -1.
         -1   -1    0    0    0  501 -0.00000000000E+00 -0.00000000000E+00 -0.87181782070E+03  0.87181782070E+03  0.00000000000E+00 0.  1.
         24    2    1    2    0    0  0.76627261758E+02  0.22165880366E+03  0.61623784821E+03  0.66374504585E+03  0.76184236078E+02 0.  0.
        254    2    1    2    0    0 -0.76627261758E+02 -0.22165880366E+03 -0.59264424353E+03  0.11034842002E+04  0.90080287427E+03 0.  0.
         23    2    4    4    0    0 -0.22767524596E+03 -0.50920375159E+03 -0.49856818847E+03  0.75362000514E+03  0.90820676849E+02 0.  0.
         23    2    4    4    0    0  0.15104798421E+03  0.28754494793E+03 -0.94076055066E+02  0.34986419509E+03  0.89761128893E+02 0.  0.
          2    1    3    3  502    0  0.81614320101E+02  0.22508745531E+03  0.60858417273E+03  0.65398773312E+03  0.00000000000E+00 0. -1.
         -1    1    3    3    0  502 -0.49870583437E+01 -0.34286516493E+01  0.76536754884E+01  0.97573127211E+01  0.00000000000E+00 0.  1.
         11    1    5    5    0    0 -0.22870092807E+03 -0.51273063862E+03 -0.49463307310E+03  0.74823706089E+03  0.00000000000E+00 0. -1.
        -11    1    5    5    0    0  0.10256821093E+01  0.35268870302E+01 -0.39351153639E+01  0.53829442539E+01  0.00000000000E+00 0.  1.
          2    1    6    6  503    0  0.16332705398E+03  0.26439839027E+03 -0.86768194532E+02  0.32266229238E+03  0.00000000000E+00 0. -1.
         -2    1    6    6    0  503 -0.12279069773E+02  0.23146557654E+02 -0.73078605339E+01  0.27201902715E+02  0.00000000000E+00 0.  1.
<mgrwt>
<rscale>  0 0.17670717E+04</rscale>
<asrwt>0</asrwt>
<pdfrwt beam="1">  1        2 0.13775560E+00 0.17670717E+04</pdfrwt>
<pdfrwt beam="2">  1       -1 0.13412582E+00 0.17670717E+04</pdfrwt>
<totfact> 0.14943759E+01</totfact>
</mgrwt>
</event>
<event>
12    6  0.1457317E-007  0.2811243E+04  0.7818608E-02  0.8299786E-01
          2   -1    0    0  501    0  0.00000000000E+00  0.00000000000E+00  0.15800241787E+04  0.15800241787E+04  0.00000000000E+00 0. -1.
         -1   -1    0    0    0  501 -0.00000000000E+00 -0.00000000000E+00 -0.12504693185E+04  0.12504693185E+04  0.00000000000E+00 0.  1.
         24    2    1    2    0    0 -0.27365864006E+03 -0.81973567017E+03 -0.77467087775E+03  0.11632770734E+04  0.79012406358E+02 0.  0.
        254    2    1    2    0    0  0.27365864006E+03  0.81973567017E+03  0.11042257380E+04  0.16672164238E+04  0.90190936524E+03 0.  0.
         23    2    4    4    0    0  0.43631769451E+03  0.81996678708E+03  0.55438048607E+03  0.10864146581E+04  0.10119497741E+03 0.  0.
         23    2    4    4    0    0 -0.16265905445E+03 -0.23111691490E+00  0.54984525195E+03  0.58080176575E+03  0.92427639824E+02 0.  0.
          2    1    3    3  502    0 -0.19428053251E+01 -0.22852725659E+02 -0.38855748898E+02  0.45119738308E+02  0.00000000000E+00 0. -1.
         -1    1    3    3    0  502 -0.27171583474E+03 -0.79688294451E+03 -0.73581512885E+03  0.11181573351E+04  0.00000000000E+00 0.  1.
         11    1    5    5    0    0  0.24646585670E+03  0.53847479992E+03  0.31301650259E+03  0.66983569595E+03  0.00000000000E+00 0. -1.
        -11    1    5    5    0    0  0.18985183781E+03  0.28149198716E+03  0.24136398348E+03  0.41657896211E+03  0.00000000000E+00 0.  1.
          3    1    6    6  503    0 -0.17120394335E+03  0.61167391552E+01  0.46996261009E+03  0.50021301423E+03  0.00000000000E+00 0. -1.
         -3    1    6    6    0  503  0.85448888992E+01 -0.63478560701E+01  0.79882641855E+02  0.80588751527E+02  0.00000000000E+00 0.  1.
<mgrwt>
<rscale>  0 0.28112430E+04</rscale>
<asrwt>0</asrwt>
<pdfrwt beam="1">  1        2 0.24308064E+00 0.28112430E+04</pdfrwt>
<pdfrwt beam="2">  1       -1 0.19237989E+00 0.28112430E+04</pdfrwt>
<totfact> 0.19260615E+00</totfact>
</mgrwt>
</event>
<event>
12    6  0.1457317E-007  0.1695755E+04  0.7818608E-02  0.8763789E-01
         -1   -1    0    0    0  501 -0.00000000000E+00  0.00000000000E+00  0.19193189114E+03  0.19193189114E+03  0.00000000000E+00 0.  1.
          2   -1    0    0  501    0  0.00000000000E+00 -0.00000000000E+00 -0.37455795010E+04  0.37455795010E+04  0.00000000000E+00 0. -1.
         24    2    1    2    0    0 -0.52955511310E+03  0.12025471687E+03 -0.65651411807E+03  0.85613777384E+03  0.84090937895E+02 0.  0.
        254    2    1    2    0    0  0.52955511310E+03 -0.12025471687E+03 -0.28971334918E+04  0.30813736183E+04  0.89810416520E+03 0.  0.
         23    2    4    4    0    0  0.26035223648E+03 -0.48745325645E+03 -0.12438830236E+04  0.13642170059E+04  0.91918978064E+02 0.  0.
         23    2    4    4    0    0  0.26920287662E+03  0.36719853958E+03 -0.16532504683E+04  0.17171566125E+04  0.89915319452E+02 0.  0.
          4    1    3    3  502    0 -0.48023391458E+02  0.32527132357E+02 -0.48606366698E+02  0.75675883543E+02  0.00000000000E+00 0. -1.
         -3    1    3    3    0  502 -0.48153172164E+03  0.87727584509E+02 -0.60790775137E+03  0.78046189030E+03  0.00000000000E+00 0.  1.
         11    1    5    5    0    0  0.26073108269E+02 -0.67306054922E+02 -0.24709081492E+03  0.25741752626E+03  0.00000000000E+00 0. -1.
        -11    1    5    5    0    0  0.23427912821E+03 -0.42014720152E+03 -0.99679220864E+03  0.11067994796E+04  0.00000000000E+00 0.  1.
          1    1    6    6  503    0  0.28543368299E+02  0.90286316475E+02 -0.41706334164E+03  0.42767765169E+03  0.00000000000E+00 0. -1.
         -1    1    6    6    0  503  0.24065950832E+03  0.27691222310E+03 -0.12361871266E+04  0.12894789608E+04  0.00000000000E+00 0.  1.
<mgrwt>
<rscale>  0 0.16957549E+04</rscale>
<asrwt>0</asrwt>
<pdfrwt beam="1">  1        2 0.57624301E+00 0.16957549E+04</pdfrwt>
<pdfrwt beam="2">  1       -1 0.29527983E-01 0.16957549E+04</pdfrwt>
<totfact> 0.62209256E+00</totfact>
</mgrwt>
</event>
<event>
12    6  0.1457317E-007  0.2183759E+04  0.7818608E-02  0.8525218E-01
         -1   -1    0    0    0  501 -0.00000000000E+00  0.00000000000E+00  0.57973821363E+03  0.57973821363E+03  0.00000000000E+00 0.  1.
          2   -1    0    0  501    0  0.00000000000E+00 -0.00000000000E+00 -0.20564478165E+04  0.20564478165E+04  0.00000000000E+00 0. -1.
         24    2    1    2    0    0  0.56438327189E+03  0.70538146430E+03 -0.66406130267E+03  0.11240684255E+04  0.80379871065E+02 0.  0.
        254    2    1    2    0    0 -0.56438327189E+03 -0.70538146430E+03 -0.81264830020E+03  0.15121176047E+04  0.90000605706E+03 0.  0.
         23    2    4    4    0    0 -0.63589331962E+03 -0.17478256971E+03 -0.20357424445E+03  0.69603956736E+03  0.90107412099E+02 0.  0.
         23    2    4    4    0    0  0.71510047730E+02 -0.53059889459E+03 -0.60907405575E+03  0.81607803730E+03  0.91450990785E+02 0.  0.
          2    1    3    3  502    0  0.55909969061E+03  0.70150799766E+03 -0.64770314482E+03  0.11064471513E+04  0.00000000000E+00 0. -1.
         -1    1    3    3    0  502  0.52835812816E+01  0.38734666392E+01 -0.16358157856E+02  0.17621274171E+02  0.00000000000E+00 0.  1.
         11    1    5    5    0    0 -0.57083718419E+03 -0.17488593076E+03 -0.16121970227E+03  0.61841084404E+03  0.00000000000E+00 0. -1.
        -11    1    5    5    0    0 -0.65056135428E+02  0.10336104373E+00 -0.42354542179E+02  0.77628723315E+02  0.00000000000E+00 0.  1.
          3    1    6    6  503    0  0.81512012393E+02 -0.26489875850E+03 -0.30280612906E+03  0.41049617808E+03  0.00000000000E+00 0. -1.
         -3    1    6    6    0  503 -0.10001964663E+02 -0.26570013609E+03 -0.30626792668E+03  0.40558185922E+03  0.00000000000E+00 0.  1.
<mgrwt>
<rscale>  0 0.21837595E+04</rscale>
<asrwt>0</asrwt>
<pdfrwt beam="1">  1        2 0.31637659E+00 0.21837595E+04</pdfrwt>
<pdfrwt beam="2">  1       -1 0.89190495E-01 0.21837595E+04</pdfrwt>
<totfact> 0.79770222E+00</totfact>
</mgrwt>
</event>
<event>
12    6  0.1457317E-007  0.1102783E+04  0.7818608E-02  0.9202484E-01
         -1   -1    0    0    0  501 -0.00000000000E+00  0.00000000000E+00  0.21670163541E+03  0.21670163541E+03  0.00000000000E+00 0.  1.
          2   -1    0    0  501    0  0.00000000000E+00 -0.00000000000E+00 -0.14030005309E+04  0.14030005309E+04  0.00000000000E+00 0. -1.
         24    2    1    2    0    0  0.14561584938E+03  0.10193653252E+03 -0.38438955247E+03  0.42978592810E+03  0.73250144664E+02 0.  0.
        254    2    1    2    0    0 -0.14561584938E+03 -0.10193653252E+03 -0.80190934305E+03  0.11899162382E+04  0.86095704149E+03 0.  0.
         23    2    4    4    0    0  0.34580300267E+03 -0.24932467477E+02 -0.44609745008E+03  0.57160534879E+03  0.86766325327E+02 0.  0.
         23    2    4    4    0    0 -0.49141885205E+03 -0.77004065039E+02 -0.35581189297E+03  0.61831088944E+03  0.91017243646E+02 0.  0.
          2    1    3    3  502    0  0.10894784210E+03  0.10000077785E+03 -0.24994682119E+03  0.29041900986E+03  0.00000000000E+00 0. -1.
         -1    1    3    3    0  502  0.36668007278E+02  0.19357546670E+01 -0.13444273128E+03  0.13936691824E+03  0.00000000000E+00 0.  1.
         11    1    5    5    0    0  0.30776887970E+03 -0.11563753972E+02 -0.34340814517E+03  0.46128576597E+03  0.00000000000E+00 0.  1.
        -11    1    5    5    0    0  0.38034122964E+02 -0.13368713505E+02 -0.10268930491E+03  0.11031958282E+03  0.00000000000E+00 0. -1.
          2    1    6    6  503    0 -0.46361747159E+03 -0.55965683005E+02 -0.34849929123E+03  0.58268780116E+03  0.00000000000E+00 0.  1.
         -2    1    6    6    0  503 -0.27801380458E+02 -0.21038382035E+02 -0.73126017358E+01  0.35623088274E+02  0.00000000000E+00 0. -1.
<mgrwt>
<rscale>  0 0.11027829E+04</rscale>
<asrwt>0</asrwt>
<pdfrwt beam="1">  1        2 0.21584624E+00 0.11027829E+04</pdfrwt>
<pdfrwt beam="2">  1       -1 0.33338713E-01 0.11027829E+04</pdfrwt>
<totfact> 0.13789951E+02</totfact>
</mgrwt>
</event>
<event>
12    6  0.1457317E-007  0.1318904E+04  0.7818608E-02  0.9014707E-01
          2   -1    0    0  501    0  0.00000000000E+00  0.00000000000E+00  0.96620530322E+03  0.96620530322E+03  0.00000000000E+00 0. -1.
         -1   -1    0    0    0  501 -0.00000000000E+00 -0.00000000000E+00 -0.45008777929E+03  0.45008777929E+03  0.00000000000E+00 0.  1.
         24    2    1    2    0    0 -0.16431697541E+03  0.14234118121E+03  0.52003360705E+03  0.56942896768E+03  0.80952557062E+02 0.  0.
        254    2    1    2    0    0  0.16431697541E+03 -0.14234118121E+03 -0.39160831151E+01  0.84686411483E+03  0.81847566427E+03 0.  0.
         23    2    4    4    0    0 -0.28280683414E+03 -0.21524625695E+03  0.83398034486E+02  0.37681003429E+03  0.93380475592E+02 0.  0.
         23    2    4    4    0    0  0.44712380955E+03  0.72905075739E+02 -0.87314117601E+02  0.47005408054E+03  0.89956836095E+02 0.  0.
          2    1    3    3  502    0 -0.95256158158E+02  0.11429188117E+03  0.26712830834E+03  0.30576772701E+03  0.00000000000E+00 0. -1.
         -1    1    3    3    0  502 -0.69060817251E+02  0.28049300042E+02  0.25290529872E+03  0.26366124067E+03  0.00000000000E+00 0.  1.
         11    1    5    5    0    0 -0.22868860384E+03 -0.16154952278E+03  0.25642740237E+02  0.28116592248E+03  0.00000000000E+00 0.  1.
        -11    1    5    5    0    0 -0.54118230303E+02 -0.53696734171E+02  0.57755294249E+02  0.95644111819E+02  0.00000000000E+00 0. -1.
          1    1    6    6  503    0  0.69744521751E+02 -0.19504418442E+02 -0.30028982669E+01  0.72482674143E+02  0.00000000000E+00 0. -1.
         -1    1    6    6    0  503  0.37737928780E+03  0.92409494181E+02 -0.84311219334E+02  0.39757140639E+03  0.00000000000E+00 0.  1.
<mgrwt>
<rscale>  0 0.13189044E+04</rscale>
<asrwt>0</asrwt>
<pdfrwt beam="1">  1        2 0.14864697E+00 0.13189044E+04</pdfrwt>
<pdfrwt beam="2">  1       -1 0.69244274E-01 0.13189044E+04</pdfrwt>
<totfact> 0.62438490E+01</totfact>
</mgrwt>
</event>
<event>
12    6  0.1457317E-007  0.1330816E+04  0.7818608E-02  0.9005479E-01
         -3   -1    0    0    0  501 -0.00000000000E+00  0.00000000000E+00  0.93781355576E+03  0.93781355576E+03  0.00000000000E+00 0.  1.
          2   -1    0    0  501    0  0.00000000000E+00 -0.00000000000E+00 -0.47212747387E+03  0.47212747387E+03  0.00000000000E+00 0. -1.
         24    2    1    2    0    0 -0.79003785302E+02 -0.17499677906E+03  0.43330104732E+03  0.48055103093E+03  0.79460839076E+02 0.  0.
        254    2    1    2    0    0  0.79003785302E+02  0.17499677906E+03  0.32385034573E+02  0.92938999870E+03  0.90876372531E+03 0.  0.
         23    2    4    4    0    0 -0.11937730233E+03 -0.89175532355E+02  0.39396556968E+03  0.43144727834E+03  0.93459445817E+02 0.  0.
         23    2    4    4    0    0  0.19838108763E+03  0.26417231142E+03 -0.36158053511E+03  0.49794272036E+03  0.89802023057E+02 0.  0.
          2    1    3    3  502    0 -0.65053235034E+02 -0.68157938020E+02  0.25934456879E+03  0.27592939906E+03  0.00000000000E+00 0. -1.
         -1    1    3    3    0  502 -0.13950550268E+02 -0.10683884105E+03  0.17395647853E+03  0.20462163188E+03  0.00000000000E+00 0.  1.
         11    1    5    5    0    0 -0.10520043348E+03 -0.87524534333E+02  0.39408948361E+03  0.41717406008E+03  0.00000000000E+00 0. -1.
        -11    1    5    5    0    0 -0.14176868849E+02 -0.16509980212E+01 -0.12391392714E+00  0.14273218260E+02  0.00000000000E+00 0.  1.
          1    1    6    6  503    0  0.15322522656E+03  0.20358514627E+03 -0.32776880250E+03  0.41515933054E+03  0.00000000000E+00 0. -1.
         -1    1    6    6    0  503  0.45155861070E+02  0.60587165146E+02 -0.33811732601E+02  0.82783389825E+02  0.00000000000E+00 0.  1.
<mgrwt>
<rscale>  0 0.13308156E+04</rscale>
<asrwt>0</asrwt>
<pdfrwt beam="1">  1        2 0.72634996E-01 0.13308156E+04</pdfrwt>
<pdfrwt beam="2">  1       -3 0.14427901E+00 0.13308156E+04</pdfrwt>
<totfact> 0.14398111E+01</totfact>
</mgrwt>
</event>
<event>
12    6  0.1457317E-007  0.1807752E+04  0.7818608E-02  0.8702188E-01
          2   -1    0    0  501    0  0.00000000000E+00  0.00000000000E+00  0.38452198418E+04  0.38452198418E+04  0.00000000000E+00 0. -1.
         -1   -1    0    0    0  501 -0.00000000000E+00 -0.00000000000E+00 -0.21246942031E+03  0.21246942031E+03  0.00000000000E+00 0.  1.
         24    2    1    2    0    0 -0.40960455647E+01 -0.66994290887E+03  0.15451845126E+04  0.16862186011E+04  0.83052476288E+02 0.  0.
        254    2    1    2    0    0  0.40960455647E+01  0.66994290887E+03  0.20875659089E+04  0.23714706610E+04  0.90393660925E+03 0.  0.
         23    2    4    4    0    0 -0.41155666803E+03  0.17234020474E+03  0.10513086686E+04  0.11457533034E+04  0.91764254736E+02 0.  0.
         23    2    4    4    0    0  0.41565271359E+03  0.49760270413E+03  0.10362572403E+04  0.12257173576E+04  0.90434193155E+02 0.  0.
          4    1    3    3  502    0  0.21583903167E+02 -0.59178909706E+03  0.13795980916E+04  0.15013231147E+04  0.00000000000E+00 0. -1.
         -3    1    3    3    0  502 -0.25679948732E+02 -0.78153811812E+02  0.16558642103E+03  0.18489548642E+03  0.00000000000E+00 0.  1.
         11    1    5    5    0    0 -0.37013615993E+03  0.14355262842E+03  0.84874823777E+03  0.93700677966E+03  0.00000000000E+00 0.  1.
        -11    1    5    5    0    0 -0.41420508094E+02  0.28787576321E+02  0.20256043082E+03  0.20874652374E+03  0.00000000000E+00 0. -1.
          1    1    6    6  503    0  0.21520670292E+03  0.21718881472E+03  0.41833572445E+03  0.51815990251E+03  0.00000000000E+00 0. -1.
         -1    1    6    6    0  503  0.20044601067E+03  0.28041388941E+03  0.61792151582E+03  0.70755745511E+03  0.00000000000E+00 0.  1.
<mgrwt>
<rscale>  0 0.18077518E+04</rscale>
<asrwt>0</asrwt>
<pdfrwt beam="1">  1        2 0.59157223E+00 0.18077518E+04</pdfrwt>
<pdfrwt beam="2">  1       -1 0.32687606E-01 0.18077518E+04</pdfrwt>
<totfact> 0.43231010E+00</totfact>
</mgrwt>
</event>
<event>
12    6  0.1457317E-007  0.1606636E+04  0.7818608E-02  0.8816482E-01
          2   -1    0    0  501    0  0.00000000000E+00  0.00000000000E+00  0.28284857829E+03  0.28284857829E+03  0.00000000000E+00 0. -1.
         -1   -1    0    0    0  501 -0.00000000000E+00 -0.00000000000E+00 -0.22815031319E+04  0.22815031319E+04  0.00000000000E+00 0.  1.
         24    2    1    2    0    0  0.26474947721E+03 -0.47211971145E+02  0.74882352602E+02  0.29054392790E+03  0.80542854487E+02 0.  0.
        254    2    1    2    0    0 -0.26474947721E+03  0.47211971145E+02 -0.20735369062E+04  0.22738077823E+04  0.89349049995E+03 0.  0.
         23    2    4    4    0    0 -0.70064907403E+02 -0.40736056454E+03 -0.80909608418E+03  0.91309715234E+03  0.90874723523E+02 0.  0.
         23    2    4    4    0    0 -0.19468456980E+03  0.45457253568E+03 -0.12644408220E+04  0.13607106299E+04  0.90468525732E+02 0.  0.
          2    1    3    3  502    0  0.22167849175E+03 -0.67744768588E+02  0.72078350217E+02  0.24274677329E+03  0.00000000000E+00 0. -1.
         -1    1    3    3    0  502  0.43070985458E+02  0.20532797443E+02  0.28040023846E+01  0.47797154607E+02  0.00000000000E+00 0.  1.
         11    1    5    5    0    0 -0.71759914506E+02 -0.15543503509E+03 -0.31855432899E+03  0.36164401831E+03  0.00000000000E+00 0.  1.
        -11    1    5    5    0    0  0.16950071030E+01 -0.25192552945E+03 -0.49054175520E+03  0.55145313403E+03  0.00000000000E+00 0. -1.
          1    1    6    6  503    0 -0.91910631149E+02  0.13905835876E+03 -0.34340726514E+03  0.38172416875E+03  0.00000000000E+00 0. -1.
         -1    1    6    6    0  503 -0.10277393865E+03  0.31551417693E+03 -0.92103355688E+03  0.97898646120E+03  0.00000000000E+00 0.  1.
<mgrwt>
<rscale>  0 0.16066361E+04</rscale>
<asrwt>0</asrwt>
<pdfrwt beam="1">  1        2 0.43515167E-01 0.16066361E+04</pdfrwt>
<pdfrwt beam="2">  1       -1 0.35100048E+00 0.16066361E+04</pdfrwt>
<totfact> 0.19766753E+00</totfact>
</mgrwt>
</event>
<event>
12    6  0.1457317E-007  0.1539193E+04  0.7818608E-02  0.8858800E-01
         -1   -1    0    0    0  501 -0.00000000000E+00  0.00000000000E+00  0.45936737985E+03  0.45936737985E+03  0.00000000000E+00 0.  1.
          2   -1    0    0  501    0  0.00000000000E+00 -0.00000000000E+00 -0.12893359158E+04  0.12893359158E+04  0.00000000000E+00 0. -1.
         24    2    1    2    0    0 -0.43371962363E+03  0.73397754085E+02  0.34261622573E+01  0.44668073255E+03  0.77537062217E+02 0.  0.
        254    2    1    2    0    0  0.43371962363E+03 -0.73397754085E+02 -0.83339469825E+03  0.13020225632E+04  0.89845205196E+03 0.  0.
         23    2    4    4    0    0 -0.40800520839E+02 -0.27137453057E+03 -0.70847457546E+03  0.76521713230E+03  0.91171361531E+02 0.  0.
         23    2    4    4    0    0  0.47452014446E+03  0.19797677648E+03 -0.12492012279E+03  0.53680543085E+03  0.90503381048E+02 0.  0.
          4    1    3    3  502    0 -0.26694874017E+03  0.39830184338E+02 -0.35329756633E+02  0.27220629156E+03  0.00000000000E+00 0. -1.
         -3    1    3    3    0  502 -0.16677088346E+03  0.33567569747E+02  0.38755918890E+02  0.17447444099E+03  0.00000000000E+00 0.  1.
         11    1    5    5    0    0 -0.34728765063E+02 -0.83391552211E+02 -0.14164745120E+03  0.16800070992E+03  0.00000000000E+00 0. -1.
        -11    1    5    5    0    0 -0.60717557758E+01 -0.18798297835E+03 -0.56682712426E+03  0.59721642238E+03  0.00000000000E+00 0.  1.
          1    1    6    6  503    0  0.10283388815E+03  0.31318530575E+02  0.93590105463E+01  0.10790389237E+03  0.00000000000E+00 0. -1.
         -1    1    6    6    0  503  0.37168625631E+03  0.16665824591E+03 -0.13427913334E+03  0.42890153848E+03  0.00000000000E+00 0.  1.
<mgrwt>
<rscale>  0 0.15391931E+04</rscale>
<asrwt>0</asrwt>
<pdfrwt beam="1">  1        2 0.19835937E+00 0.15391931E+04</pdfrwt>
<pdfrwt beam="2">  1       -1 0.70671905E-01 0.15391931E+04</pdfrwt>
<totfact> 0.37261197E+01</totfact>
</mgrwt>
</event>
<event>
12    6  0.1457317E-007  0.2723899E+04  0.7818608E-02  0.8327292E-01
         -1   -1    0    0    0  501 -0.00000000000E+00  0.00000000000E+00  0.86832307619E+03  0.86832307619E+03  0.00000000000E+00 0.  1.
          2   -1    0    0  501    0  0.00000000000E+00 -0.00000000000E+00 -0.21361933296E+04  0.21361933296E+04  0.00000000000E+00 0. -1.
         24    2    1    2    0    0 -0.90956228389E+03  0.29292432276E+03  0.25825150167E+03  0.99310492005E+03  0.80345111693E+02 0.  0.
        254    2    1    2    0    0  0.90956228389E+03 -0.29292432276E+03 -0.15261217551E+04  0.20114114857E+04  0.89644874167E+03 0.  0.
         23    2    4    4    0    0  0.30076976777E+03 -0.18456563390E+03 -0.18798666950E+01  0.36422357886E+03  0.90157390596E+02 0.  0.
         23    2    4    4    0    0  0.60879251612E+03 -0.10835868886E+03 -0.15242418884E+04  0.16471879069E+04  0.86860423010E+02 0.  0.
          2    1    3    3  502    0 -0.34007436732E+01  0.36363585536E+01  0.81605330723E+01  0.95594174031E+01  0.00000000000E+00 0. -1.
         -1    1    3    3    0  502 -0.90616154022E+03  0.28928796421E+03  0.25009096860E+03  0.98354550265E+03  0.00000000000E+00 0.  1.
         11    1    5    5    0    0  0.98784272994E+02 -0.15440177105E+02  0.10216383089E+02  0.10050425933E+03  0.00000000000E+00 0.  1.
        -11    1    5    5    0    0  0.20198549478E+03 -0.16912545679E+03 -0.12096249784E+02  0.26371931953E+03  0.00000000000E+00 0. -1.
          3    1    6    6  503    0  0.45525235144E+03 -0.42532857947E+02 -0.11007180615E+04  0.11919077139E+04  0.00000000000E+00 0. -1.
         -3    1    6    6    0  503  0.15354016468E+03 -0.65825830917E+02 -0.42352382689E+03  0.45528019299E+03  0.00000000000E+00 0.  1.
<mgrwt>
<rscale>  0 0.27238986E+04</rscale>
<asrwt>0</asrwt>
<pdfrwt beam="1">  1        2 0.32864513E+00 0.27238986E+04</pdfrwt>
<pdfrwt beam="2">  1       -1 0.13358817E+00 0.27238986E+04</pdfrwt>
<totfact> 0.26427603E+00</totfact>
</mgrwt>
</event>
<event>
12    6  0.1457317E-007  0.2941542E+04  0.7818608E-02  0.8260624E-01
          2   -1    0    0  501    0  0.00000000000E+00  0.00000000000E+00  0.20695496499E+04  0.20695496499E+04  0.00000000000E+00 0. -1.
         -1   -1    0    0    0  501 -0.00000000000E+00 -0.00000000000E+00 -0.10452361046E+04  0.10452361046E+04  0.00000000000E+00 0.  1.
         24    2    1    2    0    0 -0.13037898478E+04  0.14538123879E+03  0.70961125907E+03  0.14934060475E+04  0.75563298031E+02 0.  0.
        254    2    1    2    0    0  0.13037898478E+04 -0.14538123879E+03  0.31470228622E+03  0.16213797069E+04  0.89935029514E+03 0.  0.
         23    2    4    4    0    0  0.21682683573E+02  0.31371102804E+02  0.30831127032E+03  0.32390734242E+03  0.91683380212E+02 0.  0.
         23    2    4    4    0    0  0.12821071642E+04 -0.17675234159E+03  0.63910158964E+01  0.12974723645E+04  0.91397597579E+02 0.  0.
          4    1    3    3  502    0 -0.90748492982E+03  0.11502755517E+03  0.45803805932E+03  0.10230147116E+04  0.00000000000E+00 0. -1.
         -3    1    3    3    0  502 -0.39630491797E+03  0.30353683622E+02  0.25157319975E+03  0.47039133596E+03  0.00000000000E+00 0.  1.
         11    1    5    5    0    0  0.14423177830E+02  0.60781742389E+02  0.25548549507E+03  0.26301195117E+03  0.00000000000E+00 0. -1.
        -11    1    5    5    0    0  0.72595057433E+01 -0.29410639585E+02  0.52825775247E+02  0.60895391245E+02  0.00000000000E+00 0.  1.
          3    1    6    6  503    0  0.10817651827E+04 -0.16016437334E+03 -0.25919115776E+02  0.10938648625E+04  0.00000000000E+00 0. -1.
         -3    1    6    6    0  503  0.20034198155E+03 -0.16587968259E+02  0.32310131673E+02  0.20360750200E+03  0.00000000000E+00 0.  1.
<mgrwt>
<rscale>  0 0.29415425E+04</rscale>
<asrwt>0</asrwt>
<pdfrwt beam="1">  1        2 0.31839225E+00 0.29415425E+04</pdfrwt>
<pdfrwt beam="2">  1       -1 0.16080556E+00 0.29415425E+04</pdfrwt>
<totfact> 0.17226402E+00</totfact>
</mgrwt>
</event>
<event>
12    6  0.1457317E-007  0.1910180E+04  0.7818608E-02  0.8649806E-01
          2   -1    0    0  501    0  0.00000000000E+00  0.00000000000E+00  0.19488803964E+04  0.19488803964E+04  0.00000000000E+00 0. -1.
         -1   -1    0    0    0  501 -0.00000000000E+00 -0.00000000000E+00 -0.46806210174E+03  0.46806210174E+03  0.00000000000E+00 0.  1.
         24    2    1    2    0    0 -0.46409069470E+03 -0.20990976528E+03 -0.10010522466E+03  0.52558800058E+03  0.82337159755E+02 0.  0.
        254    2    1    2    0    0  0.46409069470E+03  0.20990976528E+03  0.15809235193E+04  0.18913544976E+04  0.90468800097E+03 0.  0.
         23    2    4    4    0    0  0.51483518521E+03  0.20010615831E+03  0.16654038587E+04  0.17569395051E+04  0.90380693449E+02 0.  0.
         23    2    4    4    0    0 -0.50744490507E+02  0.98036069697E+01 -0.84480339323E+02  0.13441499245E+03  0.90880957506E+02 0.  0.
          4    1    3    3  502    0 -0.69251606914E+02 -0.26519395791E+02 -0.45057490534E+02  0.86771198370E+02  0.00000000000E+00 0. -1.
         -3    1    3    3    0  502 -0.39483908779E+03 -0.18339036949E+03 -0.55047734128E+02  0.43881680221E+03  0.00000000000E+00 0.  1.
         11    1    5    5    0    0  0.34978776293E+03  0.15611582044E+03  0.12623531533E+04  0.13191888084E+04  0.00000000000E+00 0. -1.
        -11    1    5    5    0    0  0.16504742227E+03  0.43990337873E+02  0.40305070534E+03  0.43775069674E+03  0.00000000000E+00 0.  1.
          1    1    6    6  503    0  0.10808291302E+02 -0.21472172457E+02 -0.53673542792E+02  0.58810904998E+02  0.00000000000E+00 0. -1.
         -1    1    6    6    0  503 -0.61552781810E+02  0.31275779426E+02 -0.30806796531E+02  0.75604087454E+02  0.00000000000E+00 0.  1.
<mgrwt>
<rscale>  0 0.19101802E+04</rscale>
<asrwt>0</asrwt>
<pdfrwt beam="1">  1        2 0.29982775E+00 0.19101802E+04</pdfrwt>
<pdfrwt beam="2">  1       -1 0.72009555E-01 0.19101802E+04</pdfrwt>
<totfact> 0.14792262E+01</totfact>
</mgrwt>
</event>
<event>
12    6  0.1457317E-007  0.1822599E+04  0.7818608E-02  0.8694373E-01
          2   -1    0    0  501    0  0.00000000000E+00  0.00000000000E+00  0.33515313912E+04  0.33515313912E+04  0.00000000000E+00 0. -1.
         -1   -1    0    0    0  501 -0.00000000000E+00 -0.00000000000E+00 -0.24778729452E+03  0.24778729452E+03  0.00000000000E+00 0.  1.
         24    2    1    2    0    0  0.13762716439E+03  0.66209659790E+03  0.91800452992E+03  0.11429528571E+04  0.79345921174E+02 0.  0.
        254    2    1    2    0    0 -0.13762716439E+03 -0.66209659790E+03  0.21857395668E+04  0.24563658287E+04  0.89384701662E+03 0.  0.
         23    2    4    4    0    0  0.17053819748E+03 -0.53856700884E+02  0.45325282172E+02  0.20802741348E+03  0.96110366385E+02 0.  0.
         23    2    4    4    0    0 -0.30816536187E+03 -0.60823989702E+03  0.21404142846E+04  0.22483384152E+04  0.93437983978E+02 0.  0.
          2    1    3    3  502    0  0.64305752262E+01  0.13888902515E+03  0.15093936357E+03  0.20521745803E+03  0.00000000000E+00 0. -1.
         -3    1    3    3    0  502  0.13119658916E+03  0.52320757275E+03  0.76706516635E+03  0.93773539904E+03  0.00000000000E+00 0.  1.
         11    1    5    5    0    0  0.12661521829E+03 -0.65874933997E+02  0.66911452879E+02  0.15763268366E+03  0.00000000000E+00 0. -1.
        -11    1    5    5    0    0  0.43922979196E+02  0.12018233113E+02 -0.21586170707E+02  0.50394729827E+02  0.00000000000E+00 0.  1.
          4    1    6    6  503    0 -0.27917599715E+03 -0.47069054397E+03  0.17330591432E+04  0.18174110211E+04  0.00000000000E+00 0. -1.
         -4    1    6    6    0  503 -0.28989364716E+02 -0.13754935304E+03  0.40735514138E+03  0.43092739411E+03  0.00000000000E+00 0.  1.
<mgrwt>
<rscale>  0 0.18225991E+04</rscale>
<asrwt>0</asrwt>
<pdfrwt beam="1">  1        2 0.51562018E+00 0.18225991E+04</pdfrwt>
<pdfrwt beam="2">  1       -1 0.38121125E-01 0.18225991E+04</pdfrwt>
<totfact> 0.73852585E+00</totfact>
</mgrwt>
</event>
<event>
12    6  0.1457317E-007  0.1082396E+04  0.7818608E-02  0.9222522E-01
          2   -1    0    0  501    0  0.00000000000E+00  0.00000000000E+00  0.14007641680E+04  0.14007641680E+04  0.00000000000E+00 0. -1.
         -1   -1    0    0    0  501 -0.00000000000E+00 -0.00000000000E+00 -0.20909665378E+03  0.20909665378E+03  0.00000000000E+00 0.  1.
         24    2    1    2    0    0  0.10172672527E+03 -0.10559610334E+03  0.25036151117E+03  0.30082669394E+03  0.79479241552E+02 0.  0.
        254    2    1    2    0    0 -0.10172672527E+03  0.10559610334E+03  0.94130600306E+03  0.13090341278E+04  0.89778309896E+03 0.  0.
         23    2    4    4    0    0 -0.72794690714E+02  0.85523717206E+01  0.10964651589E+04  0.11026591329E+04  0.90824603171E+02 0.  0.
         23    2    4    4    0    0 -0.28932034557E+02  0.97043731619E+02 -0.15515915583E+03  0.20637499499E+03  0.90894039677E+02 0.  0.
          2    1    3    3  502    0  0.72545965987E+02 -0.50391639521E+02  0.20626825301E+03  0.22438544230E+03  0.00000000000E+00 0. -1.
         -3    1    3    3    0  502  0.29180759284E+02 -0.55204463819E+02  0.44093258160E+02  0.76441251645E+02  0.00000000000E+00 0.  1.
         11    1    5    5    0    0 -0.27673148225E+02 -0.31924443057E+02  0.21497351922E+03  0.21908579863E+03  0.00000000000E+00 0.  1.
        -11    1    5    5    0    0 -0.45121542489E+02  0.40476814778E+02  0.88149163967E+03  0.88357333422E+03  0.00000000000E+00 0. -1.
          4    1    6    6  503    0 -0.46618460744E+02  0.73935414666E+02 -0.15421176322E+03  0.17725968052E+03  0.00000000000E+00 0. -1.
         -4    1    6    6    0  503  0.17686426187E+02  0.23108316953E+02 -0.94739260993E+00  0.29115314466E+02  0.00000000000E+00 0.  1.
<mgrwt>
<rscale>  0 0.10823957E+04</rscale>
<asrwt>0</asrwt>
<pdfrwt beam="1">  1        2 0.21550217E+00 0.10823957E+04</pdfrwt>
<pdfrwt beam="2">  1       -1 0.32168717E-01 0.10823957E+04</pdfrwt>
<totfact> 0.14754383E+02</totfact>
</mgrwt>
</event>
<event>
12    6  0.1457317E-007  0.2357440E+04  0.7818608E-02  0.8455611E-01
          2   -1    0    0  501    0  0.00000000000E+00  0.00000000000E+00  0.10491068800E+04  0.10491068800E+04  0.00000000000E+00 0. -1.
         -1   -1    0    0    0  501 -0.00000000000E+00 -0.00000000000E+00 -0.13243467745E+04  0.13243467745E+04  0.00000000000E+00 0.  1.
         24    2    1    2    0    0  0.29545734674E+03 -0.16781745010E+03  0.81813019454E+03  0.88959572463E+03  0.81152928284E+02 0.  0.
        254    2    1    2    0    0 -0.29545734674E+03  0.16781745010E+03 -0.10933700890E+04  0.14838579299E+04  0.94388477284E+03 0.  0.
         23    2    4    4    0    0 -0.93724536929E+02 -0.33109227449E+03 -0.13436578476E+03  0.38027263524E+03  0.90259237485E+02 0.  0.
         23    2    4    4    0    0 -0.20173280981E+03  0.49890972459E+03 -0.95900430426E+03  0.11035852947E+04  0.92758866150E+02 0.  0.
          4    1    3    3  502    0  0.27615458146E+03 -0.17434318387E+03  0.74017532449E+03  0.80902188450E+03  0.00000000000E+00 0. -1.
         -3    1    3    3    0  502  0.19302765277E+02  0.65257337713E+01  0.77954870048E+02  0.80573840127E+02  0.00000000000E+00 0.  1.
         11    1    5    5    0    0 -0.92493900732E+01 -0.10128070493E+03 -0.15286932292E+01  0.10171366334E+03  0.00000000000E+00 0. -1.
        -11    1    5    5    0    0 -0.84475146856E+02 -0.22981156956E+03 -0.13283709153E+03  0.27855897190E+03  0.00000000000E+00 0.  1.
          1    1    6    6  503    0 -0.46438755923E+01  0.37646676361E+02 -0.12226059652E+03  0.12800973120E+03  0.00000000000E+00 0. -1.
         -1    1    6    6    0  503 -0.19708893421E+03  0.46126304823E+03 -0.83674370774E+03  0.97557556350E+03  0.00000000000E+00 0.  1.
<mgrwt>
<rscale>  0 0.23574404E+04</rscale>
<asrwt>0</asrwt>
<pdfrwt beam="1">  1        2 0.16140106E+00 0.23574404E+04</pdfrwt>
<pdfrwt beam="2">  1       -1 0.20374566E+00 0.23574404E+04</pdfrwt>
<totfact> 0.34201783E+00</totfact>
</mgrwt>
</event>
<event>
12    6  0.1457317E-007  0.1996498E+04  0.7818608E-02  0.8608260E-01
         -1   -1    0    0    0  501 -0.00000000000E+00  0.00000000000E+00  0.62045298532E+03  0.62045298532E+03  0.00000000000E+00 0.  1.
          2   -1    0    0  501    0  0.00000000000E+00 -0.00000000000E+00 -0.16060856282E+04  0.16060856282E+04  0.00000000000E+00 0. -1.
         24    2    1    2    0    0  0.35190086709E+03 -0.40600202570E+03 -0.10508729636E+04  0.11831155325E+04  0.82198007893E+02 0.  0.
        254    2    1    2    0    0 -0.35190086709E+03  0.40600202570E+03  0.65240320758E+02  0.10434230810E+04  0.89207822601E+03 0.  0.
         23    2    4    4    0    0  0.22897957740E+03  0.37863081745E+03  0.10493056314E+02  0.45246313572E+03  0.93914014761E+02 0.  0.
         23    2    4    4    0    0 -0.58088044449E+03  0.27371208249E+02  0.54747264445E+02  0.59095994525E+03  0.89806013690E+02 0.  0.
          4    1    3    3  502    0  0.24920840346E+03 -0.33839048838E+03 -0.82987678899E+03  0.93021956327E+03  0.00000000000E+00 0. -1.
         -3    1    3    3    0  502  0.10269246363E+03 -0.67611537320E+02 -0.22099617464E+03  0.25289596926E+03  0.00000000000E+00 0.  1.
         11    1    5    5    0    0  0.57100887136E+02  0.37091604277E+02 -0.13286868786E+02  0.69374630101E+02  0.00000000000E+00 0. -1.
        -11    1    5    5    0    0  0.17187869026E+03  0.34153921318E+03  0.23779925099E+02  0.38308850562E+03  0.00000000000E+00 0.  1.
          1    1    6    6  503    0 -0.21031117136E+03  0.20702670518E+02  0.62082519172E+02  0.22025809532E+03  0.00000000000E+00 0. -1.
         -1    1    6    6    0  503 -0.37056927313E+03  0.66685377309E+01 -0.73352547271E+01  0.37070184993E+03  0.00000000000E+00 0.  1.
<mgrwt>
<rscale>  0 0.19964976E+04</rscale>
<asrwt>0</asrwt>
<pdfrwt beam="1">  1        2 0.24709009E+00 0.19964976E+04</pdfrwt>
<pdfrwt beam="2">  1       -1 0.95454307E-01 0.19964976E+04</pdfrwt>
<totfact> 0.12408184E+01</totfact>
</mgrwt>
</event>
<event>
12    6  0.1457317E-007  0.1328101E+04  0.7818608E-02  0.9007573E-01
          2   -1    0    0  501    0  0.00000000000E+00  0.00000000000E+00  0.66800765257E+03  0.66800765257E+03  0.00000000000E+00 0. -1.
         -1   -1    0    0    0  501 -0.00000000000E+00 -0.00000000000E+00 -0.66011705014E+03  0.66011705014E+03  0.00000000000E+00 0.  1.
         24    2    1    2    0    0  0.16215823121E+03 -0.29833956336E+03 -0.80848060602E+02  0.35783154938E+03  0.78773230316E+02 0.  0.
        254    2    1    2    0    0 -0.16215823121E+03  0.29833956336E+03  0.88738663031E+02  0.97029315333E+03  0.90459519459E+03 0.  0.
         23    2    4    4    0    0  0.13062848510E+03  0.25916162867E+03  0.41881328695E+03  0.51816530673E+03  0.94139072005E+02 0.  0.
         23    2    4    4    0    0 -0.29278671631E+03  0.39177934687E+02 -0.33007462392E+03  0.45212784660E+03  0.90616557554E+02 0.  0.
          2    1    3    3  502    0  0.16752158146E+03 -0.28433883161E+03 -0.65653643665E+02  0.33648544150E+03  0.00000000000E+00 0. -1.
         -1    1    3    3    0  502 -0.53633502532E+01 -0.14000731748E+02 -0.15194416936E+02  0.21346107876E+02  0.00000000000E+00 0.  1.
         11    1    5    5    0    0  0.11021087507E+03  0.24545595673E+03  0.41297123525E+03  0.49288974915E+03  0.00000000000E+00 0.  1.
        -11    1    5    5    0    0  0.20417610033E+02  0.13705671947E+02  0.58420517040E+01  0.25275557582E+02  0.00000000000E+00 0. -1.
          3    1    6    6  503    0 -0.21423784258E+02  0.82964033964E+00  0.20402678569E+01  0.21536701882E+02  0.00000000000E+00 0. -1.
         -3    1    6    6    0  503 -0.27136293205E+03  0.38348294347E+02 -0.33211489178E+03  0.43059114472E+03  0.00000000000E+00 0.  1.
<mgrwt>
<rscale>  0 0.13281013E+04</rscale>
<asrwt>0</asrwt>
<pdfrwt beam="1">  1        2 0.10277041E+00 0.13281013E+04</pdfrwt>
<pdfrwt beam="2">  1       -1 0.10155647E+00 0.13281013E+04</pdfrwt>
<totfact> 0.44697649E+01</totfact>
</mgrwt>
</event>
<event>
12    6  0.1457317E-007  0.1423088E+04  0.7818608E-02  0.8937274E-01
          2   -1    0    0  501    0  0.00000000000E+00  0.00000000000E+00  0.16502574365E+04  0.16502574365E+04  0.00000000000E+00 0. -1.
         -1   -1    0    0    0  501 -0.00000000000E+00 -0.00000000000E+00 -0.30679736500E+03  0.30679736500E+03  0.00000000000E+00 0.  1.
         24    2    1    2    0    0  0.24358097745E+02 -0.23938508061E+03  0.85034387356E+03  0.88738392611E+03  0.80417630381E+02 0.  0.
        254    2    1    2    0    0 -0.24358097745E+02  0.23938508061E+03  0.49311619795E+03  0.10696708754E+04  0.91822310103E+03 0.  0.
         23    2    4    4    0    0  0.84006298922E+02  0.54629794129E+03  0.46901808576E+03  0.73080366147E+03  0.92722855474E+02 0.  0.
         23    2    4    4    0    0 -0.10836439667E+03 -0.30691286068E+03  0.24098112198E+02  0.33886721394E+03  0.91169749132E+02 0.  0.
          2    1    3    3  502    0  0.47343781591E+02 -0.21513102580E+03  0.74086646980E+03  0.77292038270E+03  0.00000000000E+00 0. -1.
         -1    1    3    3    0  502 -0.22985683846E+02 -0.24254054805E+02  0.10947740376E+03  0.11446354341E+03  0.00000000000E+00 0.  1.
         11    1    5    5    0    0  0.29585276969E+02  0.43901714923E+03  0.37484757620E+03  0.57803291543E+03  0.00000000000E+00 0. -1.
        -11    1    5    5    0    0  0.54421021953E+02  0.10728079206E+03  0.94170509554E+02  0.15277074604E+03  0.00000000000E+00 0.  1.
          1    1    6    6  503    0  0.34557808949E+01 -0.45035472513E+02 -0.22278978561E+02  0.50363569093E+02  0.00000000000E+00 0. -1.
         -1    1    6    6    0  503 -0.11182017756E+03 -0.26187738817E+03  0.46377090759E+02  0.28850364485E+03  0.00000000000E+00 0.  1.
<mgrwt>
<rscale>  0 0.14230877E+04</rscale>
<asrwt>0</asrwt>
<pdfrwt beam="1">  1        2 0.25388575E+00 0.14230877E+04</pdfrwt>
<pdfrwt beam="2">  1       -1 0.47199595E-01 0.14230877E+04</pdfrwt>
<totfact> 0.51811596E+01</totfact>
</mgrwt>
</event>
<event>
12    6  0.1457317E-007  0.1613259E+04  0.7818608E-02  0.8812444E-01
          2   -1    0    0  501    0  0.00000000000E+00  0.00000000000E+00  0.18493751840E+04  0.18493751840E+04  0.00000000000E+00 0. -1.
         -1   -1    0    0    0  501 -0.00000000000E+00 -0.00000000000E+00 -0.35182209116E+03  0.35182209116E+03  0.00000000000E+00 0.  1.
         24    2    1    2    0    0  0.29484160691E+03  0.42929391354E+03  0.26634093558E+03  0.59022888533E+03  0.78789629657E+02 0.  0.
        254    2    1    2    0    0 -0.29484160691E+03 -0.42929391354E+03  0.12312121573E+04  0.16109683898E+04  0.89894990935E+03 0.  0.
         23    2    4    4    0    0 -0.16488460897E+03  0.23936407716E+03  0.17458655000E+03  0.35131891534E+03  0.91991418745E+02 0.  0.
         23    2    4    4    0    0 -0.12995699794E+03 -0.66865799070E+03  0.10566256073E+04  0.12596494745E+04  0.79163090273E+02 0.  0.
          2    1    3    3  502    0  0.13102171324E+03  0.16088507524E+03  0.14521255710E+03  0.25325359527E+03  0.00000000000E+00 0. -1.
         -1    1    3    3    0  502  0.16381989367E+03  0.26840883830E+03  0.12112837849E+03  0.33697529006E+03  0.00000000000E+00 0.  1.
         11    1    5    5    0    0 -0.51231626372E+01  0.41170932533E+02 -0.19425024215E+01  0.41533911406E+02  0.00000000000E+00 0.  1.
        -11    1    5    5    0    0 -0.15976144633E+03  0.19819314463E+03  0.17652905242E+03  0.30978500393E+03  0.00000000000E+00 0. -1.
          2    1    6    6  503    0 -0.87205393232E+02 -0.49477620708E+03  0.83790170265E+03  0.97697878125E+03  0.00000000000E+00 0. -1.
         -2    1    6    6    0  503 -0.42751604708E+02 -0.17388178361E+03  0.21872390461E+03  0.28267069326E+03  0.00000000000E+00 0.  1.
<mgrwt>
<rscale>  0 0.16132589E+04</rscale>
<asrwt>0</asrwt>
<pdfrwt beam="1">  1        2 0.28451925E+00 0.16132589E+04</pdfrwt>
<pdfrwt beam="2">  1       -1 0.54126476E-01 0.16132589E+04</pdfrwt>
<totfact> 0.30467628E+01</totfact>
</mgrwt>
</event>
<event>
12    6  0.1457317E-007  0.2948561E+04  0.7818608E-02  0.8258574E-01
          2   -1    0    0  501    0  0.00000000000E+00  0.00000000000E+00  0.26485995894E+04  0.26485995894E+04  0.00000000000E+00 0. -1.
         -1   -1    0    0    0  501 -0.00000000000E+00 -0.00000000000E+00 -0.82062353397E+03  0.82062353397E+03  0.00000000000E+00 0.  1.
         24    2    1    2    0    0 -0.15867235889E+03  0.43280442708E+03  0.23023012625E+04  0.23492979350E+04  0.78186280113E+02 0.  0.
        254    2    1    2    0    0  0.15867235889E+03 -0.43280442708E+03 -0.47432520714E+03  0.11199251883E+04  0.90374301422E+03 0.  0.
         23    2    4    4    0    0 -0.29600564551E+03  0.39453479141E+02 -0.30380702080E+03  0.43650552298E+03  0.95196882916E+02 0.  0.
         23    2    4    4    0    0  0.45467800440E+03 -0.47225790622E+03 -0.17051818634E+03  0.68341966535E+03  0.90699335375E+02 0.  0.
          4    1    3    3  502    0 -0.71528378727E+02  0.27803846275E+03  0.12931096318E+04  0.13245958688E+04  0.00000000000E+00 0. -1.
         -3    1    3    3    0  502 -0.87143980163E+02  0.15476596433E+03  0.10091916307E+04  0.10247020662E+04  0.00000000000E+00 0.  1.
         11    1    5    5    0    0 -0.96095387071E+02 -0.10049999066E+02 -0.15413587120E+03  0.18191534484E+03  0.00000000000E+00 0.  1.
        -11    1    5    5    0    0 -0.19991025844E+03  0.49503478207E+02 -0.14967114959E+03  0.25459017814E+03  0.00000000000E+00 0. -1.
          1    1    6    6  503    0  0.23246208410E+03 -0.21832758358E+03 -0.12667812047E+03  0.34315142503E+03  0.00000000000E+00 0. -1.
         -1    1    6    6    0  503  0.22221592030E+03 -0.25393032265E+03 -0.43840065871E+02  0.34026824032E+03  0.00000000000E+00 0.  1.
<mgrwt>
<rscale>  0 0.29485611E+04</rscale>
<asrwt>0</asrwt>
<pdfrwt beam="1">  1        2 0.40747685E+00 0.29485611E+04</pdfrwt>
<pdfrwt beam="2">  1       -1 0.12624978E+00 0.29485611E+04</pdfrwt>
<totfact> 0.15189071E+00</totfact>
</mgrwt>
</event>
<event>
12    6  0.1457317E-007  0.2272485E+04  0.7818608E-02  0.8488849E-01
          2   -1    0    0  501    0  0.00000000000E+00  0.00000000000E+00  0.74661929501E+03  0.74661929501E+03  0.00000000000E+00 0. -1.
         -1   -1    0    0    0  501 -0.00000000000E+00 -0.00000000000E+00 -0.17291908540E+04  0.17291908540E+04  0.00000000000E+00 0.  1.
         24    2    1    2    0    0 -0.20064062719E+03 -0.35963747813E+03 -0.13684042487E+04  0.14300362394E+04  0.53644023180E+02 0.  0.
        254    2    1    2    0    0  0.20064062719E+03  0.35963747813E+03  0.38583268969E+03  0.10457739096E+04  0.88044331369E+03 0.  0.
         23    2    4    4    0    0 -0.25888730199E+03 -0.62774126696E+02  0.29502469503E+03  0.40880542387E+03  0.95493862611E+02 0.  0.
         23    2    4    4    0    0  0.45952792918E+03  0.42241160482E+03  0.90807994665E+02  0.63696848574E+03  0.88799089795E+02 0.  0.
          4    1    3    3  502    0 -0.34338419962E+02 -0.99501970843E+02 -0.39904937972E+03  0.41269865124E+03  0.00000000000E+00 0. -1.
         -3    1    3    3    0  502 -0.16630220723E+03 -0.26013550728E+03 -0.96935486896E+03  0.10173375881E+04  0.00000000000E+00 0.  1.
         11    1    5    5    0    0 -0.20460541553E+03 -0.75930364058E+02  0.18785886005E+03  0.28795789197E+03  0.00000000000E+00 0. -1.
        -11    1    5    5    0    0 -0.54281886457E+02  0.13156237361E+02  0.10716583498E+03  0.12084753190E+03  0.00000000000E+00 0.  1.
          1    1    6    6  503    0  0.33435630936E+03  0.25062808750E+03  0.63996338964E+02  0.42273409048E+03  0.00000000000E+00 0. -1.
         -1    1    6    6    0  503  0.12517161982E+03  0.17178351732E+03  0.26811655701E+02  0.21423439526E+03  0.00000000000E+00 0.  1.
<mgrwt>
<rscale>  0 0.22724852E+04</rscale>
<asrwt>0</asrwt>
<pdfrwt beam="1">  1        2 0.11486451E+00 0.22724852E+04</pdfrwt>
<pdfrwt beam="2">  1       -1 0.26602936E+00 0.22724852E+04</pdfrwt>
<totfact> 0.21442543E+00</totfact>
</mgrwt>
</event>
<event>
12    6  0.1457317E-007  0.1911073E+04  0.7818608E-02  0.8649364E-01
         -1   -1    0    0    0  501 -0.00000000000E+00  0.00000000000E+00  0.22521941685E+03  0.22521941685E+03  0.00000000000E+00 0.  1.
          2   -1    0    0  501    0  0.00000000000E+00 -0.00000000000E+00 -0.40540474758E+04  0.40540474758E+04  0.00000000000E+00 0. -1.
         24    2    1    2    0    0 -0.63175637502E+03  0.14540221981E+03 -0.69716562040E+03  0.95536946223E+03  0.80205886271E+02 0.  0.
        254    2    1    2    0    0  0.63175637502E+03 -0.14540221981E+03 -0.31316624386E+04  0.33238974305E+04  0.90593960948E+03 0.  0.
         23    2    4    4    0    0  0.32528098841E+03 -0.31540638884E+03 -0.27854945263E+04  0.28235912835E+04  0.91646431561E+02 0.  0.
         23    2    4    4    0    0  0.30647538661E+03  0.17000416903E+03 -0.34616791228E+03  0.50030614699E+03  0.87438190408E+02 0.  0.
          2    1    3    3  502    0 -0.23219962760E+02 -0.84696253181E+00 -0.83613387024E+01  0.24694047886E+02  0.00000000000E+00 0. -1.
         -1    1    3    3    0  502 -0.60853641226E+03  0.14624918235E+03 -0.68880428169E+03  0.93067541435E+03  0.00000000000E+00 0.  1.
         11    1    5    5    0    0  0.30171218868E+03 -0.31527155876E+03 -0.26937820236E+04  0.27288986774E+04  0.00000000000E+00 0. -1.
        -11    1    5    5    0    0  0.23568799732E+02 -0.13483008233E+00 -0.91712502668E+02  0.94692606077E+02  0.00000000000E+00 0.  1.
          1    1    6    6  503    0  0.25666122012E+03  0.17352001387E+03 -0.31271510442E+03  0.44019872065E+03  0.00000000000E+00 0. -1.
         -1    1    6    6    0  503  0.49814166491E+02 -0.35158448439E+01 -0.33452807859E+02  0.60107426345E+02  0.00000000000E+00 0.  1.
<mgrwt>
<rscale>  0 0.19110732E+04</rscale>
<asrwt>0</asrwt>
<pdfrwt beam="1">  1        2 0.62369961E+00 0.19110732E+04</pdfrwt>
<pdfrwt beam="2">  1       -1 0.34649141E-01 0.19110732E+04</pdfrwt>
<totfact> 0.26345815E+00</totfact>
</mgrwt>
</event>
<event>
12    6  0.1457317E-007  0.2345818E+04  0.7818608E-02  0.8460072E-01
          2   -1    0    0  501    0  0.00000000000E+00  0.00000000000E+00  0.97805510631E+03  0.97805510631E+03  0.00000000000E+00 0. -1.
         -1   -1    0    0    0  501 -0.00000000000E+00 -0.00000000000E+00 -0.14065831854E+04  0.14065831854E+04  0.00000000000E+00 0.  1.
         24    2    1    2    0    0 -0.69548160397E+03 -0.68999067703E+03 -0.36447524701E+03  0.10483465589E+04  0.80040651888E+02 0.  0.
        254    2    1    2    0    0  0.69548160397E+03  0.68999067703E+03 -0.64052832117E+02  0.13362917329E+04  0.90652690762E+03 0.  0.
         23    2    4    4    0    0 -0.17131192703E+03 -0.22454204625E+02  0.56311953006E+02  0.20410184245E+03  0.92922324501E+02 0.  0.
         23    2    4    4    0    0  0.86679353099E+03  0.71244488165E+03 -0.12036478512E+03  0.11321898904E+04  0.91964839786E+02 0.  0.
          4    1    3    3  502    0 -0.29119977085E+03 -0.25307340462E+03 -0.11180688189E+03  0.40167677740E+03  0.00000000000E+00 0. -1.
         -3    1    3    3    0  502 -0.40428183312E+03 -0.43691727241E+03 -0.25266836512E+03  0.64666978146E+03  0.00000000000E+00 0.  1.
         11    1    5    5    0    0 -0.17978785663E+03 -0.32837373688E+02  0.53084070436E+02  0.19031522545E+03  0.00000000000E+00 0. -1.
        -11    1    5    5    0    0  0.84759296020E+01  0.10383169063E+02  0.32278825698E+01  0.13786617000E+02  0.00000000000E+00 0.  1.
          4    1    6    6  503    0  0.58651866366E+02  0.39874838868E+02  0.13833816053E+02  0.72259384647E+02  0.00000000000E+00 0.  1.
         -4    1    6    6    0  503  0.80814166463E+03  0.67257004278E+03 -0.13419860118E+03  0.10599305058E+04  0.00000000000E+00 0. -1.
<mgrwt>
<rscale>  0 0.23458183E+04</rscale>
<asrwt>0</asrwt>
<pdfrwt beam="1">  1        2 0.15047002E+00 0.23458183E+04</pdfrwt>
<pdfrwt beam="2">  1       -1 0.21639741E+00 0.23458183E+04</pdfrwt>
<totfact> 0.31189774E+00</totfact>
</mgrwt>
</event>
<event>
12    6  0.1457317E-007  0.1747631E+04  0.7818608E-02  0.8734655E-01
         -1   -1    0    0    0  501 -0.00000000000E+00  0.00000000000E+00  0.85310061944E+03  0.85310061944E+03  0.00000000000E+00 0.  1.
          2   -1    0    0  501    0  0.00000000000E+00 -0.00000000000E+00 -0.89503355751E+03  0.89503355751E+03  0.00000000000E+00 0. -1.
         24    2    1    2    0    0  0.38472101759E+03 -0.13001166492E+03  0.48595840518E+03  0.63836678320E+03  0.80270068797E+02 0.  0.
        254    2    1    2    0    0 -0.38472101759E+03  0.13001166492E+03 -0.52789134324E+03  0.11097673937E+04  0.88769426244E+03 0.  0.
         23    2    4    4    0    0  0.57667944593E+02  0.34952026828E+03  0.20052089008E+02  0.36654679749E+03  0.92002492919E+02 0.  0.
         23    2    4    4    0    0 -0.44238896218E+03 -0.21950860336E+03 -0.54794343225E+03  0.74322059626E+03  0.90790026708E+02 0.  0.
          4    1    3    3  502    0  0.10066538755E+03 -0.11428348942E+02  0.81062645814E+02  0.12975083798E+03  0.00000000000E+00 0. -1.
         -3    1    3    3    0  502  0.28405563004E+03 -0.11858331598E+03  0.40489575936E+03  0.50861594522E+03  0.00000000000E+00 0.  1.
         11    1    5    5    0    0  0.44218531157E+02  0.29299725531E+03  0.51070842884E+02  0.30068405530E+03  0.00000000000E+00 0. -1.
        -11    1    5    5    0    0  0.13449413436E+02  0.56523012969E+02 -0.31018753876E+02  0.65862742191E+02  0.00000000000E+00 0.  1.
          1    1    6    6  503    0 -0.42034288347E+03 -0.19122864637E+03 -0.53051677481E+03  0.70335238909E+03  0.00000000000E+00 0. -1.
         -1    1    6    6    0  503 -0.22046078712E+02 -0.28279956988E+02 -0.17426657440E+02  0.39868207175E+02  0.00000000000E+00 0.  1.
<mgrwt>
<rscale>  0 0.17476312E+04</rscale>
<asrwt>0</asrwt>
<pdfrwt beam="1">  1        2 0.13769747E+00 0.17476312E+04</pdfrwt>
<pdfrwt beam="2">  1       -1 0.13124625E+00 0.17476312E+04</pdfrwt>
<totfact> 0.15828132E+01</totfact>
</mgrwt>
</event>
<event>
12    6  0.1457317E-007  0.1679830E+04  0.7818608E-02  0.8772953E-01
          2   -1    0    0  501    0  0.00000000000E+00  0.00000000000E+00  0.19953182955E+04  0.19953182955E+04  0.00000000000E+00 0. -1.
         -1   -1    0    0    0  501 -0.00000000000E+00 -0.00000000000E+00 -0.35355604829E+03  0.35355604829E+03  0.00000000000E+00 0.  1.
         24    2    1    2    0    0  0.12051632743E+03  0.13900400375E+03  0.13786657779E+04  0.13933638353E+04  0.83049094023E+02 0.  0.
        254    2    1    2    0    0 -0.12051632743E+03 -0.13900400375E+03  0.26309646932E+03  0.95551050854E+03  0.89996348899E+03 0.  0.
         23    2    4    4    0    0 -0.28104070920E+03 -0.49788132196E+02  0.53536113073E+03  0.61354438301E+03  0.91446330123E+02 0.  0.
         23    2    4    4    0    0  0.16052438177E+03 -0.89215871551E+02 -0.27226466141E+03  0.34196612553E+03  0.95316505814E+02 0.  0.
          4    1    3    3  502    0  0.93254513041E+02  0.11355679142E+03  0.12700946948E+04  0.12785664171E+04  0.00000000000E+00 0. -1.
         -3    1    3    3    0  502  0.27261814388E+02  0.25447212324E+02  0.10857108309E+03  0.11479741819E+03  0.00000000000E+00 0.  1.
         11    1    5    5    0    0 -0.14636731848E+03 -0.88810806474E+01  0.35976743551E+03  0.38850337600E+03  0.00000000000E+00 0. -1.
        -11    1    5    5    0    0 -0.13467339072E+03 -0.40907051549E+02  0.17559369522E+03  0.22504100701E+03  0.00000000000E+00 0.  1.
          3    1    6    6  503    0  0.86328891977E+02 -0.97704696198E+02 -0.15046043422E+03  0.19909100309E+03  0.00000000000E+00 0. -1.
         -3    1    6    6    0  503  0.74195489790E+02  0.84888246468E+01 -0.12180422719E+03  0.14287512244E+03  0.00000000000E+00 0.  1.
<mgrwt>
<rscale>  0 0.16798296E+04</rscale>
<asrwt>0</asrwt>
<pdfrwt beam="1">  1        2 0.30697204E+00 0.16798296E+04</pdfrwt>
<pdfrwt beam="2">  1       -1 0.54393239E-01 0.16798296E+04</pdfrwt>
<totfact> 0.24910615E+01</totfact>
</mgrwt>
</event>
<event>
12    6  0.1457317E-007  0.1559134E+04  0.7818608E-02  0.8846055E-01
         -1   -1    0    0    0  501 -0.00000000000E+00  0.00000000000E+00  0.43864402446E+03  0.43864402446E+03  0.00000000000E+00 0.  1.
          2   -1    0    0  501    0  0.00000000000E+00 -0.00000000000E+00 -0.13854617609E+04  0.13854617609E+04  0.00000000000E+00 0. -1.
         24    2    1    2    0    0 -0.36028324707E+03 -0.14776805038E+03  0.99381635020E+02  0.40985103408E+03  0.80384985665E+02 0.  0.
        254    2    1    2    0    0  0.36028324707E+03  0.14776805038E+03 -0.10461993714E+04  0.14142547513E+04  0.86829946552E+03 0.  0.
         23    2    4    4    0    0 -0.26189939999E+03  0.16092175791E+03 -0.30932742990E+03  0.44561267591E+03  0.91652005744E+02 0.  0.
         23    2    4    4    0    0  0.62218264707E+03 -0.13153707527E+02 -0.73687194152E+03  0.96864207534E+03  0.89459183864E+02 0.  0.
          2    1    3    3  502    0 -0.56309784168E+02 -0.42566370338E+02 -0.72850491482E+01  0.70963086305E+02  0.00000000000E+00 0. -1.
         -1    1    3    3    0  502 -0.30397346291E+03 -0.10520168005E+03  0.10666668417E+03  0.33888794777E+03  0.00000000000E+00 0.  1.
         11    1    5    5    0    0 -0.24994513068E+03  0.12121649846E+03 -0.25349211200E+03  0.37606416832E+03  0.00000000000E+00 0. -1.
        -11    1    5    5    0    0 -0.11954269317E+02  0.39705259454E+02 -0.55835317899E+02  0.69548507590E+02  0.00000000000E+00 0.  1.
          4    1    6    6  503    0  0.33122645163E+03 -0.27913142954E+02 -0.45306823218E+03  0.56192608839E+03  0.00000000000E+00 0. -1.
         -4    1    6    6    0  503  0.29095619544E+03  0.14759435427E+02 -0.28380370935E+03  0.40671598695E+03  0.00000000000E+00 0.  1.
<mgrwt>
<rscale>  0 0.15591338E+04</rscale>
<asrwt>0</asrwt>
<pdfrwt beam="1">  1        2 0.21314796E+00 0.15591338E+04</pdfrwt>
<pdfrwt beam="2">  1       -1 0.67483697E-01 0.15591338E+04</pdfrwt>
<totfact> 0.35965351E+01</totfact>
</mgrwt>
</event>
<event>
12    6  0.1457317E-007  0.1725647E+04  0.7818608E-02  0.8746871E-01
          2   -1    0    0  501    0  0.00000000000E+00  0.00000000000E+00  0.59382587131E+03  0.59382587131E+03  0.00000000000E+00 0. -1.
         -1   -1    0    0    0  501 -0.00000000000E+00 -0.00000000000E+00 -0.12536744038E+04  0.12536744038E+04  0.00000000000E+00 0.  1.
         24    2    1    2    0    0  0.41761185692E+03 -0.48901073998E+03 -0.34092572792E+03  0.73187640592E+03  0.76691294946E+02 0.  0.
        254    2    1    2    0    0 -0.41761185692E+03  0.48901073998E+03 -0.31892280459E+03  0.11156238692E+04  0.85403377885E+03 0.  0.
         23    2    4    4    0    0 -0.36603982331E+03  0.85749631615E+02 -0.52379783776E+03  0.65087712826E+03  0.89099436985E+02 0.  0.
         23    2    4    4    0    0 -0.51572033603E+02  0.40326110837E+03  0.20487503317E+03  0.46474674096E+03  0.93469555684E+02 0.  0.
          2    1    3    3  502    0  0.29621150957E+03 -0.36166616825E+03 -0.20957414098E+03  0.51231337698E+03  0.00000000000E+00 0. -1.
         -1    1    3    3    0  502  0.12140034734E+03 -0.12734457173E+03 -0.13135158694E+03  0.21956302894E+03  0.00000000000E+00 0.  1.
         11    1    5    5    0    0 -0.18426182310E+03  0.21287427418E+02 -0.32289703127E+03  0.37238161450E+03  0.00000000000E+00 0. -1.
        -11    1    5    5    0    0 -0.18177800021E+03  0.64462204197E+02 -0.20090080649E+03  0.27849551375E+03  0.00000000000E+00 0.  1.
          4    1    6    6  503    0  0.99436195495E+01  0.82108331529E+02  0.80763923898E+01  0.83101635304E+02  0.00000000000E+00 0.  1.
         -4    1    6    6    0  503 -0.61515653153E+02  0.32115277684E+03  0.19679864078E+03  0.38164510565E+03  0.00000000000E+00 0. -1.
<mgrwt>
<rscale>  0 0.17256469E+04</rscale>
<asrwt>0</asrwt>
<pdfrwt beam="1">  1        2 0.91357827E-01 0.17256469E+04</pdfrwt>
<pdfrwt beam="2">  1       -1 0.19287298E+00 0.17256469E+04</pdfrwt>
<totfact> 0.91894176E+00</totfact>
</mgrwt>
</event>
<event>
12    6  0.1457317E-007  0.3434087E+04  0.7818608E-02  0.8129590E-01
         -1   -1    0    0    0  501 -0.00000000000E+00  0.00000000000E+00  0.12641454024E+04  0.12641454024E+04  0.00000000000E+00 0.  1.
          2   -1    0    0  501    0  0.00000000000E+00 -0.00000000000E+00 -0.23321992933E+04  0.23321992933E+04  0.00000000000E+00 0. -1.
         24    2    1    2    0    0 -0.43542263207E+02 -0.16013295391E+04 -0.53745575281E+03  0.16915707863E+04  0.80005108942E+02 0.  0.
        254    2    1    2    0    0  0.43542263207E+02  0.16013295391E+04 -0.53059813808E+03  0.19047739093E+04  0.88344611612E+03 0.  0.
         23    2    4    4    0    0  0.39230824435E+03  0.43528591012E+03 -0.57813014132E+02  0.59596141465E+03  0.91913443080E+02 0.  0.
         23    2    4    4    0    0 -0.34876598114E+03  0.11660436290E+04 -0.47278512394E+03  0.13088124947E+04  0.90382069819E+02 0.  0.
          4    1    3    3  502    0 -0.26192698101E+01 -0.83994903109E+02 -0.47695560896E+02  0.96627484972E+02  0.00000000000E+00 0. -1.
         -3    1    3    3    0  502 -0.40922993396E+02 -0.15173346360E+04 -0.48976019191E+03  0.15949433013E+04  0.00000000000E+00 0.  1.
         11    1    5    5    0    0  0.26599035249E+03  0.22878563846E+03 -0.42398203245E+02  0.35339969386E+03  0.00000000000E+00 0.  1.
        -11    1    5    5    0    0  0.12631789186E+03  0.20650027165E+03 -0.15414810887E+02  0.24256172079E+03  0.00000000000E+00 0. -1.
          2    1    6    6  503    0 -0.12495441446E+03  0.32391977343E+03 -0.16792467389E+03  0.38566348208E+03  0.00000000000E+00 0. -1.
         -2    1    6    6    0  503 -0.22381156668E+03  0.84212385553E+03 -0.30486045006E+03  0.92314901259E+03  0.00000000000E+00 0.  1.
<mgrwt>
<rscale>  0 0.34340874E+04</rscale>
<asrwt>0</asrwt>
<pdfrwt beam="1">  1        2 0.35879989E+00 0.34340874E+04</pdfrwt>
<pdfrwt beam="2">  1       -1 0.19448391E+00 0.34340874E+04</pdfrwt>
<totfact> 0.67090620E-01</totfact>
</mgrwt>
</event>
<event>
12    6  0.1457317E-007  0.1295940E+04  0.7818608E-02  0.9032791E-01
         -1   -1    0    0    0  501 -0.00000000000E+00  0.00000000000E+00  0.42168031695E+03  0.42168031695E+03  0.00000000000E+00 0.  1.
          2   -1    0    0  501    0  0.00000000000E+00 -0.00000000000E+00 -0.99569584264E+03  0.99569584264E+03  0.00000000000E+00 0. -1.
         24    2    1    2    0    0  0.21756057349E+03 -0.24010717293E+03 -0.17194998936E+03  0.37543326231E+03  0.79995487234E+02 0.  0.
        254    2    1    2    0    0 -0.21756057349E+03  0.24010717293E+03 -0.40206553632E+03  0.10419428973E+04  0.90498853477E+03 0.  0.
         23    2    4    4    0    0 -0.34509441820E+03  0.47319729949E+02 -0.61529836831E+03  0.71276826118E+03  0.90095492593E+02 0.  0.
         23    2    4    4    0    0  0.12753384471E+03  0.19278744298E+03  0.21323283198E+03  0.32917463611E+03  0.97241044328E+02 0.  0.
          2    1    3    3  502    0  0.13558380299E+03 -0.11534579216E+03 -0.12981625229E+03  0.22031767691E+03  0.00000000000E+00 0. -1.
         -1    1    3    3    0  502  0.81976770499E+02 -0.12476138077E+03 -0.42133737070E+02  0.15511558539E+03  0.00000000000E+00 0.  1.
         11    1    5    5    0    0 -0.79788096705E+01 -0.36234108044E+01 -0.63745606938E+02  0.64345107922E+02  0.00000000000E+00 0. -1.
        -11    1    5    5    0    0 -0.33711560853E+03  0.50943140753E+02 -0.55155276137E+03  0.64842315326E+03  0.00000000000E+00 0.  1.
          2    1    6    6  503    0  0.35662108873E+02  0.14072820651E+03  0.12398736781E+03  0.19091642541E+03  0.00000000000E+00 0.  1.
         -2    1    6    6    0  503  0.91871735839E+02  0.52059236472E+02  0.89245464174E+02  0.13825821069E+03  0.00000000000E+00 0. -1.
<mgrwt>
<rscale>  0 0.12959403E+04</rscale>
<asrwt>0</asrwt>
<pdfrwt beam="1">  1        2 0.15318397E+00 0.12959403E+04</pdfrwt>
<pdfrwt beam="2">  1       -1 0.64873895E-01 0.12959403E+04</pdfrwt>
<totfact> 0.68316221E+01</totfact>
</mgrwt>
</event>
<event>
12    6  0.1457317E-007  0.1545638E+04  0.7818608E-02  0.8854659E-01
          2   -1    0    0  501    0  0.00000000000E+00  0.00000000000E+00  0.13043597598E+04  0.13043597598E+04  0.00000000000E+00 0. -1.
         -1   -1    0    0    0  501 -0.00000000000E+00 -0.00000000000E+00 -0.45788669675E+03  0.45788669675E+03  0.00000000000E+00 0.  1.
         24    2    1    2    0    0 -0.24185694415E+03  0.42626359939E+03  0.41962404536E+03  0.64987296680E+03  0.77814497005E+02 0.  0.
        254    2    1    2    0    0  0.24185694415E+03 -0.42626359939E+03  0.42684901772E+03  0.11123734898E+04  0.90276201695E+03 0.  0.
         23    2    4    4    0    0  0.22434945459E+02  0.23107157961E+03  0.31973955916E+03  0.40530840799E+03  0.90244768381E+02 0.  0.
         23    2    4    4    0    0  0.21942199869E+03 -0.65733517899E+03  0.10710945856E+03  0.70706508179E+03  0.90736115869E+02 0.  0.
          4    1    3    3  502    0 -0.21027985779E+03  0.40792284908E+03  0.39772967404E+03  0.60729528485E+03  0.00000000000E+00 0. -1.
         -3    1    3    3    0  502 -0.31577086360E+02  0.18340750305E+02  0.21894371320E+02  0.42577681950E+02  0.00000000000E+00 0.  1.
         11    1    5    5    0    0  0.47881848928E+02  0.17544869321E+03  0.27428691620E+03  0.32910215405E+03  0.00000000000E+00 0.  1.
        -11    1    5    5    0    0 -0.25446903469E+02  0.55622886400E+02  0.45452642957E+02  0.76206253938E+02  0.00000000000E+00 0. -1.
          2    1    6    6  503    0  0.22952048942E+02 -0.38447705050E+02 -0.13213912722E+02  0.46686508369E+02  0.00000000000E+00 0. -1.
         -2    1    6    6    0  503  0.19646994975E+03 -0.61888747394E+03  0.12032337128E+03  0.66037857342E+03  0.00000000000E+00 0.  1.
<mgrwt>
<rscale>  0 0.15456377E+04</rscale>
<asrwt>0</asrwt>
<pdfrwt beam="1">  1        2 0.20067073E+00 0.15456377E+04</pdfrwt>
<pdfrwt beam="2">  1       -1 0.70444108E-01 0.15456377E+04</pdfrwt>
<totfact> 0.36740138E+01</totfact>
</mgrwt>
</event>
<event>
12    6  0.1457317E-007  0.1500710E+04  0.7818608E-02  0.8883981E-01
         -1   -1    0    0    0  501 -0.00000000000E+00  0.00000000000E+00  0.34329739267E+03  0.34329739267E+03  0.00000000000E+00 0.  1.
          2   -1    0    0  501    0  0.00000000000E+00 -0.00000000000E+00 -0.16400715275E+04  0.16400715275E+04  0.00000000000E+00 0. -1.
         24    2    1    2    0    0  0.31770939743E+03 -0.26523819831E+02 -0.97865377003E+03  0.10319632522E+04  0.74445805668E+02 0.  0.
        254    2    1    2    0    0 -0.31770939743E+03  0.26523819831E+02 -0.31812036483E+03  0.95140566803E+03  0.83805095573E+03 0.  0.
         23    2    4    4    0    0  0.27184785780E+03 -0.61361019977E+02 -0.10336007466E+03  0.31104065472E+03  0.91632697699E+02 0.  0.
         23    2    4    4    0    0 -0.58955725524E+03  0.87884839808E+02 -0.21476029018E+03  0.64036501332E+03  0.92972392538E+02 0.  0.
          4    1    3    3  502    0  0.23263799326E+03 -0.33015489361E+02 -0.80322373687E+03  0.83688639009E+03  0.00000000000E+00 0. -1.
         -3    1    3    3    0  502  0.85071404171E+02  0.64916695302E+01 -0.17543003316E+03  0.19507686207E+03  0.00000000000E+00 0.  1.
         11    1    5    5    0    0  0.51088466802E+02  0.22375139726E+02 -0.77474612938E+01  0.56308982183E+02  0.00000000000E+00 0.  1.
        -11    1    5    5    0    0  0.22075939100E+03 -0.83736159703E+02 -0.95612613364E+02  0.25473167253E+03  0.00000000000E+00 0. -1.
          2    1    6    6  503    0 -0.48829870785E+03  0.74543885658E+02 -0.21376482768E+03  0.53822655131E+03  0.00000000000E+00 0. -1.
         -2    1    6    6    0  503 -0.10125854739E+03  0.13340954149E+02 -0.99546249484E+00  0.10213846201E+03  0.00000000000E+00 0.  1.
<mgrwt>
<rscale>  0 0.15007095E+04</rscale>
<asrwt>0</asrwt>
<pdfrwt beam="1">  1        2 0.25231870E+00 0.15007095E+04</pdfrwt>
<pdfrwt beam="2">  1       -1 0.52814983E-01 0.15007095E+04</pdfrwt>
<totfact> 0.42126782E+01</totfact>
</mgrwt>
</event>
<event>
12    6  0.1457317E-007  0.1530131E+04  0.7818608E-02  0.8864660E-01
          2   -1    0    0  501    0  0.00000000000E+00  0.00000000000E+00  0.99818850650E+03  0.99818850650E+03  0.00000000000E+00 0. -1.
         -1   -1    0    0    0  501 -0.00000000000E+00 -0.00000000000E+00 -0.58638726265E+03  0.58638726265E+03  0.00000000000E+00 0.  1.
         24    2    1    2    0    0 -0.40785269043E+02  0.49322901900E+03  0.10153863816E+03  0.51178978367E+03  0.81733617751E+02 0.  0.
        254    2    1    2    0    0  0.40785269043E+02 -0.49322901900E+03  0.31026260568E+03  0.10727859855E+04  0.89981586050E+03 0.  0.
         23    2    4    4    0    0 -0.10805790471E+03  0.10491924952E+03  0.40540005074E+03  0.44277622363E+03  0.94958008513E+02 0.  0.
         23    2    4    4    0    0  0.14884317376E+03 -0.59814826852E+03 -0.95137445062E+02  0.63000976185E+03  0.89025418134E+02 0.  0.
          4    1    3    3  502    0 -0.61021938674E+01  0.35598161963E+02  0.30719397523E+02  0.47414631595E+02  0.00000000000E+00 0. -1.
         -3    1    3    3    0  502 -0.34683075175E+02  0.45763085704E+03  0.70819240637E+02  0.46437515207E+03  0.00000000000E+00 0.  1.
         11    1    5    5    0    0 -0.83557096742E+02  0.40174358978E+02  0.13580084035E+03  0.16443124938E+03  0.00000000000E+00 0.  1.
        -11    1    5    5    0    0 -0.24500807971E+02  0.64744890538E+02  0.26959921040E+03  0.27834497425E+03  0.00000000000E+00 0. -1.
          1    1    6    6  503    0 -0.44662612733E+01 -0.30029800414E+02 -0.21004464775E+02  0.36917799815E+02  0.00000000000E+00 0. -1.
         -1    1    6    6    0  503  0.15330943503E+03 -0.56811846810E+03 -0.74132980287E+02  0.59309196204E+03  0.00000000000E+00 0.  1.
<mgrwt>
<rscale>  0 0.15301307E+04</rscale>
<asrwt>0</asrwt>
<pdfrwt beam="1">  1        2 0.15356746E+00 0.15301307E+04</pdfrwt>
<pdfrwt beam="2">  1       -1 0.90213425E-01 0.15301307E+04</pdfrwt>
<totfact> 0.33387677E+01</totfact>
</mgrwt>
</event>
<event>
12    6  0.1457317E-007  0.1281698E+04  0.7818608E-02  0.9044206E-01
         -1   -1    0    0    0  501 -0.00000000000E+00  0.00000000000E+00  0.23020883457E+03  0.23020883457E+03  0.00000000000E+00 0.  1.
          2   -1    0    0  501    0  0.00000000000E+00 -0.00000000000E+00 -0.17839764661E+04  0.17839764661E+04  0.00000000000E+00 0. -1.
         24    2    1    2    0    0 -0.25861986605E+03 -0.52081793780E+02 -0.68915183782E+03  0.74211950098E+03  0.78831147405E+02 0.  0.
        254    2    1    2    0    0  0.25861986605E+03  0.52081793780E+02 -0.86461579369E+03  0.12720657997E+04  0.89498278175E+03 0.  0.
         23    2    4    4    0    0  0.27320657554E+02 -0.16548635803E+03  0.12538877039E+03  0.22839921902E+03  0.91168560830E+02 0.  0.
         23    2    4    4    0    0  0.23129920850E+03  0.21756815181E+03 -0.99000456408E+03  0.10436665806E+04  0.91080569406E+02 0.  0.
          2    1    3    3  502    0 -0.22096268653E+03 -0.72129195836E+02 -0.59308479854E+03  0.63700605020E+03  0.00000000000E+00 0. -1.
         -1    1    3    3    0  502 -0.37657179524E+02  0.20047402056E+02 -0.96067039281E+02  0.10511345078E+03  0.00000000000E+00 0.  1.
         11    1    5    5    0    0  0.54477224883E+02 -0.78152339477E+02  0.40160080096E+02  0.10338466148E+03  0.00000000000E+00 0. -1.
        -11    1    5    5    0    0 -0.27156567329E+02 -0.87334018553E+02  0.85228690297E+02  0.12501455753E+03  0.00000000000E+00 0.  1.
          4    1    6    6  503    0  0.22954498908E+03  0.22433991198E+03 -0.98153835886E+03  0.10326842925E+04  0.00000000000E+00 0.  1.
         -4    1    6    6    0  503  0.17542194206E+01 -0.67717601656E+01 -0.84662052189E+01  0.10982288119E+02  0.00000000000E+00 0. -1.
<mgrwt>
<rscale>  0 0.12816975E+04</rscale>
<asrwt>0</asrwt>
<pdfrwt beam="1">  1        2 0.27445792E+00 0.12816975E+04</pdfrwt>
<pdfrwt beam="2">  1       -1 0.35416743E-01 0.12816975E+04</pdfrwt>
<totfact> 0.74809606E+01</totfact>
</mgrwt>
</event>
<event>
12    6  0.1457317E-007  0.1451864E+04  0.7818608E-02  0.8917109E-01
          2   -1    0    0  501    0  0.00000000000E+00  0.00000000000E+00  0.28461064836E+04  0.28461064836E+04  0.00000000000E+00 0. -1.
         -1   -1    0    0    0  501 -0.00000000000E+00 -0.00000000000E+00 -0.18515730301E+03  0.18515730301E+03  0.00000000000E+00 0.  1.
         24    2    1    2    0    0  0.42681607798E+03 -0.96774371914E+02  0.97038071184E+03  0.10674031022E+04  0.78571071102E+02 0.  0.
        254    2    1    2    0    0 -0.42681607798E+03  0.96774371914E+02  0.16905684687E+04  0.19638606844E+04  0.89843741945E+03 0.  0.
         23    2    4    4    0    0 -0.36453991311E+02 -0.14061433424E+03 -0.36192379632E+02  0.17548025655E+03  0.91554069381E+02 0.  0.
         23    2    4    4    0    0 -0.39036208667E+03  0.23738870616E+03  0.17267608484E+04  0.17883804278E+04  0.88688052462E+02 0.  0.
          4    1    3    3  502    0  0.12854202926E+03 -0.64491516553E+01  0.35491602898E+03  0.37753149865E+03  0.00000000000E+00 0. -1.
         -3    1    3    3    0  502  0.29827404872E+03 -0.90325220259E+02  0.61546468286E+03  0.68987160356E+03  0.00000000000E+00 0.  1.
         11    1    5    5    0    0 -0.66580167268E+01  0.11026996682E+02  0.74691845575E+01  0.14890015464E+02  0.00000000000E+00 0. -1.
        -11    1    5    5    0    0 -0.29795974584E+02 -0.15164133092E+03 -0.43661564189E+02  0.16059024109E+03  0.00000000000E+00 0.  1.
          4    1    6    6  503    0 -0.19454907381E+03  0.68021516076E+02  0.72826298350E+03  0.75686408417E+03  0.00000000000E+00 0. -1.
         -4    1    6    6    0  503 -0.19581301286E+03  0.16936719008E+03  0.99849786485E+03  0.10315163436E+04  0.00000000000E+00 0.  1.
<mgrwt>
<rscale>  0 0.14518642E+04</rscale>
<asrwt>0</asrwt>
<pdfrwt beam="1">  1        2 0.43786250E+00 0.14518642E+04</pdfrwt>
<pdfrwt beam="2">  1       -1 0.28485741E-01 0.14518642E+04</pdfrwt>
<totfact> 0.26918704E+01</totfact>
</mgrwt>
</event>
<event>
12    6  0.1457317E-007  0.2548931E+04  0.7818608E-02  0.8385758E-01
         -1   -1    0    0    0  501 -0.00000000000E+00  0.00000000000E+00  0.58548766968E+03  0.58548766968E+03  0.00000000000E+00 0.  1.
          2   -1    0    0  501    0  0.00000000000E+00 -0.00000000000E+00 -0.27742048174E+04  0.27742048174E+04  0.00000000000E+00 0. -1.
         24    2    1    2    0    0 -0.20600553867E+03  0.10898474023E+04 -0.97369756117E+03  0.14779869081E+04  0.78439259436E+02 0.  0.
        254    2    1    2    0    0  0.20600553867E+03 -0.10898474023E+04 -0.12150195865E+04  0.18817055790E+04  0.91342084934E+03 0.  0.
         23    2    4    4    0    0  0.21346567091E+02 -0.52550238306E+02 -0.69523381417E+03  0.70335923166E+03  0.90260450432E+02 0.  0.
         23    2    4    4    0    0  0.18465897158E+03 -0.10372971640E+04 -0.51978577234E+03  0.11783463473E+04  0.90766308872E+02 0.  0.
          2    1    3    3  502    0 -0.55688046102E+01  0.16152439376E+03 -0.15881811012E+03  0.22659288045E+03  0.00000000000E+00 0. -1.
         -1    1    3    3    0  502 -0.20043673406E+03  0.92832300858E+03 -0.81487945105E+03  0.12513940276E+04  0.00000000000E+00 0.  1.
         11    1    5    5    0    0 -0.10847320695E+01 -0.71167304667E+02 -0.58584925122E+03  0.59015701899E+03  0.00000000000E+00 0.  1.
        -11    1    5    5    0    0  0.22431299160E+02  0.18617066361E+02 -0.10938456295E+03  0.11320221267E+03  0.00000000000E+00 0. -1.
          3    1    6    6  503    0  0.18179718871E+02 -0.32155725333E+03 -0.17663666626E+03  0.36732830168E+03  0.00000000000E+00 0. -1.
         -3    1    6    6    0  503  0.16647925271E+03 -0.71573991071E+03 -0.34314910608E+03  0.81101804565E+03  0.00000000000E+00 0.  1.
<mgrwt>
<rscale>  0 0.25489313E+04</rscale>
<asrwt>0</asrwt>
<pdfrwt beam="1">  1        2 0.42680075E+00 0.25489313E+04</pdfrwt>
<pdfrwt beam="2">  1       -1 0.90075025E-01 0.25489313E+04</pdfrwt>
<totfact> 0.29188973E+00</totfact>
</mgrwt>
</event>
<event>
12    6  0.1457317E-007  0.3314588E+04  0.7818608E-02  0.8159193E-01
          2   -1    0    0  501    0  0.00000000000E+00  0.00000000000E+00  0.15276146651E+04  0.15276146651E+04  0.00000000000E+00 0. -1.
         -1   -1    0    0    0  501 -0.00000000000E+00 -0.00000000000E+00 -0.17979818083E+04  0.17979818083E+04  0.00000000000E+00 0.  1.
         24    2    1    2    0    0  0.38879739516E+03 -0.58262962631E+03 -0.14960042697E+04  0.16537957123E+04  0.79942397956E+02 0.  0.
        254    2    1    2    0    0 -0.38879739516E+03  0.58262962631E+03  0.12256371265E+04  0.16718007611E+04  0.89560634378E+03 0.  0.
         23    2    4    4    0    0 -0.72802052870E+02  0.75452078787E+03  0.87577336093E+03  0.11618851389E+04  0.91631533941E+02 0.  0.
         23    2    4    4    0    0 -0.31599534229E+03 -0.17189116156E+03  0.34986376555E+03  0.50991562221E+03  0.90607171643E+02 0.  0.
          2    1    3    3  502    0  0.13132216656E+03 -0.13749137036E+03 -0.43525440261E+03  0.47496924463E+03  0.00000000000E+00 0. -1.
         -1    1    3    3    0  502  0.25747522860E+03 -0.44513825594E+03 -0.10607498671E+04  0.11788264676E+04  0.00000000000E+00 0.  1.
         11    1    5    5    0    0  0.62751272260E+01  0.40944032334E+03  0.47480157926E+03  0.62699066602E+03  0.00000000000E+00 0. -1.
        -11    1    5    5    0    0 -0.79077180096E+02  0.34508046452E+03  0.40097178166E+03  0.53489447286E+03  0.00000000000E+00 0.  1.
          4    1    6    6  503    0 -0.27627786523E+03 -0.18073532428E+03  0.31549814882E+03  0.45665501001E+03  0.00000000000E+00 0. -1.
         -4    1    6    6    0  503 -0.39717477060E+02  0.88441627198E+01  0.34365616732E+02  0.53260612197E+02  0.00000000000E+00 0.  1.
<mgrwt>
<rscale>  0 0.33145880E+04</rscale>
<asrwt>0</asrwt>
<pdfrwt beam="1">  1        2 0.23501764E+00 0.33145880E+04</pdfrwt>
<pdfrwt beam="2">  1       -1 0.27661258E+00 0.33145880E+04</pdfrwt>
<totfact> 0.54443469E-01</totfact>
</mgrwt>
</event>
<event>
12    6  0.1457317E-007  0.1970388E+04  0.7818608E-02  0.8620592E-01
          2   -1    0    0  501    0  0.00000000000E+00  0.00000000000E+00  0.29458464882E+04  0.29458464882E+04  0.00000000000E+00 0. -1.
         -1   -1    0    0    0  501 -0.00000000000E+00 -0.00000000000E+00 -0.32948341618E+03  0.32948341618E+03  0.00000000000E+00 0.  1.
         24    2    1    2    0    0  0.66099140151E+03 -0.39347713753E+03  0.86357520591E+03  0.11592925157E+04  0.80393470471E+02 0.  0.
        254    2    1    2    0    0 -0.66099140151E+03  0.39347713753E+03  0.17527878661E+04  0.21160373887E+04  0.90200611751E+03 0.  0.
         23    2    4    4    0    0 -0.19043768665E+03  0.61318236915E+03  0.83409765670E+03  0.10565535446E+04  0.91254377354E+02 0.  0.
         23    2    4    4    0    0 -0.47055371487E+03 -0.21970523163E+03  0.91869020940E+03  0.10594838440E+04  0.93931504672E+02 0.  0.
          2    1    3    3  502    0  0.28185250129E+03 -0.16549127945E+03  0.30812018127E+03  0.44918397362E+03  0.00000000000E+00 0. -1.
         -1    1    3    3    0  502  0.37913890023E+03 -0.22798585807E+03  0.55545502465E+03  0.71010854209E+03  0.00000000000E+00 0.  1.
         11    1    5    5    0    0 -0.17999268838E+03  0.53911654258E+03  0.77578670580E+03  0.96171150936E+03  0.00000000000E+00 0.  1.
        -11    1    5    5    0    0 -0.10444998266E+02  0.74065826573E+02  0.58310950902E+02  0.94842035247E+02  0.00000000000E+00 0. -1.
          1    1    6    6  503    0 -0.18972372942E+02  0.65598386371E+00  0.10858866177E+02  0.21869984558E+02  0.00000000000E+00 0. -1.
         -1    1    6    6    0  503 -0.45158134193E+03 -0.22036121549E+03  0.90783134322E+03  0.10376138595E+04  0.00000000000E+00 0.  1.
<mgrwt>
<rscale>  0 0.19703884E+04</rscale>
<asrwt>0</asrwt>
<pdfrwt beam="1">  1        2 0.45320713E+00 0.19703884E+04</pdfrwt>
<pdfrwt beam="2">  1       -1 0.50689758E-01 0.19703884E+04</pdfrwt>
<totfact> 0.78193727E+00</totfact>
</mgrwt>
</event>
<event>
12    6  0.1457317E-007  0.1927479E+04  0.7818608E-02  0.8641298E-01
         -1   -1    0    0    0  501 -0.00000000000E+00  0.00000000000E+00  0.24365835754E+03  0.24365835754E+03  0.00000000000E+00 0.  1.
          2   -1    0    0  501    0  0.00000000000E+00 -0.00000000000E+00 -0.38118691093E+04  0.38118691093E+04  0.00000000000E+00 0. -1.
         24    2    1    2    0    0 -0.12875387468E+03  0.73083803242E+03 -0.11670228287E+04  0.13852793834E+04  0.79717610981E+02 0.  0.
        254    2    1    2    0    0  0.12875387468E+03 -0.73083803242E+03 -0.24011879230E+04  0.26702480834E+04  0.90211950172E+03 0.  0.
         23    2    4    4    0    0 -0.76234132298E+02 -0.20094014956E+01 -0.14317418340E+04  0.14367659845E+04  0.92715339750E+02 0.  0.
         23    2    4    4    0    0  0.20498800698E+03 -0.72882863093E+03 -0.96944608903E+03  0.12334820990E+04  0.91875528081E+02 0.  0.
          4    1    3    3  502    0 -0.20915066811E+02  0.30974264694E+03 -0.52573524992E+03  0.61055343776E+03  0.00000000000E+00 0. -1.
         -3    1    3    3    0  502 -0.10783880787E+03  0.42109538549E+03 -0.64128757879E+03  0.77472594566E+03  0.00000000000E+00 0.  1.
         11    1    5    5    0    0 -0.25344221987E+02 -0.22115279551E+02 -0.14456270496E+03  0.14842436068E+03  0.00000000000E+00 0. -1.
        -11    1    5    5    0    0 -0.50889910312E+02  0.20105878055E+02 -0.12871791290E+04  0.12883416238E+04  0.00000000000E+00 0.  1.
          1    1    6    6  503    0  0.10302524960E+03 -0.22455983405E+03 -0.28369778741E+03  0.37619909052E+03  0.00000000000E+00 0. -1.
         -1    1    6    6    0  503  0.10196275738E+03 -0.50426879687E+03 -0.68574830162E+03  0.85728300844E+03  0.00000000000E+00 0.  1.
<mgrwt>
<rscale>  0 0.19274789E+04</rscale>
<asrwt>0</asrwt>
<pdfrwt beam="1">  1        2 0.58644137E+00 0.19274789E+04</pdfrwt>
<pdfrwt beam="2">  1       -1 0.37485903E-01 0.19274789E+04</pdfrwt>
<totfact> 0.35419730E+00</totfact>
</mgrwt>
</event>
<event>
12    6  0.1457317E-007  0.1701283E+04  0.7818608E-02  0.8760633E-01
         -1   -1    0    0    0  501 -0.00000000000E+00  0.00000000000E+00  0.12446251922E+04  0.12446251922E+04  0.00000000000E+00 0.  1.
          2   -1    0    0  501    0  0.00000000000E+00 -0.00000000000E+00 -0.58137276374E+03  0.58137276374E+03  0.00000000000E+00 0. -1.
         24    2    1    2    0    0 -0.99527481933E+02 -0.10120645270E+03  0.88012064001E+03  0.89515346556E+03  0.80863590142E+02 0.  0.
        254    2    1    2    0    0  0.99527481933E+02  0.10120645270E+03 -0.21686821155E+03  0.93084449037E+03  0.89403085984E+03 0.  0.
         23    2    4    4    0    0  0.37853611958E+03 -0.27253294544E+02 -0.40199400652E+03  0.56025468057E+03  0.90850371113E+02 0.  0.
         23    2    4    4    0    0 -0.27900863765E+03  0.12845974724E+03  0.18512579497E+03  0.37058980980E+03  0.93367663671E+02 0.  0.
          2    1    3    3  502    0 -0.19675484807E+02 -0.12626823617E+02  0.37895698894E+02  0.44526906155E+02  0.00000000000E+00 0. -1.
         -1    1    3    3    0  502 -0.79851997126E+02 -0.88579629083E+02  0.84222494112E+03  0.85062655941E+03  0.00000000000E+00 0.  1.
         11    1    5    5    0    0  0.37377882040E+03 -0.24901856588E+02 -0.36549219879E+03  0.52336913972E+03  0.00000000000E+00 0. -1.
        -11    1    5    5    0    0  0.47572991862E+01 -0.23514379552E+01 -0.36501807732E+02  0.36885540848E+02  0.00000000000E+00 0.  1.
          2    1    6    6  503    0 -0.63325019351E+02  0.36105022469E+01  0.74735224733E+02  0.98022689303E+02  0.00000000000E+00 0. -1.
         -2    1    6    6    0  503 -0.21568361830E+03  0.12484924500E+03  0.11039057023E+03  0.27256712050E+03  0.00000000000E+00 0.  1.
<mgrwt>
<rscale>  0 0.17012833E+04</rscale>
<asrwt>0</asrwt>
<pdfrwt beam="1">  1        2 0.89441964E-01 0.17012833E+04</pdfrwt>
<pdfrwt beam="2">  1       -1 0.19148080E+00 0.17012833E+04</pdfrwt>
<totfact> 0.96606516E+00</totfact>
</mgrwt>
</event>
<event>
12    6  0.1457317E-007  0.2363636E+04  0.7818608E-02  0.8453244E-01
          2   -1    0    0  501    0  0.00000000000E+00  0.00000000000E+00  0.17116802502E+04  0.17116802502E+04  0.00000000000E+00 0. -1.
         -1   -1    0    0    0  501 -0.00000000000E+00 -0.00000000000E+00 -0.81597850556E+03  0.81597850556E+03  0.00000000000E+00 0.  1.
         24    2    1    2    0    0 -0.58740676672E+03 -0.29797260937E+02  0.12569558901E+04  0.13903037044E+04  0.84093368352E+02 0.  0.
        254    2    1    2    0    0  0.58740676672E+03  0.29797260937E+02 -0.36125414546E+03  0.11373550513E+04  0.90395650824E+03 0.  0.
         23    2    4    4    0    0  0.80553417193E+03 -0.15573650777E+02 -0.16829686107E+03  0.82823914454E+03  0.92349371165E+02 0.  0.
         23    2    4    4    0    0 -0.21812740522E+03  0.45370911714E+02 -0.19295728439E+03  0.30911590677E+03  0.93177495593E+02 0.  0.
          4    1    3    3  502    0 -0.31276777930E+03  0.25511155574E+02  0.64679223822E+03  0.71889825584E+03  0.00000000000E+00 0. -1.
         -3    1    3    3    0  502 -0.27463898742E+03 -0.55308416511E+02  0.61016365188E+03  0.67140544861E+03  0.00000000000E+00 0.  1.
         11    1    5    5    0    0  0.47092116327E+03 -0.29568964767E+01 -0.52114481039E+02  0.47380523888E+03  0.00000000000E+00 0.  1.
        -11    1    5    5    0    0  0.33461300866E+03 -0.12616754300E+02 -0.11618238003E+03  0.35443390566E+03  0.00000000000E+00 0. -1.
          1    1    6    6  503    0 -0.65692854457E+02  0.29551564986E+02 -0.13782584879E+02  0.73340342008E+02  0.00000000000E+00 0. -1.
         -1    1    6    6    0  503 -0.15243455076E+03  0.15819346729E+02 -0.17917469951E+03  0.23577556476E+03  0.00000000000E+00 0.  1.
<mgrwt>
<rscale>  0 0.23636364E+04</rscale>
<asrwt>0</asrwt>
<pdfrwt beam="1">  1        2 0.26333542E+00 0.23636364E+04</pdfrwt>
<pdfrwt beam="2">  1       -1 0.12553515E+00 0.23636364E+04</pdfrwt>
<totfact> 0.54933555E+00</totfact>
</mgrwt>
</event>
<event>
12    6  0.1457317E-007  0.1844543E+04  0.7818608E-02  0.8682964E-01
          2   -1    0    0  501    0  0.00000000000E+00  0.00000000000E+00  0.21314236017E+04  0.21314236017E+04  0.00000000000E+00 0. -1.
         -3   -1    0    0    0  501 -0.00000000000E+00 -0.00000000000E+00 -0.39906863002E+03  0.39906863002E+03  0.00000000000E+00 0.  1.
         24    2    1    2    0    0 -0.75685806945E+02 -0.49781292929E+03  0.13209846277E+04  0.14159546786E+04  0.79882483344E+02 0.  0.
        254    2    1    2    0    0  0.75685806945E+02  0.49781292929E+03  0.41137034392E+03  0.11145375531E+04  0.90521950018E+03 0.  0.
         23    2    4    4    0    0 -0.29952899916E+03 -0.92388947070E+02  0.17849166160E+03  0.37206520108E+03  0.91213495266E+02 0.  0.
         23    2    4    4    0    0  0.37521480610E+03  0.59020187636E+03  0.23287868232E+03  0.74247235203E+03  0.88928663983E+02 0.  0.
          4    1    3    3  502    0 -0.63343808164E+02 -0.40791862528E+03  0.98668059263E+03  0.10695553444E+04  0.00000000000E+00 0. -1.
         -3    1    3    3    0  502 -0.12341998781E+02 -0.89894304007E+02  0.33430403510E+03  0.34639933417E+03  0.00000000000E+00 0.  1.
         11    1    5    5    0    0 -0.12557541764E+03 -0.63928004322E+02  0.36078159690E+02  0.14545655316E+03  0.00000000000E+00 0.  1.
        -11    1    5    5    0    0 -0.17395358152E+03 -0.28460942748E+02  0.14241350191E+03  0.22660864792E+03  0.00000000000E+00 0. -1.
          4    1    6    6  503    0  0.18965516402E+03  0.27939730248E+03  0.66895176343E+02  0.34424830935E+03  0.00000000000E+00 0. -1.
         -4    1    6    6    0  503  0.18555964208E+03  0.31080457388E+03  0.16598350598E+03  0.39822404268E+03  0.00000000000E+00 0.  1.
<mgrwt>
<rscale>  0 0.18445425E+04</rscale>
<asrwt>0</asrwt>
<pdfrwt beam="1">  1        2 0.32791132E+00 0.18445425E+04</pdfrwt>
<pdfrwt beam="2">  1       -3 0.61395175E-01 0.18445425E+04</pdfrwt>
<totfact> 0.88081503E+00</totfact>
</mgrwt>
</event>
<event>
12    6  0.1457317E-007  0.1459196E+04  0.7818608E-02  0.8912050E-01
         -1   -1    0    0    0  501 -0.00000000000E+00  0.00000000000E+00  0.21172850945E+03  0.21172850945E+03  0.00000000000E+00 0.  1.
          2   -1    0    0  501    0  0.00000000000E+00 -0.00000000000E+00 -0.25141299147E+04  0.25141299147E+04  0.00000000000E+00 0. -1.
         24    2    1    2    0    0  0.60448718505E+02  0.26968957965E+03 -0.13002824104E+04  0.13319386279E+04  0.83304530971E+02 0.  0.
        254    2    1    2    0    0 -0.60448718505E+02 -0.26968957965E+03 -0.10021189949E+04  0.13939197962E+04  0.92864600439E+03 0.  0.
         23    2    4    4    0    0 -0.24067450490E+02 -0.22802810714E+02 -0.11055968392E+04  0.11096979567E+04  0.89364276819E+02 0.  0.
         23    2    4    4    0    0 -0.36381268015E+02 -0.24688676894E+03  0.10347784428E+03  0.28422183954E+03  0.88304679799E+02 0.  0.
          4    1    3    3  502    0  0.39331632012E+02  0.65380193170E+02 -0.49646144602E+03  0.50229026898E+03  0.00000000000E+00 0. -1.
         -3    1    3    3    0  502  0.21117086493E+02  0.20430938648E+03 -0.80382096433E+03  0.82964835891E+03  0.00000000000E+00 0.  1.
         11    1    5    5    0    0 -0.48103537273E+02 -0.40184281088E+02 -0.60929688538E+03  0.61251238459E+03  0.00000000000E+00 0. -1.
        -11    1    5    5    0    0  0.24036086783E+02  0.17381470375E+02 -0.49629995379E+03  0.49718557210E+03  0.00000000000E+00 0.  1.
          4    1    6    6  503    0 -0.19360798033E+02 -0.78790569793E+02 -0.84220615524E+01  0.81570371518E+02  0.00000000000E+00 0.  1.
         -4    1    6    6    0  503 -0.17020469982E+02 -0.16809619914E+03  0.11189990583E+03  0.20265146802E+03  0.00000000000E+00 0. -1.
<mgrwt>
<rscale>  0 0.14591956E+04</rscale>
<asrwt>0</asrwt>
<pdfrwt beam="1">  1        2 0.38678921E+00 0.14591956E+04</pdfrwt>
<pdfrwt beam="2">  1       -1 0.32573617E-01 0.14591956E+04</pdfrwt>
<totfact> 0.33370453E+01</totfact>
</mgrwt>
</event>
<event>
12    6  0.1457317E-007  0.2344378E+04  0.7818608E-02  0.8460626E-01
          2   -1    0    0  501    0  0.00000000000E+00  0.00000000000E+00  0.37406964313E+04  0.37406964313E+04  0.00000000000E+00 0. -1.
         -1   -1    0    0    0  501 -0.00000000000E+00 -0.00000000000E+00 -0.36731860215E+03  0.36731860215E+03  0.00000000000E+00 0.  1.
         24    2    1    2    0    0 -0.48137231469E+03  0.11164350654E+03 -0.79635966276E+02  0.50701603792E+03  0.80869015598E+02 0.  0.
        254    2    1    2    0    0  0.48137231469E+03 -0.11164350654E+03  0.34530137954E+04  0.36009989955E+04  0.89426277818E+03 0.  0.
         23    2    4    4    0    0  0.55150214722E+03 -0.19146044244E+03  0.34009715884E+04  0.34518989747E+04  0.90482411326E+02 0.  0.
         23    2    4    4    0    0 -0.70129832533E+02  0.79816935901E+02  0.52042206959E+02  0.14910002079E+03  0.90738570783E+02 0.  0.
          4    1    3    3  502    0 -0.35882216650E+03  0.10248578257E+03 -0.29649640435E+02  0.37434714367E+03  0.00000000000E+00 0. -1.
         -3    1    3    3    0  502 -0.12255014819E+03  0.91577239736E+01 -0.49986325841E+02  0.13266889425E+03  0.00000000000E+00 0.  1.
         11    1    5    5    0    0  0.49254208583E+03 -0.14002329963E+03  0.29020782076E+04  0.29469072184E+04  0.00000000000E+00 0.  1.
        -11    1    5    5    0    0  0.58960061390E+02 -0.51437142811E+02  0.49889338083E+03  0.50499175630E+03  0.00000000000E+00 0. -1.
          4    1    6    6  503    0  0.16411735426E+02  0.42070920524E+02  0.13637605848E+02  0.47172997644E+02  0.00000000000E+00 0. -1.
         -4    1    6    6    0  503 -0.86541567959E+02  0.37746015377E+02  0.38404601111E+02  0.10192702315E+03  0.00000000000E+00 0.  1.
<mgrwt>
<rscale>  0 0.23443783E+04</rscale>
<asrwt>0</asrwt>
<pdfrwt beam="1">  1        2 0.57549173E+00 0.23443783E+04</pdfrwt>
<pdfrwt beam="2">  1       -1 0.56510557E-01 0.23443783E+04</pdfrwt>
<totfact> 0.17794169E+00</totfact>
</mgrwt>
</event>
<event>
12    6  0.1457317E-007  0.1292769E+04  0.7818608E-02  0.9035319E-01
          2   -1    0    0  501    0  0.00000000000E+00  0.00000000000E+00  0.10885314842E+04  0.10885314842E+04  0.00000000000E+00 0. -1.
         -1   -1    0    0    0  501 -0.00000000000E+00 -0.00000000000E+00 -0.38383187944E+03  0.38383187944E+03  0.00000000000E+00 0.  1.
         24    2    1    2    0    0  0.21202705746E+02 -0.29564394558E+03 -0.22080206638E+01  0.30694208064E+03  0.79709900414E+02 0.  0.
        254    2    1    2    0    0 -0.21202705746E+02  0.29564394558E+03  0.70690762542E+03  0.11654212830E+04  0.87785732250E+03 0.  0.
         23    2    4    4    0    0 -0.36714112691E+03  0.24628526750E+03  0.10558479528E+03  0.46346157904E+03  0.90550793444E+02 0.  0.
         23    2    4    4    0    0  0.34593842116E+03  0.49358678081E+02  0.60132283014E+03  0.70195970395E+03  0.95124179829E+02 0.  0.
          2    1    3    3  502    0  0.27793954358E+02 -0.33880106627E+02 -0.10121714868E+02  0.44975711621E+02  0.00000000000E+00 0. -1.
         -1    1    3    3    0  502 -0.65912486123E+01 -0.26176383896E+03  0.79136942044E+01  0.26196636902E+03  0.00000000000E+00 0.  1.
         11    1    5    5    0    0  0.50802056997E+01  0.47872946016E+01  0.47628524329E+01  0.84505291462E+01  0.00000000000E+00 0. -1.
        -11    1    5    5    0    0 -0.37222133261E+03  0.24149797290E+03  0.10082194285E+03  0.45501104989E+03  0.00000000000E+00 0.  1.
          3    1    6    6  503    0  0.24184982090E+03 -0.59353622649E+01  0.36530663249E+03  0.43815008860E+03  0.00000000000E+00 0. -1.
         -3    1    6    6    0  503  0.10408860026E+03  0.55294040346E+02  0.23601619765E+03  0.26380961535E+03  0.00000000000E+00 0.  1.
<mgrwt>
<rscale>  0 0.12927693E+04</rscale>
<asrwt>0</asrwt>
<pdfrwt beam="1">  1        2 0.16746638E+00 0.12927693E+04</pdfrwt>
<pdfrwt beam="2">  1       -1 0.59051059E-01 0.12927693E+04</pdfrwt>
<totfact> 0.71992893E+01</totfact>
</mgrwt>
</event>
<event>
12    6  0.1457317E-007  0.1453834E+04  0.7818608E-02  0.8915747E-01
          2   -1    0    0  501    0  0.00000000000E+00  0.00000000000E+00  0.22530797552E+04  0.22530797552E+04  0.00000000000E+00 0. -1.
         -1   -1    0    0    0  501 -0.00000000000E+00 -0.00000000000E+00 -0.23452710319E+03  0.23452710319E+03  0.00000000000E+00 0.  1.
         24    2    1    2    0    0  0.39112282921E+03  0.21096583997E+03  0.52750088376E+03  0.69430181938E+03  0.79461820184E+02 0.  0.
        254    2    1    2    0    0 -0.39112282921E+03 -0.21096583997E+03  0.14910517682E+04  0.17933050390E+04  0.89175329222E+03 0.  0.
         23    2    4    4    0    0 -0.76731972837E+02  0.32120756547E+03  0.74269201160E+03  0.81803520826E+03  0.92347615498E+02 0.  0.
         23    2    4    4    0    0 -0.31439085637E+03 -0.53217340544E+03  0.74835975664E+03  0.97526983074E+03  0.95177588590E+02 0.  0.
          2    1    3    3  502    0  0.36894312393E+03  0.19496787169E+03  0.51838945079E+03  0.66547661295E+03  0.00000000000E+00 0. -1.
         -1    1    3    3    0  502  0.22179705276E+02  0.15997968273E+02  0.91114329639E+01  0.28825206429E+02  0.00000000000E+00 0.  1.
         11    1    5    5    0    0 -0.22837497586E+02  0.26501077430E+02  0.34747334614E+02  0.49307561932E+02  0.00000000000E+00 0.  1.
        -11    1    5    5    0    0 -0.53894475251E+02  0.29470648804E+03  0.70794467699E+03  0.76872764633E+03  0.00000000000E+00 0. -1.
          2    1    6    6  503    0 -0.20277904986E+03 -0.38329197914E+03  0.46068961142E+03  0.63266658076E+03  0.00000000000E+00 0. -1.
         -2    1    6    6    0  503 -0.11161180651E+03 -0.14888142630E+03  0.28767014522E+03  0.34260324998E+03  0.00000000000E+00 0.  1.
<mgrwt>
<rscale>  0 0.14538339E+04</rscale>
<asrwt>0</asrwt>
<pdfrwt beam="1">  1        2 0.34662764E+00 0.14538339E+04</pdfrwt>
<pdfrwt beam="2">  1       -1 0.36081094E-01 0.14538339E+04</pdfrwt>
<totfact> 0.39160341E+01</totfact>
</mgrwt>
</event>
<event>
12    6  0.1457317E-007  0.1689615E+04  0.7818608E-02  0.8767309E-01
          2   -1    0    0  501    0  0.00000000000E+00  0.00000000000E+00  0.27726525758E+04  0.27726525758E+04  0.00000000000E+00 0. -1.
         -1   -1    0    0    0  501 -0.00000000000E+00 -0.00000000000E+00 -0.25740695600E+03  0.25740695600E+03  0.00000000000E+00 0.  1.
         24    2    1    2    0    0 -0.36408655496E+03 -0.44341597965E+03  0.12008524093E+04  0.13331804701E+04  0.78402209388E+02 0.  0.
        254    2    1    2    0    0  0.36408655496E+03  0.44341597965E+03  0.13143932106E+04  0.16968790618E+04  0.90696873581E+03 0.  0.
         23    2    4    4    0    0  0.56633216859E+03  0.50496311412E+03  0.12383498392E+04  0.14552330427E+04  0.92048966963E+02 0.  0.
         23    2    4    4    0    0 -0.20224561363E+03 -0.61547134473E+02  0.76043371372E+02  0.24164601913E+03  0.88988011747E+02 0.  0.
          4    1    3    3  502    0 -0.20854851910E+03 -0.21807285800E+03  0.55591236158E+03  0.63252415762E+03  0.00000000000E+00 0. -1.
         -3    1    3    3    0  502 -0.15553803586E+03 -0.22534312165E+03  0.64494004767E+03  0.70065631244E+03  0.00000000000E+00 0.  1.
         11    1    5    5    0    0  0.18704126226E+03  0.12561926365E+03  0.31343125702E+03  0.38601008544E+03  0.00000000000E+00 0.  1.
        -11    1    5    5    0    0  0.37929090633E+03  0.37934385047E+03  0.92491858221E+03  0.10692229572E+04  0.00000000000E+00 0. -1.
          3    1    6    6  503    0 -0.17404647164E+03 -0.70704345735E+02  0.35125033278E+02  0.19111527087E+03  0.00000000000E+00 0. -1.
         -3    1    6    6    0  503 -0.28199141993E+02  0.91572112628E+01  0.40918338094E+02  0.50530748259E+02  0.00000000000E+00 0.  1.
<mgrwt>
<rscale>  0 0.16896154E+04</rscale>
<asrwt>0</asrwt>
<pdfrwt beam="1">  1        2 0.42656191E+00 0.16896154E+04</pdfrwt>
<pdfrwt beam="2">  1       -1 0.39601072E-01 0.16896154E+04</pdfrwt>
<totfact> 0.16211862E+01</totfact>
</mgrwt>
</event>
<event>
12    6  0.1457317E-007  0.1295974E+04  0.7818608E-02  0.9032764E-01
         -1   -1    0    0    0  501 -0.00000000000E+00  0.00000000000E+00  0.12743969665E+03  0.12743969665E+03  0.00000000000E+00 0.  1.
          2   -1    0    0  501    0  0.00000000000E+00 -0.00000000000E+00 -0.32947912601E+04  0.32947912601E+04  0.00000000000E+00 0. -1.
         24    2    1    2    0    0  0.17372868818E+02 -0.31754291756E+03 -0.68047683671E+03  0.75515805128E+03  0.77972020954E+02 0.  0.
        254    2    1    2    0    0 -0.17372868818E+02  0.31754291756E+03 -0.24868747267E+04  0.26670729054E+04  0.90972339509E+03 0.  0.
         23    2    4    4    0    0 -0.33317382400E+03  0.39299013918E+03 -0.86740295402E+03  0.10127692609E+04  0.88699744625E+02 0.  0.
         23    2    4    4    0    0  0.31580095518E+03 -0.75447221622E+02 -0.16194717727E+04  0.16543036445E+04  0.92785770876E+02 0.  0.
          4    1    3    3  502    0  0.13863868102E+02 -0.21746695318E+03 -0.37533221609E+03  0.43400271313E+03  0.00000000000E+00 0. -1.
         -3    1    3    3    0  502  0.35090007156E+01 -0.10007596437E+03 -0.30514462061E+03  0.32115533815E+03  0.00000000000E+00 0.  1.
         11    1    5    5    0    0 -0.23704729071E+03  0.33289660916E+03 -0.70083491957E+03  0.81128364640E+03  0.00000000000E+00 0.  1.
        -11    1    5    5    0    0 -0.96126533284E+02  0.60093530019E+02 -0.16656803445E+03  0.20148561450E+03  0.00000000000E+00 0. -1.
          4    1    6    6  503    0  0.44195336981E+02  0.19689723664E+02 -0.29348587820E+03  0.29744726210E+03  0.00000000000E+00 0. -1.
         -4    1    6    6    0  503  0.27160561820E+03 -0.95136945286E+02 -0.13259858945E+04  0.13568563824E+04  0.00000000000E+00 0.  1.
<mgrwt>
<rscale>  0 0.12959741E+04</rscale>
<asrwt>0</asrwt>
<pdfrwt beam="1">  1        2 0.50689090E+00 0.12959741E+04</pdfrwt>
<pdfrwt beam="2">  1       -1 0.19606109E-01 0.12959741E+04</pdfrwt>
<totfact> 0.26962992E+01</totfact>
</mgrwt>
</event>
<event>
12    6  0.1457317E-007  0.1706195E+04  0.7818608E-02  0.8757839E-01
         -1   -1    0    0    0  501 -0.00000000000E+00  0.00000000000E+00  0.12182468391E+04  0.12182468391E+04  0.00000000000E+00 0.  1.
          2   -1    0    0  501    0  0.00000000000E+00 -0.00000000000E+00 -0.59739535699E+03  0.59739535699E+03  0.00000000000E+00 0. -1.
         24    2    1    2    0    0 -0.70661295523E+02 -0.58410128935E+03  0.39424238948E+02  0.59492177913E+03  0.78805569351E+02 0.  0.
        254    2    1    2    0    0  0.70661295523E+02  0.58410128935E+03  0.58142724314E+03  0.12207204169E+04  0.89773791407E+03 0.  0.
         23    2    4    4    0    0  0.36657705930E+03  0.48512672603E+02  0.12901892245E+02  0.38047310077E+03  0.88662854554E+02 0.  0.
         23    2    4    4    0    0 -0.29591576378E+03  0.53558861675E+03  0.56852535089E+03  0.84024731617E+03  0.91505038530E+02 0.  0.
          2    1    3    3  502    0 -0.12098071025E+02 -0.30583493291E+03  0.51146640612E+02  0.31031814055E+03  0.00000000000E+00 0. -1.
         -1    1    3    3    0  502 -0.58563224498E+02 -0.27826635644E+03 -0.11722401665E+02  0.28460363858E+03  0.00000000000E+00 0.  1.
         11    1    5    5    0    0  0.16245422077E+02  0.18330305696E+02  0.15218585223E+02  0.28836074309E+02  0.00000000000E+00 0. -1.
        -11    1    5    5    0    0  0.35033163723E+03  0.30182366907E+02 -0.23166929777E+01  0.35163702646E+03  0.00000000000E+00 0.  1.
          1    1    6    6  503    0 -0.18490623677E+03  0.31000821370E+03  0.39304884976E+03  0.53365045418E+03  0.00000000000E+00 0.  1.
         -1    1    6    6    0  503 -0.11100952701E+03  0.22558040305E+03  0.17547650114E+03  0.30659686198E+03  0.00000000000E+00 0. -1.
<mgrwt>
<rscale>  0 0.17061946E+04</rscale>
<asrwt>0</asrwt>
<pdfrwt beam="1">  1        2 0.91906979E-01 0.17061946E+04</pdfrwt>
<pdfrwt beam="2">  1       -1 0.18742259E+00 0.17061946E+04</pdfrwt>
<totfact> 0.99796212E+00</totfact>
</mgrwt>
</event>
<event>
12    6  0.1457317E-007  0.2145895E+04  0.7818608E-02  0.8541292E-01
          2   -1    0    0  501    0  0.00000000000E+00  0.00000000000E+00  0.11025898331E+04  0.11025898331E+04  0.00000000000E+00 0. -1.
         -1   -1    0    0    0  501 -0.00000000000E+00 -0.00000000000E+00 -0.10441017839E+04  0.10441017839E+04  0.00000000000E+00 0.  1.
         24    2    1    2    0    0 -0.27175522688E+03 -0.69645699329E+03  0.49724224544E+03  0.90101406278E+03  0.75320938960E+02 0.  0.
        254    2    1    2    0    0  0.27175522688E+03  0.69645699329E+03 -0.43875419623E+03  0.12456775542E+04  0.89459715928E+03 0.  0.
         23    2    4    4    0    0  0.34708387406E+03  0.54488011711E+03  0.11212342668E+03  0.66249254471E+03  0.94673921047E+02 0.  0.
         23    2    4    4    0    0 -0.75328647182E+02  0.15157687618E+03 -0.55087762291E+03  0.58318500945E+03  0.89379222126E+02 0.  0.
          2    1    3    3  502    0 -0.27384754384E+03 -0.69464946488E+03  0.48958756119E+03  0.89287531963E+03  0.00000000000E+00 0. -1.
         -1    1    3    3    0  502  0.20923169612E+01 -0.18075284047E+01  0.76546842435E+01  0.81387431503E+01  0.00000000000E+00 0.  1.
         11    1    5    5    0    0  0.49418582899E+02  0.83134889144E+02  0.52081910271E+02  0.10984594442E+03  0.00000000000E+00 0.  1.
        -11    1    5    5    0    0  0.29766529116E+03  0.46174522797E+03  0.60041516407E+02  0.55264660028E+03  0.00000000000E+00 0. -1.
          3    1    6    6  503    0 -0.51686170199E+02  0.14337433696E+03 -0.52700362223E+03  0.54859864977E+03  0.00000000000E+00 0. -1.
         -3    1    6    6    0  503 -0.23642476983E+02  0.82025392137E+01 -0.23874000687E+02  0.34586359685E+02  0.00000000000E+00 0.  1.
<mgrwt>
<rscale>  0 0.21458947E+04</rscale>
<asrwt>0</asrwt>
<pdfrwt beam="1">  1        2 0.16962921E+00 0.21458947E+04</pdfrwt>
<pdfrwt beam="2">  1       -1 0.16063104E+00 0.21458947E+04</pdfrwt>
<totfact> 0.65684455E+00</totfact>
</mgrwt>
</event>
<event>
12    6  0.1457317E-007  0.1497485E+04  0.7818608E-02  0.8886127E-01
         -1   -1    0    0    0  501 -0.00000000000E+00  0.00000000000E+00  0.18816687422E+04  0.18816687422E+04  0.00000000000E+00 0.  1.
          2   -1    0    0  501    0  0.00000000000E+00 -0.00000000000E+00 -0.29793503328E+03  0.29793503328E+03  0.00000000000E+00 0. -1.
         24    2    1    2    0    0 -0.80243971074E+02 -0.17928846604E+03 -0.13878986486E+03  0.25320673007E+03  0.79168002462E+02 0.  0.
        254    2    1    2    0    0  0.80243971074E+02  0.17928846604E+03  0.17225235737E+04  0.19263970454E+04  0.83984204789E+03 0.  0.
         23    2    4    4    0    0 -0.98559421018E+01 -0.32689742948E+03  0.68606354341E+03  0.76583597295E+03  0.94140760964E+02 0.  0.
         23    2    4    4    0    0  0.90099913176E+02  0.50618589552E+03  0.10364600303E+04  0.11605610724E+04  0.91161687037E+02 0.  0.
          2    1    3    3  502    0 -0.75809755413E+02 -0.17695576336E+03 -0.14793004502E+03  0.24278335903E+03  0.00000000000E+00 0. -1.
         -1    1    3    3    0  502 -0.44342156616E+01 -0.23327026813E+01  0.91401801626E+01  0.10423371035E+02  0.00000000000E+00 0.  1.
         11    1    5    5    0    0 -0.27567076336E+02 -0.20393172745E+03  0.51353209006E+03  0.55322988050E+03  0.00000000000E+00 0.  1.
        -11    1    5    5    0    0  0.17711134234E+02 -0.12296570203E+03  0.17253145335E+03  0.21260609245E+03  0.00000000000E+00 0. -1.
          1    1    6    6  503    0  0.14558608430E+02  0.30031390953E+03  0.65122410313E+03  0.71728183431E+03  0.00000000000E+00 0. -1.
         -1    1    6    6    0  503  0.75541304747E+02  0.20587198599E+03  0.38523592721E+03  0.44327923812E+03  0.00000000000E+00 0.  1.
<mgrwt>
<rscale>  0 0.14974846E+04</rscale>
<asrwt>0</asrwt>
<pdfrwt beam="1">  1        2 0.45836160E-01 0.14974846E+04</pdfrwt>
<pdfrwt beam="2">  1       -1 0.28948749E+00 0.14974846E+04</pdfrwt>
<totfact> 0.47402328E+00</totfact>
</mgrwt>
</event>
<event>
12    6  0.1457317E-007  0.1119754E+04  0.7818608E-02  0.9186149E-01
          2   -1    0    0  501    0  0.00000000000E+00  0.00000000000E+00  0.14902698542E+04  0.14902698542E+04  0.00000000000E+00 0. -1.
         -1   -1    0    0    0  501 -0.00000000000E+00 -0.00000000000E+00 -0.21033933745E+03  0.21033933745E+03  0.00000000000E+00 0.  1.
         24    2    1    2    0    0 -0.54360938670E+02  0.69179586729E+02 -0.19052016122E+02  0.12029087456E+03  0.79787143764E+02 0.  0.
        254    2    1    2    0    0  0.54360938670E+02 -0.69179586729E+02  0.12989825329E+04  0.15803183171E+04  0.89571727447E+03 0.  0.
         23    2    4    4    0    0  0.14598411983E+03 -0.39560626715E+03  0.10891102003E+04  0.11713222105E+04  0.89548928589E+02 0.  0.
         23    2    4    4    0    0 -0.91623181155E+02  0.32642668042E+03  0.20987233258E+03  0.40899610658E+03  0.91006781061E+02 0.  0.
          2    1    3    3  502    0  0.15990785270E+02 -0.44347676421E+01 -0.59360227568E+01  0.17624095544E+02  0.00000000000E+00 0. -1.
         -1    1    3    3    0  502 -0.70351723940E+02  0.73614354371E+02 -0.13115993366E+02  0.10266677901E+03  0.00000000000E+00 0.  1.
         11    1    5    5    0    0  0.15081266026E+03 -0.38661482993E+03  0.10820852837E+04  0.11589322872E+04  0.00000000000E+00 0. -1.
        -11    1    5    5    0    0 -0.48285404314E+01 -0.89914372239E+01  0.70249166494E+01  0.12389923324E+02  0.00000000000E+00 0.  1.
          2    1    6    6  503    0 -0.10546231864E+03  0.24437076002E+03  0.14234807150E+03  0.30183164589E+03  0.00000000000E+00 0. -1.
         -2    1    6    6    0  503  0.13839137481E+02  0.82055920407E+02  0.67524261082E+02  0.10716446069E+03  0.00000000000E+00 0.  1.
<mgrwt>
<rscale>  0 0.11197542E+04</rscale>
<asrwt>0</asrwt>
<pdfrwt beam="1">  1        2 0.22927228E+00 0.11197542E+04</pdfrwt>
<pdfrwt beam="2">  1       -1 0.32359899E-01 0.11197542E+04</pdfrwt>
<totfact> 0.12957382E+02</totfact>
</mgrwt>
</event>
<event>
12    6  0.1457317E-007  0.2475034E+04  0.7818608E-02  0.8411934E-01
         -1   -1    0    0    0  501 -0.00000000000E+00  0.00000000000E+00  0.13346475301E+04  0.13346475301E+04  0.00000000000E+00 0.  1.
          2   -1    0    0  501    0  0.00000000000E+00 -0.00000000000E+00 -0.11474548300E+04  0.11474548300E+04  0.00000000000E+00 0. -1.
         24    2    1    2    0    0 -0.42852082963E+03 -0.21255895033E+03  0.10417233458E+04  0.11490216804E+04  0.79068855814E+02 0.  0.
        254    2    1    2    0    0  0.42852082963E+03  0.21255895033E+03 -0.85453064575E+03  0.13330806797E+04  0.90447225794E+03 0.  0.
         23    2    4    4    0    0 -0.40436660865E+02 -0.29463866557E+03 -0.16224256096E+03  0.35100798014E+03  0.91852527168E+02 0.  0.
         23    2    4    4    0    0  0.46895749049E+03  0.50719761589E+03 -0.69228808479E+03  0.98207269960E+03  0.89629490107E+02 0.  0.
          2    1    3    3  502    0 -0.18459904722E+03 -0.63691789438E+02  0.49489239348E+03  0.53202625255E+03  0.00000000000E+00 0. -1.
         -1    1    3    3    0  502 -0.24392178241E+03 -0.14886716089E+03  0.54683095236E+03  0.61699542784E+03  0.00000000000E+00 0.  1.
         11    1    5    5    0    0 -0.21188595764E+02 -0.66312944222E+01 -0.16425899175E+02  0.27617762760E+02  0.00000000000E+00 0. -1.
        -11    1    5    5    0    0 -0.19248065101E+02 -0.28800737115E+03 -0.14581666178E+03  0.32339021738E+03  0.00000000000E+00 0.  1.
          4    1    6    6  503    0  0.58732413009E+02  0.28188765635E+02 -0.52062494808E+02  0.83394281648E+02  0.00000000000E+00 0. -1.
         -4    1    6    6    0  503  0.41022507748E+03  0.47900885026E+03 -0.64022558998E+03  0.89867841795E+03  0.00000000000E+00 0.  1.
<mgrwt>
<rscale>  0 0.24750335E+04</rscale>
<asrwt>0</asrwt>
<pdfrwt beam="1">  1        2 0.17653151E+00 0.24750335E+04</pdfrwt>
<pdfrwt beam="2">  1       -1 0.20533039E+00 0.24750335E+04</pdfrwt>
<totfact> 0.28710938E+00</totfact>
</mgrwt>
</event>
<event>
12    6  0.1457317E-007  0.1807747E+04  0.7818608E-02  0.8702191E-01
          2   -1    0    0  501    0  0.00000000000E+00  0.00000000000E+00  0.87040920072E+03  0.87040920072E+03  0.00000000000E+00 0. -1.
         -1   -1    0    0    0  501 -0.00000000000E+00 -0.00000000000E+00 -0.93862420340E+03  0.93862420340E+03  0.00000000000E+00 0.  1.
         24    2    1    2    0    0 -0.37687168656E+03 -0.56770083465E+03 -0.57104320997E+01  0.68604321549E+03  0.79411451891E+02 0.  0.
        254    2    1    2    0    0  0.37687168656E+03  0.56770083465E+03 -0.62504570582E+02  0.11229901886E+04  0.89044013647E+03 0.  0.
         23    2    4    4    0    0  0.26904670548E+03  0.34717340942E+03 -0.46333816953E+03  0.64453456841E+03  0.88470586029E+02 0.  0.
         23    2    4    4    0    0  0.10782498108E+03  0.22052742523E+03  0.40083359895E+03  0.47845562022E+03  0.89407128629E+02 0.  0.
          2    1    3    3  502    0 -0.29623367388E+03 -0.39190369935E+03  0.15237585564E+02  0.49150288210E+03  0.00000000000E+00 0. -1.
         -1    1    3    3    0  502 -0.80638012677E+02 -0.17579713530E+03 -0.20948017663E+02  0.19454033338E+03  0.00000000000E+00 0.  1.
         11    1    5    5    0    0  0.19018004691E+03  0.29956664242E+03 -0.34902018674E+03  0.49771850904E+03  0.00000000000E+00 0. -1.
        -11    1    5    5    0    0  0.78866658565E+02  0.47606767002E+02 -0.11431798280E+03  0.14681605937E+03  0.00000000000E+00 0.  1.
          3    1    6    6  503    0  0.11213933855E+03  0.16080999822E+03  0.34377877529E+03  0.39575109996E+03  0.00000000000E+00 0. -1.
         -3    1    6    6    0  503 -0.43143574672E+01  0.59717427009E+02  0.57054823660E+02  0.82704520263E+02  0.00000000000E+00 0.  1.
<mgrwt>
<rscale>  0 0.18077468E+04</rscale>
<asrwt>0</asrwt>
<pdfrwt beam="1">  1        2 0.13390911E+00 0.18077468E+04</pdfrwt>
<pdfrwt beam="2">  1       -1 0.14440372E+00 0.18077468E+04</pdfrwt>
<totfact> 0.12778649E+01</totfact>
</mgrwt>
</event>
<event>
12    6  0.1457317E-007  0.2967847E+04  0.7818608E-02  0.8252972E-01
          2   -1    0    0  501    0  0.00000000000E+00  0.00000000000E+00  0.20258649897E+04  0.20258649897E+04  0.00000000000E+00 0. -1.
         -1   -1    0    0    0  501 -0.00000000000E+00 -0.00000000000E+00 -0.10869575173E+04  0.10869575173E+04  0.00000000000E+00 0.  1.
         24    2    1    2    0    0 -0.94675855803E+03  0.93758629587E+03  0.23915901303E+03  0.13561406928E+04  0.80627015887E+02 0.  0.
        254    2    1    2    0    0  0.94675855803E+03 -0.93758629587E+03  0.69974845932E+03  0.17566818142E+04  0.90601504440E+03 0.  0.
         23    2    4    4    0    0  0.45246808930E+03 -0.46682863176E+03 -0.13927751344E+03  0.67104474660E+03  0.90810147687E+02 0.  0.
         23    2    4    4    0    0  0.49429046873E+03 -0.47075766411E+03  0.83902597276E+03  0.10856370676E+04  0.93313524379E+02 0.  0.
          2    1    3    3  502    0 -0.65779024763E+03  0.64242694645E+03  0.20219578502E+03  0.94142632578E+03  0.00000000000E+00 0. -1.
         -1    1    3    3    0  502 -0.28896831040E+03  0.29515934942E+03  0.36963228007E+02  0.41471436700E+03  0.00000000000E+00 0.  1.
         11    1    5    5    0    0  0.52907833733E+02 -0.19711856235E+02 -0.60121674186E+01  0.56779770197E+02  0.00000000000E+00 0. -1.
        -11    1    5    5    0    0  0.39956025556E+03 -0.44711677552E+03 -0.13326534602E+03  0.61426497640E+03  0.00000000000E+00 0.  1.
          3    1    6    6  503    0  0.30226476086E+02 -0.68234038189E+02  0.91512494948E+02  0.11808497176E+03  0.00000000000E+00 0. -1.
         -3    1    6    6    0  503  0.46406399265E+03 -0.40252362592E+03  0.74751347781E+03  0.96755209586E+03  0.00000000000E+00 0.  1.
<mgrwt>
<rscale>  0 0.29678472E+04</rscale>
<asrwt>0</asrwt>
<pdfrwt beam="1">  1        2 0.31167154E+00 0.29678472E+04</pdfrwt>
<pdfrwt beam="2">  1       -1 0.16722423E+00 0.29678472E+04</pdfrwt>
<totfact> 0.16277202E+00</totfact>
</mgrwt>
</event>
<event>
12    6  0.1457317E-007  0.1248267E+04  0.7818608E-02  0.9071626E-01
          2   -1    0    0  501    0  0.00000000000E+00  0.00000000000E+00  0.23823226199E+04  0.23823226199E+04  0.00000000000E+00 0. -1.
         -1   -1    0    0    0  501 -0.00000000000E+00 -0.00000000000E+00 -0.16351392155E+03  0.16351392155E+03  0.00000000000E+00 0.  1.
         24    2    1    2    0    0 -0.76475414809E+02  0.25792098557E+03  0.33531709575E+03  0.43702545982E+03  0.78625529954E+02 0.  0.
        254    2    1    2    0    0  0.76475414809E+02 -0.25792098557E+03  0.18834916026E+04  0.21088110816E+04  0.90948987741E+03 0.  0.
         23    2    4    4    0    0  0.25154771447E+03  0.40421281511E+01  0.84967180740E+02  0.28061151776E+03  0.90723815204E+02 0.  0.
         23    2    4    4    0    0 -0.17507229966E+03 -0.26196311372E+03  0.17985244218E+04  0.18281995638E+04  0.91370489106E+02 0.  0.
          2    1    3    3  502    0 -0.32401288656E+02  0.68204784359E+02  0.46523121447E+02  0.88691245031E+02  0.00000000000E+00 0. -1.
         -1    1    3    3    0  502 -0.44074126153E+02  0.18971620121E+03  0.28879397431E+03  0.34833421479E+03  0.00000000000E+00 0.  1.
         11    1    5    5    0    0  0.13099291328E+02  0.17708001527E+02 -0.92104644919E+01  0.23874618479E+02  0.00000000000E+00 0. -1.
        -11    1    5    5    0    0  0.23844842314E+03 -0.13665873376E+02  0.94177645232E+02  0.25673689928E+03  0.00000000000E+00 0.  1.
          3    1    6    6  503    0 -0.18407128489E+02 -0.90538689358E+02  0.63940543762E+03  0.64604596609E+03  0.00000000000E+00 0. -1.
         -3    1    6    6    0  503 -0.15666517117E+03 -0.17142442436E+03  0.11591189842E+04  0.11821535978E+04  0.00000000000E+00 0.  1.
<mgrwt>
<rscale>  0 0.12482675E+04</rscale>
<asrwt>0</asrwt>
<pdfrwt beam="1">  1        2 0.36651115E+00 0.12482675E+04</pdfrwt>
<pdfrwt beam="2">  1       -1 0.25155990E-01 0.12482675E+04</pdfrwt>
<totfact> 0.63446985E+01</totfact>
</mgrwt>
</event>
<event>
12    6  0.1457317E-007  0.1444220E+04  0.7818608E-02  0.8922418E-01
         -1   -1    0    0    0  501 -0.00000000000E+00  0.00000000000E+00  0.42555355322E+03  0.42555355322E+03  0.00000000000E+00 0.  1.
          2   -1    0    0  501    0  0.00000000000E+00 -0.00000000000E+00 -0.12253277391E+04  0.12253277391E+04  0.00000000000E+00 0. -1.
         24    2    1    2    0    0 -0.20574069471E+03  0.31507059833E+03  0.58882984891E+01  0.38446779921E+03  0.78626338992E+02 0.  0.
        254    2    1    2    0    0  0.20574069471E+03 -0.31507059833E+03 -0.80566248439E+03  0.12664134931E+04  0.90172744298E+03 0.  0.
         23    2    4    4    0    0  0.19939914639E+03  0.19711871284E+03 -0.66584345352E+03  0.72813152401E+03  0.90621217916E+02 0.  0.
         23    2    4    4    0    0  0.63415483169E+01 -0.51218931117E+03 -0.13981903087E+03  0.53828196911E+03  0.88430827025E+02 0.  0.
          4    1    3    3  502    0 -0.60279945653E+02  0.16062580321E+03 -0.88804337470E+01  0.17179401215E+03  0.00000000000E+00 0. -1.
         -3    1    3    3    0  502 -0.14546074905E+03  0.15444479511E+03  0.14768732236E+02  0.21267378707E+03  0.00000000000E+00 0.  1.
         11    1    5    5    0    0  0.17882795605E+03  0.12892443664E+03 -0.45528157072E+03  0.50584805709E+03  0.00000000000E+00 0.  1.
        -11    1    5    5    0    0  0.20571190339E+02  0.68194276199E+02 -0.21056188280E+03  0.22228346692E+03  0.00000000000E+00 0. -1.
          2    1    6    6  503    0  0.12422629280E+02 -0.26058323923E+02 -0.26263633346E+02  0.39027380138E+02  0.00000000000E+00 0. -1.
         -2    1    6    6    0  503 -0.60810809630E+01 -0.48613098724E+03 -0.11355539753E+03  0.49925458897E+03  0.00000000000E+00 0.  1.
<mgrwt>
<rscale>  0 0.14442196E+04</rscale>
<asrwt>0</asrwt>
<pdfrwt beam="1">  1        2 0.18851196E+00 0.14442196E+04</pdfrwt>
<pdfrwt beam="2">  1       -1 0.65469779E-01 0.14442196E+04</pdfrwt>
<totfact> 0.47858132E+01</totfact>
</mgrwt>
</event>
<event>
12    6  0.1457317E-007  0.2181916E+04  0.7818608E-02  0.8525993E-01
          2   -1    0    0  501    0  0.00000000000E+00  0.00000000000E+00  0.68612442306E+03  0.68612442306E+03  0.00000000000E+00 0. -1.
         -1   -1    0    0    0  501 -0.00000000000E+00 -0.00000000000E+00 -0.17346554207E+04  0.17346554207E+04  0.00000000000E+00 0.  1.
         24    2    1    2    0    0 -0.65541665634E+03  0.31425231024E+02 -0.11218496874E+04  0.13022022467E+04  0.81396753715E+02 0.  0.
        254    2    1    2    0    0  0.65541665634E+03 -0.31425231024E+02  0.73318689734E+02  0.11185775971E+04  0.90292949447E+03 0.  0.
         23    2    4    4    0    0  0.76305530317E+03 -0.22966171104E+03 -0.11610915335E+03  0.81030888171E+03  0.90117984202E+02 0.  0.
         23    2    4    4    0    0 -0.10763864683E+03  0.19823648002E+03  0.18942784308E+03  0.30826871542E+03  0.90900565865E+02 0.  0.
          4    1    3    3  502    0 -0.71651762136E+02  0.27893760224E+02 -0.14804966027E+03  0.16682547402E+03  0.00000000000E+00 0. -1.
         -3    1    3    3    0  502 -0.58376489421E+03  0.35314708003E+01 -0.97380002715E+03  0.11353767726E+04  0.00000000000E+00 0.  1.
         11    1    5    5    0    0  0.40758310845E+03 -0.16107325930E+03 -0.89514013345E+02  0.44730453132E+03  0.00000000000E+00 0.  1.
        -11    1    5    5    0    0  0.35547219472E+03 -0.68588451745E+02 -0.26595140000E+02  0.36300435040E+03  0.00000000000E+00 0. -1.
          2    1    6    6  503    0 -0.31545538628E+00  0.19860763596E+02 -0.79537380000E+01  0.21396527543E+02  0.00000000000E+00 0. -1.
         -2    1    6    6    0  503 -0.10732319144E+03  0.17837571642E+03  0.19738158108E+03  0.28687218788E+03  0.00000000000E+00 0.  1.
<mgrwt>
<rscale>  0 0.21819161E+04</rscale>
<asrwt>0</asrwt>
<pdfrwt beam="1">  1        2 0.10555760E+00 0.21819161E+04</pdfrwt>
<pdfrwt beam="2">  1       -1 0.26687006E+00 0.21819161E+04</pdfrwt>
<totfact> 0.23772895E+00</totfact>
</mgrwt>
</event>
<event>
12    6  0.1457317E-007  0.2957923E+04  0.7818608E-02  0.8255849E-01
          2   -1    0    0  501    0  0.00000000000E+00  0.00000000000E+00  0.15948918896E+04  0.15948918896E+04  0.00000000000E+00 0. -1.
         -1   -1    0    0    0  501 -0.00000000000E+00 -0.00000000000E+00 -0.13714578250E+04  0.13714578250E+04  0.00000000000E+00 0.  1.
         24    2    1    2    0    0  0.29209229260E+03 -0.75144691655E+03  0.11762376934E+04  0.14279898438E+04  0.75030040291E+02 0.  0.
        254    2    1    2    0    0 -0.29209229260E+03  0.75144691655E+03 -0.95280362881E+03  0.15383598708E+04  0.89929192206E+03 0.  0.
         23    2    4    4    0    0  0.14356742134E+03  0.73671774298E+03 -0.52110599692E+03  0.91834534312E+03  0.91880748261E+02 0.  0.
         23    2    4    4    0    0 -0.43565971394E+03  0.14729173568E+02 -0.43169763189E+03  0.62001452764E+03  0.89659546042E+02 0.  0.
          2    1    3    3  502    0  0.28152768255E+03 -0.66311475537E+03  0.10595148370E+04  0.12812301529E+04  0.00000000000E+00 0. -1.
         -1    1    3    3    0  502  0.10564610053E+02 -0.88332161180E+02  0.11672285643E+03  0.14675969098E+03  0.00000000000E+00 0.  1.
         11    1    5    5    0    0  0.13561650897E+03  0.51741490668E+03 -0.33988930966E+03  0.63374661023E+03  0.00000000000E+00 0.  1.
        -11    1    5    5    0    0  0.79509123724E+01  0.21930283630E+03 -0.18121668726E+03  0.28459873288E+03  0.00000000000E+00 0. -1.
          1    1    6    6  503    0 -0.23431919067E+03 -0.35919596456E+02 -0.21760533445E+03  0.32178841201E+03  0.00000000000E+00 0. -1.
         -1    1    6    6    0  503 -0.20134052327E+03  0.50648770024E+02 -0.21409229744E+03  0.29822611562E+03  0.00000000000E+00 0.  1.
<mgrwt>
<rscale>  0 0.29579229E+04</rscale>
<asrwt>0</asrwt>
<pdfrwt beam="1">  1        2 0.24536798E+00 0.29579229E+04</pdfrwt>
<pdfrwt beam="2">  1       -1 0.21099351E+00 0.29579229E+04</pdfrwt>
<totfact> 0.13895704E+00</totfact>
</mgrwt>
</event>
<event>
12    6  0.1457317E-007  0.1835364E+04  0.7818608E-02  0.8687716E-01
         -1   -1    0    0    0  501 -0.00000000000E+00  0.00000000000E+00  0.84276597071E+03  0.84276597071E+03  0.00000000000E+00 0.  1.
          2   -1    0    0  501    0  0.00000000000E+00 -0.00000000000E+00 -0.99925734257E+03  0.99925734257E+03  0.00000000000E+00 0. -1.
         24    2    1    2    0    0 -0.21018069101E+03  0.57853803144E+03  0.27406475012E+03  0.67811888403E+03  0.76495469902E+02 0.  0.
        254    2    1    2    0    0  0.21018069101E+03 -0.57853803144E+03 -0.43055612198E+03  0.11639044293E+04  0.88905161244E+03 0.  0.
         23    2    4    4    0    0  0.33383931218E+03 -0.61600004687E+02 -0.50903658846E+03  0.61874123637E+03  0.92082692545E+02 0.  0.
         23    2    4    4    0    0 -0.12365862117E+03 -0.51693802675E+03  0.78480466476E+02  0.54516319289E+03  0.92343625475E+02 0.  0.
          2    1    3    3  502    0 -0.48008662500E+02  0.13435900741E+03  0.29255758411E+02  0.14564708698E+03  0.00000000000E+00 0. -1.
         -1    1    3    3    0  502 -0.16217202851E+03  0.44417902403E+03  0.24480899171E+03  0.53247179704E+03  0.00000000000E+00 0.  1.
         11    1    5    5    0    0  0.11733142048E+03 -0.64789455248E+02 -0.21963068355E+03  0.25729744052E+03  0.00000000000E+00 0.  1.
        -11    1    5    5    0    0  0.21650789170E+03  0.31894505612E+01 -0.28940590491E+03  0.36144379585E+03  0.00000000000E+00 0. -1.
          4    1    6    6  503    0 -0.60367734258E+02 -0.38041710757E+03  0.26999183180E+02  0.38612225391E+03  0.00000000000E+00 0. -1.
         -4    1    6    6    0  503 -0.63290886909E+02 -0.13652091918E+03  0.51481283296E+02  0.15904093897E+03  0.00000000000E+00 0.  1.
<mgrwt>
<rscale>  0 0.18353638E+04</rscale>
<asrwt>0</asrwt>
<pdfrwt beam="1">  1        2 0.15373190E+00 0.18353638E+04</pdfrwt>
<pdfrwt beam="2">  1       -1 0.12965630E+00 0.18353638E+04</pdfrwt>
<totfact> 0.13828296E+01</totfact>
</mgrwt>
</event>
<event>
12    6  0.1457317E-007  0.1477079E+04  0.7818608E-02  0.8899840E-01
          2   -1    0    0  501    0  0.00000000000E+00  0.00000000000E+00  0.15023646306E+04  0.15023646306E+04  0.00000000000E+00 0. -1.
         -1   -1    0    0    0  501 -0.00000000000E+00 -0.00000000000E+00 -0.36305477033E+03  0.36305477033E+03  0.00000000000E+00 0.  1.
         24    2    1    2    0    0  0.18524766264E+03 -0.10599486754E+03 -0.15414728829E+03  0.27448436784E+03  0.77644531305E+02 0.  0.
        254    2    1    2    0    0 -0.18524766264E+03  0.10599486754E+03  0.12934571486E+04  0.15909350331E+04  0.90138297959E+03 0.  0.
         23    2    4    4    0    0  0.46345445539E+02 -0.59055719975E+02  0.12853741129E+04  0.12906415080E+04  0.89069712814E+02 0.  0.
         23    2    4    4    0    0 -0.23159310818E+03  0.16505058752E+03  0.80830357036E+01  0.30029352511E+03  0.96092671745E+02 0.  0.
          2    1    3    3  502    0  0.32768190553E+02 -0.31666110306E+02 -0.43744407107E+00  0.45570694655E+02  0.00000000000E+00 0. -1.
         -1    1    3    3    0  502  0.15247947208E+03 -0.74328757235E+02 -0.15370984422E+03  0.22891367318E+03  0.00000000000E+00 0.  1.
         11    1    5    5    0    0  0.50924713803E+02 -0.68711691339E+02  0.70496009909E+03  0.71012911806E+03  0.00000000000E+00 0.  1.
        -11    1    5    5    0    0 -0.45792682634E+01  0.96559713642E+01  0.58041401376E+03  0.58051238992E+03  0.00000000000E+00 0. -1.
          3    1    6    6  503    0 -0.14711950368E+03  0.96639566129E+02 -0.41455555249E+02  0.18083671410E+03  0.00000000000E+00 0. -1.
         -3    1    6    6    0  503 -0.84473604494E+02  0.68411021387E+02  0.49538590952E+02  0.11945681101E+03  0.00000000000E+00 0.  1.
<mgrwt>
<rscale>  0 0.14770791E+04</rscale>
<asrwt>0</asrwt>
<pdfrwt beam="1">  1        2 0.23113302E+00 0.14770791E+04</pdfrwt>
<pdfrwt beam="2">  1       -1 0.55854581E-01 0.14770791E+04</pdfrwt>
<totfact> 0.45247398E+01</totfact>
</mgrwt>
</event>
<event>
12    6  0.1457317E-007  0.1230515E+04  0.7818608E-02  0.9086558E-01
         -1   -1    0    0    0  501 -0.00000000000E+00  0.00000000000E+00  0.52591685429E+03  0.52591685429E+03  0.00000000000E+00 0.  1.
          2   -1    0    0  501    0  0.00000000000E+00 -0.00000000000E+00 -0.71977512328E+03  0.71977512328E+03  0.00000000000E+00 0. -1.
         24    2    1    2    0    0 -0.10100668547E+03 -0.26914778396E+02 -0.23873054956E+03  0.27108962545E+03  0.74636143605E+02 0.  0.
        254    2    1    2    0    0  0.10100668547E+03  0.26914778396E+02  0.44872280570E+02  0.97460235211E+03  0.96794083878E+03 0.  0.
         23    2    4    4    0    0  0.14880862815E+03  0.37416395321E+03  0.31847775899E+03  0.52065962772E+03  0.86693098161E+02 0.  0.
         23    2    4    4    0    0 -0.47801942681E+02 -0.34724917482E+03 -0.27360547842E+03  0.45394272439E+03  0.91307305674E+02 0.  0.
          2    1    3    3  502    0 -0.32144550244E+02 -0.42745772673E+02 -0.13840477287E+03  0.14837908998E+03  0.00000000000E+00 0. -1.
         -1    1    3    3    0  502 -0.68862135222E+02  0.15830994277E+02 -0.10032577669E+03  0.12271053547E+03  0.00000000000E+00 0.  1.
         11    1    5    5    0    0  0.14508739631E+03  0.31054144521E+03  0.29660964884E+03  0.45328095652E+03  0.00000000000E+00 0.  1.
        -11    1    5    5    0    0  0.37212318380E+01  0.63622507999E+02  0.21868110158E+02  0.67378671198E+02  0.00000000000E+00 0. -1.
          3    1    6    6  503    0 -0.15806799145E+02 -0.10345452818E+02 -0.21785252054E+00  0.18892611067E+02  0.00000000000E+00 0. -1.
         -3    1    6    6    0  503 -0.31995143536E+02 -0.33690372200E+03 -0.27338762590E+03  0.43505011333E+03  0.00000000000E+00 0.  1.
<mgrwt>
<rscale>  0 0.12305151E+04</rscale>
<asrwt>0</asrwt>
<pdfrwt beam="1">  1        2 0.11073463E+00 0.12305151E+04</pdfrwt>
<pdfrwt beam="2">  1       -1 0.80910285E-01 0.12305151E+04</pdfrwt>
<totfact> 0.67751565E+01</totfact>
</mgrwt>
</event>
<event>
12    6  0.1457317E-007  0.2132018E+04  0.7818608E-02  0.8547269E-01
          2   -1    0    0  501    0  0.00000000000E+00  0.00000000000E+00  0.20699823225E+04  0.20699823225E+04  0.00000000000E+00 0. -1.
         -1   -1    0    0    0  501 -0.00000000000E+00 -0.00000000000E+00 -0.54897810448E+03  0.54897810448E+03  0.00000000000E+00 0.  1.
         24    2    1    2    0    0 -0.50513991833E+03  0.68354128939E+03  0.55193713745E+03  0.10164961677E+04  0.78960900822E+02 0.  0.
        254    2    1    2    0    0  0.50513991833E+03 -0.68354128939E+03  0.96906708060E+03  0.16024642593E+04  0.95205339362E+03 0.  0.
         23    2    4    4    0    0  0.56147200358E+03 -0.79487134804E+02  0.17812480042E+03  0.60139317109E+03  0.91522053681E+02 0.  0.
         23    2    4    4    0    0 -0.56332085245E+02 -0.60405415458E+03  0.79094228017E+03  0.10010710882E+04  0.92189520068E+02 0.  0.
          4    1    3    3  502    0 -0.22026037620E+03  0.26220900597E+03  0.26091911235E+03  0.43051942967E+03  0.00000000000E+00 0. -1.
         -3    1    3    3    0  502 -0.28487954214E+03  0.42133228342E+03  0.29101802510E+03  0.58597673803E+03  0.00000000000E+00 0.  1.
         11    1    5    5    0    0  0.26988382325E+03 -0.34277801593E+02  0.37839701213E+02  0.27467087345E+03  0.00000000000E+00 0. -1.
        -11    1    5    5    0    0  0.29158818033E+03 -0.45209333211E+02  0.14028509921E+03  0.32672229765E+03  0.00000000000E+00 0.  1.
          1    1    6    6  503    0  0.17717781011E+02 -0.33089557330E+02  0.40593677538E+02  0.55287297133E+02  0.00000000000E+00 0. -1.
         -1    1    6    6    0  503 -0.74049866256E+02 -0.57096459725E+03  0.75034860263E+03  0.94578379109E+03  0.00000000000E+00 0.  1.
<mgrwt>
<rscale>  0 0.21320178E+04</rscale>
<asrwt>0</asrwt>
<pdfrwt beam="1">  1        2 0.31845881E+00 0.21320178E+04</pdfrwt>
<pdfrwt beam="2">  1       -1 0.84458171E-01 0.21320178E+04</pdfrwt>
<totfact> 0.88697087E+00</totfact>
</mgrwt>
</event>
<event>
12    6  0.1457317E-007  0.1988830E+04  0.7818608E-02  0.8611861E-01
          2   -1    0    0  501    0  0.00000000000E+00  0.00000000000E+00  0.18403511358E+04  0.18403511358E+04  0.00000000000E+00 0. -1.
         -1   -1    0    0    0  501 -0.00000000000E+00 -0.00000000000E+00 -0.53732202873E+03  0.53732202873E+03  0.00000000000E+00 0.  1.
         24    2    1    2    0    0 -0.75439807255E+03  0.40802654744E+02  0.25759411906E+03  0.80204936091E+03  0.78403690352E+02 0.  0.
        254    2    1    2    0    0  0.75439807255E+03 -0.40802654744E+02  0.10454349881E+04  0.15756238037E+04  0.90491698398E+03 0.  0.
         23    2    4    4    0    0  0.63825884704E+03 -0.23354198119E+03  0.11267947881E+04  0.13199282560E+04  0.10309167577E+03 0.  0.
         23    2    4    4    0    0  0.11613922551E+03  0.19273932644E+03 -0.81359800067E+02  0.25569554767E+03  0.90133392098E+02 0.  0.
          2    1    3    3  502    0 -0.22476713778E+03 -0.78483632749E+01  0.45508830364E+02  0.22946223365E+03  0.00000000000E+00 0. -1.
         -1    1    3    3    0  502 -0.52963093478E+03  0.48651018019E+02  0.21208528870E+03  0.57258712726E+03  0.00000000000E+00 0.  1.
         11    1    5    5    0    0  0.13118837764E+03 -0.11259198549E+02  0.25925784873E+03  0.29077790856E+03  0.00000000000E+00 0. -1.
        -11    1    5    5    0    0  0.50707046940E+03 -0.22228278264E+03  0.86753693939E+03  0.10291503474E+04  0.00000000000E+00 0.  1.
          3    1    6    6  503    0  0.53884760678E+02  0.39801748921E+02 -0.58614669891E+02  0.89013629164E+02  0.00000000000E+00 0. -1.
         -3    1    6    6    0  503  0.62254464829E+02  0.15293757752E+03 -0.22745130176E+02  0.16668191850E+03  0.00000000000E+00 0.  1.
<mgrwt>
<rscale>  0 0.19888300E+04</rscale>
<asrwt>0</asrwt>
<pdfrwt beam="1">  1        2 0.28313094E+00 0.19888300E+04</pdfrwt>
<pdfrwt beam="2">  1       -1 0.82664928E-01 0.19888300E+04</pdfrwt>
<totfact> 0.12617821E+01</totfact>
</mgrwt>
</event>
<event>
12    6  0.1457317E-007  0.1320852E+04  0.7818608E-02  0.9013191E-01
         -1   -1    0    0    0  501 -0.00000000000E+00  0.00000000000E+00  0.25926331200E+03  0.25926331200E+03  0.00000000000E+00 0.  1.
          2   -1    0    0  501    0  0.00000000000E+00 -0.00000000000E+00 -0.16823142269E+04  0.16823142269E+04  0.00000000000E+00 0. -1.
         24    2    1    2    0    0 -0.14361239820E+03  0.26706727854E+03 -0.50706561871E+03  0.59631841692E+03  0.80812502047E+02 0.  0.
        254    2    1    2    0    0  0.14361239820E+03 -0.26706727854E+03 -0.91598529618E+03  0.13452591220E+04  0.93741324412E+03 0.  0.
         23    2    4    4    0    0 -0.35927504554E+02 -0.58799798880E+03 -0.65027006302E+03  0.88244811077E+03  0.93973894906E+02 0.  0.
         23    2    4    4    0    0  0.17953990275E+03  0.32093071025E+03 -0.26571523315E+03  0.46281101120E+03  0.91424009434E+02 0.  0.
          4    1    3    3  502    0 -0.14597871613E+03  0.22285551171E+03 -0.46087909087E+03  0.53233814542E+03  0.00000000000E+00 0. -1.
         -3    1    3    3    0  502  0.23663179347E+01  0.44211766832E+02 -0.46186527844E+02  0.63980271501E+02  0.00000000000E+00 0.  1.
         11    1    5    5    0    0 -0.10215491817E+01 -0.11615164194E+02  0.14110012771E+01  0.11745063925E+02  0.00000000000E+00 0. -1.
        -11    1    5    5    0    0 -0.34905955373E+02 -0.57638282460E+03 -0.65168106430E+03  0.87070304684E+03  0.00000000000E+00 0.  1.
          4    1    6    6  503    0  0.62015633717E+02  0.53289625651E+02 -0.29276154508E+02  0.86849388312E+02  0.00000000000E+00 0. -1.
         -4    1    6    6    0  503  0.11752426903E+03  0.26764108460E+03 -0.23643907865E+03  0.37596162289E+03  0.00000000000E+00 0.  1.
<mgrwt>
<rscale>  0 0.13208518E+04</rscale>
<asrwt>0</asrwt>
<pdfrwt beam="1">  1        2 0.25881757E+00 0.13208518E+04</pdfrwt>
<pdfrwt beam="2">  1       -1 0.39886665E-01 0.13208518E+04</pdfrwt>
<totfact> 0.68483865E+01</totfact>
</mgrwt>
</event>
<event>
12    6  0.1457317E-007  0.1725524E+04  0.7818608E-02  0.8746940E-01
         -1   -1    0    0    0  501 -0.00000000000E+00  0.00000000000E+00  0.47520015684E+03  0.47520015684E+03  0.00000000000E+00 0.  1.
          2   -1    0    0  501    0  0.00000000000E+00 -0.00000000000E+00 -0.15664098534E+04  0.15664098534E+04  0.00000000000E+00 0. -1.
         24    2    1    2    0    0 -0.53403667184E+03  0.32939691432E+03 -0.39809874919E+03  0.74709682182E+03  0.77288763900E+02 0.  0.
        254    2    1    2    0    0  0.53403667184E+03 -0.32939691432E+03 -0.69311094740E+03  0.12945131885E+04  0.89535697666E+03 0.  0.
         23    2    4    4    0    0 -0.21931427224E+03  0.50168083171E+02 -0.12851042808E+03  0.27533206260E+03  0.93151639775E+02 0.  0.
         23    2    4    4    0    0  0.75335094408E+03 -0.37956499749E+03 -0.56460051931E+03  0.10191811259E+04  0.91373894572E+02 0.  0.
          4    1    3    3  502    0 -0.40108877960E+03  0.24789113723E+03 -0.33723041284E+03  0.57969524441E+03  0.00000000000E+00 0. -1.
         -3    1    3    3    0  502 -0.13294789224E+03  0.81505777090E+02 -0.60868336349E+02  0.16740157741E+03  0.00000000000E+00 0.  1.
         11    1    5    5    0    0 -0.17353886102E+03  0.77586624818E+02 -0.10261786633E+03  0.21602279307E+03  0.00000000000E+00 0.  1.
        -11    1    5    5    0    0 -0.45775411220E+02 -0.27418541647E+02 -0.25892561758E+02  0.59309269535E+02  0.00000000000E+00 0. -1.
          2    1    6    6  503    0  0.23069701276E+03 -0.75596699337E+02 -0.18570561880E+03  0.30565102568E+03  0.00000000000E+00 0. -1.
         -2    1    6    6    0  503  0.52265393133E+03 -0.30396829816E+03 -0.37889490052E+03  0.71353010017E+03  0.00000000000E+00 0.  1.
<mgrwt>
<rscale>  0 0.17255239E+04</rscale>
<asrwt>0</asrwt>
<pdfrwt beam="1">  1        2 0.24098613E+00 0.17255239E+04</pdfrwt>
<pdfrwt beam="2">  1       -1 0.73107716E-01 0.17255239E+04</pdfrwt>
<totfact> 0.23763687E+01</totfact>
</mgrwt>
</event>
<event>
12    6  0.1457317E-007  0.3307345E+04  0.7818608E-02  0.8161029E-01
          2   -1    0    0  501    0  0.00000000000E+00  0.00000000000E+00  0.20189325650E+04  0.20189325650E+04  0.00000000000E+00 0. -1.
         -1   -1    0    0    0  501 -0.00000000000E+00 -0.00000000000E+00 -0.13544941475E+04  0.13544941475E+04  0.00000000000E+00 0.  1.
         24    2    1    2    0    0 -0.61310111647E+02 -0.11478119378E+04 -0.72378923921E+03  0.13606485722E+04  0.79135958132E+02 0.  0.
        254    2    1    2    0    0  0.61310111647E+02  0.11478119378E+04  0.13882276567E+04  0.20127781404E+04  0.89602937520E+03 0.  0.
         23    2    4    4    0    0 -0.21678991530E+03  0.18352226353E+02  0.47803293038E+03  0.53305360853E+03  0.91082355315E+02 0.  0.
         23    2    4    4    0    0  0.27810002695E+03  0.11294597115E+04  0.91019472633E+03  0.14797245319E+04  0.90063230941E+02 0.  0.
          4    1    3    3  502    0 -0.61122285632E+02 -0.49999909956E+03 -0.29425278587E+03  0.58336929586E+03  0.00000000000E+00 0. -1.
         -3    1    3    3    0  502 -0.18782601449E+00 -0.64781283825E+03 -0.42953645334E+03  0.77727927634E+03  0.00000000000E+00 0.  1.
         11    1    5    5    0    0 -0.75299880815E+01  0.25233061769E+02  0.47540218819E+02  0.54345933906E+02  0.00000000000E+00 0.  1.
        -11    1    5    5    0    0 -0.20925992722E+03 -0.68808354162E+01  0.43049271156E+03  0.47870767462E+03  0.00000000000E+00 0. -1.
          1    1    6    6  503    0  0.21636477296E+03  0.75514111595E+03  0.65151219551E+03  0.10205488528E+04  0.00000000000E+00 0. -1.
         -1    1    6    6    0  503  0.61735253992E+02  0.37431859551E+03  0.25868253082E+03  0.45917567910E+03  0.00000000000E+00 0.  1.
<mgrwt>
<rscale>  0 0.33073448E+04</rscale>
<asrwt>0</asrwt>
<pdfrwt beam="1">  1        2 0.31060501E+00 0.33073448E+04</pdfrwt>
<pdfrwt beam="2">  1       -1 0.20838372E+00 0.33073448E+04</pdfrwt>
<totfact> 0.81632806E-01</totfact>
</mgrwt>
</event>
<event>
12    6  0.1457317E-007  0.2003683E+04  0.7818608E-02  0.8604901E-01
          2   -1    0    0  501    0  0.00000000000E+00  0.00000000000E+00  0.17510990191E+04  0.17510990191E+04  0.00000000000E+00 0. -1.
         -1   -1    0    0    0  501 -0.00000000000E+00 -0.00000000000E+00 -0.57317515313E+03  0.57317515313E+03  0.00000000000E+00 0.  1.
         24    2    1    2    0    0 -0.63468006469E+03 -0.11646329005E+03 -0.66577797973E+02  0.65375166929E+03  0.81093523003E+02 0.  0.
        254    2    1    2    0    0  0.63468006469E+03  0.11646329005E+03  0.12445016640E+04  0.16705225030E+04  0.90855850602E+03 0.  0.
         23    2    4    4    0    0 -0.21363674624E+03 -0.60771852161E+02  0.33599458129E+03  0.41164813119E+03  0.85017338812E+02 0.  0.
         23    2    4    4    0    0  0.84831681092E+03  0.17723514222E+03  0.90850708267E+03  0.12588743718E+04  0.91246135821E+02 0.  0.
          2    1    3    3  502    0 -0.49492665302E+03 -0.89328222298E+02 -0.17711749392E+02  0.50323516295E+03  0.00000000000E+00 0. -1.
         -1    1    3    3    0  502 -0.13975341167E+03 -0.27135067757E+02 -0.48866048581E+02  0.15051650633E+03  0.00000000000E+00 0.  1.
         11    1    5    5    0    0 -0.11697327092E+03 -0.73202720703E+02  0.22494591448E+03  0.26389780004E+03  0.00000000000E+00 0.  1.
        -11    1    5    5    0    0 -0.96663475320E+02  0.12430868542E+02  0.11104866682E+03  0.14775033115E+03  0.00000000000E+00 0. -1.
          2    1    6    6  503    0  0.65506194129E+03  0.10122198777E+03  0.71594141694E+03  0.97566600342E+03  0.00000000000E+00 0. -1.
         -2    1    6    6    0  503  0.19325486963E+03  0.76013154446E+02  0.19256566573E+03  0.28320836835E+03  0.00000000000E+00 0.  1.
<mgrwt>
<rscale>  0 0.20036831E+04</rscale>
<asrwt>0</asrwt>
<pdfrwt beam="1">  1        2 0.26939985E+00 0.20036831E+04</pdfrwt>
<pdfrwt beam="2">  1       -1 0.88180793E-01 0.20036831E+04</pdfrwt>
<totfact> 0.12276222E+01</totfact>
</mgrwt>
</event>
<event>
12    6  0.1457317E-007  0.1470383E+04  0.7818608E-02  0.8904390E-01
          2   -1    0    0  501    0  0.00000000000E+00  0.00000000000E+00  0.69690108722E+03  0.69690108722E+03  0.00000000000E+00 0. -1.
         -1   -1    0    0    0  501 -0.00000000000E+00 -0.00000000000E+00 -0.77558539377E+03  0.77558539377E+03  0.00000000000E+00 0.  1.
         24    2    1    2    0    0  0.19384801087E+03 -0.26536907648E+03  0.29013817325E+03  0.44744337399E+03  0.89596960236E+02 0.  0.
        254    2    1    2    0    0 -0.19384801087E+03  0.26536907648E+03 -0.36882247980E+03  0.10250431070E+04  0.89815675219E+03 0.  0.
         23    2    4    4    0    0 -0.10917957896E+03  0.28410005962E+03  0.24313227669E+03  0.40016549139E+03  0.91575609158E+02 0.  0.
         23    2    4    4    0    0 -0.84668431907E+02 -0.18730983146E+02 -0.61195475649E+03  0.62487761560E+03  0.91999007565E+02 0.  0.
          2    1    3    3  502    0  0.12035362273E+03 -0.22713159756E+03  0.23168459971E+03  0.34605131246E+03  0.00000000000E+00 0. -1.
         -1    1    3    3    0  502  0.73494388135E+02 -0.38237478921E+02  0.58453573543E+02  0.10139206153E+03  0.00000000000E+00 0.  1.
         11    1    5    5    0    0 -0.82009371268E+02  0.10748870067E+03  0.74009218834E+02  0.15413215829E+03  0.00000000000E+00 0. -1.
        -11    1    5    5    0    0 -0.27170207690E+02  0.17661135896E+03  0.16912305785E+03  0.24603333310E+03  0.00000000000E+00 0.  1.
          1    1    6    6  503    0 -0.94054380409E+01  0.27999948243E+02 -0.27086940183E+03  0.27247512220E+03  0.00000000000E+00 0. -1.
         -1    1    6    6    0  503 -0.75262993866E+02 -0.46730931389E+02 -0.34108535466E+03  0.35240249340E+03  0.00000000000E+00 0.  1.
<mgrwt>
<rscale>  0 0.14703827E+04</rscale>
<asrwt>0</asrwt>
<pdfrwt beam="1">  1        2 0.10721555E+00 0.14703827E+04</pdfrwt>
<pdfrwt beam="2">  1       -1 0.11932083E+00 0.14703827E+04</pdfrwt>
<totfact> 0.28617599E+01</totfact>
</mgrwt>
</event>
<event>
12    6  0.1457317E-007  0.1717402E+04  0.7818608E-02  0.8751501E-01
          2   -1    0    0  501    0  0.00000000000E+00  0.00000000000E+00  0.61016548645E+03  0.61016548645E+03  0.00000000000E+00 0. -1.
         -1   -1    0    0    0  501 -0.00000000000E+00 -0.00000000000E+00 -0.12084716123E+04  0.12084716123E+04  0.00000000000E+00 0.  1.
         24    2    1    2    0    0 -0.45521717110E+03  0.41376938651E+03 -0.27460168421E+03  0.67836060476E+03  0.79619388610E+02 0.  0.
        254    2    1    2    0    0  0.45521717110E+03 -0.41376938651E+03 -0.32370444166E+03  0.11402764940E+04  0.90389055706E+03 0.  0.
         23    2    4    4    0    0 -0.19492373355E+03 -0.20929286764E+03 -0.33845894105E+03  0.45215163307E+03  0.89932631268E+02 0.  0.
         23    2    4    4    0    0  0.65014090464E+03 -0.20447651887E+03  0.14754499395E+02  0.68812486093E+03  0.93831158571E+02 0.  0.
          2    1    3    3  502    0 -0.23080893431E+03  0.18918176837E+03 -0.92921203771E+02  0.31256496245E+03  0.00000000000E+00 0. -1.
         -1    1    3    3    0  502 -0.22440823679E+03  0.22458761814E+03 -0.18168048044E+03  0.36579564231E+03  0.00000000000E+00 0.  1.
         11    1    5    5    0    0 -0.17809671141E+03 -0.21623890070E+03 -0.32722681393E+03  0.43076105737E+03  0.00000000000E+00 0. -1.
        -11    1    5    5    0    0 -0.16827022133E+02  0.69460330604E+01 -0.11232127123E+02  0.21390575701E+02  0.00000000000E+00 0.  1.
          2    1    6    6  503    0  0.53043416755E+02 -0.45928872648E+02  0.20069240530E+00  0.70164846477E+02  0.00000000000E+00 0.  1.
         -2    1    6    6    0  503  0.59709748789E+03 -0.15854764622E+03  0.14553806990E+02  0.61796001445E+03  0.00000000000E+00 0. -1.
<mgrwt>
<rscale>  0 0.17174023E+04</rscale>
<asrwt>0</asrwt>
<pdfrwt beam="1">  1        2 0.93871614E-01 0.17174023E+04</pdfrwt>
<pdfrwt beam="2">  1       -1 0.18591871E+00 0.17174023E+04</pdfrwt>
<totfact> 0.99585910E+00</totfact>
</mgrwt>
</event>
<event>
12    6  0.1457317E-007  0.1463556E+04  0.7818608E-02  0.8909056E-01
         -1   -1    0    0    0  501 -0.00000000000E+00  0.00000000000E+00  0.47653241042E+03  0.47653241042E+03  0.00000000000E+00 0.  1.
          2   -1    0    0  501    0  0.00000000000E+00 -0.00000000000E+00 -0.11237412262E+04  0.11237412262E+04  0.00000000000E+00 0. -1.
         24    2    1    2    0    0 -0.13517103497E+03 -0.24430047996E+03  0.18277965081E+03  0.34371490492E+03  0.82326192113E+02 0.  0.
        254    2    1    2    0    0  0.13517103497E+03  0.24430047996E+03 -0.82998846662E+03  0.12565587317E+04  0.90116871803E+03 0.  0.
         23    2    4    4    0    0  0.35964743300E+03  0.41912021669E+03 -0.26904271927E+03  0.62101809434E+03  0.90947548681E+02 0.  0.
         23    2    4    4    0    0 -0.22447639803E+03 -0.17481973672E+03 -0.56094574735E+03  0.63554063738E+03  0.91105305417E+02 0.  0.
          2    1    3    3  502    0 -0.24476288919E+02 -0.89627152137E+02  0.24026437170E+02  0.95965539661E+02  0.00000000000E+00 0. -1.
         -1    1    3    3    0  502 -0.11069474605E+03 -0.15467332783E+03  0.15875321364E+03  0.24774936526E+03  0.00000000000E+00 0.  1.
         11    1    5    5    0    0  0.31052346513E+03  0.38742502893E+03 -0.26401559827E+03  0.56234083220E+03  0.00000000000E+00 0.  1.
        -11    1    5    5    0    0  0.49123967875E+02  0.31695187760E+02 -0.50271210011E+01  0.58677262142E+02  0.00000000000E+00 0. -1.
          4    1    6    6  503    0 -0.35066989764E+02 -0.30281317159E+02 -0.18291017862E+03  0.18868700374E+03  0.00000000000E+00 0. -1.
         -4    1    6    6    0  503 -0.18940940827E+03 -0.14453841956E+03 -0.37803556873E+03  0.44685363364E+03  0.00000000000E+00 0.  1.
<mgrwt>
<rscale>  0 0.14635561E+04</rscale>
<asrwt>0</asrwt>
<pdfrwt beam="1">  1        2 0.17288326E+00 0.14635561E+04</pdfrwt>
<pdfrwt beam="2">  1       -1 0.73312680E-01 0.14635561E+04</pdfrwt>
<totfact> 0.43645400E+01</totfact>
</mgrwt>
</event>
<event>
12    6  0.1457317E-007  0.1773665E+04  0.7818608E-02  0.8720431E-01
         -1   -1    0    0    0  501 -0.00000000000E+00  0.00000000000E+00  0.63179380839E+03  0.63179380839E+03  0.00000000000E+00 0.  1.
          2   -1    0    0  501    0  0.00000000000E+00 -0.00000000000E+00 -0.12448239244E+04  0.12448239244E+04  0.00000000000E+00 0. -1.
         24    2    1    2    0    0 -0.44101095644E+03 -0.46747895049E+03 -0.20778213941E+03  0.68005393917E+03  0.79200441139E+02 0.  0.
        254    2    1    2    0    0  0.44101095644E+03  0.46747895049E+03 -0.40524797663E+03  0.11965637936E+04  0.92439805108E+03 0.  0.
         23    2    4    4    0    0 -0.91839423479E+02  0.51969521298E+03 -0.37231682673E+03  0.65240633628E+03  0.92177079905E+02 0.  0.
         23    2    4    4    0    0  0.53285037992E+03 -0.52216262491E+02 -0.32931149906E+02  0.54415745736E+03  0.91470281078E+02 0.  0.
          4    1    3    3  502    0 -0.17032172435E+03 -0.18000821313E+03 -0.12097734543E+03  0.27576795442E+03  0.00000000000E+00 0. -1.
         -3    1    3    3    0  502 -0.27068923209E+03 -0.28747073736E+03 -0.86804793981E+02  0.40428598475E+03  0.00000000000E+00 0.  1.
         11    1    5    5    0    0 -0.49710753519E+02  0.41900117925E+03 -0.25910331577E+03  0.49514409566E+03  0.00000000000E+00 0.  1.
        -11    1    5    5    0    0 -0.42128669959E+02  0.10069403373E+03 -0.11321351096E+03  0.15726224062E+03  0.00000000000E+00 0. -1.
          1    1    6    6  503    0  0.70418912841E+02 -0.33696281596E+02 -0.22477209898E+02  0.81237230651E+02  0.00000000000E+00 0. -1.
         -1    1    6    6    0  503  0.46243146708E+03 -0.18519980894E+02 -0.10453940008E+02  0.46292022671E+03  0.00000000000E+00 0.  1.
<mgrwt>
<rscale>  0 0.17736652E+04</rscale>
<asrwt>0</asrwt>
<pdfrwt beam="1">  1        2 0.19151137E+00 0.17736652E+04</pdfrwt>
<pdfrwt beam="2">  1       -1 0.97199048E-01 0.17736652E+04</pdfrwt>
<totfact> 0.19538554E+01</totfact>
</mgrwt>
</event>
<event>
12    6  0.1457317E-007  0.1244266E+04  0.7818608E-02  0.9074969E-01
          2   -1    0    0  501    0  0.00000000000E+00  0.00000000000E+00  0.58799917954E+03  0.58799917954E+03  0.00000000000E+00 0. -1.
         -1   -1    0    0    0  501 -0.00000000000E+00 -0.00000000000E+00 -0.65824818853E+03  0.65824818853E+03  0.00000000000E+00 0.  1.
         24    2    1    2    0    0  0.47702454896E+02 -0.27255915979E+03  0.65281163359E+02  0.29499241519E+03  0.78707527831E+02 0.  0.
        254    2    1    2    0    0 -0.47702454896E+02  0.27255915979E+03 -0.13553017235E+03  0.95125495289E+03  0.89997418740E+03 0.  0.
         23    2    4    4    0    0  0.55704022813E+02  0.19055412809E+03  0.36501513429E+03  0.42520647693E+03  0.90281149081E+02 0.  0.
         23    2    4    4    0    0 -0.10340647771E+03  0.82005031708E+02 -0.50054530664E+03  0.52604847595E+03  0.93614476443E+02 0.  0.
          4    1    3    3  502    0  0.87236693255E+01 -0.19195486947E+03  0.72016397990E+02  0.20520510691E+03  0.00000000000E+00 0. -1.
         -3    1    3    3    0  502  0.38978785570E+02 -0.80604290318E+02 -0.67352346306E+01  0.89787308278E+02  0.00000000000E+00 0.  1.
         11    1    5    5    0    0  0.68245596452E+02  0.10019579877E+03  0.25454209816E+03  0.28193676465E+03  0.00000000000E+00 0.  1.
        -11    1    5    5    0    0 -0.12541573639E+02  0.90358329319E+02  0.11047303613E+03  0.14326971229E+03  0.00000000000E+00 0. -1.
          4    1    6    6  503    0 -0.92214288616E+02  0.80905484382E+02 -0.28588632648E+03  0.31109510458E+03  0.00000000000E+00 0.  1.
         -4    1    6    6    0  503 -0.11192189092E+02  0.10995473255E+01 -0.21465898016E+03  0.21495337137E+03  0.00000000000E+00 0. -1.
<mgrwt>
<rscale>  0 0.12442659E+04</rscale>
<asrwt>0</asrwt>
<pdfrwt beam="1">  1        2 0.90461412E-01 0.12442659E+04</pdfrwt>
<pdfrwt beam="2">  1       -1 0.10126895E+00 0.12442659E+04</pdfrwt>
<totfact> 0.52942036E+01</totfact>
</mgrwt>
</event>
<event>
12    6  0.1457317E-007  0.1860972E+04  0.7818608E-02  0.8674531E-01
         -1   -1    0    0    0  501 -0.00000000000E+00  0.00000000000E+00  0.67922758964E+03  0.67922758964E+03  0.00000000000E+00 0.  1.
          2   -1    0    0  501    0  0.00000000000E+00 -0.00000000000E+00 -0.12746899703E+04  0.12746899703E+04  0.00000000000E+00 0. -1.
         24    2    1    2    0    0 -0.61689510556E+02  0.47767420581E+03  0.32174910291E+03  0.58568001409E+03  0.86719957738E+02 0.  0.
        254    2    1    2    0    0  0.61689510556E+02 -0.47767420581E+03 -0.91721148353E+03  0.13682375458E+04  0.89376665501E+03 0.  0.
         23    2    4    4    0    0 -0.47203224631E+02 -0.65562495423E+03 -0.92774393555E+03  0.11408191900E+04  0.93206165192E+02 0.  0.
         23    2    4    4    0    0  0.10889273519E+03  0.17795074843E+03  0.10532452024E+02  0.22741835583E+03  0.89911508597E+02 0.  0.
          4    1    3    3  502    0  0.31281010259E+01  0.34939875876E+02  0.53509794242E+02  0.63983419900E+02  0.00000000000E+00 0. -1.
         -3    1    3    3    0  502 -0.64817611582E+02  0.44273432993E+03  0.26823930867E+03  0.52169659419E+03  0.00000000000E+00 0.  1.
         11    1    5    5    0    0 -0.48993743300E+02 -0.52950550452E+03 -0.68417215184E+03  0.86652639865E+03  0.00000000000E+00 0. -1.
        -11    1    5    5    0    0  0.17905186693E+01 -0.12611944971E+03 -0.24357178371E+03  0.27429279132E+03  0.00000000000E+00 0.  1.
          3    1    6    6  503    0  0.33507034885E+02  0.13756107163E+03  0.92491939204E+01  0.14188487377E+03  0.00000000000E+00 0. -1.
         -3    1    6    6    0  503  0.75385700302E+02  0.40389676793E+02  0.12832581032E+01  0.85533482057E+02  0.00000000000E+00 0.  1.
<mgrwt>
<rscale>  0 0.18609724E+04</rscale>
<asrwt>0</asrwt>
<pdfrwt beam="1">  1        2 0.19610615E+00 0.18609724E+04</pdfrwt>
<pdfrwt beam="2">  1       -1 0.10449655E+00 0.18609724E+04</pdfrwt>
<totfact> 0.15774201E+01</totfact>
</mgrwt>
</event>
<event>
12    6  0.1457317E-007  0.1827950E+04  0.7818608E-02  0.8691576E-01
          2   -1    0    0  501    0  0.00000000000E+00  0.00000000000E+00  0.93709158683E+03  0.93709158683E+03  0.00000000000E+00 0. -1.
         -1   -1    0    0    0  501 -0.00000000000E+00 -0.00000000000E+00 -0.89142854387E+03  0.89142854387E+03  0.00000000000E+00 0.  1.
         24    2    1    2    0    0  0.51266634929E+03  0.38624281892E+03  0.17063827482E+03  0.66897486990E+03  0.79997842824E+02 0.  0.
        254    2    1    2    0    0 -0.51266634929E+03 -0.38624281892E+03 -0.12497523186E+03  0.11595452608E+04  0.95755736247E+03 0.  0.
         23    2    4    4    0    0 -0.36189447231E+03 -0.23060681098E+03 -0.53234160000E+03  0.68885692240E+03  0.83601256479E+02 0.  0.
         23    2    4    4    0    0 -0.15077187697E+03 -0.15563600795E+03  0.40736636814E+03  0.47068833840E+03  0.92980794567E+02 0.  0.
          4    1    3    3  502    0  0.41106374686E+03  0.32920198221E+03  0.11151941224E+03  0.53831582587E+03  0.00000000000E+00 0. -1.
         -3    1    3    3    0  502  0.10160260243E+03  0.57040836715E+02  0.59118862589E+02  0.13065904403E+03  0.00000000000E+00 0.  1.
         11    1    5    5    0    0 -0.50007564595E+02 -0.54654285816E+02 -0.13478865304E+03  0.15380451380E+03  0.00000000000E+00 0.  1.
        -11    1    5    5    0    0 -0.31188690772E+03 -0.17595252516E+03 -0.39755294696E+03  0.53505240860E+03  0.00000000000E+00 0. -1.
          2    1    6    6  503    0 -0.48494255737E+02 -0.56844077490E+02  0.23847213780E+03  0.24990378647E+03  0.00000000000E+00 0. -1.
         -2    1    6    6    0  503 -0.10227762124E+03 -0.98791930458E+02  0.16889423035E+03  0.22078455194E+03  0.00000000000E+00 0.  1.
<mgrwt>
<rscale>  0 0.18279499E+04</rscale>
<asrwt>0</asrwt>
<pdfrwt beam="1">  1        2 0.14416794E+00 0.18279499E+04</pdfrwt>
<pdfrwt beam="2">  1       -1 0.13714285E+00 0.18279499E+04</pdfrwt>
<totfact> 0.13164882E+01</totfact>
</mgrwt>
</event>
<event>
12    6  0.1457317E-007  0.2148964E+04  0.7818608E-02  0.8539976E-01
          2   -1    0    0  501    0  0.00000000000E+00  0.00000000000E+00  0.12911875402E+04  0.12911875402E+04  0.00000000000E+00 0. -1.
         -1   -1    0    0    0  501 -0.00000000000E+00 -0.00000000000E+00 -0.89414683887E+03  0.89414683887E+03  0.00000000000E+00 0.  1.
         24    2    1    2    0    0 -0.32898236717E+03 -0.66829701645E+03 -0.32183747224E+03  0.81539638450E+03  0.80259611370E+02 0.  0.
        254    2    1    2    0    0  0.32898236717E+03  0.66829701645E+03  0.71887817355E+03  0.13699379946E+04  0.89727029395E+03 0.  0.
         23    2    4    4    0    0  0.73610950653E+02  0.62575227661E+03  0.40029651985E+02  0.63769927429E+03  0.89852699747E+02 0.  0.
         23    2    4    4    0    0  0.25537141652E+03  0.42544739835E+02  0.67884852157E+03  0.73223872026E+03  0.91179015948E+02 0.  0.
          4    1    3    3  502    0 -0.18557118390E+03 -0.38960194052E+03 -0.14344445402E+03  0.45475559122E+03  0.00000000000E+00 0. -1.
         -3    1    3    3    0  502 -0.14341118327E+03 -0.27869507593E+03 -0.17839301822E+03  0.36064079328E+03  0.00000000000E+00 0.  1.
         11    1    5    5    0    0  0.33530892059E+02  0.48130504153E+03 -0.27154199847E+00  0.48247169602E+03  0.00000000000E+00 0.  1.
        -11    1    5    5    0    0  0.40080058594E+02  0.14444723509E+03  0.40301193983E+02  0.15522757828E+03  0.00000000000E+00 0. -1.
          1    1    6    6  503    0  0.17156213087E+03  0.53874635751E+02  0.36066743333E+03  0.40300997332E+03  0.00000000000E+00 0. -1.
         -1    1    6    6    0  503  0.83809285647E+02 -0.11329895916E+02  0.31818108824E+03  0.32922874694E+03  0.00000000000E+00 0.  1.
<mgrwt>
<rscale>  0 0.21489637E+04</rscale>
<asrwt>0</asrwt>
<pdfrwt beam="1">  1        2 0.19864424E+00 0.21489637E+04</pdfrwt>
<pdfrwt beam="2">  1       -1 0.13756105E+00 0.21489637E+04</pdfrwt>
<totfact> 0.76806239E+00</totfact>
</mgrwt>
</event>
<event>
12    6  0.1457317E-007  0.2673272E+04  0.7818608E-02  0.8343730E-01
         -1   -1    0    0    0  501 -0.00000000000E+00  0.00000000000E+00  0.98751486335E+03  0.98751486335E+03  0.00000000000E+00 0.  1.
          2   -1    0    0  501    0  0.00000000000E+00 -0.00000000000E+00 -0.18091840191E+04  0.18091840191E+04  0.00000000000E+00 0. -1.
         24    2    1    2    0    0  0.74988859941E+03 -0.85901554585E+03 -0.70161653704E+03  0.13411987624E+04  0.79421253925E+02 0.  0.
        254    2    1    2    0    0 -0.74988859941E+03  0.85901554585E+03 -0.12005261868E+03  0.14555001200E+04  0.89656419104E+03 0.  0.
         23    2    4    4    0    0 -0.39420261558E+03  0.40247552320E+03 -0.49745260241E+03  0.75715692312E+03  0.91898126656E+02 0.  0.
         23    2    4    4    0    0 -0.35568598384E+03  0.45654002265E+03  0.37739998373E+03  0.69834319693E+03  0.10154388996E+03 0.  0.
          2    1    3    3  502    0  0.47600029760E+03 -0.52475266538E+03 -0.39308894327E+03  0.81022253761E+03  0.00000000000E+00 0. -1.
         -1    1    3    3    0  502  0.27388830181E+03 -0.33426288047E+03 -0.30852759377E+03  0.53097622475E+03  0.00000000000E+00 0.  1.
         11    1    5    5    0    0 -0.87941845479E+02  0.41118331056E+02 -0.88450380369E+02  0.13133147042E+03  0.00000000000E+00 0.  1.
        -11    1    5    5    0    0 -0.30626077010E+03  0.36135719214E+03 -0.40900222204E+03  0.62582545270E+03  0.00000000000E+00 0. -1.
          1    1    6    6  503    0 -0.12263058026E+03  0.14476520236E+03  0.18155834321E+03  0.26259980011E+03  0.00000000000E+00 0. -1.
         -1    1    6    6    0  503 -0.23305540358E+03  0.31177482029E+03  0.19584164052E+03  0.43574339682E+03  0.00000000000E+00 0.  1.
<mgrwt>
<rscale>  0 0.26732722E+04</rscale>
<asrwt>0</asrwt>
<pdfrwt beam="1">  1        2 0.27833600E+00 0.26732722E+04</pdfrwt>
<pdfrwt beam="2">  1       -1 0.15192536E+00 0.26732722E+04</pdfrwt>
<totfact> 0.28764340E+00</totfact>
</mgrwt>
</event>
<event>
12    6  0.1457317E-007  0.3583828E+04  0.7818608E-02  0.8094206E-01
         -1   -1    0    0    0  501 -0.00000000000E+00  0.00000000000E+00  0.10181852869E+04  0.10181852869E+04  0.00000000000E+00 0.  1.
          2   -1    0    0  501    0  0.00000000000E+00 -0.00000000000E+00 -0.31536064965E+04  0.31536064965E+04  0.00000000000E+00 0. -1.
         24    2    1    2    0    0  0.72647750097E+03  0.73323232494E+03 -0.25423484389E+04  0.27450352219E+04  0.79269053521E+02 0.  0.
        254    2    1    2    0    0 -0.72647750097E+03 -0.73323232494E+03  0.40692722931E+03  0.14267565616E+04  0.89702024188E+03 0.  0.
         23    2    4    4    0    0 -0.59964907607E+03 -0.11926844331E+03  0.48868928455E+03  0.78786678040E+03  0.90071476185E+02 0.  0.
         23    2    4    4    0    0 -0.12682842490E+03 -0.61396388163E+03 -0.81762055242E+02  0.63888978120E+03  0.91967502599E+02 0.  0.
          2    1    3    3  502    0  0.52100227387E+03  0.48480207624E+03 -0.16885613164E+04  0.18324070895E+04  0.00000000000E+00 0. -1.
         -1    1    3    3    0  502  0.20547522710E+03  0.24843024870E+03 -0.85378712250E+03  0.91262813236E+03  0.00000000000E+00 0.  1.
         11    1    5    5    0    0 -0.99639474577E+02 -0.20493410359E+02  0.12789041772E+03  0.16341347468E+03  0.00000000000E+00 0. -1.
        -11    1    5    5    0    0 -0.50000960149E+03 -0.98775032954E+02  0.36079886683E+03  0.62445330572E+03  0.00000000000E+00 0.  1.
          1    1    6    6  503    0 -0.68561473886E+02 -0.15060291450E+03 -0.38392424486E+02  0.16987022051E+03  0.00000000000E+00 0. -1.
         -1    1    6    6    0  503 -0.58266951017E+02 -0.46336096712E+03 -0.43369630756E+02  0.46901956068E+03  0.00000000000E+00 0.  1.
<mgrwt>
<rscale>  0 0.35838280E+04</rscale>
<asrwt>0</asrwt>
<pdfrwt beam="1">  1        2 0.48517022E+00 0.35838280E+04</pdfrwt>
<pdfrwt beam="2">  1       -1 0.15664389E+00 0.35838280E+04</pdfrwt>
<totfact> 0.39886549E-01</totfact>
</mgrwt>
</event>
<event>
12    6  0.1457317E-007  0.4760096E+04  0.7818608E-02  0.7866619E-01
         -1   -1    0    0    0  501 -0.00000000000E+00  0.00000000000E+00  0.26192517194E+04  0.26192517194E+04  0.00000000000E+00 0.  1.
          2   -1    0    0  501    0  0.00000000000E+00 -0.00000000000E+00 -0.21626896084E+04  0.21626896084E+04  0.00000000000E+00 0. -1.
         24    2    1    2    0    0 -0.92573247112E+03  0.46640000985E+03 -0.18445903268E+04  0.21172906722E+04  0.76790230162E+02 0.  0.
        254    2    1    2    0    0  0.92573247112E+03 -0.46640000985E+03  0.23011524378E+04  0.26646506556E+04  0.85472276023E+03 0.  0.
         23    2    4    4    0    0  0.25867919048E+03  0.86039974504E+02  0.11211304421E+03  0.30856884603E+03  0.91255669721E+02 0.  0.
         23    2    4    4    0    0  0.66705328064E+03 -0.55243998436E+03  0.21890393936E+04  0.23560818096E+04  0.95278596396E+02 0.  0.
          2    1    3    3  502    0 -0.86890835099E+03  0.44692837597E+03 -0.17669912680E+04  0.20191594382E+04  0.00000000000E+00 0. -1.
         -1    1    3    3    0  502 -0.56824120134E+02  0.19471633881E+02 -0.77599058831E+02  0.98131234000E+02  0.00000000000E+00 0.  1.
         11    1    5    5    0    0  0.24488720449E+03  0.85843268741E+02  0.76747405946E+02  0.27060852542E+03  0.00000000000E+00 0.  1.
        -11    1    5    5    0    0  0.13791985989E+02  0.19670576281E+00  0.35365638262E+02  0.37960320604E+02  0.00000000000E+00 0. -1.
          3    1    6    6  503    0  0.66896824828E+02 -0.24563691643E+02  0.15318528371E+03  0.16895055864E+03  0.00000000000E+00 0. -1.
         -3    1    6    6    0  503  0.60015645581E+03 -0.52787629272E+03  0.20358541099E+04  0.21871312509E+04  0.00000000000E+00 0.  1.
<mgrwt>
<rscale>  0 0.47600960E+04</rscale>
<asrwt>0</asrwt>
<pdfrwt beam="1">  1        2 0.33272148E+00 0.47600960E+04</pdfrwt>
<pdfrwt beam="2">  1       -1 0.40296180E+00 0.47600960E+04</pdfrwt>
<totfact> 0.31257693E-02</totfact>
</mgrwt>
</event>
<event>
12    6  0.1457317E-007  0.2382513E+04  0.7818608E-02  0.8446080E-01
          2   -1    0    0  501    0  0.00000000000E+00  0.00000000000E+00  0.21536016576E+04  0.21536016576E+04  0.00000000000E+00 0. -1.
         -3   -1    0    0    0  501 -0.00000000000E+00 -0.00000000000E+00 -0.65893878846E+03  0.65893878846E+03  0.00000000000E+00 0.  1.
         24    2    1    2    0    0 -0.55003362782E+03 -0.23759412749E+03 -0.32924745085E+03  0.68805764586E+03  0.77662597084E+02 0.  0.
        254    2    1    2    0    0  0.55003362782E+03  0.23759412749E+03  0.18239103200E+04  0.21244828002E+04  0.90982984773E+03 0.  0.
         23    2    4    4    0    0  0.66285480907E+03  0.44276274468E+03  0.15910534759E+04  0.17815898066E+04  0.84827648582E+02 0.  0.
         23    2    4    4    0    0 -0.11282118125E+03 -0.20516861720E+03  0.23285684409E+03  0.34289299356E+03  0.92360785889E+02 0.  0.
          2    1    3    3  502    0 -0.27176736073E+03 -0.10553343354E+03 -0.11773701136E+03  0.31441502476E+03  0.00000000000E+00 0. -1.
         -1    1    3    3    0  502 -0.27826626708E+03 -0.13206069395E+03 -0.21151043949E+03  0.37364262109E+03  0.00000000000E+00 0.  1.
         11    1    5    5    0    0  0.34103649349E+03  0.19584886435E+03  0.85676910313E+03  0.94271732966E+03  0.00000000000E+00 0. -1.
        -11    1    5    5    0    0  0.32181831558E+03  0.24691388033E+03  0.73428437276E+03  0.83887247697E+03  0.00000000000E+00 0.  1.
          3    1    6    6  503    0 -0.85602869172E+02 -0.77649407150E+02  0.73402238274E+02  0.13691300240E+03  0.00000000000E+00 0. -1.
         -3    1    6    6    0  503 -0.27218312081E+02 -0.12751921005E+03  0.15945460582E+03  0.20597999117E+03  0.00000000000E+00 0.  1.
<mgrwt>
<rscale>  0 0.23825127E+04</rscale>
<asrwt>0</asrwt>
<pdfrwt beam="1">  1        2 0.33132333E+00 0.23825127E+04</pdfrwt>
<pdfrwt beam="2">  1       -3 0.10137520E+00 0.23825127E+04</pdfrwt>
<totfact> 0.26664634E+00</totfact>
</mgrwt>
</event>
<event>
12    6  0.1457317E-007  0.2362436E+04  0.7818608E-02  0.8453702E-01
          2   -1    0    0  501    0  0.00000000000E+00  0.00000000000E+00  0.44136536468E+04  0.44136536468E+04  0.00000000000E+00 0. -1.
         -1   -1    0    0    0  501 -0.00000000000E+00 -0.00000000000E+00 -0.31612728879E+03  0.31612728879E+03  0.00000000000E+00 0.  1.
         24    2    1    2    0    0  0.30688339678E+03  0.69938788841E+03  0.42956883935E+03  0.88004861466E+03  0.81457588726E+02 0.  0.
        254    2    1    2    0    0 -0.30688339678E+03 -0.69938788841E+03  0.36679575186E+04  0.38497323209E+04  0.88498912222E+03 0.  0.
         23    2    4    4    0    0 -0.60657423293E+03 -0.49838197915E+03  0.22938497521E+04  0.24262023643E+04  0.91620579233E+02 0.  0.
         23    2    4    4    0    0  0.29969083615E+03 -0.20100590926E+03  0.13741077666E+04  0.14235299566E+04  0.89707358835E+02 0.  0.
          4    1    3    3  502    0  0.10300030679E+03  0.18067677376E+03  0.15069551879E+03  0.25683126593E+03  0.00000000000E+00 0. -1.
         -3    1    3    3    0  502  0.20388308998E+03  0.51871111465E+03  0.27887332055E+03  0.62321734873E+03  0.00000000000E+00 0.  1.
         11    1    5    5    0    0 -0.35325364927E+03 -0.26801805321E+03  0.11635480051E+04  0.12451770066E+04  0.00000000000E+00 0.  1.
        -11    1    5    5    0    0 -0.25332058366E+03 -0.23036392594E+03  0.11303017470E+04  0.11810253578E+04  0.00000000000E+00 0. -1.
          4    1    6    6  503    0  0.70785851332E+02 -0.58342823431E+01  0.26243582083E+03  0.27187724373E+03  0.00000000000E+00 0. -1.
         -4    1    6    6    0  503  0.22890498482E+03 -0.19517162691E+03  0.11116719458E+04  0.11516527128E+04  0.00000000000E+00 0.  1.
<mgrwt>
<rscale>  0 0.23624363E+04</rscale>
<asrwt>0</asrwt>
<pdfrwt beam="1">  1        2 0.67902359E+00 0.23624363E+04</pdfrwt>
<pdfrwt beam="2">  1       -1 0.48634971E-01 0.23624363E+04</pdfrwt>
<totfact> 0.65190081E-01</totfact>
</mgrwt>
</event>
<event>
12    6  0.1457317E-007  0.2072180E+04  0.7818608E-02  0.8573598E-01
         -1   -1    0    0    0  501 -0.00000000000E+00  0.00000000000E+00  0.62810256448E+03  0.62810256448E+03  0.00000000000E+00 0.  1.
          2   -1    0    0  501    0  0.00000000000E+00 -0.00000000000E+00 -0.17090872451E+04  0.17090872451E+04  0.00000000000E+00 0. -1.
         24    2    1    2    0    0 -0.80591947246E+03  0.19994667161E+03 -0.29307820577E+03  0.88389533193E+03  0.76754514764E+02 0.  0.
        254    2    1    2    0    0  0.80591947246E+03 -0.19994667161E+03 -0.78790647489E+03  0.14532944777E+04  0.89542356355E+03 0.  0.
         23    2    4    4    0    0  0.86996037385E+03  0.10781740437E+03 -0.66407058246E+03  0.11034545196E+04  0.90368654193E+02 0.  0.
         23    2    4    4    0    0 -0.64040901389E+02 -0.30776407598E+03 -0.12383589243E+03  0.34983995806E+03  0.90734252017E+02 0.  0.
          2    1    3    3  502    0 -0.75010011460E+03  0.16896611601E+03 -0.25784078336E+03  0.81097570854E+03  0.00000000000E+00 0. -1.
         -1    1    3    3    0  502 -0.55819357856E+02  0.30980555601E+02 -0.35237422407E+02  0.72919623385E+02  0.00000000000E+00 0.  1.
         11    1    5    5    0    0  0.37902904601E+03  0.62414623184E+01 -0.31003698871E+03  0.48971921337E+03  0.00000000000E+00 0. -1.
        -11    1    5    5    0    0  0.49093132783E+03  0.10157594206E+03 -0.35403359376E+03  0.61373530627E+03  0.00000000000E+00 0.  1.
          1    1    6    6  503    0 -0.63143760312E+02 -0.31430138531E+03 -0.12097097422E+03  0.34264627808E+03  0.00000000000E+00 0. -1.
         -1    1    6    6    0  503 -0.89714107698E+00  0.65373093319E+01 -0.28649182078E+01  0.71936799867E+01  0.00000000000E+00 0.  1.
<mgrwt>
<rscale>  0 0.20721796E+04</rscale>
<asrwt>0</asrwt>
<pdfrwt beam="1">  1        2 0.26293649E+00 0.20721796E+04</pdfrwt>
<pdfrwt beam="2">  1       -1 0.96631166E-01 0.20721796E+04</pdfrwt>
<totfact> 0.10506346E+01</totfact>
</mgrwt>
</event>
<event>
12    6  0.1457317E-007  0.1623205E+04  0.7818608E-02  0.8806418E-01
         -1   -1    0    0    0  501 -0.00000000000E+00  0.00000000000E+00  0.42069929299E+03  0.42069929299E+03  0.00000000000E+00 0.  1.
          2   -1    0    0  501    0  0.00000000000E+00 -0.00000000000E+00 -0.15657231537E+04  0.15657231537E+04  0.00000000000E+00 0. -1.
         24    2    1    2    0    0 -0.28305951158E+03 -0.33366679653E+03 -0.82891442445E+03  0.94066872846E+03  0.79387123885E+02 0.  0.
        254    2    1    2    0    0  0.28305951158E+03  0.33366679653E+03 -0.31610943625E+03  0.10457537182E+04  0.89566703928E+03 0.  0.
         23    2    4    4    0    0  0.50907146178E+03  0.18125331345E+03  0.82531822757E+02  0.55432625001E+03  0.91975936236E+02 0.  0.
         23    2    4    4    0    0 -0.22601195020E+03  0.15241348308E+03 -0.39864125900E+03  0.49142746820E+03  0.90966101735E+02 0.  0.
          2    1    3    3  502    0 -0.17340916624E+03 -0.25808382720E+03 -0.55764241290E+03  0.63846931129E+03  0.00000000000E+00 0. -1.
         -1    1    3    3    0  502 -0.10965034533E+03 -0.75582969331E+02 -0.27127201155E+03  0.30219941716E+03  0.00000000000E+00 0.  1.
         11    1    5    5    0    0  0.33590227782E+03  0.15700922498E+03  0.31235439709E+02  0.37209930082E+03  0.00000000000E+00 0. -1.
        -11    1    5    5    0    0  0.17316918396E+03  0.24244088473E+02  0.51296383048E+02  0.18222694919E+03  0.00000000000E+00 0.  1.
          2    1    6    6  503    0 -0.14269709122E+03  0.43257461039E+02 -0.18752800790E+03  0.23958385072E+03  0.00000000000E+00 0. -1.
         -2    1    6    6    0  503 -0.83314858976E+02  0.10915602204E+03 -0.21111325110E+03  0.25184361748E+03  0.00000000000E+00 0.  1.
<mgrwt>
<rscale>  0 0.16232050E+04</rscale>
<asrwt>0</asrwt>
<pdfrwt beam="1">  1        2 0.24088048E+00 0.16232050E+04</pdfrwt>
<pdfrwt beam="2">  1       -1 0.64722969E-01 0.16232050E+04</pdfrwt>
<totfact> 0.30771037E+01</totfact>
</mgrwt>
</event>
<event>
12    6  0.1457317E-007  0.1125312E+04  0.7818608E-02  0.9180866E-01
          4   -1    0    0  501    0  0.00000000000E+00  0.00000000000E+00  0.13466103251E+04  0.13466103251E+04  0.00000000000E+00 0. -1.
         -3   -1    0    0    0  501 -0.00000000000E+00 -0.00000000000E+00 -0.23509530115E+03  0.23509530115E+03  0.00000000000E+00 0.  1.
         24    2    1    2    0    0  0.54260375710E+02  0.91096782033E+02  0.43223721930E+03  0.45240703030E+03  0.81242201159E+02 0.  0.
        254    2    1    2    0    0 -0.54260375710E+02 -0.91096782033E+02  0.67927780469E+03  0.11292985960E+04  0.89590968902E+03 0.  0.
         23    2    4    4    0    0 -0.26430420064E+03 -0.16421855267E+03  0.80028663079E+03  0.86328407096E+03  0.89309866373E+02 0.  0.
         23    2    4    4    0    0  0.21004382493E+03  0.73121770635E+02 -0.12100882611E+03  0.26601452502E+03  0.81580572410E+02 0.  0.
          4    1    3    3  502    0  0.19400052127E+02  0.25559205564E+02  0.29179067190E+03  0.29354970826E+03  0.00000000000E+00 0. -1.
         -3    1    3    3    0  502  0.34860323583E+02  0.65537576469E+02  0.14044654740E+03  0.15885732204E+03  0.00000000000E+00 0.  1.
         11    1    5    5    0    0 -0.23092688380E+03 -0.17171135330E+03  0.73973263771E+03  0.79373571786E+03  0.00000000000E+00 0.  1.
        -11    1    5    5    0    0 -0.33377316842E+02  0.74928006287E+01  0.60553993083E+02  0.69548353101E+02  0.00000000000E+00 0. -1.
          3    1    6    6  503    0  0.56823975093E+02 -0.93294363797E+01 -0.55845818010E+02  0.80216942835E+02  0.00000000000E+00 0. -1.
         -3    1    6    6    0  503  0.15321984984E+03  0.82451207015E+02 -0.65163008096E+02  0.18579758219E+03  0.00000000000E+00 0.  1.
<mgrwt>
<rscale>  0 0.11253120E+04</rscale>
<asrwt>0</asrwt>
<pdfrwt beam="1">  1        4 0.20717081E+00 0.11253120E+04</pdfrwt>
<pdfrwt beam="2">  1       -3 0.36168509E-01 0.11253120E+04</pdfrwt>
<totfact> 0.20289330E+00</totfact>
</mgrwt>
</event>
<event>
12    6  0.1457317E-007  0.1399318E+04  0.7818608E-02  0.8954313E-01
          2   -1    0    0  501    0  0.00000000000E+00  0.00000000000E+00  0.16160000423E+04  0.16160000423E+04  0.00000000000E+00 0. -1.
         -1   -1    0    0    0  501 -0.00000000000E+00 -0.00000000000E+00 -0.30292230120E+03  0.30292230120E+03  0.00000000000E+00 0.  1.
         24    2    1    2    0    0 -0.36736007301E+03 -0.16886998724E+03  0.30955209265E+03  0.51563764853E+03  0.81173830061E+02 0.  0.
        254    2    1    2    0    0  0.36736007301E+03  0.16886998724E+03  0.10035256485E+04  0.14032846950E+04  0.89368546605E+03 0.  0.
         23    2    4    4    0    0  0.30451951919E+03 -0.16864717403E+03  0.98325966507E+03  0.10474113417E+04  0.95377895622E+02 0.  0.
         23    2    4    4    0    0  0.62840553824E+02  0.33751716126E+03  0.20265983435E+02  0.35587335328E+03  0.91478763326E+02 0.  0.
          4    1    3    3  502    0 -0.37016469999E+03 -0.16855290674E+03  0.29925554245E+03  0.50496125314E+03  0.00000000000E+00 0. -1.
         -1    1    3    3    0  502  0.28046269790E+01 -0.31708049897E+00  0.10296550192E+02  0.10676395383E+02  0.00000000000E+00 0.  1.
         11    1    5    5    0    0  0.13371858408E+03 -0.86380674042E+02  0.31733035340E+03  0.35502230037E+03  0.00000000000E+00 0. -1.
        -11    1    5    5    0    0  0.17080093510E+03 -0.82266499984E+02  0.66592931167E+03  0.69238904136E+03  0.00000000000E+00 0.  1.
          3    1    6    6  503    0 -0.21703498810E+02  0.35777231557E+02  0.49738081428E+01  0.42140134385E+02  0.00000000000E+00 0. -1.
         -3    1    6    6    0  503  0.84544052635E+02  0.30173992970E+03  0.15292175292E+02  0.31373321890E+03  0.00000000000E+00 0.  1.
<mgrwt>
<rscale>  0 0.13993176E+04</rscale>
<asrwt>0</asrwt>
<pdfrwt beam="1">  1        2 0.24861539E+00 0.13993176E+04</pdfrwt>
<pdfrwt beam="2">  1       -1 0.46603432E-01 0.13993176E+04</pdfrwt>
<totfact> 0.55553651E+01</totfact>
</mgrwt>
</event>
<event>
12    6  0.1457317E-007  0.1716341E+04  0.7818608E-02  0.8752099E-01
          2   -1    0    0  501    0  0.00000000000E+00  0.00000000000E+00  0.20958836269E+04  0.20958836269E+04  0.00000000000E+00 0. -1.
         -1   -1    0    0    0  501 -0.00000000000E+00 -0.00000000000E+00 -0.35138236302E+03  0.35138236302E+03  0.00000000000E+00 0.  1.
         24    2    1    2    0    0 -0.50252392041E+03  0.35780201527E+03  0.64369873015E+03  0.89521628223E+03  0.80694262887E+02 0.  0.
        254    2    1    2    0    0  0.50252392041E+03 -0.35780201527E+03  0.11008025337E+04  0.15520497077E+04  0.90362575446E+03 0.  0.
         23    2    4    4    0    0  0.38982096498E+03 -0.12805793927E+02  0.11076924140E+04  0.11782601247E+04  0.95864823797E+02 0.  0.
         23    2    4    4    0    0  0.11270295543E+03 -0.34499622134E+03 -0.68898802381E+01  0.37378958296E+03  0.89145010950E+02 0.  0.
          2    1    3    3  502    0 -0.31568588307E+03  0.24335021935E+03  0.46517593852E+03  0.61258922600E+03  0.00000000000E+00 0. -1.
         -1    1    3    3    0  502 -0.18683803734E+03  0.11445179592E+03  0.17852279163E+03  0.28262705623E+03  0.00000000000E+00 0.  1.
         11    1    5    5    0    0  0.85832019866E+02  0.34417922121E+01  0.37750949460E+03  0.38715939880E+03  0.00000000000E+00 0.  1.
        -11    1    5    5    0    0  0.30398894512E+03 -0.16247586139E+02  0.73018291937E+03  0.79110072592E+03  0.00000000000E+00 0. -1.
          1    1    6    6  503    0  0.64925562473E+02 -0.30343276420E+03 -0.24951233167E+01  0.31031112885E+03  0.00000000000E+00 0. -1.
         -1    1    6    6    0  503  0.47777392952E+02 -0.41563457146E+02 -0.43947569214E+01  0.63478454105E+02  0.00000000000E+00 0.  1.
<mgrwt>
<rscale>  0 0.17163409E+04</rscale>
<asrwt>0</asrwt>
<pdfrwt beam="1">  1        2 0.32244363E+00 0.17163409E+04</pdfrwt>
<pdfrwt beam="2">  1       -1 0.54058826E-01 0.17163409E+04</pdfrwt>
<totfact> 0.22093433E+01</totfact>
</mgrwt>
</event>
<event>
12    6  0.1457317E-007  0.1987452E+04  0.7818608E-02  0.8612510E-01
         -1   -1    0    0    0  501 -0.00000000000E+00  0.00000000000E+00  0.29961482553E+03  0.29961482553E+03  0.00000000000E+00 0.  1.
          2   -1    0    0  501    0  0.00000000000E+00 -0.00000000000E+00 -0.32958701863E+04  0.32958701863E+04  0.00000000000E+00 0. -1.
         24    2    1    2    0    0  0.32556200757E+03 -0.71159689415E+03 -0.98521069757E+03  0.12607192345E+04  0.80075646726E+02 0.  0.
        254    2    1    2    0    0 -0.32556200757E+03  0.71159689415E+03 -0.20110446631E+04  0.23347657772E+04  0.89133037472E+03 0.  0.
         23    2    4    4    0    0 -0.58256657781E+01  0.82559622976E+03 -0.13227997268E+04  0.15619771102E+04  0.91270491021E+02 0.  0.
         23    2    4    4    0    0 -0.31973634179E+03 -0.11399933562E+03 -0.68824493637E+03  0.77278866708E+03  0.91071701171E+02 0.  0.
          4    1    3    3  502    0  0.15394781097E+03 -0.24767459713E+03 -0.34725837532E+03  0.45346555966E+03  0.00000000000E+00 0. -1.
         -3    1    3    3    0  502  0.17161419659E+03 -0.46392229702E+03 -0.63795232225E+03  0.80725367488E+03  0.00000000000E+00 0.  1.
         11    1    5    5    0    0 -0.47431035487E+02  0.35984469998E+03 -0.58903755638E+03  0.69188377207E+03  0.00000000000E+00 0.  1.
        -11    1    5    5    0    0  0.41605369709E+02  0.46575152978E+03 -0.73376217040E+03  0.87009333809E+03  0.00000000000E+00 0. -1.
          3    1    6    6  503    0  0.12649782861E+01  0.54901747737E+01 -0.32423854343E+02  0.32909702514E+02  0.00000000000E+00 0. -1.
         -3    1    6    6    0  503 -0.32100132007E+03 -0.11948951039E+03 -0.65582108202E+03  0.73987896457E+03  0.00000000000E+00 0.  1.
<mgrwt>
<rscale>  0 0.19874522E+04</rscale>
<asrwt>0</asrwt>
<pdfrwt beam="1">  1        2 0.50705695E+00 0.19874522E+04</pdfrwt>
<pdfrwt beam="2">  1       -1 0.46094589E-01 0.19874522E+04</pdfrwt>
<totfact> 0.55788177E+00</totfact>
</mgrwt>
</event>
<event>
12    6  0.1457317E-007  0.1697840E+04  0.7818608E-02  0.8762597E-01
         -1   -1    0    0    0  501 -0.00000000000E+00  0.00000000000E+00  0.29377862458E+03  0.29377862458E+03  0.00000000000E+00 0.  1.
          2   -1    0    0  501    0  0.00000000000E+00 -0.00000000000E+00 -0.24530889052E+04  0.24530889052E+04  0.00000000000E+00 0. -1.
         24    2    1    2    0    0 -0.25021868686E+03 -0.10842828095E+02  0.11261127957E+03  0.28614509254E+03  0.80441006461E+02 0.  0.
        254    2    1    2    0    0  0.25021868686E+03  0.10842828095E+02 -0.22719215602E+04  0.24607224373E+04  0.91148251731E+03 0.  0.
         23    2    4    4    0    0  0.23198727600E+03 -0.33102491304E+03 -0.47848430212E+03  0.63258337864E+03  0.88424624886E+02 0.  0.
         23    2    4    4    0    0  0.18231410857E+02  0.34186774113E+03 -0.17934372581E+04  0.18281390586E+04  0.92028703079E+02 0.  0.
          4    1    3    3  502    0 -0.43992058748E+02 -0.33803233120E+02  0.20999059773E+02  0.59320488144E+02  0.00000000000E+00 0. -1.
         -3    1    3    3    0  502 -0.20622662811E+03  0.22960405025E+02  0.91612219797E+02  0.22682460439E+03  0.00000000000E+00 0.  1.
         11    1    5    5    0    0  0.19609881738E+03 -0.29300115126E+03 -0.45407325638E+03  0.57487993788E+03  0.00000000000E+00 0. -1.
        -11    1    5    5    0    0  0.35888458626E+02 -0.38023761778E+02 -0.24411045739E+02  0.57703440767E+02  0.00000000000E+00 0.  1.
          2    1    6    6  503    0  0.27699798711E+02  0.87331381841E+02 -0.66698408579E+03  0.67324722041E+03  0.00000000000E+00 0.  1.
         -2    1    6    6    0  503 -0.94683878541E+01  0.25453635929E+03 -0.11264531723E+04  0.11548918382E+04  0.00000000000E+00 0. -1.
<mgrwt>
<rscale>  0 0.16978399E+04</rscale>
<asrwt>0</asrwt>
<pdfrwt beam="1">  1        2 0.37739829E+00 0.16978399E+04</pdfrwt>
<pdfrwt beam="2">  1       -1 0.45196711E-01 0.16978399E+04</pdfrwt>
<totfact> 0.19535531E+01</totfact>
</mgrwt>
</event>
<event>
12    6  0.1457317E-007  0.1795042E+04  0.7818608E-02  0.8708941E-01
         -1   -1    0    0    0  501 -0.00000000000E+00  0.00000000000E+00  0.78882766787E+03  0.78882766787E+03  0.00000000000E+00 0.  1.
          2   -1    0    0  501    0  0.00000000000E+00 -0.00000000000E+00 -0.10211912375E+04  0.10211912375E+04  0.00000000000E+00 0. -1.
         24    2    1    2    0    0  0.10654550139E+03 -0.55340488552E+03  0.17841060545E+03  0.59568062094E+03  0.73458470168E+02 0.  0.
        254    2    1    2    0    0 -0.10654550139E+03  0.55340488552E+03 -0.41077417507E+03  0.12143382844E+04  0.99411927600E+03 0.  0.
         23    2    4    4    0    0 -0.51069342457E+03  0.27396378601E+03 -0.32314406369E+02  0.58765269733E+03  0.91801644193E+02 0.  0.
         23    2    4    4    0    0  0.40414792317E+03  0.27944109951E+03 -0.37845976870E+03  0.62668558709E+03  0.89889691544E+02 0.  0.
          4    1    3    3  502    0  0.28259661128E+02 -0.83421832244E+02  0.35551450997E+01  0.88150153708E+02  0.00000000000E+00 0. -1.
         -3    1    3    3    0  502  0.78285840265E+02 -0.46998305328E+03  0.17485546035E+03  0.50753046723E+03  0.00000000000E+00 0.  1.
         11    1    5    5    0    0 -0.13153069173E+03  0.11815777895E+03 -0.12344775494E+02  0.17723988568E+03  0.00000000000E+00 0.  1.
        -11    1    5    5    0    0 -0.37916273284E+03  0.15580600706E+03 -0.19969630876E+02  0.41041281165E+03  0.00000000000E+00 0. -1.
          3    1    6    6  503    0  0.38559415453E+03  0.26405704384E+03 -0.38028268556E+03  0.60251464327E+03  0.00000000000E+00 0. -1.
         -3    1    6    6    0  503  0.18553768641E+02  0.15384055664E+02  0.18229168644E+01  0.24170943824E+02  0.00000000000E+00 0.  1.
<mgrwt>
<rscale>  0 0.17950420E+04</rscale>
<asrwt>0</asrwt>
<pdfrwt beam="1">  1        2 0.15710634E+00 0.17950420E+04</pdfrwt>
<pdfrwt beam="2">  1       -1 0.12135810E+00 0.17950420E+04</pdfrwt>
<totfact> 0.15841534E+01</totfact>
</mgrwt>
</event>
<event>
12    6  0.1457317E-007  0.3530156E+04  0.7818608E-02  0.8106680E-01
          2   -1    0    0  501    0  0.00000000000E+00  0.00000000000E+00  0.24097640379E+04  0.24097640379E+04  0.00000000000E+00 0. -1.
         -1   -1    0    0    0  501 -0.00000000000E+00 -0.00000000000E+00 -0.12928652621E+04  0.12928652621E+04  0.00000000000E+00 0.  1.
         24    2    1    2    0    0 -0.54213239687E+03  0.15537375913E+04  0.64751687365E+03  0.17703276810E+04  0.82304059089E+02 0.  0.
        254    2    1    2    0    0  0.54213239687E+03 -0.15537375913E+04  0.46938190219E+03  0.19323016190E+04  0.89747542494E+03 0.  0.
         23    2    4    4    0    0  0.59694673158E+03 -0.15866220897E+04  0.29710527351E+03  0.17235578299E+04  0.93085947653E+02 0.  0.
         23    2    4    4    0    0 -0.54814334706E+02  0.32884498413E+02  0.17227662868E+03  0.20874378908E+03  0.99039038594E+02 0.  0.
          4    1    3    3  502    0 -0.20293722762E+03  0.54209748260E+03  0.26779142582E+03  0.63778166070E+03  0.00000000000E+00 0. -1.
         -3    1    3    3    0  502 -0.33919516925E+03  0.10116401087E+04  0.37972544784E+03  0.11325460203E+04  0.00000000000E+00 0.  1.
         11    1    5    5    0    0  0.45249884785E+03 -0.12237575010E+04  0.26752266126E+03  0.13318806264E+04  0.00000000000E+00 0.  1.
        -11    1    5    5    0    0  0.14444788373E+03 -0.36286458869E+03  0.29582612256E+02  0.39167720356E+03  0.00000000000E+00 0. -1.
          3    1    6    6  503    0  0.19893032132E+02 -0.18332206356E+02  0.34133481596E+02  0.43553381995E+02  0.00000000000E+00 0. -1.
         -3    1    6    6    0  503 -0.74707366838E+02  0.51216704769E+02  0.13814314708E+03  0.16519040709E+03  0.00000000000E+00 0.  1.
<mgrwt>
<rscale>  0 0.35301559E+04</rscale>
<asrwt>0</asrwt>
<pdfrwt beam="1">  1        2 0.37073293E+00 0.35301559E+04</pdfrwt>
<pdfrwt beam="2">  1       -1 0.19890235E+00 0.35301559E+04</pdfrwt>
<totfact> 0.55995369E-01</totfact>
</mgrwt>
</event>
<event>
12    6  0.1457317E-007  0.1960323E+04  0.7818608E-02  0.8625399E-01
          2   -1    0    0  501    0  0.00000000000E+00  0.00000000000E+00  0.20381474695E+04  0.20381474695E+04  0.00000000000E+00 0. -1.
         -1   -1    0    0    0  501 -0.00000000000E+00 -0.00000000000E+00 -0.47136755251E+03  0.47136755251E+03  0.00000000000E+00 0.  1.
         24    2    1    2    0    0  0.37622324057E+03  0.55823395010E+03  0.13736594274E+03  0.69309777395E+03  0.91356730638E+02 0.  0.
        254    2    1    2    0    0 -0.37622324057E+03 -0.55823395010E+03  0.14294139743E+04  0.18164172481E+04  0.89609053084E+03 0.  0.
         23    2    4    4    0    0  0.44164145676E+02  0.76032916704E+02 -0.58246975705E+02  0.14286134004E+03  0.96359618686E+02 0.  0.
         23    2    4    4    0    0 -0.42038738625E+03 -0.63426686681E+03  0.14876609500E+04  0.16735559080E+04  0.92920731731E+02 0.  0.
          4    1    3    3  502    0  0.22711465070E+03  0.35901770558E+03  0.12954786472E+03  0.44413672077E+03  0.00000000000E+00 0. -1.
         -3    1    3    3    0  502  0.14910858988E+03  0.19921624452E+03  0.78180780184E+01  0.24896105318E+03  0.00000000000E+00 0.  1.
         11    1    5    5    0    0  0.28136644934E+02 -0.17077113702E+02 -0.21512490253E+01  0.32983730428E+02  0.00000000000E+00 0. -1.
        -11    1    5    5    0    0  0.16027500741E+02  0.93110030406E+02 -0.56095726680E+02  0.10987760961E+03  0.00000000000E+00 0.  1.
          3    1    6    6  503    0 -0.80137130870E+02 -0.19509059227E+03  0.42261127442E+03  0.47231619515E+03  0.00000000000E+00 0. -1.
         -3    1    6    6    0  503 -0.34025025538E+03 -0.43917627454E+03  0.10650496756E+04  0.12012397129E+04  0.00000000000E+00 0.  1.
<mgrwt>
<rscale>  0 0.19603230E+04</rscale>
<asrwt>0</asrwt>
<pdfrwt beam="1">  1        2 0.31356114E+00 0.19603230E+04</pdfrwt>
<pdfrwt beam="2">  1       -1 0.72518086E-01 0.19603230E+04</pdfrwt>
<totfact> 0.12948548E+01</totfact>
</mgrwt>
</event>
<event>
12    6  0.1457317E-007  0.2140558E+04  0.7818608E-02  0.8543585E-01
         -1   -1    0    0    0  501 -0.00000000000E+00  0.00000000000E+00  0.55024813758E+03  0.55024813758E+03  0.00000000000E+00 0.  1.
          2   -1    0    0  501    0  0.00000000000E+00 -0.00000000000E+00 -0.20817833208E+04  0.20817833208E+04  0.00000000000E+00 0. -1.
         24    2    1    2    0    0 -0.12324769299E+03 -0.73931914715E+03 -0.11956597858E+04  0.14132080945E+04  0.75973679750E+02 0.  0.
        254    2    1    2    0    0  0.12324769299E+03  0.73931914715E+03 -0.33587539749E+03  0.12188233639E+04  0.90051946927E+03 0.  0.
         23    2    4    4    0    0 -0.30389978955E+03  0.41668502812E+03 -0.41650949367E+03  0.66957832724E+03  0.94199167977E+02 0.  0.
         23    2    4    4    0    0  0.42714748254E+03  0.32263411904E+03  0.80634096184E+02  0.54924503664E+03  0.92846681157E+02 0.  0.
          2    1    3    3  502    0 -0.76326118971E+02 -0.47632895586E+03 -0.83583522913E+03  0.96505724228E+03  0.00000000000E+00 0. -1.
         -1    1    3    3    0  502 -0.46921574015E+02 -0.26299019129E+03 -0.35982455663E+03  0.44815085225E+03  0.00000000000E+00 0.  1.
         11    1    5    5    0    0 -0.25109454898E+03  0.34858057947E+03 -0.29713127222E+03  0.52234460449E+03  0.00000000000E+00 0. -1.
        -11    1    5    5    0    0 -0.52805240570E+02  0.68104448643E+02 -0.11937822146E+03  0.14723372275E+03  0.00000000000E+00 0.  1.
          4    1    6    6  503    0  0.39722702396E+03  0.32098228891E+03  0.63262098565E+02  0.51460764809E+03  0.00000000000E+00 0. -1.
         -4    1    6    6    0  503  0.29920458571E+02  0.16518301242E+01  0.17371997618E+02  0.34637388543E+02  0.00000000000E+00 0.  1.
<mgrwt>
<rscale>  0 0.21405582E+04</rscale>
<asrwt>0</asrwt>
<pdfrwt beam="1">  1        2 0.32027435E+00 0.21405582E+04</pdfrwt>
<pdfrwt beam="2">  1       -1 0.84653561E-01 0.21405582E+04</pdfrwt>
<totfact> 0.86861804E+00</totfact>
</mgrwt>
</event>
<event>
12    6  0.1457317E-007  0.1930548E+04  0.7818608E-02  0.8639798E-01
          2   -1    0    0  501    0  0.00000000000E+00  0.00000000000E+00  0.31259318393E+04  0.31259318393E+04  0.00000000000E+00 0. -1.
         -1   -1    0    0    0  501 -0.00000000000E+00 -0.00000000000E+00 -0.29807240151E+03  0.29807240151E+03  0.00000000000E+00 0.  1.
         24    2    1    2    0    0 -0.19658700993E+03  0.55768693728E+03  0.19397254055E+04  0.20293807302E+04  0.78678630836E+02 0.  0.
        254    2    1    2    0    0  0.19658700993E+03 -0.55768693728E+03  0.88813403233E+03  0.13946235106E+04  0.89807099080E+03 0.  0.
         23    2    4    4    0    0  0.42773863793E+03 -0.18634758542E+03  0.95739644640E+02  0.48492164006E+03  0.91088706628E+02 0.  0.
         23    2    4    4    0    0 -0.23115162799E+03 -0.37133935186E+03  0.79239438769E+03  0.90970187056E+03  0.91348991815E+02 0.  0.
          4    1    3    3  502    0 -0.14629425917E+03  0.33530117861E+03  0.12868335394E+04  0.13378226522E+04  0.00000000000E+00 0. -1.
         -3    1    3    3    0  502 -0.50292750761E+02  0.22238575867E+03  0.65289186616E+03  0.69155807806E+03  0.00000000000E+00 0.  1.
         11    1    5    5    0    0  0.43997134879E+01 -0.16087958449E+02  0.13091683462E+02  0.21203114434E+02  0.00000000000E+00 0.  1.
        -11    1    5    5    0    0  0.42333892444E+03 -0.17025962697E+03  0.82647961178E+02  0.46371852563E+03  0.00000000000E+00 0. -1.
          2    1    6    6  503    0 -0.52431365782E+02 -0.70707720161E+02  0.94938681999E+02  0.12946807772E+03  0.00000000000E+00 0.  1.
         -2    1    6    6    0  503 -0.17872026221E+03 -0.30063163170E+03  0.69745570569E+03  0.78023379284E+03  0.00000000000E+00 0. -1.
<mgrwt>
<rscale>  0 0.19305481E+04</rscale>
<asrwt>0</asrwt>
<pdfrwt beam="1">  1        2 0.48091257E+00 0.19305481E+04</pdfrwt>
<pdfrwt beam="2">  1       -1 0.45857295E-01 0.19305481E+04</pdfrwt>
<totfact> 0.73076354E+00</totfact>
</mgrwt>
</event>
<event>
12    6  0.1457317E-007  0.2634411E+04  0.7818608E-02  0.8356606E-01
         -1   -1    0    0    0  501 -0.00000000000E+00  0.00000000000E+00  0.10840853052E+04  0.10840853052E+04  0.00000000000E+00 0.  1.
          2   -1    0    0  501    0  0.00000000000E+00 -0.00000000000E+00 -0.16004552737E+04  0.16004552737E+04  0.00000000000E+00 0. -1.
         24    2    1    2    0    0  0.10520273099E+03 -0.91730877199E+03  0.49023722936E+03  0.10484015283E+04  0.79310942972E+02 0.  0.
        254    2    1    2    0    0 -0.10520273099E+03  0.91730877199E+03 -0.10066071978E+04  0.16361390506E+04  0.90064973468E+03 0.  0.
         23    2    4    4    0    0 -0.39409744558E+03  0.19612923388E+03 -0.14570779691E+03  0.47294730522E+03  0.93107026839E+02 0.  0.
         23    2    4    4    0    0  0.28889471458E+03  0.72117953811E+03 -0.86089940088E+03  0.11631917454E+04  0.91143709841E+02 0.  0.
          4    1    3    3  502    0  0.72141732030E+02 -0.30641630230E+03  0.17524188893E+03  0.36028474774E+03  0.00000000000E+00 0. -1.
         -3    1    3    3    0  502  0.33060998962E+02 -0.61089246969E+03  0.31499534044E+03  0.68811678055E+03  0.00000000000E+00 0.  1.
         11    1    5    5    0    0 -0.43343958225E+02 -0.36336137258E+01  0.87869138128E+00  0.43504872852E+02  0.00000000000E+00 0. -1.
        -11    1    5    5    0    0 -0.35075348735E+03  0.19976284761E+03 -0.14658648829E+03  0.42944243237E+03  0.00000000000E+00 0.  1.
          4    1    6    6  503    0  0.93946245295E+02  0.31632425315E+03 -0.31562340939E+03  0.45662355030E+03  0.00000000000E+00 0. -1.
         -4    1    6    6    0  503  0.19494846929E+03  0.40485528496E+03 -0.54527599149E+03  0.70656819511E+03  0.00000000000E+00 0.  1.
<mgrwt>
<rscale>  0 0.26344108E+04</rscale>
<asrwt>0</asrwt>
<pdfrwt beam="1">  1        2 0.24622389E+00 0.26344108E+04</pdfrwt>
<pdfrwt beam="2">  1       -1 0.16678235E+00 0.26344108E+04</pdfrwt>
<totfact> 0.29096068E+00</totfact>
</mgrwt>
</event>
<event>
12    6  0.1457317E-007  0.1535766E+04  0.7818608E-02  0.8861011E-01
          2   -1    0    0  501    0  0.00000000000E+00  0.00000000000E+00  0.81164851811E+03  0.81164851811E+03  0.00000000000E+00 0. -1.
         -1   -1    0    0    0  501 -0.00000000000E+00 -0.00000000000E+00 -0.72647744491E+03  0.72647744491E+03  0.00000000000E+00 0.  1.
         24    2    1    2    0    0 -0.36420472934E+03  0.25989557176E+03  0.30944104795E+03  0.54985855759E+03  0.79999238144E+02 0.  0.
        254    2    1    2    0    0  0.36420472934E+03 -0.25989557176E+03 -0.22426997475E+03  0.98826740544E+03  0.85216468478E+03 0.  0.
         23    2    4    4    0    0  0.13401360154E+03  0.20590242207E+03  0.18478315608E+03  0.32060159785E+03  0.91022617852E+02 0.  0.
         23    2    4    4    0    0  0.23019112780E+03 -0.46579799383E+03 -0.40905313083E+03  0.66766580759E+03  0.92181562208E+02 0.  0.
          2    1    3    3  502    0 -0.17491929222E+03  0.15231912766E+03  0.11943529649E+03  0.26088822413E+03  0.00000000000E+00 0. -1.
         -1    1    3    3    0  502 -0.18928543711E+03  0.10757644410E+03  0.19000575147E+03  0.28897033346E+03  0.00000000000E+00 0.  1.
         11    1    5    5    0    0  0.17497165935E+02  0.57580867977E+02  0.55942818071E+01  0.60440079101E+02  0.00000000000E+00 0.  1.
        -11    1    5    5    0    0  0.11651643561E+03  0.14832155409E+03  0.17918887427E+03  0.26016151875E+03  0.00000000000E+00 0. -1.
          2    1    6    6  503    0  0.22748286555E+03 -0.44952906622E+03 -0.36941618815E+03  0.62473446805E+03  0.00000000000E+00 0. -1.
         -2    1    6    6    0  503  0.27082622449E+01 -0.16268927602E+02 -0.39636942678E+02  0.42931339538E+02  0.00000000000E+00 0.  1.
<mgrwt>
<rscale>  0 0.15357661E+04</rscale>
<asrwt>0</asrwt>
<pdfrwt beam="1">  1        2 0.12486900E+00 0.15357661E+04</pdfrwt>
<pdfrwt beam="2">  1       -1 0.11176576E+00 0.15357661E+04</pdfrwt>
<totfact> 0.27322393E+01</totfact>
</mgrwt>
</event>
<event>
12    6  0.1457317E-007  0.1489828E+04  0.7818608E-02  0.8891245E-01
         -1   -1    0    0    0  501 -0.00000000000E+00  0.00000000000E+00  0.78468104987E+03  0.78468104987E+03  0.00000000000E+00 0.  1.
          2   -1    0    0  501    0  0.00000000000E+00 -0.00000000000E+00 -0.70716237156E+03  0.70716237156E+03  0.00000000000E+00 0. -1.
         24    2    1    2    0    0 -0.15183319931E+03  0.38939974289E+03  0.22920595879E+03  0.48327877996E+03  0.79608588984E+02 0.  0.
        254    2    1    2    0    0  0.15183319931E+03 -0.38939974289E+03 -0.15168728048E+03  0.10085646415E+04  0.90526688043E+03 0.  0.
         23    2    4    4    0    0 -0.31836471474E+01 -0.27061338412E+03 -0.51319911743E+03  0.58742336135E+03  0.91930038892E+02 0.  0.
         23    2    4    4    0    0  0.15501684646E+03 -0.11878635877E+03  0.36151183695E+03  0.42114128013E+03  0.92351220122E+02 0.  0.
          4    1    3    3  502    0 -0.11653323938E+03  0.23561271400E+03  0.17774918419E+03  0.31731391297E+03  0.00000000000E+00 0. -1.
         -3    1    3    3    0  502 -0.35299959936E+02  0.15378702889E+03  0.51456774596E+02  0.16596486700E+03  0.00000000000E+00 0.  1.
         11    1    5    5    0    0 -0.28030789272E+02 -0.38702669561E+02 -0.13366417274E+03  0.14194975467E+03  0.00000000000E+00 0. -1.
        -11    1    5    5    0    0  0.24847142125E+02 -0.23191071456E+03 -0.37953494469E+03  0.44547360667E+03  0.00000000000E+00 0.  1.
          2    1    6    6  503    0  0.61521970679E+02 -0.95321043854E+02  0.14474777733E+03  0.18391023169E+03  0.00000000000E+00 0. -1.
         -2    1    6    6    0  503  0.93494875783E+02 -0.23465314914E+02  0.21676405962E+03  0.23723104844E+03  0.00000000000E+00 0.  1.
<mgrwt>
<rscale>  0 0.14898281E+04</rscale>
<asrwt>0</asrwt>
<pdfrwt beam="1">  1        2 0.10879421E+00 0.14898281E+04</pdfrwt>
<pdfrwt beam="2">  1       -1 0.12072016E+00 0.14898281E+04</pdfrwt>
<totfact> 0.27257534E+01</totfact>
</mgrwt>
</event>
<event>
12    6  0.1457317E-007  0.1642698E+04  0.7818608E-02  0.8794738E-01
          2   -1    0    0  501    0  0.00000000000E+00  0.00000000000E+00  0.82543325311E+03  0.82543325311E+03  0.00000000000E+00 0. -1.
         -1   -1    0    0    0  501 -0.00000000000E+00 -0.00000000000E+00 -0.81728504894E+03  0.81728504894E+03  0.00000000000E+00 0.  1.
         24    2    1    2    0    0 -0.16926481176E+02 -0.24194533729E+03  0.53084856181E+03  0.58919228108E+03  0.80766927068E+02 0.  0.
        254    2    1    2    0    0  0.16926481176E+02  0.24194533729E+03 -0.52270035764E+03  0.10535260210E+04  0.88197356025E+03 0.  0.
         23    2    4    4    0    0  0.11552068124E+03  0.51987859604E+03 -0.51312081862E+03  0.74468424210E+03  0.87423472340E+02 0.  0.
         23    2    4    4    0    0 -0.98594200065E+02 -0.27793325875E+03 -0.95795390131E+01  0.30884177886E+03  0.91234665540E+02 0.  0.
          2    1    3    3  502    0  0.29450110632E+02 -0.14716043091E+03  0.31617028792E+03  0.34998164582E+03  0.00000000000E+00 0. -1.
         -1    1    3    3    0  502 -0.46376591808E+02 -0.94784906378E+02  0.21467827389E+03  0.23921063527E+03  0.00000000000E+00 0.  1.
         11    1    5    5    0    0  0.12766001771E+03  0.48580569372E+03 -0.46505748502E+03  0.68453101941E+03  0.00000000000E+00 0. -1.
        -11    1    5    5    0    0 -0.12139336467E+02  0.34072902327E+02 -0.48063333605E+02  0.60153222690E+02  0.00000000000E+00 0.  1.
          3    1    6    6  503    0 -0.81600549541E+02 -0.27984696376E+03 -0.73299263457E+01  0.29159338235E+03  0.00000000000E+00 0. -1.
         -3    1    6    6    0  503 -0.16993650524E+02  0.19137050091E+01 -0.22496126674E+01  0.17248396510E+02  0.00000000000E+00 0.  1.
<mgrwt>
<rscale>  0 0.16426981E+04</rscale>
<asrwt>0</asrwt>
<pdfrwt beam="1">  1        2 0.12698973E+00 0.16426981E+04</pdfrwt>
<pdfrwt beam="2">  1       -1 0.12573616E+00 0.16426981E+04</pdfrwt>
<totfact> 0.19878573E+01</totfact>
</mgrwt>
</event>
<event>
12    6  0.1457317E-007  0.2060377E+04  0.7818608E-02  0.8578901E-01
          2   -1    0    0  501    0  0.00000000000E+00  0.00000000000E+00  0.95450159117E+03  0.95450159117E+03  0.00000000000E+00 0. -1.
         -1   -1    0    0    0  501 -0.00000000000E+00 -0.00000000000E+00 -0.11118765805E+04  0.11118765805E+04  0.00000000000E+00 0.  1.
         24    2    1    2    0    0 -0.74277580959E+03  0.31076304055E+03  0.22014215697E+03  0.83841987992E+03  0.78713118806E+02 0.  0.
        254    2    1    2    0    0  0.74277580959E+03 -0.31076304055E+03 -0.37751714629E+03  0.12279582917E+04  0.84680151148E+03 0.  0.
         23    2    4    4    0    0  0.23637029276E+03 -0.45649784072E+03 -0.44874039254E+03  0.68833322645E+03  0.90407393819E+02 0.  0.
         23    2    4    4    0    0  0.50640551683E+03  0.14573480017E+03  0.71223246253E+02  0.53962506530E+03  0.91854672340E+02 0.  0.
          4    1    3    3  502    0 -0.71246794114E+03  0.27915525797E+03  0.20741523382E+03  0.79281732097E+03  0.00000000000E+00 0. -1.
         -3    1    3    3    0  502 -0.30307868455E+02  0.31607782579E+02  0.12726923152E+02  0.45602558950E+02  0.00000000000E+00 0.  1.
         11    1    5    5    0    0  0.23439428568E+03 -0.39757530863E+03 -0.38050249343E+03  0.59815462440E+03  0.00000000000E+00 0. -1.
        -11    1    5    5    0    0  0.19760070829E+01 -0.58922532088E+02 -0.68237899112E+02  0.90178602046E+02  0.00000000000E+00 0.  1.
          1    1    6    6  503    0  0.44772638919E+03  0.13334434110E+03  0.32612977157E+02  0.46829823741E+03  0.00000000000E+00 0. -1.
         -1    1    6    6    0  503  0.58679127639E+02  0.12390459065E+02  0.38610269096E+02  0.71326827884E+02  0.00000000000E+00 0.  1.
<mgrwt>
<rscale>  0 0.20603766E+04</rscale>
<asrwt>0</asrwt>
<pdfrwt beam="1">  1        2 0.14684640E+00 0.20603766E+04</pdfrwt>
<pdfrwt beam="2">  1       -1 0.17105793E+00 0.20603766E+04</pdfrwt>
<totfact> 0.68736594E+00</totfact>
</mgrwt>
</event>
<event>
12    6  0.1457317E-007  0.2153587E+04  0.7818608E-02  0.8537998E-01
          2   -1    0    0  501    0  0.00000000000E+00  0.00000000000E+00  0.31149015470E+04  0.31149015470E+04  0.00000000000E+00 0. -1.
         -1   -1    0    0    0  501 -0.00000000000E+00 -0.00000000000E+00 -0.37223784459E+03  0.37223784459E+03  0.00000000000E+00 0.  1.
         24    2    1    2    0    0 -0.30863769013E+03 -0.95399844655E+02  0.24727606336E+04  0.24952340355E+04  0.85377904177E+02 0.  0.
        254    2    1    2    0    0  0.30863769013E+03  0.95399844655E+02  0.26990306875E+03  0.99190535607E+03  0.89814821424E+03 0.  0.
         23    2    4    4    0    0 -0.30925134381E+03  0.64846288191E+01  0.60552075448E+02  0.32752317654E+03  0.89030518727E+02 0.  0.
         23    2    4    4    0    0  0.61788903394E+03  0.88915215836E+02  0.20935099330E+03  0.66438217953E+03  0.88786644319E+02 0.  0.
          2    1    3    3  502    0 -0.12326647256E+03 -0.69575455960E+02  0.84843606389E+03  0.86016226483E+03  0.00000000000E+00 0. -1.
         -1    1    3    3    0  502 -0.18537121757E+03 -0.25824388695E+02  0.16243245697E+04  0.16350717707E+04  0.00000000000E+00 0.  1.
         11    1    5    5    0    0 -0.88368760748E+02 -0.38505124968E+02  0.15106123640E+02  0.97569859570E+02  0.00000000000E+00 0.  1.
        -11    1    5    5    0    0 -0.22088258307E+03  0.44989753787E+02  0.45445951808E+02  0.22995331697E+03  0.00000000000E+00 0. -1.
          3    1    6    6  503    0  0.55639844832E+03  0.53307006368E+02  0.19425521637E+03  0.59173977330E+03  0.00000000000E+00 0. -1.
         -3    1    6    6    0  503  0.61490585625E+02  0.35608209467E+02  0.15095776932E+02  0.72642406232E+02  0.00000000000E+00 0.  1.
<mgrwt>
<rscale>  0 0.21535870E+04</rscale>
<asrwt>0</asrwt>
<pdfrwt beam="1">  1        2 0.47921561E+00 0.21535870E+04</pdfrwt>
<pdfrwt beam="2">  1       -1 0.57267363E-01 0.21535870E+04</pdfrwt>
<totfact> 0.47552339E+00</totfact>
</mgrwt>
</event>
<event>
12    6  0.1457317E-007  0.1257285E+04  0.7818608E-02  0.9064141E-01
          2   -1    0    0  501    0  0.00000000000E+00  0.00000000000E+00  0.41518497870E+04  0.41518497870E+04  0.00000000000E+00 0. -1.
         -1   -1    0    0    0  501 -0.00000000000E+00 -0.00000000000E+00 -0.95184486994E+02  0.95184486994E+02  0.00000000000E+00 0.  1.
         24    2    1    2    0    0 -0.24436248636E+03 -0.83149838583E+02  0.50618876591E+03  0.57379006306E+03  0.79881470519E+02 0.  0.
        254    2    1    2    0    0  0.24436248636E+03  0.83149838583E+02  0.35504765341E+04  0.36732442109E+04  0.90565583618E+03 0.  0.
         23    2    4    4    0    0  0.32343585381E+02  0.18807030161E+03  0.14257106097E+03  0.25589237632E+03  0.93476494205E+02 0.  0.
         23    2    4    4    0    0  0.21201890098E+03 -0.10492046302E+03  0.34079054731E+04  0.34173518346E+04  0.92268791611E+02 0.  0.
          2    1    3    3  502    0 -0.61468375839E+02 -0.43414363789E+02  0.21352416328E+03  0.22639729794E+03  0.00000000000E+00 0. -1.
         -1    1    3    3    0  502 -0.18289411052E+03 -0.39735474794E+02  0.29266460263E+03  0.34739276512E+03  0.00000000000E+00 0.  1.
         11    1    5    5    0    0 -0.29290391838E+02  0.76587718351E+02  0.77596850865E+02  0.11289321025E+03  0.00000000000E+00 0. -1.
        -11    1    5    5    0    0  0.61633977219E+02  0.11148258325E+03  0.64974210110E+02  0.14299916607E+03  0.00000000000E+00 0.  1.
          3    1    6    6  503    0  0.18552298007E+03 -0.99707815577E+02  0.24410980173E+04  0.24501673319E+04  0.00000000000E+00 0. -1.
         -3    1    6    6    0  503  0.26495920916E+02 -0.52126474454E+01  0.96680745585E+03  0.96718450267E+03  0.00000000000E+00 0.  1.
<mgrwt>
<rscale>  0 0.12572855E+04</rscale>
<asrwt>0</asrwt>
<pdfrwt beam="1">  1        2 0.63874598E+00 0.12572855E+04</pdfrwt>
<pdfrwt beam="2">  1       -1 0.14643770E-01 0.12572855E+04</pdfrwt>
<totfact> 0.10207802E+01</totfact>
</mgrwt>
</event>
<event>
12    6  0.1457317E-007  0.1053754E+04  0.7818608E-02  0.9251477E-01
         -1   -1    0    0    0  501 -0.00000000000E+00  0.00000000000E+00  0.73098942784E+03  0.73098942784E+03  0.00000000000E+00 0.  1.
          2   -1    0    0  501    0  0.00000000000E+00 -0.00000000000E+00 -0.37975861928E+03  0.37975861928E+03  0.00000000000E+00 0. -1.
         24    2    1    2    0    0 -0.85145433379E+02  0.27469157131E+02  0.15080881482E+03  0.19238185628E+03  0.79140258896E+02 0.  0.
        254    2    1    2    0    0  0.85145433379E+02 -0.27469157131E+02  0.20042199374E+03  0.91836619084E+03  0.89175287243E+03 0.  0.
         23    2    4    4    0    0  0.35316864573E+03  0.23928264549E+02 -0.20633602354E+03  0.41964091203E+03  0.90682337132E+02 0.  0.
         23    2    4    4    0    0 -0.26802321235E+03 -0.51397421680E+02  0.40675801728E+03  0.49872527881E+03  0.93790627393E+02 0.  0.
          4    1    3    3  502    0 -0.62433395358E+02  0.23986727649E+02  0.15519143904E+03  0.16899016158E+03  0.00000000000E+00 0. -1.
         -3    1    3    3    0  502 -0.22712038021E+02  0.34824294819E+01 -0.43826242112E+01  0.23391694705E+02  0.00000000000E+00 0.  1.
         11    1    5    5    0    0  0.25872779300E+03  0.57748754821E+02 -0.15012199761E+03  0.30464996918E+03  0.00000000000E+00 0. -1.
        -11    1    5    5    0    0  0.94440852734E+02 -0.33820490272E+02 -0.56214025929E+02  0.11499094285E+03  0.00000000000E+00 0.  1.
          3    1    6    6  503    0 -0.16487469002E+03 -0.74452497511E+02  0.22790952452E+03  0.29098039309E+03  0.00000000000E+00 0. -1.
         -3    1    6    6    0  503 -0.10314852234E+03  0.23055075831E+02  0.17884849275E+03  0.20774488572E+03  0.00000000000E+00 0.  1.
<mgrwt>
<rscale>  0 0.10537543E+04</rscale>
<asrwt>0</asrwt>
<pdfrwt beam="1">  1        2 0.58424403E-01 0.10537543E+04</pdfrwt>
<pdfrwt beam="2">  1       -1 0.11245991E+00 0.10537543E+04</pdfrwt>
<totfact> 0.69617838E+01</totfact>
</mgrwt>
</event>
<event>
12    6  0.1457317E-007  0.1406531E+04  0.7818608E-02  0.8949104E-01
          2   -1    0    0  501    0  0.00000000000E+00  0.00000000000E+00  0.51588347778E+03  0.51588347778E+03  0.00000000000E+00 0. -1.
         -1   -1    0    0    0  501 -0.00000000000E+00 -0.00000000000E+00 -0.95870970145E+03  0.95870970145E+03  0.00000000000E+00 0.  1.
         24    2    1    2    0    0 -0.32139800613E+03  0.25673877337E+03 -0.13077972496E+03  0.43909785684E+03  0.80573663958E+02 0.  0.
        254    2    1    2    0    0  0.32139800613E+03 -0.25673877337E+03 -0.31204649870E+03  0.10354953224E+04  0.89758903137E+03 0.  0.
         23    2    4    4    0    0  0.51220738526E+03 -0.40572965298E+03 -0.40773376065E+02  0.66104472846E+03  0.91349373349E+02 0.  0.
         23    2    4    4    0    0 -0.19080937913E+03  0.14899087961E+03 -0.27127312264E+03  0.37445059393E+03  0.89541269012E+02 0.  0.
          4    1    3    3  502    0 -0.30546610306E+03  0.26017879833E+03 -0.11757901229E+03  0.41812363165E+03  0.00000000000E+00 0. -1.
         -3    1    3    3    0  502 -0.15931903072E+02 -0.34400249538E+01 -0.13200712670E+02  0.20974225186E+02  0.00000000000E+00 0.  1.
         11    1    5    5    0    0  0.49333283114E+03 -0.37004933830E+03 -0.23512229123E+02  0.61714392161E+03  0.00000000000E+00 0.  1.
        -11    1    5    5    0    0  0.18874554119E+02 -0.35680314683E+02 -0.17261146942E+02  0.43900806859E+02  0.00000000000E+00 0. -1.
          3    1    6    6  503    0 -0.13127548817E+03  0.88329083039E+02 -0.11178979801E+03  0.19373239183E+03  0.00000000000E+00 0.  1.
         -3    1    6    6    0  503 -0.59533890962E+02  0.60661796569E+02 -0.15948332462E+03  0.18071820210E+03  0.00000000000E+00 0. -1.
<mgrwt>
<rscale>  0 0.14065312E+04</rscale>
<asrwt>0</asrwt>
<pdfrwt beam="1">  1        2 0.79366689E-01 0.14065312E+04</pdfrwt>
<pdfrwt beam="2">  1       -1 0.14749380E+00 0.14065312E+04</pdfrwt>
<totfact> 0.24110507E+01</totfact>
</mgrwt>
</event>
<event>
12    6  0.1457317E-007  0.1393681E+04  0.7818608E-02  0.8958405E-01
          2   -1    0    0  501    0  0.00000000000E+00  0.00000000000E+00  0.21788654944E+04  0.21788654944E+04  0.00000000000E+00 0. -1.
         -1   -1    0    0    0  501 -0.00000000000E+00 -0.00000000000E+00 -0.22286215167E+03  0.22286215167E+03  0.00000000000E+00 0.  1.
         24    2    1    2    0    0 -0.10560882326E+03  0.26194933126E+03  0.10635859139E+04  0.11028040039E+04  0.72048587864E+02 0.  0.
        254    2    1    2    0    0  0.10560882326E+03 -0.26194933126E+03  0.89241742885E+03  0.12989236422E+04  0.90056820134E+03 0.  0.
         23    2    4    4    0    0  0.27862562948E+03  0.14798084989E+03  0.38381091133E+02  0.33157833910E+03  0.94554288497E+02 0.  0.
         23    2    4    4    0    0 -0.17301680622E+03 -0.40993018115E+03  0.85403633772E+03  0.96734530310E+03  0.91658609228E+02 0.  0.
          4    1    3    3  502    0 -0.95059912758E+02  0.14480388546E+03  0.66897206755E+03  0.69103413767E+03  0.00000000000E+00 0. -1.
         -3    1    3    3    0  502 -0.10548910499E+02  0.11714544580E+03  0.39461384633E+03  0.41176986619E+03  0.00000000000E+00 0.  1.
         11    1    5    5    0    0  0.26137746062E+03  0.15703166925E+03  0.49856865412E+02  0.30897059585E+03  0.00000000000E+00 0. -1.
        -11    1    5    5    0    0  0.17248168854E+02 -0.90508193639E+01 -0.11475774279E+02  0.22607743259E+02  0.00000000000E+00 0.  1.
          3    1    6    6  503    0 -0.16519053834E+03 -0.29661047541E+03  0.66919262969E+03  0.75038954132E+03  0.00000000000E+00 0. -1.
         -3    1    6    6    0  503 -0.78262678788E+01 -0.11331970573E+03  0.18484370803E+03  0.21695576179E+03  0.00000000000E+00 0.  1.
<mgrwt>
<rscale>  0 0.13936810E+04</rscale>
<asrwt>0</asrwt>
<pdfrwt beam="1">  1        2 0.33521006E+00 0.13936810E+04</pdfrwt>
<pdfrwt beam="2">  1       -1 0.34286486E-01 0.13936810E+04</pdfrwt>
<totfact> 0.47463472E+01</totfact>
</mgrwt>
</event>
<event>
12    6  0.1457317E-007  0.1565186E+04  0.7818608E-02  0.8842226E-01
         -1   -1    0    0    0  501 -0.00000000000E+00  0.00000000000E+00  0.42828567260E+03  0.42828567260E+03  0.00000000000E+00 0.  1.
          2   -1    0    0  501    0  0.00000000000E+00 -0.00000000000E+00 -0.14300078109E+04  0.14300078109E+04  0.00000000000E+00 0. -1.
         24    2    1    2    0    0  0.18304001963E+03  0.12845070515E+03  0.22063853879E+03  0.32415139012E+03  0.79934513661E+02 0.  0.
        254    2    1    2    0    0 -0.18304001963E+03 -0.12845070515E+03 -0.12223606771E+04  0.15341420934E+04  0.89967944588E+03 0.  0.
         23    2    4    4    0    0 -0.88994587629E+02  0.32751494893E+03 -0.19262446730E+03  0.39951935070E+03  0.85588829752E+02 0.  0.
         23    2    4    4    0    0 -0.94045432001E+02 -0.45596565408E+03 -0.10297362098E+04  0.11346227427E+04  0.10130590049E+03 0.  0.
          4    1    3    3  502    0  0.78148789449E+01  0.11534979336E+02  0.53397701167E+02  0.55185528639E+02  0.00000000000E+00 0. -1.
         -3    1    3    3    0  502  0.17522514068E+03  0.11691572582E+03  0.16724083762E+03  0.26896586148E+03  0.00000000000E+00 0.  1.
         11    1    5    5    0    0  0.14480649277E+02  0.58414249973E+02 -0.47938939208E+02  0.76941898181E+02  0.00000000000E+00 0. -1.
        -11    1    5    5    0    0 -0.10347523691E+03  0.26910069896E+03 -0.14468552810E+03  0.32257745252E+03  0.00000000000E+00 0.  1.
          3    1    6    6  503    0  0.21410053511E+02 -0.96773754808E+02 -0.20745020685E+03  0.22991115313E+03  0.00000000000E+00 0. -1.
         -3    1    6    6    0  503 -0.11545548551E+03 -0.35919189928E+03 -0.82228600291E+03  0.90471158952E+03  0.00000000000E+00 0.  1.
<mgrwt>
<rscale>  0 0.15651861E+04</rscale>
<asrwt>0</asrwt>
<pdfrwt beam="1">  1        2 0.22000120E+00 0.15651861E+04</pdfrwt>
<pdfrwt beam="2">  1       -1 0.65890103E-01 0.15651861E+04</pdfrwt>
<totfact> 0.35582559E+01</totfact>
</mgrwt>
</event>
<event>
12    6  0.1457317E-007  0.1548227E+04  0.7818608E-02  0.8853001E-01
         -3   -1    0    0    0  501 -0.00000000000E+00  0.00000000000E+00  0.28810469738E+03  0.28810469738E+03  0.00000000000E+00 0.  1.
          2   -1    0    0  501    0  0.00000000000E+00 -0.00000000000E+00 -0.20799793014E+04  0.20799793014E+04  0.00000000000E+00 0. -1.
         24    2    1    2    0    0 -0.44891376101E+03  0.16824180432E+03 -0.34907934936E+03  0.59853822671E+03  0.81010784096E+02 0.  0.
        254    2    1    2    0    0  0.44891376101E+03 -0.16824180432E+03 -0.14427952546E+04  0.17695457721E+04  0.90543095986E+03 0.  0.
         23    2    4    4    0    0  0.35414919955E+02 -0.38293722278E+03 -0.20784813958E+03  0.44609923885E+03  0.88930020994E+02 0.  0.
         23    2    4    4    0    0  0.41349884105E+03  0.21469541846E+03 -0.12349471151E+04  0.13234465332E+04  0.96648512612E+02 0.  0.
          4    1    3    3  502    0 -0.42520217782E+03  0.15725375960E+03 -0.30211637417E+03  0.54479348425E+03  0.00000000000E+00 0. -1.
         -3    1    3    3    0  502 -0.23711583187E+02  0.10988044715E+02 -0.46962975192E+02  0.53744742466E+02  0.00000000000E+00 0.  1.
         11    1    5    5    0    0 -0.45034783948E+01 -0.14730843444E+02 -0.33247482795E+02  0.36642518724E+02  0.00000000000E+00 0. -1.
        -11    1    5    5    0    0  0.39918398350E+02 -0.36820637934E+03 -0.17460065678E+03  0.40945672013E+03  0.00000000000E+00 0.  1.
          1    1    6    6  503    0  0.24221926791E+03  0.85899810961E+02 -0.58161916800E+03  0.63586933238E+03  0.00000000000E+00 0. -1.
         -1    1    6    6    0  503  0.17127957314E+03  0.12879560750E+03 -0.65332794706E+03  0.68757720083E+03  0.00000000000E+00 0.  1.
<mgrwt>
<rscale>  0 0.15482271E+04</rscale>
<asrwt>0</asrwt>
<pdfrwt beam="1">  1        2 0.31999682E+00 0.15482271E+04</pdfrwt>
<pdfrwt beam="2">  1       -3 0.44323799E-01 0.15482271E+04</pdfrwt>
<totfact> 0.18938379E+01</totfact>
</mgrwt>
</event>
<event>
12    6  0.1457317E-007  0.1854126E+04  0.7818608E-02  0.8678034E-01
         -1   -1    0    0    0  501 -0.00000000000E+00  0.00000000000E+00  0.95269979976E+03  0.95269979976E+03  0.00000000000E+00 0.  1.
          2   -1    0    0  501    0  0.00000000000E+00 -0.00000000000E+00 -0.90211606026E+03  0.90211606026E+03  0.00000000000E+00 0. -1.
         24    2    1    2    0    0 -0.35925991187E+03  0.77074985668E+02  0.61972143510E+03  0.72474735437E+03  0.78713612845E+02 0.  0.
        254    2    1    2    0    0  0.35925991187E+03 -0.77074985668E+02 -0.56913769560E+03  0.11300685057E+04  0.90450476684E+03 0.  0.
         23    2    4    4    0    0  0.21684512089E+03  0.38381683507E+03 -0.12471560013E+03  0.46720257868E+03  0.91581107633E+02 0.  0.
         23    2    4    4    0    0  0.14241479098E+03 -0.46089182073E+03 -0.44442209547E+03  0.66286592698E+03  0.95796634072E+02 0.  0.
          4    1    3    3  502    0 -0.12361392053E+03  0.35723290851E+02  0.15015597267E+03  0.19774572306E+03  0.00000000000E+00 0. -1.
         -3    1    3    3    0  502 -0.23564599134E+03  0.41351694817E+02  0.46956546242E+03  0.52700163131E+03  0.00000000000E+00 0.  1.
         11    1    5    5    0    0  0.42968238478E+02  0.16621244208E+03 -0.44853605601E+02  0.17743926103E+03  0.00000000000E+00 0. -1.
        -11    1    5    5    0    0  0.17387688241E+03  0.21760439298E+03 -0.79861994531E+02  0.28976331765E+03  0.00000000000E+00 0.  1.
          1    1    6    6  503    0  0.13547260520E+03 -0.46448764906E+03 -0.43513135285E+03  0.65072336452E+03  0.00000000000E+00 0. -1.
         -1    1    6    6    0  503  0.69421857794E+01  0.35958283307E+01 -0.92907426149E+01  0.12142562461E+02  0.00000000000E+00 0.  1.
<mgrwt>
<rscale>  0 0.18541260E+04</rscale>
<asrwt>0</asrwt>
<pdfrwt beam="1">  1        2 0.13878709E+00 0.18541260E+04</pdfrwt>
<pdfrwt beam="2">  1       -1 0.14656920E+00 0.18541260E+04</pdfrwt>
<totfact> 0.11639495E+01</totfact>
</mgrwt>
</event>
<event>
12    6  0.1457317E-007  0.1893878E+04  0.7818608E-02  0.8657910E-01
         -1   -1    0    0    0  501 -0.00000000000E+00  0.00000000000E+00  0.56663136105E+03  0.56663136105E+03  0.00000000000E+00 0.  1.
          2   -1    0    0  501    0  0.00000000000E+00 -0.00000000000E+00 -0.15824986890E+04  0.15824986890E+04  0.00000000000E+00 0. -1.
         24    2    1    2    0    0  0.53037728595E+02 -0.41852993806E+03  0.29086046587E+03  0.51899459311E+03  0.82312012238E+02 0.  0.
        254    2    1    2    0    0 -0.53037728595E+02  0.41852993806E+03 -0.13067277938E+04  0.16301354569E+04  0.87853501416E+03 0.  0.
         23    2    4    4    0    0 -0.35358838184E+02  0.67412348895E+03 -0.77034976628E+03  0.10287977649E+04  0.96402037440E+02 0.  0.
         23    2    4    4    0    0 -0.17678890411E+02 -0.25559355089E+03 -0.53637802753E+03  0.60133769204E+03  0.90912183103E+02 0.  0.
          4    1    3    3  502    0 -0.10195626246E+02 -0.21221820333E+03  0.16657060249E+03  0.26997459553E+03  0.00000000000E+00 0. -1.
         -3    1    3    3    0  502  0.63233354842E+02 -0.20631173473E+03  0.12428986338E+03  0.24901999757E+03  0.00000000000E+00 0.  1.
         11    1    5    5    0    0 -0.32658271424E+01  0.24726450235E+03 -0.35261869567E+03  0.43068589980E+03  0.00000000000E+00 0. -1.
        -11    1    5    5    0    0 -0.32093011042E+02  0.42685898660E+03 -0.41773107061E+03  0.59811186509E+03  0.00000000000E+00 0.  1.
          1    1    6    6  503    0 -0.37384251119E+02 -0.14254090095E+03 -0.22002897682E+03  0.26481737352E+03  0.00000000000E+00 0. -1.
         -1    1    6    6    0  503  0.19705360708E+02 -0.11305264994E+03 -0.31634905071E+03  0.33652031853E+03  0.00000000000E+00 0.  1.
<mgrwt>
<rscale>  0 0.18938779E+04</rscale>
<asrwt>0</asrwt>
<pdfrwt beam="1">  1        2 0.24346133E+00 0.18938779E+04</pdfrwt>
<pdfrwt beam="2">  1       -1 0.87174057E-01 0.18938779E+04</pdfrwt>
<totfact> 0.15777469E+01</totfact>
</mgrwt>
</event>
<event>
12    6  0.1457317E-007  0.1591113E+04  0.7818608E-02  0.8826026E-01
          2   -1    0    0  501    0  0.00000000000E+00  0.00000000000E+00  0.84806276232E+03  0.84806276232E+03  0.00000000000E+00 0. -1.
         -1   -1    0    0    0  501 -0.00000000000E+00 -0.00000000000E+00 -0.74630117461E+03  0.74630117461E+03  0.00000000000E+00 0.  1.
         24    2    1    2    0    0 -0.11901953259E+03  0.99004482772E+02  0.54855944718E+03  0.57566690586E+03  0.80668349881E+02 0.  0.
        254    2    1    2    0    0  0.11901953259E+03 -0.99004482772E+02 -0.44679785947E+03  0.10186970311E+04  0.90230137821E+03 0.  0.
         23    2    4    4    0    0  0.29379742428E+03  0.16646463305E+03  0.11332331425E+03  0.36822731554E+03  0.93390480165E+02 0.  0.
         23    2    4    4    0    0 -0.17477789170E+03 -0.26546911583E+03 -0.56012117372E+03  0.65046971552E+03  0.91399992743E+02 0.  0.
          2    1    3    3  502    0 -0.42803828418E+02  0.53566729855E+02  0.36972317561E+03  0.37602764374E+03  0.00000000000E+00 0. -1.
         -1    1    3    3    0  502 -0.76215704171E+02  0.45437752917E+02  0.17883627156E+03  0.19963926212E+03  0.00000000000E+00 0.  1.
         11    1    5    5    0    0  0.19810578491E+03  0.88048696449E+02  0.29504350963E+02  0.21878981166E+03  0.00000000000E+00 0.  1.
        -11    1    5    5    0    0  0.95691639376E+02  0.78415936604E+02  0.83818963289E+02  0.14943750388E+03  0.00000000000E+00 0. -1.
          3    1    6    6  503    0 -0.58086234509E+02 -0.15626676595E+03 -0.33740177337E+03  0.37634195813E+03  0.00000000000E+00 0. -1.
         -3    1    6    6    0  503 -0.11669165719E+03 -0.10920234988E+03 -0.22271940035E+03  0.27412775738E+03  0.00000000000E+00 0.  1.
<mgrwt>
<rscale>  0 0.15911131E+04</rscale>
<asrwt>0</asrwt>
<pdfrwt beam="1">  1        2 0.13047119E+00 0.15911131E+04</pdfrwt>
<pdfrwt beam="2">  1       -1 0.11481556E+00 0.15911131E+04</pdfrwt>
<totfact> 0.24036072E+01</totfact>
</mgrwt>
</event>
<event>
12    6  0.1457317E-007  0.2049139E+04  0.7818608E-02  0.8583985E-01
          2   -1    0    0  501    0  0.00000000000E+00  0.00000000000E+00  0.88489646671E+03  0.88489646671E+03  0.00000000000E+00 0. -1.
         -1   -1    0    0    0  501 -0.00000000000E+00 -0.00000000000E+00 -0.11862887965E+04  0.11862887965E+04  0.00000000000E+00 0.  1.
         24    2    1    2    0    0 -0.42095980588E+03 -0.31723461600E+03 -0.76400905153E+03  0.93156227970E+03  0.79079013542E+02 0.  0.
        254    2    1    2    0    0  0.42095980588E+03  0.31723461600E+03  0.46261672179E+03  0.11396229835E+04  0.89826574764E+03 0.  0.
         23    2    4    4    0    0  0.48574371238E+03  0.35214429911E+03  0.66870808238E+03  0.90318294931E+03  0.92824452413E+02 0.  0.
         23    2    4    4    0    0 -0.64783906500E+02 -0.34909683107E+02 -0.20609136059E+03  0.23644003415E+03  0.89524300167E+02 0.  0.
          2    1    3    3  502    0 -0.63655097958E+02 -0.86926261647E+02 -0.14519395944E+03  0.18080219113E+03  0.00000000000E+00 0. -1.
         -1    1    3    3    0  502 -0.35730470792E+03 -0.23030835436E+03 -0.61881509209E+03  0.75076008857E+03  0.00000000000E+00 0.  1.
         11    1    5    5    0    0  0.30036563780E+03  0.16106112436E+03  0.38101474604E+03  0.51120684547E+03  0.00000000000E+00 0. -1.
        -11    1    5    5    0    0  0.18537807458E+03  0.19108317475E+03  0.28769333634E+03  0.39197610384E+03  0.00000000000E+00 0.  1.
          2    1    6    6  503    0 -0.11379039933E+02  0.21801635492E+02 -0.11012057671E+03  0.11283321884E+03  0.00000000000E+00 0. -1.
         -2    1    6    6    0  503 -0.53404866566E+02 -0.56711318599E+02 -0.95970783886E+02  0.12360681531E+03  0.00000000000E+00 0.  1.
<mgrwt>
<rscale>  0 0.20491391E+04</rscale>
<asrwt>0</asrwt>
<pdfrwt beam="1">  1        2 0.13613792E+00 0.20491391E+04</pdfrwt>
<pdfrwt beam="2">  1       -1 0.18250597E+00 0.20491391E+04</pdfrwt>
<totfact> 0.63294273E+00</totfact>
</mgrwt>
</event>
<event>
12    6  0.1457317E-007  0.1720676E+04  0.7818608E-02  0.8749659E-01
         -1   -1    0    0    0  501 -0.00000000000E+00  0.00000000000E+00  0.29822036805E+03  0.29822036805E+03  0.00000000000E+00 0.  1.
          2   -1    0    0  501    0  0.00000000000E+00 -0.00000000000E+00 -0.24819937267E+04  0.24819937267E+04  0.00000000000E+00 0. -1.
         24    2    1    2    0    0 -0.64088561580E+02  0.56205762230E+03 -0.39174357685E+03  0.69285215130E+03  0.81024434861E+02 0.  0.
        254    2    1    2    0    0  0.64088561580E+02 -0.56205762230E+03 -0.17920297818E+04  0.20873619435E+04  0.90867652640E+03 0.  0.
         23    2    4    4    0    0  0.41477383894E+03 -0.46790213516E+03 -0.14449805609E+04  0.15771331426E+04  0.91708136522E+02 0.  0.
         23    2    4    4    0    0 -0.35068527736E+03 -0.94155487137E+02 -0.34704922085E+03  0.51022880089E+03  0.89693076941E+02 0.  0.
          4    1    3    3  502    0 -0.73551934627E+02  0.39228487896E+03 -0.30261473068E+03  0.50087222779E+03  0.00000000000E+00 0. -1.
         -3    1    3    3    0  502  0.94633730472E+01  0.16977274333E+03 -0.89128846174E+02  0.19197992350E+03  0.00000000000E+00 0.  1.
         11    1    5    5    0    0  0.39189663874E+02 -0.24879023898E+02 -0.64671735030E+02  0.79606713891E+02  0.00000000000E+00 0. -1.
        -11    1    5    5    0    0  0.37558417507E+03 -0.44302311126E+03 -0.13803088259E+04  0.14975264287E+04  0.00000000000E+00 0.  1.
          1    1    6    6  503    0 -0.77905535381E+02 -0.51275391178E+02 -0.54848191956E+02  0.10819779270E+03  0.00000000000E+00 0. -1.
         -1    1    6    6    0  503 -0.27277974198E+03 -0.42880095959E+02 -0.29220102890E+03  0.40203100820E+03  0.00000000000E+00 0.  1.
<mgrwt>
<rscale>  0 0.17206755E+04</rscale>
<asrwt>0</asrwt>
<pdfrwt beam="1">  1        2 0.38184520E+00 0.17206755E+04</pdfrwt>
<pdfrwt beam="2">  1       -1 0.45880055E-01 0.17206755E+04</pdfrwt>
<totfact> 0.18244403E+01</totfact>
</mgrwt>
</event>
<event>
12    6  0.1457317E-007  0.2292429E+04  0.7818608E-02  0.8480912E-01
          2   -1    0    0  501    0  0.00000000000E+00  0.00000000000E+00  0.51162263879E+04  0.51162263879E+04  0.00000000000E+00 0. -1.
         -1   -1    0    0    0  501 -0.00000000000E+00 -0.00000000000E+00 -0.25679236739E+03  0.25679236739E+03  0.00000000000E+00 0.  1.
         24    2    1    2    0    0  0.44040457337E+03  0.24164352514E+03  0.39816637521E+04  0.40140265530E+04  0.80094642602E+02 0.  0.
        254    2    1    2    0    0 -0.44040457337E+03 -0.24164352514E+03  0.87777026844E+03  0.13589922023E+04  0.90776174206E+03 0.  0.
         23    2    4    4    0    0 -0.18438884176E+03  0.60023269746E+02  0.92598456119E+03  0.95024893010E+03  0.89014514047E+02 0.  0.
         23    2    4    4    0    0 -0.25601573161E+03 -0.30166679489E+03 -0.48214292750E+02  0.40874327223E+03  0.90551281605E+02 0.  0.
          2    1    3    3  502    0  0.25274019411E+03  0.11006791184E+03  0.24159983098E+04  0.24316743992E+04  0.00000000000E+00 0. -1.
         -1    1    3    3    0  502  0.18766437926E+03  0.13157561330E+03  0.15656654423E+04  0.15823521537E+04  0.00000000000E+00 0.  1.
         11    1    5    5    0    0 -0.10766493778E+03  0.70337024471E+02  0.45023159558E+03  0.46823874839E+03  0.00000000000E+00 0.  1.
        -11    1    5    5    0    0 -0.76723903977E+02 -0.10313754725E+02  0.47575296561E+03  0.48201018171E+03  0.00000000000E+00 0. -1.
          4    1    6    6  503    0 -0.85824394748E+02 -0.17065838924E+03 -0.27013433238E+02  0.19292443631E+03  0.00000000000E+00 0.  1.
         -4    1    6    6    0  503 -0.17019133686E+03 -0.13100840565E+03 -0.21200859512E+02  0.21581883592E+03  0.00000000000E+00 0. -1.
<mgrwt>
<rscale>  0 0.22924292E+04</rscale>
<asrwt>0</asrwt>
<pdfrwt beam="1">  1        2 0.78711168E+00 0.22924292E+04</pdfrwt>
<pdfrwt beam="2">  1       -1 0.39506522E-01 0.22924292E+04</pdfrwt>
<totfact> 0.15808371E-01</totfact>
</mgrwt>
</event>
<event>
12    6  0.1457317E-007  0.1573484E+04  0.7818608E-02  0.8837005E-01
          2   -1    0    0  501    0  0.00000000000E+00  0.00000000000E+00  0.34171749578E+04  0.34171749578E+04  0.00000000000E+00 0. -1.
         -3   -1    0    0    0  501 -0.00000000000E+00 -0.00000000000E+00 -0.18113304088E+03  0.18113304088E+03  0.00000000000E+00 0.  1.
         24    2    1    2    0    0 -0.88794954960E+02  0.36475721198E+03  0.19366530051E+04  0.19743156114E+04  0.79780344908E+02 0.  0.
        254    2    1    2    0    0  0.88794954960E+02 -0.36475721198E+03  0.12993889118E+04  0.16239923873E+04  0.89889229729E+03 0.  0.
         23    2    4    4    0    0 -0.11506881871E+03  0.19371479857E+03  0.65280830374E+02  0.25105751182E+03  0.89454073154E+02 0.  0.
         23    2    4    4    0    0  0.20386377367E+03 -0.55847201056E+03  0.12341080814E+04  0.13729348754E+04  0.92065144454E+02 0.  0.
          2    1    3    3  502    0 -0.30726490090E+02  0.27278275218E+03  0.14319867996E+04  0.14580606096E+04  0.00000000000E+00 0. -1.
         -1    1    3    3    0  502 -0.58068464871E+02  0.91974459800E+02  0.50466620551E+03  0.51625500177E+03  0.00000000000E+00 0.  1.
         11    1    5    5    0    0 -0.12839448713E+03  0.15394984980E+03  0.52773632885E+02  0.20729389018E+03  0.00000000000E+00 0.  1.
        -11    1    5    5    0    0  0.13325668427E+02  0.39764948774E+02  0.12507197488E+02  0.43763621640E+02  0.00000000000E+00 0. -1.
          1    1    6    6  503    0  0.71267906987E+02 -0.24379533154E+03  0.62498430173E+03  0.67462630816E+03  0.00000000000E+00 0. -1.
         -1    1    6    6    0  503  0.13259586668E+03 -0.31467667902E+03  0.60912377966E+03  0.69830856727E+03  0.00000000000E+00 0.  1.
<mgrwt>
<rscale>  0 0.15734844E+04</rscale>
<asrwt>0</asrwt>
<pdfrwt beam="1">  1        2 0.52571918E+00 0.15734844E+04</pdfrwt>
<pdfrwt beam="2">  1       -3 0.27866624E-01 0.15734844E+04</pdfrwt>
<totfact> 0.73232752E+00</totfact>
</mgrwt>
</event>
<event>
12    6  0.1457317E-007  0.1621173E+04  0.7818608E-02  0.8807645E-01
         -1   -1    0    0    0  501 -0.00000000000E+00  0.00000000000E+00  0.11114943576E+04  0.11114943576E+04  0.00000000000E+00 0.  1.
          2   -1    0    0  501    0  0.00000000000E+00 -0.00000000000E+00 -0.59114172706E+03  0.59114172706E+03  0.00000000000E+00 0. -1.
         24    2    1    2    0    0  0.47932385376E+03  0.16524313282E+03  0.43376107212E+03  0.67205558974E+03  0.80333046064E+02 0.  0.
        254    2    1    2    0    0 -0.47932385376E+03 -0.16524313282E+03  0.86591558433E+02  0.10305804949E+04  0.89305173915E+03 0.  0.
         23    2    4    4    0    0 -0.61989453871E+03  0.13853706258E+03  0.18900508564E+03  0.66894237026E+03  0.91100030152E+02 0.  0.
         23    2    4    4    0    0  0.14057068495E+03 -0.30378019540E+03 -0.10241352721E+03  0.36163812467E+03  0.90835445026E+02 0.  0.
          4    1    3    3  502    0  0.74350136887E+01  0.51993411756E+01  0.28069076539E+02  0.29498909047E+02  0.00000000000E+00 0. -1.
         -3    1    3    3    0  502  0.47188884007E+03  0.16004379164E+03  0.40569199558E+03  0.64255668069E+03  0.00000000000E+00 0.  1.
         11    1    5    5    0    0 -0.41916777392E+02 -0.12474671581E+02  0.20178972649E+02  0.48164557459E+02  0.00000000000E+00 0. -1.
        -11    1    5    5    0    0 -0.57797776132E+03  0.15101173417E+03  0.16882611300E+03  0.62077781280E+03  0.00000000000E+00 0.  1.
          2    1    6    6  503    0 -0.36679109961E+01  0.47609194817E+01 -0.98280347319E-01  0.60107890009E+01  0.00000000000E+00 0. -1.
         -2    1    6    6    0  503  0.14423859595E+03 -0.30854111488E+03 -0.10231524686E+03  0.35562733567E+03  0.00000000000E+00 0.  1.
<mgrwt>
<rscale>  0 0.16211733E+04</rscale>
<asrwt>0</asrwt>
<pdfrwt beam="1">  1        2 0.90944881E-01 0.16211733E+04</pdfrwt>
<pdfrwt beam="2">  1       -1 0.17099913E+00 0.16211733E+04</pdfrwt>
<totfact> 0.13362904E+01</totfact>
</mgrwt>
</event>
<event>
12    6  0.1457317E-007  0.3010663E+04  0.7818608E-02  0.8240693E-01
          2   -1    0    0  501    0  0.00000000000E+00  0.00000000000E+00  0.35758584832E+04  0.35758584832E+04  0.00000000000E+00 0. -1.
         -1   -1    0    0    0  501 -0.00000000000E+00 -0.00000000000E+00 -0.63370043883E+03  0.63370043883E+03  0.00000000000E+00 0.  1.
         24    2    1    2    0    0  0.91891808945E+03 -0.41367208135E+03  0.26406047629E+04  0.28274507947E+04  0.78418343664E+02 0.  0.
        254    2    1    2    0    0 -0.91891808945E+03  0.41367208135E+03  0.30155328154E+03  0.13821081274E+04  0.89652297693E+03 0.  0.
         23    2    4    4    0    0 -0.66520980222E+03 -0.11123612075E+03 -0.70215393795E+02  0.68479827971E+03  0.95608194350E+02 0.  0.
         23    2    4    4    0    0 -0.25370828723E+03  0.52490820211E+03  0.37176867533E+03  0.69730984768E+03  0.90180707839E+02 0.  0.
          2    1    3    3  502    0  0.78603333766E+03 -0.37896174223E+03  0.22407870136E+04  0.24047009898E+04  0.00000000000E+00 0. -1.
         -1    1    3    3    0  502  0.13288475179E+03 -0.34710339126E+02  0.39981774925E+03  0.42274980487E+03  0.00000000000E+00 0.  1.
         11    1    5    5    0    0 -0.12409249067E+03 -0.91797905861E+00  0.18507903545E+02  0.12546844791E+03  0.00000000000E+00 0. -1.
        -11    1    5    5    0    0 -0.54111731155E+03 -0.11031814170E+03 -0.88723297340E+02  0.55932983180E+03  0.00000000000E+00 0.  1.
          3    1    6    6  503    0 -0.11668771224E+03  0.34210601225E+03  0.23103306546E+03  0.42898580762E+03  0.00000000000E+00 0. -1.
         -3    1    6    6    0  503 -0.13702057499E+03  0.18280218985E+03  0.14073560987E+03  0.26832404006E+03  0.00000000000E+00 0.  1.
<mgrwt>
<rscale>  0 0.30106631E+04</rscale>
<asrwt>0</asrwt>
<pdfrwt beam="1">  1        2 0.55013206E+00 0.30106631E+04</pdfrwt>
<pdfrwt beam="2">  1       -1 0.97492377E-01 0.30106631E+04</pdfrwt>
<totfact> 0.70439257E-01</totfact>
</mgrwt>
</event>
<event>
12    6  0.1457317E-007  0.2559738E+04  0.7818608E-02  0.8382007E-01
          2   -1    0    0  501    0  0.00000000000E+00  0.00000000000E+00  0.10567220086E+04  0.10567220086E+04  0.00000000000E+00 0. -1.
         -1   -1    0    0    0  501 -0.00000000000E+00 -0.00000000000E+00 -0.15501375691E+04  0.15501375691E+04  0.00000000000E+00 0.  1.
         24    2    1    2    0    0 -0.87994610345E+03 -0.12722146813E+03 -0.90787116596E+03  0.12735114482E+04  0.84326199032E+02 0.  0.
        254    2    1    2    0    0  0.87994610345E+03  0.12722146813E+03  0.41445560552E+03  0.13333481295E+04  0.90307991809E+03 0.  0.
         23    2    4    4    0    0  0.56571880432E+03 -0.12484277540E+03 -0.17684981936E+03  0.61238437363E+03  0.90084839579E+02 0.  0.
         23    2    4    4    0    0  0.31422729913E+03  0.25206424354E+03  0.59130542488E+03  0.72096375583E+03  0.88721211388E+02 0.  0.
          4    1    3    3  502    0 -0.41960671285E+02  0.11871617562E+02 -0.42225503213E+02  0.60701123217E+02  0.00000000000E+00 0. -1.
         -3    1    3    3    0  502 -0.83798543217E+03 -0.13909308570E+03 -0.86564566275E+03  0.12128103250E+04  0.00000000000E+00 0.  1.
         11    1    5    5    0    0  0.12073110893E+03 -0.62675199812E+02 -0.26501916681E+02  0.13858763625E+03  0.00000000000E+00 0.  1.
        -11    1    5    5    0    0  0.44498769540E+03 -0.62167575592E+02 -0.15034790267E+03  0.47379673737E+03  0.00000000000E+00 0. -1.
          4    1    6    6  503    0  0.11236670912E+03  0.89814263520E+02  0.28951382298E+03  0.32328181660E+03  0.00000000000E+00 0. -1.
         -4    1    6    6    0  503  0.20186059001E+03  0.16224998002E+03  0.30179160190E+03  0.39768193923E+03  0.00000000000E+00 0.  1.
<mgrwt>
<rscale>  0 0.25597379E+04</rscale>
<asrwt>0</asrwt>
<pdfrwt beam="1">  1        2 0.16257262E+00 0.25597379E+04</pdfrwt>
<pdfrwt beam="2">  1       -1 0.23848270E+00 0.25597379E+04</pdfrwt>
<totfact> 0.19455178E+00</totfact>
</mgrwt>
</event>
<event>
12    6  0.1457317E-007  0.1487224E+04  0.7818608E-02  0.8892994E-01
          2   -1    0    0  501    0  0.00000000000E+00  0.00000000000E+00  0.34889623666E+03  0.34889623666E+03  0.00000000000E+00 0. -1.
         -1   -1    0    0    0  501 -0.00000000000E+00 -0.00000000000E+00 -0.15848798611E+04  0.15848798611E+04  0.00000000000E+00 0.  1.
         24    2    1    2    0    0  0.29093559188E+03 -0.17526560773E+03 -0.78753067811E+03  0.86125276991E+03  0.78677905679E+02 0.  0.
        254    2    1    2    0    0 -0.29093559188E+03  0.17526560773E+03 -0.44845294635E+03  0.10725233279E+04  0.91314549326E+03 0.  0.
         23    2    4    4    0    0 -0.23707669875E+03  0.37396616587E+03 -0.63530033932E+03  0.78001278986E+03  0.93580857517E+02 0.  0.
         23    2    4    4    0    0 -0.53858893126E+02 -0.19870055814E+03  0.18684739297E+03  0.29251053802E+03  0.90927302935E+02 0.  0.
          2    1    3    3  502    0  0.14650155879E+03 -0.54324093804E+02 -0.29303631437E+03  0.33209049284E+03  0.00000000000E+00 0. -1.
         -1    1    3    3    0  502  0.14443403309E+03 -0.12094151393E+03 -0.49449436374E+03  0.52916227707E+03  0.00000000000E+00 0.  1.
         11    1    5    5    0    0 -0.98986674305E+02  0.22710021417E+03 -0.39613406122E+03  0.46722057256E+03  0.00000000000E+00 0.  1.
        -11    1    5    5    0    0 -0.13809002444E+03  0.14686595170E+03 -0.23916627810E+03  0.31279221729E+03  0.00000000000E+00 0. -1.
          1    1    6    6  503    0  0.14317779063E+02 -0.34685132159E+02  0.42341801047E+01  0.37762222807E+02  0.00000000000E+00 0. -1.
         -1    1    6    6    0  503 -0.68176672190E+02 -0.16401542598E+03  0.18261321286E+03  0.25474831521E+03  0.00000000000E+00 0.  1.
<mgrwt>
<rscale>  0 0.14872237E+04</rscale>
<asrwt>0</asrwt>
<pdfrwt beam="1">  1        2 0.53676344E-01 0.14872237E+04</pdfrwt>
<pdfrwt beam="2">  1       -1 0.24382767E+00 0.14872237E+04</pdfrwt>
<totfact> 0.78585840E+00</totfact>
</mgrwt>
</event>
<event>
12    6  0.1457317E-007  0.1670367E+04  0.7818608E-02  0.8778448E-01
          2   -1    0    0  501    0  0.00000000000E+00  0.00000000000E+00  0.28426295981E+04  0.28426295981E+04  0.00000000000E+00 0. -1.
         -1   -1    0    0    0  501 -0.00000000000E+00 -0.00000000000E+00 -0.24538233084E+03  0.24538233084E+03  0.00000000000E+00 0.  1.
         24    2    1    2    0    0  0.49301496047E+03 -0.24670624849E+03  0.13020052213E+04  0.14161950931E+04  0.80394161236E+02 0.  0.
        254    2    1    2    0    0 -0.49301496047E+03  0.24670624849E+03  0.12952420459E+04  0.16718168358E+04  0.90188239289E+03 0.  0.
         23    2    4    4    0    0 -0.34698369446E+03 -0.30868708101E+03  0.63469812933E+03  0.79154900366E+03  0.89569590972E+02 0.  0.
         23    2    4    4    0    0 -0.14603126601E+03  0.55539332949E+03  0.66054391658E+03  0.88026783211E+03  0.93628571613E+02 0.  0.
          2    1    3    3  502    0  0.33060961457E+03 -0.14601136193E+03  0.93504096760E+03  0.10024588002E+04  0.00000000000E+00 0. -1.
         -1    1    3    3    0  502  0.16240534590E+03 -0.10069488655E+03  0.36696425372E+03  0.41373629290E+03  0.00000000000E+00 0.  1.
         11    1    5    5    0    0 -0.71013291997E+02 -0.71803292616E+02  0.82806916034E+02  0.13059703601E+03  0.00000000000E+00 0.  1.
        -11    1    5    5    0    0 -0.27597040246E+03 -0.23688378839E+03  0.55189121329E+03  0.66095196765E+03  0.00000000000E+00 0. -1.
          1    1    6    6  503    0 -0.66890684807E+02  0.40898144630E+03  0.44739080543E+03  0.60983499401E+03  0.00000000000E+00 0. -1.
         -1    1    6    6    0  503 -0.79140581203E+02  0.14641188320E+03  0.21315311115E+03  0.27043283811E+03  0.00000000000E+00 0.  1.
<mgrwt>
<rscale>  0 0.16703665E+04</rscale>
<asrwt>0</asrwt>
<pdfrwt beam="1">  1        2 0.43732761E+00 0.16703665E+04</pdfrwt>
<pdfrwt beam="2">  1       -1 0.37751130E-01 0.16703665E+04</pdfrwt>
<totfact> 0.16076825E+01</totfact>
</mgrwt>
</event>
<event>
12    6  0.1457317E-007  0.2727759E+04  0.7818608E-02  0.8326054E-01
         -1   -1    0    0    0  501 -0.00000000000E+00  0.00000000000E+00  0.15174914427E+04  0.15174914427E+04  0.00000000000E+00 0.  1.
          2   -1    0    0  501    0  0.00000000000E+00 -0.00000000000E+00 -0.12258175001E+04  0.12258175001E+04  0.00000000000E+00 0. -1.
         24    2    1    2    0    0  0.99448650003E+03 -0.16375206405E+03 -0.55747231929E+03  0.11536233892E+04  0.65218096458E+02 0.  0.
        254    2    1    2    0    0 -0.99448650003E+03  0.16375206405E+03  0.84914626192E+03  0.15896855536E+04  0.88895030685E+03 0.  0.
         23    2    4    4    0    0 -0.11368306457E+04  0.10143537544E+03  0.62852046737E+03  0.13061817837E+04  0.91650541275E+02 0.  0.
         23    2    4    4    0    0  0.14234414567E+03  0.62316688605E+02  0.22062579454E+03  0.28350376994E+03  0.86910418652E+02 0.  0.
          2    1    3    3  502    0  0.97547266441E+03 -0.15682992715E+03 -0.53564042128E+03  0.11238563992E+04  0.00000000000E+00 0. -1.
         -1    1    3    3    0  502  0.19013835626E+02 -0.69221368982E+01 -0.21831898011E+02  0.29766990026E+02  0.00000000000E+00 0.  1.
         11    1    5    5    0    0 -0.27353367756E+03  0.31004389624E+02  0.19673754286E+03  0.33836017157E+03  0.00000000000E+00 0. -1.
        -11    1    5    5    0    0 -0.86329696814E+03  0.70430985817E+02  0.43178292452E+03  0.96782161211E+03  0.00000000000E+00 0.  1.
          2    1    6    6  503    0  0.92007041312E+02 -0.64143652436E+01  0.10286549782E+03  0.13815842491E+03  0.00000000000E+00 0.  1.
         -2    1    6    6    0  503  0.50337104355E+02  0.68731053849E+02  0.11776029672E+03  0.14534534503E+03  0.00000000000E+00 0. -1.
<mgrwt>
<rscale>  0 0.27277592E+04</rscale>
<asrwt>0</asrwt>
<pdfrwt beam="1">  1        2 0.18858731E+00 0.27277592E+04</pdfrwt>
<pdfrwt beam="2">  1       -1 0.23346022E+00 0.27277592E+04</pdfrwt>
<totfact> 0.16324741E+00</totfact>
</mgrwt>
</event>
<event>
12    6  0.1457317E-007  0.3844193E+04  0.7818608E-02  0.8036737E-01
         -1   -1    0    0    0  501 -0.00000000000E+00  0.00000000000E+00  0.12100530214E+04  0.12100530214E+04  0.00000000000E+00 0.  1.
          2   -1    0    0  501    0  0.00000000000E+00 -0.00000000000E+00 -0.30531349459E+04  0.30531349459E+04  0.00000000000E+00 0. -1.
         24    2    1    2    0    0 -0.38277085962E+03 -0.16008101418E+04 -0.20220448991E+02  0.16478647923E+04  0.77089986822E+02 0.  0.
        254    2    1    2    0    0  0.38277085962E+03  0.16008101418E+04 -0.18228614755E+04  0.26153231751E+04  0.89887969713E+03 0.  0.
         23    2    4    4    0    0  0.65503218588E+03  0.11489033613E+04 -0.14397919620E+04  0.19568736886E+04  0.85484741736E+02 0.  0.
         23    2    4    4    0    0 -0.27226132626E+03  0.45190678051E+03 -0.38306951353E+03  0.65844948647E+03  0.92019052356E+02 0.  0.
          4    1    3    3  502    0 -0.96742078097E+01 -0.12408195526E+03  0.43768771638E+01  0.12453545267E+03  0.00000000000E+00 0. -1.
         -3    1    3    3    0  502 -0.37309665181E+03 -0.14767281866E+04 -0.24597326155E+02  0.15233293396E+04  0.00000000000E+00 0.  1.
         11    1    5    5    0    0  0.13108585853E+03  0.17063889476E+03 -0.25089347810E+03  0.33052786881E+03  0.00000000000E+00 0. -1.
        -11    1    5    5    0    0  0.52394632735E+03  0.97826446655E+03 -0.11888984839E+04  0.16263458198E+04  0.00000000000E+00 0.  1.
          2    1    6    6  503    0 -0.15752832386E+03  0.34198766867E+03 -0.26258043721E+03  0.45904163683E+03  0.00000000000E+00 0. -1.
         -2    1    6    6    0  503 -0.11473300239E+03  0.10991911184E+03 -0.12048907632E+03  0.19940784964E+03  0.00000000000E+00 0.  1.
<mgrwt>
<rscale>  0 0.38441931E+04</rscale>
<asrwt>0</asrwt>
<pdfrwt beam="1">  1        2 0.46971307E+00 0.38441931E+04</pdfrwt>
<pdfrwt beam="2">  1       -1 0.18616200E+00 0.38441931E+04</pdfrwt>
<totfact> 0.27480120E-01</totfact>
</mgrwt>
</event>
<event>
12    6  0.1457317E-007  0.1364232E+04  0.7818608E-02  0.8980124E-01
          2   -1    0    0  501    0  0.00000000000E+00  0.00000000000E+00  0.14310521781E+04  0.14310521781E+04  0.00000000000E+00 0. -1.
         -1   -1    0    0    0  501 -0.00000000000E+00 -0.00000000000E+00 -0.32513317590E+03  0.32513317590E+03  0.00000000000E+00 0.  1.
         24    2    1    2    0    0  0.76000220167E+02  0.30613532890E+03  0.50085638141E+02  0.32896973317E+03  0.78852020424E+02 0.  0.
        254    2    1    2    0    0 -0.76000220167E+02 -0.30613532890E+03  0.10558333640E+04  0.14272156208E+04  0.90700907527E+03 0.  0.
         23    2    4    4    0    0  0.27891430783E+03  0.15189983037E+03  0.59887920509E+03  0.68397936756E+03  0.91130255018E+02 0.  0.
         23    2    4    4    0    0 -0.35491452800E+03 -0.45803515928E+03  0.45695415894E+03  0.74323625325E+03  0.88501386746E+02 0.  0.
          4    1    3    3  502    0  0.71345409399E+02  0.13239088739E+03  0.10800794969E+02  0.15077855178E+03  0.00000000000E+00 0. -1.
         -3    1    3    3    0  502  0.46548107682E+01  0.17374444151E+03  0.39284843172E+02  0.17819118139E+03  0.00000000000E+00 0.  1.
         11    1    5    5    0    0  0.65265631331E+01 -0.79891892904E+01  0.52984744144E+01  0.11597284293E+02  0.00000000000E+00 0.  1.
        -11    1    5    5    0    0  0.27238774470E+03  0.15988901966E+03  0.59358073068E+03  0.67238208327E+03  0.00000000000E+00 0. -1.
          2    1    6    6  503    0 -0.21698900880E+03 -0.32305398231E+03  0.26348022046E+03  0.46996801168E+03  0.00000000000E+00 0. -1.
         -2    1    6    6    0  503 -0.13792551920E+03 -0.13498117696E+03  0.19347393848E+03  0.27326824157E+03  0.00000000000E+00 0.  1.
<mgrwt>
<rscale>  0 0.13642324E+04</rscale>
<asrwt>0</asrwt>
<pdfrwt beam="1">  1        2 0.22016187E+00 0.13642324E+04</pdfrwt>
<pdfrwt beam="2">  1       -1 0.50020490E-01 0.13642324E+04</pdfrwt>
<totfact> 0.61943733E+01</totfact>
</mgrwt>
</event>
<event>
12    6  0.1457317E-007  0.2473162E+04  0.7818608E-02  0.8412609E-01
          2   -1    0    0  501    0  0.00000000000E+00  0.00000000000E+00  0.10356098376E+04  0.10356098376E+04  0.00000000000E+00 0. -1.
         -1   -1    0    0    0  501 -0.00000000000E+00 -0.00000000000E+00 -0.14765530480E+04  0.14765530480E+04  0.00000000000E+00 0.  1.
         24    2    1    2    0    0  0.56179042064E+03 -0.59491085474E+02  0.73415879637E+03  0.92990145125E+03  0.81116612284E+02 0.  0.
        254    2    1    2    0    0 -0.56179042064E+03  0.59491085474E+02 -0.11751020067E+04  0.15822614344E+04  0.89640328786E+03 0.  0.
         23    2    4    4    0    0 -0.32588273922E+03  0.24307985261E+03 -0.11987474097E+04  0.12689926536E+04  0.89775432922E+02 0.  0.
         23    2    4    4    0    0 -0.23590768142E+03 -0.18358876713E+03  0.23645402950E+02  0.31326878071E+03  0.90669478413E+02 0.  0.
          2    1    3    3  502    0  0.55658646116E+03 -0.67996853138E+02  0.72253369621E+03  0.91458570016E+03  0.00000000000E+00 0. -1.
         -1    1    3    3    0  502  0.52039594764E+01  0.85057676635E+01  0.11625100156E+02  0.15315751089E+02  0.00000000000E+00 0.  1.
         11    1    5    5    0    0 -0.29812266325E+03  0.22382634757E+03 -0.99662063570E+03  0.10640620507E+04  0.00000000000E+00 0. -1.
        -11    1    5    5    0    0 -0.27760075964E+02  0.19253505040E+02 -0.20212677397E+03  0.20493060296E+03  0.00000000000E+00 0.  1.
          1    1    6    6  503    0 -0.21505244695E+02 -0.48546595155E+02 -0.18850151416E+02  0.56343372804E+02  0.00000000000E+00 0. -1.
         -1    1    6    6    0  503 -0.21440243672E+03 -0.13504217198E+03  0.42495554366E+02  0.25692540790E+03  0.00000000000E+00 0.  1.
<mgrwt>
<rscale>  0 0.24731622E+04</rscale>
<asrwt>0</asrwt>
<pdfrwt beam="1">  1        2 0.15932459E+00 0.24731622E+04</pdfrwt>
<pdfrwt beam="2">  1       -1 0.22716201E+00 0.24731622E+04</pdfrwt>
<totfact> 0.24011753E+00</totfact>
</mgrwt>
</event>
<event>
12    6  0.1457317E-007  0.2659237E+04  0.7818608E-02  0.8348354E-01
         -1   -1    0    0    0  501 -0.00000000000E+00  0.00000000000E+00  0.85070046665E+03  0.85070046665E+03  0.00000000000E+00 0.  1.
          2   -1    0    0  501    0  0.00000000000E+00 -0.00000000000E+00 -0.20781526108E+04  0.20781526108E+04  0.00000000000E+00 0. -1.
         24    2    1    2    0    0 -0.73108404278E+03  0.28965759830E+03 -0.15077707939E+04  0.17023901427E+04  0.79837516672E+02 0.  0.
        254    2    1    2    0    0  0.73108404278E+03 -0.28965759830E+03  0.28031864971E+03  0.12264629348E+04  0.89846946707E+03 0.  0.
         23    2    4    4    0    0 -0.13339465888E+03 -0.26468939892E+03  0.15904456921E+03  0.34847927433E+03  0.91038545239E+02 0.  0.
         23    2    4    4    0    0  0.86447870165E+03 -0.24968199377E+02  0.12127408049E+03  0.87798366050E+03  0.90559753220E+02 0.  0.
          2    1    3    3  502    0 -0.44279597373E+03  0.18789908702E+03 -0.10003319036E+04  0.11099721882E+04  0.00000000000E+00 0. -1.
         -1    1    3    3    0  502 -0.28828806905E+03  0.10175851128E+03 -0.50743889034E+03  0.59241795449E+03  0.00000000000E+00 0.  1.
         11    1    5    5    0    0  0.25443203836E+01 -0.75872814552E+00  0.20834199806E+02  0.21002693069E+02  0.00000000000E+00 0. -1.
        -11    1    5    5    0    0 -0.13593897926E+03 -0.26393067078E+03  0.13821036941E+03  0.32747658126E+03  0.00000000000E+00 0.  1.
          1    1    6    6  503    0  0.13063529641E+03 -0.91081381343E+00  0.51555226844E+02  0.14044341090E+03  0.00000000000E+00 0. -1.
         -1    1    6    6    0  503  0.73384340525E+03 -0.24057385564E+02  0.69718853650E+02  0.73754024960E+03  0.00000000000E+00 0.  1.
<mgrwt>
<rscale>  0 0.26592370E+04</rscale>
<asrwt>0</asrwt>
<pdfrwt beam="1">  1        2 0.31971579E+00 0.26592370E+04</pdfrwt>
<pdfrwt beam="2">  1       -1 0.13087699E+00 0.26592370E+04</pdfrwt>
<totfact> 0.30169969E+00</totfact>
</mgrwt>
</event>
<event>
12    6  0.1457317E-007  0.1986264E+04  0.7818608E-02  0.8613070E-01
          2   -1    0    0  501    0  0.00000000000E+00  0.00000000000E+00  0.10115655887E+04  0.10115655887E+04  0.00000000000E+00 0. -1.
         -1   -1    0    0    0  501 -0.00000000000E+00 -0.00000000000E+00 -0.97503416479E+03  0.97503416479E+03  0.00000000000E+00 0.  1.
         24    2    1    2    0    0  0.32754268411E+03 -0.57005948593E+03  0.37197378393E+03  0.75988577583E+03  0.82521930183E+02 0.  0.
        254    2    1    2    0    0 -0.32754268411E+03  0.57005948593E+03 -0.33544235999E+03  0.12267139777E+04  0.97982323854E+03 0.  0.
         23    2    4    4    0    0  0.19541682036E+03  0.59204529791E+03 -0.75137130367E+02  0.63491376377E+03  0.93619071822E+02 0.  0.
         23    2    4    4    0    0 -0.52295950448E+03 -0.21985811977E+02 -0.26030522962E+03  0.59180021392E+03  0.92188184595E+02 0.  0.
          4    1    3    3  502    0  0.30709653282E+03 -0.55989321698E+03  0.35006263334E+03  0.72823934400E+03  0.00000000000E+00 0. -1.
         -3    1    3    3    0  502  0.20446151292E+02 -0.10166268945E+02  0.21911150595E+02  0.31646431826E+02  0.00000000000E+00 0.  1.
         11    1    5    5    0    0  0.45659176360E+02  0.21636506948E+03  0.11037343610E+02  0.22140557046E+03  0.00000000000E+00 0.  1.
        -11    1    5    5    0    0  0.14975764400E+03  0.37568022843E+03 -0.86174473976E+02  0.41350819331E+03  0.00000000000E+00 0. -1.
          4    1    6    6  503    0 -0.51224813141E+02  0.25722316661E+02 -0.29528405935E+02  0.64479033901E+02  0.00000000000E+00 0. -1.
         -4    1    6    6    0  503 -0.47173469134E+03 -0.47708128639E+02 -0.23077682369E+03  0.52732118002E+03  0.00000000000E+00 0.  1.
<mgrwt>
<rscale>  0 0.19862638E+04</rscale>
<asrwt>0</asrwt>
<pdfrwt beam="1">  1        2 0.15562547E+00 0.19862638E+04</pdfrwt>
<pdfrwt beam="2">  1       -1 0.15000526E+00 0.19862638E+04</pdfrwt>
<totfact> 0.91654623E+00</totfact>
</mgrwt>
</event>
<event>
12    6  0.1457317E-007  0.1233526E+04  0.7818608E-02  0.9084007E-01
          2   -1    0    0  501    0  0.00000000000E+00  0.00000000000E+00  0.37879353595E+04  0.37879353595E+04  0.00000000000E+00 0. -1.
         -1   -1    0    0    0  501 -0.00000000000E+00 -0.00000000000E+00 -0.10042314864E+03  0.10042314864E+03  0.00000000000E+00 0.  1.
         24    2    1    2    0    0  0.25881422137E+03  0.12223847252E+03  0.10432179541E+04  0.10847726202E+04  0.80628111429E+02 0.  0.
        254    2    1    2    0    0 -0.25881422137E+03 -0.12223847252E+03  0.26442942568E+04  0.28035858880E+04  0.88649572454E+03 0.  0.
         23    2    4    4    0    0 -0.76093446341E+02 -0.34696573515E+03  0.41641078156E+03  0.55503975762E+03  0.92172444868E+02 0.  0.
         23    2    4    4    0    0 -0.18272077503E+03  0.22472726264E+03  0.22278834752E+04  0.22485461304E+04  0.92766896622E+02 0.  0.
          4    1    3    3  502    0  0.15676058180E+01 -0.21793810417E+01  0.80403890125E+02  0.80448695682E+02  0.00000000000E+00 0. -1.
         -3    1    3    3    0  502  0.25724661555E+03  0.12441785356E+03  0.96281406398E+03  0.10043239245E+04  0.00000000000E+00 0.  1.
         11    1    5    5    0    0  0.58171310022E+01 -0.17803821724E+02  0.60702727414E+02  0.63526657370E+02  0.00000000000E+00 0. -1.
        -11    1    5    5    0    0 -0.81910577344E+02 -0.32916191343E+03  0.35570805415E+03  0.49151310025E+03  0.00000000000E+00 0.  1.
          3    1    6    6  503    0 -0.35767657059E+02  0.93981676490E+02  0.54426060146E+03  0.55347220626E+03  0.00000000000E+00 0. -1.
         -3    1    6    6    0  503 -0.14695311797E+03  0.13074558615E+03  0.16836228738E+04  0.16950739241E+04  0.00000000000E+00 0.  1.
<mgrwt>
<rscale>  0 0.12335257E+04</rscale>
<asrwt>0</asrwt>
<pdfrwt beam="1">  1        2 0.58275917E+00 0.12335257E+04</pdfrwt>
<pdfrwt beam="2">  1       -1 0.15449718E-01 0.12335257E+04</pdfrwt>
<totfact> 0.18200668E+01</totfact>
</mgrwt>
</event>
<event>
12    6  0.1457317E-007  0.2244643E+04  0.7818608E-02  0.8500073E-01
          2   -1    0    0  501    0  0.00000000000E+00  0.00000000000E+00  0.55292809340E+03  0.55292809340E+03  0.00000000000E+00 0. -1.
         -1   -1    0    0    0  501 -0.00000000000E+00 -0.00000000000E+00 -0.22780648321E+04  0.22780648321E+04  0.00000000000E+00 0.  1.
         24    2    1    2    0    0 -0.78596755527E+02 -0.58545160927E+02  0.45563632330E+03  0.47316078299E+03  0.81680362396E+02 0.  0.
        254    2    1    2    0    0  0.78596755527E+02  0.58545160927E+02 -0.21807730620E+04  0.23578321425E+04  0.89106468814E+03 0.  0.
         23    2    4    4    0    0  0.15470642830E+03 -0.26927753182E+03 -0.28883664121E+03  0.43405111463E+03  0.92354191604E+02 0.  0.
         23    2    4    4    0    0 -0.76109672771E+02  0.32782269275E+03 -0.18919364208E+04  0.19237810278E+04  0.90827433870E+02 0.  0.
          4    1    3    3  502    0 -0.93837338060E+02 -0.59693983433E+02  0.41793042301E+03  0.43247503529E+03  0.00000000000E+00 0. -1.
         -3    1    3    3    0  502  0.15240582533E+02  0.11488225061E+01  0.37705900292E+02  0.40685747700E+02  0.00000000000E+00 0.  1.
         11    1    5    5    0    0  0.15932686541E+03 -0.26620297066E+03 -0.29329509965E+03  0.42693218092E+03  0.00000000000E+00 0. -1.
        -11    1    5    5    0    0 -0.46204371161E+01 -0.30745611598E+01  0.44584584384E+01  0.71189337064E+01  0.00000000000E+00 0.  1.
          1    1    6    6  503    0 -0.24057640581E+02  0.86115716517E+02 -0.75466763012E+03  0.75994599720E+03  0.00000000000E+00 0. -1.
         -1    1    6    6    0  503 -0.52052032190E+02  0.24170697623E+03 -0.11372687906E+04  0.11638350307E+04  0.00000000000E+00 0.  1.
<mgrwt>
<rscale>  0 0.22446434E+04</rscale>
<asrwt>0</asrwt>
<pdfrwt beam="1">  1        2 0.85065861E-01 0.22446434E+04</pdfrwt>
<pdfrwt beam="2">  1       -1 0.35047151E+00 0.22446434E+04</pdfrwt>
<totfact> 0.87810506E-01</totfact>
</mgrwt>
</event>
<event>
12    6  0.1457317E-007  0.1368511E+04  0.7818608E-02  0.8976933E-01
          2   -1    0    0  501    0  0.00000000000E+00  0.00000000000E+00  0.48015785774E+03  0.48015785774E+03  0.00000000000E+00 0. -1.
         -1   -1    0    0    0  501 -0.00000000000E+00 -0.00000000000E+00 -0.97510758004E+03  0.97510758004E+03  0.00000000000E+00 0.  1.
         24    2    1    2    0    0 -0.11968226532E+03  0.83949658136E+02 -0.51299609327E+03  0.53930080261E+03  0.79429051650E+02 0.  0.
        254    2    1    2    0    0  0.11968226532E+03 -0.83949658136E+02  0.18046370971E+02  0.91596463518E+03  0.90404322444E+03 0.  0.
         23    2    4    4    0    0  0.47218491221E+02 -0.25959014467E+03 -0.37633635106E+03  0.46877071907E+03  0.92197119281E+02 0.  0.
         23    2    4    4    0    0  0.72463774099E+02  0.17564048653E+03  0.39438272203E+03  0.44719391611E+03  0.91345980244E+02 0.  0.
          2    1    3    3  502    0 -0.58076988981E+02 -0.48675265098E+01 -0.18108346142E+03  0.19023104233E+03  0.00000000000E+00 0. -1.
         -1    1    3    3    0  502 -0.61605276339E+02  0.88817184646E+02 -0.33191263185E+03  0.34906976028E+03  0.00000000000E+00 0.  1.
         11    1    5    5    0    0 -0.22195716193E+02 -0.13509036792E+03 -0.18877522218E+03  0.23319121302E+03  0.00000000000E+00 0. -1.
        -11    1    5    5    0    0  0.69414207414E+02 -0.12449977675E+03 -0.18756112888E+03  0.23557950605E+03  0.00000000000E+00 0.  1.
          2    1    6    6  503    0  0.77012250724E+02  0.81286540231E+02  0.25841819587E+03  0.28163514046E+03  0.00000000000E+00 0. -1.
         -2    1    6    6    0  503 -0.45484766245E+01  0.94353946304E+02  0.13596452616E+03  0.16555877566E+03  0.00000000000E+00 0.  1.
<mgrwt>
<rscale>  0 0.13685110E+04</rscale>
<asrwt>0</asrwt>
<pdfrwt beam="1">  1        2 0.73870440E-01 0.13685110E+04</pdfrwt>
<pdfrwt beam="2">  1       -1 0.15001655E+00 0.13685110E+04</pdfrwt>
<totfact> 0.25116983E+01</totfact>
</mgrwt>
</event>
<event>
12    6  0.1457317E-007  0.2568603E+04  0.7818608E-02  0.8378945E-01
         -1   -1    0    0    0  501 -0.00000000000E+00  0.00000000000E+00  0.13548875460E+04  0.13548875460E+04  0.00000000000E+00 0.  1.
          2   -1    0    0  501    0  0.00000000000E+00 -0.00000000000E+00 -0.12173931691E+04  0.12173931691E+04  0.00000000000E+00 0. -1.
         24    2    1    2    0    0  0.36505849389E+03  0.83861527195E+03  0.71158211265E+03  0.11612864203E+04  0.75457064424E+02 0.  0.
        254    2    1    2    0    0 -0.36505849389E+03 -0.83861527195E+03 -0.57408773575E+03  0.14109942948E+04  0.90817668610E+03 0.  0.
         23    2    4    4    0    0 -0.28780763071E+03 -0.95097263788E+03 -0.68723162838E+03  0.12114414108E+04  0.90115428623E+02 0.  0.
         23    2    4    4    0    0 -0.77250863180E+02  0.11235736593E+03  0.11314389263E+03  0.19955288394E+03  0.91803809887E+02 0.  0.
          4    1    3    3  502    0  0.23225225555E+02  0.30167384498E+02  0.15805350541E+02  0.41222461053E+02  0.00000000000E+00 0. -1.
         -3    1    3    3    0  502  0.34183326834E+03  0.80844788745E+03  0.69577676210E+03  0.11200639592E+04  0.00000000000E+00 0.  1.
         11    1    5    5    0    0 -0.45426593537E+01 -0.93656911078E+02 -0.49491869817E+02  0.10602687360E+03  0.00000000000E+00 0.  1.
        -11    1    5    5    0    0 -0.28326497136E+03 -0.85731572681E+03 -0.63773975856E+03  0.11054145372E+04  0.00000000000E+00 0. -1.
          1    1    6    6  503    0 -0.78456590415E+02  0.88971555705E+02  0.12582258903E+03  0.17292396657E+03  0.00000000000E+00 0. -1.
         -1    1    6    6    0  503  0.12057272354E+01  0.23385810226E+02 -0.12678696400E+02  0.26628917374E+02  0.00000000000E+00 0.  1.
<mgrwt>
<rscale>  0 0.25686034E+04</rscale>
<asrwt>0</asrwt>
<pdfrwt beam="1">  1        2 0.18729126E+00 0.25686034E+04</pdfrwt>
<pdfrwt beam="2">  1       -1 0.20844424E+00 0.25686034E+04</pdfrwt>
<totfact> 0.24620159E+00</totfact>
</mgrwt>
</event>
<event>
12    6  0.1457317E-007  0.1866123E+04  0.7818608E-02  0.8671905E-01
         -1   -1    0    0    0  501 -0.00000000000E+00  0.00000000000E+00  0.60906880743E+03  0.60906880743E+03  0.00000000000E+00 0.  1.
          2   -1    0    0  501    0  0.00000000000E+00 -0.00000000000E+00 -0.14294019093E+04  0.14294019093E+04  0.00000000000E+00 0. -1.
         24    2    1    2    0    0 -0.32399651654E+03 -0.27193152840E+03  0.30996115628E+03  0.53028863342E+03  0.78801126033E+02 0.  0.
        254    2    1    2    0    0  0.32399651654E+03  0.27193152840E+03 -0.11302942582E+04  0.15081820833E+04  0.90450405615E+03 0.  0.
         23    2    4    4    0    0 -0.21971247867E+03  0.32195934732E+03 -0.70107244689E+03  0.80762008604E+03  0.93894797397E+02 0.  0.
         23    2    4    4    0    0  0.54370899521E+03 -0.50027818919E+02 -0.42922181128E+03  0.70056199730E+03  0.91834060371E+02 0.  0.
          4    1    3    3  502    0 -0.10652971524E+03 -0.59535582024E+02  0.56404048812E+02  0.13444137190E+03  0.00000000000E+00 0. -1.
         -3    1    3    3    0  502 -0.21746680130E+03 -0.21239594637E+03  0.25355710747E+03  0.39584726151E+03  0.00000000000E+00 0.  1.
         11    1    5    5    0    0 -0.97396177218E+02  0.18135985457E+03 -0.45086189433E+03  0.49563480502E+03  0.00000000000E+00 0.  1.
        -11    1    5    5    0    0 -0.12231630146E+03  0.14059949275E+03 -0.25021055256E+03  0.31198528102E+03  0.00000000000E+00 0. -1.
          4    1    6    6  503    0  0.39510678406E+03 -0.97531284055E+01 -0.26732495266E+03  0.47714476277E+03  0.00000000000E+00 0. -1.
         -4    1    6    6    0  503  0.14860221116E+03 -0.40274690514E+02 -0.16189685862E+03  0.22341723453E+03  0.00000000000E+00 0.  1.
<mgrwt>
<rscale>  0 0.18661234E+04</rscale>
<asrwt>0</asrwt>
<pdfrwt beam="1">  1        2 0.21990798E+00 0.18661234E+04</pdfrwt>
<pdfrwt beam="2">  1       -1 0.93702894E-01 0.18661234E+04</pdfrwt>
<totfact> 0.16453101E+01</totfact>
</mgrwt>
</event>
<event>
12    6  0.1457317E-007  0.2016490E+04  0.7818608E-02  0.8598949E-01
         -1   -1    0    0    0  501 -0.00000000000E+00  0.00000000000E+00  0.68838955844E+03  0.68838955844E+03  0.00000000000E+00 0.  1.
          2   -1    0    0  501    0  0.00000000000E+00 -0.00000000000E+00 -0.14767196196E+04  0.14767196196E+04  0.00000000000E+00 0. -1.
         24    2    1    2    0    0 -0.41047536364E+03 -0.26908872791E+01  0.43951055685E+03  0.60677418000E+03  0.80672863522E+02 0.  0.
        254    2    1    2    0    0  0.41047536364E+03  0.26908872791E+01 -0.12278406180E+04  0.15583349980E+04  0.86736273714E+03 0.  0.
         23    2    4    4    0    0  0.25612969851E+03  0.40525700159E+03 -0.83670835850E+03  0.96875765545E+03  0.92600529262E+02 0.  0.
         23    2    4    4    0    0  0.15434566513E+03 -0.40256611431E+03 -0.39113225947E+03  0.58957734253E+03  0.93460888616E+02 0.  0.
          4    1    3    3  502    0 -0.89626954512E+02 -0.12410288203E+02  0.54993287425E+02  0.10588327484E+03  0.00000000000E+00 0. -1.
         -3    1    3    3    0  502 -0.32084840913E+03  0.97194009241E+01  0.38451726943E+03  0.50089090517E+03  0.00000000000E+00 0.  1.
         11    1    5    5    0    0  0.11570609261E+03  0.10899935630E+03 -0.30918521139E+03  0.34765536740E+03  0.00000000000E+00 0. -1.
        -11    1    5    5    0    0  0.14042360590E+03  0.29625764529E+03 -0.52752314711E+03  0.62110228805E+03  0.00000000000E+00 0.  1.
          2    1    6    6  503    0  0.28205077352E+01 -0.99589504264E+02 -0.11794380830E+03  0.15439160126E+03  0.00000000000E+00 0. -1.
         -2    1    6    6    0  503  0.15152515739E+03 -0.30297661004E+03 -0.27318845116E+03  0.43518574127E+03  0.00000000000E+00 0.  1.
<mgrwt>
<rscale>  0 0.20164904E+04</rscale>
<asrwt>0</asrwt>
<pdfrwt beam="1">  1        2 0.22718764E+00 0.20164904E+04</pdfrwt>
<pdfrwt beam="2">  1       -1 0.10590608E+00 0.20164904E+04</pdfrwt>
<totfact> 0.11543169E+01</totfact>
</mgrwt>
</event>
<event>
12    6  0.1457317E-007  0.1883741E+04  0.7818608E-02  0.8662992E-01
          2   -1    0    0  501    0  0.00000000000E+00  0.00000000000E+00  0.26736241519E+04  0.26736241519E+04  0.00000000000E+00 0. -1.
         -1   -1    0    0    0  501 -0.00000000000E+00 -0.00000000000E+00 -0.33180418483E+03  0.33180418483E+03  0.00000000000E+00 0.  1.
         24    2    1    2    0    0 -0.48784155048E+03  0.29475601647E+03  0.18936987380E+03  0.60581467406E+03  0.79246341172E+02 0.  0.
        254    2    1    2    0    0  0.48784155048E+03 -0.29475601647E+03  0.21524500933E+04  0.23996136627E+04  0.89455790110E+03 0.  0.
         23    2    4    4    0    0  0.30517420540E+03  0.29515233334E+03  0.91946767089E+03  0.10174341363E+04  0.97494760680E+02 0.  0.
         23    2    4    4    0    0  0.18266734508E+03 -0.58990834981E+03  0.12329824224E+04  0.13821795264E+04  0.93890197056E+02 0.  0.
          4    1    3    3  502    0 -0.22568547292E+03  0.96406133589E+02  0.60833215555E+02  0.25284136410E+03  0.00000000000E+00 0. -1.
         -3    1    3    3    0  502 -0.26215607755E+03  0.19834988288E+03  0.12853665824E+03  0.35297330997E+03  0.00000000000E+00 0.  1.
         11    1    5    5    0    0  0.30633375243E+03  0.26552581468E+03  0.86884357959E+03  0.95876665145E+03  0.00000000000E+00 0.  1.
        -11    1    5    5    0    0 -0.11595470346E+01  0.29626518663E+02  0.50624091297E+02  0.58667484837E+02  0.00000000000E+00 0. -1.
          3    1    6    6  503    0  0.88119532772E+02 -0.16247866204E+03  0.31663173847E+03  0.36663336657E+03  0.00000000000E+00 0. -1.
         -3    1    6    6    0  503  0.94547812306E+02 -0.42742968776E+03  0.91635068396E+03  0.10155461599E+04  0.00000000000E+00 0.  1.
<mgrwt>
<rscale>  0 0.18837406E+04</rscale>
<asrwt>0</asrwt>
<pdfrwt beam="1">  1        2 0.41132678E+00 0.18837406E+04</pdfrwt>
<pdfrwt beam="2">  1       -1 0.51046799E-01 0.18837406E+04</pdfrwt>
<totfact> 0.11357550E+01</totfact>
</mgrwt>
</event>
<event>
12    6  0.1457317E-007  0.1319913E+04  0.7818608E-02  0.9013921E-01
          2   -1    0    0  501    0  0.00000000000E+00  0.00000000000E+00  0.31012060807E+04  0.31012060807E+04  0.00000000000E+00 0. -1.
         -1   -1    0    0    0  501 -0.00000000000E+00 -0.00000000000E+00 -0.14044302154E+03  0.14044302154E+03  0.00000000000E+00 0.  1.
         24    2    1    2    0    0  0.14968061440E+03 -0.14124511743E+03  0.17400565094E+03  0.28133813899E+03  0.80738543243E+02 0.  0.
        254    2    1    2    0    0 -0.14968061440E+03  0.14124511743E+03  0.27867574082E+04  0.29603109633E+04  0.97727666365E+03 0.  0.
         23    2    4    4    0    0  0.11492934178E+03  0.51141004770E+03  0.13935047697E+04  0.14916729709E+04  0.92107103407E+02 0.  0.
         23    2    4    4    0    0 -0.26460995618E+03 -0.37016493027E+03  0.13932526385E+04  0.14686379923E+04  0.93295944523E+02 0.  0.
          4    1    3    3  502    0  0.87991277865E+02 -0.36178993558E+02  0.10344626230E+03  0.14054363642E+03  0.00000000000E+00 0. -1.
         -3    1    3    3    0  502  0.61689336535E+02 -0.10506612387E+03  0.70559388642E+02  0.14079450256E+03  0.00000000000E+00 0.  1.
         11    1    5    5    0    0 -0.81265145985E+01  0.14948722145E+03  0.37322813671E+03  0.40213394740E+03  0.00000000000E+00 0. -1.
        -11    1    5    5    0    0  0.12305585638E+03  0.36192282625E+03  0.10202766330E+04  0.10895390236E+04  0.00000000000E+00 0.  1.
          1    1    6    6  503    0 -0.17878062300E+03 -0.29101608536E+03  0.11337986425E+04  0.11841250925E+04  0.00000000000E+00 0. -1.
         -1    1    6    6    0  503 -0.85829333179E+02 -0.79148844912E+02  0.25945399601E+03  0.28451289976E+03  0.00000000000E+00 0.  1.
<mgrwt>
<rscale>  0 0.13199133E+04</rscale>
<asrwt>0</asrwt>
<pdfrwt beam="1">  1        2 0.47710858E+00 0.13199133E+04</pdfrwt>
<pdfrwt beam="2">  1       -1 0.21606621E-01 0.13199133E+04</pdfrwt>
<totfact> 0.30455468E+01</totfact>
</mgrwt>
</event>
<event>
12    6  0.1457317E-007  0.1131737E+04  0.7818608E-02  0.9174800E-01
          2   -1    0    0  501    0  0.00000000000E+00  0.00000000000E+00  0.33541965154E+04  0.33541965154E+04  0.00000000000E+00 0. -1.
         -1   -1    0    0    0  501 -0.00000000000E+00 -0.00000000000E+00 -0.95464578453E+02  0.95464578453E+02  0.00000000000E+00 0.  1.
         24    2    1    2    0    0  0.10692167076E+03  0.13398517511E+03  0.92495370434E+03  0.94400483006E+03  0.78876442477E+02 0.  0.
        254    2    1    2    0    0 -0.10692167076E+03 -0.13398517511E+03  0.23337782326E+04  0.25056562638E+04  0.89577240550E+03 0.  0.
         23    2    4    4    0    0  0.30504454857E+03 -0.29535796248E+03  0.85418773380E+03  0.95863628989E+03  0.95175359801E+02 0.  0.
         23    2    4    4    0    0 -0.41196621933E+03  0.16137278736E+03  0.14795904988E+04  0.15470199739E+04  0.91243701812E+02 0.  0.
          4    1    3    3  502    0  0.38471745201E+02  0.10166248833E+03  0.64014843777E+03  0.64931145000E+03  0.00000000000E+00 0. -1.
         -3    1    3    3    0  502  0.68449925558E+02  0.32322686778E+02  0.28480526656E+03  0.29469338006E+03  0.00000000000E+00 0.  1.
         11    1    5    5    0    0  0.17494509367E+03 -0.10419916319E+03  0.41730385128E+03  0.46433366850E+03  0.00000000000E+00 0.  1.
        -11    1    5    5    0    0  0.13009945489E+03 -0.19115879929E+03  0.43688388252E+03  0.49430262139E+03  0.00000000000E+00 0. -1.
          1    1    6    6  503    0 -0.30516512837E+03  0.13718803030E+03  0.12251598851E+04  0.12700248246E+04  0.00000000000E+00 0. -1.
         -1    1    6    6    0  503 -0.10680109096E+03  0.24184757067E+02  0.25443061370E+03  0.27699514922E+03  0.00000000000E+00 0.  1.
<mgrwt>
<rscale>  0 0.11317366E+04</rscale>
<asrwt>0</asrwt>
<pdfrwt beam="1">  1        2 0.51603014E+00 0.11317366E+04</pdfrwt>
<pdfrwt beam="2">  1       -1 0.14686861E-01 0.11317366E+04</pdfrwt>
<totfact> 0.40399582E+01</totfact>
</mgrwt>
</event>
<event>
12    6  0.1457317E-007  0.2715662E+04  0.7818608E-02  0.8329941E-01
          2   -1    0    0  501    0  0.00000000000E+00  0.00000000000E+00  0.10301833282E+04  0.10301833282E+04  0.00000000000E+00 0. -1.
         -1   -1    0    0    0  501 -0.00000000000E+00 -0.00000000000E+00 -0.17896869394E+04  0.17896869394E+04  0.00000000000E+00 0.  1.
         24    2    1    2    0    0  0.36241043384E+03 -0.74459875822E+03  0.56136338760E+03  0.10036218871E+04  0.79745884522E+02 0.  0.
        254    2    1    2    0    0 -0.36241043384E+03  0.74459875822E+03 -0.13208669988E+04  0.18162483805E+04  0.93182611996E+03 0.  0.
         23    2    4    4    0    0 -0.57181990195E+03  0.16263954938E+03 -0.80895347447E+03  0.10084869175E+04  0.95971431679E+02 0.  0.
         23    2    4    4    0    0  0.20940946811E+03  0.58195920884E+03 -0.51191352435E+03  0.80776146297E+03  0.88849752764E+02 0.  0.
          2    1    3    3  502    0  0.31978767852E+03 -0.65405832527E+03  0.46006582176E+03  0.86122994173E+03  0.00000000000E+00 0. -1.
         -1    1    3    3    0  502  0.42622755323E+02 -0.90540432952E+02  0.10129756584E+03  0.14239194540E+03  0.00000000000E+00 0.  1.
         11    1    5    5    0    0 -0.16549937135E+03  0.50085036951E+02 -0.16652659511E+03  0.24006178314E+03  0.00000000000E+00 0.  1.
        -11    1    5    5    0    0 -0.40632053059E+03  0.11255451243E+03 -0.64242687935E+03  0.76842513439E+03  0.00000000000E+00 0. -1.
          4    1    6    6  503    0  0.66289024574E+02  0.17351532113E+03 -0.10323603730E+03  0.21250760185E+03  0.00000000000E+00 0.  1.
         -4    1    6    6    0  503  0.14312044354E+03  0.40844388771E+03 -0.40867748704E+03  0.59525386112E+03  0.00000000000E+00 0. -1.
<mgrwt>
<rscale>  0 0.27156625E+04</rscale>
<asrwt>0</asrwt>
<pdfrwt beam="1">  1        2 0.15848974E+00 0.27156625E+04</pdfrwt>
<pdfrwt beam="2">  1       -1 0.27533645E+00 0.27156625E+04</pdfrwt>
<totfact> 0.11479996E+00</totfact>
</mgrwt>
</event>
<event>
12    6  0.1457317E-007  0.2463323E+04  0.7818608E-02  0.8416169E-01
         -1   -1    0    0    0  501 -0.00000000000E+00  0.00000000000E+00  0.56395155067E+03  0.56395155067E+03  0.00000000000E+00 0.  1.
          2   -1    0    0  501    0  0.00000000000E+00 -0.00000000000E+00 -0.26899307192E+04  0.26899307192E+04  0.00000000000E+00 0. -1.
         24    2    1    2    0    0  0.78564090175E+03  0.59821570865E+03 -0.14398431672E+04  0.17475338458E+04  0.75050218951E+02 0.  0.
        254    2    1    2    0    0 -0.78564090175E+03 -0.59821570865E+03 -0.68613600131E+03  0.15063484241E+04  0.90730882389E+03 0.  0.
         23    2    4    4    0    0 -0.27523650806E+03  0.11799062751E+03  0.95081416879E+02  0.32653425950E+03  0.88922568793E+02 0.  0.
         23    2    4    4    0    0 -0.51040439369E+03 -0.71620633616E+03 -0.78121741818E+03  0.11798141646E+04  0.90535338211E+02 0.  0.
          2    1    3    3  502    0  0.60434745404E+02  0.29162040440E+02 -0.12288471309E+03  0.14001227005E+03  0.00000000000E+00 0. -1.
         -3    1    3    3    0  502  0.72520615634E+03  0.56905366821E+03 -0.13169584541E+04  0.16075215757E+04  0.00000000000E+00 0.  1.
         11    1    5    5    0    0 -0.88703506654E+02 -0.34824027196E+01  0.39116544051E+02  0.97007954519E+02  0.00000000000E+00 0. -1.
        -11    1    5    5    0    0 -0.18653300141E+03  0.12147303023E+03  0.55964872828E+02  0.22952630498E+03  0.00000000000E+00 0.  1.
          3    1    6    6  503    0 -0.79599574629E+01 -0.74711822130E+01 -0.27777037045E+02  0.29845322472E+02  0.00000000000E+00 0. -1.
         -3    1    6    6    0  503 -0.50244443622E+03 -0.70873515394E+03 -0.75344038114E+03  0.11499688421E+04  0.00000000000E+00 0.  1.
<mgrwt>
<rscale>  0 0.24633234E+04</rscale>
<asrwt>0</asrwt>
<pdfrwt beam="1">  1        2 0.41383549E+00 0.24633234E+04</pdfrwt>
<pdfrwt beam="2">  1       -1 0.86761778E-01 0.24633234E+04</pdfrwt>
<totfact> 0.35863636E+00</totfact>
</mgrwt>
</event>
<event>
12    6  0.1457317E-007  0.2813116E+04  0.7818608E-02  0.8299208E-01
          2   -1    0    0  501    0  0.00000000000E+00  0.00000000000E+00  0.72712504090E+03  0.72712504090E+03  0.00000000000E+00 0. -1.
         -1   -1    0    0    0  501 -0.00000000000E+00 -0.00000000000E+00 -0.27208608934E+04  0.27208608934E+04  0.00000000000E+00 0.  1.
         24    2    1    2    0    0  0.46274741320E+03  0.11396248156E+04 -0.12480740048E+04  0.17541686558E+04  0.80864471987E+02 0.  0.
        254    2    1    2    0    0 -0.46274741320E+03 -0.11396248156E+04 -0.74566184766E+03  0.16938172785E+04  0.89449734109E+03 0.  0.
         23    2    4    4    0    0 -0.58359150831E+03 -0.93668965203E+03 -0.87308145333E+03  0.14101950013E+04  0.91717854409E+02 0.  0.
         23    2    4    4    0    0  0.12084409512E+03 -0.20293516352E+03  0.12741960567E+03  0.28362227717E+03  0.91759818431E+02 0.  0.
          2    1    3    3  502    0  0.10751965206E+03  0.35191606982E+03 -0.34855657193E+03  0.50685015499E+03  0.00000000000E+00 0. -1.
         -3    1    3    3    0  502  0.35522776114E+03  0.78770874574E+03 -0.89951743290E+03  0.12473185008E+04  0.00000000000E+00 0.  1.
         11    1    5    5    0    0 -0.58117161846E+03 -0.90964336863E+03 -0.84261450199E+03  0.13693833310E+04  0.00000000000E+00 0.  1.
        -11    1    5    5    0    0 -0.24198898551E+01 -0.27046283399E+02 -0.30466951337E+02  0.40811670345E+02  0.00000000000E+00 0. -1.
          2    1    6    6  503    0  0.74214580991E+02 -0.74293083336E+02  0.98057331380E+02  0.14367500305E+03  0.00000000000E+00 0. -1.
         -2    1    6    6    0  503  0.46629514126E+02 -0.12864208019E+03  0.29362274289E+02  0.13994727412E+03  0.00000000000E+00 0.  1.
<mgrwt>
<rscale>  0 0.28131165E+04</rscale>
<asrwt>0</asrwt>
<pdfrwt beam="1">  1        2 0.11186539E+00 0.28131165E+04</pdfrwt>
<pdfrwt beam="2">  1       -1 0.41859398E+00 0.28131165E+04</pdfrwt>
<totfact> 0.20611810E-01</totfact>
</mgrwt>
</event>
<event>
12    6  0.1457317E-007  0.1994678E+04  0.7818608E-02  0.8609113E-01
          2   -1    0    0  501    0  0.00000000000E+00  0.00000000000E+00  0.19360033263E+04  0.19360033263E+04  0.00000000000E+00 0. -1.
         -1   -1    0    0    0  501 -0.00000000000E+00 -0.00000000000E+00 -0.51378249513E+03  0.51378249513E+03  0.00000000000E+00 0.  1.
         24    2    1    2    0    0  0.12572427445E+03 -0.27158628064E+03  0.14652892944E+04  0.14973979383E+04  0.74579946741E+02 0.  0.
        254    2    1    2    0    0 -0.12572427445E+03  0.27158628064E+03 -0.43068463236E+02  0.95238788307E+03  0.90311798026E+03 0.  0.
         23    2    4    4    0    0 -0.13505443116E+03  0.49956525274E+03 -0.29258629516E+03  0.60149197141E+03  0.91546220207E+02 0.  0.
         23    2    4    4    0    0  0.93301567123E+01 -0.22797897210E+03  0.24951783192E+03  0.35089591166E+03  0.93847369857E+02 0.  0.
          2    1    3    3  502    0  0.13307206254E+03 -0.24579252546E+03  0.13788466477E+04  0.14068902649E+04  0.00000000000E+00 0. -1.
         -1    1    3    3    0  502 -0.73477880899E+01 -0.25793755185E+02  0.86442646656E+02  0.90507673472E+02  0.00000000000E+00 0.  1.
         11    1    5    5    0    0 -0.88885961515E+02  0.16592373715E+03 -0.11730601967E+03  0.22179292810E+03  0.00000000000E+00 0. -1.
        -11    1    5    5    0    0 -0.46168469643E+02  0.33364151559E+03 -0.17528027548E+03  0.37969904331E+03  0.00000000000E+00 0.  1.
          4    1    6    6  503    0 -0.40943641328E+02 -0.86841921153E+02  0.11211297313E+03  0.14760494497E+03  0.00000000000E+00 0.  1.
         -4    1    6    6    0  503  0.50273798040E+02 -0.14113705095E+03  0.13740485879E+03  0.20329096669E+03  0.00000000000E+00 0. -1.
<mgrwt>
<rscale>  0 0.19946775E+04</rscale>
<asrwt>0</asrwt>
<pdfrwt beam="1">  1        2 0.29784666E+00 0.19946775E+04</pdfrwt>
<pdfrwt beam="2">  1       -1 0.79043462E-01 0.19946775E+04</pdfrwt>
<totfact> 0.12281469E+01</totfact>
</mgrwt>
</event>
<event>
12    6  0.1457317E-007  0.1484850E+04  0.7818608E-02  0.8894590E-01
          2   -1    0    0  501    0  0.00000000000E+00  0.00000000000E+00  0.58707828419E+03  0.58707828419E+03  0.00000000000E+00 0. -1.
         -1   -1    0    0    0  501 -0.00000000000E+00 -0.00000000000E+00 -0.93887804941E+03  0.93887804941E+03  0.00000000000E+00 0.  1.
         24    2    1    2    0    0  0.39842526364E+03  0.53672000521E+02 -0.34701101246E+03  0.53832201753E+03  0.88037363929E+02 0.  0.
        254    2    1    2    0    0 -0.39842526364E+03 -0.53672000521E+02 -0.47887527541E+01  0.98763431607E+03  0.90209491506E+03 0.  0.
         23    2    4    4    0    0  0.19900521503E+03  0.76965218548E+02 -0.23273338396E+03  0.32873638657E+03  0.91520835713E+02 0.  0.
         23    2    4    4    0    0 -0.59743047867E+03 -0.13063721907E+03  0.22794463120E+03  0.65889792950E+03  0.90545385101E+02 0.  0.
          4    1    3    3  502    0  0.35741813639E+03  0.48136913599E+02 -0.26865608472E+03  0.44971210627E+03  0.00000000000E+00 0. -1.
         -3    1    3    3    0  502  0.41007127250E+02  0.55350869221E+01 -0.78354927744E+02  0.88609911264E+02  0.00000000000E+00 0.  1.
         11    1    5    5    0    0  0.20473274993E+03  0.83869718014E+02 -0.23048382536E+03  0.31948774976E+03  0.00000000000E+00 0. -1.
        -11    1    5    5    0    0 -0.57275348996E+01 -0.69044994663E+01 -0.22495585956E+01  0.92486368066E+01  0.00000000000E+00 0.  1.
          1    1    6    6  503    0 -0.54828280911E+03 -0.11172546838E+03  0.18029674325E+03  0.58788054457E+03  0.00000000000E+00 0. -1.
         -1    1    6    6    0  503 -0.49147669554E+02 -0.18911750685E+02  0.47647887957E+02  0.71017384937E+02  0.00000000000E+00 0.  1.
<mgrwt>
<rscale>  0 0.14848500E+04</rscale>
<asrwt>0</asrwt>
<pdfrwt beam="1">  1        2 0.90319736E-01 0.14848500E+04</pdfrwt>
<pdfrwt beam="2">  1       -1 0.14444278E+00 0.14848500E+04</pdfrwt>
<totfact> 0.21729126E+01</totfact>
</mgrwt>
</event>
<event>
12    6  0.1457317E-007  0.1579237E+04  0.7818608E-02  0.8833406E-01
         -1   -1    0    0    0  501 -0.00000000000E+00  0.00000000000E+00  0.32333294366E+03  0.32333294366E+03  0.00000000000E+00 0.  1.
          2   -1    0    0  501    0  0.00000000000E+00 -0.00000000000E+00 -0.19283441797E+04  0.19283441797E+04  0.00000000000E+00 0. -1.
         24    2    1    2    0    0 -0.37870311905E+03 -0.35055214183E+03 -0.69918618795E+03  0.87255804119E+03  0.78697860853E+02 0.  0.
        254    2    1    2    0    0  0.37870311905E+03  0.35055214183E+03 -0.90582504809E+03  0.13791190822E+04  0.90285523122E+03 0.  0.
         23    2    4    4    0    0  0.61649737408E+03  0.10424656296E+03 -0.35631685565E+03  0.72521004468E+03  0.89618910651E+02 0.  0.
         23    2    4    4    0    0 -0.23779425503E+03  0.24630557887E+03 -0.54950819244E+03  0.65390903749E+03  0.91789050762E+02 0.  0.
          4    1    3    3  502    0 -0.31598076216E+03 -0.30915757180E+03 -0.63502653242E+03  0.77374475322E+03  0.00000000000E+00 0. -1.
         -3    1    3    3    0  502 -0.62722356885E+02 -0.41394570035E+02 -0.64159655529E+02  0.98813287968E+02  0.00000000000E+00 0.  1.
         11    1    5    5    0    0  0.35370864209E+03  0.35036274791E+02 -0.24418288023E+03  0.43123383800E+03  0.00000000000E+00 0. -1.
        -11    1    5    5    0    0  0.26278873199E+03  0.69210288172E+02 -0.11213397543E+03  0.29397620668E+03  0.00000000000E+00 0.  1.
          4    1    6    6  503    0 -0.20541974051E+02  0.38501154516E+02 -0.27685657382E+02  0.51679853151E+02  0.00000000000E+00 0. -1.
         -4    1    6    6    0  503 -0.21725228098E+03  0.20780442435E+03 -0.52182253506E+03  0.60222918434E+03  0.00000000000E+00 0.  1.
<mgrwt>
<rscale>  0 0.15792368E+04</rscale>
<asrwt>0</asrwt>
<pdfrwt beam="1">  1        2 0.29666834E+00 0.15792368E+04</pdfrwt>
<pdfrwt beam="2">  1       -1 0.49743529E-01 0.15792368E+04</pdfrwt>
<totfact> 0.32479100E+01</totfact>
</mgrwt>
</event>
<event>
12    6  0.1457317E-007  0.1873406E+04  0.7818608E-02  0.8668208E-01
          2   -1    0    0  501    0  0.00000000000E+00  0.00000000000E+00  0.14141188365E+04  0.14141188365E+04  0.00000000000E+00 0. -1.
         -1   -1    0    0    0  501 -0.00000000000E+00 -0.00000000000E+00 -0.62046604055E+03  0.62046604055E+03  0.00000000000E+00 0.  1.
         24    2    1    2    0    0 -0.51171491464E+03 -0.19099781741E+03  0.78391582529E+03  0.95953455635E+03  0.88601487447E+02 0.  0.
        254    2    1    2    0    0  0.51171491464E+03  0.19099781741E+03  0.97369706809E+01  0.10750503207E+04  0.92590823700E+03 0.  0.
         23    2    4    4    0    0 -0.11202550670E+03  0.10907512798E+03 -0.31276283968E+03  0.36204749226E+03  0.93865302801E+02 0.  0.
         23    2    4    4    0    0  0.62374042134E+03  0.81922689424E+02  0.32249981037E+03  0.71300282845E+03  0.92754867427E+02 0.  0.
          4    1    3    3  502    0 -0.29941610631E+03 -0.72260244317E+02  0.47891407505E+03  0.56941218718E+03  0.00000000000E+00 0. -1.
         -3    1    3    3    0  502 -0.21229880832E+03 -0.11873757309E+03  0.30500175024E+03  0.39012236918E+03  0.00000000000E+00 0.  1.
         11    1    5    5    0    0 -0.87179312754E+02  0.85796330499E+02 -0.30280080818E+03  0.32657246108E+03  0.00000000000E+00 0. -1.
        -11    1    5    5    0    0 -0.24846193950E+02  0.23278797484E+02 -0.99620315067E+01  0.35475031189E+02  0.00000000000E+00 0.  1.
          3    1    6    6  503    0  0.53082572510E+03  0.36962489979E+02  0.28101798526E+03  0.60175849319E+03  0.00000000000E+00 0. -1.
         -3    1    6    6    0  503  0.92914696243E+02  0.44960199445E+02  0.41481825110E+02  0.11124433526E+03  0.00000000000E+00 0.  1.
<mgrwt>
<rscale>  0 0.18734062E+04</rscale>
<asrwt>0</asrwt>
<pdfrwt beam="1">  1        2 0.21755674E+00 0.18734062E+04</pdfrwt>
<pdfrwt beam="2">  1       -1 0.95456314E-01 0.18734062E+04</pdfrwt>
<totfact> 0.16093732E+01</totfact>
</mgrwt>
</event>
<event>
12    6  0.1457317E-007  0.1644078E+04  0.7818608E-02  0.8793917E-01
          2   -1    0    0  501    0  0.00000000000E+00  0.00000000000E+00  0.14829229557E+04  0.14829229557E+04  0.00000000000E+00 0. -1.
         -1   -1    0    0    0  501 -0.00000000000E+00 -0.00000000000E+00 -0.45568668731E+03  0.45568668731E+03  0.00000000000E+00 0.  1.
         24    2    1    2    0    0  0.32151615636E+02  0.68387941092E+02 -0.31618441255E+03  0.33480999064E+03  0.80090637514E+02 0.  0.
        254    2    1    2    0    0 -0.32151615636E+02 -0.68387941092E+02  0.13434206810E+04  0.16037996524E+04  0.87274484365E+03 0.  0.
         23    2    4    4    0    0 -0.38765501737E+03  0.92256141790E+02  0.98551567447E+03  0.10668036065E+04  0.89672638322E+02 0.  0.
         23    2    4    4    0    0  0.35550340173E+03 -0.16064408288E+03  0.35790500650E+03  0.53699604588E+03  0.89886426171E+02 0.  0.
          2    1    3    3  502    0  0.54007240496E+02  0.22213113233E+02 -0.15066841364E+03  0.16158952718E+03  0.00000000000E+00 0. -1.
         -1    1    3    3    0  502 -0.21855624860E+02  0.46174827859E+02 -0.16551599891E+03  0.17322046346E+03  0.00000000000E+00 0.  1.
         11    1    5    5    0    0 -0.10128780869E+01 -0.31382055822E+01 -0.56305607371E+00  0.33453383143E+01  0.00000000000E+00 0.  1.
        -11    1    5    5    0    0 -0.38664213928E+03  0.95394347372E+02  0.98607873055E+03  0.10634582682E+04  0.00000000000E+00 0. -1.
          3    1    6    6  503    0  0.20932980490E+03 -0.13637783050E+03  0.25208555800E+03  0.35491549476E+03  0.00000000000E+00 0. -1.
         -3    1    6    6    0  503  0.14617359684E+03 -0.24266252383E+02  0.10581944850E+03  0.18208055112E+03  0.00000000000E+00 0.  1.
<mgrwt>
<rscale>  0 0.16440782E+04</rscale>
<asrwt>0</asrwt>
<pdfrwt beam="1">  1        2 0.22814199E+00 0.16440782E+04</pdfrwt>
<pdfrwt beam="2">  1       -1 0.70105645E-01 0.16440782E+04</pdfrwt>
<totfact> 0.29073647E+01</totfact>
</mgrwt>
</event>
<event>
12    6  0.1457317E-007  0.1062473E+04  0.7818608E-02  0.9242560E-01
         -1   -1    0    0    0  501 -0.00000000000E+00  0.00000000000E+00  0.22470020060E+03  0.22470020060E+03  0.00000000000E+00 0.  1.
          2   -1    0    0  501    0  0.00000000000E+00 -0.00000000000E+00 -0.12559510283E+04  0.12559510283E+04  0.00000000000E+00 0. -1.
         24    2    1    2    0    0 -0.72941941979E+02 -0.13194903846E+01 -0.26706631461E+03  0.28824862363E+03  0.80253253341E+02 0.  0.
        254    2    1    2    0    0  0.72941941979E+02  0.13194903846E+01 -0.76418451306E+03  0.11924026052E+04  0.91242738617E+03 0.  0.
         23    2    4    4    0    0 -0.31181534479E+03  0.92606046439E+02 -0.70561119895E+03  0.78238749291E+03  0.91860415257E+02 0.  0.
         23    2    4    4    0    0  0.38475728676E+03 -0.91286556055E+02 -0.58573314105E+02  0.41001511233E+03  0.91160047071E+02 0.  0.
          4    1    3    3  502    0 -0.67900988296E+02 -0.15884018030E+02 -0.26330678755E+03  0.27238449040E+03  0.00000000000E+00 0. -1.
         -3    1    3    3    0  502 -0.50409536828E+01  0.14564527645E+02 -0.37595270634E+01  0.15864133235E+02  0.00000000000E+00 0.  1.
         11    1    5    5    0    0 -0.15057987986E+03  0.26817464644E+02 -0.42978810255E+03  0.45619216316E+03  0.00000000000E+00 0. -1.
        -11    1    5    5    0    0 -0.16123546493E+03  0.65788581795E+02 -0.27582309640E+03  0.32619532975E+03  0.00000000000E+00 0.  1.
          3    1    6    6  503    0  0.89582486929E+02 -0.59124320116E+01  0.21836429829E+02  0.92394850963E+02  0.00000000000E+00 0. -1.
         -3    1    6    6    0  503  0.29517479983E+03 -0.85374124043E+02 -0.80409743934E+02  0.31762026137E+03  0.00000000000E+00 0.  1.
<mgrwt>
<rscale>  0 0.10624734E+04</rscale>
<asrwt>0</asrwt>
<pdfrwt beam="1">  1        2 0.19322324E+00 0.10624734E+04</pdfrwt>
<pdfrwt beam="2">  1       -1 0.34569262E-01 0.10624734E+04</pdfrwt>
<totfact> 0.15768895E+02</totfact>
</mgrwt>
</event>
<event>
12    6  0.1457317E-007  0.1636838E+04  0.7818608E-02  0.8798231E-01
         -1   -1    0    0    0  501 -0.00000000000E+00  0.00000000000E+00  0.12625690115E+04  0.12625690115E+04  0.00000000000E+00 0.  1.
          2   -1    0    0  501    0  0.00000000000E+00 -0.00000000000E+00 -0.53051357632E+03  0.53051357632E+03  0.00000000000E+00 0. -1.
         24    2    1    2    0    0  0.22344275301E+03 -0.44488579646E+03  0.55133511252E+03  0.74707921183E+03  0.79416035527E+02 0.  0.
        254    2    1    2    0    0 -0.22344275301E+03  0.44488579646E+03  0.18072032267E+03  0.10460033760E+04  0.90200509522E+03 0.  0.
         23    2    4    4    0    0  0.23073296683E+03  0.40810974364E+03  0.30293356759E+03  0.56515884100E+03  0.88569206535E+02 0.  0.
         23    2    4    4    0    0 -0.45417571984E+03  0.36776052814E+02 -0.12221324492E+03  0.48084453500E+03  0.92991005238E+02 0.  0.
          2    1    3    3  502    0  0.11595880036E+01 -0.11305101120E+02  0.87674363698E-01  0.11364754395E+02  0.00000000000E+00 0. -1.
         -1    1    3    3    0  502  0.22228316500E+03 -0.43358069534E+03  0.55124743815E+03  0.73571445744E+03  0.00000000000E+00 0.  1.
         11    1    5    5    0    0  0.89144217557E+02  0.83366828924E+02  0.92090443540E+02  0.15289659735E+03  0.00000000000E+00 0. -1.
        -11    1    5    5    0    0  0.14158874927E+03  0.32474291472E+03  0.21084312405E+03  0.41226224365E+03  0.00000000000E+00 0.  1.
          2    1    6    6  503    0 -0.52443830820E+02  0.35283482419E+02 -0.13029766504E+02  0.64537232183E+02  0.00000000000E+00 0. -1.
         -2    1    6    6    0  503 -0.40173188902E+03  0.14925703954E+01 -0.10918347842E+03  0.41630730282E+03  0.00000000000E+00 0.  1.
<mgrwt>
<rscale>  0 0.16368384E+04</rscale>
<asrwt>0</asrwt>
<pdfrwt beam="1">  1        2 0.81617474E-01 0.16368384E+04</pdfrwt>
<pdfrwt beam="2">  1       -1 0.19424139E+00 0.16368384E+04</pdfrwt>
<totfact> 0.10358825E+01</totfact>
</mgrwt>
</event>
<event>
12    6  0.1457317E-007  0.2039752E+04  0.7818608E-02  0.8588258E-01
          2   -1    0    0  501    0  0.00000000000E+00  0.00000000000E+00  0.15036622512E+04  0.15036622512E+04  0.00000000000E+00 0. -1.
         -1   -1    0    0    0  501 -0.00000000000E+00 -0.00000000000E+00 -0.69174226389E+03  0.69174226389E+03  0.00000000000E+00 0.  1.
         24    2    1    2    0    0 -0.54289626501E+03  0.13039123473E+03 -0.31089314981E+03  0.64592646837E+03  0.93958625347E+02 0.  0.
        254    2    1    2    0    0  0.54289626501E+03 -0.13039123473E+03  0.11228131372E+04  0.15494780468E+04  0.91018385381E+03 0.  0.
         23    2    4    4    0    0  0.17728857512E+03 -0.50004688636E+03  0.61129389656E+03  0.81451173034E+03  0.90945057349E+02 0.  0.
         23    2    4    4    0    0  0.36560768989E+03  0.36965565163E+03  0.51151924060E+03  0.73496631642E+03  0.90605016824E+02 0.  0.
          4    1    3    3  502    0 -0.10561105470E+03 -0.35269273484E+01 -0.32634480005E+02  0.11059449975E+03  0.00000000000E+00 0. -1.
         -3    1    3    3    0  502 -0.43728521032E+03  0.13391816208E+03 -0.27825866981E+03  0.53533196861E+03  0.00000000000E+00 0.  1.
         11    1    5    5    0    0  0.36917264529E+01 -0.32553593056E+01 -0.28921229340E+01  0.57088162939E+01  0.00000000000E+00 0. -1.
        -11    1    5    5    0    0  0.17359684867E+03 -0.49679152706E+03  0.61418601949E+03  0.80880291404E+03  0.00000000000E+00 0.  1.
          4    1    6    6  503    0  0.35224599551E+03  0.33933655625E+03  0.44775236396E+03  0.66310536055E+03  0.00000000000E+00 0.  1.
         -4    1    6    6    0  503  0.13361694384E+02  0.30319095382E+02  0.63766876646E+02  0.71860955872E+02  0.00000000000E+00 0. -1.
<mgrwt>
<rscale>  0 0.20397517E+04</rscale>
<asrwt>0</asrwt>
<pdfrwt beam="1">  1        2 0.23133265E+00 0.20397517E+04</pdfrwt>
<pdfrwt beam="2">  1       -1 0.10642189E+00 0.20397517E+04</pdfrwt>
<totfact> 0.10997289E+01</totfact>
</mgrwt>
</event>
<event>
12    6  0.1457317E-007  0.3797561E+04  0.7818608E-02  0.8046678E-01
         -1   -1    0    0    0  501 -0.00000000000E+00  0.00000000000E+00  0.14729504702E+04  0.14729504702E+04  0.00000000000E+00 0.  1.
          2   -1    0    0  501    0  0.00000000000E+00 -0.00000000000E+00 -0.24477185997E+04  0.24477185997E+04  0.00000000000E+00 0. -1.
         24    2    1    2    0    0 -0.91795673880E+03 -0.84034209039E+03 -0.17902535494E+04  0.21818162217E+04  0.80590638418E+02 0.  0.
        254    2    1    2    0    0  0.91795673880E+03  0.84034209039E+03  0.81548541993E+03  0.17388528482E+04  0.89987407690E+03 0.  0.
         23    2    4    4    0    0 -0.16153678236E+02 -0.84896654396E+02 -0.76304721438E+02  0.14746828397E+03  0.91957060716E+02 0.  0.
         23    2    4    4    0    0  0.93411041703E+03  0.92523874479E+03  0.89179014137E+03  0.15913845642E+04  0.92661582385E+02 0.  0.
          4    1    3    3  502    0 -0.83207748635E+03 -0.77149740708E+03 -0.15910434795E+04  0.19542212122E+04  0.00000000000E+00 0. -1.
         -3    1    3    3    0  502 -0.85879252445E+02 -0.68844683313E+02 -0.19921006988E+03  0.22759500953E+03  0.00000000000E+00 0.  1.
         11    1    5    5    0    0  0.32916921437E+02 -0.58548060236E+02 -0.24775915448E+02  0.71590816874E+02  0.00000000000E+00 0.  1.
        -11    1    5    5    0    0 -0.49070599673E+02 -0.26348594160E+02 -0.51528805990E+02  0.75877467098E+02  0.00000000000E+00 0. -1.
          1    1    6    6  503    0  0.72599070262E+03  0.69926353988E+03  0.72666944083E+03  0.12426103471E+04  0.00000000000E+00 0. -1.
         -1    1    6    6    0  503  0.20811971441E+03  0.22597520491E+03  0.16512070054E+03  0.34877421709E+03  0.00000000000E+00 0.  1.
<mgrwt>
<rscale>  0 0.37975615E+04</rscale>
<asrwt>0</asrwt>
<pdfrwt beam="1">  1        2 0.37657209E+00 0.37975615E+04</pdfrwt>
<pdfrwt beam="2">  1       -1 0.22660777E+00 0.37975615E+04</pdfrwt>
<totfact> 0.33821021E-01</totfact>
</mgrwt>
</event>
<event>
12    6  0.1457317E-007  0.1339194E+04  0.7818608E-02  0.8999049E-01
         -1   -1    0    0    0  501 -0.00000000000E+00  0.00000000000E+00  0.17683364666E+03  0.17683364666E+03  0.00000000000E+00 0.  1.
          2   -1    0    0  501    0  0.00000000000E+00 -0.00000000000E+00 -0.25354898703E+04  0.25354898703E+04  0.00000000000E+00 0. -1.
         24    2    1    2    0    0  0.16725727908E+03  0.25924687156E+03 -0.27492601581E+03  0.42074200559E+03  0.79092245402E+02 0.  0.
        254    2    1    2    0    0 -0.16725727908E+03 -0.25924687156E+03 -0.20837302079E+04  0.22915815114E+04  0.90234710972E+03 0.  0.
         23    2    4    4    0    0 -0.38283116232E+03 -0.37208926582E+03 -0.70344998597E+03  0.88766083874E+03  0.89943100306E+02 0.  0.
         23    2    4    4    0    0  0.21557388325E+03  0.11284239426E+03 -0.13802802219E+04  0.14039206727E+04  0.81328095321E+02 0.  0.
          2    1    3    3  502    0  0.11393321359E+03  0.12588490703E+03 -0.11127412395E+03  0.20300176758E+03  0.00000000000E+00 0. -1.
         -1    1    3    3    0  502  0.53324065483E+02  0.13336196453E+03 -0.16365189185E+03  0.21774023801E+03  0.00000000000E+00 0.  1.
         11    1    5    5    0    0 -0.66277511936E+02 -0.65361587553E+02 -0.72465891852E+02  0.11796673768E+03  0.00000000000E+00 0. -1.
        -11    1    5    5    0    0 -0.31655365039E+03 -0.30672767826E+03 -0.63098409412E+03  0.76969410106E+03  0.00000000000E+00 0.  1.
          3    1    6    6  503    0  0.80616324661E+02  0.72080940838E+01 -0.33202243830E+03  0.34174529691E+03  0.00000000000E+00 0. -1.
         -3    1    6    6    0  503  0.13495755859E+03  0.10563430018E+03 -0.10482577836E+04  0.10621753758E+04  0.00000000000E+00 0.  1.
<mgrwt>
<rscale>  0 0.13391937E+04</rscale>
<asrwt>0</asrwt>
<pdfrwt beam="1">  1        2 0.39007532E+00 0.13391937E+04</pdfrwt>
<pdfrwt beam="2">  1       -1 0.27205179E-01 0.13391937E+04</pdfrwt>
<totfact> 0.44946449E+01</totfact>
</mgrwt>
</event>
<event>
12    6  0.1457317E-007  0.1554517E+04  0.7818608E-02  0.8848988E-01
          2   -1    0    0  501    0  0.00000000000E+00  0.00000000000E+00  0.10530337532E+04  0.10530337532E+04  0.00000000000E+00 0. -1.
         -1   -1    0    0    0  501 -0.00000000000E+00 -0.00000000000E+00 -0.57370518282E+03  0.57370518282E+03  0.00000000000E+00 0.  1.
         24    2    1    2    0    0 -0.25356218809E+03 -0.10400871728E+03  0.61257055687E+03  0.67588880220E+03  0.80444945722E+02 0.  0.
        254    2    1    2    0    0  0.25356218809E+03  0.10400871728E+03 -0.13324198645E+03  0.95085013387E+03  0.90069470612E+03 0.  0.
         23    2    4    4    0    0 -0.29031954098E+02  0.17297428394E+03  0.33674658435E+03  0.39039096713E+03  0.90795858293E+02 0.  0.
         23    2    4    4    0    0  0.28259414219E+03 -0.68965566661E+02 -0.46998857080E+03  0.56045916674E+03  0.92787511615E+02 0.  0.
          2    1    3    3  502    0 -0.10120059948E+03 -0.26190504330E+02  0.32365979129E+03  0.34012227853E+03  0.00000000000E+00 0. -1.
         -1    1    3    3    0  502 -0.15236158861E+03 -0.77818212945E+02  0.28891076558E+03  0.33576652367E+03  0.00000000000E+00 0.  1.
         11    1    5    5    0    0 -0.49602327726E+02  0.58105839527E+02  0.17493043806E+03  0.19088566647E+03  0.00000000000E+00 0.  1.
        -11    1    5    5    0    0  0.20570373628E+02  0.11486844441E+03  0.16181614629E+03  0.19950530067E+03  0.00000000000E+00 0. -1.
          1    1    6    6  503    0  0.88538480928E+02 -0.61948792405E+02 -0.13124761279E+03  0.17000779790E+03  0.00000000000E+00 0.  1.
         -1    1    6    6    0  503  0.19405566126E+03 -0.70167742557E+01 -0.33874095801E+03  0.39045136883E+03  0.00000000000E+00 0. -1.
<mgrwt>
<rscale>  0 0.15545172E+04</rscale>
<asrwt>0</asrwt>
<pdfrwt beam="1">  1        2 0.16200519E+00 0.15545172E+04</pdfrwt>
<pdfrwt beam="2">  1       -1 0.88262336E-01 0.15545172E+04</pdfrwt>
<totfact> 0.32264798E+01</totfact>
</mgrwt>
</event>
<event>
12    6  0.1457317E-007  0.1675006E+04  0.7818608E-02  0.8775749E-01
          2   -1    0    0  501    0  0.00000000000E+00  0.00000000000E+00  0.15554398203E+04  0.15554398203E+04  0.00000000000E+00 0. -1.
         -1   -1    0    0    0  501 -0.00000000000E+00 -0.00000000000E+00 -0.45094067974E+03  0.45094067974E+03  0.00000000000E+00 0.  1.
         24    2    1    2    0    0 -0.35257381073E+03 -0.31621375766E+03  0.85613380235E+03  0.98167536062E+03  0.80137341925E+02 0.  0.
        254    2    1    2    0    0  0.35257381073E+03  0.31621375766E+03  0.24836533823E+03  0.10247051395E+04  0.87409144204E+03 0.  0.
         23    2    4    4    0    0  0.56701079286E+03  0.46707769719E+02 -0.22833617236E+02  0.57671846599E+03  0.91651295478E+02 0.  0.
         23    2    4    4    0    0 -0.21443698214E+03  0.26950598794E+03  0.27119895547E+03  0.44798667346E+03  0.92338991286E+02 0.  0.
          2    1    3    3  502    0 -0.10148054490E+03 -0.10625474562E+03  0.34160708075E+03  0.37186525729E+03  0.00000000000E+00 0. -1.
         -1    1    3    3    0  502 -0.25109326583E+03 -0.20995901204E+03  0.51452672161E+03  0.60981010333E+03  0.00000000000E+00 0.  1.
         11    1    5    5    0    0  0.33666111870E+03  0.17039444904E+02 -0.57284653874E+02  0.34192482083E+03  0.00000000000E+00 0.  1.
        -11    1    5    5    0    0  0.23034967416E+03  0.29668324815E+02  0.34451036638E+02  0.23479364517E+03  0.00000000000E+00 0. -1.
          1    1    6    6  503    0 -0.16154574822E+03  0.18698236722E+03  0.13932195291E+03  0.28367241844E+03  0.00000000000E+00 0. -1.
         -1    1    6    6    0  503 -0.52891233920E+02  0.82523620716E+02  0.13187700256E+03  0.16431425503E+03  0.00000000000E+00 0.  1.
<mgrwt>
<rscale>  0 0.16750058E+04</rscale>
<asrwt>0</asrwt>
<pdfrwt beam="1">  1        2 0.23929843E+00 0.16750058E+04</pdfrwt>
<pdfrwt beam="2">  1       -1 0.69375490E-01 0.16750058E+04</pdfrwt>
<totfact> 0.26967129E+01</totfact>
</mgrwt>
</event>
<event>
12    6  0.1457317E-007  0.1579816E+04  0.7818608E-02  0.8833045E-01
         -1   -1    0    0    0  501 -0.00000000000E+00  0.00000000000E+00  0.77840894670E+03  0.77840894670E+03  0.00000000000E+00 0.  1.
          2   -1    0    0  501    0  0.00000000000E+00 -0.00000000000E+00 -0.80157691373E+03  0.80157691373E+03  0.00000000000E+00 0. -1.
         24    2    1    2    0    0 -0.91935430693E+02 -0.46506986622E+02 -0.52910962018E+03  0.54487153144E+03  0.79454215665E+02 0.  0.
        254    2    1    2    0    0  0.91935430693E+02  0.46506986622E+02  0.50594165316E+03  0.10351143290E+04  0.89714530286E+03 0.  0.
         23    2    4    4    0    0  0.31732949365E+03  0.12205305655E+03 -0.11007478009E+03  0.36851468113E+03  0.89953637199E+02 0.  0.
         23    2    4    4    0    0 -0.22539406295E+03 -0.75546069932E+02  0.61601643325E+03  0.66659964786E+03  0.91483070545E+02 0.  0.
          4    1    3    3  502    0 -0.63135145458E+02 -0.62422422836E+02 -0.45788541203E+03  0.46641361045E+03  0.00000000000E+00 0. -1.
         -3    1    3    3    0  502 -0.28800285235E+02  0.15915436214E+02 -0.71224208157E+02  0.78457920996E+02  0.00000000000E+00 0.  1.
         11    1    5    5    0    0  0.26830068574E+03  0.68758290155E+02 -0.10396580685E+03  0.29584091912E+03  0.00000000000E+00 0.  1.
        -11    1    5    5    0    0  0.49028807904E+02  0.53294766399E+02 -0.61089732390E+01  0.72673762005E+02  0.00000000000E+00 0. -1.
          4    1    6    6  503    0 -0.14131675632E+03 -0.12543143652E+01  0.31104558558E+03  0.34164507201E+03  0.00000000000E+00 0. -1.
         -4    1    6    6    0  503 -0.84077306632E+02 -0.74291755567E+02  0.30497084767E+03  0.32495457585E+03  0.00000000000E+00 0.  1.
<mgrwt>
<rscale>  0 0.15798160E+04</rscale>
<asrwt>0</asrwt>
<pdfrwt beam="1">  1        2 0.12331953E+00 0.15798160E+04</pdfrwt>
<pdfrwt beam="2">  1       -1 0.11975522E+00 0.15798160E+04</pdfrwt>
<totfact> 0.23443985E+01</totfact>
</mgrwt>
</event>
<event>
12    6  0.1457317E-007  0.1933047E+04  0.7818608E-02  0.8638579E-01
         -1   -1    0    0    0  501 -0.00000000000E+00  0.00000000000E+00  0.48054701225E+03  0.48054701225E+03  0.00000000000E+00 0.  1.
          2   -1    0    0  501    0  0.00000000000E+00 -0.00000000000E+00 -0.19439675848E+04  0.19439675848E+04  0.00000000000E+00 0. -1.
         24    2    1    2    0    0  0.42984453893E+03 -0.61658151649E+03 -0.69545970065E+03  0.10270563356E+04  0.79002703821E+02 0.  0.
        254    2    1    2    0    0 -0.42984453893E+03  0.61658151649E+03 -0.76796087193E+03  0.13974582614E+04  0.89341289310E+03 0.  0.
         23    2    4    4    0    0  0.58861666846E+02  0.39509013324E+03  0.51825196483E+02  0.41344169138E+03  0.93205536140E+02 0.  0.
         23    2    4    4    0    0 -0.48870620578E+03  0.22149138324E+03 -0.81978606841E+03  0.98401657007E+03  0.91363142431E+02 0.  0.
          2    1    3    3  502    0  0.19051836364E+03 -0.26025689077E+03 -0.24672712928E+03  0.40608517875E+03  0.00000000000E+00 0. -1.
         -1    1    3    3    0  502  0.23932617530E+03 -0.35632462572E+03 -0.44873257137E+03  0.62097115689E+03  0.00000000000E+00 0.  1.
         11    1    5    5    0    0  0.42772437583E+02  0.39117525518E+03  0.47786980848E+02  0.39639772605E+03  0.00000000000E+00 0.  1.
        -11    1    5    5    0    0  0.16089229263E+02  0.39148780689E+01  0.40382156349E+01  0.17043965328E+02  0.00000000000E+00 0. -1.
          3    1    6    6  503    0 -0.30991600507E+03  0.15248215765E+03 -0.44743655007E+03  0.56524172257E+03  0.00000000000E+00 0. -1.
         -3    1    6    6    0  503 -0.17879020071E+03  0.69009225590E+02 -0.37234951834E+03  0.41877484750E+03  0.00000000000E+00 0.  1.
<mgrwt>
<rscale>  0 0.19330471E+04</rscale>
<asrwt>0</asrwt>
<pdfrwt beam="1">  1        2 0.29907194E+00 0.19330471E+04</pdfrwt>
<pdfrwt beam="2">  1       -1 0.73930310E-01 0.19330471E+04</pdfrwt>
<totfact> 0.14066338E+01</totfact>
</mgrwt>
</event>
<event>
12    6  0.1457317E-007  0.2633300E+04  0.7818608E-02  0.8356977E-01
         -1   -1    0    0    0  501 -0.00000000000E+00  0.00000000000E+00  0.53636205455E+03  0.53636205455E+03  0.00000000000E+00 0.  1.
          2   -1    0    0  501    0  0.00000000000E+00 -0.00000000000E+00 -0.32320847445E+04  0.32320847445E+04  0.00000000000E+00 0. -1.
         24    2    1    2    0    0  0.33287474195E+03  0.47487928691E+03 -0.26259651301E+04  0.26907182589E+04  0.89196151101E+02 0.  0.
        254    2    1    2    0    0 -0.33287474195E+03 -0.47487928691E+03 -0.69757559845E+02  0.10777285401E+04  0.90571339732E+03 0.  0.
         23    2    4    4    0    0 -0.10442617018E+03 -0.68329038966E+03  0.11706974896E+03  0.70601274472E+03  0.83415154296E+02 0.  0.
         23    2    4    4    0    0 -0.22844857177E+03  0.20841110275E+03 -0.18682730881E+03  0.37171579541E+03  0.87431410516E+02 0.  0.
          2    1    3    3  502    0  0.30472404256E+03  0.45862995772E+03 -0.25352009996E+04  0.25943095976E+04  0.00000000000E+00 0. -1.
         -1    1    3    3    0  502  0.28150699392E+02  0.16249329186E+02 -0.90764130510E+02  0.96408661242E+02  0.00000000000E+00 0.  1.
         11    1    5    5    0    0 -0.15041435584E+02 -0.31210972452E+03  0.26281860893E+02  0.31357528783E+03  0.00000000000E+00 0.  1.
        -11    1    5    5    0    0 -0.89384734591E+02 -0.37118066513E+03  0.90787888072E+02  0.39243745689E+03  0.00000000000E+00 0. -1.
          1    1    6    6  503    0 -0.10771849756E+03  0.15531826558E+03 -0.10033039663E+03  0.21399352053E+03  0.00000000000E+00 0. -1.
         -1    1    6    6    0  503 -0.12073007421E+03  0.53092837171E+02 -0.86496912175E+02  0.15772227488E+03  0.00000000000E+00 0.  1.
<mgrwt>
<rscale>  0 0.26333003E+04</rscale>
<asrwt>0</asrwt>
<pdfrwt beam="1">  1        2 0.49724381E+00 0.26333003E+04</pdfrwt>
<pdfrwt beam="2">  1       -1 0.82517239E-01 0.26333003E+04</pdfrwt>
<totfact> 0.18087972E+00</totfact>
</mgrwt>
</event>
<event>
12    6  0.1457317E-007  0.1120709E+04  0.7818608E-02  0.9185239E-01
         -1   -1    0    0    0  501 -0.00000000000E+00  0.00000000000E+00  0.90219183833E+02  0.90219183833E+02  0.00000000000E+00 0.  1.
          2   -1    0    0  501    0  0.00000000000E+00 -0.00000000000E+00 -0.34803838330E+04  0.34803838330E+04  0.00000000000E+00 0. -1.
         24    2    1    2    0    0  0.20812384174E+02 -0.12670765779E+03 -0.27308759313E+03  0.31204002171E+03  0.79398713790E+02 0.  0.
        254    2    1    2    0    0 -0.20812384174E+02  0.12670765779E+03 -0.31170770560E+04  0.32585629951E+04  0.94105017614E+03 0.  0.
         23    2    4    4    0    0  0.40239721960E+03  0.15981903910E+03 -0.94608009181E+03  0.10445570477E+04  0.92553974559E+02 0.  0.
         23    2    4    4    0    0 -0.42320960378E+03 -0.33111381309E+02 -0.21709969642E+04  0.22140059474E+04  0.91606681873E+02 0.  0.
          2    1    3    3  502    0  0.38563184028E+02 -0.33197539927E+02 -0.60066497120E+02  0.78722169024E+02  0.00000000000E+00 0. -1.
         -1    1    3    3    0  502 -0.17750799853E+02 -0.93510117864E+02 -0.21302109601E+03  0.23331785269E+03  0.00000000000E+00 0.  1.
         11    1    5    5    0    0  0.24957374816E+03  0.55936313860E+02 -0.59983975803E+03  0.65209175910E+03  0.00000000000E+00 0.  1.
        -11    1    5    5    0    0  0.15282347145E+03  0.10388272524E+03 -0.34624033379E+03  0.39246528862E+03  0.00000000000E+00 0. -1.
          1    1    6    6  503    0 -0.12750109464E+03 -0.29807142699E+02 -0.48993225241E+03  0.50712780130E+03  0.00000000000E+00 0. -1.
         -1    1    6    6    0  503 -0.29570850913E+03 -0.33042386109E+01 -0.16810647118E+04  0.17068781461E+04  0.00000000000E+00 0.  1.
<mgrwt>
<rscale>  0 0.11207094E+04</rscale>
<asrwt>0</asrwt>
<pdfrwt beam="1">  1        2 0.53544371E+00 0.11207094E+04</pdfrwt>
<pdfrwt beam="2">  1       -1 0.13879873E-01 0.11207094E+04</pdfrwt>
<totfact> 0.36447674E+01</totfact>
</mgrwt>
</event>
<event>
12    6  0.1457317E-007  0.1632092E+04  0.7818608E-02  0.8801072E-01
         -1   -1    0    0    0  501 -0.00000000000E+00  0.00000000000E+00  0.25964174526E+03  0.25964174526E+03  0.00000000000E+00 0.  1.
          2   -1    0    0  501    0  0.00000000000E+00 -0.00000000000E+00 -0.25648073441E+04  0.25648073441E+04  0.00000000000E+00 0. -1.
         24    2    1    2    0    0 -0.43106251270E+03 -0.35723858548E+03 -0.66780536327E+03  0.87514782899E+03  0.80532121272E+02 0.  0.
        254    2    1    2    0    0  0.43106251270E+03  0.35723858548E+03 -0.16373602356E+04  0.19493012604E+04  0.89743666396E+03 0.  0.
         23    2    4    4    0    0  0.60708006969E+03  0.41045944684E+03 -0.80700867184E+03  0.10939177275E+04  0.91486772355E+02 0.  0.
         23    2    4    4    0    0 -0.17601755699E+03 -0.53220861357E+02 -0.83035156374E+03  0.85538353292E+03  0.91556695684E+02 0.  0.
          4    1    3    3  502    0 -0.29703877811E+03 -0.19828230824E+03 -0.44066688078E+03  0.56721707421E+03  0.00000000000E+00 0. -1.
         -3    1    3    3    0  502 -0.13402373459E+03 -0.15895627724E+03 -0.22713848249E+03  0.30793075478E+03  0.00000000000E+00 0.  1.
         11    1    5    5    0    0  0.55677634503E+03  0.36941089826E+03 -0.76878647247E+03  0.10185759424E+04  0.00000000000E+00 0. -1.
        -11    1    5    5    0    0  0.50303724657E+02  0.41048548584E+02 -0.38222199377E+02  0.75341785089E+02  0.00000000000E+00 0.  1.
          3    1    6    6  503    0 -0.15880603171E+03 -0.72786056660E+02 -0.77134129854E+03  0.79087582122E+03  0.00000000000E+00 0. -1.
         -3    1    6    6    0  503 -0.17211525272E+02  0.19565195303E+02 -0.59010265201E+02  0.64507711698E+02  0.00000000000E+00 0.  1.
<mgrwt>
<rscale>  0 0.16320920E+04</rscale>
<asrwt>0</asrwt>
<pdfrwt beam="1">  1        2 0.39458575E+00 0.16320920E+04</pdfrwt>
<pdfrwt beam="2">  1       -1 0.39944883E-01 0.16320920E+04</pdfrwt>
<totfact> 0.21277178E+01</totfact>
</mgrwt>
</event>
<event>
12    6  0.1457317E-007  0.2184606E+04  0.7818608E-02  0.8524863E-01
         -1   -1    0    0    0  501 -0.00000000000E+00  0.00000000000E+00  0.58598855086E+03  0.58598855086E+03  0.00000000000E+00 0.  1.
          2   -1    0    0  501    0  0.00000000000E+00 -0.00000000000E+00 -0.20360900506E+04  0.20360900506E+04  0.00000000000E+00 0. -1.
         24    2    1    2    0    0 -0.94529369800E+02 -0.89183803165E+03 -0.75405790769E+03  0.11744304858E+04  0.79829576676E+02 0.  0.
        254    2    1    2    0    0  0.94529369800E+02  0.89183803165E+03 -0.69604359209E+03  0.14476481157E+04  0.89827473993E+03 0.  0.
         23    2    4    4    0    0  0.38943739698E+03  0.66926901838E+03 -0.72662861453E+03  0.10659118874E+04  0.92717328691E+02 0.  0.
         23    2    4    4    0    0 -0.29490802718E+03  0.22256901327E+03  0.30585022446E+02  0.38173622835E+03  0.90991176907E+02 0.  0.
          2    1    3    3  502    0 -0.83437401845E+02 -0.73074569640E+03 -0.65583483868E+03  0.98542904791E+03  0.00000000000E+00 0. -1.
         -1    1    3    3    0  502 -0.11091967955E+02 -0.16109233525E+03 -0.98223069006E+02  0.18900143786E+03  0.00000000000E+00 0.  1.
         11    1    5    5    0    0  0.19165969299E+03  0.30324612257E+03 -0.27620758460E+03  0.45274968643E+03  0.00000000000E+00 0. -1.
        -11    1    5    5    0    0  0.19777770399E+03  0.36602289581E+03 -0.45042102993E+03  0.61316220094E+03  0.00000000000E+00 0.  1.
          2    1    6    6  503    0 -0.14230848235E+03  0.65550797838E+02 -0.17219265026E+02  0.15762333055E+03  0.00000000000E+00 0. -1.
         -2    1    6    6    0  503 -0.15259954483E+03  0.15701821543E+03  0.47804287472E+02  0.22411289780E+03  0.00000000000E+00 0.  1.
<mgrwt>
<rscale>  0 0.21846056E+04</rscale>
<asrwt>0</asrwt>
<pdfrwt beam="1">  1        2 0.31324462E+00 0.21846056E+04</pdfrwt>
<pdfrwt beam="2">  1       -1 0.90152086E-01 0.21846056E+04</pdfrwt>
<totfact> 0.79963191E+00</totfact>
</mgrwt>
</event>
<event>
12    6  0.1457317E-007  0.1819283E+04  0.7818608E-02  0.8696111E-01
          2   -1    0    0  501    0  0.00000000000E+00  0.00000000000E+00  0.73150571113E+03  0.73150571113E+03  0.00000000000E+00 0. -1.
         -1   -1    0    0    0  501 -0.00000000000E+00 -0.00000000000E+00 -0.11311573118E+04  0.11311573118E+04  0.00000000000E+00 0.  1.
         24    2    1    2    0    0  0.18328084560E+02  0.13573414065E+03  0.54632319395E+03  0.56887277052E+03  0.79921969232E+02 0.  0.
        254    2    1    2    0    0 -0.18328084560E+02 -0.13573414065E+03 -0.94597479466E+03  0.12937902525E+04  0.87193189503E+03 0.  0.
         23    2    4    4    0    0  0.27691334039E+03 -0.36942177173E+03 -0.66838054905E+03  0.81757055667E+03  0.92388382801E+02 0.  0.
         23    2    4    4    0    0 -0.29524142495E+03  0.23368763108E+03 -0.27759424561E+03  0.47621969578E+03  0.89158429360E+02 0.  0.
          4    1    3    3  502    0 -0.16835734367E+02  0.11110289135E+03  0.44200584630E+03  0.45606629187E+03  0.00000000000E+00 0. -1.
         -3    1    3    3    0  502  0.35163818927E+02  0.24631249298E+02  0.10431734765E+03  0.11280647864E+03  0.00000000000E+00 0.  1.
         11    1    5    5    0    0  0.10059478547E+02 -0.51444811732E+02 -0.10939379984E+03  0.12130443193E+03  0.00000000000E+00 0.  1.
        -11    1    5    5    0    0  0.26685386184E+03 -0.31797696000E+03 -0.55898674921E+03  0.69626612474E+03  0.00000000000E+00 0. -1.
          1    1    6    6  503    0 -0.24132407311E+03  0.18917980675E+03 -0.26479090432E+03  0.40514260521E+03  0.00000000000E+00 0. -1.
         -1    1    6    6    0  503 -0.53917351841E+02  0.44507824325E+02 -0.12803341292E+02  0.71077090570E+02  0.00000000000E+00 0.  1.
<mgrwt>
<rscale>  0 0.18192834E+04</rscale>
<asrwt>0</asrwt>
<pdfrwt beam="1">  1        2 0.11253934E+00 0.18192834E+04</pdfrwt>
<pdfrwt beam="2">  1       -1 0.17402420E+00 0.18192834E+04</pdfrwt>
<totfact> 0.95830916E+00</totfact>
</mgrwt>
</event>
<event>
12    6  0.1457317E-007  0.1606637E+04  0.7818608E-02  0.8816481E-01
          2   -1    0    0  501    0  0.00000000000E+00  0.00000000000E+00  0.16630680459E+04  0.16630680459E+04  0.00000000000E+00 0. -1.
         -1   -1    0    0    0  501 -0.00000000000E+00 -0.00000000000E+00 -0.38803040878E+03  0.38803040878E+03  0.00000000000E+00 0.  1.
         24    2    1    2    0    0  0.68194669135E+02 -0.54517290239E+03  0.43821484122E+03  0.70739181366E+03  0.80665510476E+02 0.  0.
        254    2    1    2    0    0 -0.68194669135E+02  0.54517290239E+03  0.83682279593E+03  0.13437066411E+04  0.89633204731E+03 0.  0.
         23    2    4    4    0    0  0.18897009829E+03  0.33664093594E+02 -0.10499457260E+03  0.23784376451E+03  0.93288942531E+02 0.  0.
         23    2    4    4    0    0 -0.25716476743E+03  0.51150880879E+03  0.94181736853E+03  0.11058628765E+04  0.90209572501E+02 0.  0.
          2    1    3    3  502    0  0.27422662389E+02 -0.13678475350E+03  0.15615156121E+03  0.20939288734E+03  0.00000000000E+00 0. -1.
         -3    1    3    3    0  502  0.40772006745E+02 -0.40838814889E+03  0.28206328001E+03  0.49799892632E+03  0.00000000000E+00 0.  1.
         11    1    5    5    0    0  0.15623505863E+03  0.57560200788E+02 -0.10586239344E+03  0.19730538919E+03  0.00000000000E+00 0.  1.
        -11    1    5    5    0    0  0.32735039662E+02 -0.23896107194E+02  0.86782084670E+00  0.40538375321E+02  0.00000000000E+00 0. -1.
          2    1    6    6  503    0 -0.65537433732E+02  0.61754188936E+02  0.12816190993E+03  0.15663400087E+03  0.00000000000E+00 0. -1.
         -2    1    6    6    0  503 -0.19162733369E+03  0.44975461986E+03  0.81365545860E+03  0.94922887567E+03  0.00000000000E+00 0.  1.
<mgrwt>
<rscale>  0 0.16066374E+04</rscale>
<asrwt>0</asrwt>
<pdfrwt beam="1">  1        2 0.25585662E+00 0.16066374E+04</pdfrwt>
<pdfrwt beam="2">  1       -1 0.59696987E-01 0.16066374E+04</pdfrwt>
<totfact> 0.31941169E+01</totfact>
</mgrwt>
</event>
<event>
12    6  0.1457317E-007  0.1390589E+04  0.7818608E-02  0.8960659E-01
          4   -1    0    0  501    0  0.00000000000E+00  0.00000000000E+00  0.52721148887E+03  0.52721148887E+03  0.00000000000E+00 0. -1.
         -3   -1    0    0    0  501 -0.00000000000E+00 -0.00000000000E+00 -0.91696489488E+03  0.91696489488E+03  0.00000000000E+00 0.  1.
         24    2    1    2    0    0  0.80728891883E+02 -0.32163937857E+03 -0.32751816003E+03  0.47285040648E+03  0.79688882105E+02 0.  0.
        254    2    1    2    0    0 -0.80728891883E+02  0.32163937857E+03 -0.62235245987E+02  0.97132597727E+03  0.91084130585E+03 0.  0.
         23    2    4    4    0    0 -0.25193270554E+02  0.12817033266E+03 -0.47598603664E+03  0.50225203671E+03  0.92908913745E+02 0.  0.
         23    2    4    4    0    0 -0.55535621329E+02  0.19346904591E+03  0.41375079065E+03  0.46907394056E+03  0.91247838261E+02 0.  0.
          2    1    3    3  502    0  0.22157804737E+01 -0.17241653610E+03 -0.16723500591E+03  0.24020807398E+03  0.00000000000E+00 0. -1.
         -1    1    3    3    0  502  0.78513111410E+02 -0.14922284247E+03 -0.16028315412E+03  0.23264233250E+03  0.00000000000E+00 0.  1.
         11    1    5    5    0    0 -0.30066259308E+01  0.36444760782E+02 -0.32778872612E+02  0.49109213776E+02  0.00000000000E+00 0.  1.
        -11    1    5    5    0    0 -0.22186644624E+02  0.91725571877E+02 -0.44320716403E+03  0.45314282294E+03  0.00000000000E+00 0. -1.
          2    1    6    6  503    0 -0.15420731656E+02  0.10694178181E+03  0.30930860756E+03  0.32763723594E+03  0.00000000000E+00 0. -1.
         -2    1    6    6    0  503 -0.40114889673E+02  0.86527264099E+02  0.10444218309E+03  0.14143670462E+03  0.00000000000E+00 0.  1.
<mgrwt>
<rscale>  0 0.13905890E+04</rscale>
<asrwt>0</asrwt>
<pdfrwt beam="1">  1        4 0.81109460E-01 0.13905890E+04</pdfrwt>
<pdfrwt beam="2">  1       -3 0.14107152E+00 0.13905890E+04</pdfrwt>
<totfact> 0.11320185E+00</totfact>
</mgrwt>
</event>
<event>
12    6  0.1457317E-007  0.2723864E+04  0.7818608E-02  0.8327303E-01
          2   -1    0    0  501    0  0.00000000000E+00  0.00000000000E+00  0.25132438972E+04  0.25132438972E+04  0.00000000000E+00 0. -1.
         -1   -1    0    0    0  501 -0.00000000000E+00 -0.00000000000E+00 -0.73803382949E+03  0.73803382949E+03  0.00000000000E+00 0.  1.
         24    2    1    2    0    0  0.85013388284E+03 -0.67671952067E+03  0.15146720356E+03  0.11004157980E+04  0.85414790198E+02 0.  0.
        254    2    1    2    0    0 -0.85013388284E+03  0.67671952067E+03  0.16237428642E+04  0.21508619287E+04  0.89943827966E+03 0.  0.
         23    2    4    4    0    0 -0.84353190442E+03  0.13616225793E+03  0.92744928928E+03  0.12643552898E+04  0.91355789801E+02 0.  0.
         23    2    4    4    0    0 -0.66019784184E+01  0.54055726274E+03  0.69629357491E+03  0.88650663893E+03  0.93933689279E+02 0.  0.
          2    1    3    3  502    0  0.22587472261E+03 -0.19702571397E+03  0.78027314478E+02  0.30972049349E+03  0.00000000000E+00 0. -1.
         -3    1    3    3    0  502  0.62425916023E+03 -0.47969380670E+03  0.73439889084E+02  0.79069530454E+03  0.00000000000E+00 0.  1.
         11    1    5    5    0    0 -0.22112353504E+03 -0.35720814215E+01  0.22511390054E+03  0.31557034990E+03  0.00000000000E+00 0. -1.
        -11    1    5    5    0    0 -0.62240836938E+03  0.13973433935E+03  0.70233538873E+03  0.94878493988E+03  0.00000000000E+00 0.  1.
          2    1    6    6  503    0 -0.17346699614E+02  0.63832919774E+02  0.13254462428E+03  0.14813381471E+03  0.00000000000E+00 0. -1.
         -2    1    6    6    0  503  0.10744721195E+02  0.47672434297E+03  0.56374895063E+03  0.73837282422E+03  0.00000000000E+00 0.  1.
<mgrwt>
<rscale>  0 0.27238642E+04</rscale>
<asrwt>0</asrwt>
<pdfrwt beam="1">  1        2 0.38665290E+00 0.27238642E+04</pdfrwt>
<pdfrwt beam="2">  1       -1 0.11354367E+00 0.27238642E+04</pdfrwt>
<totfact> 0.24088662E+00</totfact>
</mgrwt>
</event>
<event>
12    6  0.1457317E-007  0.1786374E+04  0.7818608E-02  0.8713580E-01
          2   -1    0    0  501    0  0.00000000000E+00  0.00000000000E+00  0.16523667764E+04  0.16523667764E+04  0.00000000000E+00 0. -1.
         -1   -1    0    0    0  501 -0.00000000000E+00 -0.00000000000E+00 -0.48281212626E+03  0.48281212626E+03  0.00000000000E+00 0.  1.
         24    2    1    2    0    0 -0.64058042276E+03  0.13991962981E+03  0.52631324741E+03  0.84459295704E+03  0.80067770341E+02 0.  0.
        254    2    1    2    0    0  0.64058042276E+03 -0.13991962981E+03  0.64324140275E+03  0.12905859456E+04  0.90660454447E+03 0.  0.
         23    2    4    4    0    0  0.47093727243E+02 -0.42331619725E+03  0.37479096076E+03  0.57475774204E+03  0.91998781335E+02 0.  0.
         23    2    4    4    0    0  0.59348669552E+03  0.28339656744E+03  0.26845044199E+03  0.71582820360E+03  0.88341977987E+02 0.  0.
          4    1    3    3  502    0 -0.50401181425E+02  0.34150173137E+02  0.52625676611E+02  0.80473444397E+02  0.00000000000E+00 0. -1.
         -3    1    3    3    0  502 -0.59017924134E+03  0.10576945668E+03  0.47368757080E+03  0.76411951264E+03  0.00000000000E+00 0.  1.
         11    1    5    5    0    0  0.28963395463E+02 -0.26045025643E+03  0.28778116421E+03  0.38921872106E+03  0.00000000000E+00 0.  1.
        -11    1    5    5    0    0  0.18130331780E+02 -0.16286594082E+03  0.87009796551E+02  0.18553902098E+03  0.00000000000E+00 0. -1.
          3    1    6    6  503    0  0.18498404133E+01  0.11589076526E+02  0.96431197811E+01  0.15189416163E+02  0.00000000000E+00 0. -1.
         -3    1    6    6    0  503  0.59163685511E+03  0.27180749091E+03  0.25880732221E+03  0.70063878744E+03  0.00000000000E+00 0.  1.
<mgrwt>
<rscale>  0 0.17863737E+04</rscale>
<asrwt>0</asrwt>
<pdfrwt beam="1">  1        2 0.25421027E+00 0.17863737E+04</pdfrwt>
<pdfrwt beam="2">  1       -1 0.74278790E-01 0.17863737E+04</pdfrwt>
<totfact> 0.20476463E+01</totfact>
</mgrwt>
</event>
<event>
12    6  0.1457317E-007  0.1187273E+04  0.7818608E-02  0.9124070E-01
         -1   -1    0    0    0  501 -0.00000000000E+00  0.00000000000E+00  0.27166404880E+03  0.27166404880E+03  0.00000000000E+00 0.  1.
          2   -1    0    0  501    0  0.00000000000E+00 -0.00000000000E+00 -0.12972054340E+04  0.12972054340E+04  0.00000000000E+00 0. -1.
         24    2    1    2    0    0 -0.12285275639E+03  0.15420665631E+03  0.24696505822E+02  0.21424863084E+03  0.80125313200E+02 0.  0.
        254    2    1    2    0    0  0.12285275639E+03 -0.15420665631E+03 -0.10502378910E+04  0.13546208520E+04  0.83254160990E+03 0.  0.
         23    2    4    4    0    0 -0.17697558778E+03  0.26455688430E+03 -0.42269251884E+03  0.53765322499E+03  0.95348419785E+02 0.  0.
         23    2    4    4    0    0  0.29982834417E+03 -0.41876354061E+03 -0.62754537218E+03  0.81696762696E+03  0.91449278019E+02 0.  0.
          4    1    3    3  502    0 -0.50550666353E+02  0.61756205812E+02 -0.29354870087E+02  0.85034741270E+02  0.00000000000E+00 0. -1.
         -3    1    3    3    0  502 -0.72302090035E+02  0.92450450499E+02  0.54051375909E+02  0.12921388957E+03  0.00000000000E+00 0.  1.
         11    1    5    5    0    0 -0.13207403674E+03  0.24677418768E+03 -0.38696209264E+03  0.47757796435E+03  0.00000000000E+00 0.  1.
        -11    1    5    5    0    0 -0.44901551043E+02  0.17782696617E+02 -0.35730426203E+02  0.60075260646E+02  0.00000000000E+00 0. -1.
          2    1    6    6  503    0  0.59110931865E+02 -0.90026013272E+02 -0.78576417266E+02  0.13331556054E+03  0.00000000000E+00 0. -1.
         -2    1    6    6    0  503  0.24071741231E+03 -0.32873752734E+03 -0.54896895491E+03  0.68365206643E+03  0.00000000000E+00 0.  1.
<mgrwt>
<rscale>  0 0.11872726E+04</rscale>
<asrwt>0</asrwt>
<pdfrwt beam="1">  1        2 0.19957007E+00 0.11872726E+04</pdfrwt>
<pdfrwt beam="2">  1       -1 0.41794469E-01 0.11872726E+04</pdfrwt>
<totfact> 0.10487686E+02</totfact>
</mgrwt>
</event>
<event>
12    6  0.1457317E-007  0.1487015E+04  0.7818608E-02  0.8893134E-01
         -1   -1    0    0    0  501 -0.00000000000E+00  0.00000000000E+00  0.23926770555E+03  0.23926770555E+03  0.00000000000E+00 0.  1.
          2   -1    0    0  501    0  0.00000000000E+00 -0.00000000000E+00 -0.23103959166E+04  0.23103959166E+04  0.00000000000E+00 0. -1.
         24    2    1    2    0    0 -0.33660394948E+03  0.27173921516E+02 -0.12349822933E+04  0.12827723006E+04  0.79264554654E+02 0.  0.
        254    2    1    2    0    0  0.33660394948E+03 -0.27173921516E+02 -0.83614591769E+03  0.12668913215E+04  0.88984997834E+03 0.  0.
         23    2    4    4    0    0 -0.81283557465E+02  0.31716366227E+03 -0.11124402529E+03  0.35707409817E+03  0.89032988496E+02 0.  0.
         23    2    4    4    0    0  0.41788750695E+03 -0.34433758379E+03 -0.72490189240E+03  0.90981722331E+03  0.95322012970E+02 0.  0.
          4    1    3    3  502    0 -0.26558146490E+03  0.41671769000E+02 -0.86713064493E+03  0.90784668651E+03  0.00000000000E+00 0. -1.
         -3    1    3    3    0  502 -0.71022484583E+02 -0.14497847484E+02 -0.36785164840E+03  0.37492561413E+03  0.00000000000E+00 0.  1.
         11    1    5    5    0    0  0.11597950143E+02  0.16141608178E+02 -0.22004680338E+02  0.29652485881E+02  0.00000000000E+00 0.  1.
        -11    1    5    5    0    0 -0.92881507608E+02  0.30102205409E+03 -0.89239344953E+02  0.32742161229E+03  0.00000000000E+00 0. -1.
          2    1    6    6  503    0  0.32467709571E+03 -0.24752762525E+03 -0.60404046082E+03  0.72907476986E+03  0.00000000000E+00 0. -1.
         -2    1    6    6    0  503  0.93210411236E+02 -0.96809958541E+02 -0.12086143158E+03  0.18074245345E+03  0.00000000000E+00 0.  1.
<mgrwt>
<rscale>  0 0.14870146E+04</rscale>
<asrwt>0</asrwt>
<pdfrwt beam="1">  1        2 0.35544551E+00 0.14870146E+04</pdfrwt>
<pdfrwt beam="2">  1       -1 0.36810418E-01 0.14870146E+04</pdfrwt>
<totfact> 0.34965595E+01</totfact>
</mgrwt>
</event>
<event>
12    6  0.1457317E-007  0.2082561E+04  0.7818608E-02  0.8568965E-01
         -1   -1    0    0    0  501 -0.00000000000E+00  0.00000000000E+00  0.13157268033E+04  0.13157268033E+04  0.00000000000E+00 0.  1.
          4   -1    0    0  501    0  0.00000000000E+00 -0.00000000000E+00 -0.82408033389E+03  0.82408033389E+03  0.00000000000E+00 0. -1.
         24    2    1    2    0    0 -0.84168914545E+03  0.35370064693E+02  0.30188570607E+03  0.89832210394E+03  0.78459950653E+02 0.  0.
        254    2    1    2    0    0  0.84168914545E+03 -0.35370064693E+02  0.18976076330E+03  0.12414850332E+04  0.89195531353E+03 0.  0.
         23    2    4    4    0    0  0.96056091834E+03  0.13821672144E+03  0.58274937661E+02  0.97668180648E+03  0.93435768486E+02 0.  0.
         23    2    4    4    0    0 -0.11887177289E+03 -0.17358678613E+03  0.13148582564E+03  0.26480322672E+03  0.92570815204E+02 0.  0.
          4    1    3    3  502    0 -0.80171026791E+03  0.29801445573E+02  0.30393140600E+03  0.85790546063E+03  0.00000000000E+00 0. -1.
         -3    1    3    3    0  502 -0.39978877537E+02  0.55686191201E+01 -0.20456999275E+01  0.40416643307E+02  0.00000000000E+00 0.  1.
         11    1    5    5    0    0  0.52552494068E+03  0.88396426466E+02  0.76787324285E+02  0.53841125979E+03  0.00000000000E+00 0.  1.
        -11    1    5    5    0    0  0.43503597765E+03  0.49820294976E+02 -0.18512386623E+02  0.43827054670E+03  0.00000000000E+00 0. -1.
          4    1    6    6  503    0 -0.40395183828E+02 -0.14259120489E+02  0.59146845602E+02  0.73030423374E+02  0.00000000000E+00 0. -1.
         -4    1    6    6    0  503 -0.78476589062E+02 -0.15932766565E+03  0.72338980041E+02  0.19177280335E+03  0.00000000000E+00 0.  1.
<mgrwt>
<rscale>  0 0.20825605E+04</rscale>
<asrwt>0</asrwt>
<pdfrwt beam="1">  1        4 0.12678159E+00 0.20825605E+04</pdfrwt>
<pdfrwt beam="2">  1       -1 0.20241951E+00 0.20825605E+04</pdfrwt>
<totfact> 0.25582409E-01</totfact>
</mgrwt>
</event>
<event>
12    6  0.1457317E-007  0.1170955E+04  0.7818608E-02  0.9138666E-01
         -1   -1    0    0    0  501 -0.00000000000E+00  0.00000000000E+00  0.83824562653E+03  0.83824562653E+03  0.00000000000E+00 0.  1.
          2   -1    0    0  501    0  0.00000000000E+00 -0.00000000000E+00 -0.40893043065E+03  0.40893043065E+03  0.00000000000E+00 0. -1.
         24    2    1    2    0    0 -0.24865341111E+03 -0.83985671762E+02 -0.10795529927E+03  0.29465241568E+03  0.79269082932E+02 0.  0.
        254    2    1    2    0    0  0.24865341111E+03  0.83985671762E+02  0.53727049515E+03  0.95252364150E+03  0.74145774710E+03 0.  0.
         23    2    4    4    0    0  0.15655326011E+03  0.23315888714E+03  0.65865740265E+03  0.72037932763E+03  0.79024121012E+02 0.  0.
         23    2    4    4    0    0  0.92100150993E+02 -0.14917321538E+03 -0.12138690750E+03  0.23214431387E+03  0.91766634184E+02 0.  0.
          2    1    3    3  502    0 -0.14053853539E+03 -0.55816877112E+02 -0.10271934296E+03  0.18280554455E+03  0.00000000000E+00 0. -1.
         -1    1    3    3    0  502 -0.10811487572E+03 -0.28168794651E+02 -0.52359563126E+01  0.11184687113E+03  0.00000000000E+00 0.  1.
         11    1    5    5    0    0  0.11251549230E+03  0.97499754849E+02  0.32185205267E+03  0.35461906606E+03  0.00000000000E+00 0.  1.
        -11    1    5    5    0    0  0.44037767811E+02  0.13565913229E+03  0.33680534998E+03  0.36576026157E+03  0.00000000000E+00 0. -1.
          3    1    6    6  503    0  0.10749913821E+03 -0.13683181494E+03 -0.12180778431E+03  0.21240561813E+03  0.00000000000E+00 0. -1.
         -3    1    6    6    0  503 -0.15398987216E+02 -0.12341400443E+02  0.42087681157E+00  0.19738695738E+02  0.00000000000E+00 0.  1.
<mgrwt>
<rscale>  0 0.11709554E+04</rscale>
<asrwt>0</asrwt>
<pdfrwt beam="1">  1        2 0.62912374E-01 0.11709554E+04</pdfrwt>
<pdfrwt beam="2">  1       -1 0.12896087E+00 0.11709554E+04</pdfrwt>
<totfact> 0.45425804E+01</totfact>
</mgrwt>
</event>
<event>
12    6  0.1457317E-007  0.1992786E+04  0.7818608E-02  0.8610001E-01
          2   -1    0    0  501    0  0.00000000000E+00  0.00000000000E+00  0.44076894402E+04  0.44076894402E+04  0.00000000000E+00 0. -1.
         -1   -1    0    0    0  501 -0.00000000000E+00 -0.00000000000E+00 -0.22524250164E+03  0.22524250164E+03  0.00000000000E+00 0.  1.
         24    2    1    2    0    0 -0.21815397801E+03  0.29421140725E+03  0.32922858021E+04  0.33138269491E+04  0.90286962729E+02 0.  0.
        254    2    1    2    0    0  0.21815397801E+03 -0.29421140725E+03  0.89016113651E+03  0.13191049928E+04  0.90194213935E+03 0.  0.
         23    2    4    4    0    0 -0.56771856656E+02 -0.23989286797E+03  0.97506080661E+03  0.10099299054E+04  0.91886916219E+02 0.  0.
         23    2    4    4    0    0  0.27492583467E+03 -0.54318539279E+02 -0.84899670101E+02  0.30917508740E+03  0.99229846354E+02 0.  0.
          2    1    3    3  502    0 -0.16276350128E+03  0.26498196620E+03  0.28919096480E+04  0.29085819246E+04  0.00000000000E+00 0. -1.
         -1    1    3    3    0  502 -0.55390476734E+02  0.29229441053E+02  0.40037615402E+03  0.40524502445E+03  0.00000000000E+00 0.  1.
         11    1    5    5    0    0  0.47204367144E+01 -0.16947884777E+03  0.63856177409E+03  0.66068638680E+03  0.00000000000E+00 0. -1.
        -11    1    5    5    0    0 -0.61492293370E+02 -0.70414020199E+02  0.33649903252E+03  0.34924351858E+03  0.00000000000E+00 0.  1.
          1    1    6    6  503    0  0.11318968468E+03 -0.11250179180E+02 -0.84673097993E+02  0.14180269664E+03  0.00000000000E+00 0. -1.
         -1    1    6    6    0  503  0.16173614999E+03 -0.43068360099E+02 -0.22657210789E+00  0.16737239076E+03  0.00000000000E+00 0.  1.
<mgrwt>
<rscale>  0 0.19927860E+04</rscale>
<asrwt>0</asrwt>
<pdfrwt beam="1">  1        2 0.67810600E+00 0.19927860E+04</pdfrwt>
<pdfrwt beam="2">  1       -1 0.34652696E-01 0.19927860E+04</pdfrwt>
<totfact> 0.12814896E+00</totfact>
</mgrwt>
</event>
<event>
12    6  0.1457317E-007  0.3522664E+04  0.7818608E-02  0.8108440E-01
          2   -1    0    0  501    0  0.00000000000E+00  0.00000000000E+00  0.16042966096E+04  0.16042966096E+04  0.00000000000E+00 0. -1.
         -1   -1    0    0    0  501 -0.00000000000E+00 -0.00000000000E+00 -0.19337383288E+04  0.19337383288E+04  0.00000000000E+00 0.  1.
         24    2    1    2    0    0  0.10313892354E+04 -0.24434993588E+03 -0.14130140922E+04  0.17681839872E+04  0.79969631430E+02 0.  0.
        254    2    1    2    0    0 -0.10313892354E+04  0.24434993588E+03  0.10835723730E+04  0.17698509511E+04  0.91365893832E+03 0.  0.
         23    2    4    4    0    0 -0.67868383533E+03 -0.22473592369E+03  0.88884910271E+03  0.11444783835E+04  0.93059438425E+02 0.  0.
         23    2    4    4    0    0 -0.35270540005E+03  0.46908585957E+03  0.19472327031E+03  0.62537256766E+03  0.93440106537E+02 0.  0.
          2    1    3    3  502    0  0.45165754921E+03 -0.10879720748E+03 -0.55387613141E+03  0.72291779827E+03  0.00000000000E+00 0. -1.
         -1    1    3    3    0  502  0.57973168617E+03 -0.13555272840E+03 -0.85913796079E+03  0.10452661890E+04  0.00000000000E+00 0.  1.
         11    1    5    5    0    0 -0.53519970656E+03 -0.15810667190E+03  0.74354608063E+03  0.92967586805E+03  0.00000000000E+00 0.  1.
        -11    1    5    5    0    0 -0.14348412876E+03 -0.66629251793E+02  0.14530302207E+03  0.21480251541E+03  0.00000000000E+00 0. -1.
          4    1    6    6  503    0 -0.14607970878E+03  0.26186597292E+03  0.12282934734E+03  0.32403721647E+03  0.00000000000E+00 0. -1.
         -4    1    6    6    0  503 -0.20662569127E+03  0.20721988665E+03  0.71893922970E+02  0.30133535119E+03  0.00000000000E+00 0.  1.
<mgrwt>
<rscale>  0 0.35226637E+04</rscale>
<asrwt>0</asrwt>
<pdfrwt beam="1">  1        2 0.24681486E+00 0.35226637E+04</pdfrwt>
<pdfrwt beam="2">  1       -1 0.29749821E+00 0.35226637E+04</pdfrwt>
<totfact> 0.35493295E-01</totfact>
</mgrwt>
</event>
<event>
12    6  0.1457317E-007  0.1567909E+04  0.7818608E-02  0.8840509E-01
         -1   -1    0    0    0  501 -0.00000000000E+00  0.00000000000E+00  0.61395549482E+03  0.61395549482E+03  0.00000000000E+00 0.  1.
          2   -1    0    0  501    0  0.00000000000E+00 -0.00000000000E+00 -0.10010242919E+04  0.10010242919E+04  0.00000000000E+00 0. -1.
         24    2    1    2    0    0  0.32898264483E+03  0.45556080586E+02  0.28612074378E+03  0.44573541488E+03  0.80684837344E+02 0.  0.
        254    2    1    2    0    0 -0.32898264483E+03 -0.45556080586E+02 -0.67318954081E+03  0.11692443718E+04  0.89646154744E+03 0.  0.
         23    2    4    4    0    0 -0.13732330659E+03  0.41650570620E+03 -0.32123683846E+03  0.55124928207E+03  0.91367230259E+02 0.  0.
         23    2    4    4    0    0 -0.19165933823E+03 -0.46206178679E+03 -0.35195270235E+03  0.61799508972E+03  0.88390211500E+02 0.  0.
          4    1    3    3  502    0  0.12177465188E+03  0.47917439763E+02  0.14331213568E+03  0.19407090227E+03  0.00000000000E+00 0. -1.
         -3    1    3    3    0  502  0.20720799295E+03 -0.23613591773E+01  0.14280860810E+03  0.25166451261E+03  0.00000000000E+00 0.  1.
         11    1    5    5    0    0 -0.81200694037E+02  0.33293066928E+03 -0.21328880445E+03  0.40364402307E+03  0.00000000000E+00 0.  1.
        -11    1    5    5    0    0 -0.56122612557E+02  0.83575036928E+02 -0.10794803401E+03  0.14760525900E+03  0.00000000000E+00 0. -1.
          4    1    6    6  503    0 -0.23845719730E+02 -0.16523958154E+03 -0.12000334749E+03  0.20560530408E+03  0.00000000000E+00 0. -1.
         -4    1    6    6    0  503 -0.16781361850E+03 -0.29682220525E+03 -0.23194935486E+03  0.41238978565E+03  0.00000000000E+00 0.  1.
<mgrwt>
<rscale>  0 0.15679086E+04</rscale>
<asrwt>0</asrwt>
<pdfrwt beam="1">  1        2 0.15400374E+00 0.15679086E+04</pdfrwt>
<pdfrwt beam="2">  1       -1 0.94454692E-01 0.15679086E+04</pdfrwt>
<totfact> 0.29926597E+01</totfact>
</mgrwt>
</event>
<event>
12    6  0.1457317E-007  0.3245950E+04  0.7818608E-02  0.8176786E-01
         -1   -1    0    0    0  501 -0.00000000000E+00  0.00000000000E+00  0.14683569188E+04  0.14683569188E+04  0.00000000000E+00 0.  1.
          2   -1    0    0  501    0  0.00000000000E+00 -0.00000000000E+00 -0.17938741015E+04  0.17938741015E+04  0.00000000000E+00 0. -1.
         24    2    1    2    0    0  0.10698261500E+04 -0.71301002595E+03  0.61776808580E+03  0.14289544534E+04  0.85802877319E+02 0.  0.
        254    2    1    2    0    0 -0.10698261500E+04  0.71301002595E+03 -0.94328526850E+03  0.18332765670E+04  0.90454661844E+03 0.  0.
         23    2    4    4    0    0 -0.70571912259E+02 -0.17524704085E+03 -0.24226960680E+03  0.32098255052E+03  0.92969431709E+02 0.  0.
         23    2    4    4    0    0 -0.99925423770E+03  0.88825706680E+03 -0.70101566171E+03  0.15122940164E+04  0.90003254978E+02 0.  0.
          4    1    3    3  502    0  0.59905947198E+03 -0.40091440917E+03  0.39340325817E+03  0.82120079030E+03  0.00000000000E+00 0. -1.
         -3    1    3    3    0  502  0.47076667798E+03 -0.31209561679E+03  0.22436482763E+03  0.60775366308E+03  0.00000000000E+00 0.  1.
         11    1    5    5    0    0 -0.28947427471E+02 -0.10521808727E+03 -0.20316338291E+03  0.23061691091E+03  0.00000000000E+00 0.  1.
        -11    1    5    5    0    0 -0.41624484788E+02 -0.70028953586E+02 -0.39106223889E+02  0.90365639604E+02  0.00000000000E+00 0. -1.
          2    1    6    6  503    0 -0.55591649169E+03  0.55178451403E+03 -0.39783593513E+03  0.87851165441E+03  0.00000000000E+00 0.  1.
         -2    1    6    6    0  503 -0.44333774601E+03  0.33647255277E+03 -0.30317972658E+03  0.63378236203E+03  0.00000000000E+00 0. -1.
<mgrwt>
<rscale>  0 0.32459498E+04</rscale>
<asrwt>0</asrwt>
<pdfrwt beam="1">  1        2 0.27598063E+00 0.32459498E+04</pdfrwt>
<pdfrwt beam="2">  1       -1 0.22590107E+00 0.32459498E+04</pdfrwt>
<totfact> 0.83434920E-01</totfact>
</mgrwt>
</event>
<event>
12    6  0.1457317E-007  0.1416992E+04  0.7818608E-02  0.8941610E-01
          2   -1    0    0  501    0  0.00000000000E+00  0.00000000000E+00  0.21156426989E+04  0.21156426989E+04  0.00000000000E+00 0. -1.
         -1   -1    0    0    0  501 -0.00000000000E+00 -0.00000000000E+00 -0.23726417973E+03  0.23726417973E+03  0.00000000000E+00 0.  1.
         24    2    1    2    0    0  0.41002881722E+03  0.14224147555E+03  0.61743345979E+03  0.75873021404E+03  0.78046089667E+02 0.  0.
        254    2    1    2    0    0 -0.41002881722E+03 -0.14224147555E+03  0.12609450594E+04  0.15941766646E+04  0.87353335760E+03 0.  0.
         23    2    4    4    0    0 -0.31201963240E+03  0.31859429234E+03  0.83800918198E+03  0.95459143563E+03  0.10063223030E+03 0.  0.
         23    2    4    4    0    0 -0.98009184822E+02 -0.46083576790E+03  0.42293587742E+03  0.63958522898E+03  0.90659271090E+02 0.  0.
          4    1    3    3  502    0  0.36262717182E+03  0.13851243555E+03  0.58136863684E+03  0.69905196692E+03  0.00000000000E+00 0. -1.
         -3    1    3    3    0  502  0.47401645394E+02  0.37290400037E+01  0.36064822948E+02  0.59678247123E+02  0.00000000000E+00 0.  1.
         11    1    5    5    0    0 -0.24968644773E+03  0.30349143744E+03  0.71814970601E+03  0.81865094822E+03  0.00000000000E+00 0.  1.
        -11    1    5    5    0    0 -0.62333184665E+02  0.15102854906E+02  0.11985947597E+03  0.13594048741E+03  0.00000000000E+00 0. -1.
          3    1    6    6  503    0 -0.54009238917E+02 -0.85404677966E+02  0.10404579576E+03  0.14503959639E+03  0.00000000000E+00 0. -1.
         -3    1    6    6    0  503 -0.43999945905E+02 -0.37543108993E+03  0.31889008167E+03  0.49454563259E+03  0.00000000000E+00 0.  1.
<mgrwt>
<rscale>  0 0.14169915E+04</rscale>
<asrwt>0</asrwt>
<pdfrwt beam="1">  1        2 0.32548348E+00 0.14169915E+04</pdfrwt>
<pdfrwt beam="2">  1       -1 0.36502183E-01 0.14169915E+04</pdfrwt>
<totfact> 0.45921448E+01</totfact>
</mgrwt>
</event>
<event>
12    6  0.1457317E-007  0.1727778E+04  0.7818608E-02  0.8745678E-01
          2   -1    0    0  501    0  0.00000000000E+00  0.00000000000E+00  0.26873579988E+04  0.26873579988E+04  0.00000000000E+00 0. -1.
         -1   -1    0    0    0  501 -0.00000000000E+00 -0.00000000000E+00 -0.27770930392E+03  0.27770930392E+03  0.00000000000E+00 0.  1.
         24    2    1    2    0    0  0.48697327409E+03 -0.33687566576E+03  0.49895870732E+03  0.77838756740E+03  0.79367686237E+02 0.  0.
        254    2    1    2    0    0 -0.48697327409E+03  0.33687566576E+03  0.19106899875E+04  0.21866797353E+04  0.88329148782E+03 0.  0.
         23    2    4    4    0    0 -0.14719361365E+03  0.57079999897E+03  0.14146844343E+04  0.15352601069E+04  0.90625318758E+02 0.  0.
         23    2    4    4    0    0 -0.33977966044E+03 -0.23392433321E+03  0.49600555324E+03  0.65141962843E+03  0.90306213199E+02 0.  0.
          4    1    3    3  502    0  0.23120683939E+03 -0.12335808296E+03  0.25303121902E+03  0.36427821375E+03  0.00000000000E+00 0. -1.
         -3    1    3    3    0  502  0.25576643470E+03 -0.21351758280E+03  0.24592748830E+03  0.41410935366E+03  0.00000000000E+00 0.  1.
         11    1    5    5    0    0  0.49851415604E+01  0.12895670878E+03  0.29981443640E+03  0.32640983540E+03  0.00000000000E+00 0. -1.
        -11    1    5    5    0    0 -0.15217875521E+03  0.44184329019E+03  0.11148699979E+04  0.12088502715E+04  0.00000000000E+00 0.  1.
          4    1    6    6  503    0 -0.21674288784E+02 -0.42070690320E+02  0.85939343383E+02  0.98108554772E+02  0.00000000000E+00 0. -1.
         -4    1    6    6    0  503 -0.31810537165E+03 -0.19185364289E+03  0.41006620986E+03  0.55331107366E+03  0.00000000000E+00 0.  1.
<mgrwt>
<rscale>  0 0.17277781E+04</rscale>
<asrwt>0</asrwt>
<pdfrwt beam="1">  1        2 0.41343967E+00 0.17277781E+04</pdfrwt>
<pdfrwt beam="2">  1       -1 0.42724510E-01 0.17277781E+04</pdfrwt>
<totfact> 0.15795644E+01</totfact>
</mgrwt>
</event>
<event>
12    6  0.1457317E-007  0.1267672E+04  0.7818608E-02  0.9055602E-01
          2   -1    0    0  501    0  0.00000000000E+00  0.00000000000E+00  0.40713333110E+03  0.40713333110E+03  0.00000000000E+00 0. -1.
         -1   -1    0    0    0  501 -0.00000000000E+00 -0.00000000000E+00 -0.98677309548E+03  0.98677309548E+03  0.00000000000E+00 0.  1.
         24    2    1    2    0    0 -0.20943882843E+03  0.22289897979E+03 -0.20067720734E+03  0.37442985575E+03  0.79861112474E+02 0.  0.
        254    2    1    2    0    0  0.20943882843E+03 -0.22289897979E+03 -0.37896255704E+03  0.10194765708E+04  0.89564015140E+03 0.  0.
         23    2    4    4    0    0 -0.27566994974E+03 -0.21564082872E+03  0.50731238435E+02  0.36488947458E+03  0.89865354330E+02 0.  0.
         23    2    4    4    0    0  0.48510877817E+03 -0.72581510668E+01 -0.42969379547E+03  0.65458709625E+03  0.92001637491E+02 0.  0.
          2    1    3    3  502    0 -0.48326359926E+02  0.13825108570E+02 -0.48011817361E+02  0.69510468974E+02  0.00000000000E+00 0. -1.
         -1    1    3    3    0  502 -0.16111246850E+03  0.20907387122E+03 -0.15266538998E+03  0.30491938678E+03  0.00000000000E+00 0.  1.
         11    1    5    5    0    0 -0.22802349145E+03 -0.15985134035E+03  0.73611620090E+02  0.28803790423E+03  0.00000000000E+00 0. -1.
        -11    1    5    5    0    0 -0.47646458288E+02 -0.55789488375E+02 -0.22880381655E+02  0.76851570349E+02  0.00000000000E+00 0.  1.
          2    1    6    6  503    0  0.37197570207E+03  0.25623082268E+02 -0.29356345477E+03  0.47455449345E+03  0.00000000000E+00 0. -1.
         -2    1    6    6    0  503  0.11313307610E+03 -0.32881233335E+02 -0.13613034070E+03  0.18003260280E+03  0.00000000000E+00 0.  1.
<mgrwt>
<rscale>  0 0.12676722E+04</rscale>
<asrwt>0</asrwt>
<pdfrwt beam="1">  1        2 0.62635898E-01 0.12676722E+04</pdfrwt>
<pdfrwt beam="2">  1       -1 0.15181124E+00 0.12676722E+04</pdfrwt>
<totfact> 0.29595818E+01</totfact>
</mgrwt>
</event>
<event>
12    6  0.1457317E-007  0.1997293E+04  0.7818608E-02  0.8607887E-01
          2   -1    0    0  501    0  0.00000000000E+00  0.00000000000E+00  0.12635558739E+04  0.12635558739E+04  0.00000000000E+00 0. -1.
         -1   -1    0    0    0  501 -0.00000000000E+00 -0.00000000000E+00 -0.78927662678E+03  0.78927662678E+03  0.00000000000E+00 0.  1.
         24    2    1    2    0    0 -0.68965144917E+03  0.37529605800E+03  0.14382876668E+03  0.80220473000E+03  0.79871535745E+02 0.  0.
        254    2    1    2    0    0  0.68965144917E+03 -0.37529605800E+03  0.33045048045E+03  0.12506277707E+04  0.91564515415E+03 0.  0.
         23    2    4    4    0    0  0.65495650731E+03 -0.47125351828E+03 -0.81263536538E+02  0.81628232901E+03  0.93086912674E+02 0.  0.
         23    2    4    4    0    0  0.34694941854E+02  0.95957460285E+02  0.41171401698E+03  0.43434544169E+03  0.93466345585E+02 0.  0.
          4    1    3    3  502    0 -0.25602251643E+02  0.11873794903E+02  0.21306345804E+02  0.35361315956E+02  0.00000000000E+00 0. -1.
         -3    1    3    3    0  502 -0.66404919752E+03  0.36342226310E+03  0.12252242087E+03  0.76684341404E+03  0.00000000000E+00 0.  1.
         11    1    5    5    0    0  0.26575805075E+03 -0.23574536262E+03 -0.67572904286E+01  0.35531518193E+03  0.00000000000E+00 0.  1.
        -11    1    5    5    0    0  0.38919845656E+03 -0.23550815566E+03 -0.74506246109E+02  0.46096714708E+03  0.00000000000E+00 0. -1.
          3    1    6    6  503    0  0.50200731917E+02  0.94209756554E+02  0.40207430388E+03  0.41600401146E+03  0.00000000000E+00 0. -1.
         -3    1    6    6    0  503 -0.15505790064E+02  0.17477037309E+01  0.96397131079E+01  0.18341430223E+02  0.00000000000E+00 0.  1.
<mgrwt>
<rscale>  0 0.19972933E+04</rscale>
<asrwt>0</asrwt>
<pdfrwt beam="1">  1        2 0.19439321E+00 0.19972933E+04</pdfrwt>
<pdfrwt beam="2">  1       -1 0.12142717E+00 0.19972933E+04</pdfrwt>
<totfact> 0.11062905E+01</totfact>
</mgrwt>
</event>
<event>
12    6  0.1457317E-007  0.1591688E+04  0.7818608E-02  0.8825671E-01
          2   -1    0    0  501    0  0.00000000000E+00  0.00000000000E+00  0.22216841080E+04  0.22216841080E+04  0.00000000000E+00 0. -1.
         -1   -1    0    0    0  501 -0.00000000000E+00 -0.00000000000E+00 -0.28508443529E+03  0.28508443529E+03  0.00000000000E+00 0.  1.
         24    2    1    2    0    0  0.30832950317E+03 -0.43164072280E+03  0.80225802795E+03  0.96489626076E+03  0.77627665905E+02 0.  0.
        254    2    1    2    0    0 -0.30832950317E+03  0.43164072280E+03  0.11343416448E+04  0.15418722826E+04  0.89958789037E+03 0.  0.
         23    2    4    4    0    0 -0.17591966285E+03  0.56218681614E+03  0.27201677955E+03  0.65511360041E+03  0.90437586583E+02 0.  0.
         23    2    4    4    0    0 -0.13240984032E+03 -0.13054609333E+03  0.86232486525E+03  0.88675868215E+03  0.90344556315E+02 0.  0.
          2    1    3    3  502    0  0.23087171812E+03 -0.33180136665E+03  0.54783241503E+03  0.68081881003E+03  0.00000000000E+00 0. -1.
         -1    1    3    3    0  502  0.77457785054E+02 -0.99839356149E+02  0.25442561292E+03  0.28407745073E+03  0.00000000000E+00 0.  1.
         11    1    5    5    0    0 -0.23139047235E+01  0.92145064102E+02  0.65854738506E+02  0.11328245044E+03  0.00000000000E+00 0. -1.
        -11    1    5    5    0    0 -0.17360575812E+03  0.47004175203E+03  0.20616204105E+03  0.54183114997E+03  0.00000000000E+00 0.  1.
          3    1    6    6  503    0 -0.35124373380E+02 -0.96860003882E+01  0.65336055739E+02  0.74808691930E+02  0.00000000000E+00 0. -1.
         -3    1    6    6    0  503 -0.97285466943E+02 -0.12086009295E+03  0.79698880951E+03  0.81194999022E+03  0.00000000000E+00 0.  1.
<mgrwt>
<rscale>  0 0.15916879E+04</rscale>
<asrwt>0</asrwt>
<pdfrwt beam="1">  1        2 0.34179754E+00 0.15916879E+04</pdfrwt>
<pdfrwt beam="2">  1       -1 0.43859145E-01 0.15916879E+04</pdfrwt>
<totfact> 0.28213981E+01</totfact>
</mgrwt>
</event>
<event>
12    6  0.1457317E-007  0.1876317E+04  0.7818608E-02  0.8666735E-01
         -1   -1    0    0    0  501 -0.00000000000E+00  0.00000000000E+00  0.55485416433E+03  0.55485416433E+03  0.00000000000E+00 0.  1.
          2   -1    0    0  501    0  0.00000000000E+00 -0.00000000000E+00 -0.15862574403E+04  0.15862574403E+04  0.00000000000E+00 0. -1.
         24    2    1    2    0    0 -0.47017277046E+03 -0.54579834714E+03 -0.36448365957E+03  0.81115602274E+03  0.78533338919E+02 0.  0.
        254    2    1    2    0    0  0.47017277046E+03  0.54579834714E+03 -0.66691961641E+03  0.13299555819E+04  0.89724121909E+03 0.  0.
         23    2    4    4    0    0 -0.20391023500E+03  0.35176305333E+02 -0.35924354892E+03  0.42537032029E+03  0.95221980378E+02 0.  0.
         23    2    4    4    0    0  0.67408300545E+03  0.51062204181E+03 -0.30767606749E+03  0.90458526161E+03  0.92125811740E+02 0.  0.
          2    1    3    3  502    0 -0.27088432588E+03 -0.32083634876E+03 -0.16898229296E+03  0.45262489550E+03  0.00000000000E+00 0. -1.
         -1    1    3    3    0  502 -0.19928844458E+03 -0.22496199838E+03 -0.19550136661E+03  0.35853112725E+03  0.00000000000E+00 0.  1.
         11    1    5    5    0    0 -0.21265880139E+03  0.29664898661E+02 -0.35333796818E+03  0.41346280580E+03  0.00000000000E+00 0.  1.
        -11    1    5    5    0    0  0.87485663906E+01  0.55114066717E+01 -0.59055807334E+01  0.11907514484E+02  0.00000000000E+00 0. -1.
          2    1    6    6  503    0  0.91641814585E+02  0.11236253113E+03 -0.47982017807E+02  0.15272797588E+03  0.00000000000E+00 0. -1.
         -2    1    6    6    0  503  0.58244119087E+03  0.39825951068E+03 -0.25969404968E+03  0.75185728573E+03  0.00000000000E+00 0.  1.
<mgrwt>
<rscale>  0 0.18763172E+04</rscale>
<asrwt>0</asrwt>
<pdfrwt beam="1">  1        2 0.24403960E+00 0.18763172E+04</pdfrwt>
<pdfrwt beam="2">  1       -1 0.85362182E-01 0.18763172E+04</pdfrwt>
<totfact> 0.16460292E+01</totfact>
</mgrwt>
</event>
<event>
12    6  0.1457317E-007  0.2867908E+04  0.7818608E-02  0.8282490E-01
          2   -1    0    0  501    0  0.00000000000E+00  0.00000000000E+00  0.17896213695E+04  0.17896213695E+04  0.00000000000E+00 0. -1.
         -1   -1    0    0    0  501 -0.00000000000E+00 -0.00000000000E+00 -0.11489716858E+04  0.11489716858E+04  0.00000000000E+00 0.  1.
         24    2    1    2    0    0 -0.60814054138E+03  0.16657359043E+03 -0.86333305915E+03  0.10721492064E+04  0.81106538662E+02 0.  0.
        254    2    1    2    0    0  0.60814054138E+03 -0.16657359043E+03  0.15039827429E+04  0.18664438489E+04  0.90778129038E+03 0.  0.
         23    2    4    4    0    0  0.10420004673E+03 -0.52238832405E+02  0.12919796358E+04  0.13004491807E+04  0.91488507922E+02 0.  0.
         23    2    4    4    0    0  0.50394049465E+03 -0.11433475803E+03  0.21200310712E+03  0.56599466819E+03  0.91521516328E+02 0.  0.
          4    1    3    3  502    0 -0.65160891222E+02 -0.70707641938E+01 -0.95569144627E+02  0.11588528317E+03  0.00000000000E+00 0. -1.
         -3    1    3    3    0  502 -0.54297965016E+03  0.17364435463E+03 -0.76776391453E+03  0.95626392321E+03  0.00000000000E+00 0.  1.
         11    1    5    5    0    0  0.96140954193E+02 -0.41858464696E+01  0.72086610466E+03  0.72726098839E+03  0.00000000000E+00 0.  1.
        -11    1    5    5    0    0  0.80590925419E+01 -0.48052985935E+02  0.57111353110E+03  0.57318819234E+03  0.00000000000E+00 0. -1.
          3    1    6    6  503    0  0.47230290439E+03 -0.90794934310E+02  0.21421248898E+03  0.52649856982E+03  0.00000000000E+00 0. -1.
         -3    1    6    6    0  503  0.31637590258E+02 -0.23539823719E+02 -0.22093818559E+01  0.39496098368E+02  0.00000000000E+00 0.  1.
<mgrwt>
<rscale>  0 0.28679081E+04</rscale>
<asrwt>0</asrwt>
<pdfrwt beam="1">  1        2 0.27532636E+00 0.28679081E+04</pdfrwt>
<pdfrwt beam="2">  1       -1 0.17676487E+00 0.28679081E+04</pdfrwt>
<totfact> 0.18911625E+00</totfact>
</mgrwt>
</event>
<event>
12    6  0.1643614E-007  0.2203980E+04  0.7818608E-02  0.8516773E-01
          2   -1    0    0  501    0  0.00000000000E+00  0.00000000000E+00  0.16992649337E+04  0.16992649337E+04  0.00000000000E+00 0. -1.
         -1   -1    0    0    0  501 -0.00000000000E+00 -0.00000000000E+00 -0.71465156838E+03  0.71465156838E+03  0.00000000000E+00 0.  1.
         24    2    1    2    0    0  0.14792841122E+03 -0.47275053410E+03 -0.43179577107E+03  0.66197522058E+03  0.79923228259E+02 0.  0.
        254    2    1    2    0    0 -0.14792841122E+03  0.47275053410E+03  0.14164091364E+04  0.17519412815E+04  0.90427182299E+03 0.  0.
         23    2    4    4    0    0 -0.23999658829E+03  0.23810569488E+03  0.43830085990E+02  0.35358279504E+03  0.93845789376E+02 0.  0.
         23    2    4    4    0    0  0.92068177073E+02  0.23464483921E+03  0.13725790504E+04  0.13983584865E+04  0.88873265237E+02 0.  0.
          4    1    3    3  502    0  0.20839576526E+02 -0.19044151052E+03 -0.18071596400E+03  0.26336384818E+03  0.00000000000E+00 0. -1.
         -3    1    3    3    0  502  0.12708883469E+03 -0.28230902357E+03 -0.25107980706E+03  0.39861137240E+03  0.00000000000E+00 0.  1.
         11    1    5    5    0    0 -0.66110809547E+00 -0.74674803793E+01 -0.16304559553E+01  0.76719432839E+01  0.00000000000E+00 0.  1.
        -11    1    5    5    0    0 -0.23933548020E+03  0.24557317526E+03  0.45460541945E+02  0.34591085176E+03  0.00000000000E+00 0. -1.
          4    1    6    6  503    0 -0.92657586543E+01  0.37723729085E+02  0.11382609772E+03  0.12027183603E+03  0.00000000000E+00 0.  1.
         -4    1    6    6    0  503  0.10133393573E+03  0.19692111013E+03  0.12587529527E+04  0.12780866504E+04  0.00000000000E+00 0. -1.
<mgrwt>
<rscale>  0 0.22039804E+04</rscale>
<asrwt>0</asrwt>
<pdfrwt beam="1">  1        2 0.26142537E+00 0.22039804E+04</pdfrwt>
<pdfrwt beam="2">  1       -1 0.10994640E+00 0.22039804E+04</pdfrwt>
<totfact> 0.78039895E+00</totfact>
</mgrwt>
</event>
<event>
12    6  0.1457317E-007  0.1771793E+04  0.7818608E-02  0.8721445E-01
         -1   -1    0    0    0  501 -0.00000000000E+00  0.00000000000E+00  0.10662181323E+04  0.10662181323E+04  0.00000000000E+00 0.  1.
          2   -1    0    0  501    0  0.00000000000E+00 -0.00000000000E+00 -0.73607170324E+03  0.73607170324E+03  0.00000000000E+00 0. -1.
         24    2    1    2    0    0  0.58031270404E+03 -0.13999131510E+03  0.37994364567E+03  0.71211291883E+03  0.79920163285E+02 0.  0.
        254    2    1    2    0    0 -0.58031270404E+03  0.13999131510E+03 -0.49797216625E+02  0.10901769167E+04  0.91084880422E+03 0.  0.
         23    2    4    4    0    0  0.88026595539E+02 -0.18551922418E+03  0.20119266191E+03  0.30154177451E+03  0.91010386805E+02 0.  0.
         23    2    4    4    0    0 -0.66833929958E+03  0.32551053929E+03 -0.25098987854E+03  0.78863514219E+03  0.79466582993E+02 0.  0.
          2    1    3    3  502    0  0.21551784900E+02  0.71988543527E+01  0.25884904943E+02  0.34443159557E+02  0.00000000000E+00 0. -1.
         -1    1    3    3    0  502  0.55876091914E+03 -0.14719016946E+03  0.35405874073E+03  0.67766975927E+03  0.00000000000E+00 0.  1.
         11    1    5    5    0    0  0.31384028266E+02 -0.15495748827E+03  0.16106292754E+03  0.22569458795E+03  0.00000000000E+00 0. -1.
        -11    1    5    5    0    0  0.56642567274E+02 -0.30561735912E+02  0.40129734376E+02  0.75847186568E+02  0.00000000000E+00 0.  1.
          1    1    6    6  503    0 -0.49251118911E+03  0.27673639102E+03 -0.18131375989E+03  0.59331693136E+03  0.00000000000E+00 0. -1.
         -1    1    6    6    0  503 -0.17582811047E+03  0.48774148269E+02 -0.69676118650E+02  0.19531821082E+03  0.00000000000E+00 0.  1.
<mgrwt>
<rscale>  0 0.17717934E+04</rscale>
<asrwt>0</asrwt>
<pdfrwt beam="1">  1        2 0.11324180E+00 0.17717934E+04</pdfrwt>
<pdfrwt beam="2">  1       -1 0.16403356E+00 0.17717934E+04</pdfrwt>
<totfact> 0.11309893E+01</totfact>
</mgrwt>
</event>
<event>
12    6  0.1457317E-007  0.1373205E+04  0.7818608E-02  0.8973446E-01
         -1   -1    0    0    0  501 -0.00000000000E+00  0.00000000000E+00  0.44438300404E+03  0.44438300404E+03  0.00000000000E+00 0.  1.
          2   -1    0    0  501    0  0.00000000000E+00 -0.00000000000E+00 -0.10608481184E+04  0.10608481184E+04  0.00000000000E+00 0. -1.
         24    2    1    2    0    0 -0.76312429800E+01 -0.13113162441E+03 -0.57962468028E+03  0.59957406440E+03  0.79186803994E+02 0.  0.
        254    2    1    2    0    0  0.76312429800E+01  0.13113162441E+03 -0.36840434106E+02  0.90565705806E+03  0.89532326589E+03 0.  0.
         23    2    4    4    0    0  0.29138302976E+02 -0.36336782418E+03 -0.12155058393E+03  0.39512086717E+03  0.91982274758E+02 0.  0.
         23    2    4    4    0    0 -0.21507059996E+02  0.49449944858E+03  0.84710149820E+02  0.51053619089E+03  0.92082215692E+02 0.  0.
          2    1    3    3  502    0 -0.62082772192E+01 -0.14214023654E+03 -0.53734327060E+03  0.55585985644E+03  0.00000000000E+00 0. -1.
         -1    1    3    3    0  502 -0.14229657608E+01  0.11008612136E+02 -0.42281409686E+02  0.43714207962E+02  0.00000000000E+00 0.  1.
         11    1    5    5    0    0 -0.33231258555E+02 -0.11943841771E+03 -0.46308333774E+02  0.13234165613E+03  0.00000000000E+00 0. -1.
        -11    1    5    5    0    0  0.62369561531E+02 -0.24392940647E+03 -0.75242250153E+02  0.26277921104E+03  0.00000000000E+00 0.  1.
          4    1    6    6  503    0  0.33078138787E+02  0.28569487426E+03  0.45432748082E+02  0.29116981135E+03  0.00000000000E+00 0.  1.
         -4    1    6    6    0  503 -0.54585198783E+02  0.20880457432E+03  0.39277401738E+02  0.21936637954E+03  0.00000000000E+00 0. -1.
<mgrwt>
<rscale>  0 0.13732048E+04</rscale>
<asrwt>0</asrwt>
<pdfrwt beam="1">  1        2 0.16320740E+00 0.13732048E+04</pdfrwt>
<pdfrwt beam="2">  1       -1 0.68366616E-01 0.13732048E+04</pdfrwt>
<totfact> 0.55516576E+01</totfact>
</mgrwt>
</event>
<event>
12    6  0.1457317E-007  0.1269612E+04  0.7818608E-02  0.9054016E-01
          2   -1    0    0  501    0  0.00000000000E+00  0.00000000000E+00  0.80714321095E+03  0.80714321095E+03  0.00000000000E+00 0. -1.
         -1   -1    0    0    0  501 -0.00000000000E+00 -0.00000000000E+00 -0.49926539368E+03  0.49926539368E+03  0.00000000000E+00 0.  1.
         24    2    1    2    0    0  0.28391129585E+03 -0.13753316624E+03  0.11511963146E+03  0.34511397133E+03  0.79562101096E+02 0.  0.
        254    2    1    2    0    0 -0.28391129585E+03  0.13753316624E+03  0.19275818581E+03  0.96129463330E+03  0.88736162757E+03 0.  0.
         23    2    4    4    0    0  0.25245033822E+03  0.93374503186E+02  0.29106663291E+03  0.40678224039E+03  0.91115504668E+02 0.  0.
         23    2    4    4    0    0 -0.53636163407E+03  0.44158663049E+02 -0.98308447097E+02  0.55451239291E+03  0.90474599169E+02 0.  0.
          4    1    3    3  502    0  0.96214105309E+02 -0.56845084120E+02  0.80902481719E+02  0.13796278193E+03  0.00000000000E+00 0. -1.
         -3    1    3    3    0  502  0.18769719054E+03 -0.80688082115E+02  0.34217149739E+02  0.20715118940E+03  0.00000000000E+00 0.  1.
         11    1    5    5    0    0  0.27466003798E+02  0.30597202191E+01  0.82406367008E+02  0.86916929167E+02  0.00000000000E+00 0. -1.
        -11    1    5    5    0    0  0.22498433442E+03  0.90314782967E+02  0.20866026590E+03  0.31986531122E+03  0.00000000000E+00 0.  1.
          1    1    6    6  503    0 -0.28657877730E+03  0.46140523960E+02 -0.92509117553E+02  0.30465436215E+03  0.00000000000E+00 0. -1.
         -1    1    6    6    0  503 -0.24978285677E+03 -0.19818609111E+01 -0.57993295444E+01  0.24985803076E+03  0.00000000000E+00 0.  1.
<mgrwt>
<rscale>  0 0.12696120E+04</rscale>
<asrwt>0</asrwt>
<pdfrwt beam="1">  1        2 0.12417588E+00 0.12696120E+04</pdfrwt>
<pdfrwt beam="2">  1       -1 0.76810060E-01 0.12696120E+04</pdfrwt>
<totfact> 0.64931812E+01</totfact>
</mgrwt>
</event>
<event>
12    6  0.1457317E-007  0.2123661E+04  0.7818608E-02  0.8550892E-01
          2   -1    0    0  501    0  0.00000000000E+00  0.00000000000E+00  0.11052640909E+04  0.11052640909E+04  0.00000000000E+00 0. -1.
         -1   -1    0    0    0  501 -0.00000000000E+00 -0.00000000000E+00 -0.10201034538E+04  0.10201034538E+04  0.00000000000E+00 0.  1.
         24    2    1    2    0    0 -0.16355128089E+03  0.84081044158E+03 -0.81483949615E+02  0.86413340803E+03  0.79847934694E+02 0.  0.
        254    2    1    2    0    0  0.16355128089E+03 -0.84081044158E+03  0.16664458666E+03  0.12612341367E+04  0.91062061754E+03 0.  0.
         23    2    4    4    0    0  0.12758997764E+03 -0.10218400236E+04  0.76435195749E+02  0.10363273535E+04  0.87725755511E+02 0.  0.
         23    2    4    4    0    0  0.35961303250E+02  0.18102958207E+03  0.90209390915E+02  0.22490678315E+03  0.91544535524E+02 0.  0.
          2    1    3    3  502    0 -0.12511636142E+03  0.76564759810E+03 -0.76525584523E+02  0.77956815832E+03  0.00000000000E+00 0. -1.
         -1    1    3    3    0  502 -0.38434919472E+02  0.75162843479E+02 -0.49583650920E+01  0.84565249713E+02  0.00000000000E+00 0.  1.
         11    1    5    5    0    0  0.58916400491E+02 -0.71262604774E+03  0.25514949705E+02  0.71551243094E+03  0.00000000000E+00 0.  1.
        -11    1    5    5    0    0  0.68673577152E+02 -0.30921397591E+03  0.50920246044E+02  0.32081492258E+03  0.00000000000E+00 0. -1.
          4    1    6    6  503    0 -0.30689283760E+02  0.71359761668E+02  0.35028354656E+02  0.85211697278E+02  0.00000000000E+00 0. -1.
         -4    1    6    6    0  503  0.66650587011E+02  0.10966982040E+03  0.55181036259E+02  0.13969508588E+03  0.00000000000E+00 0.  1.
<mgrwt>
<rscale>  0 0.21236607E+04</rscale>
<asrwt>0</asrwt>
<pdfrwt beam="1">  1        2 0.17004063E+00 0.21236607E+04</pdfrwt>
<pdfrwt beam="2">  1       -1 0.15693899E+00 0.21236607E+04</pdfrwt>
<totfact> 0.69939163E+00</totfact>
</mgrwt>
</event>
<event>
12    6  0.1457317E-007  0.1650762E+04  0.7818608E-02  0.8789956E-01
          2   -1    0    0  501    0  0.00000000000E+00  0.00000000000E+00  0.19770659966E+04  0.19770659966E+04  0.00000000000E+00 0. -1.
         -1   -1    0    0    0  501 -0.00000000000E+00 -0.00000000000E+00 -0.34457822835E+03  0.34457822835E+03  0.00000000000E+00 0.  1.
         24    2    1    2    0    0 -0.20056539062E+03  0.62740298749E+02  0.13326313850E+04  0.13513251198E+04  0.77526448577E+02 0.  0.
        254    2    1    2    0    0  0.20056539062E+03 -0.62740298749E+02  0.29985638333E+03  0.97031910518E+03  0.89857804016E+03 0.  0.
         23    2    4    4    0    0  0.34059149864E+03 -0.36025265658E+03 -0.16339109693E+02  0.50442382343E+03  0.91607213784E+02 0.  0.
         23    2    4    4    0    0 -0.14002610801E+03  0.29751235784E+03  0.31619549302E+03  0.46589528175E+03  0.94646234789E+02 0.  0.
          4    1    3    3  502    0 -0.16119547991E+03  0.24615859293E+02  0.11169373509E+04  0.11287776438E+04  0.00000000000E+00 0. -1.
         -3    1    3    3    0  502 -0.39369910717E+02  0.38124439456E+02  0.21569403406E+03  0.22254747602E+03  0.00000000000E+00 0.  1.
         11    1    5    5    0    0  0.30929778532E+03 -0.29901593761E+03  0.11188152420E+02  0.43034965517E+03  0.00000000000E+00 0. -1.
        -11    1    5    5    0    0  0.31293713313E+02 -0.61236718974E+02 -0.27527262113E+02  0.74074168258E+02  0.00000000000E+00 0.  1.
          4    1    6    6  503    0 -0.82335750506E+02  0.18829710067E+03  0.25660245908E+03  0.32875491774E+03  0.00000000000E+00 0. -1.
         -4    1    6    6    0  503 -0.57690357509E+02  0.10921525716E+03  0.59593033945E+02  0.13714036401E+03  0.00000000000E+00 0.  1.
<mgrwt>
<rscale>  0 0.16507621E+04</rscale>
<asrwt>0</asrwt>
<pdfrwt beam="1">  1        2 0.30416399E+00 0.16507621E+04</pdfrwt>
<pdfrwt beam="2">  1       -1 0.53012036E-01 0.16507621E+04</pdfrwt>
<totfact> 0.26861945E+01</totfact>
</mgrwt>
</event>
<event>
12    6  0.1457317E-007  0.3286636E+04  0.7818608E-02  0.8166304E-01
          2   -1    0    0  501    0  0.00000000000E+00  0.00000000000E+00  0.39455560047E+04  0.39455560047E+04  0.00000000000E+00 0. -1.
         -1   -1    0    0    0  501 -0.00000000000E+00 -0.00000000000E+00 -0.68443941704E+03  0.68443941704E+03  0.00000000000E+00 0.  1.
         24    2    1    2    0    0  0.56933374148E+03  0.57881832888E+03  0.33289529481E+04  0.34274463011E+04  0.79302265537E+02 0.  0.
        254    2    1    2    0    0 -0.56933374148E+03 -0.57881832888E+03 -0.67836360375E+02  0.12025491207E+04  0.88450610446E+03 0.  0.
         23    2    4    4    0    0  0.12538474623E+03 -0.20684440494E+03 -0.28091616998E+03  0.38164543684E+03  0.90738098188E+02 0.  0.
         23    2    4    4    0    0 -0.69471848772E+03 -0.37197392394E+03  0.21307980960E+03  0.82090368384E+03  0.86495523717E+02 0.  0.
          4    1    3    3  502    0  0.25492441389E+03  0.28578591824E+03  0.17159519720E+04  0.17581670052E+04  0.00000000000E+00 0. -1.
         -3    1    3    3    0  502  0.31440932760E+03  0.29303241064E+03  0.16130009760E+04  0.16692792959E+04  0.00000000000E+00 0.  1.
         11    1    5    5    0    0  0.13303835911E+03 -0.20792470264E+03 -0.25627860149E+03  0.35582384482E+03  0.00000000000E+00 0. -1.
        -11    1    5    5    0    0 -0.76536128813E+01  0.10802976986E+01 -0.24637568490E+02  0.25821592019E+02  0.00000000000E+00 0.  1.
          1    1    6    6  503    0 -0.54433588681E+03 -0.31514592384E+03  0.14032520784E+03  0.64444524588E+03  0.00000000000E+00 0. -1.
         -1    1    6    6    0  503 -0.15038260091E+03 -0.56828000096E+02  0.72754601767E+02  0.17645843796E+03  0.00000000000E+00 0.  1.
<mgrwt>
<rscale>  0 0.32866360E+04</rscale>
<asrwt>0</asrwt>
<pdfrwt beam="1">  1        2 0.60700860E+00 0.32866360E+04</pdfrwt>
<pdfrwt beam="2">  1       -1 0.10529837E+00 0.32866360E+04</pdfrwt>
<totfact> 0.30317598E-01</totfact>
</mgrwt>
</event>
<event>
12    6  0.1457317E-007  0.1722996E+04  0.7818608E-02  0.8748356E-01
         -1   -1    0    0    0  501 -0.00000000000E+00  0.00000000000E+00  0.16034757278E+04  0.16034757278E+04  0.00000000000E+00 0.  1.
          2   -1    0    0  501    0  0.00000000000E+00 -0.00000000000E+00 -0.46285644298E+03  0.46285644298E+03  0.00000000000E+00 0. -1.
         24    2    1    2    0    0 -0.58741562741E+03  0.13219545082E+03  0.70121497375E+03  0.92782510289E+03  0.81389345758E+02 0.  0.
        254    2    1    2    0    0  0.58741562741E+03 -0.13219545082E+03  0.43940431102E+03  0.11385070678E+04  0.86057506265E+03 0.  0.
         23    2    4    4    0    0 -0.18455706464E+03  0.10548114470E+03  0.14163802164E+03  0.27293532053E+03  0.96149768722E+02 0.  0.
         23    2    4    4    0    0  0.77197269205E+03 -0.23767659552E+03  0.29776628939E+03  0.86557174732E+03  0.90098198252E+02 0.  0.
          2    1    3    3  502    0 -0.28306866673E+02  0.13080179001E+02  0.14729074890E+02  0.34486452857E+02  0.00000000000E+00 0. -1.
         -1    1    3    3    0  502 -0.55910876073E+03  0.11911527182E+03  0.68648589886E+03  0.89333865004E+03  0.00000000000E+00 0.  1.
         11    1    5    5    0    0 -0.17995760540E+03  0.73523635297E+02  0.14184821678E+03  0.24064783667E+03  0.00000000000E+00 0. -1.
        -11    1    5    5    0    0 -0.45994592421E+01  0.31957509400E+02 -0.21019514493E+00  0.32287483865E+02  0.00000000000E+00 0.  1.
          1    1    6    6  503    0  0.43827603921E+03 -0.95322286567E+02  0.13906301094E+03  0.46958571728E+03  0.00000000000E+00 0. -1.
         -1    1    6    6    0  503  0.33369665284E+03 -0.14235430895E+03  0.15870327845E+03  0.39598603004E+03  0.00000000000E+00 0.  1.
<mgrwt>
<rscale>  0 0.17229963E+04</rscale>
<asrwt>0</asrwt>
<pdfrwt beam="1">  1        2 0.71208684E-01 0.17229963E+04</pdfrwt>
<pdfrwt beam="2">  1       -1 0.24668857E+00 0.17229963E+04</pdfrwt>
<totfact> 0.53588509E+00</totfact>
</mgrwt>
</event>
<event>
12    6  0.1722640E-007  0.2642099E+04  0.7818608E-02  0.8354040E-01
         -1   -1    0    0    0  501 -0.00000000000E+00  0.00000000000E+00  0.71844266052E+03  0.71844266052E+03  0.00000000000E+00 0.  1.
          2   -1    0    0  501    0  0.00000000000E+00 -0.00000000000E+00 -0.24291046438E+04  0.24291046438E+04  0.00000000000E+00 0. -1.
         24    2    1    2    0    0 -0.50364632234E+02  0.82487838457E+03  0.22001871740E+03  0.85995116014E+03  0.90259715861E+02 0.  0.
        254    2    1    2    0    0  0.50364632234E+02 -0.82487838457E+03 -0.19306807007E+04  0.22875961442E+04  0.90697695969E+03 0.  0.
         23    2    4    4    0    0 -0.18260617604E+03 -0.51946239795E+03 -0.17788551518E+04  0.18644584577E+04  0.93238891032E+02 0.  0.
         23    2    4    4    0    0  0.23297080828E+03 -0.30541598661E+03 -0.15182554890E+03  0.42313768655E+03  0.91870463669E+02 0.  0.
          4    1    3    3  502    0 -0.12628072433E+02  0.25240334117E+03  0.11074874009E+03  0.27592063765E+03  0.00000000000E+00 0. -1.
         -3    1    3    3    0  502 -0.37736559800E+02  0.57247504340E+03  0.10926997730E+03  0.58403052249E+03  0.00000000000E+00 0.  1.
         11    1    5    5    0    0 -0.13256033849E+02 -0.94922530079E+02 -0.21987771485E+03  0.23985874726E+03  0.00000000000E+00 0. -1.
        -11    1    5    5    0    0 -0.16935014219E+03 -0.42453986788E+03 -0.15589774370E+04  0.16245997104E+04  0.00000000000E+00 0.  1.
          1    1    6    6  503    0  0.10997321620E+01 -0.15925260633E+02  0.96016435368E+01  0.18628335826E+02  0.00000000000E+00 0. -1.
         -1    1    6    6    0  503  0.23187107611E+03 -0.28949072598E+03 -0.16142719244E+03  0.40450935073E+03  0.00000000000E+00 0.  1.
<mgrwt>
<rscale>  0 0.26420995E+04</rscale>
<asrwt>0</asrwt>
<pdfrwt beam="1">  1        2 0.37370840E+00 0.26420995E+04</pdfrwt>
<pdfrwt beam="2">  1       -1 0.11052964E+00 0.26420995E+04</pdfrwt>
<totfact> 0.28926729E+00</totfact>
</mgrwt>
</event>
<event>
12    6  0.1457317E-007  0.1548114E+04  0.7818608E-02  0.8853073E-01
         -1   -1    0    0    0  501 -0.00000000000E+00  0.00000000000E+00  0.17771953580E+03  0.17771953580E+03  0.00000000000E+00 0.  1.
          2   -1    0    0  501    0  0.00000000000E+00 -0.00000000000E+00 -0.33714021952E+04  0.33714021952E+04  0.00000000000E+00 0. -1.
         24    2    1    2    0    0  0.99836018261E+02  0.47511698429E+03 -0.13685410451E+04  0.14543034466E+04  0.79940873304E+02 0.  0.
        254    2    1    2    0    0 -0.99836018261E+02 -0.47511698429E+03 -0.18251416143E+04  0.20948182845E+04  0.90632133005E+03 0.  0.
         23    2    4    4    0    0  0.59502926555E+01 -0.64901595565E+03 -0.17340408060E+04  0.18538963283E+04  0.93685444706E+02 0.  0.
         23    2    4    4    0    0 -0.10578631092E+03  0.17389897137E+03 -0.91100808315E+02  0.24092195616E+03  0.91172560903E+02 0.  0.
          2    1    3    3  502    0  0.56549559432E+02  0.40966415926E+03 -0.11468499244E+04  0.12191338422E+04  0.00000000000E+00 0. -1.
         -1    1    3    3    0  502  0.43286458829E+02  0.65452825021E+02 -0.22169112071E+03  0.23516960438E+03  0.00000000000E+00 0.  1.
         11    1    5    5    0    0  0.37119637394E+02 -0.12579721009E+03 -0.37571497436E+03  0.39795043348E+03  0.00000000000E+00 0. -1.
        -11    1    5    5    0    0 -0.31169344738E+02 -0.52321874557E+03 -0.13583258317E+04  0.14559458948E+04  0.00000000000E+00 0.  1.
          3    1    6    6  503    0 -0.59218013357E+02  0.20730088202E+02 -0.30281062878E+02  0.69666723993E+02  0.00000000000E+00 0. -1.
         -3    1    6    6    0  503 -0.46568297559E+02  0.15316888317E+03 -0.60819745437E+02  0.17125523216E+03  0.00000000000E+00 0.  1.
<mgrwt>
<rscale>  0 0.15481137E+04</rscale>
<asrwt>0</asrwt>
<pdfrwt beam="1">  1        2 0.51867722E+00 0.15481137E+04</pdfrwt>
<pdfrwt beam="2">  1       -1 0.27341469E-01 0.15481137E+04</pdfrwt>
<totfact> 0.13264389E+01</totfact>
</mgrwt>
</event>
<event>
12    6  0.1457317E-007  0.1862362E+04  0.7818608E-02  0.8673821E-01
          2   -1    0    0  501    0  0.00000000000E+00  0.00000000000E+00  0.88560078813E+03  0.88560078813E+03  0.00000000000E+00 0. -1.
         -1   -1    0    0    0  501 -0.00000000000E+00 -0.00000000000E+00 -0.97910734112E+03  0.97910734112E+03  0.00000000000E+00 0.  1.
         24    2    1    2    0    0  0.64538363168E+03 -0.25800747450E+03 -0.22997413943E+03  0.73635484119E+03  0.79009229857E+02 0.  0.
        254    2    1    2    0    0 -0.64538363168E+03  0.25800747450E+03  0.13646758645E+03  0.11283532881E+04  0.87833356510E+03 0.  0.
         23    2    4    4    0    0 -0.14939274123E+02 -0.22401883486E+03  0.21734949611E+03  0.32560144865E+03  0.91476115048E+02 0.  0.
         23    2    4    4    0    0 -0.63044435756E+03  0.48202630936E+03 -0.80881909658E+02  0.80275183941E+03  0.89772944015E+02 0.  0.
          2    1    3    3  502    0  0.20091384270E+03 -0.98377939270E+02 -0.10896043195E+03  0.24883120153E+03  0.00000000000E+00 0. -1.
         -1    1    3    3    0  502  0.44446978898E+03 -0.15962953523E+03 -0.12101370749E+03  0.48752363966E+03  0.00000000000E+00 0.  1.
         11    1    5    5    0    0  0.22359799059E+00 -0.19990162038E+03  0.14244155993E+03  0.24545937714E+03  0.00000000000E+00 0. -1.
        -11    1    5    5    0    0 -0.15162872113E+02 -0.24117214472E+02  0.74907936178E+02  0.80142071517E+02  0.00000000000E+00 0.  1.
          4    1    6    6  503    0 -0.38168036614E+03  0.34243750257E+03 -0.36613301257E+02  0.51408547820E+03  0.00000000000E+00 0. -1.
         -4    1    6    6    0  503 -0.24876399142E+03  0.13958880679E+03 -0.44268608401E+02  0.28866636121E+03  0.00000000000E+00 0.  1.
<mgrwt>
<rscale>  0 0.18623622E+04</rscale>
<asrwt>0</asrwt>
<pdfrwt beam="1">  1        2 0.13624628E+00 0.18623622E+04</pdfrwt>
<pdfrwt beam="2">  1       -1 0.15063190E+00 0.18623622E+04</pdfrwt>
<totfact> 0.11090930E+01</totfact>
</mgrwt>
</event>
<event>
12    6  0.1457317E-007  0.1786462E+04  0.7818608E-02  0.8713532E-01
          2   -1    0    0  501    0  0.00000000000E+00  0.00000000000E+00  0.58242472020E+03  0.58242472020E+03  0.00000000000E+00 0. -1.
         -3   -1    0    0    0  501 -0.00000000000E+00 -0.00000000000E+00 -0.13698960184E+04  0.13698960184E+04  0.00000000000E+00 0.  1.
         24    2    1    2    0    0 -0.27727149386E+03 -0.92595840070E+02  0.34779594710E+03  0.46173102188E+03  0.82341027695E+02 0.  0.
        254    2    1    2    0    0  0.27727149386E+03  0.92595840070E+02 -0.11352672453E+04  0.14905897168E+04  0.92063701560E+03 0.  0.
         23    2    4    4    0    0 -0.20207117085E+03  0.11583484101E+03  0.49950218030E+01  0.25003939786E+03  0.90798027279E+02 0.  0.
         23    2    4    4    0    0  0.47934266472E+03 -0.23239000942E+02 -0.11402622671E+04  0.12405503189E+04  0.91965289668E+02 0.  0.
          2    1    3    3  502    0 -0.26628819230E+03 -0.10516048641E+03  0.32065137841E+03  0.42986676510E+03  0.00000000000E+00 0. -1.
         -1    1    3    3    0  502 -0.10983301562E+02  0.12564646342E+02  0.27144568688E+02  0.31864256780E+02  0.00000000000E+00 0.  1.
         11    1    5    5    0    0 -0.74993720390E+02  0.15061742000E+02 -0.33251336703E+02  0.83406028334E+02  0.00000000000E+00 0.  1.
        -11    1    5    5    0    0 -0.12707745046E+03  0.10077309901E+03  0.38246358506E+02  0.16663336953E+03  0.00000000000E+00 0. -1.
          4    1    6    6  503    0  0.45983359400E+03 -0.41170805249E+02 -0.10897255384E+04  0.11834879461E+04  0.00000000000E+00 0. -1.
         -4    1    6    6    0  503  0.19509070713E+02  0.17931804307E+02 -0.50536728693E+02  0.57062372828E+02  0.00000000000E+00 0.  1.
<mgrwt>
<rscale>  0 0.17864616E+04</rscale>
<asrwt>0</asrwt>
<pdfrwt beam="1">  1        2 0.89603804E-01 0.17864616E+04</pdfrwt>
<pdfrwt beam="2">  1       -3 0.21075323E+00 0.17864616E+04</pdfrwt>
<totfact> 0.38160731E+00</totfact>
</mgrwt>
</event>
<event>
12    6  0.1457317E-007  0.2146432E+04  0.7818608E-02  0.8541061E-01
         -3   -1    0    0    0  501 -0.00000000000E+00  0.00000000000E+00  0.11229836571E+04  0.11229836571E+04  0.00000000000E+00 0.  1.
          2   -1    0    0  501    0  0.00000000000E+00 -0.00000000000E+00 -0.10256541778E+04  0.10256541778E+04  0.00000000000E+00 0. -1.
         24    2    1    2    0    0 -0.72394034026E+03 -0.37362747443E+03  0.37036056591E+03  0.89836557482E+03  0.78782303403E+02 0.  0.
        254    2    1    2    0    0  0.72394034026E+03  0.37362747443E+03 -0.27303108665E+03  0.12502722600E+04  0.90826628476E+03 0.  0.
         23    2    4    4    0    0  0.53244992954E+03 -0.87169283278E+01 -0.51906494583E+03  0.74791999184E+03  0.79856019751E+02 0.  0.
         23    2    4    4    0    0  0.19149041072E+03  0.38234440276E+03  0.24603385918E+03  0.50235226820E+03  0.94706503385E+02 0.  0.
          2    1    3    3  502    0 -0.12292836584E+03 -0.84355400486E+02  0.41842430742E+02  0.15484833137E+03  0.00000000000E+00 0. -1.
         -1    1    3    3    0  502 -0.60101197443E+03 -0.28927207394E+03  0.32851813517E+03  0.74351724345E+03  0.00000000000E+00 0.  1.
         11    1    5    5    0    0  0.43381957976E+03  0.21128631059E+02 -0.40009185079E+03  0.59052462768E+03  0.00000000000E+00 0. -1.
        -11    1    5    5    0    0  0.98630349788E+02 -0.29845559387E+02 -0.11897309504E+03  0.15739536416E+03  0.00000000000E+00 0.  1.
          2    1    6    6  503    0  0.39769057695E+02  0.14930104647E+03  0.12642897894E+03  0.19964134628E+03  0.00000000000E+00 0. -1.
         -2    1    6    6    0  503  0.15172135302E+03  0.23304335629E+03  0.11960488024E+03  0.30271092192E+03  0.00000000000E+00 0.  1.
<mgrwt>
<rscale>  0 0.21464323E+04</rscale>
<asrwt>0</asrwt>
<pdfrwt beam="1">  1        2 0.15779295E+00 0.21464323E+04</pdfrwt>
<pdfrwt beam="2">  1       -3 0.17276672E+00 0.21464323E+04</pdfrwt>
<totfact> 0.31083490E+00</totfact>
</mgrwt>
</event>
<event>
12    6  0.1457317E-007  0.1288936E+04  0.7818608E-02  0.9038385E-01
         -1   -1    0    0    0  501 -0.00000000000E+00  0.00000000000E+00  0.31122156490E+03  0.31122156490E+03  0.00000000000E+00 0.  1.
          2   -1    0    0  501    0  0.00000000000E+00 -0.00000000000E+00 -0.13345444256E+04  0.13345444256E+04  0.00000000000E+00 0. -1.
         24    2    1    2    0    0 -0.32577154258E+03 -0.54321816311E+02 -0.32241273180E+03  0.46823421352E+03  0.78837499914E+02 0.  0.
        254    2    1    2    0    0  0.32577154258E+03  0.54321816311E+02 -0.70091012891E+03  0.11775317770E+04  0.88669505432E+03 0.  0.
         23    2    4    4    0    0  0.45536136964E+03 -0.30089647801E+03 -0.46151012239E+03  0.72061230809E+03  0.91639718855E+02 0.  0.
         23    2    4    4    0    0 -0.12958982705E+03  0.35521829432E+03 -0.23940000652E+03  0.45691946891E+03  0.92138363617E+02 0.  0.
          4    1    3    3  502    0 -0.74564414604E+01  0.63638936508E+01  0.16611260656E+01  0.99426858271E+01  0.00000000000E+00 0. -1.
         -3    1    3    3    0  502 -0.31831510112E+03 -0.60685709961E+02 -0.32407385787E+03  0.45829152769E+03  0.00000000000E+00 0.  1.
         11    1    5    5    0    0  0.28376591860E+03 -0.22528649424E+03 -0.26424652427E+03  0.44844545558E+03  0.00000000000E+00 0.  1.
        -11    1    5    5    0    0  0.17159545104E+03 -0.75609983774E+02 -0.19726359811E+03  0.27216685251E+03  0.00000000000E+00 0. -1.
          1    1    6    6  503    0 -0.75000084466E+02  0.13967762620E+03 -0.54207046578E+02  0.16755075598E+03  0.00000000000E+00 0. -1.
         -1    1    6    6    0  503 -0.54589742589E+02  0.21554066812E+03 -0.18519295995E+03  0.28936871293E+03  0.00000000000E+00 0.  1.
<mgrwt>
<rscale>  0 0.12889360E+04</rscale>
<asrwt>0</asrwt>
<pdfrwt beam="1">  1        2 0.20531452E+00 0.12889360E+04</pdfrwt>
<pdfrwt beam="2">  1       -1 0.47880242E-01 0.12889360E+04</pdfrwt>
<totfact> 0.76882052E+01</totfact>
</mgrwt>
</event>
<event>
12    6  0.1457317E-007  0.1910525E+04  0.7818608E-02  0.8649635E-01
         -1   -1    0    0    0  501 -0.00000000000E+00  0.00000000000E+00  0.63593788562E+03  0.63593788562E+03  0.00000000000E+00 0.  1.
          2   -1    0    0  501    0  0.00000000000E+00 -0.00000000000E+00 -0.14349296766E+04  0.14349296766E+04  0.00000000000E+00 0. -1.
         24    2    1    2    0    0 -0.41162102890E+03  0.60067018980E+03 -0.43326970341E+03  0.85112815407E+03  0.80373816720E+02 0.  0.
        254    2    1    2    0    0  0.41162102890E+03 -0.60067018980E+03 -0.36572208760E+03  0.12197394082E+04  0.90762053203E+03 0.  0.
         23    2    4    4    0    0  0.47951301406E+03  0.99127559667E+01  0.19941432006E+02  0.48888404551E+03  0.92622653040E+02 0.  0.
         23    2    4    4    0    0 -0.67891985155E+02 -0.61058294576E+03 -0.38566351960E+03  0.73085536267E+03  0.89399974796E+02 0.  0.
          2    1    3    3  502    0 -0.40207627551E+03  0.59988525767E+03 -0.43186645331E+03  0.84144892132E+03  0.00000000000E+00 0. -1.
         -1    1    3    3    0  502 -0.95447533935E+01  0.78493213006E+00 -0.14032500930E+01  0.96792327493E+01  0.00000000000E+00 0.  1.
         11    1    5    5    0    0  0.27112375381E+03  0.45628870096E+02 -0.11256579301E+02  0.27516684801E+03  0.00000000000E+00 0.  1.
        -11    1    5    5    0    0  0.20838926025E+03 -0.35716114129E+02  0.31198011306E+02  0.21371719749E+03  0.00000000000E+00 0. -1.
          1    1    6    6  503    0 -0.15629973559E+02 -0.75984451728E+02 -0.17145853638E+02  0.79447550464E+02  0.00000000000E+00 0. -1.
         -1    1    6    6    0  503 -0.52262011597E+02 -0.53459849403E+03 -0.36851766596E+03  0.65140781221E+03  0.00000000000E+00 0.  1.
<mgrwt>
<rscale>  0 0.19105247E+04</rscale>
<asrwt>0</asrwt>
<pdfrwt beam="1">  1        2 0.22075841E+00 0.19105247E+04</pdfrwt>
<pdfrwt beam="2">  1       -1 0.97836598E-01 0.19105247E+04</pdfrwt>
<totfact> 0.14765995E+01</totfact>
</mgrwt>
</event>
<event>
12    6  0.1457317E-007  0.1395282E+04  0.7818608E-02  0.8957241E-01
         -1   -1    0    0    0  501 -0.00000000000E+00  0.00000000000E+00  0.54156670831E+03  0.54156670831E+03  0.00000000000E+00 0.  1.
          2   -1    0    0  501    0  0.00000000000E+00 -0.00000000000E+00 -0.89869465674E+03  0.89869465674E+03  0.00000000000E+00 0. -1.
         24    2    1    2    0    0 -0.22476355362E+03  0.29914468536E+03 -0.30578778665E+03  0.49048745287E+03  0.84056963653E+02 0.  0.
        254    2    1    2    0    0  0.22476355362E+03 -0.29914468536E+03 -0.51340161778E+02  0.94977391219E+03  0.87145193455E+03 0.  0.
         23    2    4    4    0    0  0.18944646625E+03  0.14332880372E+03 -0.33073791301E+03  0.41718070190E+03  0.90659039187E+02 0.  0.
         23    2    4    4    0    0  0.35317087366E+02 -0.44247348908E+03  0.27939775123E+03  0.53259321028E+03  0.92532907883E+02 0.  0.
          4    1    3    3  502    0 -0.21803986067E+03  0.30471068827E+03 -0.30029924917E+03  0.48017665857E+03  0.00000000000E+00 0. -1.
         -3    1    3    3    0  502 -0.67236929510E+01 -0.55660029084E+01 -0.54885374818E+01  0.10310794294E+02  0.00000000000E+00 0.  1.
         11    1    5    5    0    0  0.56427066834E+02  0.76088470571E+00 -0.10237608363E+03  0.11689933839E+03  0.00000000000E+00 0.  1.
        -11    1    5    5    0    0  0.13301939942E+03  0.14256791902E+03 -0.22836182938E+03  0.30028136351E+03  0.00000000000E+00 0. -1.
          2    1    6    6  503    0 -0.10604697344E+02 -0.65044236169E+01 -0.54599624590E+00  0.12452519595E+02  0.00000000000E+00 0. -1.
         -2    1    6    6    0  503  0.45921784711E+02 -0.43596906547E+03  0.27994374748E+03  0.52014069069E+03  0.00000000000E+00 0.  1.
<mgrwt>
<rscale>  0 0.13952822E+04</rscale>
<asrwt>0</asrwt>
<pdfrwt beam="1">  1        2 0.13826072E+00 0.13952822E+04</pdfrwt>
<pdfrwt beam="2">  1       -1 0.83317955E-01 0.13952822E+04</pdfrwt>
<totfact> 0.46691424E+01</totfact>
</mgrwt>
</event>
<event>
12    6  0.1457317E-007  0.2670011E+04  0.7818608E-02  0.8344801E-01
          2   -1    0    0  501    0  0.00000000000E+00  0.00000000000E+00  0.16096388746E+04  0.16096388746E+04  0.00000000000E+00 0. -1.
         -1   -1    0    0    0  501 -0.00000000000E+00 -0.00000000000E+00 -0.11072293428E+04  0.11072293428E+04  0.00000000000E+00 0.  1.
         24    2    1    2    0    0  0.19297816436E+03  0.71078050335E+03 -0.71764195890E+03  0.10314888297E+04  0.80682890620E+02 0.  0.
        254    2    1    2    0    0 -0.19297816436E+03 -0.71078050335E+03  0.12200514907E+04  0.16853793876E+04  0.89973804205E+03 0.  0.
         23    2    4    4    0    0 -0.13793361899E+03 -0.79233670244E+03  0.12976280476E+04  0.15296207113E+04  0.95277684477E+02 0.  0.
         23    2    4    4    0    0 -0.55044545370E+02  0.81556199096E+02 -0.77576556899E+02  0.15575867632E+03  0.92527441776E+02 0.  0.
          2    1    3    3  502    0  0.58894477488E+02  0.13819718950E+03 -0.18249082749E+03  0.23636819748E+03  0.00000000000E+00 0. -1.
         -1    1    3    3    0  502  0.13408368687E+03  0.57258331385E+03 -0.53515113141E+03  0.79512063225E+03  0.00000000000E+00 0.  1.
         11    1    5    5    0    0 -0.11421801378E+03 -0.58956487772E+03  0.88889063715E+03  0.10727343868E+04  0.00000000000E+00 0. -1.
        -11    1    5    5    0    0 -0.23715605212E+02 -0.20277182472E+03  0.40873741047E+03  0.45688632454E+03  0.00000000000E+00 0.  1.
          1    1    6    6  503    0 -0.23938969729E+02  0.19721636020E+00  0.15313788376E+02  0.28418748748E+02  0.00000000000E+00 0. -1.
         -1    1    6    6    0  503 -0.31105575641E+02  0.81358982736E+02 -0.92890345275E+02  0.12733992757E+03  0.00000000000E+00 0.  1.
<mgrwt>
<rscale>  0 0.26700108E+04</rscale>
<asrwt>0</asrwt>
<pdfrwt beam="1">  1        2 0.24763675E+00 0.26700108E+04</pdfrwt>
<pdfrwt beam="2">  1       -1 0.17034298E+00 0.26700108E+04</pdfrwt>
<totfact> 0.26982686E+00</totfact>
</mgrwt>
</event>
<event>
12    6  0.1457317E-007  0.1628947E+04  0.7818608E-02  0.8802959E-01
          2   -1    0    0  501    0  0.00000000000E+00  0.00000000000E+00  0.50076625167E+04  0.50076625167E+04  0.00000000000E+00 0. -1.
         -1   -1    0    0    0  501 -0.00000000000E+00 -0.00000000000E+00 -0.13247042250E+03  0.13247042250E+03  0.00000000000E+00 0.  1.
         24    2    1    2    0    0 -0.43954888667E+03  0.31786044789E+01  0.30595462113E+04  0.30920084231E+04  0.80496844948E+02 0.  0.
        254    2    1    2    0    0  0.43954888667E+03 -0.31786044789E+01  0.18156458829E+04  0.20481245161E+04  0.83966108288E+03 0.  0.
         23    2    4    4    0    0  0.14629741277E+03  0.22152473957E+03  0.10967211738E+03  0.30022841668E+03  0.87366959602E+02 0.  0.
         23    2    4    4    0    0  0.29325147390E+03 -0.22470334405E+03  0.17059737655E+04  0.17478960994E+04  0.91138718327E+02 0.  0.
          4    1    3    3  502    0 -0.39131178190E+03 -0.18166924463E+02  0.25800133643E+04  0.26095830908E+04  0.00000000000E+00 0. -1.
         -3    1    3    3    0  502 -0.48237104771E+02  0.21345528942E+02  0.47953284702E+03  0.48242533231E+03  0.00000000000E+00 0.  1.
         11    1    5    5    0    0  0.13352609036E+03  0.13024551078E+03  0.83865636496E+02  0.20451541475E+03  0.00000000000E+00 0.  1.
        -11    1    5    5    0    0  0.12771322413E+02  0.91279228783E+02  0.25806480883E+02  0.95713001933E+02  0.00000000000E+00 0. -1.
          2    1    6    6  503    0  0.20408250995E+03 -0.19906900454E+03  0.13698438328E+04  0.13991962927E+04  0.00000000000E+00 0.  1.
         -2    1    6    6    0  503  0.89168963949E+02 -0.25634339510E+02  0.33612993275E+03  0.34869980669E+03  0.00000000000E+00 0. -1.
<mgrwt>
<rscale>  0 0.16289471E+04</rscale>
<asrwt>0</asrwt>
<pdfrwt beam="1">  1        2 0.77040947E+00 0.16289471E+04</pdfrwt>
<pdfrwt beam="2">  1       -1 0.20380069E-01 0.16289471E+04</pdfrwt>
<totfact> 0.75704597E-01</totfact>
</mgrwt>
</event>
<event>
12    6  0.1457317E-007  0.1179223E+04  0.7818608E-02  0.9131239E-01
         -1   -1    0    0    0  501 -0.00000000000E+00  0.00000000000E+00  0.57893354724E+03  0.57893354724E+03  0.00000000000E+00 0.  1.
          2   -1    0    0  501    0  0.00000000000E+00 -0.00000000000E+00 -0.60048648669E+03  0.60048648669E+03  0.00000000000E+00 0. -1.
         24    2    1    2    0    0 -0.40926436921E+02 -0.14289789797E+03 -0.21857733941E+03  0.27575210426E+03  0.78539080843E+02 0.  0.
        254    2    1    2    0    0  0.40926436921E+02  0.14289789797E+03  0.19702439996E+03  0.90366792966E+03  0.86931141165E+03 0.  0.
         23    2    4    4    0    0 -0.83709620746E+02 -0.21312106711E+03  0.39670219738E+03  0.46722029099E+03  0.92164402322E+02 0.  0.
         23    2    4    4    0    0  0.12463605767E+03  0.35601896508E+03 -0.19967779742E+03  0.43644763867E+03  0.91277971892E+02 0.  0.
          4    1    3    3  502    0 -0.25357356404E+02 -0.14663178693E+03 -0.21058808367E+03  0.25785890996E+03  0.00000000000E+00 0. -1.
         -3    1    3    3    0  502 -0.15569080518E+02  0.37338889663E+01 -0.79892557365E+01  0.17893194298E+02  0.00000000000E+00 0.  1.
         11    1    5    5    0    0 -0.61504219337E+02 -0.42512608144E+02  0.11826521074E+03  0.13991694293E+03  0.00000000000E+00 0.  1.
        -11    1    5    5    0    0 -0.22205401409E+02 -0.17060845896E+03  0.27843698664E+03  0.32730334806E+03  0.00000000000E+00 0. -1.
          1    1    6    6  503    0  0.34005652257E+02  0.20009721750E+03 -0.13966369679E+03  0.24637619414E+03  0.00000000000E+00 0. -1.
         -1    1    6    6    0  503  0.90630405410E+02  0.15592174758E+03 -0.60014100631E+02  0.19007144453E+03  0.00000000000E+00 0.  1.
<mgrwt>
<rscale>  0 0.11792231E+04</rscale>
<asrwt>0</asrwt>
<pdfrwt beam="1">  1        2 0.92382536E-01 0.11792231E+04</pdfrwt>
<pdfrwt beam="2">  1       -1 0.89066700E-01 0.11792231E+04</pdfrwt>
<totfact> 0.69194362E+01</totfact>
</mgrwt>
</event>
<event>
12    6  0.1457317E-007  0.1825218E+04  0.7818608E-02  0.8693002E-01
          2   -1    0    0  501    0  0.00000000000E+00  0.00000000000E+00  0.29647295735E+04  0.29647295735E+04  0.00000000000E+00 0. -1.
         -1   -1    0    0    0  501 -0.00000000000E+00 -0.00000000000E+00 -0.28092122338E+03  0.28092122338E+03  0.00000000000E+00 0.  1.
         24    2    1    2    0    0 -0.29790426667E+03 -0.62169986899E+03  0.10086456694E+04  0.12242930321E+04  0.79181201878E+02 0.  0.
        254    2    1    2    0    0  0.29790426667E+03  0.62169986899E+03  0.16751626807E+04  0.20213577648E+04  0.89691667800E+03 0.  0.
         23    2    4    4    0    0 -0.29489446407E+03  0.34537534105E+03  0.81343424194E+03  0.93562872872E+03  0.86481101433E+02 0.  0.
         23    2    4    4    0    0  0.59279873074E+03  0.27632452794E+03  0.86172843874E+03  0.10857290361E+04  0.92011182429E+02 0.  0.
          2    1    3    3  502    0 -0.26312935358E+03 -0.59321056277E+03  0.94539503256E+03  0.11466942034E+04  0.00000000000E+00 0. -1.
         -1    1    3    3    0  502 -0.34774913091E+02 -0.28489306224E+02  0.63250636840E+02  0.77598828666E+02  0.00000000000E+00 0.  1.
         11    1    5    5    0    0 -0.12303997660E+03  0.93295320742E+02  0.22630649047E+03  0.27396620292E+03  0.00000000000E+00 0.  1.
        -11    1    5    5    0    0 -0.17185448746E+03  0.25208002031E+03  0.58712775147E+03  0.66166252580E+03  0.00000000000E+00 0. -1.
          4    1    6    6  503    0  0.35306359635E+03  0.16638627545E+03  0.43844881657E+03  0.58700567330E+03  0.00000000000E+00 0. -1.
         -4    1    6    6    0  503  0.23973513439E+03  0.10993825249E+03  0.42327962216E+03  0.49872336276E+03  0.00000000000E+00 0.  1.
<mgrwt>
<rscale>  0 0.18252183E+04</rscale>
<asrwt>0</asrwt>
<pdfrwt beam="1">  1        2 0.45611222E+00 0.18252183E+04</pdfrwt>
<pdfrwt beam="2">  1       -1 0.43218652E-01 0.18252183E+04</pdfrwt>
<totfact> 0.10410592E+01</totfact>
</mgrwt>
</event>
<event>
12    6  0.1457317E-007  0.1134583E+04  0.7818608E-02  0.9172125E-01
          2   -1    0    0  501    0  0.00000000000E+00  0.00000000000E+00  0.48286054190E+03  0.48286054190E+03  0.00000000000E+00 0. -1.
         -1   -1    0    0    0  501 -0.00000000000E+00 -0.00000000000E+00 -0.66648555706E+03  0.66648555706E+03  0.00000000000E+00 0.  1.
         24    2    1    2    0    0 -0.15998972827E+03 -0.88810357624E+02  0.40948825287E+02  0.20343740118E+03  0.78904861284E+02 0.  0.
        254    2    1    2    0    0  0.15998972827E+03  0.88810357624E+02 -0.22457384045E+03  0.94590869779E+03  0.90045869531E+03 0.  0.
         23    2    4    4    0    0  0.56524018097E+02 -0.30628236915E+03  0.17400470145E+03  0.36858805682E+03  0.92604887715E+02 0.  0.
         23    2    4    4    0    0  0.10346571017E+03  0.39509272678E+03 -0.39857854190E+03  0.57732064097E+03  0.87354750831E+02 0.  0.
          2    1    3    3  502    0 -0.11824444986E+03 -0.98360957840E+02  0.45439208812E+02  0.16037876932E+03  0.00000000000E+00 0. -1.
         -3    1    3    3    0  502 -0.41745278407E+02  0.95506002163E+01 -0.44903835257E+01  0.43058631863E+02  0.00000000000E+00 0.  1.
         11    1    5    5    0    0  0.31220222925E+02 -0.72437447777E+02  0.51551484412E+01  0.79047211940E+02  0.00000000000E+00 0.  1.
        -11    1    5    5    0    0  0.25303795172E+02 -0.23384492137E+03  0.16884955301E+03  0.28954084488E+03  0.00000000000E+00 0. -1.
          3    1    6    6  503    0  0.11089073675E+03  0.33358786032E+03 -0.36539571955E+03  0.50704205734E+03  0.00000000000E+00 0. -1.
         -3    1    6    6    0  503 -0.74250265772E+01  0.61504866451E+02 -0.33182822350E+02  0.70278583622E+02  0.00000000000E+00 0.  1.
<mgrwt>
<rscale>  0 0.11345829E+04</rscale>
<asrwt>0</asrwt>
<pdfrwt beam="1">  1        2 0.74286237E-01 0.11345829E+04</pdfrwt>
<pdfrwt beam="2">  1       -1 0.10253624E+00 0.11345829E+04</pdfrwt>
<totfact> 0.65415974E+01</totfact>
</mgrwt>
</event>
<event>
12    6  0.1457317E-007  0.1136791E+04  0.7818608E-02  0.9170057E-01
          2   -1    0    0  501    0  0.00000000000E+00  0.00000000000E+00  0.28788296065E+04  0.28788296065E+04  0.00000000000E+00 0. -1.
         -1   -1    0    0    0  501 -0.00000000000E+00 -0.00000000000E+00 -0.11222387849E+03  0.11222387849E+03  0.00000000000E+00 0.  1.
         24    2    1    2    0    0 -0.78175119134E+02 -0.12161034072E+03  0.22223278559E+03  0.27708738770E+03  0.80557961799E+02 0.  0.
        254    2    1    2    0    0  0.78175119134E+02  0.12161034072E+03  0.25443729424E+04  0.27139660973E+04  0.93320838127E+03 0.  0.
         23    2    4    4    0    0 -0.28436807900E+03 -0.27025775441E+03  0.10679764552E+04  0.11413647140E+04  0.90748241536E+02 0.  0.
         23    2    4    4    0    0  0.36254319814E+03  0.39186809513E+03  0.14763964872E+04  0.15726013832E+04  0.91270744059E+02 0.  0.
          2    1    3    3  502    0 -0.85382816092E+02 -0.82223504488E+02  0.19651915124E+03  0.22950099516E+03  0.00000000000E+00 0. -1.
         -1    1    3    3    0  502  0.72076969583E+01 -0.39386836229E+02  0.25713634352E+02  0.47586392542E+02  0.00000000000E+00 0.  1.
         11    1    5    5    0    0 -0.24788055662E+03 -0.26927899293E+03  0.96137426774E+03  0.10286867497E+04  0.00000000000E+00 0.  1.
        -11    1    5    5    0    0 -0.36487522384E+02 -0.97876148232E+00  0.10660218750E+03  0.11267796432E+03  0.00000000000E+00 0. -1.
          4    1    6    6  503    0  0.10233100768E+03  0.79931539944E+02  0.46172998148E+03  0.47964076350E+03  0.00000000000E+00 0. -1.
         -4    1    6    6    0  503  0.26021219046E+03  0.31193655518E+03  0.10146665057E+04  0.10929606197E+04  0.00000000000E+00 0.  1.
<mgrwt>
<rscale>  0 0.11367910E+04</rscale>
<asrwt>0</asrwt>
<pdfrwt beam="1">  1        2 0.44289681E+00 0.11367910E+04</pdfrwt>
<pdfrwt beam="2">  1       -1 0.17265214E-01 0.11367910E+04</pdfrwt>
<totfact> 0.61918891E+01</totfact>
</mgrwt>
</event>
<event>
12    6  0.1457317E-007  0.1822944E+04  0.7818608E-02  0.8694192E-01
         -1   -1    0    0    0  501 -0.00000000000E+00  0.00000000000E+00  0.76654624823E+03  0.76654624823E+03  0.00000000000E+00 0.  1.
          2   -1    0    0  501    0  0.00000000000E+00 -0.00000000000E+00 -0.10837984606E+04  0.10837984606E+04  0.00000000000E+00 0. -1.
         24    2    1    2    0    0 -0.42208367693E+03 -0.26417180344E+03  0.36020742736E+03  0.61958037907E+03  0.78670727363E+02 0.  0.
        254    2    1    2    0    0  0.42208367693E+03  0.26417180344E+03 -0.67745963973E+03  0.12307643298E+04  0.89882584513E+03 0.  0.
         23    2    4    4    0    0 -0.10462508804E+03  0.44087925001E+03 -0.27328301264E+03  0.53734113771E+03  0.93439665753E+02 0.  0.
         23    2    4    4    0    0  0.52670876497E+03 -0.17670744658E+03 -0.40417662709E+03  0.69342319205E+03  0.93964528500E+02 0.  0.
          4    1    3    3  502    0 -0.14845700407E+03 -0.88023949818E+02  0.80376370512E+02  0.19038922957E+03  0.00000000000E+00 0. -1.
         -3    1    3    3    0  502 -0.27362667285E+03 -0.17614785362E+03  0.27983105685E+03  0.42919114950E+03  0.00000000000E+00 0.  1.
         11    1    5    5    0    0 -0.67645392392E+02  0.39536568636E+03 -0.25735859029E+03  0.47657462066E+03  0.00000000000E+00 0. -1.
        -11    1    5    5    0    0 -0.36979695649E+02  0.45513563650E+02 -0.15924422349E+02  0.60766517043E+02  0.00000000000E+00 0.  1.
          3    1    6    6  503    0  0.40884937490E+03 -0.94946591423E+02 -0.31064826386E+03  0.52218292812E+03  0.00000000000E+00 0. -1.
         -3    1    6    6    0  503  0.11785939007E+03 -0.81760855153E+02 -0.93528363233E+02  0.17124026393E+03  0.00000000000E+00 0.  1.
<mgrwt>
<rscale>  0 0.18229445E+04</rscale>
<asrwt>0</asrwt>
<pdfrwt beam="1">  1        2 0.16673822E+00 0.18229445E+04</pdfrwt>
<pdfrwt beam="2">  1       -1 0.11793019E+00 0.18229445E+04</pdfrwt>
<totfact> 0.15481905E+01</totfact>
</mgrwt>
</event>
<event>
12    6  0.1457317E-007  0.1371300E+04  0.7818608E-02  0.8974859E-01
          2   -1    0    0  501    0  0.00000000000E+00  0.00000000000E+00  0.28628747612E+04  0.28628747612E+04  0.00000000000E+00 0. -1.
         -3   -1    0    0    0  501 -0.00000000000E+00 -0.00000000000E+00 -0.16421115015E+03  0.16421115015E+03  0.00000000000E+00 0.  1.
         24    2    1    2    0    0  0.37689093367E+03  0.40954241380E+02  0.93990969404E+03  0.10164411459E+04  0.77448979175E+02 0.  0.
        254    2    1    2    0    0 -0.37689093367E+03 -0.40954241380E+02  0.17587539170E+04  0.20106447654E+04  0.89763745823E+03 0.  0.
         23    2    4    4    0    0 -0.52925282173E+03 -0.33088304316E+03  0.10464513014E+04  0.12220134175E+04  0.93082376122E+02 0.  0.
         23    2    4    4    0    0  0.15236188806E+03  0.28992880178E+03  0.71230261559E+03  0.78863134794E+03  0.85390466283E+02 0.  0.
          4    1    3    3  502    0  0.32096694687E+03  0.36372297154E+02  0.86112859705E+03  0.91972016703E+03  0.00000000000E+00 0. -1.
         -3    1    3    3    0  502  0.55923986795E+02  0.45819442260E+01  0.78781096987E+02  0.96720978875E+02  0.00000000000E+00 0.  1.
         11    1    5    5    0    0 -0.28364322144E+03 -0.12466006787E+03  0.48890509804E+03  0.57881068103E+03  0.00000000000E+00 0. -1.
        -11    1    5    5    0    0 -0.24560960029E+03 -0.20622297529E+03  0.55754620337E+03  0.64320273646E+03  0.00000000000E+00 0.  1.
          3    1    6    6  503    0  0.10748189172E+03  0.21850198767E+03  0.60481687152E+03  0.65199610715E+03  0.00000000000E+00 0. -1.
         -3    1    6    6    0  503  0.44879996342E+02  0.71426814117E+02  0.10748574407E+03  0.13663524079E+03  0.00000000000E+00 0.  1.
<mgrwt>
<rscale>  0 0.13713001E+04</rscale>
<asrwt>0</asrwt>
<pdfrwt beam="1">  1        2 0.44044223E+00 0.13713001E+04</pdfrwt>
<pdfrwt beam="2">  1       -3 0.25263256E-01 0.13713001E+04</pdfrwt>
<totfact> 0.20285766E+01</totfact>
</mgrwt>
</event>
<event>
12    6  0.1457317E-007  0.1900077E+04  0.7818608E-02  0.8654818E-01
          2   -1    0    0  501    0  0.00000000000E+00  0.00000000000E+00  0.88867865177E+03  0.88867865177E+03  0.00000000000E+00 0. -1.
         -1   -1    0    0    0  501 -0.00000000000E+00 -0.00000000000E+00 -0.10156346274E+04  0.10156346274E+04  0.00000000000E+00 0.  1.
         24    2    1    2    0    0 -0.32591797700E+03 -0.56547306608E+03 -0.38614909186E+03  0.76211600982E+03  0.75679423149E+02 0.  0.
        254    2    1    2    0    0  0.32591797700E+03  0.56547306608E+03  0.25919311622E+03  0.11421972694E+04  0.90080586944E+03 0.  0.
         23    2    4    4    0    0  0.67348370836E+01  0.73092892523E+03  0.12592942546E+03  0.74772833867E+03  0.94535688935E+02 0.  0.
         23    2    4    4    0    0  0.31918313992E+03 -0.16545585915E+03  0.13326369076E+03  0.39446893068E+03  0.92698478232E+02 0.  0.
          2    1    3    3  502    0 -0.32985933397E+03 -0.56240804154E+03 -0.38237832773E+03  0.75585922692E+03  0.00000000000E+00 0. -1.
         -1    1    3    3    0  502  0.39413569713E+01 -0.30650245426E+01 -0.37707641302E+01  0.62567829072E+01  0.00000000000E+00 0.  1.
         11    1    5    5    0    0  0.26382978280E+02  0.40408621989E+03  0.27765058771E+02  0.40589731846E+03  0.00000000000E+00 0.  1.
        -11    1    5    5    0    0 -0.19648141197E+02  0.32684270534E+03  0.98164366686E+02  0.34183102021E+03  0.00000000000E+00 0. -1.
          3    1    6    6  503    0  0.24521624807E+03 -0.10851635503E+03  0.57507434006E+02  0.27425154985E+03  0.00000000000E+00 0. -1.
         -3    1    6    6    0  503  0.73966891850E+02 -0.56939504112E+02  0.75756256755E+02  0.12021738084E+03  0.00000000000E+00 0.  1.
<mgrwt>
<rscale>  0 0.19000766E+04</rscale>
<asrwt>0</asrwt>
<pdfrwt beam="1">  1        2 0.13671979E+00 0.19000766E+04</pdfrwt>
<pdfrwt beam="2">  1       -1 0.15625148E+00 0.19000766E+04</pdfrwt>
<totfact> 0.99564400E+00</totfact>
</mgrwt>
</event>
<event>
12    6  0.1457317E-007  0.2157694E+04  0.7818608E-02  0.8536246E-01
         -1   -1    0    0    0  501 -0.00000000000E+00  0.00000000000E+00  0.44160264611E+03  0.44160264611E+03  0.00000000000E+00 0.  1.
          2   -1    0    0  501    0  0.00000000000E+00 -0.00000000000E+00 -0.26356517341E+04  0.26356517341E+04  0.00000000000E+00 0. -1.
         24    2    1    2    0    0 -0.43163882049E+03  0.67931378940E+03 -0.34064793586E+03  0.87766466246E+03  0.80467059818E+02 0.  0.
        254    2    1    2    0    0  0.43163882049E+03 -0.67931378940E+03 -0.18534011522E+04  0.21995897178E+04  0.86909136451E+03 0.  0.
         23    2    4    4    0    0  0.62053342680E+03 -0.20363109828E+03 -0.93506726220E+03  0.11441473979E+04  0.90526931898E+02 0.  0.
         23    2    4    4    0    0 -0.18889460631E+03 -0.47568269112E+03 -0.91833388996E+03  0.10554423198E+04  0.93092223797E+02 0.  0.
          4    1    3    3  502    0 -0.39400721914E+03  0.65348847476E+03 -0.31759386989E+03  0.82653175473E+03  0.00000000000E+00 0. -1.
         -3    1    3    3    0  502 -0.37631601347E+02  0.25825314637E+02 -0.23054065964E+02  0.51132907736E+02  0.00000000000E+00 0.  1.
         11    1    5    5    0    0  0.46296991892E+03 -0.11735315234E+03 -0.71870309289E+03  0.86292933889E+03  0.00000000000E+00 0.  1.
        -11    1    5    5    0    0  0.15756350788E+03 -0.86277945939E+02 -0.21636416931E+03  0.28121805904E+03  0.00000000000E+00 0. -1.
          1    1    6    6  503    0  0.95297489882E+01 -0.16764105464E+02 -0.47848679827E+02  0.51588249718E+02  0.00000000000E+00 0. -1.
         -1    1    6    6    0  503 -0.19842435530E+03 -0.45891858566E+03 -0.87048521013E+03  0.10038540701E+04  0.00000000000E+00 0.  1.
<mgrwt>
<rscale>  0 0.21576939E+04</rscale>
<asrwt>0</asrwt>
<pdfrwt beam="1">  1        2 0.40548488E+00 0.21576939E+04</pdfrwt>
<pdfrwt beam="2">  1       -1 0.67938869E-01 0.21576939E+04</pdfrwt>
<totfact> 0.66417916E+00</totfact>
</mgrwt>
</event>
<event>
12    6  0.1457317E-007  0.1395238E+04  0.7818608E-02  0.8957272E-01
         -1   -1    0    0    0  501 -0.00000000000E+00  0.00000000000E+00  0.21381652858E+03  0.21381652858E+03  0.00000000000E+00 0.  1.
          2   -1    0    0  501    0  0.00000000000E+00 -0.00000000000E+00 -0.22761224814E+04  0.22761224814E+04  0.00000000000E+00 0. -1.
         24    2    1    2    0    0 -0.24113842204E+03  0.29634476587E+03 -0.94662385534E+03  0.10239261191E+04  0.79749702013E+02 0.  0.
        254    2    1    2    0    0  0.24113842204E+03 -0.29634476587E+03 -0.11156820975E+04  0.14660128909E+04  0.87090716773E+03 0.  0.
         23    2    4    4    0    0 -0.19935653052E+03 -0.22634431113E+02 -0.84914096784E+03  0.87720575910E+03  0.90521913354E+02 0.  0.
         23    2    4    4    0    0  0.44049495257E+03 -0.27371033476E+03 -0.26654112962E+03  0.58880713179E+03  0.81832231256E+02 0.  0.
          2    1    3    3  502    0 -0.16349642869E+03  0.19217156861E+03 -0.71693429486E+03  0.76003669460E+03  0.00000000000E+00 0. -1.
         -1    1    3    3    0  502 -0.77641993349E+02  0.10417319726E+03 -0.22968956048E+03  0.26388942448E+03  0.00000000000E+00 0.  1.
         11    1    5    5    0    0 -0.67929740132E+02  0.26753385959E+02 -0.19627135587E+03  0.20941021558E+03  0.00000000000E+00 0.  1.
        -11    1    5    5    0    0 -0.13142679039E+03 -0.49387817072E+02 -0.65286961198E+03  0.66779554352E+03  0.00000000000E+00 0. -1.
          2    1    6    6  503    0  0.28466620349E+03 -0.17171175864E+03 -0.12613926274E+03  0.35557121519E+03  0.00000000000E+00 0. -1.
         -2    1    6    6    0  503  0.15582874908E+03 -0.10199857612E+03 -0.14040186688E+03  0.23323591660E+03  0.00000000000E+00 0.  1.
<mgrwt>
<rscale>  0 0.13952385E+04</rscale>
<asrwt>0</asrwt>
<pdfrwt beam="1">  1        2 0.35017270E+00 0.13952385E+04</pdfrwt>
<pdfrwt beam="2">  1       -1 0.32894850E-01 0.13952385E+04</pdfrwt>
<totfact> 0.45059728E+01</totfact>
</mgrwt>
</event>
<event>
12    6  0.1457317E-007  0.1344301E+04  0.7818608E-02  0.8995153E-01
         -1   -1    0    0    0  501 -0.00000000000E+00  0.00000000000E+00  0.13738941951E+03  0.13738941951E+03  0.00000000000E+00 0.  1.
          2   -1    0    0  501    0  0.00000000000E+00 -0.00000000000E+00 -0.32883639242E+04  0.32883639242E+04  0.00000000000E+00 0. -1.
         24    2    1    2    0    0  0.24996260595E+03  0.21385527375E+03 -0.37321237164E+03  0.50387183409E+03  0.79899739455E+02 0.  0.
        254    2    1    2    0    0 -0.24996260595E+03 -0.21385527375E+03 -0.27777621331E+04  0.29218815097E+04  0.84451980792E+03 0.  0.
         23    2    4    4    0    0  0.26223358906E+03  0.69838399316E+02 -0.58778259033E+03  0.65306782440E+03  0.85821631967E+02 0.  0.
         23    2    4    4    0    0 -0.51219619501E+03 -0.28369367306E+03 -0.21899795428E+04  0.22688136853E+04  0.93156311646E+02 0.  0.
          4    1    3    3  502    0  0.13345007847E+02  0.46679611799E+02 -0.46852431659E+02  0.67470184115E+02  0.00000000000E+00 0. -1.
         -3    1    3    3    0  502  0.23661759810E+03  0.16717566195E+03 -0.32635993998E+03  0.43640164998E+03  0.00000000000E+00 0.  1.
         11    1    5    5    0    0  0.95037205205E+02  0.13636586940E+02 -0.30526175366E+03  0.32000432048E+03  0.00000000000E+00 0. -1.
        -11    1    5    5    0    0  0.16719638386E+03  0.56201812376E+02 -0.28252083667E+03  0.33306350392E+03  0.00000000000E+00 0.  1.
          3    1    6    6  503    0 -0.99026456207E+02 -0.25069231056E+02 -0.47806010053E+03  0.48885188461E+03  0.00000000000E+00 0. -1.
         -3    1    6    6    0  503 -0.41316973881E+03 -0.25862444201E+03 -0.17119194422E+04  0.17799618006E+04  0.00000000000E+00 0.  1.
<mgrwt>
<rscale>  0 0.13443012E+04</rscale>
<asrwt>0</asrwt>
<pdfrwt beam="1">  1        2 0.50590217E+00 0.13443012E+04</pdfrwt>
<pdfrwt beam="2">  1       -1 0.21136833E-01 0.13443012E+04</pdfrwt>
<totfact> 0.23878338E+01</totfact>
</mgrwt>
</event>
<event>
12    6  0.1457317E-007  0.1703550E+04  0.7818608E-02  0.8759342E-01
         -1   -1    0    0    0  501 -0.00000000000E+00  0.00000000000E+00  0.54620816913E+03  0.54620816913E+03  0.00000000000E+00 0.  1.
          2   -1    0    0  501    0  0.00000000000E+00 -0.00000000000E+00 -0.13282853421E+04  0.13282853421E+04  0.00000000000E+00 0. -1.
         24    2    1    2    0    0 -0.32308044853E+03  0.72361713799E+02  0.27802426826E+03  0.43986059711E+03  0.81010229585E+02 0.  0.
        254    2    1    2    0    0  0.32308044853E+03 -0.72361713799E+02 -0.10601014413E+04  0.14346329141E+04  0.90815160561E+03 0.  0.
         23    2    4    4    0    0  0.19018802546E+03 -0.24005741156E+03 -0.11435421136E+04  0.11872692836E+04  0.90115150021E+02 0.  0.
         23    2    4    4    0    0  0.13289242307E+03  0.16769569777E+03  0.83440672349E+02  0.24736363058E+03  0.91892201897E+02 0.  0.
          4    1    3    3  502    0 -0.19837057480E+03  0.45410624005E+01  0.17340295718E+03  0.26351487957E+03  0.00000000000E+00 0. -1.
         -3    1    3    3    0  502 -0.12470987373E+03  0.67820651398E+02  0.10462131108E+03  0.17634571754E+03  0.00000000000E+00 0.  1.
         11    1    5    5    0    0  0.16984707016E+03 -0.21295047659E+03 -0.87023245258E+03  0.91186646734E+03  0.00000000000E+00 0. -1.
        -11    1    5    5    0    0  0.20340955299E+02 -0.27106934974E+02 -0.27330966102E+03  0.27540281624E+03  0.00000000000E+00 0.  1.
          2    1    6    6  503    0  0.81826363886E+02  0.13768957112E+03  0.96113972739E+02  0.18679364973E+03  0.00000000000E+00 0. -1.
         -2    1    6    6    0  503  0.51066059189E+02  0.30006126646E+02 -0.12673300390E+02  0.60569980850E+02  0.00000000000E+00 0.  1.
<mgrwt>
<rscale>  0 0.17035496E+04</rscale>
<asrwt>0</asrwt>
<pdfrwt beam="1">  1        2 0.20435159E+00 0.17035496E+04</pdfrwt>
<pdfrwt beam="2">  1       -1 0.84032027E-01 0.17035496E+04</pdfrwt>
<totfact> 0.24225192E+01</totfact>
</mgrwt>
</event>
<event>
12    6  0.1457317E-007  0.1965049E+04  0.7818608E-02  0.8623138E-01
         -1   -1    0    0    0  501 -0.00000000000E+00  0.00000000000E+00  0.59861892530E+03  0.59861892530E+03  0.00000000000E+00 0.  1.
          2   -1    0    0  501    0  0.00000000000E+00 -0.00000000000E+00 -0.16126361805E+04  0.16126361805E+04  0.00000000000E+00 0. -1.
         24    2    1    2    0    0 -0.68183632632E+03  0.18054688333E+03 -0.77693076355E+03  0.10545622435E+04  0.10479580653E+03 0.  0.
        254    2    1    2    0    0  0.68183632632E+03 -0.18054688333E+03 -0.23708649160E+03  0.11566928623E+04  0.88556785181E+03 0.  0.
         23    2    4    4    0    0 -0.92150263771E+02 -0.25595684126E+00  0.20543447293E+03  0.24259268826E+03  0.90311422876E+02 0.  0.
         23    2    4    4    0    0  0.77398659009E+03 -0.18029092649E+03 -0.44252096453E+03  0.91410017401E+03  0.90522175580E+02 0.  0.
          4    1    3    3  502    0 -0.54429075017E+03  0.11047234964E+03 -0.64794987937E+03  0.85340237106E+03  0.00000000000E+00 0. -1.
         -3    1    3    3    0  502 -0.13754557615E+03  0.70074533692E+02 -0.12898088418E+03  0.20115987242E+03  0.00000000000E+00 0.  1.
         11    1    5    5    0    0  0.73912311067E+01  0.20250066453E+02  0.70140879816E+02  0.73378733363E+02  0.00000000000E+00 0.  1.
        -11    1    5    5    0    0 -0.99541494878E+02 -0.20506023295E+02  0.13529359311E+03  0.16921395490E+03  0.00000000000E+00 0. -1.
          3    1    6    6  503    0  0.66679672769E+03 -0.16442790906E+03 -0.34608516744E+03  0.76904444374E+03  0.00000000000E+00 0. -1.
         -3    1    6    6    0  503  0.10718986240E+03 -0.15863017434E+02 -0.96435797090E+02  0.14505573027E+03  0.00000000000E+00 0.  1.
<mgrwt>
<rscale>  0 0.19650491E+04</rscale>
<asrwt>0</asrwt>
<pdfrwt beam="1">  1        2 0.24809787E+00 0.19650491E+04</pdfrwt>
<pdfrwt beam="2">  1       -1 0.92095220E-01 0.19650491E+04</pdfrwt>
<totfact> 0.13365696E+01</totfact>
</mgrwt>
</event>
<event>
12    6  0.1457317E-007  0.2287611E+04  0.7818608E-02  0.8482822E-01
         -1   -1    0    0    0  501 -0.00000000000E+00  0.00000000000E+00  0.47942765822E+03  0.47942765822E+03  0.00000000000E+00 0.  1.
          2   -1    0    0  501    0  0.00000000000E+00 -0.00000000000E+00 -0.27288612502E+04  0.27288612502E+04  0.00000000000E+00 0. -1.
         24    2    1    2    0    0  0.95970942633E+03 -0.12689174019E+03 -0.92260335108E+03  0.13396708401E+04  0.79858121936E+02 0.  0.
        254    2    1    2    0    0 -0.95970942633E+03  0.12689174019E+03 -0.13268302409E+04  0.18686180683E+04  0.89112922767E+03 0.  0.
         23    2    4    4    0    0  0.60012352826E+02  0.20659362096E+03 -0.66452243436E+02  0.24284547949E+03  0.90970432218E+02 0.  0.
         23    2    4    4    0    0 -0.10197217792E+04 -0.79701880777E+02 -0.12603779974E+04  0.16257725888E+04  0.91645607893E+02 0.  0.
          2    1    3    3  502    0  0.68809105082E+03 -0.11715407261E+03 -0.69752615717E+03  0.98678118693E+03  0.00000000000E+00 0. -1.
         -1    1    3    3    0  502  0.27161837551E+03 -0.97376675757E+01 -0.22507719391E+03  0.35288965315E+03  0.00000000000E+00 0.  1.
         11    1    5    5    0    0  0.12407916561E+02  0.30823388855E+02 -0.49956312017E+02  0.59997256639E+02  0.00000000000E+00 0. -1.
        -11    1    5    5    0    0  0.47604436265E+02  0.17577023211E+03 -0.16495931419E+02  0.18284822285E+03  0.00000000000E+00 0.  1.
          3    1    6    6  503    0 -0.20788098400E+03  0.20471248173E+02 -0.25027837143E+03  0.32599515137E+03  0.00000000000E+00 0. -1.
         -3    1    6    6    0  503 -0.81184079516E+03 -0.10017312895E+03 -0.10100996260E+04  0.12997774374E+04  0.00000000000E+00 0.  1.
<mgrwt>
<rscale>  0 0.22876115E+04</rscale>
<asrwt>0</asrwt>
<pdfrwt beam="1">  1        2 0.41982480E+00 0.22876115E+04</pdfrwt>
<pdfrwt beam="2">  1       -1 0.73758102E-01 0.22876115E+04</pdfrwt>
<totfact> 0.48800632E+00</totfact>
</mgrwt>
</event>
<event>
12    6  0.1457317E-007  0.2317725E+04  0.7818608E-02  0.8470965E-01
          2   -1    0    0  501    0  0.00000000000E+00  0.00000000000E+00  0.12652967663E+04  0.12652967663E+04  0.00000000000E+00 0. -1.
         -1   -1    0    0    0  501 -0.00000000000E+00 -0.00000000000E+00 -0.10613816115E+04  0.10613816115E+04  0.00000000000E+00 0.  1.
         24    2    1    2    0    0  0.77045334186E+03 -0.12928872571E+03  0.66211921193E+03  0.10271006648E+04  0.78866965403E+02 0.  0.
        254    2    1    2    0    0 -0.77045334186E+03  0.12928872571E+03 -0.45820405706E+03  0.12995777130E+04  0.93200716071E+03 0.  0.
         23    2    4    4    0    0  0.41476658909E+02  0.23565542996E+03  0.13078323755E+03  0.28720047355E+03  0.90144671954E+02 0.  0.
         23    2    4    4    0    0 -0.81193000077E+03 -0.10636670425E+03 -0.58898729461E+03  0.10123772394E+04  0.86356469362E+02 0.  0.
          2    1    3    3  502    0  0.76301662529E+03 -0.12143248273E+03  0.64320916207E+03  0.10053149976E+04  0.00000000000E+00 0. -1.
         -1    1    3    3    0  502  0.74367165699E+01 -0.78562429760E+01  0.18910049865E+02  0.21785667144E+02  0.00000000000E+00 0.  1.
         11    1    5    5    0    0 -0.23336797205E+02  0.23208870844E+02  0.24112996485E+02  0.40800666528E+02  0.00000000000E+00 0.  1.
        -11    1    5    5    0    0  0.64813456114E+02  0.21244655911E+03  0.10667024106E+03  0.24639980702E+03  0.00000000000E+00 0. -1.
          3    1    6    6  503    0 -0.45470686956E+03 -0.99614014493E+02 -0.31351839208E+03  0.56122639931E+03  0.00000000000E+00 0. -1.
         -3    1    6    6    0  503 -0.35722313121E+03 -0.67526897590E+01 -0.27546890253E+03  0.45115084013E+03  0.00000000000E+00 0.  1.
<mgrwt>
<rscale>  0 0.23177254E+04</rscale>
<asrwt>0</asrwt>
<pdfrwt beam="1">  1        2 0.19466104E+00 0.23177254E+04</pdfrwt>
<pdfrwt beam="2">  1       -1 0.16328948E+00 0.23177254E+04</pdfrwt>
<totfact> 0.49338245E+00</totfact>
</mgrwt>
</event>
<event>
12    6  0.1457317E-007  0.1404560E+04  0.7818608E-02  0.8950524E-01
         -1   -1    0    0    0  501 -0.00000000000E+00  0.00000000000E+00  0.70195485205E+03  0.70195485205E+03  0.00000000000E+00 0.  1.
          2   -1    0    0  501    0  0.00000000000E+00 -0.00000000000E+00 -0.70260518734E+03  0.70260518734E+03  0.00000000000E+00 0. -1.
         24    2    1    2    0    0  0.23247015142E+03 -0.18575472080E+02 -0.34594664856E+03  0.42501425019E+03  0.81059297726E+02 0.  0.
        254    2    1    2    0    0 -0.23247015142E+03  0.18575472080E+02  0.34529631326E+03  0.97954578921E+03  0.88650605736E+03 0.  0.
         23    2    4    4    0    0 -0.40283143544E+03 -0.14077425852E+02  0.55557118026E+03  0.69208215290E+03  0.88583467604E+02 0.  0.
         23    2    4    4    0    0  0.17036128402E+03  0.32652897932E+02 -0.21027486700E+03  0.28746363631E+03  0.91272359842E+02 0.  0.
          2    1    3    3  502    0  0.12778916813E+03 -0.35668303924E+02 -0.24485097763E+03  0.27848572790E+03  0.00000000000E+00 0. -1.
         -1    1    3    3    0  502  0.10468098330E+03  0.17092831845E+02 -0.10109567093E+03  0.14652852229E+03  0.00000000000E+00 0.  1.
         11    1    5    5    0    0 -0.16066121991E+03 -0.32961210192E+02  0.16875892324E+03  0.23532539840E+03  0.00000000000E+00 0.  1.
        -11    1    5    5    0    0 -0.24217021554E+03  0.18883784340E+02  0.38681225702E+03  0.45675675450E+03  0.00000000000E+00 0. -1.
          2    1    6    6  503    0  0.17389479095E+03  0.11750005496E+02 -0.19356415349E+03  0.26046984944E+03  0.00000000000E+00 0. -1.
         -2    1    6    6    0  503 -0.35335069365E+01  0.20902892436E+02 -0.16710713506E+02  0.26993786865E+02  0.00000000000E+00 0.  1.
<mgrwt>
<rscale>  0 0.14045599E+04</rscale>
<asrwt>0</asrwt>
<pdfrwt beam="1">  1        2 0.10809311E+00 0.14045599E+04</pdfrwt>
<pdfrwt beam="2">  1       -1 0.10799305E+00 0.14045599E+04</pdfrwt>
<totfact> 0.36140224E+01</totfact>
</mgrwt>
</event>
<event>
12    6  0.1457317E-007  0.1824548E+04  0.7818608E-02  0.8693353E-01
         -1   -1    0    0    0  501 -0.00000000000E+00  0.00000000000E+00  0.68243371468E+03  0.68243371468E+03  0.00000000000E+00 0.  1.
          2   -1    0    0  501    0  0.00000000000E+00 -0.00000000000E+00 -0.12195236783E+04  0.12195236783E+04  0.00000000000E+00 0. -1.
         24    2    1    2    0    0 -0.44057619876E+03  0.43336824274E+03  0.11201407511E+03  0.63304710017E+03  0.79284659791E+02 0.  0.
        254    2    1    2    0    0  0.44057619876E+03 -0.43336824274E+03 -0.64910403877E+03  0.12689102928E+04  0.89826602820E+03 0.  0.
         23    2    4    4    0    0  0.28102778537E+03 -0.69262732031E+03 -0.55962349928E+03  0.93824052544E+03  0.91692974806E+02 0.  0.
         23    2    4    4    0    0  0.15954841339E+03  0.25925907757E+03 -0.89480539490E+02  0.33066976741E+03  0.93084706681E+02 0.  0.
          4    1    3    3  502    0 -0.39786848252E+03  0.40818707485E+03  0.84199820946E+02  0.57619929478E+03  0.00000000000E+00 0. -1.
         -1    1    3    3    0  502 -0.42707716241E+02  0.25181167892E+02  0.27814254163E+02  0.56847805389E+02  0.00000000000E+00 0.  1.
         11    1    5    5    0    0  0.23808785807E+03 -0.47960960930E+03 -0.41026949130E+03  0.67456079117E+03  0.00000000000E+00 0. -1.
        -11    1    5    5    0    0  0.42939927296E+02 -0.21301771101E+03 -0.14935400798E+03  0.26367973426E+03  0.00000000000E+00 0.  1.
          1    1    6    6  503    0  0.29519056129E+02  0.11861309035E+03 -0.79284909837E+01  0.12248796205E+03  0.00000000000E+00 0. -1.
         -1    1    6    6    0  503  0.13002935726E+03  0.14064598722E+03 -0.81552048506E+02  0.20818180536E+03  0.00000000000E+00 0.  1.
<mgrwt>
<rscale>  0 0.18245482E+04</rscale>
<asrwt>0</asrwt>
<pdfrwt beam="1">  1        2 0.18761903E+00 0.18245482E+04</pdfrwt>
<pdfrwt beam="2">  1       -1 0.10498980E+00 0.18245482E+04</pdfrwt>
<totfact> 0.16870547E+01</totfact>
</mgrwt>
</event>
<event>
12    6  0.1457317E-007  0.1546814E+04  0.7818608E-02  0.8853905E-01
          2   -1    0    0  501    0  0.00000000000E+00  0.00000000000E+00  0.17253039195E+04  0.17253039195E+04  0.00000000000E+00 0. -1.
         -1   -1    0    0    0  501 -0.00000000000E+00 -0.00000000000E+00 -0.34669744785E+03  0.34669744785E+03  0.00000000000E+00 0.  1.
         24    2    1    2    0    0  0.16570031499E+03 -0.33208378553E+03  0.90931008999E+03  0.98535089771E+03  0.79594703749E+02 0.  0.
        254    2    1    2    0    0 -0.16570031499E+03  0.33208378553E+03  0.46929638166E+03  0.10866504696E+04  0.90710193161E+03 0.  0.
         23    2    4    4    0    0  0.34114655409E+03 -0.23872609500E+02  0.19084921455E+03  0.40155611611E+03  0.88730033457E+02 0.  0.
         23    2    4    4    0    0 -0.50684686908E+03  0.35595639503E+03  0.27844716711E+03  0.68509435354E+03  0.90679350011E+02 0.  0.
          2    1    3    3  502    0  0.10595617619E+03 -0.23492035846E+03  0.71513787650E+03  0.76015555546E+03  0.00000000000E+00 0. -1.
         -1    1    3    3    0  502  0.59744138797E+02 -0.97163427067E+02  0.19417221349E+03  0.22519534225E+03  0.00000000000E+00 0.  1.
         11    1    5    5    0    0  0.35672257628E+02 -0.31140754742E+02  0.32207603961E+02  0.57267672583E+02  0.00000000000E+00 0.  1.
        -11    1    5    5    0    0  0.30547429646E+03  0.72681452425E+01  0.15864161059E+03  0.34428844352E+03  0.00000000000E+00 0. -1.
          1    1    6    6  503    0 -0.37293559051E+03  0.23608180827E+03  0.23562816985E+03  0.50033609633E+03  0.00000000000E+00 0. -1.
         -1    1    6    6    0  503 -0.13391127857E+03  0.11987458676E+03  0.42818997258E+02  0.18475825720E+03  0.00000000000E+00 0.  1.
<mgrwt>
<rscale>  0 0.15468141E+04</rscale>
<asrwt>0</asrwt>
<pdfrwt beam="1">  1        2 0.26543137E+00 0.15468141E+04</pdfrwt>
<pdfrwt beam="2">  1       -1 0.53338070E-01 0.15468141E+04</pdfrwt>
<totfact> 0.36921858E+01</totfact>
</mgrwt>
</event>
<event>
12    6  0.1457317E-007  0.1313949E+04  0.7818608E-02  0.9018576E-01
         -1   -1    0    0    0  501 -0.00000000000E+00  0.00000000000E+00  0.24179521776E+03  0.24179521776E+03  0.00000000000E+00 0.  1.
          2   -1    0    0  501    0  0.00000000000E+00 -0.00000000000E+00 -0.17850461548E+04  0.17850461548E+04  0.00000000000E+00 0. -1.
         24    2    1    2    0    0  0.98863423241E+02 -0.14122790886E+03  0.44767537009E+02  0.19466433288E+03  0.78554257859E+02 0.  0.
        254    2    1    2    0    0 -0.98863423241E+02  0.14122790886E+03 -0.15880184741E+04  0.18321770397E+04  0.89741335633E+03 0.  0.
         23    2    4    4    0    0  0.16021986261E+03 -0.30930322818E+03 -0.43738766826E+03  0.56644473345E+03  0.90624347506E+02 0.  0.
         23    2    4    4    0    0 -0.25908328585E+03  0.45053113705E+03 -0.11506308058E+04  0.12657323063E+04  0.89579938384E+02 0.  0.
          4    1    3    3  502    0  0.39257905253E+02 -0.38223268827E+02 -0.21017137007E+02  0.58684933779E+02  0.00000000000E+00 0. -1.
         -3    1    3    3    0  502  0.59605517988E+02 -0.10300464004E+03  0.65784674016E+02  0.13597939910E+03  0.00000000000E+00 0.  1.
         11    1    5    5    0    0 -0.23201305226E+01 -0.73295567379E+02 -0.85890634400E+02  0.11293725816E+03  0.00000000000E+00 0. -1.
        -11    1    5    5    0    0  0.16253999314E+03 -0.23600766081E+03 -0.35149703386E+03  0.45350747529E+03  0.00000000000E+00 0.  1.
          1    1    6    6  503    0 -0.64449847896E+02  0.16261777698E+03 -0.30724383724E+03  0.35354928907E+03  0.00000000000E+00 0. -1.
         -1    1    6    6    0  503 -0.19463343796E+03  0.28791336007E+03 -0.84338696858E+03  0.91218301719E+03  0.00000000000E+00 0.  1.
<mgrwt>
<rscale>  0 0.13139492E+04</rscale>
<asrwt>0</asrwt>
<pdfrwt beam="1">  1        2 0.27462248E+00 0.13139492E+04</pdfrwt>
<pdfrwt beam="2">  1       -1 0.37199265E-01 0.13139492E+04</pdfrwt>
<totfact> 0.68219627E+01</totfact>
</mgrwt>
</event>
<event>
12    6  0.1457317E-007  0.1385760E+04  0.7818608E-02  0.8964191E-01
         -1   -1    0    0    0  501 -0.00000000000E+00  0.00000000000E+00  0.18277033546E+03  0.18277033546E+03  0.00000000000E+00 0.  1.
          2   -1    0    0  501    0  0.00000000000E+00 -0.00000000000E+00 -0.26266989951E+04  0.26266989951E+04  0.00000000000E+00 0. -1.
         24    2    1    2    0    0  0.18018607334E+03 -0.70468339407E+02 -0.14178891318E+04  0.14333799241E+04  0.82070754497E+02 0.  0.
        254    2    1    2    0    0 -0.18018607334E+03  0.70468339407E+02 -0.10260395279E+04  0.13760894065E+04  0.89634375890E+03 0.  0.
         23    2    4    4    0    0  0.26729662869E+03 -0.18994301190E+03 -0.19435549708E+03  0.39215992408E+03  0.92138544244E+02 0.  0.
         23    2    4    4    0    0 -0.44748270202E+03  0.26041135131E+03 -0.83168403077E+03  0.98392948243E+03  0.91455228674E+02 0.  0.
          2    1    3    3  502    0  0.15243205713E+03 -0.81646293245E+02 -0.13119437379E+04  0.13232906033E+04  0.00000000000E+00 0. -1.
         -1    1    3    3    0  502  0.27754016204E+02  0.11177953837E+02 -0.10594539388E+03  0.11008932079E+03  0.00000000000E+00 0.  1.
         11    1    5    5    0    0  0.24095449699E+03 -0.17105922595E+03 -0.20312782666E+03  0.35858226722E+03  0.00000000000E+00 0.  1.
        -11    1    5    5    0    0  0.26342131696E+02 -0.18883785945E+02  0.87723295802E+01  0.33577656860E+02  0.00000000000E+00 0. -1.
          4    1    6    6  503    0 -0.24211707811E+03  0.14268759708E+03 -0.53558616254E+03  0.60484127453E+03  0.00000000000E+00 0. -1.
         -4    1    6    6    0  503 -0.20536562392E+03  0.11772375423E+03 -0.29609786824E+03  0.37908820790E+03  0.00000000000E+00 0.  1.
<mgrwt>
<rscale>  0 0.13857599E+04</rscale>
<asrwt>0</asrwt>
<pdfrwt beam="1">  1        2 0.40410751E+00 0.13857599E+04</pdfrwt>
<pdfrwt beam="2">  1       -1 0.28118515E-01 0.13857599E+04</pdfrwt>
<totfact> 0.37408998E+01</totfact>
</mgrwt>
</event>
<event>
12    6  0.1457317E-007  0.1481188E+04  0.7818608E-02  0.8897060E-01
         -1   -1    0    0    0  501 -0.00000000000E+00  0.00000000000E+00  0.97363765326E+03  0.97363765326E+03  0.00000000000E+00 0.  1.
          2   -1    0    0  501    0  0.00000000000E+00 -0.00000000000E+00 -0.56333024730E+03  0.56333024730E+03  0.00000000000E+00 0. -1.
         24    2    1    2    0    0 -0.46141765543E+03 -0.58784263068E+02  0.17684871811E+03  0.50403519059E+03  0.80088463176E+02 0.  0.
        254    2    1    2    0    0  0.46141765543E+03  0.58784263068E+02  0.23345868785E+03  0.10329327100E+04  0.89223605738E+03 0.  0.
         23    2    4    4    0    0  0.52512865198E+03 -0.31308618582E+03  0.13063229875E+03  0.63184628603E+03  0.91552557636E+02 0.  0.
         23    2    4    4    0    0 -0.63710996559E+02  0.37187044889E+03  0.10282638910E+03  0.40108642395E+03  0.89164630546E+02 0.  0.
          4    1    3    3  502    0 -0.16482638469E+03 -0.31186323976E+02  0.24715729490E+02  0.16956176213E+03  0.00000000000E+00 0. -1.
         -3    1    3    3    0  502 -0.29659127074E+03 -0.27597939092E+02  0.15213298862E+03  0.33447342846E+03  0.00000000000E+00 0.  1.
         11    1    5    5    0    0  0.62505213458E+02 -0.74065172724E+01  0.22949361508E+02  0.66995756591E+02  0.00000000000E+00 0. -1.
        -11    1    5    5    0    0  0.46262343853E+03 -0.30567966855E+03  0.10768293724E+03  0.56485052944E+03  0.00000000000E+00 0.  1.
          2    1    6    6  503    0 -0.67894909013E+02  0.15519405296E+03  0.27272846362E+02  0.17157715726E+03  0.00000000000E+00 0. -1.
         -2    1    6    6    0  503  0.41839124536E+01  0.21667639593E+03  0.75553542743E+02  0.22950926669E+03  0.00000000000E+00 0.  1.
<mgrwt>
<rscale>  0 0.14811881E+04</rscale>
<asrwt>0</asrwt>
<pdfrwt beam="1">  1        2 0.86666192E-01 0.14811881E+04</pdfrwt>
<pdfrwt beam="2">  1       -1 0.14979041E+00 0.14811881E+04</pdfrwt>
<totfact> 0.20722719E+01</totfact>
</mgrwt>
</event>
<event>
12    6  0.1457317E-007  0.2094052E+04  0.7818608E-02  0.8563868E-01
         -1   -1    0    0    0  501 -0.00000000000E+00  0.00000000000E+00  0.11241508519E+04  0.11241508519E+04  0.00000000000E+00 0.  1.
          2   -1    0    0  501    0  0.00000000000E+00 -0.00000000000E+00 -0.97519257200E+03  0.97519257200E+03  0.00000000000E+00 0. -1.
         24    2    1    2    0    0  0.50133920852E+03  0.35063259310E+02  0.74952317340E+03  0.90595650165E+03  0.80011007082E+02 0.  0.
        254    2    1    2    0    0 -0.50133920852E+03 -0.35063259310E+02 -0.60056489348E+03  0.11933869223E+04  0.90051303201E+03 0.  0.
         23    2    4    4    0    0 -0.58047160058E+03  0.13667066545E+03 -0.51367877942E+02  0.60535993243E+03  0.90530873388E+02 0.  0.
         23    2    4    4    0    0  0.79132392058E+02 -0.17173392476E+03 -0.54919701554E+03  0.58802698984E+03  0.91672801416E+02 0.  0.
          2    1    3    3  502    0  0.21346987475E+03 -0.46817799495E+01  0.37970401399E+03  0.43562190570E+03  0.00000000000E+00 0. -1.
         -1    1    3    3    0  502  0.28786933377E+03  0.39745039260E+02  0.36981915942E+03  0.47033459595E+03  0.00000000000E+00 0.  1.
         11    1    5    5    0    0 -0.52192111339E+03  0.11173900350E+03 -0.19295067056E+02  0.53409695105E+03  0.00000000000E+00 0. -1.
        -11    1    5    5    0    0 -0.58550487187E+02  0.24931661949E+02 -0.32072810886E+02  0.71262981383E+02  0.00000000000E+00 0.  1.
          2    1    6    6  503    0  0.35829810036E+02 -0.26487374889E+02 -0.23496485710E+03  0.23915233720E+03  0.00000000000E+00 0.  1.
         -2    1    6    6    0  503  0.43302582022E+02 -0.14524654987E+03 -0.31423215844E+03  0.34887465264E+03  0.00000000000E+00 0. -1.
<mgrwt>
<rscale>  0 0.20940521E+04</rscale>
<asrwt>0</asrwt>
<pdfrwt beam="1">  1        2 0.15002963E+00 0.20940521E+04</pdfrwt>
<pdfrwt beam="2">  1       -1 0.17294628E+00 0.20940521E+04</pdfrwt>
<totfact> 0.64357402E+00</totfact>
</mgrwt>
</event>
<event>
12    6  0.1457317E-007  0.1585919E+04  0.7818608E-02  0.8829245E-01
         -3   -1    0    0    0  501 -0.00000000000E+00  0.00000000000E+00  0.26558183161E+03  0.26558183161E+03  0.00000000000E+00 0.  1.
          4   -1    0    0  501    0  0.00000000000E+00 -0.00000000000E+00 -0.23675752786E+04  0.23675752786E+04  0.00000000000E+00 0. -1.
         24    2    1    2    0    0  0.26572611250E+03 -0.20423202138E+03 -0.14065141558E+04  0.14481133715E+04  0.80182173830E+02 0.  0.
        254    2    1    2    0    0 -0.26572611250E+03  0.20423202138E+03 -0.69547929121E+03  0.11850437387E+04  0.89906403144E+03 0.  0.
         23    2    4    4    0    0 -0.38863682997E+03  0.20755431188E+03 -0.85356972778E+03  0.96497149053E+03  0.92039770496E+02 0.  0.
         23    2    4    4    0    0  0.12291071747E+03 -0.33222904971E+01  0.15809043658E+03  0.22007224814E+03  0.91220207081E+02 0.  0.
          2    1    3    3  502    0  0.14075223625E+03 -0.15583985902E+03 -0.89943073325E+03  0.92361945496E+03  0.00000000000E+00 0. -1.
         -1    1    3    3    0  502  0.12497387625E+03 -0.48392162363E+02 -0.50708342254E+03  0.52449391658E+03  0.00000000000E+00 0.  1.
         11    1    5    5    0    0 -0.28451381885E+03  0.17871195171E+03 -0.70809773017E+03  0.78376557099E+03  0.00000000000E+00 0. -1.
        -11    1    5    5    0    0 -0.10412301112E+03  0.28842360167E+02 -0.14547199762E+03  0.18120591954E+03  0.00000000000E+00 0.  1.
          3    1    6    6  503    0  0.10533548857E+03  0.96674371986E+01  0.64341676335E+02  0.12380983728E+03  0.00000000000E+00 0. -1.
         -3    1    6    6    0  503  0.17575228899E+02 -0.12989727696E+02  0.93748760243E+02  0.96262410855E+02  0.00000000000E+00 0.  1.
<mgrwt>
<rscale>  0 0.15859193E+04</rscale>
<asrwt>0</asrwt>
<pdfrwt beam="1">  1        4 0.36424237E+00 0.15859193E+04</pdfrwt>
<pdfrwt beam="2">  1       -3 0.40858741E-01 0.15859193E+04</pdfrwt>
<totfact> 0.15770797E-01</totfact>
</mgrwt>
</event>
<event>
12    6  0.1457317E-007  0.2081635E+04  0.7818608E-02  0.8569377E-01
         -1   -1    0    0    0  501 -0.00000000000E+00  0.00000000000E+00  0.68523501411E+03  0.68523501411E+03  0.00000000000E+00 0.  1.
          2   -1    0    0  501    0  0.00000000000E+00 -0.00000000000E+00 -0.15809192346E+04  0.15809192346E+04  0.00000000000E+00 0. -1.
         24    2    1    2    0    0  0.29502463944E+03  0.78595928398E+03 -0.26699556115E+03  0.88422402284E+03  0.76118059171E+02 0.  0.
        254    2    1    2    0    0 -0.29502463944E+03 -0.78595928398E+03 -0.62868865929E+03  0.13819302258E+04  0.89983897712E+03 0.  0.
         23    2    4    4    0    0 -0.54851091394E+03 -0.71402253313E+03 -0.30567534261E+03  0.95503360336E+03  0.89215289760E+02 0.  0.
         23    2    4    4    0    0  0.25348627449E+03 -0.71936750852E+02 -0.32301331668E+03  0.42689662246E+03  0.92048552624E+02 0.  0.
          2    1    3    3  502    0  0.58905172608E+02  0.19185641930E+03 -0.95837796274E+02  0.22240411008E+03  0.00000000000E+00 0. -1.
         -1    1    3    3    0  502  0.23611946684E+03  0.59410286469E+03 -0.17115776488E+03  0.66181991276E+03  0.00000000000E+00 0.  1.
         11    1    5    5    0    0 -0.41932582934E+03 -0.54848359577E+03 -0.19373459970E+03  0.71707844837E+03  0.00000000000E+00 0.  1.
        -11    1    5    5    0    0 -0.12918508460E+03 -0.16553893736E+03 -0.11194074291E+03  0.23795515499E+03  0.00000000000E+00 0. -1.
          3    1    6    6  503    0  0.35987544487E+02 -0.10198353571E+02 -0.65608791404E+01  0.37975714725E+02  0.00000000000E+00 0. -1.
         -3    1    6    6    0  503  0.21749873001E+03 -0.61738397281E+02 -0.31645243754E+03  0.38892090774E+03  0.00000000000E+00 0.  1.
<mgrwt>
<rscale>  0 0.20816351E+04</rscale>
<asrwt>0</asrwt>
<pdfrwt beam="1">  1        2 0.24321834E+00 0.20816351E+04</pdfrwt>
<pdfrwt beam="2">  1       -1 0.10542077E+00 0.20816351E+04</pdfrwt>
<totfact> 0.10135419E+01</totfact>
</mgrwt>
</event>
<event>
12    6  0.1457317E-007  0.2342698E+04  0.7818608E-02  0.8461274E-01
         -1   -1    0    0    0  501 -0.00000000000E+00  0.00000000000E+00  0.89661552311E+03  0.89661552311E+03  0.00000000000E+00 0.  1.
          2   -1    0    0  501    0  0.00000000000E+00 -0.00000000000E+00 -0.15302638723E+04  0.15302638723E+04  0.00000000000E+00 0. -1.
         24    2    1    2    0    0 -0.33453077702E+03 -0.71679394026E+03  0.35400156927E+03  0.87013252036E+03  0.78160721436E+02 0.  0.
        254    2    1    2    0    0  0.33453077702E+03  0.71679394026E+03 -0.98764991845E+03  0.15567468750E+04  0.90680983561E+03 0.  0.
         23    2    4    4    0    0  0.43741606261E+03  0.20009833296E+03 -0.88799958772E+03  0.10141638064E+04  0.92805192345E+02 0.  0.
         23    2    4    4    0    0 -0.10288528559E+03  0.51669560730E+03 -0.99650330730E+02  0.54258306864E+03  0.83105146466E+02 0.  0.
          4    1    3    3  502    0 -0.86126553244E+02 -0.24150769200E+03  0.84734655741E+02  0.27004390449E+03  0.00000000000E+00 0. -1.
         -3    1    3    3    0  502 -0.24840422377E+03 -0.47528624826E+03  0.26926691353E+03  0.60008861587E+03  0.00000000000E+00 0.  1.
         11    1    5    5    0    0  0.42642943502E+03  0.18117206619E+03 -0.80995449663E+03  0.93310860420E+03  0.00000000000E+00 0.  1.
        -11    1    5    5    0    0  0.10986627590E+02  0.18926266770E+02 -0.78045091088E+02  0.81055202193E+02  0.00000000000E+00 0. -1.
          3    1    6    6  503    0 -0.58346809353E+02  0.19428124491E+03 -0.74631716833E+02  0.21614681456E+03  0.00000000000E+00 0. -1.
         -3    1    6    6    0  503 -0.44538476241E+02  0.32241436239E+03 -0.25018613898E+02  0.32643625409E+03  0.00000000000E+00 0.  1.
<mgrwt>
<rscale>  0 0.23426979E+04</rscale>
<asrwt>0</asrwt>
<pdfrwt beam="1">  1        2 0.23542521E+00 0.23426979E+04</pdfrwt>
<pdfrwt beam="2">  1       -1 0.13794085E+00 0.23426979E+04</pdfrwt>
<totfact> 0.54721623E+00</totfact>
</mgrwt>
</event>
<event>
12    6  0.1457317E-007  0.1206242E+04  0.7818608E-02  0.9107410E-01
         -1   -1    0    0    0  501 -0.00000000000E+00  0.00000000000E+00  0.52007895805E+03  0.52007895805E+03  0.00000000000E+00 0.  1.
          2   -1    0    0  501    0  0.00000000000E+00 -0.00000000000E+00 -0.69942254299E+03  0.69942254299E+03  0.00000000000E+00 0. -1.
         24    2    1    2    0    0  0.21606014666E+02 -0.21528585922E+03  0.98445862356E+02  0.25049286969E+03  0.78995372640E+02 0.  0.
        254    2    1    2    0    0 -0.21606014666E+02  0.21528585922E+03 -0.27778944729E+03  0.96900863135E+03  0.90277124985E+03 0.  0.
         23    2    4    4    0    0 -0.32801151958E+03  0.27550624921E+03 -0.42590055018E+03  0.61092338366E+03  0.91328263558E+02 0.  0.
         23    2    4    4    0    0  0.30640550491E+03 -0.60220389982E+02  0.14811110289E+03  0.35808524769E+03  0.93687336415E+02 0.  0.
          4    1    3    3  502    0  0.11953998779E+02 -0.45029486901E+01 -0.70455437295E+01  0.14588156846E+02  0.00000000000E+00 0. -1.
         -3    1    3    3    0  502  0.96520158868E+01 -0.21078291053E+03  0.10549140609E+03  0.23590471284E+03  0.00000000000E+00 0.  1.
         11    1    5    5    0    0 -0.30930748208E+03  0.22777938251E+03 -0.39543497641E+03  0.55129246878E+03  0.00000000000E+00 0. -1.
        -11    1    5    5    0    0 -0.18704037498E+02  0.47726866697E+02 -0.30465573771E+02  0.59630914873E+02  0.00000000000E+00 0.  1.
          1    1    6    6  503    0  0.23700763761E+03 -0.83665051031E+02  0.12834461776E+03  0.28221410659E+03  0.00000000000E+00 0. -1.
         -1    1    6    6    0  503  0.69397867303E+02  0.23444661048E+02  0.19766485128E+02  0.75871141103E+02  0.00000000000E+00 0.  1.
<mgrwt>
<rscale>  0 0.12062420E+04</rscale>
<asrwt>0</asrwt>
<pdfrwt beam="1">  1        2 0.10760347E+00 0.12062420E+04</pdfrwt>
<pdfrwt beam="2">  1       -1 0.80012147E-01 0.12062420E+04</pdfrwt>
<totfact> 0.72092165E+01</totfact>
</mgrwt>
</event>
<event>
12    6  0.1457317E-007  0.2399661E+04  0.7818608E-02  0.8439631E-01
         -1   -1    0    0    0  501 -0.00000000000E+00  0.00000000000E+00  0.74556941476E+03  0.74556941476E+03  0.00000000000E+00 0.  1.
          2   -1    0    0  501    0  0.00000000000E+00 -0.00000000000E+00 -0.19308638526E+04  0.19308638526E+04  0.00000000000E+00 0. -1.
         24    2    1    2    0    0 -0.86385920884E+03 -0.11143804172E+02  0.10614197650E+03  0.87420230837E+03  0.81158115504E+02 0.  0.
        254    2    1    2    0    0  0.86385920884E+03  0.11143804172E+02 -0.12914364143E+04  0.18022309590E+04  0.91315469676E+03 0.  0.
         23    2    4    4    0    0 -0.12325143536E+03 -0.16011750120E+03 -0.95555236571E+02  0.23943950158E+03  0.85860009172E+02 0.  0.
         23    2    4    4    0    0  0.98711064420E+03  0.17126130537E+03 -0.11958811778E+04  0.15627914574E+04  0.92018962276E+02 0.  0.
          4    1    3    3  502    0 -0.29624740381E+03  0.28231851540E+02  0.58040557066E+02  0.30319674796E+03  0.00000000000E+00 0. -1.
         -3    1    3    3    0  502 -0.56761180503E+03 -0.39375655712E+02  0.48101419431E+02  0.57100556041E+03  0.00000000000E+00 0.  1.
         11    1    5    5    0    0  0.16039629744E+01 -0.57125268997E+02 -0.32462702178E+02  0.65724394922E+02  0.00000000000E+00 0. -1.
        -11    1    5    5    0    0 -0.12485539833E+03 -0.10299223220E+03 -0.63092534394E+02  0.17371510666E+03  0.00000000000E+00 0.  1.
          1    1    6    6  503    0  0.18589193665E+03  0.18393651669E+02 -0.27709477612E+03  0.33417907398E+03  0.00000000000E+00 0. -1.
         -1    1    6    6    0  503  0.80121870755E+03  0.15286765370E+03 -0.91878640166E+03  0.12286123834E+04  0.00000000000E+00 0.  1.
<mgrwt>
<rscale>  0 0.23996608E+04</rscale>
<asrwt>0</asrwt>
<pdfrwt beam="1">  1        2 0.29705598E+00 0.23996608E+04</pdfrwt>
<pdfrwt beam="2">  1       -1 0.11470299E+00 0.23996608E+04</pdfrwt>
<totfact> 0.51596851E+00</totfact>
</mgrwt>
</event>
<event>
12    6  0.1457317E-007  0.1427993E+04  0.7818608E-02  0.8933801E-01
         -1   -1    0    0    0  501 -0.00000000000E+00  0.00000000000E+00  0.49049314970E+03  0.49049314970E+03  0.00000000000E+00 0.  1.
          2   -1    0    0  501    0  0.00000000000E+00 -0.00000000000E+00 -0.10393441161E+04  0.10393441161E+04  0.00000000000E+00 0. -1.
         24    2    1    2    0    0 -0.11469534794E+03 -0.30075791428E+03 -0.46200315012E+03  0.56859874967E+03  0.79039746737E+02 0.  0.
        254    2    1    2    0    0  0.11469534794E+03  0.30075791428E+03 -0.86847816274E+02  0.96123851612E+03  0.90156896344E+03 0.  0.
         23    2    4    4    0    0  0.49196633205E+03  0.21021099470E+03 -0.13607132882E+03  0.55945910617E+03  0.90882070750E+02 0.  0.
         23    2    4    4    0    0 -0.37727098411E+03  0.90546919585E+02  0.49223512541E+02  0.40177940995E+03  0.92041294956E+02 0.  0.
          2    1    3    3  502    0 -0.78355000702E+02 -0.27618291177E+03 -0.41081019151E+03  0.50118012764E+03  0.00000000000E+00 0. -1.
         -1    1    3    3    0  502 -0.36340347237E+02 -0.24575002511E+02 -0.51192958605E+02  0.67418622030E+02  0.00000000000E+00 0.  1.
         11    1    5    5    0    0  0.16617628169E+03  0.36123730497E+02 -0.14906958614E+02  0.17070939610E+03  0.00000000000E+00 0. -1.
        -11    1    5    5    0    0  0.32579005036E+03  0.17408726420E+03 -0.12116437020E+03  0.38874971006E+03  0.00000000000E+00 0.  1.
          2    1    6    6  503    0 -0.35426050449E+03  0.90146541592E+02  0.22113685897E+02  0.36621840356E+03  0.00000000000E+00 0. -1.
         -2    1    6    6    0  503 -0.23010479617E+02  0.40037799325E+00  0.27109826644E+02  0.35561006389E+02  0.00000000000E+00 0.  1.
<mgrwt>
<rscale>  0 0.14279932E+04</rscale>
<asrwt>0</asrwt>
<pdfrwt beam="1">  1        2 0.15989909E+00 0.14279932E+04</pdfrwt>
<pdfrwt beam="2">  1       -1 0.75460486E-01 0.14279932E+04</pdfrwt>
<totfact> 0.46506695E+01</totfact>
</mgrwt>
</event>
<event>
12    6  0.1457317E-007  0.3033492E+04  0.7818608E-02  0.8234231E-01
         -1   -1    0    0    0  501 -0.00000000000E+00  0.00000000000E+00  0.17702899681E+04  0.17702899681E+04  0.00000000000E+00 0.  1.
          2   -1    0    0  501    0  0.00000000000E+00 -0.00000000000E+00 -0.12995152849E+04  0.12995152849E+04  0.00000000000E+00 0. -1.
         24    2    1    2    0    0  0.76888989347E+03  0.11462779240E+04  0.11730822409E+03  0.13875500742E+04  0.79932730766E+02 0.  0.
        254    2    1    2    0    0 -0.76888989347E+03 -0.11462779240E+04  0.35346645914E+03  0.16822551789E+04  0.89437084123E+03 0.  0.
         23    2    4    4    0    0 -0.17827197258E+02 -0.73122193434E+03 -0.30285364671E+02  0.73776850257E+03  0.91552355782E+02 0.  0.
         23    2    4    4    0    0 -0.75106269621E+03 -0.41505598969E+03  0.38375182381E+03  0.94448667628E+03  0.91776746350E+02 0.  0.
          4    1    3    3  502    0  0.53115747715E+03  0.78648904056E+03  0.11765416128E+03  0.95631364004E+03  0.00000000000E+00 0. -1.
         -3    1    3    3    0  502  0.23773241632E+03  0.35978888347E+03 -0.34593719192E+00  0.43123643412E+03  0.00000000000E+00 0.  1.
         11    1    5    5    0    0 -0.27544145631E+02 -0.45312555299E+03 -0.60044261626E+02  0.45791566919E+03  0.00000000000E+00 0. -1.
        -11    1    5    5    0    0  0.97169483730E+01 -0.27809638135E+03  0.29758896955E+02  0.27985283339E+03  0.00000000000E+00 0.  1.
          2    1    6    6  503    0 -0.57058406166E+03 -0.31982918123E+03  0.24874261328E+03  0.69980694784E+03  0.00000000000E+00 0. -1.
         -2    1    6    6    0  503 -0.18047863455E+03 -0.95226808457E+02  0.13500921053E+03  0.24467972844E+03  0.00000000000E+00 0.  1.
<mgrwt>
<rscale>  0 0.30334923E+04</rscale>
<asrwt>0</asrwt>
<pdfrwt beam="1">  1        2 0.19992543E+00 0.30334923E+04</pdfrwt>
<pdfrwt beam="2">  1       -1 0.27235230E+00 0.30334923E+04</pdfrwt>
<totfact> 0.80236039E-01</totfact>
</mgrwt>
</event>
<event>
12    6  0.1457317E-007  0.2223779E+04  0.7818608E-02  0.8508596E-01
         -1   -1    0    0    0  501 -0.00000000000E+00  0.00000000000E+00  0.50982054369E+03  0.50982054369E+03  0.00000000000E+00 0.  1.
          2   -1    0    0  501    0  0.00000000000E+00 -0.00000000000E+00 -0.24249667404E+04  0.24249667404E+04  0.00000000000E+00 0. -1.
         24    2    1    2    0    0  0.29643624645E+03  0.81560028620E+03 -0.41320810928E+03  0.96438093561E+03  0.78812260032E+02 0.  0.
        254    2    1    2    0    0 -0.29643624645E+03 -0.81560028620E+03 -0.15019380874E+04  0.19704063485E+04  0.93466832869E+03 0.  0.
         23    2    4    4    0    0 -0.43806762336E+03 -0.10742749578E+03 -0.95484873549E+03  0.10598410532E+04  0.89905733554E+02 0.  0.
         23    2    4    4    0    0  0.14163137691E+03 -0.70817279042E+03 -0.54708935196E+03  0.91056529529E+03  0.90852902858E+02 0.  0.
          2    1    3    3  502    0  0.28351801950E+03  0.75933447443E+03 -0.36397898887E+03  0.88851112305E+03  0.00000000000E+00 0. -1.
         -1    1    3    3    0  502  0.12918226952E+02  0.56265811766E+02 -0.49229120412E+02  0.75869812560E+02  0.00000000000E+00 0.  1.
         11    1    5    5    0    0 -0.14971072473E+03  0.14135702871E+01 -0.35981961414E+03  0.38972484396E+03  0.00000000000E+00 0. -1.
        -11    1    5    5    0    0 -0.28835689863E+03 -0.10884106607E+03 -0.59502912135E+03  0.67011620926E+03  0.00000000000E+00 0.  1.
          4    1    6    6  503    0  0.86958090403E+02 -0.50824503344E+03 -0.34042680021E+03  0.61787145087E+03  0.00000000000E+00 0. -1.
         -4    1    6    6    0  503  0.54673286503E+02 -0.19992775698E+03 -0.20666255175E+03  0.29269384442E+03  0.00000000000E+00 0.  1.
<mgrwt>
<rscale>  0 0.22237786E+04</rscale>
<asrwt>0</asrwt>
<pdfrwt beam="1">  1        2 0.37307181E+00 0.22237786E+04</pdfrwt>
<pdfrwt beam="2">  1       -1 0.78433930E-01 0.22237786E+04</pdfrwt>
<totfact> 0.64959924E+00</totfact>
</mgrwt>
</event>
<event>
12    6  0.1457317E-007  0.2213497E+04  0.7818608E-02  0.8512831E-01
         -1   -1    0    0    0  501 -0.00000000000E+00  0.00000000000E+00  0.34019009023E+03  0.34019009023E+03  0.00000000000E+00 0.  1.
          2   -1    0    0  501    0  0.00000000000E+00 -0.00000000000E+00 -0.36006123212E+04  0.36006123212E+04  0.00000000000E+00 0. -1.
         24    2    1    2    0    0 -0.71810638107E+03  0.38750083291E+03 -0.21361869598E+04  0.22880125063E+04  0.76634403247E+02 0.  0.
        254    2    1    2    0    0  0.71810638107E+03 -0.38750083291E+03 -0.11242352712E+04  0.16527899051E+04  0.89553104663E+03 0.  0.
         23    2    4    4    0    0  0.62794431875E+03 -0.23594343634E+03 -0.19877571797E+03  0.70674758164E+03  0.99984926385E+02 0.  0.
         23    2    4    4    0    0  0.90162062315E+02 -0.15155739658E+03 -0.92545955318E+03  0.94604232346E+03  0.86150166953E+02 0.  0.
          2    1    3    3  502    0 -0.66234404946E+03  0.35603037825E+03 -0.20187602563E+04  0.21542632714E+04  0.00000000000E+00 0. -1.
         -1    1    3    3    0  502 -0.55762331604E+02  0.31470454663E+02 -0.11742670349E+03  0.13374923489E+03  0.00000000000E+00 0.  1.
         11    1    5    5    0    0  0.10582338627E+03 -0.78732649570E+02 -0.23368404629E+02  0.13395335578E+03  0.00000000000E+00 0.  1.
        -11    1    5    5    0    0  0.52212093248E+03 -0.15721078677E+03 -0.17540731334E+03  0.57279422586E+03  0.00000000000E+00 0. -1.
          3    1    6    6  503    0  0.43513236239E+02 -0.10288383589E+03 -0.74637173935E+03  0.75468487379E+03  0.00000000000E+00 0. -1.
         -3    1    6    6    0  503  0.46648826075E+02 -0.48673560693E+02 -0.17908781383E+03  0.19135744968E+03  0.00000000000E+00 0.  1.
<mgrwt>
<rscale>  0 0.22134974E+04</rscale>
<asrwt>0</asrwt>
<pdfrwt beam="1">  1        2 0.55394034E+00 0.22134974E+04</pdfrwt>
<pdfrwt beam="2">  1       -1 0.52336939E-01 0.22134974E+04</pdfrwt>
<totfact> 0.26455685E+00</totfact>
</mgrwt>
</event>
<event>
12    6  0.1457317E-007  0.1476238E+04  0.7818608E-02  0.8900410E-01
         -1   -1    0    0    0  501 -0.00000000000E+00  0.00000000000E+00  0.34272041456E+03  0.34272041456E+03  0.00000000000E+00 0.  1.
          2   -1    0    0  501    0  0.00000000000E+00 -0.00000000000E+00 -0.15896922958E+04  0.15896922958E+04  0.00000000000E+00 0. -1.
         24    2    1    2    0    0 -0.44598549693E+02 -0.21390678985E+02  0.20073669287E+03  0.22126648045E+03  0.78848232213E+02 0.  0.
        254    2    1    2    0    0  0.44598549693E+02  0.21390678985E+02 -0.14477085741E+04  0.17111462299E+04  0.91088677278E+03 0.  0.
         23    2    4    4    0    0 -0.38197978959E+03  0.36048778053E+02 -0.10439599419E+04  0.11162510520E+04  0.94636022390E+02 0.  0.
         23    2    4    4    0    0  0.42657833929E+03 -0.14658099069E+02 -0.40374863222E+03  0.59489517794E+03  0.93291882240E+02 0.  0.
          4    1    3    3  502    0 -0.99782272421E+01  0.29540754098E+02  0.59108897510E+02  0.66828758303E+02  0.00000000000E+00 0. -1.
         -3    1    3    3    0  502 -0.34620322451E+02 -0.50931433083E+02  0.14162779536E+03  0.15443772214E+03  0.00000000000E+00 0.  1.
         11    1    5    5    0    0 -0.38748106675E+02 -0.24516763836E+02 -0.10031222009E+03  0.11029519020E+03  0.00000000000E+00 0. -1.
        -11    1    5    5    0    0 -0.34323168292E+03  0.60565541890E+02 -0.94364772177E+03  0.10059558618E+04  0.00000000000E+00 0.  1.
          1    1    6    6  503    0  0.80873425887E+02  0.30449427297E+02 -0.10313307519E+03  0.13455151368E+03  0.00000000000E+00 0. -1.
         -1    1    6    6    0  503  0.34570491340E+03 -0.45107526366E+02 -0.30061555704E+03  0.46034366425E+03  0.00000000000E+00 0.  1.
<mgrwt>
<rscale>  0 0.14762385E+04</rscale>
<asrwt>0</asrwt>
<pdfrwt beam="1">  1        2 0.24456805E+00 0.14762385E+04</pdfrwt>
<pdfrwt beam="2">  1       -1 0.52726218E-01 0.14762385E+04</pdfrwt>
<totfact> 0.45180978E+01</totfact>
</mgrwt>
</event>
<event>
12    6  0.1457317E-007  0.2057503E+04  0.7818608E-02  0.8580198E-01
          2   -1    0    0  501    0  0.00000000000E+00  0.00000000000E+00  0.94218338359E+03  0.94218338359E+03  0.00000000000E+00 0. -1.
         -1   -1    0    0    0  501 -0.00000000000E+00 -0.00000000000E+00 -0.11232731062E+04  0.11232731062E+04  0.00000000000E+00 0.  1.
         24    2    1    2    0    0  0.39544334286E+03  0.41207837611E+03 -0.63834464827E+03  0.86023938425E+03  0.79648495061E+02 0.  0.
        254    2    1    2    0    0 -0.39544334286E+03 -0.41207837611E+03  0.45725492564E+03  0.12052171056E+04  0.95774849466E+03 0.  0.
         23    2    4    4    0    0  0.85370151228E+02 -0.58221173949E+03  0.27837695039E+03  0.65731064450E+03  0.91131687967E+02 0.  0.
         23    2    4    4    0    0 -0.48081349408E+03  0.17013336337E+03  0.17887797525E+03  0.54790646105E+03  0.89873147277E+02 0.  0.
          4    1    3    3  502    0  0.56375366870E+01  0.23779310916E+01 -0.26004677478E+02  0.26714782928E+02  0.00000000000E+00 0. -1.
         -3    1    3    3    0  502  0.38980580617E+03  0.40970044502E+03 -0.61233997079E+03  0.83352460132E+03  0.00000000000E+00 0.  1.
         11    1    5    5    0    0  0.97866161817E+02 -0.36652188681E+03  0.18093760227E+03  0.42030286111E+03  0.00000000000E+00 0. -1.
        -11    1    5    5    0    0 -0.12496010589E+02 -0.21568985267E+03  0.97439348120E+02  0.23700778339E+03  0.00000000000E+00 0.  1.
          1    1    6    6  503    0 -0.46674731100E+03  0.14666182524E+03  0.17769477198E+03  0.52051721902E+03  0.00000000000E+00 0. -1.
         -1    1    6    6    0  503 -0.14066183088E+02  0.23471538136E+02  0.11832032780E+01  0.27389242033E+02  0.00000000000E+00 0.  1.
<mgrwt>
<rscale>  0 0.20575026E+04</rscale>
<asrwt>0</asrwt>
<pdfrwt beam="1">  1        2 0.14495129E+00 0.20575026E+04</pdfrwt>
<pdfrwt beam="2">  1       -1 0.17281125E+00 0.20575026E+04</pdfrwt>
<totfact> 0.68013531E+00</totfact>
</mgrwt>
</event>
<event>
12    6  0.1457317E-007  0.1977551E+04  0.7818608E-02  0.8617189E-01
          2   -1    0    0  501    0  0.00000000000E+00  0.00000000000E+00  0.81960717550E+03  0.81960717550E+03  0.00000000000E+00 0. -1.
         -1   -1    0    0    0  501 -0.00000000000E+00 -0.00000000000E+00 -0.11928605940E+04  0.11928605940E+04  0.00000000000E+00 0.  1.
         24    2    1    2    0    0  0.36001059108E+03 -0.54941803173E+03 -0.58934098110E+03  0.88602935020E+03  0.79103843951E+02 0.  0.
        254    2    1    2    0    0 -0.36001059108E+03  0.54941803173E+03  0.21608756263E+03  0.11264384193E+04  0.88921419153E+03 0.  0.
         23    2    4    4    0    0  0.86709704873E+02  0.12315063600E+03 -0.27749064146E+03  0.33184132387E+03  0.10214184286E+03 0.  0.
         23    2    4    4    0    0 -0.44672029596E+03  0.42626739573E+03  0.49357820409E+03  0.79459709541E+03  0.80636127115E+02 0.  0.
          4    1    3    3  502    0  0.12280800509E+02 -0.10243013606E+02 -0.18413667439E+01  0.16097453847E+02  0.00000000000E+00 0. -1.
         -3    1    3    3    0  502  0.34772979057E+03 -0.53917501812E+03 -0.58749961436E+03  0.86993189635E+03  0.00000000000E+00 0.  1.
         11    1    5    5    0    0 -0.19446687009E+02  0.21496082092E+02 -0.83972952247E+02  0.88835307676E+02  0.00000000000E+00 0. -1.
        -11    1    5    5    0    0  0.10615639188E+03  0.10165455391E+03 -0.19351768922E+03  0.24300601619E+03  0.00000000000E+00 0.  1.
          2    1    6    6  503    0 -0.12331272744E+03  0.11428977597E+03  0.18206396089E+03  0.24782144277E+03  0.00000000000E+00 0. -1.
         -2    1    6    6    0  503 -0.32340756851E+03  0.31197761976E+03  0.31151424320E+03  0.54677565264E+03  0.00000000000E+00 0.  1.
<mgrwt>
<rscale>  0 0.19775511E+04</rscale>
<asrwt>0</asrwt>
<pdfrwt beam="1">  1        2 0.12609341E+00 0.19775511E+04</pdfrwt>
<pdfrwt beam="2">  1       -1 0.18351701E+00 0.19775511E+04</pdfrwt>
<totfact> 0.69557031E+00</totfact>
</mgrwt>
</event>
<event>
12    6  0.1640080E-007  0.1630722E+04  0.7818608E-02  0.8801894E-01
         -1   -1    0    0    0  501 -0.00000000000E+00  0.00000000000E+00  0.36273903791E+03  0.36273903791E+03  0.00000000000E+00 0.  1.
          2   -1    0    0  501    0  0.00000000000E+00 -0.00000000000E+00 -0.18327593505E+04  0.18327593505E+04  0.00000000000E+00 0. -1.
         24    2    1    2    0    0 -0.43246798803E+03  0.69351047646E+02 -0.24737223423E+02  0.44605079414E+03  0.80692330800E+02 0.  0.
        254    2    1    2    0    0  0.43246798803E+03 -0.69351047646E+02 -0.14452830891E+04  0.17494475942E+04  0.88311128901E+03 0.  0.
         23    2    4    4    0    0  0.32686629581E+02 -0.51528973255E+02 -0.13139249121E+04  0.13186191251E+04  0.92919706199E+02 0.  0.
         23    2    4    4    0    0  0.39978135845E+03 -0.17822074391E+02 -0.13135817707E+03  0.43082846910E+03  0.90639054541E+02 0.  0.
          4    1    3    3  502    0 -0.15525949524E+02  0.43307802304E+01 -0.17798379350E+02  0.24012352519E+02  0.00000000000E+00 0. -1.
         -3    1    3    3    0  502 -0.41694203850E+03  0.65020267416E+02 -0.69388440729E+01  0.42203844162E+03  0.00000000000E+00 0.  1.
         11    1    5    5    0    0  0.39673011332E+02 -0.63486619894E+02 -0.12768383942E+04  0.12790311895E+04  0.00000000000E+00 0. -1.
        -11    1    5    5    0    0 -0.69863817509E+01  0.11957646638E+02 -0.37086517842E+02  0.39587935646E+02  0.00000000000E+00 0.  1.
          1    1    6    6  503    0  0.24561812375E+03  0.64085625937E+01 -0.37022391338E+02  0.24847533047E+03  0.00000000000E+00 0. -1.
         -1    1    6    6    0  503  0.15416323469E+03 -0.24230636985E+02 -0.94335785733E+02  0.18235313863E+03  0.00000000000E+00 0.  1.
<mgrwt>
<rscale>  0 0.16307218E+04</rscale>
<asrwt>0</asrwt>
<pdfrwt beam="1">  1        2 0.28196298E+00 0.16307218E+04</pdfrwt>
<pdfrwt beam="2">  1       -1 0.55806005E-01 0.16307218E+04</pdfrwt>
<totfact> 0.29287405E+01</totfact>
</mgrwt>
</event>
<event>
12    6  0.1457317E-007  0.2257924E+04  0.7818608E-02  0.8494698E-01
         -1   -1    0    0    0  501 -0.00000000000E+00  0.00000000000E+00  0.44936506640E+03  0.44936506640E+03  0.00000000000E+00 0.  1.
          2   -1    0    0  501    0  0.00000000000E+00 -0.00000000000E+00 -0.28363469749E+04  0.28363469749E+04  0.00000000000E+00 0. -1.
         24    2    1    2    0    0 -0.93863202231E+03 -0.47697548111E+02 -0.11384982882E+04  0.14785225691E+04  0.80904300827E+02 0.  0.
        254    2    1    2    0    0  0.93863202231E+03  0.47697548111E+02 -0.12484836203E+04  0.18071894722E+04  0.90769890857E+03 0.  0.
         23    2    4    4    0    0  0.12008708343E+03 -0.12017509029E+02  0.12913676510E+03  0.20096792344E+03  0.95637199994E+02 0.  0.
         23    2    4    4    0    0  0.81854493888E+03  0.59715057139E+02 -0.13776203854E+04  0.16062215487E+04  0.92347345251E+02 0.  0.
          2    1    3    3  502    0 -0.83671237127E+03 -0.36336817329E+02 -0.97268470349E+03  0.12835589153E+04  0.00000000000E+00 0. -1.
         -1    1    3    3    0  502 -0.10191965105E+03 -0.11360730782E+02 -0.16581358468E+03  0.19496365389E+03  0.00000000000E+00 0.  1.
         11    1    5    5    0    0  0.25499799071E+02 -0.31882785378E+02  0.14830561492E+01  0.40852799312E+02  0.00000000000E+00 0. -1.
        -11    1    5    5    0    0  0.94587284363E+02  0.19865276349E+02  0.12765370895E+03  0.16011512413E+03  0.00000000000E+00 0.  1.
          1    1    6    6  503    0  0.20610915720E+03  0.21474046790E+02 -0.27476819742E+03  0.34415066713E+03  0.00000000000E+00 0. -1.
         -1    1    6    6    0  503  0.61243578168E+03  0.38241010349E+02 -0.11028521880E+04  0.12620708816E+04  0.00000000000E+00 0.  1.
<mgrwt>
<rscale>  0 0.22579240E+04</rscale>
<asrwt>0</asrwt>
<pdfrwt beam="1">  1        2 0.43636109E+00 0.22579240E+04</pdfrwt>
<pdfrwt beam="2">  1       -1 0.69133084E-01 0.22579240E+04</pdfrwt>
<totfact> 0.48179251E+00</totfact>
</mgrwt>
</event>
<event>
12    6  0.1457317E-007  0.1544021E+04  0.7818608E-02  0.8855696E-01
          2   -1    0    0  501    0  0.00000000000E+00  0.00000000000E+00  0.60096996748E+03  0.60096996748E+03  0.00000000000E+00 0. -1.
         -1   -1    0    0    0  501 -0.00000000000E+00 -0.00000000000E+00 -0.99173099512E+03  0.99173099512E+03  0.00000000000E+00 0.  1.
         24    2    1    2    0    0  0.16996049470E+03 -0.19926132070E+03 -0.58183899268E+03  0.64300697219E+03  0.79559469492E+02 0.  0.
        254    2    1    2    0    0 -0.16996049470E+03  0.19926132070E+03  0.19107796505E+03  0.94969399041E+03  0.89264564247E+03 0.  0.
         23    2    4    4    0    0 -0.44123568564E+03  0.31742131053E+03  0.29247414221E+03  0.62402921609E+03  0.91793899652E+02 0.  0.
         23    2    4    4    0    0  0.27127519094E+03 -0.11815998983E+03 -0.10139617716E+03  0.32566477432E+03  0.90688191477E+02 0.  0.
          4    1    3    3  502    0  0.10209054477E+02  0.31222484364E+01 -0.64080894686E+01  0.12451379010E+02  0.00000000000E+00 0. -1.
         -3    1    3    3    0  502  0.15975144022E+03 -0.20238356913E+03 -0.57543090322E+03  0.63055559318E+03  0.00000000000E+00 0.  1.
         11    1    5    5    0    0 -0.18731479859E+03  0.94892083213E+02  0.77799009172E+02  0.22392862044E+03  0.00000000000E+00 0. -1.
        -11    1    5    5    0    0 -0.25392088706E+03  0.22252922731E+03  0.21467513304E+03  0.40010059565E+03  0.00000000000E+00 0.  1.
          4    1    6    6  503    0  0.14689076860E+03 -0.45994743562E+02 -0.78722177034E+01  0.15412457995E+03  0.00000000000E+00 0. -1.
         -4    1    6    6    0  503  0.12438442235E+03 -0.72165246265E+02 -0.93523959458E+02  0.17154019437E+03  0.00000000000E+00 0.  1.
<mgrwt>
<rscale>  0 0.15440214E+04</rscale>
<asrwt>0</asrwt>
<pdfrwt beam="1">  1        2 0.92456920E-01 0.15440214E+04</pdfrwt>
<pdfrwt beam="2">  1       -1 0.15257400E+00 0.15440214E+04</pdfrwt>
<totfact> 0.18147787E+01</totfact>
</mgrwt>
</event>
<event>
12    6  0.1457317E-007  0.2329247E+04  0.7818608E-02  0.8466478E-01
         -1   -1    0    0    0  501 -0.00000000000E+00  0.00000000000E+00  0.58275443555E+03  0.58275443555E+03  0.00000000000E+00 0.  1.
          2   -1    0    0  501    0  0.00000000000E+00 -0.00000000000E+00 -0.23274768101E+04  0.23274768101E+04  0.00000000000E+00 0. -1.
         24    2    1    2    0    0  0.66210435606E+03 -0.71995739485E+03 -0.90532565746E+03  0.13358079069E+04  0.89707243054E+02 0.  0.
        254    2    1    2    0    0 -0.66210435606E+03  0.71995739485E+03 -0.83939671712E+03  0.15744233388E+04  0.90415771422E+03 0.  0.
         23    2    4    4    0    0 -0.47702734553E+03  0.47391252354E+00 -0.53248634836E+02  0.48878081224E+03  0.92281917653E+02 0.  0.
         23    2    4    4    0    0 -0.18507701053E+03  0.71948348233E+03 -0.78614808229E+03  0.10856425265E+04  0.93171384670E+02 0.  0.
          4    1    3    3  502    0  0.35304054460E+03 -0.40500203675E+03 -0.55425405880E+03  0.77192087522E+03  0.00000000000E+00 0. -1.
         -3    1    3    3    0  502  0.30906381145E+03 -0.31495535810E+03 -0.35107159866E+03  0.56388703171E+03  0.00000000000E+00 0.  1.
         11    1    5    5    0    0 -0.22359475566E+03 -0.45223819856E+02 -0.32513870812E+02  0.23042777705E+03  0.00000000000E+00 0.  1.
        -11    1    5    5    0    0 -0.25343258988E+03  0.45697732379E+02 -0.20734764024E+02  0.25835303520E+03  0.00000000000E+00 0. -1.
          4    1    6    6  503    0 -0.11120485818E+03  0.52309850564E+03 -0.61396336124E+03  0.81421715533E+03  0.00000000000E+00 0. -1.
         -4    1    6    6    0  503 -0.73872152344E+02  0.19638497669E+03 -0.17218472105E+03  0.27142537118E+03  0.00000000000E+00 0.  1.
<mgrwt>
<rscale>  0 0.23292466E+04</rscale>
<asrwt>0</asrwt>
<pdfrwt beam="1">  1        2 0.35807335E+00 0.23292466E+04</pdfrwt>
<pdfrwt beam="2">  1       -1 0.89654531E-01 0.23292466E+04</pdfrwt>
<totfact> 0.54821617E+00</totfact>
</mgrwt>
</event>
<event>
12    6  0.1457317E-007  0.1531110E+04  0.7818608E-02  0.8864024E-01
          2   -1    0    0  501    0  0.00000000000E+00  0.00000000000E+00  0.30896177279E+04  0.30896177279E+04  0.00000000000E+00 0. -1.
         -1   -1    0    0    0  501 -0.00000000000E+00 -0.00000000000E+00 -0.18969170013E+03  0.18969170013E+03  0.00000000000E+00 0.  1.
         24    2    1    2    0    0 -0.13975770365E+03  0.28510539694E+03  0.13739601212E+03  0.35517367307E+03  0.80332875006E+02 0.  0.
        254    2    1    2    0    0  0.13975770365E+03 -0.28510539694E+03  0.27625300157E+04  0.29241357550E+04  0.90453331774E+03 0.  0.
         23    2    4    4    0    0 -0.22327040280E+03 -0.46213189098E+03  0.18507883673E+04  0.19228176214E+04  0.91621326083E+02 0.  0.
         23    2    4    4    0    0  0.36302810644E+03  0.17702649404E+03  0.91174164840E+03  0.10013181336E+04  0.90760043442E+02 0.  0.
          4    1    3    3  502    0 -0.25440268680E+00  0.35297981587E+02 -0.48741473837E+01  0.35633825749E+02  0.00000000000E+00 0. -1.
         -3    1    3    3    0  502 -0.13950330096E+03  0.24980741535E+03  0.14227015950E+03  0.31953984732E+03  0.00000000000E+00 0.  1.
         11    1    5    5    0    0 -0.17223083121E+03 -0.38683827827E+03  0.16281538337E+04  0.16823175143E+04  0.00000000000E+00 0. -1.
        -11    1    5    5    0    0 -0.51039571583E+02 -0.75293612704E+02  0.22263453354E+03  0.24050010708E+03  0.00000000000E+00 0.  1.
          3    1    6    6  503    0  0.19061650479E+03  0.14281130419E+03  0.52784197145E+03  0.57909141535E+03  0.00000000000E+00 0. -1.
         -3    1    6    6    0  503  0.17241160165E+03  0.34215189843E+02  0.38389967695E+03  0.42222671820E+03  0.00000000000E+00 0.  1.
<mgrwt>
<rscale>  0 0.15311105E+04</rscale>
<asrwt>0</asrwt>
<pdfrwt beam="1">  1        2 0.47532577E+00 0.15311105E+04</pdfrwt>
<pdfrwt beam="2">  1       -1 0.29183341E-01 0.15311105E+04</pdfrwt>
<totfact> 0.18105329E+01</totfact>
</mgrwt>
</event>
<event>
12    6  0.1457317E-007  0.1348623E+04  0.7818608E-02  0.8991871E-01
         -1   -1    0    0    0  501 -0.00000000000E+00  0.00000000000E+00  0.26351872093E+03  0.26351872093E+03  0.00000000000E+00 0.  1.
          2   -1    0    0  501    0  0.00000000000E+00 -0.00000000000E+00 -0.17254797063E+04  0.17254797063E+04  0.00000000000E+00 0. -1.
         24    2    1    2    0    0  0.26086453948E+03  0.26431508167E+03 -0.38694583393E+03  0.54151841497E+03  0.74848814305E+02 0.  0.
        254    2    1    2    0    0 -0.26086453948E+03 -0.26431508167E+03 -0.10750151515E+04  0.14474800123E+04  0.89533683030E+03 0.  0.
         23    2    4    4    0    0 -0.26070699678E+03 -0.16865498912E+03  0.38378151487E+02  0.32617032027E+03  0.92203859931E+02 0.  0.
         23    2    4    4    0    0 -0.15754269712E+00 -0.95660092554E+02 -0.11133933029E+04  0.11213096920E+04  0.92411580476E+02 0.  0.
          2    1    3    3  502    0 -0.47309715194E+01  0.37706935219E+01 -0.11246968333E+02  0.12770846403E+02  0.00000000000E+00 0. -1.
         -1    1    3    3    0  502  0.26559551100E+03  0.26054438815E+03 -0.37569886559E+03  0.52874756857E+03  0.00000000000E+00 0.  1.
         11    1    5    5    0    0 -0.11967781321E+03 -0.13082623144E+03  0.30762992464E+02  0.17995733803E+03  0.00000000000E+00 0.  1.
        -11    1    5    5    0    0 -0.14102918357E+03 -0.37828757681E+02  0.76151590223E+01  0.14621298223E+03  0.00000000000E+00 0. -1.
          1    1    6    6  503    0 -0.79796539657E+01  0.15797978397E+02 -0.82381691616E+02  0.84261462795E+02  0.00000000000E+00 0. -1.
         -1    1    6    6    0  503  0.78221112686E+01 -0.11145807095E+03 -0.10310116113E+04  0.10370482292E+04  0.00000000000E+00 0.  1.
<mgrwt>
<rscale>  0 0.13486233E+04</rscale>
<asrwt>0</asrwt>
<pdfrwt beam="1">  1        2 0.26545843E+00 0.13486233E+04</pdfrwt>
<pdfrwt beam="2">  1       -1 0.40541339E-01 0.13486233E+04</pdfrwt>
<totfact> 0.62771959E+01</totfact>
</mgrwt>
</event>
<event>
12    6  0.1457317E-007  0.1547842E+04  0.7818608E-02  0.8853248E-01
          2   -1    0    0  501    0  0.00000000000E+00  0.00000000000E+00  0.20637355016E+04  0.20637355016E+04  0.00000000000E+00 0. -1.
         -1   -1    0    0    0  501 -0.00000000000E+00 -0.00000000000E+00 -0.29022778118E+03  0.29022778118E+03  0.00000000000E+00 0.  1.
         24    2    1    2    0    0  0.47448269118E+03 -0.97673770973E+02  0.72043281335E+03  0.87171113342E+03  0.78631239402E+02 0.  0.
        254    2    1    2    0    0 -0.47448269118E+03  0.97673770973E+02  0.10530749071E+04  0.14822521494E+04  0.92381312215E+03 0.  0.
         23    2    4    4    0    0 -0.55505463928E+03 -0.27461370588E+03  0.80155674220E+03  0.10168156062E+04  0.89008010928E+02 0.  0.
         23    2    4    4    0    0  0.80571948100E+02  0.37228747685E+03  0.25151816489E+03  0.46543654318E+03  0.90994418620E+02 0.  0.
          4    1    3    3  502    0  0.40024164091E+03 -0.54691698449E+02  0.57182782013E+03  0.70012256703E+03  0.00000000000E+00 0. -1.
         -3    1    3    3    0  502  0.74241050268E+02 -0.42982072524E+02  0.14860499322E+03  0.17158856638E+03  0.00000000000E+00 0.  1.
         11    1    5    5    0    0 -0.44795284038E+03 -0.18525118280E+03  0.64983031408E+03  0.81071523054E+03  0.00000000000E+00 0.  1.
        -11    1    5    5    0    0 -0.10710179890E+03 -0.89362523075E+02  0.15172642813E+03  0.20610037567E+03  0.00000000000E+00 0. -1.
          3    1    6    6  503    0  0.31164900572E+02  0.31238619127E+03  0.19899018638E+03  0.37169002918E+03  0.00000000000E+00 0. -1.
         -3    1    6    6    0  503  0.49407047528E+02  0.59901285586E+02  0.52527978510E+02  0.93746513998E+02  0.00000000000E+00 0.  1.
<mgrwt>
<rscale>  0 0.15478416E+04</rscale>
<asrwt>0</asrwt>
<pdfrwt beam="1">  1        2 0.31749776E+00 0.15478416E+04</pdfrwt>
<pdfrwt beam="2">  1       -1 0.44650429E-01 0.15478416E+04</pdfrwt>
<totfact> 0.33563535E+01</totfact>
</mgrwt>
</event>
<event>
12    6  0.1457317E-007  0.1201548E+04  0.7818608E-02  0.9111503E-01
         -1   -1    0    0    0  501 -0.00000000000E+00  0.00000000000E+00  0.14981883074E+03  0.14981883074E+03  0.00000000000E+00 0.  1.
          2   -1    0    0  501    0  0.00000000000E+00 -0.00000000000E+00 -0.24091048182E+04  0.24091048182E+04  0.00000000000E+00 0. -1.
         24    2    1    2    0    0  0.12726620386E+03 -0.14986546263E+03 -0.83733062090E+03  0.86529019922E+03  0.94595013806E+02 0.  0.
        254    2    1    2    0    0 -0.12726620386E+03  0.14986546263E+03 -0.14219553666E+04  0.16936334497E+04  0.89876629553E+03 0.  0.
         23    2    4    4    0    0  0.17782565163E+03  0.32324639837E+03 -0.22171914451E+03  0.43971917113E+03  0.89907585765E+02 0.  0.
         23    2    4    4    0    0 -0.30509185549E+03 -0.17338093574E+03 -0.12002362221E+04  0.12539142786E+04  0.92693258414E+02 0.  0.
          2    1    3    3  502    0  0.12836447111E+03 -0.12471360597E+03 -0.58649559648E+03  0.61319491652E+03  0.00000000000E+00 0. -1.
         -1    1    3    3    0  502 -0.10982672445E+01 -0.25151856665E+02 -0.25083502442E+03  0.25209528270E+03  0.00000000000E+00 0.  1.
         11    1    5    5    0    0  0.97408885942E+02  0.89239853582E+02 -0.83701241222E+02  0.15639098538E+03  0.00000000000E+00 0. -1.
        -11    1    5    5    0    0  0.80416765685E+02  0.23400654479E+03 -0.13801790328E+03  0.28332818574E+03  0.00000000000E+00 0.  1.
          3    1    6    6  503    0 -0.96998177184E+02 -0.23321376605E+02 -0.23799668213E+03  0.25805998080E+03  0.00000000000E+00 0. -1.
         -3    1    6    6    0  503 -0.20809367830E+03 -0.15005955914E+03 -0.96223953995E+03  0.99585429782E+03  0.00000000000E+00 0.  1.
<mgrwt>
<rscale>  0 0.12015478E+04</rscale>
<asrwt>0</asrwt>
<pdfrwt beam="1">  1        2 0.37063150E+00 0.12015478E+04</pdfrwt>
<pdfrwt beam="2">  1       -1 0.23049051E-01 0.12015478E+04</pdfrwt>
<totfact> 0.71421674E+01</totfact>
</mgrwt>
</event>
<event>
12    6  0.1457317E-007  0.1711331E+04  0.7818608E-02  0.8754928E-01
          2   -1    0    0  501    0  0.00000000000E+00  0.00000000000E+00  0.11322831710E+04  0.11322831710E+04  0.00000000000E+00 0. -1.
         -1   -1    0    0    0  501 -0.00000000000E+00 -0.00000000000E+00 -0.64662573370E+03  0.64662573370E+03  0.00000000000E+00 0.  1.
         24    2    1    2    0    0  0.14057887895E+03 -0.38396896665E+03  0.64803719133E+03  0.77030941795E+03  0.78929142056E+02 0.  0.
        254    2    1    2    0    0 -0.14057887895E+03  0.38396896665E+03 -0.16237975408E+03  0.10085994867E+04  0.90758534116E+03 0.  0.
         23    2    4    4    0    0  0.13579747429E+03  0.39522240537E+03  0.25598493175E+03  0.49903012698E+03  0.94133302405E+02 0.  0.
         23    2    4    4    0    0 -0.27637635323E+03 -0.11253438716E+02 -0.41836468583E+03  0.50956935973E+03  0.90118774481E+02 0.  0.
          2    1    3    3  502    0  0.14387238659E+03 -0.30479453690E+03  0.53278655536E+03  0.63044467396E+03  0.00000000000E+00 0. -1.
         -1    1    3    3    0  502 -0.32935076379E+01 -0.79174429753E+02  0.11525063597E+03  0.13986474399E+03  0.00000000000E+00 0.  1.
         11    1    5    5    0    0  0.12549522193E+03  0.36397171294E+03  0.26184927061E+03  0.46560659259E+03  0.00000000000E+00 0.  1.
        -11    1    5    5    0    0  0.10302252355E+02  0.31250692427E+02 -0.58643388531E+01  0.33423534387E+02  0.00000000000E+00 0. -1.
          2    1    6    6  503    0 -0.21094474094E+03  0.77741613515E+01 -0.24557701481E+03  0.32383049813E+03  0.00000000000E+00 0. -1.
         -2    1    6    6    0  503 -0.65431612291E+02 -0.19027600068E+02 -0.17278767102E+03  0.18573886159E+03  0.00000000000E+00 0.  1.
<mgrwt>
<rscale>  0 0.17113310E+04</rscale>
<asrwt>0</asrwt>
<pdfrwt beam="1">  1        2 0.17419741E+00 0.17113310E+04</pdfrwt>
<pdfrwt beam="2">  1       -1 0.99480882E-01 0.17113310E+04</pdfrwt>
<totfact> 0.21770115E+01</totfact>
</mgrwt>
</event>
<event>
12    6  0.1457317E-007  0.1699688E+04  0.7818608E-02  0.8761542E-01
         -1   -1    0    0    0  501 -0.00000000000E+00  0.00000000000E+00  0.10574019568E+04  0.10574019568E+04  0.00000000000E+00 0.  1.
          2   -1    0    0  501    0  0.00000000000E+00 -0.00000000000E+00 -0.68302790593E+03  0.68302790593E+03  0.00000000000E+00 0. -1.
         24    2    1    2    0    0 -0.26888229561E+03  0.53387334228E+03  0.22858795035E+03  0.64609740974E+03  0.88718528728E+02 0.  0.
        254    2    1    2    0    0  0.26888229561E+03 -0.53387334228E+03  0.14578610050E+03  0.10943324530E+04  0.90498148933E+03 0.  0.
         23    2    4    4    0    0  0.17467328549E+03 -0.28870629131E+03  0.52114016896E+03  0.62762771199E+03  0.92018421233E+02 0.  0.
         23    2    4    4    0    0  0.94209010120E+02 -0.24516705097E+03 -0.37535406847E+03  0.46670474098E+03  0.89109023490E+02 0.  0.
          2    1    3    3  502    0  0.75611953350E+00  0.51025684543E+02  0.14281302847E+02  0.52991959870E+02  0.00000000000E+00 0. -1.
         -1    1    3    3    0  502 -0.26963841515E+03  0.48284765773E+03  0.21430664751E+03  0.59310544987E+03  0.00000000000E+00 0.  1.
         11    1    5    5    0    0 -0.85006304037E+01 -0.82575716401E+00  0.12589180365E+02  0.15212825327E+02  0.00000000000E+00 0. -1.
        -11    1    5    5    0    0  0.18317391590E+03 -0.28788053414E+03  0.50855098860E+03  0.61241488667E+03  0.00000000000E+00 0.  1.
          3    1    6    6  503    0 -0.16788685804E+02 -0.18624882149E+02 -0.33551916253E+02  0.41886480997E+02  0.00000000000E+00 0. -1.
         -3    1    6    6    0  503  0.11099769592E+03 -0.22654216882E+03 -0.34180215221E+03  0.42481825998E+03  0.00000000000E+00 0.  1.
<mgrwt>
<rscale>  0 0.16996883E+04</rscale>
<asrwt>0</asrwt>
<pdfrwt beam="1">  1        2 0.10508122E+00 0.16996883E+04</pdfrwt>
<pdfrwt beam="2">  1       -1 0.16267723E+00 0.16996883E+04</pdfrwt>
<totfact> 0.12811710E+01</totfact>
</mgrwt>
</event>
<event>
12    6  0.1457317E-007  0.2501521E+04  0.7818608E-02  0.8402444E-01
         -1   -1    0    0    0  501 -0.00000000000E+00  0.00000000000E+00  0.16390682479E+04  0.16390682479E+04  0.00000000000E+00 0.  1.
          2   -1    0    0  501    0  0.00000000000E+00 -0.00000000000E+00 -0.95444563042E+03  0.95444563042E+03  0.00000000000E+00 0. -1.
         24    2    1    2    0    0 -0.40563724996E+03  0.55940239080E+03  0.11679244408E+04  0.13593475024E+04  0.79407301324E+02 0.  0.
        254    2    1    2    0    0  0.40563724996E+03 -0.55940239080E+03 -0.48330182325E+03  0.12341663760E+04  0.90117333395E+03 0.  0.
         23    2    4    4    0    0  0.59672135540E+03 -0.10994301277E+03 -0.13816656980E+03  0.62896391322E+03  0.91333241920E+02 0.  0.
         23    2    4    4    0    0 -0.19108410544E+03 -0.44945937803E+03 -0.34513525345E+03  0.60520246275E+03  0.92869854609E+02 0.  0.
          2    1    3    3  502    0 -0.76596634087E+01  0.34400060610E+02  0.41790640410E+02  0.54667103813E+02  0.00000000000E+00 0. -1.
         -1    1    3    3    0  502 -0.39797758655E+03  0.52500233019E+03  0.11261338003E+04  0.13046803986E+04  0.00000000000E+00 0.  1.
         11    1    5    5    0    0  0.29735838782E+03 -0.16203014068E+02 -0.41283387351E+02  0.30064741233E+03  0.00000000000E+00 0.  1.
        -11    1    5    5    0    0  0.29936296758E+03 -0.93739998703E+02 -0.96883182451E+02  0.32831650089E+03  0.00000000000E+00 0. -1.
          3    1    6    6  503    0 -0.52835746194E+02 -0.66163752076E+02 -0.94227157931E+02  0.12668076198E+03  0.00000000000E+00 0. -1.
         -3    1    6    6    0  503 -0.13824835924E+03 -0.38329562595E+03 -0.25090809552E+03  0.47852170077E+03  0.00000000000E+00 0.  1.
<mgrwt>
<rscale>  0 0.25015208E+04</rscale>
<asrwt>0</asrwt>
<pdfrwt beam="1">  1        2 0.14683779E+00 0.25015208E+04</pdfrwt>
<pdfrwt beam="2">  1       -1 0.25216435E+00 0.25015208E+04</pdfrwt>
<totfact> 0.18504060E+00</totfact>
</mgrwt>
</event>
<event>
12    6  0.1457317E-007  0.1822342E+04  0.7818608E-02  0.8694508E-01
          2   -1    0    0  501    0  0.00000000000E+00  0.00000000000E+00  0.11335077594E+04  0.11335077594E+04  0.00000000000E+00 0. -1.
         -1   -1    0    0    0  501 -0.00000000000E+00 -0.00000000000E+00 -0.73244565522E+03  0.73244565522E+03  0.00000000000E+00 0.  1.
         24    2    1    2    0    0  0.38235640073E+03 -0.34300296637E+03 -0.30975437026E+03  0.60545034210E+03  0.82309748687E+02 0.  0.
        254    2    1    2    0    0 -0.38235640073E+03  0.34300296637E+03  0.71081647441E+03  0.12605030725E+04  0.90540625320E+03 0.  0.
         23    2    4    4    0    0 -0.50507247987E+02 -0.18943829062E+03 -0.94008881534E+02  0.23604482464E+03  0.91878405387E+02 0.  0.
         23    2    4    4    0    0 -0.33184915274E+03  0.53244125700E+03  0.80482535594E+03  0.10244582478E+04  0.90295601719E+02 0.  0.
          4    1    3    3  502    0  0.26144028641E+03 -0.18758262524E+03 -0.16946649524E+03  0.36367177187E+03  0.00000000000E+00 0. -1.
         -3    1    3    3    0  502  0.12091611432E+03 -0.15542034113E+03 -0.14028787502E+03  0.24177857022E+03  0.00000000000E+00 0.  1.
         11    1    5    5    0    0  0.25888370301E+02 -0.66929878400E+02 -0.24701483166E+02  0.75894529514E+02  0.00000000000E+00 0.  1.
        -11    1    5    5    0    0 -0.76395618289E+02 -0.12250841222E+03 -0.69307398367E+02  0.16015029512E+03  0.00000000000E+00 0. -1.
          1    1    6    6  503    0 -0.15792733138E+02  0.60610250071E+02  0.11490003592E+03  0.13086264206E+03  0.00000000000E+00 0. -1.
         -1    1    6    6    0  503 -0.31605641960E+03  0.47183100693E+03  0.68992532002E+03  0.89359560578E+03  0.00000000000E+00 0.  1.
<mgrwt>
<rscale>  0 0.18223423E+04</rscale>
<asrwt>0</asrwt>
<pdfrwt beam="1">  1        2 0.17438581E+00 0.18223423E+04</pdfrwt>
<pdfrwt beam="2">  1       -1 0.11268395E+00 0.18223423E+04</pdfrwt>
<totfact> 0.16094884E+01</totfact>
</mgrwt>
</event>
<event>
12    6  0.1457317E-007  0.1892111E+04  0.7818608E-02  0.8658793E-01
          2   -1    0    0  501    0  0.00000000000E+00  0.00000000000E+00  0.85378703817E+03  0.85378703817E+03  0.00000000000E+00 0. -1.
         -1   -1    0    0    0  501 -0.00000000000E+00 -0.00000000000E+00 -0.10482950183E+04  0.10482950183E+04  0.00000000000E+00 0.  1.
         24    2    1    2    0    0  0.73338417303E+02 -0.56693424192E+03 -0.52701925009E+03  0.78162824098E+03  0.80002868780E+02 0.  0.
        254    2    1    2    0    0 -0.73338417303E+02  0.56693424192E+03  0.33251126993E+03  0.11204538155E+04  0.90446672131E+03 0.  0.
         23    2    4    4    0    0 -0.84901265883E+02  0.67160663313E+03  0.53954445036E+03  0.87073767725E+03  0.93873287178E+02 0.  0.
         23    2    4    4    0    0  0.11562848581E+02 -0.10467239121E+03 -0.20703318043E+03  0.24971613827E+03  0.91680984746E+02 0.  0.
          2    1    3    3  502    0 -0.28026494790E+01 -0.98941360435E+02 -0.58116158965E+02  0.11478125100E+03  0.00000000000E+00 0. -1.
         -1    1    3    3    0  502  0.76141066782E+02 -0.46799288149E+03 -0.46890309112E+03  0.66684698998E+03  0.00000000000E+00 0.  1.
         11    1    5    5    0    0 -0.44645025506E+02  0.59669622052E+03  0.47000802612E+03  0.76088573551E+03  0.00000000000E+00 0.  1.
        -11    1    5    5    0    0 -0.40256240378E+02  0.74910412613E+02  0.69536424245E+02  0.10985194174E+03  0.00000000000E+00 0. -1.
          3    1    6    6  503    0  0.44653938812E+02 -0.20433748142E+02 -0.71154888567E+02  0.86455366991E+02  0.00000000000E+00 0. -1.
         -3    1    6    6    0  503 -0.33091090232E+02 -0.84238643067E+02 -0.13587829186E+03  0.16326077128E+03  0.00000000000E+00 0.  1.
<mgrwt>
<rscale>  0 0.18921107E+04</rscale>
<asrwt>0</asrwt>
<pdfrwt beam="1">  1        2 0.13135185E+00 0.18921107E+04</pdfrwt>
<pdfrwt beam="2">  1       -1 0.16127616E+00 0.18921107E+04</pdfrwt>
<totfact> 0.96430827E+00</totfact>
</mgrwt>
</event>
<event>
12    6  0.1457317E-007  0.1321800E+04  0.7818608E-02  0.9012454E-01
          2   -1    0    0  501    0  0.00000000000E+00  0.00000000000E+00  0.23912581771E+04  0.23912581771E+04  0.00000000000E+00 0. -1.
         -1   -1    0    0    0  501 -0.00000000000E+00 -0.00000000000E+00 -0.18266071691E+03  0.18266071691E+03  0.00000000000E+00 0.  1.
         24    2    1    2    0    0 -0.17602092490E+03 -0.19068329340E+03  0.10162513423E+03  0.28975237597E+03  0.79279802535E+02 0.  0.
        254    2    1    2    0    0  0.17602092490E+03  0.19068329340E+03  0.21069723259E+04  0.22841665180E+04  0.84305445574E+03 0.  0.
         23    2    4    4    0    0  0.20104348630E+03  0.39092799235E+03  0.19790879060E+04  0.20293633928E+04  0.91014623523E+02 0.  0.
         23    2    4    4    0    0 -0.25022561395E+02 -0.20024469895E+03  0.12788441994E+03  0.25480312523E+03  0.88578438281E+02 0.  0.
          4    1    3    3  502    0 -0.50812511819E+02 -0.10900539642E+03  0.60919482508E+02  0.13481569328E+03  0.00000000000E+00 0. -1.
         -3    1    3    3    0  502 -0.12520841308E+03 -0.81677896986E+02  0.40705651720E+02  0.15493668270E+03  0.00000000000E+00 0.  1.
         11    1    5    5    0    0  0.77827802867E+02  0.19323770410E+03  0.11224368989E+04  0.11416052598E+04  0.00000000000E+00 0.  1.
        -11    1    5    5    0    0  0.12321568343E+03  0.19769028825E+03  0.85665100711E+03  0.88775813299E+03  0.00000000000E+00 0. -1.
          4    1    6    6  503    0 -0.48853880884E+02 -0.57028951067E+02  0.39831438268E+02  0.85003214126E+02  0.00000000000E+00 0. -1.
         -4    1    6    6    0  503  0.23831319490E+02 -0.14321574788E+03  0.88052981674E+02  0.16979991111E+03  0.00000000000E+00 0.  1.
<mgrwt>
<rscale>  0 0.13218002E+04</rscale>
<asrwt>0</asrwt>
<pdfrwt beam="1">  1        2 0.36788585E+00 0.13218002E+04</pdfrwt>
<pdfrwt beam="2">  1       -1 0.28101650E-01 0.13218002E+04</pdfrwt>
<totfact> 0.51468801E+01</totfact>
</mgrwt>
</event>
<event>
12    6  0.1457317E-007  0.1637753E+04  0.7818608E-02  0.8797685E-01
         -1   -1    0    0    0  501 -0.00000000000E+00  0.00000000000E+00  0.54129884534E+03  0.54129884534E+03  0.00000000000E+00 0.  1.
          2   -1    0    0  501    0  0.00000000000E+00 -0.00000000000E+00 -0.12387959539E+04  0.12387959539E+04  0.00000000000E+00 0. -1.
         24    2    1    2    0    0  0.52975107496E+03  0.18281867630E+03 -0.13786440972E+03  0.58260102030E+03  0.79740100108E+02 0.  0.
        254    2    1    2    0    0 -0.52975107496E+03 -0.18281867630E+03 -0.55963269879E+03  0.11974937789E+04  0.89818913549E+03 0.  0.
         23    2    4    4    0    0 -0.34251802296E+02 -0.92582671455E+01  0.22726616539E+03  0.24710551837E+03  0.90290230977E+02 0.  0.
         23    2    4    4    0    0 -0.49549927266E+03 -0.17356040915E+03 -0.78689886418E+03  0.95038826052E+03  0.91571166077E+02 0.  0.
          2    1    3    3  502    0  0.30034727391E+03  0.87847946060E+02 -0.38981466034E+02  0.31534949067E+03  0.00000000000E+00 0. -1.
         -1    1    3    3    0  502  0.22940380105E+03  0.94970730236E+02 -0.98882943688E+02  0.26725152963E+03  0.00000000000E+00 0.  1.
         11    1    5    5    0    0  0.11723045755E+02 -0.37846069942E+02  0.12856776962E+03  0.13453410793E+03  0.00000000000E+00 0. -1.
        -11    1    5    5    0    0 -0.45974848051E+02  0.28587802796E+02  0.98698395769E+02  0.11257141044E+03  0.00000000000E+00 0.  1.
          3    1    6    6  503    0 -0.10867172525E+03 -0.11049981794E+01 -0.14117405020E+03  0.17815969617E+03  0.00000000000E+00 0. -1.
         -3    1    6    6    0  503 -0.38682754741E+03 -0.17245541097E+03 -0.64572481397E+03  0.77222856435E+03  0.00000000000E+00 0.  1.
<mgrwt>
<rscale>  0 0.16377531E+04</rscale>
<asrwt>0</asrwt>
<pdfrwt beam="1">  1        2 0.19058399E+00 0.16377531E+04</pdfrwt>
<pdfrwt beam="2">  1       -1 0.83276746E-01 0.16377531E+04</pdfrwt>
<totfact> 0.28024050E+01</totfact>
</mgrwt>
</event>
<event>
12    6  0.1457317E-007  0.1622339E+04  0.7818608E-02  0.8806941E-01
          2   -1    0    0  501    0  0.00000000000E+00  0.00000000000E+00  0.33106682496E+04  0.33106682496E+04  0.00000000000E+00 0. -1.
         -1   -1    0    0    0  501 -0.00000000000E+00 -0.00000000000E+00 -0.19875015306E+03  0.19875015306E+03  0.00000000000E+00 0.  1.
         24    2    1    2    0    0  0.23260664601E+02  0.17802145565E+01 -0.12541786014E+03  0.15020472630E+03  0.79294340772E+02 0.  0.
        254    2    1    2    0    0 -0.23260664601E+02 -0.17802145565E+01  0.32373359567E+04  0.33592136764E+04  0.89634156402E+03 0.  0.
         23    2    4    4    0    0 -0.13790321584E+03  0.31932184828E+03  0.26504117220E+04  0.26745794011E+04  0.87800553753E+02 0.  0.
         23    2    4    4    0    0  0.11464255124E+03 -0.32110206284E+03  0.58692423469E+03  0.68463427522E+03  0.89412438885E+02 0.  0.
          2    1    3    3  502    0  0.32211392752E+02  0.17649930302E+02 -0.17367714590E+02  0.40629193602E+02  0.00000000000E+00 0. -1.
         -1    1    3    3    0  502 -0.89507281511E+01 -0.15869715745E+02 -0.10805014555E+03  0.10957553269E+03  0.00000000000E+00 0.  1.
         11    1    5    5    0    0  0.91627055154E+01  0.26092060778E+01  0.74866235298E+02  0.75469969633E+02  0.00000000000E+00 0. -1.
        -11    1    5    5    0    0 -0.14706592136E+03  0.31671264220E+03  0.25755454867E+04  0.25991094315E+04  0.00000000000E+00 0.  1.
          2    1    6    6  503    0  0.81490274782E+02 -0.10042605441E+03  0.21615681738E+03  0.25189249093E+03  0.00000000000E+00 0. -1.
         -2    1    6    6    0  503  0.33152276459E+02 -0.22067600843E+03  0.37076741731E+03  0.43274178429E+03  0.00000000000E+00 0.  1.
<mgrwt>
<rscale>  0 0.16223388E+04</rscale>
<asrwt>0</asrwt>
<pdfrwt beam="1">  1        2 0.50933354E+00 0.16223388E+04</pdfrwt>
<pdfrwt beam="2">  1       -1 0.30576949E-01 0.16223388E+04</pdfrwt>
<totfact> 0.11891494E+01</totfact>
</mgrwt>
</event>
<event>
12    6  0.1457317E-007  0.1649099E+04  0.7818608E-02  0.8790940E-01
          2   -1    0    0  501    0  0.00000000000E+00  0.00000000000E+00  0.13302013023E+04  0.13302013023E+04  0.00000000000E+00 0. -1.
         -1   -1    0    0    0  501 -0.00000000000E+00 -0.00000000000E+00 -0.51111185604E+03  0.51111185604E+03  0.00000000000E+00 0.  1.
         24    2    1    2    0    0  0.18646057242E+03 -0.19831743133E+02 -0.30956040323E+03  0.37046218521E+03  0.79080619125E+02 0.  0.
        254    2    1    2    0    0 -0.18646057242E+03  0.19831743133E+02  0.11286498495E+04  0.14708509732E+04  0.92433287257E+03 0.  0.
         23    2    4    4    0    0 -0.40970331674E+03 -0.21502423722E+03  0.10080673241E+04  0.11126881016E+04  0.88220469772E+02 0.  0.
         23    2    4    4    0    0  0.22324274433E+03  0.23485598035E+03  0.12058252545E+03  0.35816287153E+03  0.93519210340E+02 0.  0.
          4    1    3    3  502    0  0.47531238635E+02  0.29593183968E+02 -0.81356632810E+02  0.98761717713E+02  0.00000000000E+00 0. -1.
         -3    1    3    3    0  502  0.13892933378E+03 -0.49424927101E+02 -0.22820377042E+03  0.27170046750E+03  0.00000000000E+00 0.  1.
         11    1    5    5    0    0 -0.83131551461E+02 -0.91508693406E+01  0.14903948165E+03  0.17090161014E+03  0.00000000000E+00 0. -1.
        -11    1    5    5    0    0 -0.32657176528E+03 -0.20587336788E+03  0.85902784242E+03  0.94178649148E+03  0.00000000000E+00 0.  1.
          1    1    6    6  503    0  0.53703771980E+02  0.56217032112E+02  0.74355975306E+02  0.10757909132E+03  0.00000000000E+00 0. -1.
         -1    1    6    6    0  503  0.16953897234E+03  0.17863894824E+03  0.46226550142E+02  0.25058378022E+03  0.00000000000E+00 0.  1.
<mgrwt>
<rscale>  0 0.16490987E+04</rscale>
<asrwt>0</asrwt>
<pdfrwt beam="1">  1        2 0.20464635E+00 0.16490987E+04</pdfrwt>
<pdfrwt beam="2">  1       -1 0.78632594E-01 0.16490987E+04</pdfrwt>
<totfact> 0.27977002E+01</totfact>
</mgrwt>
</event>
<event>
12    6  0.1457317E-007  0.2491122E+04  0.7818608E-02  0.8406155E-01
          2   -1    0    0  501    0  0.00000000000E+00  0.00000000000E+00  0.53024414032E+03  0.53024414032E+03  0.00000000000E+00 0. -1.
         -1   -1    0    0    0  501 -0.00000000000E+00 -0.00000000000E+00 -0.29258632057E+04  0.29258632057E+04  0.00000000000E+00 0.  1.
         24    2    1    2    0    0 -0.33408401391E+03 -0.28519166393E+03 -0.24128357100E+04  0.24537945747E+04  0.79907684201E+02 0.  0.
        254    2    1    2    0    0  0.33408401391E+03  0.28519166393E+03  0.17216644613E+02  0.10023127713E+04  0.90077081720E+03 0.  0.
         23    2    4    4    0    0  0.36474306558E+03  0.44298660913E+03 -0.28574130932E+03  0.64776789373E+03  0.93169246795E+02 0.  0.
         23    2    4    4    0    0 -0.30659051666E+02 -0.15779494519E+03  0.30295795394E+03  0.35454487756E+03  0.89885072046E+02 0.  0.
          4    1    3    3  502    0 -0.73457701956E+02 -0.10756861686E+03 -0.77426546560E+03  0.78514587977E+03  0.00000000000E+00 0. -1.
         -3    1    3    3    0  502 -0.26062631196E+03 -0.17762304707E+03 -0.16385702444E+04  0.16686486950E+04  0.00000000000E+00 0.  1.
         11    1    5    5    0    0  0.33743029281E+03  0.41810385835E+03 -0.29004493990E+03  0.61057031211E+03  0.00000000000E+00 0.  1.
        -11    1    5    5    0    0  0.27312772769E+02  0.24882750777E+02  0.43036305742E+01  0.37197581624E+02  0.00000000000E+00 0. -1.
          2    1    6    6  503    0 -0.65781425319E+01 -0.12379550426E+02 -0.35297583562E+01  0.14456293507E+02  0.00000000000E+00 0. -1.
         -2    1    6    6    0  503 -0.24080909135E+02 -0.14541539477E+03  0.30648771229E+03  0.34008858406E+03  0.00000000000E+00 0.  1.
<mgrwt>
<rscale>  0 0.24911217E+04</rscale>
<asrwt>0</asrwt>
<pdfrwt beam="1">  1        2 0.81576022E-01 0.24911217E+04</pdfrwt>
<pdfrwt beam="2">  1       -1 0.45013280E+00 0.24911217E+04</pdfrwt>
<totfact> 0.18891788E-01</totfact>
</mgrwt>
</event>
<event>
12    6  0.1457317E-007  0.2308109E+04  0.7818608E-02  0.8474731E-01
          2   -1    0    0  501    0  0.00000000000E+00  0.00000000000E+00  0.14682973392E+04  0.14682973392E+04  0.00000000000E+00 0. -1.
         -1   -1    0    0    0  501 -0.00000000000E+00 -0.00000000000E+00 -0.90706562995E+03  0.90706562995E+03  0.00000000000E+00 0.  1.
         24    2    1    2    0    0  0.81709401003E+03  0.49835762778E+03  0.40123498815E+02  0.96110665064E+03  0.78186650697E+02 0.  0.
        254    2    1    2    0    0 -0.81709401003E+03 -0.49835762778E+03  0.52110821042E+03  0.14142563185E+04  0.90142344157E+03 0.  0.
         23    2    4    4    0    0 -0.53739910780E+03 -0.72693899999E+03  0.22004841732E+03  0.93485495738E+03  0.91073457187E+02 0.  0.
         23    2    4    4    0    0 -0.27969490224E+03  0.22858137221E+03  0.30105979310E+03  0.47940136111E+03  0.93327294773E+02 0.  0.
          2    1    3    3  502    0  0.71483680169E+03  0.45808007625E+03  0.51735086247E+02  0.85059128167E+03  0.00000000000E+00 0. -1.
         -1    1    3    3    0  502  0.10225720834E+03  0.40277551535E+02 -0.11611587432E+02  0.11051536897E+03  0.00000000000E+00 0.  1.
         11    1    5    5    0    0 -0.21316720825E+03 -0.33747084473E+03  0.61511908188E+02  0.40386946476E+03  0.00000000000E+00 0. -1.
        -11    1    5    5    0    0 -0.32423189954E+03 -0.38946815526E+03  0.15853650913E+03  0.53098549262E+03  0.00000000000E+00 0.  1.
          1    1    6    6  503    0 -0.70798411353E+02  0.11928686883E+02  0.50254868664E+02  0.87637095144E+02  0.00000000000E+00 0. -1.
         -1    1    6    6    0  503 -0.20889649089E+03  0.21665268532E+03  0.25080492444E+03  0.39176426596E+03  0.00000000000E+00 0.  1.
<mgrwt>
<rscale>  0 0.23081092E+04</rscale>
<asrwt>0</asrwt>
<pdfrwt beam="1">  1        2 0.22589190E+00 0.23081092E+04</pdfrwt>
<pdfrwt beam="2">  1       -1 0.13954856E+00 0.23081092E+04</pdfrwt>
<totfact> 0.57724556E+00</totfact>
</mgrwt>
</event>
<event>
12    6  0.1457317E-007  0.2150453E+04  0.7818608E-02  0.8539339E-01
          2   -1    0    0  501    0  0.00000000000E+00  0.00000000000E+00  0.14036807182E+04  0.14036807182E+04  0.00000000000E+00 0. -1.
         -1   -1    0    0    0  501 -0.00000000000E+00 -0.00000000000E+00 -0.82362865879E+03  0.82362865879E+03  0.00000000000E+00 0.  1.
         24    2    1    2    0    0 -0.67258838334E+03  0.76308827467E+02  0.83695026360E+03  0.10794391988E+04  0.80654011820E+02 0.  0.
        254    2    1    2    0    0  0.67258838334E+03 -0.76308827467E+02 -0.25689820417E+03  0.11478701782E+04  0.89073626185E+03 0.  0.
         23    2    4    4    0    0  0.83069681222E+03  0.25563303485E+02 -0.28544566487E+02  0.83660708659E+03  0.91574825840E+02 0.  0.
         23    2    4    4    0    0 -0.15810842888E+03 -0.10187213095E+03 -0.22835363768E+03  0.31126309162E+03  0.96763226572E+02 0.  0.
          4    1    3    3  502    0 -0.55635234512E+03  0.35812631865E+02  0.66111178993E+03  0.86480013604E+03  0.00000000000E+00 0. -1.
         -3    1    3    3    0  502 -0.11623603823E+03  0.40496195602E+02  0.17583847367E+03  0.21463906276E+03  0.00000000000E+00 0.  1.
         11    1    5    5    0    0  0.23738127659E+03  0.28847644269E+02 -0.43704830539E+02  0.24308880942E+03  0.00000000000E+00 0.  1.
        -11    1    5    5    0    0  0.59331553564E+03 -0.32843407836E+01  0.15160264051E+02  0.59351827717E+03  0.00000000000E+00 0. -1.
          4    1    6    6  503    0 -0.16351396851E+03 -0.11222496825E+03 -0.20545104967E+03  0.28555453981E+03  0.00000000000E+00 0.  1.
         -4    1    6    6    0  503  0.54055396304E+01  0.10352837293E+02 -0.22902588007E+02  0.25708551809E+02  0.00000000000E+00 0. -1.
<mgrwt>
<rscale>  0 0.21504527E+04</rscale>
<asrwt>0</asrwt>
<pdfrwt beam="1">  1        2 0.21595088E+00 0.21504527E+04</pdfrwt>
<pdfrwt beam="2">  1       -1 0.12671210E+00 0.21504527E+04</pdfrwt>
<totfact> 0.81467521E+00</totfact>
</mgrwt>
</event>
<event>
12    6  0.1457317E-007  0.2441910E+04  0.7818608E-02  0.8423978E-01
         -1   -1    0    0    0  501 -0.00000000000E+00  0.00000000000E+00  0.12417131717E+04  0.12417131717E+04  0.00000000000E+00 0.  1.
          2   -1    0    0  501    0  0.00000000000E+00 -0.00000000000E+00 -0.12005441882E+04  0.12005441882E+04  0.00000000000E+00 0. -1.
         24    2    1    2    0    0 -0.53240687083E+03 -0.74616264634E+03 -0.50184997127E+03  0.10480291819E+04  0.79347347703E+02 0.  0.
        254    2    1    2    0    0  0.53240687083E+03  0.74616264634E+03  0.54301895470E+03  0.13942281780E+04  0.89932577866E+03 0.  0.
         23    2    4    4    0    0  0.50344922863E+03  0.65075248641E+02 -0.28620373264E+01  0.51620654859E+03  0.93622090076E+02 0.  0.
         23    2    4    4    0    0  0.28957642193E+02  0.68108739770E+03  0.54588099202E+03  0.87802162937E+03  0.90649522032E+02 0.  0.
          4    1    3    3  502    0 -0.96032588026E+01 -0.38522656902E+02 -0.14605008357E+02  0.42302765200E+02  0.00000000000E+00 0. -1.
         -3    1    3    3    0  502 -0.52280361203E+03 -0.70763998944E+03 -0.48724496292E+03  0.10057264167E+04  0.00000000000E+00 0.  1.
         11    1    5    5    0    0  0.86108358284E+02 -0.18716635609E+02  0.18348213675E+02  0.90008992661E+02  0.00000000000E+00 0. -1.
        -11    1    5    5    0    0  0.41734087035E+03  0.83791884250E+02 -0.21210251002E+02  0.42619755593E+03  0.00000000000E+00 0.  1.
          1    1    6    6  503    0 -0.18150174927E+01 -0.26607837007E+01  0.19238297029E+01  0.37516901693E+01  0.00000000000E+00 0. -1.
         -1    1    6    6    0  503  0.30772659686E+02  0.68374818140E+03  0.54395716232E+03  0.87426993920E+03  0.00000000000E+00 0.  1.
<mgrwt>
<rscale>  0 0.24419103E+04</rscale>
<asrwt>0</asrwt>
<pdfrwt beam="1">  1        2 0.18469911E+00 0.24419103E+04</pdfrwt>
<pdfrwt beam="2">  1       -1 0.19103280E+00 0.24419103E+04</pdfrwt>
<totfact> 0.33593278E+00</totfact>
</mgrwt>
</event>
<event>
12    6  0.1457317E-007  0.1223992E+04  0.7818608E-02  0.9092112E-01
         -1   -1    0    0    0  501 -0.00000000000E+00  0.00000000000E+00  0.17989628700E+03  0.17989628700E+03  0.00000000000E+00 0.  1.
          2   -1    0    0  501    0  0.00000000000E+00 -0.00000000000E+00 -0.20819718187E+04  0.20819718187E+04  0.00000000000E+00 0. -1.
         24    2    1    2    0    0 -0.11545603304E+02  0.42156665234E+02 -0.93573914377E+03  0.94080367866E+03  0.87139722325E+02 0.  0.
        254    2    1    2    0    0  0.11545603304E+02 -0.42156665234E+02 -0.96633638790E+03  0.13210644270E+04  0.89971924530E+03 0.  0.
         23    2    4    4    0    0 -0.10522442195E+03 -0.30506488952E+02  0.14330853620E+03  0.20201627472E+03  0.90941815794E+02 0.  0.
         23    2    4    4    0    0  0.11677002526E+03 -0.11650176283E+02 -0.11096449241E+04  0.11190481523E+04  0.84769948441E+02 0.  0.
          2    1    3    3  502    0 -0.33277952281E+02  0.58818885584E+02 -0.75264634078E+03  0.75567426693E+03  0.00000000000E+00 0. -1.
         -1    1    3    3    0  502  0.21732348977E+02 -0.16662220350E+02 -0.18309280299E+03  0.18512941173E+03  0.00000000000E+00 0.  1.
         11    1    5    5    0    0 -0.14357261488E+02  0.28599160241E+02  0.19561446144E+02  0.37505907524E+02  0.00000000000E+00 0.  1.
        -11    1    5    5    0    0 -0.90867160463E+02 -0.59105649192E+02  0.12374709006E+03  0.16451036720E+03  0.00000000000E+00 0. -1.
          3    1    6    6  503    0  0.57285527424E+02 -0.21874330419E+02 -0.86106520627E+03  0.86324585573E+03  0.00000000000E+00 0. -1.
         -3    1    6    6    0  503  0.59484497832E+02  0.10224154136E+02 -0.24857971783E+03  0.25580229657E+03  0.00000000000E+00 0.  1.
<mgrwt>
<rscale>  0 0.12239918E+04</rscale>
<asrwt>0</asrwt>
<pdfrwt beam="1">  1        2 0.32030336E+00 0.12239918E+04</pdfrwt>
<pdfrwt beam="2">  1       -1 0.27676352E-01 0.12239918E+04</pdfrwt>
<totfact> 0.79434947E+01</totfact>
</mgrwt>
</event>
<event>
12    6  0.1457317E-007  0.2457438E+04  0.7818608E-02  0.8418307E-01
         -3   -1    0    0    0  501 -0.00000000000E+00  0.00000000000E+00  0.13380317335E+04  0.13380317335E+04  0.00000000000E+00 0.  1.
          2   -1    0    0  501    0  0.00000000000E+00 -0.00000000000E+00 -0.11283367833E+04  0.11283367833E+04  0.00000000000E+00 0. -1.
         24    2    1    2    0    0 -0.32535991698E+03  0.79671862372E+03 -0.53685523012E+03  0.10174593918E+04  0.79940196115E+02 0.  0.
        254    2    1    2    0    0  0.32535991698E+03 -0.79671862372E+03  0.74655018037E+03  0.14489091250E+04  0.89519877101E+03 0.  0.
         23    2    4    4    0    0 -0.84784153065E+02 -0.66558213025E+01  0.50771211973E+03  0.52282457540E+03  0.91330649608E+02 0.  0.
         23    2    4    4    0    0  0.41014407004E+03 -0.79006280242E+03  0.23883806065E+03  0.92608454956E+03  0.90396812800E+02 0.  0.
          4    1    3    3  502    0 -0.30023802960E+03  0.65720765417E+03 -0.44796172702E+03  0.85013792057E+03  0.00000000000E+00 0. -1.
         -3    1    3    3    0  502 -0.25121887375E+02  0.13951096955E+03 -0.88893503093E+02  0.16732147126E+03  0.00000000000E+00 0.  1.
         11    1    5    5    0    0 -0.67827194450E+02 -0.41653565260E+02  0.41005774315E+03  0.41771150394E+03  0.00000000000E+00 0.  1.
        -11    1    5    5    0    0 -0.16956958615E+02  0.34997743957E+02  0.97654376576E+02  0.10511307146E+03  0.00000000000E+00 0. -1.
          4    1    6    6  503    0  0.45171777533E+02 -0.16266168121E+03  0.50600418317E+02  0.17623766440E+03  0.00000000000E+00 0. -1.
         -4    1    6    6    0  503  0.36497229251E+03 -0.62740112121E+03  0.18823764233E+03  0.74984688516E+03  0.00000000000E+00 0.  1.
<mgrwt>
<rscale>  0 0.24574380E+04</rscale>
<asrwt>0</asrwt>
<pdfrwt beam="1">  1        2 0.17359027E+00 0.24574380E+04</pdfrwt>
<pdfrwt beam="2">  1       -3 0.20585104E+00 0.24574380E+04</pdfrwt>
<totfact> 0.15870112E+00</totfact>
</mgrwt>
</event>
<event>
12    6  0.1457317E-007  0.1135057E+04  0.7818608E-02  0.9171680E-01
          2   -1    0    0  501    0  0.00000000000E+00  0.00000000000E+00  0.23815247636E+04  0.23815247636E+04  0.00000000000E+00 0. -1.
         -1   -1    0    0    0  501 -0.00000000000E+00 -0.00000000000E+00 -0.13524479106E+03  0.13524479106E+03  0.00000000000E+00 0.  1.
         24    2    1    2    0    0 -0.90023506640E+02  0.15241374323E+02  0.53194377624E+02  0.13247219309E+03  0.79891857481E+02 0.  0.
        254    2    1    2    0    0  0.90023506640E+02 -0.15241374323E+02  0.21930855949E+04  0.23842973616E+04  0.93108160253E+03 0.  0.
         23    2    4    4    0    0  0.34096027130E+03 -0.19523900387E+03  0.41961582969E+03  0.58185225791E+03  0.90013500494E+02 0.  0.
         23    2    4    4    0    0 -0.25093676466E+03  0.17999762954E+03  0.17734697652E+04  0.18024451037E+04  0.90801635949E+02 0.  0.
          2    1    3    3  502    0 -0.81427714735E+02 -0.17132347207E+02  0.53590494182E+02  0.98974396258E+02  0.00000000000E+00 0. -1.
         -1    1    3    3    0  502 -0.85957919049E+01  0.32373721530E+02 -0.39611655809E+00  0.33497796831E+02  0.00000000000E+00 0.  1.
         11    1    5    5    0    0  0.28446916618E+03 -0.15807260821E+03  0.29110685026E+03  0.43663812734E+03  0.00000000000E+00 0. -1.
        -11    1    5    5    0    0  0.56491105114E+02 -0.37166395652E+02  0.12850897943E+03  0.14521413057E+03  0.00000000000E+00 0.  1.
          4    1    6    6  503    0 -0.21795080233E+03  0.12958258663E+03  0.12454682720E+04  0.12710174725E+04  0.00000000000E+00 0. -1.
         -4    1    6    6    0  503 -0.32985962329E+02  0.50415042910E+02  0.52800149326E+03  0.53142763115E+03  0.00000000000E+00 0.  1.
<mgrwt>
<rscale>  0 0.11350574E+04</rscale>
<asrwt>0</asrwt>
<pdfrwt beam="1">  1        2 0.36638839E+00 0.11350574E+04</pdfrwt>
<pdfrwt beam="2">  1       -1 0.20806893E-01 0.11350574E+04</pdfrwt>
<totfact> 0.88531321E+01</totfact>
</mgrwt>
</event>
<event>
12    6  0.1457317E-007  0.1856648E+04  0.7818608E-02  0.8676742E-01
          2   -1    0    0  501    0  0.00000000000E+00  0.00000000000E+00  0.11571975928E+04  0.11571975928E+04  0.00000000000E+00 0. -1.
         -3   -1    0    0    0  501 -0.00000000000E+00 -0.00000000000E+00 -0.74471745381E+03  0.74471745381E+03  0.00000000000E+00 0.  1.
         24    2    1    2    0    0  0.29300749772E+03  0.12393204346E+03  0.81007734907E+03  0.87386514470E+03  0.78755536490E+02 0.  0.
        254    2    1    2    0    0 -0.29300749772E+03 -0.12393204346E+03 -0.39759721012E+03  0.10280499019E+04  0.89307923172E+03 0.  0.
         23    2    4    4    0    0  0.35519662708E+02 -0.66308666963E+00  0.25942911837E+03  0.27748152339E+03  0.91817439731E+02 0.  0.
         23    2    4    4    0    0 -0.32852716042E+03 -0.12326895679E+03 -0.65702632850E+03  0.75056837848E+03  0.92433563169E+02 0.  0.
          2    1    3    3  502    0  0.61322945317E+02  0.53922928555E+02  0.26902984448E+03  0.28114985873E+03  0.00000000000E+00 0. -1.
         -1    1    3    3    0  502  0.23168455240E+03  0.70009114903E+02  0.54104750459E+03  0.59271528596E+03  0.00000000000E+00 0.  1.
         11    1    5    5    0    0  0.12714635535E+02  0.10480808811E+01 -0.37603084029E+01  0.13300389077E+02  0.00000000000E+00 0.  1.
        -11    1    5    5    0    0  0.22805027173E+02 -0.17111675508E+01  0.26318942678E+03  0.26418113431E+03  0.00000000000E+00 0. -1.
          1    1    6    6  503    0 -0.27944949825E+03 -0.65430787897E+02 -0.51894980465E+03  0.59302791656E+03  0.00000000000E+00 0. -1.
         -1    1    6    6    0  503 -0.49077662177E+02 -0.57838168891E+02 -0.13807652385E+03  0.15754046192E+03  0.00000000000E+00 0.  1.
<mgrwt>
<rscale>  0 0.18566478E+04</rscale>
<asrwt>0</asrwt>
<pdfrwt beam="1">  1        2 0.17803040E+00 0.18566478E+04</pdfrwt>
<pdfrwt beam="2">  1       -3 0.11457192E+00 0.18566478E+04</pdfrwt>
<totfact> 0.75746043E+00</totfact>
</mgrwt>
</event>
<event>
12    6  0.1457317E-007  0.1917622E+04  0.7818608E-02  0.8646134E-01
          2   -1    0    0  501    0  0.00000000000E+00  0.00000000000E+00  0.21070889555E+04  0.21070889555E+04  0.00000000000E+00 0. -1.
         -1   -1    0    0    0  501 -0.00000000000E+00 -0.00000000000E+00 -0.43629805380E+03  0.43629805380E+03  0.00000000000E+00 0.  1.
         24    2    1    2    0    0 -0.27677374332E+03 -0.47019772574E+03  0.13213860431E+04  0.14317687301E+04  0.78809994512E+02 0.  0.
        254    2    1    2    0    0  0.27677374332E+03  0.47019772574E+03  0.34940485866E+03  0.11116182793E+04  0.90328391843E+03 0.  0.
         23    2    4    4    0    0  0.14712626050E+02  0.82299884217E+02  0.57200526330E+03  0.58525355477E+03  0.91334384684E+02 0.  0.
         23    2    4    4    0    0  0.26206111727E+03  0.38789784152E+03 -0.22260040464E+03  0.52636472451E+03  0.91477420293E+02 0.  0.
          4    1    3    3  502    0 -0.90317508754E+02 -0.10222282020E+03  0.38829726244E+03  0.41155986366E+03  0.00000000000E+00 0. -1.
         -3    1    3    3    0  502 -0.18645623456E+03 -0.36797490554E+03  0.93308878064E+03  0.10202088664E+04  0.00000000000E+00 0.  1.
         11    1    5    5    0    0  0.31529973399E+02  0.44235933531E+02  0.49277200260E+03  0.49575720225E+03  0.00000000000E+00 0.  1.
        -11    1    5    5    0    0 -0.16817347349E+02  0.38063950686E+02  0.79233260698E+02  0.89496352521E+02  0.00000000000E+00 0. -1.
          2    1    6    6  503    0  0.61338658508E+02  0.16778354899E+03 -0.72527006331E+02  0.19280538630E+03  0.00000000000E+00 0.  1.
         -2    1    6    6    0  503  0.20072245876E+03  0.22011429253E+03 -0.15007339831E+03  0.33355933821E+03  0.00000000000E+00 0. -1.
<mgrwt>
<rscale>  0 0.19176223E+04</rscale>
<asrwt>0</asrwt>
<pdfrwt beam="1">  1        2 0.32416753E+00 0.19176223E+04</pdfrwt>
<pdfrwt beam="2">  1       -1 0.67122779E-01 0.19176223E+04</pdfrwt>
<totfact> 0.13940326E+01</totfact>
</mgrwt>
</event>
<event>
12    6  0.1457317E-007  0.1884459E+04  0.7818608E-02  0.8662631E-01
         -1   -1    0    0    0  501 -0.00000000000E+00  0.00000000000E+00  0.20739791582E+03  0.20739791582E+03  0.00000000000E+00 0.  1.
          2   -1    0    0  501    0  0.00000000000E+00 -0.00000000000E+00 -0.42806449293E+04  0.42806449293E+04  0.00000000000E+00 0. -1.
         24    2    1    2    0    0  0.12996366645E+03 -0.70921274843E+03 -0.12637538498E+04  0.14581993712E+04  0.96945016227E+02 0.  0.
        254    2    1    2    0    0 -0.12996366645E+03  0.70921274843E+03 -0.28094931637E+04  0.30298434739E+04  0.87568622375E+03 0.  0.
         23    2    4    4    0    0  0.29806844632E+03  0.58558793999E+03 -0.19151221944E+04  0.20268285230E+04  0.92643444639E+02 0.  0.
         23    2    4    4    0    0 -0.42803211276E+03  0.12362480844E+03 -0.89437096922E+03  0.10030149509E+04  0.87435566624E+02 0.  0.
          2    1    3    3  502    0  0.42437986994E+01 -0.14958620941E+03 -0.33009923941E+03  0.36243558288E+03  0.00000000000E+00 0. -1.
         -1    1    3    3    0  502  0.12571986775E+03 -0.55962653902E+03 -0.93365461038E+03  0.10957637883E+04  0.00000000000E+00 0.  1.
         11    1    5    5    0    0  0.59894686962E+02  0.12161306946E+03 -0.52099372218E+03  0.53834150011E+03  0.00000000000E+00 0.  1.
        -11    1    5    5    0    0  0.23817375935E+03  0.46397487053E+03 -0.13941284723E+04  0.14884870229E+04  0.00000000000E+00 0. -1.
          2    1    6    6  503    0 -0.40143284000E+03  0.91102107618E+02 -0.79918082613E+03  0.89896491138E+03  0.00000000000E+00 0. -1.
         -2    1    6    6    0  503 -0.26599272758E+02  0.32522700821E+02 -0.95190143088E+02  0.10405003951E+03  0.00000000000E+00 0.  1.
<mgrwt>
<rscale>  0 0.18844594E+04</rscale>
<asrwt>0</asrwt>
<pdfrwt beam="1">  1        2 0.65856076E+00 0.18844594E+04</pdfrwt>
<pdfrwt beam="2">  1       -1 0.31907372E-01 0.18844594E+04</pdfrwt>
<totfact> 0.19608878E+00</totfact>
</mgrwt>
</event>
<event>
12    6  0.1639376E-007  0.1902502E+04  0.7818608E-02  0.8653612E-01
          2   -1    0    0  501    0  0.00000000000E+00  0.00000000000E+00  0.13313064439E+04  0.13313064439E+04  0.00000000000E+00 0. -1.
         -1   -1    0    0    0  501 -0.00000000000E+00 -0.00000000000E+00 -0.67969238118E+03  0.67969238118E+03  0.00000000000E+00 0.  1.
         24    2    1    2    0    0  0.15712714446E+03  0.64065450471E+03 -0.89761114262E+02  0.67054759436E+03  0.80311174417E+02 0.  0.
        254    2    1    2    0    0 -0.15712714446E+03 -0.64065450471E+03  0.74137517695E+03  0.13404512307E+04  0.90113551417E+03 0.  0.
         23    2    4    4    0    0  0.28007786221E+03 -0.12694031405E+03 -0.17061515743E+02  0.32117888373E+03  0.91144543479E+02 0.  0.
         23    2    4    4    0    0 -0.43720500666E+03 -0.51371419067E+03  0.75843669269E+03  0.10192723470E+04  0.92948442152E+02 0.  0.
          2    1    3    3  502    0  0.17425405904E+01 -0.23781167865E+01 -0.78339049873E+00  0.30505061601E+01  0.00000000000E+00 0. -1.
         -1    1    3    3    0  502  0.15538460387E+03  0.64303262150E+03 -0.88977723763E+02  0.66749708820E+03  0.00000000000E+00 0.  1.
         11    1    5    5    0    0  0.20605470653E+03 -0.83601230732E+02 -0.52315857458E+02  0.22843961303E+03  0.00000000000E+00 0. -1.
        -11    1    5    5    0    0  0.74023155679E+02 -0.43339083316E+02  0.35254341715E+02  0.92739270695E+02  0.00000000000E+00 0.  1.
          2    1    6    6  503    0 -0.62139385455E+02 -0.45069459119E+02  0.54392534948E+02  0.94080323278E+02  0.00000000000E+00 0. -1.
         -2    1    6    6    0  503 -0.37506562121E+03 -0.46864473155E+03  0.70404415774E+03  0.92519202367E+03  0.00000000000E+00 0.  1.
<mgrwt>
<rscale>  0 0.19025024E+04</rscale>
<asrwt>0</asrwt>
<pdfrwt beam="1">  1        2 0.20481638E+00 0.19025024E+04</pdfrwt>
<pdfrwt beam="2">  1       -1 0.10456806E+00 0.19025024E+04</pdfrwt>
<totfact> 0.14544600E+01</totfact>
</mgrwt>
</event>
<event>
12    6  0.1457317E-007  0.1182850E+04  0.7818608E-02  0.9128001E-01
         -1   -1    0    0    0  501 -0.00000000000E+00  0.00000000000E+00  0.57471219348E+03  0.57471219348E+03  0.00000000000E+00 0.  1.
          2   -1    0    0  501    0  0.00000000000E+00 -0.00000000000E+00 -0.60862422076E+03  0.60862422076E+03  0.00000000000E+00 0. -1.
         24    2    1    2    0    0 -0.50518759591E+02  0.10182764247E+03  0.19883339552E+03  0.24272224139E+03  0.80363881507E+02 0.  0.
        254    2    1    2    0    0  0.50518759591E+02 -0.10182764247E+03 -0.23274542280E+03  0.94061417285E+03  0.90424751948E+03 0.  0.
         23    2    4    4    0    0  0.22966789446E+03 -0.36072843735E+03 -0.38107699851E+03  0.58071976022E+03  0.95621199823E+02 0.  0.
         23    2    4    4    0    0 -0.17914913487E+03  0.25890079488E+03  0.14833157572E+03  0.35989441263E+03  0.91638953359E+02 0.  0.
          2    1    3    3  502    0 -0.55211276287E+02  0.32155727570E+02  0.61636640398E+02  0.88776974967E+02  0.00000000000E+00 0. -1.
         -1    1    3    3    0  502  0.46925166957E+01  0.69671914896E+02  0.13719675512E+03  0.15394526642E+03  0.00000000000E+00 0.  1.
         11    1    5    5    0    0  0.12394006073E+03 -0.17844710475E+03 -0.13102329874E+03  0.25371561375E+03  0.00000000000E+00 0. -1.
        -11    1    5    5    0    0  0.10572783373E+03 -0.18228133260E+03 -0.25005369977E+03  0.32700414647E+03  0.00000000000E+00 0.  1.
          1    1    6    6  503    0 -0.57703712449E+01 -0.75457330119E+01  0.10942888558E+01  0.95620468045E+01  0.00000000000E+00 0. -1.
         -1    1    6    6    0  503 -0.17337876362E+03  0.26644652789E+03  0.14723728686E+03  0.35033236583E+03  0.00000000000E+00 0.  1.
<mgrwt>
<rscale>  0 0.11828504E+04</rscale>
<asrwt>0</asrwt>
<pdfrwt beam="1">  1        2 0.93634495E-01 0.11828504E+04</pdfrwt>
<pdfrwt beam="2">  1       -1 0.88417261E-01 0.11828504E+04</pdfrwt>
<totfact> 0.69157800E+01</totfact>
</mgrwt>
</event>
<event>
12    6  0.1457317E-007  0.1782295E+04  0.7818608E-02  0.8715772E-01
         -1   -1    0    0    0  501 -0.00000000000E+00  0.00000000000E+00  0.33229813243E+03  0.33229813243E+03  0.00000000000E+00 0.  1.
          2   -1    0    0  501    0  0.00000000000E+00 -0.00000000000E+00 -0.23898536716E+04  0.23898536716E+04  0.00000000000E+00 0. -1.
         24    2    1    2    0    0 -0.52736219646E+03  0.41087991085E+03 -0.91255922075E+03  0.11340165747E+04  0.79347797370E+02 0.  0.
        254    2    1    2    0    0  0.52736219646E+03 -0.41087991085E+03 -0.11449963184E+04  0.15881352293E+04  0.87419891901E+03 0.  0.
         23    2    4    4    0    0 -0.88989182557E+02 -0.30703725433E+03 -0.67425845856E+02  0.33897454318E+03  0.90368944182E+02 0.  0.
         23    2    4    4    0    0  0.61635137902E+03 -0.10384265652E+03 -0.10775704725E+04  0.12491606861E+04  0.92584970322E+02 0.  0.
          2    1    3    3  502    0 -0.63767747555E+02  0.42502531518E+02 -0.15109888128E+03  0.16942155334E+03  0.00000000000E+00 0. -1.
         -1    1    3    3    0  502 -0.46359444890E+03  0.36837737933E+03 -0.76146033948E+03  0.96459502137E+03  0.00000000000E+00 0.  1.
         11    1    5    5    0    0 -0.10671150919E+02 -0.12772362471E+02 -0.27106274272E+02  0.31808124905E+02  0.00000000000E+00 0. -1.
        -11    1    5    5    0    0 -0.78318031638E+02 -0.29426489186E+03 -0.40319571584E+02  0.30716641827E+03  0.00000000000E+00 0.  1.
          2    1    6    6  503    0  0.96989863670E+02 -0.35203578124E+02 -0.12545450772E+03  0.16243509188E+03  0.00000000000E+00 0. -1.
         -2    1    6    6    0  503  0.51936151534E+03 -0.68639078394E+02 -0.95211596483E+03  0.10867255942E+04  0.00000000000E+00 0.  1.
<mgrwt>
<rscale>  0 0.17822951E+04</rscale>
<asrwt>0</asrwt>
<pdfrwt beam="1">  1        2 0.36766979E+00 0.17822951E+04</pdfrwt>
<pdfrwt beam="2">  1       -1 0.51122790E-01 0.17822951E+04</pdfrwt>
<totfact> 0.16700165E+01</totfact>
</mgrwt>
</event>
<event>
12    6  0.1457317E-007  0.1596533E+04  0.7818608E-02  0.8822681E-01
         -1   -1    0    0    0  501 -0.00000000000E+00  0.00000000000E+00  0.55282850636E+03  0.55282850636E+03  0.00000000000E+00 0.  1.
          2   -1    0    0  501    0  0.00000000000E+00 -0.00000000000E+00 -0.11526709601E+04  0.11526709601E+04  0.00000000000E+00 0. -1.
         24    2    1    2    0    0  0.45231998465E+03  0.21758426991E+03 -0.43387733454E+03  0.66844082074E+03  0.81408269679E+02 0.  0.
        254    2    1    2    0    0 -0.45231998465E+03 -0.21758426991E+03 -0.16596511922E+03  0.10370586458E+04  0.89219388639E+03 0.  0.
         23    2    4    4    0    0 -0.88289312815E+02 -0.35215164732E+03 -0.42251159579E+03  0.56292648523E+03  0.81020946229E+02 0.  0.
         23    2    4    4    0    0 -0.36403067184E+03  0.13456737741E+03  0.25654647657E+03  0.47413216053E+03  0.91424842950E+02 0.  0.
          2    1    3    3  502    0  0.38350885354E+03  0.16191151498E+03 -0.38650036243E+03  0.56804657343E+03  0.00000000000E+00 0. -1.
         -1    1    3    3    0  502  0.68811131108E+02  0.55672754929E+02 -0.47376972117E+02  0.10039424731E+03  0.00000000000E+00 0.  1.
         11    1    5    5    0    0  0.15663707468E+02 -0.39152313779E+02 -0.48452978166E+02  0.64233530956E+02  0.00000000000E+00 0. -1.
        -11    1    5    5    0    0 -0.10395302028E+03 -0.31299933354E+03 -0.37405861762E+03  0.49869295427E+03  0.00000000000E+00 0.  1.
          1    1    6    6  503    0 -0.64498735461E+02  0.59884726144E+00  0.13766029434E+02  0.65954143619E+02  0.00000000000E+00 0. -1.
         -1    1    6    6    0  503 -0.29953193638E+03  0.13396853015E+03  0.24278044713E+03  0.40817801691E+03  0.00000000000E+00 0.  1.
<mgrwt>
<rscale>  0 0.15965330E+04</rscale>
<asrwt>0</asrwt>
<pdfrwt beam="1">  1        2 0.17733399E+00 0.15965330E+04</pdfrwt>
<pdfrwt beam="2">  1       -1 0.85050540E-01 0.15965330E+04</pdfrwt>
<totfact> 0.30257080E+01</totfact>
</mgrwt>
</event>
<event>
12    6  0.1457317E-007  0.1211442E+04  0.7818608E-02  0.9102900E-01
         -1   -1    0    0    0  501 -0.00000000000E+00  0.00000000000E+00  0.36259214955E+03  0.36259214955E+03  0.00000000000E+00 0.  1.
          2   -1    0    0  501    0  0.00000000000E+00 -0.00000000000E+00 -0.10118755848E+04  0.10118755848E+04  0.00000000000E+00 0. -1.
         24    2    1    2    0    0  0.17004975302E+03  0.11076352973E+03  0.46558045796E+02  0.22263635559E+03  0.78827769107E+02 0.  0.
        254    2    1    2    0    0 -0.17004975302E+03 -0.11076352973E+03 -0.69584148106E+03  0.11518313788E+04  0.89517298907E+03 0.  0.
         23    2    4    4    0    0  0.12991562897E+03 -0.17688734324E+03  0.12648543745E+03  0.26927688746E+03  0.91346994375E+02 0.  0.
         23    2    4    4    0    0 -0.29996538199E+03  0.66123813512E+02 -0.82232691852E+03  0.88255449132E+03  0.91264889935E+02 0.  0.
          2    1    3    3  502    0  0.82343152090E+02  0.51371459995E+02  0.62619609570E+02  0.11550167575E+03  0.00000000000E+00 0. -1.
         -1    1    3    3    0  502  0.87706600925E+02  0.59392069737E+02 -0.16061563774E+02  0.10713467984E+03  0.00000000000E+00 0.  1.
         11    1    5    5    0    0  0.80221304365E+02 -0.42456961140E+02  0.26595915940E+02  0.94580092873E+02  0.00000000000E+00 0. -1.
        -11    1    5    5    0    0  0.49694324607E+02 -0.13443038210E+03  0.99889521512E+02  0.17469679459E+03  0.00000000000E+00 0.  1.
          3    1    6    6  503    0 -0.22215402302E+03  0.71678703953E+01 -0.54712587160E+03  0.59055102039E+03  0.00000000000E+00 0. -1.
         -3    1    6    6    0  503 -0.77811358964E+02  0.58955943116E+02 -0.27520104691E+03  0.29200347093E+03  0.00000000000E+00 0.  1.
<mgrwt>
<rscale>  0 0.12114424E+04</rscale>
<asrwt>0</asrwt>
<pdfrwt beam="1">  1        2 0.15567317E+00 0.12114424E+04</pdfrwt>
<pdfrwt beam="2">  1       -1 0.55783408E-01 0.12114424E+04</pdfrwt>
<totfact> 0.90469103E+01</totfact>
</mgrwt>
</event>
<event>
12    6  0.1457317E-007  0.1634222E+04  0.7818608E-02  0.8799796E-01
          2   -1    0    0  501    0  0.00000000000E+00  0.00000000000E+00  0.73426630850E+03  0.73426630850E+03  0.00000000000E+00 0. -1.
         -1   -1    0    0    0  501 -0.00000000000E+00 -0.00000000000E+00 -0.90930288472E+03  0.90930288472E+03  0.00000000000E+00 0.  1.
         24    2    1    2    0    0 -0.36507899426E+03  0.29403518606E+03  0.24129339507E+03  0.53321245822E+03  0.79709851352E+02 0.  0.
        254    2    1    2    0    0  0.36507899426E+03 -0.29403518606E+03 -0.41632997129E+03  0.11103567350E+04  0.91641806578E+03 0.  0.
         23    2    4    4    0    0  0.18389254514E+03  0.31224827309E+03 -0.60288058217E+02  0.37856708091E+03  0.91449070987E+02 0.  0.
         23    2    4    4    0    0  0.18118644912E+03 -0.60628345915E+03 -0.35604191307E+03  0.73178965409E+03  0.91335052405E+02 0.  0.
          2    1    3    3  502    0 -0.31750655973E+03  0.27201399922E+03  0.23704963468E+03  0.48061893485E+03  0.00000000000E+00 0. -1.
         -1    1    3    3    0  502 -0.47572434534E+02  0.22021186841E+02  0.42437603913E+01  0.52593523363E+02  0.00000000000E+00 0.  1.
         11    1    5    5    0    0  0.10033894261E+03  0.86216728291E+02 -0.30403262001E+02  0.13574087808E+03  0.00000000000E+00 0. -1.
        -11    1    5    5    0    0  0.83553602530E+02  0.22603154480E+03 -0.29884796216E+02  0.24282620284E+03  0.00000000000E+00 0.  1.
          3    1    6    6  503    0  0.37827513648E+02 -0.27103486877E+03 -0.13189202903E+03  0.30378664915E+03  0.00000000000E+00 0. -1.
         -3    1    6    6    0  503  0.14335893547E+03 -0.33524859037E+03 -0.22414988404E+03  0.42800300495E+03  0.00000000000E+00 0.  1.
<mgrwt>
<rscale>  0 0.16342221E+04</rscale>
<asrwt>0</asrwt>
<pdfrwt beam="1">  1        2 0.11296405E+00 0.16342221E+04</pdfrwt>
<pdfrwt beam="2">  1       -1 0.13989275E+00 0.16342221E+04</pdfrwt>
<totfact> 0.17682390E+01</totfact>
</mgrwt>
</event>
<event>
12    6  0.1457317E-007  0.3014887E+04  0.7818608E-02  0.8239493E-01
          2   -1    0    0  501    0  0.00000000000E+00  0.00000000000E+00  0.23067410841E+04  0.23067410841E+04  0.00000000000E+00 0. -1.
         -1   -1    0    0    0  501 -0.00000000000E+00 -0.00000000000E+00 -0.98510668434E+03  0.98510668434E+03  0.00000000000E+00 0.  1.
         24    2    1    2    0    0 -0.42511342150E+03  0.39933914421E+02 -0.82094379638E+03  0.92874072772E+03  0.79337783284E+02 0.  0.
        254    2    1    2    0    0  0.42511342150E+03 -0.39933914421E+02  0.21425781961E+04  0.23631070407E+04  0.90073160297E+03 0.  0.
         23    2    4    4    0    0 -0.11654007439E+03  0.64716827319E+02  0.11113216130E+02  0.15952967966E+03  0.86927317014E+02 0.  0.
         23    2    4    4    0    0  0.54165349589E+03 -0.10465074174E+03  0.21314649800E+04  0.22035773610E+04  0.90939197948E+02 0.  0.
          4    1    3    3  502    0 -0.65788505607E+01  0.98031603092E+00 -0.24171967259E+00  0.66558788015E+01  0.00000000000E+00 0. -1.
         -3    1    3    3    0  502 -0.41853457094E+03  0.38953598390E+02 -0.82070207671E+03  0.92208484892E+03  0.00000000000E+00 0.  1.
         11    1    5    5    0    0 -0.30095555949E+02 -0.20825618326E+02  0.98799542044E+01  0.37908605377E+02  0.00000000000E+00 0.  1.
        -11    1    5    5    0    0 -0.86444518443E+02  0.85542445644E+02  0.12332619251E+01  0.12162107429E+03  0.00000000000E+00 0. -1.
          3    1    6    6  503    0  0.54237934926E+03 -0.10879614518E+03  0.20925206638E+04  0.21644063131E+04  0.00000000000E+00 0. -1.
         -3    1    6    6    0  503 -0.72585336350E+00  0.41454034372E+01  0.38944316166E+02  0.39171047910E+02  0.00000000000E+00 0.  1.
<mgrwt>
<rscale>  0 0.30148871E+04</rscale>
<asrwt>0</asrwt>
<pdfrwt beam="1">  1        2 0.35488324E+00 0.30148871E+04</pdfrwt>
<pdfrwt beam="2">  1       -1 0.15155488E+00 0.30148871E+04</pdfrwt>
<totfact> 0.14819144E+00</totfact>
</mgrwt>
</event>
<event>
12    6  0.1457317E-007  0.2673380E+04  0.7818608E-02  0.8343694E-01
         -1   -1    0    0    0  501 -0.00000000000E+00  0.00000000000E+00  0.52538194084E+03  0.52538194084E+03  0.00000000000E+00 0.  1.
          2   -1    0    0  501    0  0.00000000000E+00 -0.00000000000E+00 -0.34008408672E+04  0.34008408672E+04  0.00000000000E+00 0. -1.
         24    2    1    2    0    0  0.91217445001E+03  0.15741912862E+03 -0.18995779584E+03  0.94841819941E+03  0.81056199430E+02 0.  0.
        254    2    1    2    0    0 -0.91217445001E+03 -0.15741912862E+03 -0.26855011305E+04  0.29778046086E+04  0.89362237875E+03 0.  0.
         23    2    4    4    0    0 -0.25867859249E+03  0.21102531699E+02 -0.19661179710E+04  0.19851788474E+04  0.89192204350E+02 0.  0.
         23    2    4    4    0    0 -0.65349585752E+03 -0.17852166032E+03 -0.71938315952E+03  0.99262576120E+03  0.94164497553E+02 0.  0.
          2    1    3    3  502    0  0.52512756838E+03  0.88457590767E+02 -0.15001207272E+03  0.55325159774E+03  0.00000000000E+00 0. -1.
         -1    1    3    3    0  502  0.38704688163E+03  0.68961537854E+02 -0.39945723120E+02  0.39516660167E+03  0.00000000000E+00 0.  1.
         11    1    5    5    0    0 -0.24943078551E+03 -0.18549184614E+01 -0.17629441646E+04  0.17805030988E+04  0.00000000000E+00 0.  1.
        -11    1    5    5    0    0 -0.92478069859E+01  0.22957450160E+02 -0.20317380637E+03  0.20467574855E+03  0.00000000000E+00 0. -1.
          1    1    6    6  503    0 -0.13937702572E+03 -0.78282281587E+02 -0.15596544324E+03  0.22333671977E+03  0.00000000000E+00 0. -1.
         -1    1    6    6    0  503 -0.51411883179E+03 -0.10023937873E+03 -0.56341771628E+03  0.76928904143E+03  0.00000000000E+00 0.  1.
<mgrwt>
<rscale>  0 0.26733802E+04</rscale>
<asrwt>0</asrwt>
<pdfrwt beam="1">  1        2 0.52320629E+00 0.26733802E+04</pdfrwt>
<pdfrwt beam="2">  1       -1 0.80827990E-01 0.26733802E+04</pdfrwt>
<totfact> 0.14524287E+00</totfact>
</mgrwt>
</event>
<event>
12    6  0.1457317E-007  0.2099790E+04  0.7818608E-02  0.8561336E-01
          2   -1    0    0  501    0  0.00000000000E+00  0.00000000000E+00  0.31567212297E+04  0.31567212297E+04  0.00000000000E+00 0. -1.
         -1   -1    0    0    0  501 -0.00000000000E+00 -0.00000000000E+00 -0.34918489615E+03  0.34918489615E+03  0.00000000000E+00 0.  1.
         24    2    1    2    0    0  0.33066544621E+03  0.18425513501E+03  0.24298577168E+04  0.24604778045E+04  0.80330010561E+02 0.  0.
        254    2    1    2    0    0 -0.33066544621E+03 -0.18425513501E+03  0.37767861672E+03  0.10454283213E+04  0.89832602397E+03 0.  0.
         23    2    4    4    0    0  0.18305016404E+03  0.52319197780E+02 -0.15701042890E+03  0.26204092187E+03  0.88139145334E+02 0.  0.
         23    2    4    4    0    0 -0.51371561025E+03 -0.23657433279E+03  0.53468904562E+03  0.78338739942E+03  0.89063454432E+02 0.  0.
          4    1    3    3  502    0  0.25553501857E+03  0.17793208541E+03  0.19250040639E+04  0.19500252867E+04  0.00000000000E+00 0. -1.
         -3    1    3    3    0  502  0.75130427646E+02  0.63230496043E+01  0.50485365290E+03  0.51045251783E+03  0.00000000000E+00 0.  1.
         11    1    5    5    0    0  0.10150775531E+03  0.55268398644E+02 -0.13462029322E+03  0.17742898191E+03  0.00000000000E+00 0.  1.
        -11    1    5    5    0    0  0.81542408732E+02 -0.29492008645E+01 -0.22390135680E+02  0.84611939957E+02  0.00000000000E+00 0. -1.
          4    1    6    6  503    0 -0.12934611961E+03 -0.10104826921E+03  0.17305482553E+03  0.23851445241E+03  0.00000000000E+00 0. -1.
         -4    1    6    6    0  503 -0.38436949064E+03 -0.13552606358E+03  0.36163422009E+03  0.54487294701E+03  0.00000000000E+00 0.  1.
<mgrwt>
<rscale>  0 0.20997899E+04</rscale>
<asrwt>0</asrwt>
<pdfrwt beam="1">  1        2 0.48564940E+00 0.20997899E+04</pdfrwt>
<pdfrwt beam="2">  1       -1 0.53720755E-01 0.20997899E+04</pdfrwt>
<totfact> 0.50871178E+00</totfact>
</mgrwt>
</event>
<event>
12    6  0.1457317E-007  0.2374528E+04  0.7818608E-02  0.8449102E-01
         -1   -1    0    0    0  501 -0.00000000000E+00  0.00000000000E+00  0.79136501641E+03  0.79136501641E+03  0.00000000000E+00 0.  1.
          2   -1    0    0  501    0  0.00000000000E+00 -0.00000000000E+00 -0.17812211417E+04  0.17812211417E+04  0.00000000000E+00 0. -1.
         24    2    1    2    0    0 -0.19280858035E+02  0.58929570958E+03 -0.13182088525E+04  0.14462639177E+04  0.79771900681E+02 0.  0.
        254    2    1    2    0    0  0.19280858035E+02 -0.58929570958E+03  0.32835272718E+03  0.11263222404E+04  0.90174557995E+03 0.  0.
         23    2    4    4    0    0 -0.33463901371E+03  0.12976439126E+02  0.22876311238E+03  0.41502983153E+03  0.88122312755E+02 0.  0.
         23    2    4    4    0    0  0.35391987175E+03 -0.60227214871E+03  0.99589614802E+02  0.71129240887E+03  0.89597895112E+02 0.  0.
          2    1    3    3  502    0 -0.54987185217E+01  0.57235610376E+03 -0.12543215759E+04  0.13787473885E+04  0.00000000000E+00 0. -1.
         -3    1    3    3    0  502 -0.13782139513E+02  0.16939605819E+02 -0.63887276612E+02  0.67516529293E+02  0.00000000000E+00 0.  1.
         11    1    5    5    0    0 -0.33319119028E+03  0.10442951730E+02  0.20554729644E+03  0.39163135165E+03  0.00000000000E+00 0.  1.
        -11    1    5    5    0    0 -0.14478234356E+01  0.25334873964E+01  0.23215815945E+02  0.23398479888E+02  0.00000000000E+00 0. -1.
          4    1    6    6  503    0  0.23272935351E+03 -0.47239492844E+03  0.77605655378E+02  0.53229931256E+03  0.00000000000E+00 0. -1.
         -4    1    6    6    0  503  0.12119051823E+03 -0.12987722026E+03  0.21983959425E+02  0.17899309631E+03  0.00000000000E+00 0.  1.
<mgrwt>
<rscale>  0 0.23745282E+04</rscale>
<asrwt>0</asrwt>
<pdfrwt beam="1">  1        2 0.27403402E+00 0.23745282E+04</pdfrwt>
<pdfrwt beam="2">  1       -1 0.12174846E+00 0.23745282E+04</pdfrwt>
<totfact> 0.54168403E+00</totfact>
</mgrwt>
</event>
<event>
12    6  0.1457317E-007  0.2287296E+04  0.7818608E-02  0.8482947E-01
         -1   -1    0    0    0  501 -0.00000000000E+00  0.00000000000E+00  0.47292008878E+03  0.47292008878E+03  0.00000000000E+00 0.  1.
          2   -1    0    0  501    0  0.00000000000E+00 -0.00000000000E+00 -0.27656473638E+04  0.27656473638E+04  0.00000000000E+00 0. -1.
         24    2    1    2    0    0 -0.56962329006E+03 -0.59333010503E+03 -0.26002697717E+03  0.86623718893E+03  0.79003370272E+02 0.  0.
        254    2    1    2    0    0  0.56962329006E+03  0.59333010503E+03 -0.20327002978E+04  0.23723302636E+04  0.90530054282E+03 0.  0.
         23    2    4    4    0    0  0.70252370569E+03  0.70441699747E+03 -0.18604145585E+04  0.21118979302E+04  0.96060784946E+02 0.  0.
         23    2    4    4    0    0 -0.13290041563E+03 -0.11108689244E+03 -0.17228573926E+03  0.26043233345E+03  0.90220874549E+02 0.  0.
          2    1    3    3  502    0 -0.21496348123E+03 -0.25080674639E+03 -0.68904228829E+02  0.33743312678E+03  0.00000000000E+00 0. -1.
         -1    1    3    3    0  502 -0.35465980884E+03 -0.34252335864E+03 -0.19112274834E+03  0.52880406215E+03  0.00000000000E+00 0.  1.
         11    1    5    5    0    0  0.65717177248E+03  0.65492968906E+03 -0.17788053253E+04  0.20062293043E+04  0.00000000000E+00 0.  1.
        -11    1    5    5    0    0  0.45351933210E+02  0.49487308407E+02 -0.81609233261E+02  0.10566862587E+03  0.00000000000E+00 0. -1.
          1    1    6    6  503    0 -0.42231014274E+02 -0.48430841018E+02 -0.12491035902E+03  0.14046922339E+03  0.00000000000E+00 0. -1.
         -1    1    6    6    0  503 -0.90669401355E+02 -0.62656051426E+02 -0.47375380243E+02  0.11996311006E+03  0.00000000000E+00 0.  1.
<mgrwt>
<rscale>  0 0.22872955E+04</rscale>
<asrwt>0</asrwt>
<pdfrwt beam="1">  1        2 0.42548419E+00 0.22872955E+04</pdfrwt>
<pdfrwt beam="2">  1       -1 0.72756940E-01 0.22872955E+04</pdfrwt>
<totfact> 0.47722948E+00</totfact>
</mgrwt>
</event>
<event>
12    6  0.1457317E-007  0.2313099E+04  0.7818608E-02  0.8472774E-01
          2   -1    0    0  501    0  0.00000000000E+00  0.00000000000E+00  0.30848500581E+04  0.30848500581E+04  0.00000000000E+00 0. -1.
         -1   -1    0    0    0  501 -0.00000000000E+00 -0.00000000000E+00 -0.43360507995E+03  0.43360507995E+03  0.00000000000E+00 0.  1.
         24    2    1    2    0    0 -0.67381829901E+03 -0.18254319269E+03  0.21722722024E+04  0.22830760850E+04  0.79478117690E+02 0.  0.
        254    2    1    2    0    0  0.67381829901E+03  0.18254319269E+03  0.47897277566E+03  0.12353790530E+04  0.89966291880E+03 0.  0.
         23    2    4    4    0    0  0.67764873184E+03  0.14357685997E+03 -0.46674644505E+02  0.70026431123E+03  0.91484778257E+02 0.  0.
         23    2    4    4    0    0 -0.38304328291E+01  0.38966332722E+02  0.52564742017E+03  0.53511474176E+03  0.92247109555E+02 0.  0.
          4    1    3    3  502    0 -0.66865719759E+03 -0.18345436931E+03  0.21684050798E+04  0.22765628793E+04  0.00000000000E+00 0. -1.
         -3    1    3    3    0  502 -0.51611014247E+01  0.91117661874E+00  0.38671226718E+01  0.65132057011E+01  0.00000000000E+00 0.  1.
         11    1    5    5    0    0  0.56579219609E+02 -0.11410456302E+02 -0.13574701398E+02  0.59293162528E+02  0.00000000000E+00 0. -1.
        -11    1    5    5    0    0  0.62106951223E+03  0.15498731627E+03 -0.33099943107E+02  0.64097114870E+03  0.00000000000E+00 0.  1.
          2    1    6    6  503    0  0.36457489829E+02 -0.17227562075E+01  0.30429880553E+03  0.30647981908E+03  0.00000000000E+00 0. -1.
         -2    1    6    6    0  503 -0.40287922659E+02  0.40689088929E+02  0.22134861464E+03  0.22863492269E+03  0.00000000000E+00 0.  1.
<mgrwt>
<rscale>  0 0.23130989E+04</rscale>
<asrwt>0</asrwt>
<pdfrwt beam="1">  1        2 0.47459230E+00 0.23130989E+04</pdfrwt>
<pdfrwt beam="2">  1       -1 0.66708476E-01 0.23130989E+04</pdfrwt>
<totfact> 0.36131581E+00</totfact>
</mgrwt>
</event>
<event>
12    6  0.1457317E-007  0.1441925E+04  0.7818608E-02  0.8924018E-01
          2   -1    0    0  501    0  0.00000000000E+00  0.00000000000E+00  0.21020855885E+04  0.21020855885E+04  0.00000000000E+00 0. -1.
         -1   -1    0    0    0  501 -0.00000000000E+00 -0.00000000000E+00 -0.24727215632E+03  0.24727215632E+03  0.00000000000E+00 0.  1.
         24    2    1    2    0    0 -0.12029361076E+03  0.35781232739E+03  0.22174055320E+03  0.44505819044E+03  0.80048145055E+02 0.  0.
        254    2    1    2    0    0  0.12029361076E+03 -0.35781232739E+03  0.16330728790E+04  0.19042995544E+04  0.90384155156E+03 0.  0.
         23    2    4    4    0    0  0.42104201519E+03 -0.21901750979E+03  0.14216241839E+04  0.15014959038E+04  0.90717036275E+02 0.  0.
         23    2    4    4    0    0 -0.30074840443E+03 -0.13879481760E+03  0.21144869507E+03  0.40280365059E+03  0.88468220964E+02 0.  0.
          4    1    3    3  502    0 -0.28221832993E+02  0.18646399478E+02  0.26919834176E+02  0.43230053702E+02  0.00000000000E+00 0. -1.
         -3    1    3    3    0  502 -0.92071777763E+02  0.33916592791E+03  0.19482071902E+03  0.40182813674E+03  0.00000000000E+00 0.  1.
         11    1    5    5    0    0  0.27693664811E+03 -0.16114190236E+03  0.10737057855E+04  0.11204930761E+04  0.00000000000E+00 0.  1.
        -11    1    5    5    0    0  0.14410536708E+03 -0.57875607429E+02  0.34791839836E+03  0.38100282764E+03  0.00000000000E+00 0. -1.
          2    1    6    6  503    0 -0.41707850633E+02  0.73348187311E+01  0.97804599791E+01  0.43462647960E+02  0.00000000000E+00 0. -1.
         -2    1    6    6    0  503 -0.25904055380E+03 -0.14612963633E+03  0.20166823509E+03  0.35934100263E+03  0.00000000000E+00 0.  1.
<mgrwt>
<rscale>  0 0.14419254E+04</rscale>
<asrwt>0</asrwt>
<pdfrwt beam="1">  1        2 0.32339777E+00 0.14419254E+04</pdfrwt>
<pdfrwt beam="2">  1       -1 0.38041872E-01 0.14419254E+04</pdfrwt>
<totfact> 0.43274709E+01</totfact>
</mgrwt>
</event>
<event>
12    6  0.1457317E-007  0.2266840E+04  0.7818608E-02  0.8491111E-01
          2   -1    0    0  501    0  0.00000000000E+00  0.00000000000E+00  0.20409370638E+04  0.20409370638E+04  0.00000000000E+00 0. -1.
         -1   -1    0    0    0  501 -0.00000000000E+00 -0.00000000000E+00 -0.62943702346E+03  0.62943702346E+03  0.00000000000E+00 0.  1.
         24    2    1    2    0    0 -0.43795855372E+03 -0.81873690224E+03  0.91260200992E+03  0.13043928853E+04  0.80377614573E+02 0.  0.
        254    2    1    2    0    0  0.43795855372E+03  0.81873690224E+03  0.49889803037E+03  0.13659812019E+04  0.86883116273E+03 0.  0.
         23    2    4    4    0    0  0.28407898646E+03  0.76647687812E+03  0.70851409256E+03  0.10855470419E+04  0.90733046235E+02 0.  0.
         23    2    4    4    0    0  0.15387956727E+03  0.52260024123E+02 -0.20961606219E+03  0.28043415994E+03  0.91073559233E+02 0.  0.
          4    1    3    3  502    0 -0.11664808712E+03 -0.20294969358E+03  0.27951981040E+03  0.36459111174E+03  0.00000000000E+00 0. -1.
         -3    1    3    3    0  502 -0.32131046660E+03 -0.61578720866E+03  0.63308219952E+03  0.93980177359E+03  0.00000000000E+00 0.  1.
         11    1    5    5    0    0  0.71654938059E+02  0.11594446407E+03  0.14556646935E+03  0.19941701506E+03  0.00000000000E+00 0.  1.
        -11    1    5    5    0    0  0.21242404840E+03  0.65053241405E+03  0.56294762321E+03  0.88613002688E+03  0.00000000000E+00 0. -1.
          3    1    6    6  503    0  0.15086764150E+03  0.19379675210E+02 -0.15934380117E+03  0.22028859261E+03  0.00000000000E+00 0. -1.
         -3    1    6    6    0  503  0.30119257638E+01  0.32880348913E+02 -0.50272261022E+02  0.60145567332E+02  0.00000000000E+00 0.  1.
<mgrwt>
<rscale>  0 0.22668404E+04</rscale>
<asrwt>0</asrwt>
<pdfrwt beam="1">  1        2 0.31399031E+00 0.22668404E+04</pdfrwt>
<pdfrwt beam="2">  1       -1 0.96836466E-01 0.22668404E+04</pdfrwt>
<totfact> 0.67254689E+00</totfact>
</mgrwt>
</event>
<event>
12    6  0.1457317E-007  0.2065864E+04  0.7818608E-02  0.8576432E-01
         -1   -1    0    0    0  501 -0.00000000000E+00  0.00000000000E+00  0.60604439881E+03  0.60604439881E+03  0.00000000000E+00 0.  1.
          2   -1    0    0  501    0  0.00000000000E+00 -0.00000000000E+00 -0.17605116833E+04  0.17605116833E+04  0.00000000000E+00 0. -1.
         24    2    1    2    0    0  0.26969099257E+03 -0.78564999371E+03 -0.34639860683E+03  0.90339619960E+03  0.78444595427E+02 0.  0.
        254    2    1    2    0    0 -0.26969099257E+03  0.78564999371E+03 -0.80806867768E+03  0.14631598825E+04  0.89324280568E+03 0.  0.
         23    2    4    4    0    0 -0.21971359422E+03 -0.14252706907E+03 -0.11192312694E+03  0.29832717892E+03  0.88793526985E+02 0.  0.
         23    2    4    4    0    0 -0.49977398357E+02  0.92817706278E+03 -0.69614555073E+03  0.11648327036E+04  0.90588075190E+02 0.  0.
          2    1    3    3  502    0  0.26298649966E+03 -0.70917233555E+03 -0.32817800178E+03  0.82449263269E+03  0.00000000000E+00 0. -1.
         -3    1    3    3    0  502  0.67044929182E+01 -0.76477658160E+02 -0.18220605049E+02  0.78903566911E+02  0.00000000000E+00 0.  1.
         11    1    5    5    0    0 -0.19934542737E+03 -0.12722816663E+03 -0.12730010858E+03  0.26857200792E+03  0.00000000000E+00 0.  1.
        -11    1    5    5    0    0 -0.20368166848E+02 -0.15298902447E+02  0.15376981634E+02  0.29755170996E+02  0.00000000000E+00 0. -1.
          2    1    6    6  503    0  0.21576210399E+02  0.31244645869E+03 -0.25748801662E+03  0.40544839512E+03  0.00000000000E+00 0. -1.
         -2    1    6    6    0  503 -0.71553608756E+02  0.61573060409E+03 -0.43865753412E+03  0.75938430849E+03  0.00000000000E+00 0.  1.
<mgrwt>
<rscale>  0 0.20658637E+04</rscale>
<asrwt>0</asrwt>
<pdfrwt beam="1">  1        2 0.27084795E+00 0.20658637E+04</pdfrwt>
<pdfrwt beam="2">  1       -1 0.93237600E-01 0.20658637E+04</pdfrwt>
<totfact> 0.10664931E+01</totfact>
</mgrwt>
</event>
<event>
12    6  0.1457317E-007  0.2290646E+04  0.7818608E-02  0.8481618E-01
         -1   -1    0    0    0  501 -0.00000000000E+00  0.00000000000E+00  0.95344484488E+03  0.95344484488E+03  0.00000000000E+00 0.  1.
          2   -1    0    0  501    0  0.00000000000E+00 -0.00000000000E+00 -0.13758164703E+04  0.13758164703E+04  0.00000000000E+00 0. -1.
         24    2    1    2    0    0 -0.36965113216E+03 -0.75343188694E+03 -0.64816384108E+03  0.10633806840E+04  0.79753033607E+02 0.  0.
        254    2    1    2    0    0  0.36965113216E+03  0.75343188694E+03  0.22579221568E+03  0.12658806312E+04  0.92041842660E+03 0.  0.
         23    2    4    4    0    0  0.33748173038E+03  0.12809705318E+03 -0.27144027386E+03  0.46096249642E+03  0.92216199585E+02 0.  0.
         23    2    4    4    0    0  0.32169401788E+02  0.62533483376E+03  0.49723248954E+03  0.80491813478E+03  0.92598759853E+02 0.  0.
          2    1    3    3  502    0 -0.31229831452E+03 -0.68747650220E+03 -0.59198428680E+03  0.95947880339E+03  0.00000000000E+00 0. -1.
         -3    1    3    3    0  502 -0.57352817644E+02 -0.65955384736E+02 -0.56179554287E+02  0.10390188058E+03  0.00000000000E+00 0.  1.
         11    1    5    5    0    0  0.29016105586E+03  0.11309930617E+03 -0.18770240234E+03  0.36361667074E+03  0.00000000000E+00 0. -1.
        -11    1    5    5    0    0  0.47320674516E+02  0.14997747011E+02 -0.83737871520E+02  0.97345825687E+02  0.00000000000E+00 0.  1.
          3    1    6    6  503    0 -0.20721690687E+02  0.42215507823E+03  0.34484875526E+03  0.54549515355E+03  0.00000000000E+00 0. -1.
         -3    1    6    6    0  503  0.52891092475E+02  0.20317975552E+03  0.15238373427E+03  0.25942298123E+03  0.00000000000E+00 0.  1.
<mgrwt>
<rscale>  0 0.22906463E+04</rscale>
<asrwt>0</asrwt>
<pdfrwt beam="1">  1        2 0.21166407E+00 0.22906463E+04</pdfrwt>
<pdfrwt beam="2">  1       -1 0.14668382E+00 0.22906463E+04</pdfrwt>
<totfact> 0.57231733E+00</totfact>
</mgrwt>
</event>
<event>
12    6  0.1457317E-007  0.1773025E+04  0.7818608E-02  0.8720777E-01
         -1   -1    0    0    0  501 -0.00000000000E+00  0.00000000000E+00  0.33851615839E+03  0.33851615839E+03  0.00000000000E+00 0.  1.
          2   -1    0    0  501    0  0.00000000000E+00 -0.00000000000E+00 -0.23216167736E+04  0.23216167736E+04  0.00000000000E+00 0. -1.
         24    2    1    2    0    0  0.50834512996E+03  0.74727921782E+02 -0.10278838261E+03  0.52999165552E+03  0.79540366269E+02 0.  0.
        254    2    1    2    0    0 -0.50834512996E+03 -0.74727921782E+02 -0.18803122326E+04  0.21301412765E+04  0.85902778315E+03 0.  0.
         23    2    4    4    0    0 -0.56749497501E+03 -0.36773657123E+03 -0.13971185283E+04  0.15548318105E+04  0.91000243080E+02 0.  0.
         23    2    4    4    0    0  0.59149845050E+02  0.29300864944E+03 -0.48319370431E+03  0.57530946602E+03  0.90288720138E+02 0.  0.
          2    1    3    3  502    0  0.33459367254E+03  0.72166733855E+02 -0.98459436258E+02  0.35616740975E+03  0.00000000000E+00 0. -1.
         -1    1    3    3    0  502  0.17375145743E+03  0.25611879271E+01 -0.43289463566E+01  0.17382424577E+03  0.00000000000E+00 0.  1.
         11    1    5    5    0    0 -0.50432679087E+03 -0.32261606881E+03 -0.11608774050E+04  0.13061634619E+04  0.00000000000E+00 0.  1.
        -11    1    5    5    0    0 -0.63168184145E+02 -0.45120502417E+02 -0.23624112330E+03  0.24866834853E+03  0.00000000000E+00 0. -1.
          4    1    6    6  503    0 -0.18078486373E+02  0.13278389988E+03 -0.19360355632E+03  0.23545855847E+03  0.00000000000E+00 0. -1.
         -4    1    6    6    0  503  0.77228331423E+02  0.16022474956E+03 -0.28959014799E+03  0.33985090754E+03  0.00000000000E+00 0.  1.
<mgrwt>
<rscale>  0 0.17730254E+04</rscale>
<asrwt>0</asrwt>
<pdfrwt beam="1">  1        2 0.35717181E+00 0.17730254E+04</pdfrwt>
<pdfrwt beam="2">  1       -1 0.52079409E-01 0.17730254E+04</pdfrwt>
<totfact> 0.17639173E+01</totfact>
</mgrwt>
</event>
<event>
12    6  0.1457317E-007  0.1759867E+04  0.7818608E-02  0.8727938E-01
          2   -1    0    0  501    0  0.00000000000E+00  0.00000000000E+00  0.89815653193E+03  0.89815653193E+03  0.00000000000E+00 0. -1.
         -1   -1    0    0    0  501 -0.00000000000E+00 -0.00000000000E+00 -0.86208051273E+03  0.86208051273E+03  0.00000000000E+00 0.  1.
         24    2    1    2    0    0  0.38599165972E+03  0.12951124373E+03 -0.49769201341E+03  0.64745668487E+03  0.75763414367E+02 0.  0.
        254    2    1    2    0    0 -0.38599165972E+03 -0.12951124373E+03  0.53376803261E+03  0.11127803598E+04  0.88747343222E+03 0.  0.
         23    2    4    4    0    0 -0.57303578288E+03 -0.89972667429E+02  0.64606348826E+03  0.87276057989E+03  0.88588428163E+02 0.  0.
         23    2    4    4    0    0  0.18704412317E+03 -0.39538576298E+02 -0.11229545566E+03  0.24001977990E+03  0.91926178836E+02 0.  0.
          2    1    3    3  502    0  0.85957577324E+02  0.31565129627E+02 -0.16611837146E+03  0.18968493837E+03  0.00000000000E+00 0. -1.
         -1    1    3    3    0  502  0.30003408239E+03  0.97946114100E+02 -0.33157364195E+03  0.45777174651E+03  0.00000000000E+00 0.  1.
         11    1    5    5    0    0 -0.40460098936E+03 -0.51950868510E+02  0.39327680699E+03  0.56662818518E+03  0.00000000000E+00 0.  1.
        -11    1    5    5    0    0 -0.16843479352E+03 -0.38021798919E+02  0.25278668127E+03  0.30613239471E+03  0.00000000000E+00 0. -1.
          3    1    6    6  503    0  0.37154784795E+02  0.14347681632E+02 -0.60680771596E+02  0.72584365002E+02  0.00000000000E+00 0. -1.
         -3    1    6    6    0  503  0.14988933837E+03 -0.53886257930E+02 -0.51614684061E+02  0.16743541490E+03  0.00000000000E+00 0.  1.
<mgrwt>
<rscale>  0 0.17598673E+04</rscale>
<asrwt>0</asrwt>
<pdfrwt beam="1">  1        2 0.13817793E+00 0.17598673E+04</pdfrwt>
<pdfrwt beam="2">  1       -1 0.13262777E+00 0.17598673E+04</pdfrwt>
<totfact> 0.15321754E+01</totfact>
</mgrwt>
</event>
<event>
12    6  0.1457317E-007  0.1985659E+04  0.7818608E-02  0.8613355E-01
         -1   -1    0    0    0  501 -0.00000000000E+00  0.00000000000E+00  0.45091807637E+03  0.45091807637E+03  0.00000000000E+00 0.  1.
          2   -1    0    0  501    0  0.00000000000E+00 -0.00000000000E+00 -0.21860087232E+04  0.21860087232E+04  0.00000000000E+00 0. -1.
         24    2    1    2    0    0  0.54370191235E+03  0.51291543059E+03 -0.37090540393E+03  0.83787855823E+03  0.75997705613E+02 0.  0.
        254    2    1    2    0    0 -0.54370191235E+03 -0.51291543059E+03 -0.13641852429E+04  0.17990482414E+04  0.90381369172E+03 0.  0.
         23    2    4    4    0    0  0.21072957145E+02 -0.40359156812E+02 -0.93783618657E+03  0.94342328596E+03  0.91857784634E+02 0.  0.
         23    2    4    4    0    0 -0.56477486949E+03 -0.47255627377E+03 -0.42634905638E+03  0.85562495542E+03  0.89668619820E+02 0.  0.
          4    1    3    3  502    0  0.26226759923E+03  0.20549081529E+03 -0.14001859373E+03  0.36140832222E+03  0.00000000000E+00 0. -1.
         -3    1    3    3    0  502  0.28143431312E+03  0.30742461529E+03 -0.23088681020E+03  0.47647023602E+03  0.00000000000E+00 0.  1.
         11    1    5    5    0    0  0.16724641590E+02  0.18273397616E+01 -0.28475993477E+02  0.33074688380E+02  0.00000000000E+00 0. -1.
        -11    1    5    5    0    0  0.43483155543E+01 -0.42186496574E+02 -0.90936019309E+03  0.91034859758E+03  0.00000000000E+00 0.  1.
          3    1    6    6  503    0 -0.20453844111E+03 -0.22199659020E+03 -0.19750758778E+03  0.36073218208E+03  0.00000000000E+00 0. -1.
         -3    1    6    6    0  503 -0.36023642838E+03 -0.25055968357E+03 -0.22884146859E+03  0.49489277335E+03  0.00000000000E+00 0.  1.
<mgrwt>
<rscale>  0 0.19856594E+04</rscale>
<asrwt>0</asrwt>
<pdfrwt beam="1">  1        2 0.33630903E+00 0.19856594E+04</pdfrwt>
<pdfrwt beam="2">  1       -1 0.69372012E-01 0.19856594E+04</pdfrwt>
<totfact> 0.11703702E+01</totfact>
</mgrwt>
</event>
<event>
12    6  0.1457317E-007  0.1320556E+04  0.7818608E-02  0.9013421E-01
         -1   -1    0    0    0  501 -0.00000000000E+00  0.00000000000E+00  0.13329115595E+03  0.13329115595E+03  0.00000000000E+00 0.  1.
          2   -1    0    0  501    0  0.00000000000E+00 -0.00000000000E+00 -0.32707872512E+04  0.32707872512E+04  0.00000000000E+00 0. -1.
         24    2    1    2    0    0  0.12459468575E+03  0.11491662569E+03 -0.16112161445E+04  0.16226130516E+04  0.90144241447E+02 0.  0.
        254    2    1    2    0    0 -0.12459468575E+03 -0.11491662569E+03 -0.15262799507E+04  0.17814653555E+04  0.90297212497E+03 0.  0.
         23    2    4    4    0    0 -0.24376882540E+03 -0.57270933814E+02 -0.20042269491E+02  0.26671853199E+03  0.89631928731E+02 0.  0.
         23    2    4    4    0    0  0.11917413965E+03 -0.57645691876E+02 -0.15062376812E+04  0.15147468235E+04  0.90446037870E+02 0.  0.
          4    1    3    3  502    0  0.43949830680E+02  0.81105694112E+02 -0.11099352467E+04  0.11137620810E+04  0.00000000000E+00 0. -1.
         -3    1    3    3    0  502  0.80644855072E+02  0.33810931578E+02 -0.50128089785E+03  0.50885097062E+03  0.00000000000E+00 0.  1.
         11    1    5    5    0    0 -0.13951383366E+03  0.86836588106E+01 -0.29947248403E+02  0.14295577427E+03  0.00000000000E+00 0. -1.
        -11    1    5    5    0    0 -0.10425499174E+03 -0.65954592625E+02  0.99049789127E+01  0.12376275772E+03  0.00000000000E+00 0.  1.
          1    1    6    6  503    0  0.69070142245E+02 -0.76474123775E+02 -0.11353286185E+04  0.11399956351E+04  0.00000000000E+00 0. -1.
         -1    1    6    6    0  503  0.50103997400E+02  0.18828431899E+02 -0.37090906270E+03  0.37475118839E+03  0.00000000000E+00 0.  1.
<mgrwt>
<rscale>  0 0.13205560E+04</rscale>
<asrwt>0</asrwt>
<pdfrwt beam="1">  1        2 0.50319803E+00 0.13205560E+04</pdfrwt>
<pdfrwt beam="2">  1       -1 0.20506332E-01 0.13205560E+04</pdfrwt>
<totfact> 0.25866655E+01</totfact>
</mgrwt>
</event>
<event>
12    6  0.1457317E-007  0.1296411E+04  0.7818608E-02  0.9032416E-01
          2   -1    0    0  501    0  0.00000000000E+00  0.00000000000E+00  0.68708984684E+03  0.68708984684E+03  0.00000000000E+00 0. -1.
         -1   -1    0    0    0  501 -0.00000000000E+00 -0.00000000000E+00 -0.61152173863E+03  0.61152173863E+03  0.00000000000E+00 0.  1.
         24    2    1    2    0    0 -0.33682535109E+03 -0.39940554456E+02  0.36453369625E+00  0.34793102941E+03  0.77519696334E+02 0.  0.
        254    2    1    2    0    0  0.33682535109E+03  0.39940554456E+02  0.75203574511E+02  0.95068055605E+03  0.88492450357E+03 0.  0.
         23    2    4    4    0    0 -0.18330394079E+03 -0.17344752372E+03 -0.18202898359E+03  0.32578580232E+03  0.96526990698E+02 0.  0.
         23    2    4    4    0    0  0.52012929188E+03  0.21338807817E+03  0.25723255810E+03  0.62489475373E+03  0.90862049962E+02 0.  0.
          4    1    3    3  502    0 -0.25459800388E+03 -0.51955514283E+02  0.25548805517E+02  0.26109818174E+03  0.00000000000E+00 0. -1.
         -3    1    3    3    0  502 -0.82227347208E+02  0.12014959827E+02 -0.25184271821E+02  0.86832847677E+02  0.00000000000E+00 0.  1.
         11    1    5    5    0    0 -0.32017186119E+02 -0.20057264645E+01  0.21965322958E+01  0.32155060251E+02  0.00000000000E+00 0.  1.
        -11    1    5    5    0    0 -0.15128675467E+03 -0.17144179725E+03 -0.18422551589E+03  0.29363074207E+03  0.00000000000E+00 0. -1.
          3    1    6    6  503    0  0.42318658857E+03  0.16236833906E+03  0.24337738204E+03  0.51447343601E+03  0.00000000000E+00 0. -1.
         -3    1    6    6    0  503  0.96942703307E+02  0.51019739115E+02  0.13855176062E+02  0.11042131772E+03  0.00000000000E+00 0.  1.
<mgrwt>
<rscale>  0 0.12964110E+04</rscale>
<asrwt>0</asrwt>
<pdfrwt beam="1">  1        2 0.10570613E+00 0.12964110E+04</pdfrwt>
<pdfrwt beam="2">  1       -1 0.94080267E-01 0.12964110E+04</pdfrwt>
<totfact> 0.51441388E+01</totfact>
</mgrwt>
</event>
<event>
12    6  0.1457317E-007  0.2219982E+04  0.7818608E-02  0.8510157E-01
         -1   -1    0    0    0  501 -0.00000000000E+00  0.00000000000E+00  0.62621422154E+03  0.62621422154E+03  0.00000000000E+00 0.  1.
          2   -1    0    0  501    0  0.00000000000E+00 -0.00000000000E+00 -0.19675048540E+04  0.19675048540E+04  0.00000000000E+00 0. -1.
         24    2    1    2    0    0 -0.81230910462E+03 -0.44506458381E+03 -0.52564885908E+03  0.10679665322E+04  0.79480976437E+02 0.  0.
        254    2    1    2    0    0  0.81230910462E+03  0.44506458381E+03 -0.81564177341E+03  0.15257525434E+04  0.89706229211E+03 0.  0.
         23    2    4    4    0    0  0.51610797459E+03  0.68445084801E+03 -0.38684380486E+03  0.94479217962E+03  0.90242609325E+02 0.  0.
         23    2    4    4    0    0  0.29620113002E+03 -0.23938626420E+03 -0.42879796855E+03  0.58096036377E+03  0.92770434482E+02 0.  0.
          4    1    3    3  502    0 -0.35706244630E+03 -0.22012540181E+03 -0.27608352949E+03  0.50216620589E+03  0.00000000000E+00 0. -1.
         -3    1    3    3    0  502 -0.45524665832E+03 -0.22493918200E+03 -0.24956532959E+03  0.56580032630E+03  0.00000000000E+00 0.  1.
         11    1    5    5    0    0  0.46428143953E+03  0.65325507691E+03 -0.36195725673E+03  0.87938188877E+03  0.00000000000E+00 0.  1.
        -11    1    5    5    0    0  0.51826535070E+02  0.31195771101E+02 -0.24886548125E+02  0.65410290853E+02  0.00000000000E+00 0. -1.
          3    1    6    6  503    0  0.20319615956E+03 -0.21136333162E+03 -0.29813851489E+03  0.41815034530E+03  0.00000000000E+00 0. -1.
         -3    1    6    6    0  503  0.93004970465E+02 -0.28022932588E+02 -0.13065945366E+03  0.16281001847E+03  0.00000000000E+00 0.  1.
<mgrwt>
<rscale>  0 0.22199815E+04</rscale>
<asrwt>0</asrwt>
<pdfrwt beam="1">  1        2 0.30269306E+00 0.22199815E+04</pdfrwt>
<pdfrwt beam="2">  1       -1 0.96340648E-01 0.22199815E+04</pdfrwt>
<totfact> 0.75053062E+00</totfact>
</mgrwt>
</event>
<event>
12    6  0.1457317E-007  0.1253748E+04  0.7818608E-02  0.9067069E-01
         -1   -1    0    0    0  501 -0.00000000000E+00  0.00000000000E+00  0.32610935242E+03  0.32610935242E+03  0.00000000000E+00 0.  1.
          2   -1    0    0  501    0  0.00000000000E+00 -0.00000000000E+00 -0.12050291281E+04  0.12050291281E+04  0.00000000000E+00 0. -1.
         24    2    1    2    0    0 -0.27399810049E+03  0.57296847362E+02 -0.33879076434E+03  0.44681312415E+03  0.80652948580E+02 0.  0.
        254    2    1    2    0    0  0.27399810049E+03 -0.57296847362E+02 -0.54012901131E+03  0.10843253564E+04  0.89758801339E+03 0.  0.
         23    2    4    4    0    0 -0.31228120627E+03 -0.32541036405E+02 -0.92375169266E+02  0.34056633523E+03  0.94200774722E+02 0.  0.
         23    2    4    4    0    0  0.58627930676E+03 -0.24755810957E+02 -0.44775384205E+03  0.74375902112E+03  0.91420472138E+02 0.  0.
          2    1    3    3  502    0 -0.27290757132E+03  0.42284093296E+02 -0.31863662632E+03  0.42165837673E+03  0.00000000000E+00 0. -1.
         -1    1    3    3    0  502 -0.10905291751E+01  0.15012754065E+02 -0.20154138019E+02  0.25154747421E+02  0.00000000000E+00 0.  1.
         11    1    5    5    0    0 -0.29794297259E+03 -0.50240797800E+02 -0.73442479364E+02  0.31094686114E+03  0.00000000000E+00 0.  1.
        -11    1    5    5    0    0 -0.14338233678E+02  0.17699761395E+02 -0.18932689902E+02  0.29619474090E+02  0.00000000000E+00 0. -1.
          4    1    6    6  503    0  0.53587070260E+03  0.38980749638E+01 -0.40544311453E+03  0.67197970506E+03  0.00000000000E+00 0.  1.
         -4    1    6    6    0  503  0.50408604162E+02 -0.28653885920E+02 -0.42310727516E+02  0.71779316065E+02  0.00000000000E+00 0. -1.
<mgrwt>
<rscale>  0 0.12537484E+04</rscale>
<asrwt>0</asrwt>
<pdfrwt beam="1">  1        2 0.18538910E+00 0.12537484E+04</pdfrwt>
<pdfrwt beam="2">  1       -1 0.50170670E-01 0.12537484E+04</pdfrwt>
<totfact> 0.84063298E+01</totfact>
</mgrwt>
</event>
<event>
12    6  0.1457317E-007  0.1887352E+04  0.7818608E-02  0.8661178E-01
          2   -1    0    0  501    0  0.00000000000E+00  0.00000000000E+00  0.15069887117E+04  0.15069887117E+04  0.00000000000E+00 0. -1.
         -1   -1    0    0    0  501 -0.00000000000E+00 -0.00000000000E+00 -0.59092980469E+03  0.59092980469E+03  0.00000000000E+00 0.  1.
         24    2    1    2    0    0 -0.57580238523E+03 -0.35926547064E+03  0.72374388750E+02  0.68584866370E+03  0.67307296171E+02 0.  0.
        254    2    1    2    0    0  0.57580238523E+03  0.35926547064E+03  0.84368451825E+03  0.14120698527E+04  0.90637610147E+03 0.  0.
         23    2    4    4    0    0  0.73552388098E+03  0.33673582308E+02  0.67063043529E+03  0.10002425144E+04  0.92793412097E+02 0.  0.
         23    2    4    4    0    0 -0.15972149575E+03  0.32559188833E+03  0.17305408296E+03  0.41182733825E+03  0.90183185524E+02 0.  0.
          4    1    3    3  502    0 -0.15925335730E+03 -0.65695512812E+02  0.24405082594E+02  0.17399178219E+03  0.00000000000E+00 0. -1.
         -3    1    3    3    0  502 -0.41654902793E+03 -0.29356995783E+03  0.47969306156E+02  0.51185688150E+03  0.00000000000E+00 0.  1.
         11    1    5    5    0    0  0.38840011950E+03 -0.16930251300E+02  0.31099125389E+03  0.49785223333E+03  0.00000000000E+00 0.  1.
        -11    1    5    5    0    0  0.34712376148E+03  0.50603833608E+02  0.35963918140E+03  0.50239028111E+03  0.00000000000E+00 0. -1.
          1    1    6    6  503    0 -0.32839355606E+02  0.34895559607E+02 -0.48469045069E+01  0.48162390308E+02  0.00000000000E+00 0. -1.
         -1    1    6    6    0  503 -0.12688214014E+03  0.29069632872E+03  0.17790098747E+03  0.36366494794E+03  0.00000000000E+00 0.  1.
<mgrwt>
<rscale>  0 0.18873522E+04</rscale>
<asrwt>0</asrwt>
<pdfrwt beam="1">  1        2 0.23184442E+00 0.18873522E+04</pdfrwt>
<pdfrwt beam="2">  1       -1 0.90912278E-01 0.18873522E+04</pdfrwt>
<totfact> 0.15872794E+01</totfact>
</mgrwt>
</event>
<event>
12    6  0.1457317E-007  0.2045186E+04  0.7818608E-02  0.8585781E-01
          2   -1    0    0  501    0  0.00000000000E+00  0.00000000000E+00  0.15183012052E+04  0.15183012052E+04  0.00000000000E+00 0. -1.
         -1   -1    0    0    0  501 -0.00000000000E+00 -0.00000000000E+00 -0.68872773462E+03  0.68872773462E+03  0.00000000000E+00 0.  1.
         24    2    1    2    0    0 -0.25330421884E+03 -0.43089230491E+03 -0.36619466111E+03  0.62556213641E+03  0.86013086054E+02 0.  0.
        254    2    1    2    0    0  0.25330421884E+03  0.43089230491E+03  0.11957681317E+04  0.15814668034E+04  0.90628065177E+03 0.  0.
         23    2    4    4    0    0  0.46276026677E+03  0.52959688295E+01  0.89771904552E+03  0.10136187007E+04  0.85722074039E+02 0.  0.
         23    2    4    4    0    0 -0.20945604792E+03  0.42559633608E+03  0.29804908615E+03  0.56784810267E+03  0.92812351823E+02 0.  0.
          2    1    3    3  502    0 -0.36372052119E+02 -0.71086703900E+02 -0.10088675227E+03  0.12866383498E+03  0.00000000000E+00 0. -1.
         -1    1    3    3    0  502 -0.21693216673E+03 -0.35980560101E+03 -0.26530790884E+03  0.49689830143E+03  0.00000000000E+00 0.  1.
         11    1    5    5    0    0  0.35773453428E+03  0.31689995404E+02  0.73663695329E+03  0.81951952617E+03  0.00000000000E+00 0.  1.
        -11    1    5    5    0    0  0.10502573249E+03 -0.26394026574E+02  0.16108209223E+03  0.19409917455E+03  0.00000000000E+00 0. -1.
          4    1    6    6  503    0 -0.11268195686E+03  0.18669484685E+03  0.87262444742E+02  0.23487640048E+03  0.00000000000E+00 0.  1.
         -4    1    6    6    0  503 -0.96774091060E+02  0.23890148923E+03  0.21078664141E+03  0.33297170218E+03  0.00000000000E+00 0. -1.
<mgrwt>
<rscale>  0 0.20451857E+04</rscale>
<asrwt>0</asrwt>
<pdfrwt beam="1">  1        2 0.23358480E+00 0.20451857E+04</pdfrwt>
<pdfrwt beam="2">  1       -1 0.10595811E+00 0.20451857E+04</pdfrwt>
<totfact> 0.10895675E+01</totfact>
</mgrwt>
</event>
<event>
12    6  0.1457317E-007  0.3061967E+04  0.7818608E-02  0.8226254E-01
          2   -1    0    0  501    0  0.00000000000E+00  0.00000000000E+00  0.12671707933E+04  0.12671707933E+04  0.00000000000E+00 0. -1.
         -1   -1    0    0    0  501 -0.00000000000E+00 -0.00000000000E+00 -0.18497192790E+04  0.18497192790E+04  0.00000000000E+00 0.  1.
         24    2    1    2    0    0  0.61966587997E+03 -0.49285532131E+03  0.90534609968E+03  0.12053098653E+04  0.78918569769E+02 0.  0.
        254    2    1    2    0    0 -0.61966587997E+03  0.49285532131E+03 -0.14878945854E+04  0.19115802069E+04  0.90189601386E+03 0.  0.
         23    2    4    4    0    0 -0.36173618413E+03  0.53718008745E+03 -0.35204601424E+03  0.74251064135E+03  0.89275658028E+02 0.  0.
         23    2    4    4    0    0 -0.25792969584E+03 -0.44324766144E+02 -0.11358485712E+04  0.11690695656E+04  0.89884702374E+02 0.  0.
          2    1    3    3  502    0  0.51228616907E+03 -0.43047789690E+03  0.72794357706E+03  0.98876194816E+03  0.00000000000E+00 0. -1.
         -1    1    3    3    0  502  0.10737971090E+03 -0.62377424406E+02  0.17740252263E+03  0.21654791715E+03  0.00000000000E+00 0.  1.
         11    1    5    5    0    0 -0.56671089009E+02  0.36727857258E+02 -0.40608689176E+02  0.78801100657E+02  0.00000000000E+00 0.  1.
        -11    1    5    5    0    0 -0.30506509512E+03  0.50045223019E+03 -0.31143732506E+03  0.66370954069E+03  0.00000000000E+00 0. -1.
          3    1    6    6  503    0 -0.17649087880E+03  0.29254562338E+01 -0.61723946492E+03  0.64198297925E+03  0.00000000000E+00 0. -1.
         -3    1    6    6    0  503 -0.81438817040E+02 -0.47250222378E+02 -0.51860910623E+03  0.52708658634E+03  0.00000000000E+00 0.  1.
<mgrwt>
<rscale>  0 0.30619668E+04</rscale>
<asrwt>0</asrwt>
<pdfrwt beam="1">  1        2 0.19494935E+00 0.30619668E+04</pdfrwt>
<pdfrwt beam="2">  1       -1 0.28457219E+00 0.30619668E+04</pdfrwt>
<totfact> 0.69690186E-01</totfact>
</mgrwt>
</event>
<event>
12    6  0.1457317E-007  0.1257515E+04  0.7818608E-02  0.9063952E-01
          2   -1    0    0  501    0  0.00000000000E+00  0.00000000000E+00  0.17984265843E+03  0.17984265843E+03  0.00000000000E+00 0. -1.
         -1   -1    0    0    0  501 -0.00000000000E+00 -0.00000000000E+00 -0.21982309547E+04  0.21982309547E+04  0.00000000000E+00 0.  1.
         24    2    1    2    0    0  0.21183693819E+03 -0.44597167334E+01 -0.88653326131E+03  0.91514555381E+03  0.81580535593E+02 0.  0.
        254    2    1    2    0    0 -0.21183693819E+03  0.44597167334E+01 -0.11318550350E+04  0.14629280593E+04  0.90231253408E+03 0.  0.
         23    2    4    4    0    0 -0.55425193475E+03  0.60554149603E+02 -0.63276828797E+03  0.84825128980E+03  0.90953461639E+02 0.  0.
         23    2    4    4    0    0  0.34241499656E+03 -0.56094432870E+02 -0.49908674701E+03  0.61467676954E+03  0.91352803478E+02 0.  0.
          4    1    3    3  502    0 -0.11274735288E+01 -0.17752842604E+01 -0.10757466370E+03  0.10759521876E+03  0.00000000000E+00 0. -1.
         -3    1    3    3    0  502  0.21296441171E+03 -0.26844324731E+01 -0.77895859761E+03  0.80755033504E+03  0.00000000000E+00 0.  1.
         11    1    5    5    0    0 -0.18519245775E+03  0.31954521038E+02 -0.15334126673E+03  0.24255078212E+03  0.00000000000E+00 0. -1.
        -11    1    5    5    0    0 -0.36905947700E+03  0.28599628565E+02 -0.47942702124E+03  0.60570050769E+03  0.00000000000E+00 0.  1.
          1    1    6    6  503    0  0.13248428930E+03 -0.65076755741E+02 -0.18276998257E+03  0.23492964389E+03  0.00000000000E+00 0. -1.
         -1    1    6    6    0  503  0.20993070727E+03  0.89823228717E+01 -0.31631676443E+03  0.37974712565E+03  0.00000000000E+00 0.  1.
<mgrwt>
<rscale>  0 0.12575145E+04</rscale>
<asrwt>0</asrwt>
<pdfrwt beam="1">  1        2 0.27668099E-01 0.12575145E+04</pdfrwt>
<pdfrwt beam="2">  1       -1 0.33818940E+00 0.12575145E+04</pdfrwt>
<totfact> 0.41323866E+00</totfact>
</mgrwt>
</event>
<event>
12    6  0.1457317E-007  0.2513066E+04  0.7818608E-02  0.8398346E-01
         -1   -1    0    0    0  501 -0.00000000000E+00  0.00000000000E+00  0.30745784896E+04  0.30745784896E+04  0.00000000000E+00 0.  1.
          2   -1    0    0  501    0  0.00000000000E+00 -0.00000000000E+00 -0.51352567135E+03  0.51352567135E+03  0.00000000000E+00 0. -1.
         24    2    1    2    0    0 -0.49099791281E+03  0.43467317883E+03  0.23644703886E+04  0.24550562024E+04  0.81000095683E+02 0.  0.
        254    2    1    2    0    0  0.49099791281E+03 -0.43467317883E+03  0.19658242965E+03  0.11330479586E+04  0.90284733038E+03 0.  0.
         23    2    4    4    0    0  0.26330788788E+03 -0.66427687638E+03  0.30182503693E+03  0.78097258520E+03  0.90691860734E+02 0.  0.
         23    2    4    4    0    0  0.22769002493E+03  0.22960369755E+03 -0.10524260728E+03  0.35207537337E+03  0.91216537777E+02 0.  0.
          2    1    3    3  502    0  0.16833987542E+01 -0.18421055770E+01  0.82752078658E+01  0.86432777084E+01  0.00000000000E+00 0. -1.
         -1    1    3    3    0  502 -0.49268131157E+03  0.43651528441E+03  0.23561951807E+04  0.24464129247E+04  0.00000000000E+00 0.  1.
         11    1    5    5    0    0  0.12952752158E+03 -0.44165982688E+03  0.20387399248E+03  0.50339386799E+03  0.00000000000E+00 0. -1.
        -11    1    5    5    0    0  0.13378036630E+03 -0.22261704950E+03  0.97951044455E+02  0.27757871721E+03  0.00000000000E+00 0.  1.
          1    1    6    6  503    0  0.17530725148E+03  0.22020851362E+03 -0.99545196537E+02  0.29855262190E+03  0.00000000000E+00 0. -1.
         -1    1    6    6    0  503  0.52382773446E+02  0.93951839306E+01 -0.56974107439E+01  0.53522751463E+02  0.00000000000E+00 0.  1.
<mgrwt>
<rscale>  0 0.25130658E+04</rscale>
<asrwt>0</asrwt>
<pdfrwt beam="1">  1        2 0.79003951E-01 0.25130658E+04</pdfrwt>
<pdfrwt beam="2">  1       -1 0.47301207E+00 0.25130658E+04</pdfrwt>
<totfact> 0.13636735E-01</totfact>
</mgrwt>
</event>
<event>
12    6  0.1457317E-007  0.1566243E+04  0.7818608E-02  0.8841559E-01
          2   -1    0    0  501    0  0.00000000000E+00  0.00000000000E+00  0.15903188982E+04  0.15903188982E+04  0.00000000000E+00 0. -1.
         -1   -1    0    0    0  501 -0.00000000000E+00 -0.00000000000E+00 -0.38563306542E+03  0.38563306542E+03  0.00000000000E+00 0.  1.
         24    2    1    2    0    0 -0.39896806918E+03  0.43756953821E+02 -0.17024707876E+02  0.41051128496E+03  0.84495462400E+02 0.  0.
        254    2    1    2    0    0  0.39896806918E+03 -0.43756953821E+02  0.12217105407E+04  0.15654406787E+04  0.89271366186E+03 0.  0.
         23    2    4    4    0    0  0.56910455963E+03 -0.22460738462E+03  0.11246339368E+04  0.12835008275E+04  0.90798707572E+02 0.  0.
         23    2    4    4    0    0 -0.17013649045E+03  0.18085043080E+03  0.97076603907E+02  0.28193985125E+03  0.91721911182E+02 0.  0.
          2    1    3    3  502    0  0.13238334633E+01 -0.62962927276E+01 -0.23026614139E+01  0.68335998374E+01  0.00000000000E+00 0. -1.
         -1    1    3    3    0  502 -0.40029190264E+03  0.50053246548E+02 -0.14722046463E+02  0.40367768512E+03  0.00000000000E+00 0.  1.
         11    1    5    5    0    0  0.51863323984E+03 -0.19263297231E+03  0.95537207829E+03  0.11040034907E+04  0.00000000000E+00 0. -1.
        -11    1    5    5    0    0  0.50471319794E+02 -0.31974412304E+02  0.16926185850E+03  0.17949733677E+03  0.00000000000E+00 0.  1.
          1    1    6    6  503    0 -0.13382087419E+03  0.17760714261E+03  0.60876082913E+02  0.23056066652E+03  0.00000000000E+00 0. -1.
         -1    1    6    6    0  503 -0.36315616268E+02  0.32432881876E+01  0.36200520994E+02  0.51379184729E+02  0.00000000000E+00 0.  1.
<mgrwt>
<rscale>  0 0.15662433E+04</rscale>
<asrwt>0</asrwt>
<pdfrwt beam="1">  1        2 0.24466444E+00 0.15662433E+04</pdfrwt>
<pdfrwt beam="2">  1       -1 0.59328165E-01 0.15662433E+04</pdfrwt>
<totfact> 0.35621293E+01</totfact>
</mgrwt>
</event>
<event>
12    6  0.1457317E-007  0.1282185E+04  0.7818608E-02  0.9043813E-01
          2   -1    0    0  501    0  0.00000000000E+00  0.00000000000E+00  0.65774345998E+03  0.65774345998E+03  0.00000000000E+00 0. -1.
         -1   -1    0    0    0  501 -0.00000000000E+00 -0.00000000000E+00 -0.62486350813E+03  0.62486350813E+03  0.00000000000E+00 0.  1.
         24    2    1    2    0    0 -0.25621750582E+03  0.15211047823E+03 -0.10913552291E+03  0.32714605539E+03  0.79554832158E+02 0.  0.
        254    2    1    2    0    0  0.25621750582E+03 -0.15211047823E+03  0.14201547477E+03  0.95546091272E+03  0.89663378968E+03 0.  0.
         23    2    4    4    0    0 -0.51294598214E+02 -0.47451041821E+03  0.25419860069E+02  0.48658585139E+03  0.91259786829E+02 0.  0.
         23    2    4    4    0    0  0.30751210403E+03  0.32239993998E+03  0.11659561470E+03  0.46887506133E+03  0.87999263350E+02 0.  0.
          2    1    3    3  502    0 -0.11825361762E+01  0.84209268468E+01  0.81668083531E+01  0.11790129747E+02  0.00000000000E+00 0. -1.
         -1    1    3    3    0  502 -0.25503496964E+03  0.14368955138E+03 -0.11730233126E+03  0.31535592564E+03  0.00000000000E+00 0.  1.
         11    1    5    5    0    0  0.14380129817E+02 -0.18602471358E+03 -0.18428001273E+02  0.18748752873E+03  0.00000000000E+00 0.  1.
        -11    1    5    5    0    0 -0.65674728031E+02 -0.28848570463E+03  0.43847861342E+02  0.29909832266E+03  0.00000000000E+00 0. -1.
          2    1    6    6  503    0  0.21818592711E+03  0.26794163520E+03  0.62670485688E+02  0.35117717528E+03  0.00000000000E+00 0. -1.
         -2    1    6    6    0  503  0.89326176919E+02  0.54458304783E+02  0.53925129010E+02  0.11769788605E+03  0.00000000000E+00 0.  1.
<mgrwt>
<rscale>  0 0.12821855E+04</rscale>
<asrwt>0</asrwt>
<pdfrwt beam="1">  1        2 0.10119130E+00 0.12821855E+04</pdfrwt>
<pdfrwt beam="2">  1       -1 0.96132847E-01 0.12821855E+04</pdfrwt>
<totfact> 0.51814836E+01</totfact>
</mgrwt>
</event>
<event>
12    6  0.1737878E-007  0.1470241E+04  0.7818608E-02  0.8904487E-01
          2   -1    0    0  501    0  0.00000000000E+00  0.00000000000E+00  0.20238666605E+04  0.20238666605E+04  0.00000000000E+00 0. -1.
         -1   -1    0    0    0  501 -0.00000000000E+00 -0.00000000000E+00 -0.26701481341E+03  0.26701481341E+03  0.00000000000E+00 0.  1.
         24    2    1    2    0    0 -0.16159523496E+03  0.40213858002E+03  0.77489317349E+03  0.89138176454E+03  0.79205822585E+02 0.  0.
        254    2    1    2    0    0  0.16159523496E+03 -0.40213858002E+03  0.98195867356E+03  0.13994997093E+04  0.89806911890E+03 0.  0.
         23    2    4    4    0    0 -0.34321877886E+03 -0.31366238795E+03  0.41531271178E+03  0.63006774100E+03  0.91200251669E+02 0.  0.
         23    2    4    4    0    0  0.50481401383E+03 -0.88476192072E+02  0.56664596178E+03  0.76943196833E+03  0.90954289402E+02 0.  0.
          2    1    3    3  502    0 -0.15495165935E+03  0.34829566092E+03  0.62627611370E+03  0.73317232268E+03  0.00000000000E+00 0. -1.
         -1    1    3    3    0  502 -0.66435756163E+01  0.53842919106E+02  0.14861705979E+03  0.15820944186E+03  0.00000000000E+00 0.  1.
         11    1    5    5    0    0 -0.74076078712E+02 -0.52765210330E+02  0.13157598170E+03  0.15994896629E+03  0.00000000000E+00 0. -1.
        -11    1    5    5    0    0 -0.26914270015E+03 -0.26089717762E+03  0.28373673009E+03  0.47011877471E+03  0.00000000000E+00 0.  1.
          2    1    6    6  503    0  0.32040810200E+02  0.55609245062E+00  0.97101918632E+01  0.33484482721E+02  0.00000000000E+00 0. -1.
         -2    1    6    6    0  503  0.47277320363E+03 -0.89032284522E+02  0.55693576992E+03  0.73594748560E+03  0.00000000000E+00 0.  1.
<mgrwt>
<rscale>  0 0.14702413E+04</rscale>
<asrwt>0</asrwt>
<pdfrwt beam="1">  1        2 0.31136409E+00 0.14702413E+04</pdfrwt>
<pdfrwt beam="2">  1       -1 0.41079203E-01 0.14702413E+04</pdfrwt>
<totfact> 0.41477078E+01</totfact>
</mgrwt>
</event>
<event>
12    6  0.1457317E-007  0.1549293E+04  0.7818608E-02  0.8852319E-01
          2   -1    0    0  501    0  0.00000000000E+00  0.00000000000E+00  0.42606710792E+03  0.42606710792E+03  0.00000000000E+00 0. -1.
         -1   -1    0    0    0  501 -0.00000000000E+00 -0.00000000000E+00 -0.14084103586E+04  0.14084103586E+04  0.00000000000E+00 0.  1.
         24    2    1    2    0    0  0.39457632298E+03 -0.28287473195E+03 -0.15390444521E+03  0.51582241386E+03  0.81716557410E+02 0.  0.
        254    2    1    2    0    0 -0.39457632298E+03  0.28287473195E+03 -0.82843880546E+03  0.13186550527E+04  0.90378742239E+03 0.  0.
         23    2    4    4    0    0 -0.48606821817E+02  0.39506055987E+03  0.57784324642E+00  0.40871407068E+03  0.92797567751E+02 0.  0.
         23    2    4    4    0    0 -0.34596950116E+03 -0.11218582792E+03 -0.82901664871E+03  0.90994098197E+03  0.91888144605E+02 0.  0.
          2    1    3    3  502    0  0.31268369597E+03 -0.23637432066E+03 -0.90478030883E+02  0.40228122908E+03  0.00000000000E+00 0. -1.
         -1    1    3    3    0  502  0.81892627009E+02 -0.46500411287E+02 -0.63426414324E+02  0.11354118478E+03  0.00000000000E+00 0.  1.
         11    1    5    5    0    0 -0.52013830421E+02  0.12532957899E+03 -0.24164955644E+02  0.13782919504E+03  0.00000000000E+00 0. -1.
        -11    1    5    5    0    0  0.34070086044E+01  0.26973098088E+03  0.24742798890E+02  0.27088487564E+03  0.00000000000E+00 0.  1.
          3    1    6    6  503    0 -0.73833302679E+01 -0.17802062747E+02 -0.83821073435E+02  0.86008135404E+02  0.00000000000E+00 0. -1.
         -3    1    6    6    0  503 -0.33858617089E+03 -0.94383765171E+02 -0.74519557527E+03  0.82393284657E+03  0.00000000000E+00 0.  1.
<mgrwt>
<rscale>  0 0.15492932E+04</rscale>
<asrwt>0</asrwt>
<pdfrwt beam="1">  1        2 0.65548786E-01 0.15492932E+04</pdfrwt>
<pdfrwt beam="2">  1       -1 0.21667852E+00 0.15492932E+04</pdfrwt>
<totfact> 0.94415627E+00</totfact>
</mgrwt>
</event>
<event>
12    6  0.1457317E-007  0.2426057E+04  0.7818608E-02  0.8429812E-01
          2   -1    0    0  501    0  0.00000000000E+00  0.00000000000E+00  0.19377498212E+04  0.19377498212E+04  0.00000000000E+00 0. -1.
         -1   -1    0    0    0  501 -0.00000000000E+00 -0.00000000000E+00 -0.75935413950E+03  0.75935413950E+03  0.00000000000E+00 0.  1.
         24    2    1    2    0    0  0.18665841765E+03  0.72211485972E+03 -0.30220730279E+03  0.80874499882E+03  0.80299338400E+02 0.  0.
        254    2    1    2    0    0 -0.18665841765E+03 -0.72211485972E+03  0.14806029845E+04  0.18883589618E+04  0.90411455893E+03 0.  0.
         23    2    4    4    0    0 -0.22903365265E+03 -0.20894808831E+02  0.10070590075E+04  0.10369873060E+04  0.91004511007E+02 0.  0.
         23    2    4    4    0    0  0.42375235000E+02 -0.70122005089E+03  0.47354397694E+03  0.85137165588E+03  0.84169935410E+02 0.  0.
          2    1    3    3  502    0  0.45145545647E+02  0.15306300240E+03 -0.30499995206E+02  0.16247046717E+03  0.00000000000E+00 0. -1.
         -1    1    3    3    0  502  0.14151287200E+03  0.56905185732E+03 -0.27170730758E+03  0.64627453165E+03  0.00000000000E+00 0.  1.
         11    1    5    5    0    0 -0.12775633901E+03 -0.47855771433E+02  0.45275950168E+03  0.47286681357E+03  0.00000000000E+00 0. -1.
        -11    1    5    5    0    0 -0.10127731363E+03  0.26960962602E+02  0.55429950584E+03  0.56412049239E+03  0.00000000000E+00 0.  1.
          1    1    6    6  503    0  0.15782318044E+02 -0.11247162083E+03  0.11446467170E+03  0.16124859107E+03  0.00000000000E+00 0. -1.
         -1    1    6    6    0  503  0.26592916956E+02 -0.58874843006E+03  0.35907930525E+03  0.69012306481E+03  0.00000000000E+00 0.  1.
<mgrwt>
<rscale>  0 0.24260572E+04</rscale>
<asrwt>0</asrwt>
<pdfrwt beam="1">  1        2 0.29811535E+00 0.24260572E+04</pdfrwt>
<pdfrwt beam="2">  1       -1 0.11682371E+00 0.24260572E+04</pdfrwt>
<totfact> 0.48829637E+00</totfact>
</mgrwt>
</event>
<event>
12    6  0.1457317E-007  0.1628962E+04  0.7818608E-02  0.8802951E-01
          2   -1    0    0  501    0  0.00000000000E+00  0.00000000000E+00  0.26445133510E+04  0.26445133510E+04  0.00000000000E+00 0. -1.
         -1   -1    0    0    0  501 -0.00000000000E+00 -0.00000000000E+00 -0.25085116487E+03  0.25085116487E+03  0.00000000000E+00 0.  1.
         24    2    1    2    0    0  0.41487750556E+02 -0.79234875588E+01  0.19110051198E+04  0.19131447240E+04  0.79988450062E+02 0.  0.
        254    2    1    2    0    0 -0.41487750556E+02  0.79234875588E+01  0.48265706630E+03  0.98221979179E+03  0.85440848582E+03 0.  0.
         23    2    4    4    0    0 -0.34213035528E+03 -0.25664592959E+03  0.31205451564E+03  0.53742413489E+03  0.92338328212E+02 0.  0.
         23    2    4    4    0    0  0.30064260472E+03  0.26456941714E+03  0.17060255066E+03  0.44479565690E+03  0.91405655440E+02 0.  0.
          2    1    3    3  502    0  0.24994364292E+02  0.67525763222E+00  0.18241013524E+04  0.18242727094E+04  0.00000000000E+00 0. -1.
         -1    1    3    3    0  502  0.16493386264E+02 -0.85987451911E+01  0.86903767362E+02  0.88872014668E+02  0.00000000000E+00 0.  1.
         11    1    5    5    0    0 -0.17280156302E+03 -0.11982019143E+03  0.97563172494E+02  0.23180990290E+03  0.00000000000E+00 0. -1.
        -11    1    5    5    0    0 -0.16932879225E+03 -0.13682573816E+03  0.21449134315E+03  0.30561423199E+03  0.00000000000E+00 0.  1.
          4    1    6    6  503    0  0.53811909651E+02  0.25690472835E+02 -0.34322645364E+01  0.59728573184E+02  0.00000000000E+00 0. -1.
         -4    1    6    6    0  503  0.24683069507E+03  0.23887894431E+03  0.17403481520E+03  0.38506708372E+03  0.00000000000E+00 0.  1.
<mgrwt>
<rscale>  0 0.16289619E+04</rscale>
<asrwt>0</asrwt>
<pdfrwt beam="1">  1        2 0.40684819E+00 0.16289619E+04</pdfrwt>
<pdfrwt beam="2">  1       -1 0.38592489E-01 0.16289619E+04</pdfrwt>
<totfact> 0.20355934E+01</totfact>
</mgrwt>
</event>
<event>
12    6  0.1457317E-007  0.2008879E+04  0.7818608E-02  0.8602481E-01
          2   -1    0    0  501    0  0.00000000000E+00  0.00000000000E+00  0.11745946119E+04  0.11745946119E+04  0.00000000000E+00 0. -1.
         -1   -1    0    0    0  501 -0.00000000000E+00 -0.00000000000E+00 -0.85893372138E+03  0.85893372138E+03  0.00000000000E+00 0.  1.
         24    2    1    2    0    0  0.70132232960E+02  0.60811169479E+03  0.63990633317E+03  0.88910924268E+03  0.79478089799E+02 0.  0.
        254    2    1    2    0    0 -0.70132232960E+02 -0.60811169479E+03 -0.32424544270E+03  0.11444190905E+04  0.91095641183E+03 0.  0.
         23    2    4    4    0    0  0.20287921384E+03 -0.11201107566E+03 -0.48891490948E+03  0.54808583831E+03  0.87486233038E+02 0.  0.
         23    2    4    4    0    0 -0.27301144680E+03 -0.49610061913E+03  0.16466946678E+03  0.59633325224E+03  0.88579004565E+02 0.  0.
          2    1    3    3  502    0  0.71820502976E+02  0.38086719184E+03  0.36451566666E+03  0.53206171983E+03  0.00000000000E+00 0. -1.
         -1    1    3    3    0  502 -0.16882700156E+01  0.22724450295E+03  0.27539066651E+03  0.35704752286E+03  0.00000000000E+00 0.  1.
         11    1    5    5    0    0  0.15468208574E+03 -0.37844581378E+02 -0.31715529906E+03  0.35488905832E+03  0.00000000000E+00 0.  1.
        -11    1    5    5    0    0  0.48197128090E+02 -0.74166494280E+02 -0.17175961041E+03  0.19319677999E+03  0.00000000000E+00 0. -1.
          4    1    6    6  503    0 -0.14190224300E+02 -0.84663929398E+02  0.38923125590E+02  0.94256846502E+02  0.00000000000E+00 0. -1.
         -4    1    6    6    0  503 -0.25882122250E+03 -0.41143668973E+03  0.12574634119E+03  0.50207640574E+03  0.00000000000E+00 0.  1.
<mgrwt>
<rscale>  0 0.20088792E+04</rscale>
<asrwt>0</asrwt>
<pdfrwt beam="1">  1        2 0.18070686E+00 0.20088792E+04</pdfrwt>
<pdfrwt beam="2">  1       -1 0.13214365E+00 0.20088792E+04</pdfrwt>
<totfact> 0.10104770E+01</totfact>
</mgrwt>
</event>
<event>
12    6  0.1457317E-007  0.1373924E+04  0.7818608E-02  0.8972913E-01
         -1   -1    0    0    0  501 -0.00000000000E+00  0.00000000000E+00  0.34881265537E+03  0.34881265537E+03  0.00000000000E+00 0.  1.
          2   -1    0    0  501    0  0.00000000000E+00 -0.00000000000E+00 -0.13529240412E+04  0.13529240412E+04  0.00000000000E+00 0. -1.
         24    2    1    2    0    0 -0.28943777941E+03 -0.94256300424E+02  0.20583198070E+02  0.31577798037E+03  0.81446832479E+02 0.  0.
        254    2    1    2    0    0  0.28943777941E+03  0.94256300424E+02 -0.10246945839E+04  0.13859587162E+04  0.88217010516E+03 0.  0.
         23    2    4    4    0    0  0.15898623556E+03 -0.36859238452E+03 -0.65208112277E+03  0.77099213895E+03  0.89900604143E+02 0.  0.
         23    2    4    4    0    0  0.13045154385E+03  0.46284868494E+03 -0.37261346117E+03  0.61496657729E+03  0.89981049629E+02 0.  0.
          2    1    3    3  502    0 -0.36477608729E+02  0.11217485826E+02  0.16763330631E+02  0.41682816372E+02  0.00000000000E+00 0. -1.
         -1    1    3    3    0  502 -0.25296017068E+03 -0.10547378625E+03  0.38198674395E+01  0.27409516399E+03  0.00000000000E+00 0.  1.
         11    1    5    5    0    0  0.77136131279E+01 -0.72078890126E+02 -0.71888705928E+02  0.10209237126E+03  0.00000000000E+00 0. -1.
        -11    1    5    5    0    0  0.15127262243E+03 -0.29651349439E+03 -0.58019241685E+03  0.66889976769E+03  0.00000000000E+00 0.  1.
          4    1    6    6  503    0  0.88646958667E+02  0.18339013744E+03 -0.12307809551E+03  0.23798832615E+03  0.00000000000E+00 0. -1.
         -4    1    6    6    0  503  0.41804585187E+02  0.27945854751E+03 -0.24953536566E+03  0.37697825114E+03  0.00000000000E+00 0.  1.
<mgrwt>
<rscale>  0 0.13739243E+04</rscale>
<asrwt>0</asrwt>
<pdfrwt beam="1">  1        2 0.20814216E+00 0.13739243E+04</pdfrwt>
<pdfrwt beam="2">  1       -1 0.53663486E-01 0.13739243E+04</pdfrwt>
<totfact> 0.59978242E+01</totfact>
</mgrwt>
</event>
<event>
12    6  0.1457317E-007  0.1157296E+04  0.7818608E-02  0.9151079E-01
          2   -1    0    0  501    0  0.00000000000E+00  0.00000000000E+00  0.93129835119E+03  0.93129835119E+03  0.00000000000E+00 0. -1.
         -1   -1    0    0    0  501 -0.00000000000E+00 -0.00000000000E+00 -0.35953398238E+03  0.35953398238E+03  0.00000000000E+00 0.  1.
         24    2    1    2    0    0  0.13378716966E+03 -0.10540158618E+03  0.25940259548E+03  0.32047097398E+03  0.80021481419E+02 0.  0.
        254    2    1    2    0    0 -0.13378716966E+03  0.10540158618E+03  0.31236177333E+03  0.97036135959E+03  0.90278612618E+03 0.  0.
         23    2    4    4    0    0 -0.29342121983E+03 -0.93838467840E+01 -0.23150342953E+03  0.38504608720E+03  0.92100936783E+02 0.  0.
         23    2    4    4    0    0  0.15963405017E+03  0.11478543296E+03  0.54386520286E+03  0.58531527240E+03  0.90254549063E+02 0.  0.
          4    1    3    3  502    0  0.10343751220E+02 -0.30836274828E+02  0.10167688277E+03  0.10675231859E+03  0.00000000000E+00 0. -1.
         -3    1    3    3    0  502  0.12344341844E+03 -0.74565311350E+02  0.15772571271E+03  0.21371865539E+03  0.00000000000E+00 0.  1.
         11    1    5    5    0    0 -0.12866788494E+03 -0.49804887931E+02 -0.10790283366E+03  0.17515414066E+03  0.00000000000E+00 0. -1.
        -11    1    5    5    0    0 -0.16475333488E+03  0.40421041147E+02 -0.12360059587E+03  0.20989194654E+03  0.00000000000E+00 0.  1.
          2    1    6    6  503    0  0.16275755507E+03  0.12520971677E+03  0.51206770808E+03  0.55170719822E+03  0.00000000000E+00 0.  1.
         -2    1    6    6    0  503 -0.31235048998E+01 -0.10424283811E+02  0.31797494781E+02  0.33608074181E+02  0.00000000000E+00 0. -1.
<mgrwt>
<rscale>  0 0.11572958E+04</rscale>
<asrwt>0</asrwt>
<pdfrwt beam="1">  1        2 0.14327667E+00 0.11572958E+04</pdfrwt>
<pdfrwt beam="2">  1       -1 0.55312921E-01 0.11572958E+04</pdfrwt>
<totfact> 0.10419421E+02</totfact>
</mgrwt>
</event>
<event>
12    6  0.1457317E-007  0.2077758E+04  0.7818608E-02  0.8571105E-01
          2   -1    0    0  501    0  0.00000000000E+00  0.00000000000E+00  0.75437244061E+03  0.75437244061E+03  0.00000000000E+00 0. -1.
         -1   -1    0    0    0  501 -0.00000000000E+00 -0.00000000000E+00 -0.14306856191E+04  0.14306856191E+04  0.00000000000E+00 0.  1.
         24    2    1    2    0    0  0.82267437493E+03 -0.76426133267E+01 -0.44678411604E+03  0.93948759280E+03  0.78545235258E+02 0.  0.
        254    2    1    2    0    0 -0.82267437493E+03  0.76426133267E+01 -0.22952906251E+03  0.12455704670E+04  0.90659288598E+03 0.  0.
         23    2    4    4    0    0 -0.50577166875E+03 -0.43299409708E+03 -0.79409118029E+02  0.67533986555E+03  0.80555924365E+02 0.  0.
         23    2    4    4    0    0 -0.31690270617E+03  0.44063671040E+03 -0.15011994448E+03  0.57023060141E+03  0.89659942651E+02 0.  0.
          2    1    3    3  502    0  0.25569693554E+03 -0.11547967039E+02 -0.99651171991E+02  0.27467186690E+03  0.00000000000E+00 0. -1.
         -1    1    3    3    0  502  0.56697743939E+03  0.39053537123E+01 -0.34713294405E+03  0.66481572590E+03  0.00000000000E+00 0.  1.
         11    1    5    5    0    0 -0.48416027305E+03 -0.42228887073E+03 -0.61669515537E+02  0.64540079755E+03  0.00000000000E+00 0.  1.
        -11    1    5    5    0    0 -0.21611395709E+02 -0.10705226350E+02 -0.17739602491E+02  0.29939067992E+02  0.00000000000E+00 0. -1.
          2    1    6    6  503    0 -0.26542909425E+03  0.32868491682E+03 -0.85295653955E+02  0.43100084362E+03  0.00000000000E+00 0.  1.
         -2    1    6    6    0  503 -0.51473611920E+02  0.11195179358E+03 -0.64824290522E+02  0.13922975778E+03  0.00000000000E+00 0. -1.
<mgrwt>
<rscale>  0 0.20777582E+04</rscale>
<asrwt>0</asrwt>
<pdfrwt beam="1">  1        2 0.11605730E+00 0.20777582E+04</pdfrwt>
<pdfrwt beam="2">  1       -1 0.22010548E+00 0.20777582E+04</pdfrwt>
<totfact> 0.43080584E+00</totfact>
</mgrwt>
</event>
<event>
12    6  0.1457317E-007  0.1856098E+04  0.7818608E-02  0.8677023E-01
          2   -1    0    0  501    0  0.00000000000E+00  0.00000000000E+00  0.19590918133E+04  0.19590918133E+04  0.00000000000E+00 0. -1.
         -1   -1    0    0    0  501 -0.00000000000E+00 -0.00000000000E+00 -0.43962986603E+03  0.43962986603E+03  0.00000000000E+00 0.  1.
         24    2    1    2    0    0 -0.18384330558E+02  0.43972939249E+03 -0.13738734145E+03  0.46796106752E+03  0.80077193338E+02 0.  0.
        254    2    1    2    0    0  0.18384330558E+02 -0.43972939249E+03  0.16568492888E+04  0.19307606119E+04  0.88824943140E+03 0.  0.
         23    2    4    4    0    0  0.11588226908E+03 -0.67416687551E+03  0.13912021670E+04  0.15527538211E+04  0.87585862134E+02 0.  0.
         23    2    4    4    0    0 -0.97497938522E+02  0.23443748302E+03  0.26564712178E+03  0.37800679073E+03  0.88622565244E+02 0.  0.
          4    1    3    3  502    0 -0.17389058825E+02  0.35923529688E+03 -0.78240329477E+02  0.36806782941E+03  0.00000000000E+00 0. -1.
         -3    1    3    3    0  502 -0.99527173332E+00  0.80494095609E+02 -0.59147011977E+02  0.99893238107E+02  0.00000000000E+00 0.  1.
         11    1    5    5    0    0 -0.35847590840E+01 -0.13029299957E+02  0.61424918144E+02  0.62893828982E+02  0.00000000000E+00 0. -1.
        -11    1    5    5    0    0  0.11946702816E+03 -0.66113757556E+03  0.13297772488E+04  0.14898599921E+04  0.00000000000E+00 0.  1.
          1    1    6    6  503    0 -0.80153018088E+01 -0.74955971718E+01  0.10788170152E+02  0.15388750933E+02  0.00000000000E+00 0. -1.
         -1    1    6    6    0  503 -0.89482636713E+02  0.24193308019E+03  0.25485895162E+03  0.36261803980E+03  0.00000000000E+00 0.  1.
<mgrwt>
<rscale>  0 0.18560984E+04</rscale>
<asrwt>0</asrwt>
<pdfrwt beam="1">  1        2 0.30139874E+00 0.18560984E+04</pdfrwt>
<pdfrwt beam="2">  1       -1 0.67635365E-01 0.18560984E+04</pdfrwt>
<totfact> 0.16680741E+01</totfact>
</mgrwt>
</event>
<event>
12    6  0.1457317E-007  0.2233402E+04  0.7818608E-02  0.8504653E-01
          2   -1    0    0  501    0  0.00000000000E+00  0.00000000000E+00  0.83767981109E+03  0.83767981109E+03  0.00000000000E+00 0. -1.
         -1   -1    0    0    0  501 -0.00000000000E+00 -0.00000000000E+00 -0.14886609354E+04  0.14886609354E+04  0.00000000000E+00 0.  1.
         24    2    1    2    0    0 -0.40136105645E+03 -0.84268934073E+03 -0.20942953963E+03  0.95996916661E+03  0.80399291984E+02 0.  0.
        254    2    1    2    0    0  0.40136105645E+03  0.84268934073E+03 -0.44155158469E+03  0.13663715799E+04  0.89486729172E+03 0.  0.
         23    2    4    4    0    0  0.77000713621E+02 -0.12383957584E+03  0.11102240390E+03  0.20323237607E+03  0.87818415334E+02 0.  0.
         23    2    4    4    0    0  0.32436034283E+03  0.96652891657E+03 -0.55257398859E+03  0.11631392038E+04  0.90371544470E+02 0.  0.
          4    1    3    3  502    0 -0.32042402303E+03 -0.69846042268E+03 -0.20131136015E+03  0.79438327041E+03  0.00000000000E+00 0. -1.
         -3    1    3    3    0  502 -0.80937033425E+02 -0.14422891805E+03 -0.81181794841E+01  0.16558589620E+03  0.00000000000E+00 0.  1.
         11    1    5    5    0    0  0.98470246370E+01 -0.82269923965E+02  0.25210448043E+02  0.86607568803E+02  0.00000000000E+00 0.  1.
        -11    1    5    5    0    0  0.67153688984E+02 -0.41569651873E+02  0.85811955859E+02  0.11662480726E+03  0.00000000000E+00 0. -1.
          3    1    6    6  503    0  0.17093025802E+03  0.64175061162E+03 -0.36902722743E+03  0.75976449983E+03  0.00000000000E+00 0. -1.
         -3    1    6    6    0  503  0.15343008481E+03  0.32477830495E+03 -0.18354676116E+03  0.40337470400E+03  0.00000000000E+00 0.  1.
<mgrwt>
<rscale>  0 0.22334021E+04</rscale>
<asrwt>0</asrwt>
<pdfrwt beam="1">  1        2 0.12887382E+00 0.22334021E+04</pdfrwt>
<pdfrwt beam="2">  1       -1 0.22902476E+00 0.22334021E+04</pdfrwt>
<totfact> 0.32255748E+00</totfact>
</mgrwt>
</event>
<event>
12    6  0.1457317E-007  0.1597727E+04  0.7818608E-02  0.8821946E-01
         -1   -1    0    0    0  501 -0.00000000000E+00  0.00000000000E+00  0.91779889128E+03  0.91779889128E+03  0.00000000000E+00 0.  1.
          2   -1    0    0  501    0  0.00000000000E+00 -0.00000000000E+00 -0.69534039608E+03  0.69534039608E+03  0.00000000000E+00 0. -1.
         24    2    1    2    0    0  0.51875120629E+03  0.48234680196E+02  0.14613375548E+03  0.54668050933E+03  0.77942968805E+02 0.  0.
        254    2    1    2    0    0 -0.51875120629E+03 -0.48234680196E+02  0.76324739726E+02  0.10664587780E+04  0.92740469102E+03 0.  0.
         23    2    4    4    0    0  0.16686678608E+02 -0.36780394050E+03  0.19205404957E+03  0.42534842625E+03  0.92077911924E+02 0.  0.
         23    2    4    4    0    0 -0.53543788490E+03  0.31956926031E+03 -0.11572930985E+03  0.64111035177E+03  0.93866763422E+02 0.  0.
          2    1    3    3  502    0  0.18758909317E+02 -0.29188463444E+01 -0.85392818990E+01  0.20816716314E+02  0.00000000000E+00 0. -1.
         -1    1    3    3    0  502  0.49999229697E+03  0.51153526541E+02  0.15467303737E+03  0.52586379301E+03  0.00000000000E+00 0.  1.
         11    1    5    5    0    0 -0.35769853941E+02 -0.96642288331E+02  0.59558095553E+02  0.11902260748E+03  0.00000000000E+00 0.  1.
        -11    1    5    5    0    0  0.52456532548E+02 -0.27116165217E+03  0.13249595402E+03  0.30632581878E+03  0.00000000000E+00 0. -1.
          1    1    6    6  503    0 -0.99601221052E+02  0.56319600906E+02  0.15066751952E+02  0.11540930507E+03  0.00000000000E+00 0. -1.
         -1    1    6    6    0  503 -0.43583666385E+03  0.26324965940E+03 -0.13079606180E+03  0.52570104671E+03  0.00000000000E+00 0.  1.
<mgrwt>
<rscale>  0 0.15977267E+04</rscale>
<asrwt>0</asrwt>
<pdfrwt beam="1">  1        2 0.10697545E+00 0.15977267E+04</pdfrwt>
<pdfrwt beam="2">  1       -1 0.14119983E+00 0.15977267E+04</pdfrwt>
<totfact> 0.18554773E+01</totfact>
</mgrwt>
</event>
<event>
12    6  0.1457317E-007  0.1345104E+04  0.7818608E-02  0.8994543E-01
          2   -1    0    0  501    0  0.00000000000E+00  0.00000000000E+00  0.51162397735E+03  0.51162397735E+03  0.00000000000E+00 0. -1.
         -1   -1    0    0    0  501 -0.00000000000E+00 -0.00000000000E+00 -0.88409840409E+03  0.88409840409E+03  0.00000000000E+00 0.  1.
         24    2    1    2    0    0  0.11002862929E+03 -0.41348551347E+02 -0.45385478292E+03  0.47539963306E+03  0.78769570051E+02 0.  0.
        254    2    1    2    0    0 -0.11002862929E+03  0.41348551347E+02  0.81380356186E+02  0.92032274839E+03  0.90915081085E+03 0.  0.
         23    2    4    4    0    0 -0.21260144147E+03 -0.36847161817E+03  0.19001970319E+03  0.47477725779E+03  0.91297593641E+02 0.  0.
         23    2    4    4    0    0  0.10257281217E+03  0.40982016952E+03 -0.10863934700E+03  0.44554549060E+03  0.90744274377E+02 0.  0.
          2    1    3    3  502    0  0.53984745493E+01  0.14127960253E+01 -0.16679285811E+03  0.16688617989E+03  0.00000000000E+00 0. -1.
         -1    1    3    3    0  502  0.10463015474E+03 -0.42761347372E+02 -0.28706192481E+03  0.30851345317E+03  0.00000000000E+00 0.  1.
         11    1    5    5    0    0 -0.13732658657E+02 -0.82253753923E+01  0.28563202511E+02  0.32742926745E+02  0.00000000000E+00 0. -1.
        -11    1    5    5    0    0 -0.19886878281E+03 -0.36024624278E+03  0.16145650068E+03  0.44203433105E+03  0.00000000000E+00 0.  1.
          1    1    6    6  503    0  0.49532316714E+02  0.59911063704E+02 -0.11770382574E+02  0.78621421121E+02  0.00000000000E+00 0. -1.
         -1    1    6    6    0  503  0.53040495459E+02  0.34990910581E+03 -0.96868964429E+02  0.36692406948E+03  0.00000000000E+00 0.  1.
<mgrwt>
<rscale>  0 0.13451036E+04</rscale>
<asrwt>0</asrwt>
<pdfrwt beam="1">  1        2 0.78711381E-01 0.13451036E+04</pdfrwt>
<pdfrwt beam="2">  1       -1 0.13601514E+00 0.13451036E+04</pdfrwt>
<totfact> 0.30270514E+01</totfact>
</mgrwt>
</event>
<event>
12    6  0.1457317E-007  0.1649643E+04  0.7818608E-02  0.8790617E-01
         -1   -1    0    0    0  501 -0.00000000000E+00  0.00000000000E+00  0.58066599468E+03  0.58066599468E+03  0.00000000000E+00 0.  1.
          2   -1    0    0  501    0  0.00000000000E+00 -0.00000000000E+00 -0.11716388571E+04  0.11716388571E+04  0.00000000000E+00 0. -1.
         24    2    1    2    0    0  0.37925390128E+02  0.54429912271E+03 -0.34994055851E+02  0.55239912678E+03  0.78869139236E+02 0.  0.
        254    2    1    2    0    0 -0.37925390128E+02 -0.54429912271E+03 -0.55597880659E+03  0.11999057250E+04  0.91266721501E+03 0.  0.
         23    2    4    4    0    0  0.15281315699E+02 -0.78248680589E+03 -0.49832305276E+03  0.93238676770E+03  0.92195985053E+02 0.  0.
         23    2    4    4    0    0 -0.53206705827E+02  0.23818768318E+03 -0.57655753825E+02  0.26751895732E+03  0.93155142701E+02 0.  0.
          2    1    3    3  502    0  0.39413462995E+02  0.16685878250E+03  0.12871185964E+02  0.17193295725E+03  0.00000000000E+00 0. -1.
         -1    1    3    3    0  502 -0.14880728677E+01  0.37744034021E+03 -0.47865241816E+02  0.38046616952E+03  0.00000000000E+00 0.  1.
         11    1    5    5    0    0  0.27820669746E+02 -0.10217461914E+03 -0.89009935338E+02  0.13833441744E+03  0.00000000000E+00 0. -1.
        -11    1    5    5    0    0 -0.12539354048E+02 -0.68031218675E+03 -0.40931311742E+03  0.79405235025E+03  0.00000000000E+00 0.  1.
          1    1    6    6  503    0  0.85364054778E+01  0.12170435717E+03  0.38014100263E+01  0.12206257203E+03  0.00000000000E+00 0. -1.
         -1    1    6    6    0  503 -0.61743111304E+02  0.11648332601E+03 -0.61457163851E+02  0.14545638528E+03  0.00000000000E+00 0.  1.
<mgrwt>
<rscale>  0 0.16496434E+04</rscale>
<asrwt>0</asrwt>
<pdfrwt beam="1">  1        2 0.18025213E+00 0.16496434E+04</pdfrwt>
<pdfrwt beam="2">  1       -1 0.89333231E-01 0.16496434E+04</pdfrwt>
<totfact> 0.26354501E+01</totfact>
</mgrwt>
</event>
<event>
12    6  0.1457317E-007  0.1588295E+04  0.7818608E-02  0.8827771E-01
         -1   -1    0    0    0  501 -0.00000000000E+00  0.00000000000E+00  0.14936198753E+04  0.14936198753E+04  0.00000000000E+00 0.  1.
          2   -1    0    0  501    0  0.00000000000E+00 -0.00000000000E+00 -0.42224266274E+03  0.42224266274E+03  0.00000000000E+00 0. -1.
         24    2    1    2    0    0  0.19034654113E+03 -0.37328422097E+03  0.76740188857E+03  0.87805173734E+03  0.80599500822E+02 0.  0.
        254    2    1    2    0    0 -0.19034654113E+03  0.37328422097E+03  0.30397532402E+03  0.10378108007E+04  0.89948726793E+03 0.  0.
         23    2    4    4    0    0  0.48247274239E+02  0.29150148231E+03 -0.26599119946E+03  0.40819090482E+03  0.92561238759E+02 0.  0.
         23    2    4    4    0    0 -0.23859381536E+03  0.81782738655E+02  0.56996652349E+03  0.62961989592E+03  0.89128841406E+02 0.  0.
          2    1    3    3  502    0  0.91900762600E+02 -0.16307451527E+03  0.26310176818E+03  0.32289563038E+03  0.00000000000E+00 0. -1.
         -3    1    3    3    0  502  0.98445778526E+02 -0.21020970569E+03  0.50430012038E+03  0.55515610696E+03  0.00000000000E+00 0.  1.
         11    1    5    5    0    0  0.35015061257E+02  0.15295563339E+03 -0.19987291126E+03  0.25410757753E+03  0.00000000000E+00 0. -1.
        -11    1    5    5    0    0  0.13232212982E+02  0.13854584892E+03 -0.66118288203E+02  0.15408332729E+03  0.00000000000E+00 0.  1.
          1    1    6    6  503    0 -0.20685380678E+03  0.98490028010E+02  0.45900822005E+03  0.51300811794E+03  0.00000000000E+00 0. -1.
         -1    1    6    6    0  503 -0.31740008583E+02 -0.16707289355E+02  0.11095830343E+03  0.11661177798E+03  0.00000000000E+00 0.  1.
<mgrwt>
<rscale>  0 0.15882947E+04</rscale>
<asrwt>0</asrwt>
<pdfrwt beam="1">  1        2 0.64960411E-01 0.15882947E+04</pdfrwt>
<pdfrwt beam="2">  1       -1 0.22978767E+00 0.15882947E+04</pdfrwt>
<totfact> 0.77747081E+00</totfact>
</mgrwt>
</event>
<event>
12    6  0.1457317E-007  0.1392096E+04  0.7818608E-02  0.8959560E-01
          2   -1    0    0  501    0  0.00000000000E+00  0.00000000000E+00  0.18146718185E+04  0.18146718185E+04  0.00000000000E+00 0. -1.
         -1   -1    0    0    0  501 -0.00000000000E+00 -0.00000000000E+00 -0.26698077677E+03  0.26698077677E+03  0.00000000000E+00 0.  1.
         24    2    1    2    0    0 -0.38968322646E+03  0.94256055039E+01  0.55008551008E+03  0.67894359717E+03  0.80177806908E+02 0.  0.
        254    2    1    2    0    0  0.38968322646E+03 -0.94256055039E+01  0.99760553162E+03  0.14027089981E+04  0.90577805091E+03 0.  0.
         23    2    4    4    0    0  0.11956366863E+03  0.36717087013E+03  0.79587553527E+03  0.88937875245E+03  0.92015101673E+02 0.  0.
         23    2    4    4    0    0  0.27011955783E+03 -0.37659647564E+03  0.20172999636E+03  0.51333024562E+03  0.89573816801E+02 0.  0.
          2    1    3    3  502    0 -0.34890084941E+03  0.22725782671E+02  0.51973249542E+03  0.62639454875E+03  0.00000000000E+00 0. -1.
         -1    1    3    3    0  502 -0.40782377052E+02 -0.13300177167E+02  0.30353014658E+02  0.52549048417E+02  0.00000000000E+00 0.  1.
         11    1    5    5    0    0  0.13141576398E+03  0.34606871858E+03  0.71772057720E+03  0.80756206445E+03  0.00000000000E+00 0. -1.
        -11    1    5    5    0    0 -0.11852095346E+02  0.21102151549E+02  0.78154958067E+02  0.81816687995E+02  0.00000000000E+00 0.  1.
          3    1    6    6  503    0  0.25086385793E+03 -0.35856995519E+03  0.21040022743E+03  0.48556497370E+03  0.00000000000E+00 0. -1.
         -3    1    6    6    0  503  0.19255699892E+02 -0.18026520450E+02 -0.86702310773E+01  0.27765271920E+02  0.00000000000E+00 0.  1.
<mgrwt>
<rscale>  0 0.13920955E+04</rscale>
<asrwt>0</asrwt>
<pdfrwt beam="1">  1        2 0.27918027E+00 0.13920955E+04</pdfrwt>
<pdfrwt beam="2">  1       -1 0.41073967E-01 0.13920955E+04</pdfrwt>
<totfact> 0.54511966E+01</totfact>
</mgrwt>
</event>
<event>
12    6  0.1457317E-007  0.1589583E+04  0.7818608E-02  0.8826973E-01
         -1   -1    0    0    0  501 -0.00000000000E+00  0.00000000000E+00  0.15979400935E+04  0.15979400935E+04  0.00000000000E+00 0.  1.
          2   -1    0    0  501    0  0.00000000000E+00 -0.00000000000E+00 -0.39531731095E+03  0.39531731095E+03  0.00000000000E+00 0. -1.
         24    2    1    2    0    0  0.58844937190E+01  0.36870058632E+03  0.89383992036E+03  0.97019286767E+03  0.79684676239E+02 0.  0.
        254    2    1    2    0    0 -0.58844937190E+01 -0.36870058632E+03  0.30878286216E+03  0.10230645368E+04  0.90296148355E+03 0.  0.
         23    2    4    4    0    0 -0.38686519894E+03 -0.41594190523E+03  0.13179538775E+03  0.59009197954E+03  0.90366860154E+02 0.  0.
         23    2    4    4    0    0  0.38098070522E+03  0.47241318905E+02  0.17698747441E+03  0.43297255721E+03  0.93608916449E+02 0.  0.
          4    1    3    3  502    0  0.35138916935E+02  0.91482105356E+02  0.25504230014E+03  0.27322205977E+03  0.00000000000E+00 0. -1.
         -3    1    3    3    0  502 -0.29254423216E+02  0.27721848096E+03  0.63879762022E+03  0.69697080790E+03  0.00000000000E+00 0.  1.
         11    1    5    5    0    0 -0.13958706229E+02  0.19874019374E+01  0.88488609735E+01  0.16646248423E+02  0.00000000000E+00 0. -1.
        -11    1    5    5    0    0 -0.37290649271E+03 -0.41792930716E+03  0.12294652678E+03  0.57344573112E+03  0.00000000000E+00 0.  1.
          4    1    6    6  503    0  0.84292754080E+02 -0.26369026559E+02  0.53692097563E+02  0.10336070478E+03  0.00000000000E+00 0. -1.
         -4    1    6    6    0  503  0.29668795114E+03  0.73610345465E+02  0.12329537684E+03  0.32961185243E+03  0.00000000000E+00 0.  1.
<mgrwt>
<rscale>  0 0.15895828E+04</rscale>
<asrwt>0</asrwt>
<pdfrwt beam="1">  1        2 0.60818049E-01 0.15895828E+04</pdfrwt>
<pdfrwt beam="2">  1       -1 0.24583693E+00 0.15895828E+04</pdfrwt>
<totfact> 0.65690534E+00</totfact>
</mgrwt>
</event>
<event>
12    6  0.1457317E-007  0.1818597E+04  0.7818608E-02  0.8696472E-01
          2   -1    0    0  501    0  0.00000000000E+00  0.00000000000E+00  0.86175768573E+03  0.86175768573E+03  0.00000000000E+00 0. -1.
         -1   -1    0    0    0  501 -0.00000000000E+00 -0.00000000000E+00 -0.95946248189E+03  0.95946248189E+03  0.00000000000E+00 0.  1.
         24    2    1    2    0    0 -0.37519592088E+03  0.27035513713E+03  0.46627021275E+03  0.66164379798E+03  0.80627072959E+02 0.  0.
        254    2    1    2    0    0  0.37519592088E+03 -0.27035513713E+03 -0.56397500892E+03  0.11595763696E+04  0.90149080257E+03 0.  0.
         23    2    4    4    0    0  0.14587911936E+03  0.23190114370E+02 -0.72341269315E+03  0.74396616658E+03  0.91330353799E+02 0.  0.
         23    2    4    4    0    0  0.22931680151E+03 -0.29354525150E+03  0.15943768423E+03  0.41561020306E+03  0.92501111337E+02 0.  0.
          2    1    3    3  502    0 -0.35018418576E+03  0.26835689269E+03  0.45611597136E+03  0.63457557875E+03  0.00000000000E+00 0. -1.
         -1    1    3    3    0  502 -0.25011735117E+02  0.19982444402E+01  0.10154241391E+02  0.27068219236E+02  0.00000000000E+00 0.  1.
         11    1    5    5    0    0  0.83070411558E+02  0.53762320695E+02 -0.50677428086E+03  0.51634412182E+03  0.00000000000E+00 0. -1.
        -11    1    5    5    0    0  0.62808707807E+02 -0.30572206324E+02 -0.21663841230E+03  0.22762204475E+03  0.00000000000E+00 0.  1.
          2    1    6    6  503    0  0.20938523244E+02 -0.29890893781E+02 -0.11910837043E+02  0.38389521040E+02  0.00000000000E+00 0. -1.
         -2    1    6    6    0  503  0.20837827827E+03 -0.26365435772E+03  0.17134852128E+03  0.37722068202E+03  0.00000000000E+00 0.  1.
<mgrwt>
<rscale>  0 0.18185974E+04</rscale>
<asrwt>0</asrwt>
<pdfrwt beam="1">  1        2 0.13257811E+00 0.18185974E+04</pdfrwt>
<pdfrwt beam="2">  1       -1 0.14760961E+00 0.18185974E+04</pdfrwt>
<totfact> 0.12208264E+01</totfact>
</mgrwt>
</event>
<event>
12    6  0.1457317E-007  0.1463489E+04  0.7818608E-02  0.8909102E-01
          2   -1    0    0  501    0  0.00000000000E+00  0.00000000000E+00  0.14631222422E+04  0.14631222422E+04  0.00000000000E+00 0. -1.
         -1   -1    0    0    0  501 -0.00000000000E+00 -0.00000000000E+00 -0.36596417887E+03  0.36596417887E+03  0.00000000000E+00 0.  1.
         24    2    1    2    0    0  0.61055587999E+02  0.40039916699E+03  0.58671588472E+03  0.71740362887E+03  0.79907193507E+02 0.  0.
        254    2    1    2    0    0 -0.61055587999E+02 -0.40039916699E+03  0.51044217865E+03  0.11116827922E+04  0.90068870043E+03 0.  0.
         23    2    4    4    0    0  0.35399816521E+03 -0.24224994708E+03  0.48944338701E+03  0.65754307691E+03  0.93852709454E+02 0.  0.
         23    2    4    4    0    0 -0.41505375321E+03 -0.15814921991E+03  0.20998791638E+02  0.45413971534E+03  0.92310010191E+02 0.  0.
          4    1    3    3  502    0  0.30693270931E+02  0.36122096795E+03  0.50128536926E+03  0.61863534170E+03  0.00000000000E+00 0. -1.
         -3    1    3    3    0  502  0.30362317068E+02  0.39178199043E+02  0.85430515459E+02  0.98768287165E+02  0.00000000000E+00 0.  1.
         11    1    5    5    0    0  0.13920730674E+03 -0.44007794747E+02  0.14453424603E+03  0.20543979294E+03  0.00000000000E+00 0. -1.
        -11    1    5    5    0    0  0.21479085847E+03 -0.19824215233E+03  0.34490914098E+03  0.45210328396E+03  0.00000000000E+00 0.  1.
          4    1    6    6  503    0 -0.27331063390E+03 -0.93227629615E+02  0.56491322713E+02  0.29424711226E+03  0.00000000000E+00 0. -1.
         -4    1    6    6    0  503 -0.14174311931E+03 -0.64921590298E+02 -0.35492531076E+02  0.15989260308E+03  0.00000000000E+00 0.  1.
<mgrwt>
<rscale>  0 0.14634894E+04</rscale>
<asrwt>0</asrwt>
<pdfrwt beam="1">  1        2 0.22509573E+00 0.14634894E+04</pdfrwt>
<pdfrwt beam="2">  1       -1 0.56302182E-01 0.14634894E+04</pdfrwt>
<totfact> 0.46937564E+01</totfact>
</mgrwt>
</event>
<event>
12    6  0.1457317E-007  0.1760226E+04  0.7818608E-02  0.8727741E-01
         -1   -1    0    0    0  501 -0.00000000000E+00  0.00000000000E+00  0.35198766014E+03  0.35198766014E+03  0.00000000000E+00 0.  1.
          2   -1    0    0  501    0  0.00000000000E+00 -0.00000000000E+00 -0.22006427103E+04  0.22006427103E+04  0.00000000000E+00 0. -1.
         24    2    1    2    0    0 -0.40026542043E+03 -0.22144038480E+03 -0.13754074237E+04  0.14517021931E+04  0.80283406668E+02 0.  0.
        254    2    1    2    0    0  0.40026542043E+03  0.22144038480E+03 -0.47324762644E+03  0.11009281773E+04  0.88251418399E+03 0.  0.
         23    2    4    4    0    0  0.24890626977E+03  0.15783934263E+03  0.22352101555E+03  0.37932490918E+03  0.84012815238E+02 0.  0.
         23    2    4    4    0    0  0.15135915066E+03  0.63601042172E+02 -0.69676864199E+03  0.72160326817E+03  0.90939821385E+02 0.  0.
          4    1    3    3  502    0 -0.29874241330E+03 -0.18931989710E+03 -0.96728216724E+03  0.10299144838E+04  0.00000000000E+00 0. -1.
         -3    1    3    3    0  502 -0.10152300712E+03 -0.32120487704E+02 -0.40812525645E+03  0.42178770923E+03  0.00000000000E+00 0.  1.
         11    1    5    5    0    0  0.48066423217E+02  0.49510828808E+00  0.57424356676E+02  0.74887802162E+02  0.00000000000E+00 0. -1.
        -11    1    5    5    0    0  0.20083984655E+03  0.15734423434E+03  0.16609665887E+03  0.30443710702E+03  0.00000000000E+00 0.  1.
          2    1    6    6  503    0  0.10397465838E+03  0.70754585370E+02 -0.60650764508E+03  0.61940977105E+03  0.00000000000E+00 0. -1.
         -2    1    6    6    0  503  0.47384492280E+02 -0.71535431973E+01 -0.90260996909E+02  0.10219349711E+03  0.00000000000E+00 0.  1.
<mgrwt>
<rscale>  0 0.17602262E+04</rscale>
<asrwt>0</asrwt>
<pdfrwt beam="1">  1        2 0.33856042E+00 0.17602262E+04</pdfrwt>
<pdfrwt beam="2">  1       -1 0.54151947E-01 0.17602262E+04</pdfrwt>
<totfact> 0.19167619E+01</totfact>
</mgrwt>
</event>
<event>
12    6  0.1457317E-007  0.2525565E+04  0.7818608E-02  0.8393934E-01
         -1   -1    0    0    0  501 -0.00000000000E+00  0.00000000000E+00  0.63698149485E+03  0.63698149485E+03  0.00000000000E+00 0.  1.
          2   -1    0    0  501    0  0.00000000000E+00 -0.00000000000E+00 -0.25034003179E+04  0.25034003179E+04  0.00000000000E+00 0. -1.
         24    2    1    2    0    0 -0.17868671055E+03 -0.19930847101E+02  0.54281374377E+03  0.57730120902E+03  0.79396135418E+02 0.  0.
        254    2    1    2    0    0  0.17868671055E+03  0.19930847101E+02 -0.24092325668E+04  0.25630806038E+04  0.85595235906E+03 0.  0.
         23    2    4    4    0    0  0.42126105949E+03 -0.19518492400E+03 -0.90392721402E+03  0.10204911440E+04  0.93593439508E+02 0.  0.
         23    2    4    4    0    0 -0.24257434895E+03  0.21511577110E+03 -0.15053053528E+04  0.15425894598E+04  0.92308863960E+02 0.  0.
          4    1    3    3  502    0 -0.23438490101E+02 -0.33141121463E+02  0.10347408205E+03  0.11115116916E+03  0.00000000000E+00 0. -1.
         -1    1    3    3    0  502 -0.15524822045E+03  0.13210274361E+02  0.43933966172E+03  0.46615003986E+03  0.00000000000E+00 0.  1.
         11    1    5    5    0    0  0.10850732112E+03 -0.70690121958E+02 -0.17611771335E+03  0.21860553752E+03  0.00000000000E+00 0.  1.
        -11    1    5    5    0    0  0.31275373838E+03 -0.12449480205E+03 -0.72780950067E+03  0.80188560647E+03  0.00000000000E+00 0. -1.
          4    1    6    6  503    0 -0.24847836884E+03  0.21495056347E+03 -0.14394265418E+04  0.14764464141E+04  0.00000000000E+00 0. -1.
         -4    1    6    6    0  503  0.59040198918E+01  0.16520762983E+00 -0.65878811075E+02  0.66143045689E+02  0.00000000000E+00 0.  1.
<mgrwt>
<rscale>  0 0.25255650E+04</rscale>
<asrwt>0</asrwt>
<pdfrwt beam="1">  1        2 0.38513850E+00 0.25255650E+04</pdfrwt>
<pdfrwt beam="2">  1       -1 0.97997156E-01 0.25255650E+04</pdfrwt>
<totfact> 0.35005017E+00</totfact>
</mgrwt>
</event>
<event>
12    6  0.1457317E-007  0.1545605E+04  0.7818608E-02  0.8854680E-01
          2   -1    0    0  501    0  0.00000000000E+00  0.00000000000E+00  0.11130121169E+04  0.11130121169E+04  0.00000000000E+00 0. -1.
         -1   -1    0    0    0  501 -0.00000000000E+00 -0.00000000000E+00 -0.53658315873E+03  0.53658315873E+03  0.00000000000E+00 0.  1.
         24    2    1    2    0    0  0.11865263043E+03  0.83754603522E+02 -0.32803306587E+03  0.36752766758E+03  0.79859963805E+02 0.  0.
        254    2    1    2    0    0 -0.11865263043E+03 -0.83754603522E+02  0.90446202399E+03  0.12820676080E+04  0.89696851578E+03 0.  0.
         23    2    4    4    0    0 -0.50035311538E+03 -0.83135526847E+02  0.51947933289E+03  0.73182709156E+03  0.91909513950E+02 0.  0.
         23    2    4    4    0    0  0.38170048495E+03 -0.61907667458E+00  0.38498269111E+03  0.55024051643E+03  0.94113282845E+02 0.  0.
          4    1    3    3  502    0  0.46452022964E+02 -0.98102571575E+01 -0.99354805820E+02  0.11011543499E+03  0.00000000000E+00 0. -1.
         -3    1    3    3    0  502  0.72200607465E+02  0.93564860679E+02 -0.22867826005E+03  0.25741223260E+03  0.00000000000E+00 0.  1.
         11    1    5    5    0    0 -0.25441452276E+03 -0.43369091365E+02  0.32939304030E+03  0.41845836409E+03  0.00000000000E+00 0. -1.
        -11    1    5    5    0    0 -0.24593859262E+03 -0.39766435483E+02  0.19008629259E+03  0.31336872748E+03  0.00000000000E+00 0.  1.
          2    1    6    6  503    0  0.32116420496E+03 -0.56446041025E+01  0.26761983314E+03  0.41808932442E+03  0.00000000000E+00 0. -1.
         -2    1    6    6    0  503  0.60536279987E+02  0.50255274280E+01  0.11736285797E+03  0.13215119201E+03  0.00000000000E+00 0.  1.
<mgrwt>
<rscale>  0 0.15456048E+04</rscale>
<asrwt>0</asrwt>
<pdfrwt beam="1">  1        2 0.17123263E+00 0.15456048E+04</pdfrwt>
<pdfrwt beam="2">  1       -1 0.82551256E-01 0.15456048E+04</pdfrwt>
<totfact> 0.34260998E+01</totfact>
</mgrwt>
</event>
<event>
12    6  0.1457317E-007  0.2014691E+04  0.7818608E-02  0.8599783E-01
         -1   -1    0    0    0  501 -0.00000000000E+00  0.00000000000E+00  0.70300012268E+03  0.70300012268E+03  0.00000000000E+00 0.  1.
          2   -1    0    0  501    0  0.00000000000E+00 -0.00000000000E+00 -0.14434495440E+04  0.14434495440E+04  0.00000000000E+00 0. -1.
         24    2    1    2    0    0 -0.22787178863E+03  0.34214636018E+03  0.43894592452E+03  0.60636110621E+03  0.77527947449E+02 0.  0.
        254    2    1    2    0    0  0.22787178863E+03 -0.34214636018E+03 -0.11793953458E+04  0.15400885605E+04  0.90106032453E+03 0.  0.
         23    2    4    4    0    0 -0.27174994176E+00  0.26657265888E+03 -0.15107317655E+03  0.31983849648E+03  0.91719697171E+02 0.  0.
         23    2    4    4    0    0  0.22814353857E+03 -0.60871901906E+03 -0.10283221693E+04  0.12202500640E+04  0.94738674416E+02 0.  0.
          2    1    3    3  502    0 -0.80712427876E+02  0.14765953864E+03  0.12939021244E+03  0.21227261350E+03  0.00000000000E+00 0. -1.
         -1    1    3    3    0  502 -0.14715936075E+03  0.19448682154E+03  0.30955571208E+03  0.39408849272E+03  0.00000000000E+00 0.  1.
         11    1    5    5    0    0 -0.19860307557E+02  0.64796780641E+02 -0.80388354021E+02  0.10514438673E+03  0.00000000000E+00 0. -1.
        -11    1    5    5    0    0  0.19588557615E+02  0.20177587824E+03 -0.70684822528E+02  0.21469410976E+03  0.00000000000E+00 0.  1.
          3    1    6    6  503    0  0.84722939547E+01 -0.10033219005E+03 -0.12286885243E+03  0.15885554137E+03  0.00000000000E+00 0. -1.
         -3    1    6    6    0  503  0.21967124462E+03 -0.50838682901E+03 -0.90545331686E+03  0.10613945226E+04  0.00000000000E+00 0.  1.
<mgrwt>
<rscale>  0 0.20146912E+04</rscale>
<asrwt>0</asrwt>
<pdfrwt beam="1">  1        2 0.22206916E+00 0.20146912E+04</pdfrwt>
<pdfrwt beam="2">  1       -1 0.10815387E+00 0.20146912E+04</pdfrwt>
<totfact> 0.11479290E+01</totfact>
</mgrwt>
</event>
<event>
12    6  0.1457317E-007  0.1571191E+04  0.7818608E-02  0.8838445E-01
         -1   -1    0    0    0  501 -0.00000000000E+00  0.00000000000E+00  0.74669012783E+03  0.74669012783E+03  0.00000000000E+00 0.  1.
          2   -1    0    0  501    0  0.00000000000E+00 -0.00000000000E+00 -0.82652759763E+03  0.82652759763E+03  0.00000000000E+00 0. -1.
         24    2    1    2    0    0 -0.50639978730E+03  0.13768315189E+03 -0.49051127209E+02  0.53293594347E+03  0.78849932637E+02 0.  0.
        254    2    1    2    0    0  0.50639978730E+03 -0.13768315189E+03 -0.30786342594E+02  0.10402817820E+04  0.89768646651E+03 0.  0.
         23    2    4    4    0    0  0.68319509853E+03  0.64784724178E+02 -0.18548257855E+03  0.71710686912E+03  0.94264901515E+02 0.  0.
         23    2    4    4    0    0 -0.17679531123E+03 -0.20246787606E+03  0.15469623595E+03  0.32317491286E+03  0.90891561628E+02 0.  0.
          2    1    3    3  502    0 -0.16848543363E+03  0.57496920509E+02  0.18988560765E+02  0.17903575803E+03  0.00000000000E+00 0. -1.
         -1    1    3    3    0  502 -0.33791435367E+03  0.80186231378E+02 -0.68039687974E+02  0.35390018545E+03  0.00000000000E+00 0.  1.
         11    1    5    5    0    0  0.68057559950E+03  0.55260568456E+02 -0.18330350351E+03  0.70699154978E+03  0.00000000000E+00 0.  1.
        -11    1    5    5    0    0  0.26194990283E+01  0.95241557223E+01 -0.21790750379E+01  0.10115319343E+02  0.00000000000E+00 0. -1.
          4    1    6    6  503    0 -0.12705903019E+03 -0.97712606737E+02  0.52668933547E+02  0.16871801098E+03  0.00000000000E+00 0. -1.
         -4    1    6    6    0  503 -0.49736281044E+02 -0.10475526933E+03  0.10202730241E+03  0.15445690189E+03  0.00000000000E+00 0.  1.
<mgrwt>
<rscale>  0 0.15711906E+04</rscale>
<asrwt>0</asrwt>
<pdfrwt beam="1">  1        2 0.12715809E+00 0.15711906E+04</pdfrwt>
<pdfrwt beam="2">  1       -1 0.11487541E+00 0.15711906E+04</pdfrwt>
<totfact> 0.24899969E+01</totfact>
</mgrwt>
</event>
<event>
12    6  0.1457317E-007  0.1943252E+04  0.7818608E-02  0.8633621E-01
          2   -1    0    0  501    0  0.00000000000E+00  0.00000000000E+00  0.32799143456E+04  0.32799143456E+04  0.00000000000E+00 0. -1.
         -1   -1    0    0    0  501 -0.00000000000E+00 -0.00000000000E+00 -0.28782994333E+03  0.28782994333E+03  0.00000000000E+00 0.  1.
         24    2    1    2    0    0  0.39043991755E+03 -0.53488374319E+03  0.18624737221E+04  0.19783055427E+04  0.79627300778E+02 0.  0.
        254    2    1    2    0    0 -0.39043991755E+03  0.53488374319E+03  0.11296106802E+04  0.15894387462E+04  0.90097241424E+03 0.  0.
         23    2    4    4    0    0  0.13873677517E+03  0.23992891920E+03 -0.14699471487E+02  0.29142222568E+03  0.88865404419E+02 0.  0.
         23    2    4    4    0    0 -0.52917669272E+03  0.29495482399E+03  0.11443101517E+04  0.12980165206E+04  0.91514173902E+02 0.  0.
          4    1    3    3  502    0  0.26712034381E+03 -0.34264161162E+03  0.13217984734E+04  0.13913690223E+04  0.00000000000E+00 0. -1.
         -1    1    3    3    0  502  0.12331957374E+03 -0.19224213157E+03  0.54067524868E+03  0.58693652037E+03  0.00000000000E+00 0.  1.
         11    1    5    5    0    0  0.25351060162E+02  0.89380813306E+02  0.30173965198E+02  0.97683541164E+02  0.00000000000E+00 0.  1.
        -11    1    5    5    0    0  0.11338571501E+03  0.15054810589E+03 -0.44873436685E+02  0.19373868451E+03  0.00000000000E+00 0. -1.
          4    1    6    6  503    0 -0.49482104755E+03  0.29702595446E+03  0.10594813102E+04  0.12064712733E+04  0.00000000000E+00 0. -1.
         -4    1    6    6    0  503 -0.34355645177E+02 -0.20711304774E+01  0.84828841566E+02  0.91545247274E+02  0.00000000000E+00 0.  1.
<mgrwt>
<rscale>  0 0.19432525E+04</rscale>
<asrwt>0</asrwt>
<pdfrwt beam="1">  1        2 0.50460218E+00 0.19432525E+04</pdfrwt>
<pdfrwt beam="2">  1       -1 0.44281532E-01 0.19432525E+04</pdfrwt>
<totfact> 0.61871145E+00</totfact>
</mgrwt>
</event>
<event>
12    6  0.1457317E-007  0.2317310E+04  0.7818608E-02  0.8471127E-01
         -1   -1    0    0    0  501 -0.00000000000E+00  0.00000000000E+00  0.15895061192E+04  0.15895061192E+04  0.00000000000E+00 0.  1.
          2   -1    0    0  501    0  0.00000000000E+00 -0.00000000000E+00 -0.84459047522E+03  0.84459047522E+03  0.00000000000E+00 0. -1.
         24    2    1    2    0    0  0.21574851215E+03  0.18115715896E+02  0.13134562196E+04  0.13336365708E+04  0.80892908562E+02 0.  0.
        254    2    1    2    0    0 -0.21574851215E+03 -0.18115715896E+02 -0.56854057558E+03  0.11004600236E+04  0.91700505877E+03 0.  0.
         23    2    4    4    0    0  0.31211428764E+03 -0.16100723589E+03 -0.10534488908E+03  0.37804721318E+03  0.92105869397E+02 0.  0.
         23    2    4    4    0    0 -0.52786279979E+03  0.14289151999E+03 -0.46319568650E+03  0.72241281043E+03  0.90955498922E+02 0.  0.
          4    1    3    3  502    0  0.12970573458E+02  0.23971660954E+02  0.11948664698E+03  0.12255584487E+03  0.00000000000E+00 0. -1.
         -3    1    3    3    0  502  0.20277793869E+03 -0.58559450582E+01  0.11939695726E+04  0.12110807260E+04  0.00000000000E+00 0.  1.
         11    1    5    5    0    0  0.40490514487E+00 -0.31642400538E+01 -0.17486033426E+02  0.17774637219E+02  0.00000000000E+00 0.  1.
        -11    1    5    5    0    0  0.31170938250E+03 -0.15784299584E+03 -0.87858855650E+02  0.36027257596E+03  0.00000000000E+00 0. -1.
          2    1    6    6  503    0 -0.43429793811E+03  0.14837049248E+03 -0.40500344982E+03  0.61209173859E+03  0.00000000000E+00 0. -1.
         -2    1    6    6    0  503 -0.93564861678E+02 -0.54789724849E+01 -0.58192236682E+02  0.11032107183E+03  0.00000000000E+00 0.  1.
<mgrwt>
<rscale>  0 0.23173103E+04</rscale>
<asrwt>0</asrwt>
<pdfrwt beam="1">  1        2 0.12993700E+00 0.23173103E+04</pdfrwt>
<pdfrwt beam="2">  1       -1 0.24453940E+00 0.23173103E+04</pdfrwt>
<totfact> 0.25027502E+00</totfact>
</mgrwt>
</event>
<event>
12    6  0.1457317E-007  0.1790084E+04  0.7818608E-02  0.8711591E-01
          2   -1    0    0  501    0  0.00000000000E+00  0.00000000000E+00  0.36335154231E+04  0.36335154231E+04  0.00000000000E+00 0. -1.
         -1   -1    0    0    0  501 -0.00000000000E+00 -0.00000000000E+00 -0.22047515055E+03  0.22047515055E+03  0.00000000000E+00 0.  1.
         24    2    1    2    0    0  0.61611569300E+02  0.70918732054E+02 -0.14066961390E+03  0.18626591547E+03  0.77984607211E+02 0.  0.
        254    2    1    2    0    0 -0.61611569300E+02 -0.70918732054E+02  0.35537098864E+04  0.36677246581E+04  0.90251025429E+03 0.  0.
         23    2    4    4    0    0  0.15044278667E+03 -0.42140147544E+03  0.13701789519E+04  0.14442569685E+04  0.90970298685E+02 0.  0.
         23    2    4    4    0    0 -0.21205435597E+03  0.35048274338E+03  0.21835309345E+04  0.22234676897E+04  0.90531881862E+02 0.  0.
          4    1    3    3  502    0  0.23412670825E+02  0.27275933419E+02 -0.20530303431E+01  0.36004786246E+02  0.00000000000E+00 0. -1.
         -3    1    3    3    0  502  0.38198898476E+02  0.43642798635E+02 -0.13861658356E+03  0.15026112922E+03  0.00000000000E+00 0.  1.
         11    1    5    5    0    0  0.15199491649E+03 -0.42308355788E+03  0.13282598528E+04  0.14022754324E+04  0.00000000000E+00 0. -1.
        -11    1    5    5    0    0 -0.15521298203E+01  0.16820824425E+01  0.41919099057E+02  0.41981536109E+02  0.00000000000E+00 0.  1.
          3    1    6    6  503    0 -0.11056559471E+03  0.24827355265E+03  0.15617381204E+04  0.15852099117E+04  0.00000000000E+00 0. -1.
         -3    1    6    6    0  503 -0.10148876126E+03  0.10220919073E+03  0.62179281417E+03  0.63825777793E+03  0.00000000000E+00 0.  1.
<mgrwt>
<rscale>  0 0.17900836E+04</rscale>
<asrwt>0</asrwt>
<pdfrwt beam="1">  1        2 0.55900233E+00 0.17900836E+04</pdfrwt>
<pdfrwt beam="2">  1       -1 0.33919256E-01 0.17900836E+04</pdfrwt>
<totfact> 0.58224732E+00</totfact>
</mgrwt>
</event>
<event>
12    6  0.1457317E-007  0.2374466E+04  0.7818608E-02  0.8449126E-01
          2   -1    0    0  501    0  0.00000000000E+00  0.00000000000E+00  0.10142394748E+04  0.10142394748E+04  0.00000000000E+00 0. -1.
         -1   -1    0    0    0  501 -0.00000000000E+00 -0.00000000000E+00 -0.13897328132E+04  0.13897328132E+04  0.00000000000E+00 0.  1.
         24    2    1    2    0    0 -0.87883580866E+03  0.11877378795E+03  0.30710767804E+03  0.94197064622E+03  0.80833044865E+02 0.  0.
        254    2    1    2    0    0  0.87883580866E+03 -0.11877378795E+03 -0.68260101642E+03  0.14620016418E+04  0.94076833586E+03 0.  0.
         23    2    4    4    0    0  0.25380681631E+03 -0.29440103184E+03  0.12798180846E+03  0.41944908652E+03  0.92023504225E+02 0.  0.
         23    2    4    4    0    0  0.62502899235E+03  0.17562724390E+03 -0.81058282488E+03  0.10425525553E+04  0.91461163820E+02 0.  0.
          2    1    3    3  502    0 -0.83777722173E+03  0.13016662134E+03  0.29478364980E+03  0.89761429509E+03  0.00000000000E+00 0. -1.
         -1    1    3    3    0  502 -0.41058586923E+02 -0.11392833394E+02  0.12324028234E+02  0.44356351121E+02  0.00000000000E+00 0.  1.
         11    1    5    5    0    0  0.55109055195E+01 -0.42789277067E+01 -0.11043539095E+02  0.13062888567E+02  0.00000000000E+00 0. -1.
        -11    1    5    5    0    0  0.24829591079E+03 -0.29012210414E+03  0.13902534755E+03  0.40638619795E+03  0.00000000000E+00 0.  1.
          1    1    6    6  503    0  0.15437209279E+03  0.26013763186E+02 -0.25480253517E+03  0.29905148527E+03  0.00000000000E+00 0. -1.
         -1    1    6    6    0  503  0.47065689956E+03  0.14961348071E+03 -0.55578028970E+03  0.74350107003E+03  0.00000000000E+00 0.  1.
<mgrwt>
<rscale>  0 0.23744657E+04</rscale>
<asrwt>0</asrwt>
<pdfrwt beam="1">  1        2 0.15603684E+00 0.23744657E+04</pdfrwt>
<pdfrwt beam="2">  1       -1 0.21380505E+00 0.23744657E+04</pdfrwt>
<totfact> 0.30698852E+00</totfact>
</mgrwt>
</event>
<event>
12    6  0.1457317E-007  0.1745649E+04  0.7818608E-02  0.8735749E-01
         -1   -1    0    0    0  501 -0.00000000000E+00  0.00000000000E+00  0.12381399237E+04  0.12381399237E+04  0.00000000000E+00 0.  1.
          2   -1    0    0  501    0  0.00000000000E+00 -0.00000000000E+00 -0.61529602974E+03  0.61529602974E+03  0.00000000000E+00 0. -1.
         24    2    1    2    0    0 -0.32268446577E+03  0.52670267880E+03  0.29945678019E+03  0.69057963624E+03  0.75398239247E+02 0.  0.
        254    2    1    2    0    0  0.32268446577E+03 -0.52670267880E+03  0.32338711380E+03  0.11628563172E+04  0.93065278856E+03 0.  0.
         23    2    4    4    0    0 -0.31693157326E+03 -0.13954839428E+03  0.16082649830E+03  0.39265041973E+03  0.91595922861E+02 0.  0.
         23    2    4    4    0    0  0.63961603903E+03 -0.38715428452E+03  0.16256061549E+03  0.77020589750E+03  0.88283936432E+02 0.  0.
          2    1    3    3  502    0 -0.17416953340E+03  0.34395383541E+03  0.16452454133E+03  0.41917489424E+03  0.00000000000E+00 0. -1.
         -1    1    3    3    0  502 -0.14851493238E+03  0.18274884339E+03  0.13493223886E+03  0.27140474200E+03  0.00000000000E+00 0.  1.
         11    1    5    5    0    0 -0.39656630401E+02 -0.52682562148E+02  0.45104692179E+02  0.79890762581E+02  0.00000000000E+00 0.  1.
        -11    1    5    5    0    0 -0.27727494285E+03 -0.86865832135E+02  0.11572180612E+03  0.31275965715E+03  0.00000000000E+00 0. -1.
          4    1    6    6  503    0  0.48129180476E+03 -0.28280838554E+03  0.15947362492E+03  0.58056370995E+03  0.00000000000E+00 0. -1.
         -4    1    6    6    0  503  0.15832423427E+03 -0.10434589898E+03  0.30869905779E+01  0.18964218755E+03  0.00000000000E+00 0.  1.
<mgrwt>
<rscale>  0 0.17456490E+04</rscale>
<asrwt>0</asrwt>
<pdfrwt beam="1">  1        2 0.94660928E-01 0.17456490E+04</pdfrwt>
<pdfrwt beam="2">  1       -1 0.19048306E+00 0.17456490E+04</pdfrwt>
<totfact> 0.91321568E+00</totfact>
</mgrwt>
</event>
<event>
12    6  0.1457317E-007  0.1595179E+04  0.7818608E-02  0.8823515E-01
          2   -1    0    0  501    0  0.00000000000E+00  0.00000000000E+00  0.93743304608E+03  0.93743304608E+03  0.00000000000E+00 0. -1.
         -1   -1    0    0    0  501 -0.00000000000E+00 -0.00000000000E+00 -0.67860743018E+03  0.67860743018E+03  0.00000000000E+00 0.  1.
         24    2    1    2    0    0  0.39309619904E+03 -0.20550258492E+02  0.46137185195E+03  0.61178832305E+03  0.80461367279E+02 0.  0.
        254    2    1    2    0    0 -0.39309619904E+03  0.20550258492E+02 -0.20254623606E+03  0.10042521532E+04  0.90141581674E+03 0.  0.
         23    2    4    4    0    0 -0.73098446687E+02 -0.35303205173E+03  0.14141839409E+03  0.39756029747E+03  0.89888906336E+02 0.  0.
         23    2    4    4    0    0 -0.31999775235E+03  0.37358231022E+03 -0.34396463014E+03  0.60669185575E+03  0.88323479449E+02 0.  0.
          4    1    3    3  502    0  0.25241315971E+03  0.81822995300E+01  0.34152656651E+03  0.42475845943E+03  0.00000000000E+00 0. -1.
         -3    1    3    3    0  502  0.14068303933E+03 -0.28732558022E+02  0.11984528544E+03  0.18702986362E+03  0.00000000000E+00 0.  1.
         11    1    5    5    0    0 -0.14659686662E+02 -0.26017445925E+01 -0.73358743122E+00  0.14906831940E+02  0.00000000000E+00 0.  1.
        -11    1    5    5    0    0 -0.58438760025E+02 -0.35043030713E+03  0.14215198152E+03  0.38265346553E+03  0.00000000000E+00 0. -1.
          1    1    6    6  503    0 -0.26883596094E+03  0.27153377930E+03 -0.23327492475E+03  0.44768354640E+03  0.00000000000E+00 0. -1.
         -1    1    6    6    0  503 -0.51161791412E+02  0.10204853091E+03 -0.11068970539E+03  0.15900830935E+03  0.00000000000E+00 0.  1.
<mgrwt>
<rscale>  0 0.15951790E+04</rscale>
<asrwt>0</asrwt>
<pdfrwt beam="1">  1        2 0.14422047E+00 0.15951790E+04</pdfrwt>
<pdfrwt beam="2">  1       -1 0.10440114E+00 0.15951790E+04</pdfrwt>
<totfact> 0.26144778E+01</totfact>
</mgrwt>
</event>
<event>
12    6  0.1457317E-007  0.1823359E+04  0.7818608E-02  0.8693975E-01
          2   -1    0    0  501    0  0.00000000000E+00  0.00000000000E+00  0.16816828857E+04  0.16816828857E+04  0.00000000000E+00 0. -1.
         -1   -1    0    0    0  501 -0.00000000000E+00 -0.00000000000E+00 -0.49424278477E+03  0.49424278477E+03  0.00000000000E+00 0.  1.
         24    2    1    2    0    0 -0.27763307187E+03  0.33150662766E+03  0.11334636946E+04  0.12157838253E+04  0.80084930869E+02 0.  0.
        254    2    1    2    0    0  0.27763307187E+03 -0.33150662766E+03  0.53976406292E+02  0.96014184511E+03  0.85555954996E+03 0.  0.
         23    2    4    4    0    0 -0.73972863636E+02 -0.42301773501E+03 -0.22424051558E+03  0.49318192530E+03  0.92350495009E+02 0.  0.
         23    2    4    4    0    0  0.35160593551E+03  0.91511107357E+02  0.27821692187E+03  0.46695991981E+03  0.92983301946E+02 0.  0.
          4    1    3    3  502    0 -0.22624131540E+03  0.30424826696E+03  0.93435193541E+03  0.10083479955E+04  0.00000000000E+00 0. -1.
         -3    1    3    3    0  502 -0.51391756467E+02  0.27258360691E+02  0.19911175920E+03  0.20743582987E+03  0.00000000000E+00 0.  1.
         11    1    5    5    0    0 -0.92239753711E+02 -0.28258753026E+03 -0.16141312685E+03  0.33825741965E+03  0.00000000000E+00 0. -1.
        -11    1    5    5    0    0  0.18266890074E+02 -0.14043020475E+03 -0.62827388724E+02  0.15492450565E+03  0.00000000000E+00 0.  1.
          1    1    6    6  503    0  0.26038149501E+03  0.34408296567E+02  0.22965050248E+03  0.34888652469E+03  0.00000000000E+00 0. -1.
         -1    1    6    6    0  503  0.91224440498E+02  0.57102810790E+02  0.48566419384E+02  0.11807339512E+03  0.00000000000E+00 0.  1.
<mgrwt>
<rscale>  0 0.18233591E+04</rscale>
<asrwt>0</asrwt>
<pdfrwt beam="1">  1        2 0.25872044E+00 0.18233591E+04</pdfrwt>
<pdfrwt beam="2">  1       -1 0.76037352E-01 0.18233591E+04</pdfrwt>
<totfact> 0.18719571E+01</totfact>
</mgrwt>
</event>
<event>
12    6  0.1457317E-007  0.3099647E+04  0.7818608E-02  0.8215835E-01
         -1   -1    0    0    0  501 -0.00000000000E+00  0.00000000000E+00  0.74567434947E+03  0.74567434947E+03  0.00000000000E+00 0.  1.
          2   -1    0    0  501    0  0.00000000000E+00 -0.00000000000E+00 -0.32211820640E+04  0.32211820640E+04  0.00000000000E+00 0. -1.
         24    2    1    2    0    0  0.57519430817E+03 -0.44356786740E+03  0.42218907809E+03  0.84417559307E+03  0.82388525476E+02 0.  0.
        254    2    1    2    0    0 -0.57519430817E+03  0.44356786740E+03 -0.28976967926E+04  0.31226808204E+04  0.90933374452E+03 0.  0.
         23    2    4    4    0    0 -0.62860056715E+03 -0.60686051475E+02 -0.18087178491E+04  0.19179831101E+04  0.91528593392E+02 0.  0.
         23    2    4    4    0    0  0.53406258974E+02  0.50425391887E+03 -0.10889789436E+04  0.12046977103E+04  0.91088914645E+02 0.  0.
          4    1    3    3  502    0 -0.35269837674E+00 -0.10955087192E+02  0.51281873834E+01  0.12101100667E+02  0.00000000000E+00 0. -1.
         -3    1    3    3    0  502  0.57554700655E+03 -0.43261278021E+03  0.41706089071E+03  0.83207449240E+03  0.00000000000E+00 0.  1.
         11    1    5    5    0    0 -0.52000082925E+03 -0.23252710225E+02 -0.15452080206E+04  0.16305242647E+04  0.00000000000E+00 0. -1.
        -11    1    5    5    0    0 -0.10859973790E+03 -0.37433341250E+02 -0.26350982851E+03  0.28745884545E+03  0.00000000000E+00 0.  1.
          1    1    6    6  503    0  0.50440400009E+02  0.49638052601E+03 -0.10230137349E+04  0.11381981209E+04  0.00000000000E+00 0. -1.
         -1    1    6    6    0  503  0.29658589650E+01  0.78733928596E+01 -0.65965208642E+02  0.66499589365E+02  0.00000000000E+00 0.  1.
<mgrwt>
<rscale>  0 0.30996470E+04</rscale>
<asrwt>0</asrwt>
<pdfrwt beam="1">  1        2 0.49556648E+00 0.30996470E+04</pdfrwt>
<pdfrwt beam="2">  1       -1 0.11471913E+00 0.30996470E+04</pdfrwt>
<totfact> 0.83563970E-01</totfact>
</mgrwt>
</event>
<event>
12    6  0.1947956E-007  0.1715261E+04  0.7818608E-02  0.8752708E-01
          2   -1    0    0  501    0  0.00000000000E+00  0.00000000000E+00  0.12825213758E+04  0.12825213758E+04  0.00000000000E+00 0. -1.
         -1   -1    0    0    0  501 -0.00000000000E+00 -0.00000000000E+00 -0.57350348295E+03  0.57350348295E+03  0.00000000000E+00 0.  1.
         24    2    1    2    0    0 -0.18014967993E+03 -0.45016272453E+02  0.89498419133E+03  0.91759080309E+03  0.80596570721E+02 0.  0.
        254    2    1    2    0    0  0.18014967993E+03  0.45016272453E+02 -0.18596629848E+03  0.93843405566E+03  0.90088547590E+03 0.  0.
         23    2    4    4    0    0 -0.28235232350E+03  0.26418612685E+03 -0.11859339961E+03  0.41467352179E+03  0.91501863580E+02 0.  0.
         23    2    4    4    0    0  0.46250200343E+03 -0.21916985440E+03 -0.67372898869E+02  0.52376053387E+03  0.88557670930E+02 0.  0.
          4    1    3    3  502    0 -0.14072652710E+03 -0.26816118766E+02  0.49670285179E+03  0.51694949718E+03  0.00000000000E+00 0. -1.
         -3    1    3    3    0  502 -0.39423152823E+02 -0.18200153687E+02  0.39828133954E+03  0.40064130591E+03  0.00000000000E+00 0.  1.
         11    1    5    5    0    0 -0.25887674065E+03  0.24671959600E+03 -0.13364266107E+03  0.38176967763E+03  0.00000000000E+00 0.  1.
        -11    1    5    5    0    0 -0.23475582851E+02  0.17466530847E+02  0.15049261461E+02  0.32903844161E+02  0.00000000000E+00 0. -1.
          2    1    6    6  503    0  0.35265870739E+03 -0.20048254984E+03 -0.73084709245E+02  0.41219266298E+03  0.00000000000E+00 0.  1.
         -2    1    6    6    0  503  0.10984329604E+03 -0.18687304559E+02  0.57118103761E+01  0.11156787089E+03  0.00000000000E+00 0. -1.
<mgrwt>
<rscale>  0 0.17152615E+04</rscale>
<asrwt>0</asrwt>
<pdfrwt beam="1">  1        2 0.19731098E+00 0.17152615E+04</pdfrwt>
<pdfrwt beam="2">  1       -1 0.88231305E-01 0.17152615E+04</pdfrwt>
<totfact> 0.23144237E+01</totfact>
</mgrwt>
</event>
<event>
12    6  0.1457317E-007  0.1411718E+04  0.7818608E-02  0.8945380E-01
         -1   -1    0    0    0  501 -0.00000000000E+00  0.00000000000E+00  0.25064821948E+03  0.25064821948E+03  0.00000000000E+00 0.  1.
          2   -1    0    0  501    0  0.00000000000E+00 -0.00000000000E+00 -0.19877947596E+04  0.19877947596E+04  0.00000000000E+00 0. -1.
         24    2    1    2    0    0  0.11257300525E+03  0.36030819138E+03 -0.25370441603E+03  0.46177812785E+03  0.79865101000E+02 0.  0.
        254    2    1    2    0    0 -0.11257300525E+03 -0.36030819138E+03 -0.14834421241E+04  0.17766648512E+04  0.90191062959E+03 0.  0.
         23    2    4    4    0    0 -0.91283045640E+02  0.26384047535E+03 -0.77127677397E+03  0.82526143424E+03  0.90797477530E+02 0.  0.
         23    2    4    4    0    0 -0.21289959605E+02 -0.62414866673E+03 -0.71216535012E+03  0.95140341698E+03  0.89298126373E+02 0.  0.
          4    1    3    3  502    0 -0.57272755488E+01  0.53325096377E+02 -0.57931751624E+02  0.78945901952E+02  0.00000000000E+00 0. -1.
         -3    1    3    3    0  502  0.11830028079E+03  0.30698309501E+03 -0.19577266440E+03  0.38283222589E+03  0.00000000000E+00 0.  1.
         11    1    5    5    0    0 -0.89196413360E+02  0.22100142221E+03 -0.71996794772E+03  0.75838741717E+03  0.00000000000E+00 0.  1.
        -11    1    5    5    0    0 -0.20866322803E+01  0.42839053141E+02 -0.51308826248E+02  0.66874017071E+02  0.00000000000E+00 0. -1.
          2    1    6    6  503    0 -0.28393740556E+02 -0.18583214270E+03 -0.26782725026E+03  0.32721739829E+03  0.00000000000E+00 0. -1.
         -2    1    6    6    0  503  0.71037809504E+01 -0.43831652403E+03 -0.44433809986E+03  0.62418601869E+03  0.00000000000E+00 0.  1.
<mgrwt>
<rscale>  0 0.14117184E+04</rscale>
<asrwt>0</asrwt>
<pdfrwt beam="1">  1        2 0.30581458E+00 0.14117184E+04</pdfrwt>
<pdfrwt beam="2">  1       -1 0.38561264E-01 0.14117184E+04</pdfrwt>
<totfact> 0.48988006E+01</totfact>
</mgrwt>
</event>
<event>
12    6  0.1457317E-007  0.1122235E+04  0.7818608E-02  0.9183787E-01
         -1   -1    0    0    0  501 -0.00000000000E+00  0.00000000000E+00  0.19080289286E+03  0.19080289286E+03  0.00000000000E+00 0.  1.
          2   -1    0    0  501    0  0.00000000000E+00 -0.00000000000E+00 -0.16501471541E+04  0.16501471541E+04  0.00000000000E+00 0. -1.
         24    2    1    2    0    0 -0.80134128030E+02  0.15592350890E+03 -0.34879316335E+03  0.39846326333E+03  0.79891691186E+02 0.  0.
        254    2    1    2    0    0  0.80134128030E+02 -0.15592350890E+03 -0.11105510979E+04  0.14424867837E+04  0.90372051034E+03 0.  0.
         23    2    4    4    0    0 -0.66446472543E+02 -0.40556727384E+03 -0.17041325589E+03  0.45443579958E+03  0.92581158070E+02 0.  0.
         23    2    4    4    0    0  0.14658060057E+03  0.24964376494E+03 -0.94013784203E+03  0.98805098407E+03  0.92615891001E+02 0.  0.
          4    1    3    3  502    0 -0.55272669125E+02  0.11221296311E+03 -0.31203835696E+03  0.33617666970E+03  0.00000000000E+00 0. -1.
         -3    1    3    3    0  502 -0.24861458904E+02  0.43710545796E+02 -0.36754806397E+02  0.62286593629E+02  0.00000000000E+00 0.  1.
         11    1    5    5    0    0 -0.21757846071E+01 -0.14924896716E+02 -0.31417402503E+02  0.34850247642E+02  0.00000000000E+00 0. -1.
        -11    1    5    5    0    0 -0.64270687936E+02 -0.39064237713E+03 -0.13899585338E+03  0.41958555194E+03  0.00000000000E+00 0.  1.
          3    1    6    6  503    0  0.16066212612E+01  0.12515966774E+02 -0.14861295303E+03  0.14914771358E+03  0.00000000000E+00 0. -1.
         -3    1    6    6    0  503  0.14497397931E+03  0.23712779817E+03 -0.79152488900E+03  0.83890327050E+03  0.00000000000E+00 0.  1.
<mgrwt>
<rscale>  0 0.11222350E+04</rscale>
<asrwt>0</asrwt>
<pdfrwt beam="1">  1        2 0.25386881E+00 0.11222350E+04</pdfrwt>
<pdfrwt beam="2">  1       -1 0.29354290E-01 0.11222350E+04</pdfrwt>
<totfact> 0.12517384E+02</totfact>
</mgrwt>
</event>
<event>
12    6  0.1457317E-007  0.2741404E+04  0.7818608E-02  0.8321695E-01
         -1   -1    0    0    0  501 -0.00000000000E+00  0.00000000000E+00  0.68780572058E+03  0.68780572058E+03  0.00000000000E+00 0.  1.
          2   -1    0    0  501    0  0.00000000000E+00 -0.00000000000E+00 -0.27316192526E+04  0.27316192526E+04  0.00000000000E+00 0. -1.
         24    2    1    2    0    0 -0.10236567709E+04 -0.31532575558E+03 -0.16407415033E+04  0.19609572978E+04  0.77571426608E+02 0.  0.
        254    2    1    2    0    0  0.10236567709E+04  0.31532575558E+03 -0.40307202865E+03  0.14584676754E+04  0.90407819525E+03 0.  0.
         23    2    4    4    0    0  0.24088040131E+03  0.51763374847E+02  0.27856757831E+03  0.38357084961E+03  0.93935543197E+02 0.  0.
         23    2    4    4    0    0  0.78277636957E+03  0.26356238074E+03 -0.68163960696E+03  0.10748968258E+04  0.92556247496E+02 0.  0.
          4    1    3    3  502    0 -0.96882102133E+02 -0.23327491705E+02 -0.19555549884E+03  0.21948181408E+03  0.00000000000E+00 0. -1.
         -3    1    3    3    0  502 -0.92677466875E+03 -0.29199826388E+03 -0.14451860045E+04  0.17414754837E+04  0.00000000000E+00 0.  1.
         11    1    5    5    0    0  0.22717072977E+03  0.41666492718E+02  0.28366431517E+03  0.36579786875E+03  0.00000000000E+00 0.  1.
        -11    1    5    5    0    0  0.13709671536E+02  0.10096882129E+02 -0.50967368527E+01  0.17772980867E+02  0.00000000000E+00 0. -1.
          1    1    6    6  503    0  0.25177920538E+03  0.43032909207E+02 -0.18917797931E+03  0.31785674036E+03  0.00000000000E+00 0. -1.
         -1    1    6    6    0  503  0.53099716419E+03  0.22052947153E+03 -0.49246162766E+03  0.75704008541E+03  0.00000000000E+00 0.  1.
<mgrwt>
<rscale>  0 0.27414035E+04</rscale>
<asrwt>0</asrwt>
<pdfrwt beam="1">  1        2 0.42024912E+00 0.27414035E+04</pdfrwt>
<pdfrwt beam="2">  1       -1 0.10581626E+00 0.27414035E+04</pdfrwt>
<totfact> 0.21121184E+00</totfact>
</mgrwt>
</event>
<event>
12    6  0.1457317E-007  0.2194383E+04  0.7818608E-02  0.8520770E-01
         -1   -1    0    0    0  501 -0.00000000000E+00  0.00000000000E+00  0.33057177429E+03  0.33057177429E+03  0.00000000000E+00 0.  1.
          2   -1    0    0  501    0  0.00000000000E+00 -0.00000000000E+00 -0.36416572423E+04  0.36416572423E+04  0.00000000000E+00 0. -1.
         24    2    1    2    0    0 -0.54788300097E+03  0.27359144068E+01 -0.26916272343E+04  0.27480178560E+04  0.81004324291E+02 0.  0.
        254    2    1    2    0    0  0.54788300097E+03 -0.27359144068E+01 -0.61945823372E+03  0.12242111606E+04  0.90265231091E+03 0.  0.
         23    2    4    4    0    0  0.33383364702E+03 -0.94448607975E+02 -0.82533793731E+03  0.89992887136E+03  0.91234967579E+02 0.  0.
         23    2    4    4    0    0  0.21404935395E+03  0.91712693568E+02  0.20587970359E+03  0.32428228923E+03  0.92434877987E+02 0.  0.
          4    1    3    3  502    0 -0.43985538253E+03  0.14531036319E+02 -0.19950044198E+04  0.20429700300E+04  0.00000000000E+00 0. -1.
         -3    1    3    3    0  502 -0.10802761844E+03 -0.11795121912E+02 -0.69662281454E+03  0.70504782602E+03  0.00000000000E+00 0.  1.
         11    1    5    5    0    0  0.22378839235E+03 -0.93395084222E+02 -0.63973154742E+03  0.68414935436E+03  0.00000000000E+00 0.  1.
        -11    1    5    5    0    0  0.11004525467E+03 -0.10535237536E+01 -0.18560638989E+03  0.21577951700E+03  0.00000000000E+00 0. -1.
          3    1    6    6  503    0  0.82880687826E+02  0.73288913735E+02  0.55140952252E+02  0.12361633349E+03  0.00000000000E+00 0. -1.
         -3    1    6    6    0  503  0.13116866612E+03  0.18423779833E+02  0.15073875134E+03  0.20066595573E+03  0.00000000000E+00 0.  1.
<mgrwt>
<rscale>  0 0.21943829E+04</rscale>
<asrwt>0</asrwt>
<pdfrwt beam="1">  1        2 0.56025497E+00 0.21943829E+04</pdfrwt>
<pdfrwt beam="2">  1       -1 0.50857196E-01 0.21943829E+04</pdfrwt>
<totfact> 0.26159636E+00</totfact>
</mgrwt>
</event>
<event>
12    6  0.1457317E-007  0.2296690E+04  0.7818608E-02  0.8479227E-01
          2   -1    0    0  501    0  0.00000000000E+00  0.00000000000E+00  0.90375336274E+03  0.90375336274E+03  0.00000000000E+00 0. -1.
         -1   -1    0    0    0  501 -0.00000000000E+00 -0.00000000000E+00 -0.14591328944E+04  0.14591328944E+04  0.00000000000E+00 0.  1.
         24    2    1    2    0    0  0.26590815938E+03 -0.88386958914E+03  0.54911072202E+02  0.92805951032E+03  0.79665733063E+02 0.  0.
        254    2    1    2    0    0 -0.26590815938E+03  0.88386958914E+03 -0.61029060383E+03  0.14348267468E+04  0.91342245010E+03 0.  0.
         23    2    4    4    0    0  0.16374799638E+03 -0.56015407252E+02  0.54179001433E+02  0.20253763599E+03  0.90194221689E+02 0.  0.
         23    2    4    4    0    0 -0.42965615576E+03  0.93988499639E+03 -0.66446960527E+03  0.12322891108E+04  0.95017775480E+02 0.  0.
          4    1    3    3  502    0  0.14669531642E+03 -0.48842438521E+03  0.70001174612E+02  0.51476019696E+03  0.00000000000E+00 0. -1.
         -3    1    3    3    0  502  0.11921284295E+03 -0.39544520393E+03 -0.15090102411E+02  0.41329931336E+03  0.00000000000E+00 0.  1.
         11    1    5    5    0    0  0.15046991428E+03 -0.75122981953E+02  0.33662737383E+02  0.17151628905E+03  0.00000000000E+00 0.  1.
        -11    1    5    5    0    0  0.13278082103E+02  0.19107574702E+02  0.20516264051E+02  0.31021346939E+02  0.00000000000E+00 0. -1.
          4    1    6    6  503    0 -0.23536363236E+03  0.59476049556E+03 -0.44814270764E+03  0.78100446409E+03  0.00000000000E+00 0. -1.
         -4    1    6    6    0  503 -0.19429252340E+03  0.34512450083E+03 -0.21632689763E+03  0.45128464671E+03  0.00000000000E+00 0.  1.
<mgrwt>
<rscale>  0 0.22966900E+04</rscale>
<asrwt>0</asrwt>
<pdfrwt beam="1">  1        2 0.13903898E+00 0.22966900E+04</pdfrwt>
<pdfrwt beam="2">  1       -1 0.22448198E+00 0.22966900E+04</pdfrwt>
<totfact> 0.30967341E+00</totfact>
</mgrwt>
</event>
<event>
12    6  0.1457317E-007  0.1865609E+04  0.7818608E-02  0.8672167E-01
         -1   -1    0    0    0  501 -0.00000000000E+00  0.00000000000E+00  0.38631498727E+03  0.38631498727E+03  0.00000000000E+00 0.  1.
          2   -1    0    0  501    0  0.00000000000E+00 -0.00000000000E+00 -0.22523700200E+04  0.22523700200E+04  0.00000000000E+00 0. -1.
         24    2    1    2    0    0 -0.25486711029E+03 -0.20384452396E+03  0.17963540103E+03  0.38098022227E+03  0.79794853239E+02 0.  0.
        254    2    1    2    0    0  0.25486711029E+03  0.20384452396E+03 -0.20456904337E+04  0.22577047850E+04  0.89770357671E+03 0.  0.
         23    2    4    4    0    0  0.44265918366E+03  0.10505546558E+03 -0.45297664218E+03  0.64828925360E+03  0.90040625488E+02 0.  0.
         23    2    4    4    0    0 -0.18779207337E+03  0.98789058375E+02 -0.15927137916E+04  0.16094155314E+04  0.91956457089E+02 0.  0.
          2    1    3    3  502    0  0.18877421694E+01 -0.20186104102E+02  0.11794904183E+02  0.23455535253E+02  0.00000000000E+00 0. -1.
         -1    1    3    3    0  502 -0.25675485246E+03 -0.18365841985E+03  0.16784049684E+03  0.35752468702E+03  0.00000000000E+00 0.  1.
         11    1    5    5    0    0  0.84630115453E+02  0.41469000127E+02 -0.13857179092E+03  0.16758304106E+03  0.00000000000E+00 0. -1.
        -11    1    5    5    0    0  0.35802906821E+03  0.63586465454E+02 -0.31440485126E+03  0.48070621253E+03  0.00000000000E+00 0.  1.
          4    1    6    6  503    0 -0.15315857863E+03  0.89821847164E+02 -0.10012839678E+04  0.10169046655E+04  0.00000000000E+00 0. -1.
         -4    1    6    6    0  503 -0.34633494737E+02  0.89672112102E+01 -0.59142982374E+03  0.59251086593E+03  0.00000000000E+00 0.  1.
<mgrwt>
<rscale>  0 0.18656091E+04</rscale>
<asrwt>0</asrwt>
<pdfrwt beam="1">  1        2 0.34651847E+00 0.18656091E+04</pdfrwt>
<pdfrwt beam="2">  1       -1 0.59433075E-01 0.18656091E+04</pdfrwt>
<totfact> 0.14809309E+01</totfact>
</mgrwt>
</event>
<event>
12    6  0.1457317E-007  0.1355814E+04  0.7818608E-02  0.8986439E-01
         -1   -1    0    0    0  501 -0.00000000000E+00  0.00000000000E+00  0.26196498866E+03  0.26196498866E+03  0.00000000000E+00 0.  1.
          2   -1    0    0  501    0  0.00000000000E+00 -0.00000000000E+00 -0.17542726032E+04  0.17542726032E+04  0.00000000000E+00 0. -1.
         24    2    1    2    0    0  0.14755158627E+03 -0.28077143506E+03 -0.11349235381E+03  0.34636631220E+03  0.80529736725E+02 0.  0.
        254    2    1    2    0    0 -0.14755158627E+03  0.28077143506E+03 -0.13788152607E+04  0.16698712797E+04  0.88698055112E+03 0.  0.
         23    2    4    4    0    0  0.29517635772E+03 -0.96814169848E+02 -0.70011839642E+03  0.77131111135E+03  0.90846000716E+02 0.  0.
         23    2    4    4    0    0 -0.44272794399E+03  0.37758560491E+03 -0.67869686433E+03  0.89856016833E+03  0.90565009975E+02 0.  0.
          4    1    3    3  502    0  0.55627318940E+02 -0.10833269666E+03 -0.85877349418E+02  0.14901439837E+03  0.00000000000E+00 0. -1.
         -3    1    3    3    0  502  0.91924267330E+02 -0.17243873840E+03 -0.27615004391E+02  0.19735191383E+03  0.00000000000E+00 0.  1.
         11    1    5    5    0    0  0.19246294573E+03 -0.79287290696E+02 -0.55425522016E+03  0.59205346804E+03  0.00000000000E+00 0.  1.
        -11    1    5    5    0    0  0.10271341200E+03 -0.17526879152E+02 -0.14586317626E+03  0.17925764331E+03  0.00000000000E+00 0. -1.
          2    1    6    6  503    0 -0.65893654598E+02  0.19186656981E+02 -0.71798610905E+02  0.99323421459E+02  0.00000000000E+00 0. -1.
         -2    1    6    6    0  503 -0.37683428939E+03  0.35839894793E+03 -0.60689825343E+03  0.79923674687E+03  0.00000000000E+00 0.  1.
<mgrwt>
<rscale>  0 0.13558142E+04</rscale>
<asrwt>0</asrwt>
<pdfrwt beam="1">  1        2 0.26988810E+00 0.13558142E+04</pdfrwt>
<pdfrwt beam="2">  1       -1 0.40302305E-01 0.13558142E+04</pdfrwt>
<totfact> 0.61132347E+01</totfact>
</mgrwt>
</event>
<event>
12    6  0.1457317E-007  0.2239549E+04  0.7818608E-02  0.8502145E-01
         -1   -1    0    0    0  501 -0.00000000000E+00  0.00000000000E+00  0.54064511737E+03  0.54064511737E+03  0.00000000000E+00 0.  1.
          2   -1    0    0  501    0  0.00000000000E+00 -0.00000000000E+00 -0.23192566398E+04  0.23192566398E+04  0.00000000000E+00 0. -1.
         24    2    1    2    0    0  0.44025809093E+03  0.21258530881E+03  0.27147651932E+03  0.56491013816E+03  0.80026642462E+02 0.  0.
        254    2    1    2    0    0 -0.44025809093E+03 -0.21258530881E+03 -0.20500880418E+04  0.22949916191E+04  0.90835337409E+03 0.  0.
         23    2    4    4    0    0  0.72097833111E+02 -0.35884825256E+03 -0.36339975995E+03  0.52353719133E+03  0.89786631946E+02 0.  0.
         23    2    4    4    0    0 -0.51235592404E+03  0.14626294375E+03 -0.16866882819E+04  0.17714544277E+04  0.96083233293E+02 0.  0.
          2    1    3    3  502    0  0.29203611497E+03  0.15696244681E+03  0.14319882243E+03  0.36114845272E+03  0.00000000000E+00 0. -1.
         -1    1    3    3    0  502  0.14822197596E+03  0.55622861997E+02  0.12827769690E+03  0.20376168545E+03  0.00000000000E+00 0.  1.
         11    1    5    5    0    0  0.57535120083E+02 -0.21148557438E+03 -0.15739298056E+03  0.26983140763E+03  0.00000000000E+00 0. -1.
        -11    1    5    5    0    0  0.14562713027E+02 -0.14736267818E+03 -0.20600677939E+03  0.25370578371E+03  0.00000000000E+00 0.  1.
          2    1    6    6  503    0 -0.74298746475E+02  0.31168743657E+02 -0.38142239995E+03  0.38983950735E+03  0.00000000000E+00 0. -1.
         -2    1    6    6    0  503 -0.43805717757E+03  0.11509420009E+03 -0.13052658819E+04  0.13816149204E+04  0.00000000000E+00 0.  1.
<mgrwt>
<rscale>  0 0.22395489E+04</rscale>
<asrwt>0</asrwt>
<pdfrwt beam="1">  1        2 0.35680870E+00 0.22395489E+04</pdfrwt>
<pdfrwt beam="2">  1       -1 0.83176174E-01 0.22395489E+04</pdfrwt>
<totfact> 0.65761661E+00</totfact>
</mgrwt>
</event>
<event>
12    6  0.1457317E-007  0.1772633E+04  0.7818608E-02  0.8720990E-01
          2   -1    0    0  501    0  0.00000000000E+00  0.00000000000E+00  0.88949039676E+03  0.88949039676E+03  0.00000000000E+00 0. -1.
         -1   -1    0    0    0  501 -0.00000000000E+00 -0.00000000000E+00 -0.88315346239E+03  0.88315346239E+03  0.00000000000E+00 0.  1.
         24    2    1    2    0    0 -0.12328883013E+03  0.10673997736E+03 -0.62755139833E+03  0.65336142553E+03  0.80416642707E+02 0.  0.
        254    2    1    2    0    0  0.12328883013E+03 -0.10673997736E+03  0.63388833270E+03  0.11192824336E+04  0.90795660109E+03 0.  0.
         23    2    4    4    0    0  0.11897401261E+03  0.34827416093E+03  0.51571833163E+03  0.63999446538E+03  0.90431251705E+02 0.  0.
         23    2    4    4    0    0  0.43148175266E+01 -0.45501413829E+03  0.11817000107E+03  0.47928796824E+03  0.93254081135E+02 0.  0.
          2    1    3    3  502    0 -0.72321890874E+02  0.59749566182E+02 -0.20873605813E+03  0.22884756613E+03  0.00000000000E+00 0. -1.
         -1    1    3    3    0  502 -0.50966939261E+02  0.46990411176E+02 -0.41881534020E+03  0.42451385940E+03  0.00000000000E+00 0.  1.
         11    1    5    5    0    0  0.51292358519E+02  0.52155839884E+02  0.12836062147E+03  0.14774162183E+03  0.00000000000E+00 0.  1.
        -11    1    5    5    0    0  0.67681654090E+02  0.29611832105E+03  0.38735771016E+03  0.49225284355E+03  0.00000000000E+00 0. -1.
          3    1    6    6  503    0 -0.23639979850E+02 -0.36643217627E+03  0.12023162616E+03  0.38637680104E+03  0.00000000000E+00 0. -1.
         -3    1    6    6    0  503  0.27954797376E+02 -0.88581962019E+02 -0.20616250875E+01  0.92911167195E+02  0.00000000000E+00 0.  1.
<mgrwt>
<rscale>  0 0.17726325E+04</rscale>
<asrwt>0</asrwt>
<pdfrwt beam="1">  1        2 0.13684468E+00 0.17726325E+04</pdfrwt>
<pdfrwt beam="2">  1       -1 0.13586976E+00 0.17726325E+04</pdfrwt>
<totfact> 0.14584678E+01</totfact>
</mgrwt>
</event>
<event>
12    6  0.1457317E-007  0.1656687E+04  0.7818608E-02  0.8786460E-01
         -1   -1    0    0    0  501 -0.00000000000E+00  0.00000000000E+00  0.37476125068E+03  0.37476125068E+03  0.00000000000E+00 0.  1.
          2   -1    0    0  501    0  0.00000000000E+00 -0.00000000000E+00 -0.18309076776E+04  0.18309076776E+04  0.00000000000E+00 0. -1.
         24    2    1    2    0    0 -0.34056858666E+03 -0.91031100332E+01  0.10784312574E+03  0.36608524934E+03  0.79488622979E+02 0.  0.
        254    2    1    2    0    0  0.34056858666E+03  0.91031100332E+01 -0.15639895527E+04  0.18395836790E+04  0.90660628842E+03 0.  0.
         23    2    4    4    0    0 -0.16743225259E+02  0.18349373765E+03  0.15713618173E+02  0.20796983787E+03  0.95153814010E+02 0.  0.
         23    2    4    4    0    0  0.35731181192E+03 -0.17439062761E+03 -0.15797031708E+04  0.16316138411E+04  0.92832087764E+02 0.  0.
          4    1    3    3  502    0 -0.35727740189E+02 -0.19459943401E+02 -0.47300161330E+01  0.40957708295E+02  0.00000000000E+00 0. -1.
         -3    1    3    3    0  502 -0.30484084647E+03  0.10356833368E+02  0.11257314188E+03  0.32512754104E+03  0.00000000000E+00 0.  1.
         11    1    5    5    0    0 -0.43053171738E+02  0.83884131784E+02  0.39511250830E+02  0.10223141447E+03  0.00000000000E+00 0.  1.
        -11    1    5    5    0    0  0.26309946479E+02  0.99609605862E+02 -0.23797632658E+02  0.10573842340E+03  0.00000000000E+00 0. -1.
          3    1    6    6  503    0 -0.28563687027E+01 -0.47344873550E+01 -0.53235625386E+01  0.76755801594E+01  0.00000000000E+00 0. -1.
         -3    1    6    6    0  503  0.36016818062E+03 -0.16965614026E+03 -0.15743796083E+04  0.16239382609E+04  0.00000000000E+00 0.  1.
<mgrwt>
<rscale>  0 0.16566874E+04</rscale>
<asrwt>0</asrwt>
<pdfrwt beam="1">  1        2 0.28167810E+00 0.16566874E+04</pdfrwt>
<pdfrwt beam="2">  1       -1 0.57655577E-01 0.16566874E+04</pdfrwt>
<totfact> 0.27486483E+01</totfact>
</mgrwt>
</event>
<event>
12    6  0.1457317E-007  0.2853737E+04  0.7818608E-02  0.8286777E-01
         -1   -1    0    0    0  501 -0.00000000000E+00  0.00000000000E+00  0.59391469230E+03  0.59391469230E+03  0.00000000000E+00 0.  1.
          2   -1    0    0  501    0  0.00000000000E+00 -0.00000000000E+00 -0.34280231504E+04  0.34280231504E+04  0.00000000000E+00 0. -1.
         24    2    1    2    0    0  0.53221470147E+03 -0.58756564074E+03 -0.26989394478E+04  0.28141154840E+04  0.80535357493E+02 0.  0.
        254    2    1    2    0    0 -0.53221470147E+03  0.58756564074E+03 -0.13516901028E+03  0.12078223587E+04  0.90115388149E+03 0.  0.
         23    2    4    4    0    0 -0.22407859697E+03  0.77112104673E+03 -0.19754206332E+03  0.83206537531E+03  0.92038229428E+02 0.  0.
         23    2    4    4    0    0 -0.30813610450E+03 -0.18355540600E+03  0.62373053033E+02  0.37575698336E+03  0.93072374143E+02 0.  0.
          2    1    3    3  502    0  0.40818233622E+03 -0.42125166447E+03 -0.20930327350E+04  0.21736724257E+04  0.00000000000E+00 0. -1.
         -1    1    3    3    0  502  0.12403236525E+03 -0.16631397627E+03 -0.60590671275E+03  0.64044305827E+03  0.00000000000E+00 0.  1.
         11    1    5    5    0    0 -0.31962201739E+02  0.21073864751E+03 -0.82740973376E+02  0.22864476502E+03  0.00000000000E+00 0. -1.
        -11    1    5    5    0    0 -0.19211639523E+03  0.56038239922E+03 -0.11480108994E+03  0.60342061029E+03  0.00000000000E+00 0.  1.
          2    1    6    6  503    0 -0.11323985964E+03 -0.37626298145E+02  0.56953386265E+02  0.13222213253E+03  0.00000000000E+00 0. -1.
         -2    1    6    6    0  503 -0.19489624486E+03 -0.14592910785E+03  0.54196667674E+01  0.24353485082E+03  0.00000000000E+00 0.  1.
<mgrwt>
<rscale>  0 0.28537367E+04</rscale>
<asrwt>0</asrwt>
<pdfrwt beam="1">  1        2 0.52738817E+00 0.28537367E+04</pdfrwt>
<pdfrwt beam="2">  1       -1 0.91371492E-01 0.28537367E+04</pdfrwt>
<totfact> 0.10485441E+00</totfact>
</mgrwt>
</event>
<event>
12    6  0.1457317E-007  0.2111395E+04  0.7818608E-02  0.8556240E-01
         -1   -1    0    0    0  501 -0.00000000000E+00  0.00000000000E+00  0.98305992430E+03  0.98305992430E+03  0.00000000000E+00 0.  1.
          2   -1    0    0  501    0  0.00000000000E+00 -0.00000000000E+00 -0.11337022030E+04  0.11337022030E+04  0.00000000000E+00 0. -1.
         24    2    1    2    0    0 -0.45638601966E+03 -0.34989756875E+03  0.58294244170E+03  0.82269000203E+03  0.79249236920E+02 0.  0.
        254    2    1    2    0    0  0.45638601966E+03  0.34989756875E+03 -0.73358472036E+03  0.12940721252E+04  0.89764113976E+03 0.  0.
         23    2    4    4    0    0  0.51732834737E+03  0.95586508181E+02 -0.84286321042E+03  0.99775774822E+03  0.91305712370E+02 0.  0.
         23    2    4    4    0    0 -0.60942327712E+02  0.25431106057E+03  0.10927849007E+03  0.29631437700E+03  0.86442690807E+02 0.  0.
          2    1    3    3  502    0 -0.72983741944E+02 -0.65372117582E+02  0.14375343504E+03  0.17396893525E+03  0.00000000000E+00 0. -1.
         -1    1    3    3    0  502 -0.38340227771E+03 -0.28452545117E+03  0.43918900666E+03  0.64872106678E+03  0.00000000000E+00 0.  1.
         11    1    5    5    0    0  0.44123120289E+03  0.70078533837E+02 -0.76520713566E+03  0.88608009557E+03  0.00000000000E+00 0.  1.
        -11    1    5    5    0    0  0.76097144478E+02  0.25507974344E+02 -0.77656074765E+02  0.11167765265E+03  0.00000000000E+00 0. -1.
          1    1    6    6  503    0  0.54409906180E+00  0.29685189599E+02  0.46400237276E+02  0.55086191960E+02  0.00000000000E+00 0. -1.
         -1    1    6    6    0  503 -0.61486426774E+02  0.22462587097E+03  0.62878252789E+02  0.24122818504E+03  0.00000000000E+00 0.  1.
<mgrwt>
<rscale>  0 0.21113950E+04</rscale>
<asrwt>0</asrwt>
<pdfrwt beam="1">  1        2 0.17441572E+00 0.21113950E+04</pdfrwt>
<pdfrwt beam="2">  1       -1 0.15123999E+00 0.21113950E+04</pdfrwt>
<totfact> 0.74412181E+00</totfact>
</mgrwt>
</event>
<event>
12    6  0.1457317E-007  0.1236316E+04  0.7818608E-02  0.9081650E-01
          2   -1    0    0  501    0  0.00000000000E+00  0.00000000000E+00  0.20291099359E+04  0.20291099359E+04  0.00000000000E+00 0. -1.
         -1   -1    0    0    0  501 -0.00000000000E+00 -0.00000000000E+00 -0.18831865686E+03  0.18831865686E+03  0.00000000000E+00 0.  1.
         24    2    1    2    0    0  0.17085679594E+03  0.19702399827E+03  0.24685575792E+03  0.36817926410E+03  0.81287789283E+02 0.  0.
        254    2    1    2    0    0 -0.17085679594E+03 -0.19702399827E+03  0.15939355211E+04  0.18492493286E+04  0.90060098459E+03 0.  0.
         23    2    4    4    0    0 -0.13788595261E+03 -0.53152529448E+03  0.72590865993E+03  0.91486696137E+03  0.92230688141E+02 0.  0.
         23    2    4    4    0    0 -0.32970843322E+02  0.33450129621E+03  0.86802686116E+03  0.93438236727E+03  0.81373109141E+02 0.  0.
          4    1    3    3  502    0  0.69962285837E+01  0.16072166458E+01 -0.57712435602E+01  0.92107335198E+01  0.00000000000E+00 0. -1.
         -3    1    3    3    0  502  0.16386056735E+03  0.19541678162E+03  0.25262700148E+03  0.35896853058E+03  0.00000000000E+00 0.  1.
         11    1    5    5    0    0 -0.75948562097E+02 -0.24256416363E+03  0.40901148571E+03  0.48155576313E+03  0.00000000000E+00 0.  1.
        -11    1    5    5    0    0 -0.61937390518E+02 -0.28896113085E+03  0.31689717422E+03  0.43331119824E+03  0.00000000000E+00 0. -1.
          3    1    6    6  503    0 -0.39358778046E+02  0.10387206720E+03  0.35238939219E+03  0.36948180400E+03  0.00000000000E+00 0. -1.
         -3    1    6    6    0  503  0.63879347240E+01  0.23062922901E+03  0.51563746896E+03  0.56490056327E+03  0.00000000000E+00 0.  1.
<mgrwt>
<rscale>  0 0.12363159E+04</rscale>
<asrwt>0</asrwt>
<pdfrwt beam="1">  1        2 0.31217074E+00 0.12363159E+04</pdfrwt>
<pdfrwt beam="2">  1       -1 0.28972102E-01 0.12363159E+04</pdfrwt>
<totfact> 0.78395273E+01</totfact>
</mgrwt>
</event>
<event>
12    6  0.1457317E-007  0.2572128E+04  0.7818608E-02  0.8377731E-01
          2   -1    0    0  501    0  0.00000000000E+00  0.00000000000E+00  0.28459985832E+04  0.28459985832E+04  0.00000000000E+00 0. -1.
         -1   -1    0    0    0  501 -0.00000000000E+00 -0.00000000000E+00 -0.58115289512E+03  0.58115289512E+03  0.00000000000E+00 0.  1.
         24    2    1    2    0    0  0.45597427858E+03  0.43047386713E+03  0.22464933248E+04  0.23334884199E+04  0.72219488398E+02 0.  0.
        254    2    1    2    0    0 -0.45597427858E+03 -0.43047386713E+03  0.18352363272E+02  0.10936630584E+04  0.89584696408E+03 0.  0.
         23    2    4    4    0    0 -0.50159757013E+03 -0.11322838002E+03  0.34577482573E+03  0.62653156615E+03  0.92524509591E+02 0.  0.
         23    2    4    4    0    0  0.45623291548E+02 -0.31724548711E+03 -0.32742246246E+03  0.46713149224E+03  0.90995485058E+02 0.  0.
          4    1    3    3  502    0  0.42579888146E+03  0.41572024026E+03  0.20706121528E+04  0.21544286233E+04  0.00000000000E+00 0. -1.
         -3    1    3    3    0  502  0.30175397115E+02  0.14753626872E+02  0.17588117193E+03  0.17905979654E+03  0.00000000000E+00 0.  1.
         11    1    5    5    0    0 -0.71966319192E+02 -0.23589423356E+02  0.93448133450E+02  0.12028368816E+03  0.00000000000E+00 0. -1.
        -11    1    5    5    0    0 -0.42963125093E+03 -0.89638956668E+02  0.25232669228E+03  0.50624787799E+03  0.00000000000E+00 0.  1.
          3    1    6    6  503    0 -0.24562704840E+02 -0.14163131856E+03 -0.15142578879E+03  0.20878823333E+03  0.00000000000E+00 0. -1.
         -3    1    6    6    0  503  0.70185996389E+02 -0.17561416855E+03 -0.17599667367E+03  0.25834325891E+03  0.00000000000E+00 0.  1.
<mgrwt>
<rscale>  0 0.25721278E+04</rscale>
<asrwt>0</asrwt>
<pdfrwt beam="1">  1        2 0.43784593E+00 0.25721278E+04</pdfrwt>
<pdfrwt beam="2">  1       -1 0.89408140E-01 0.25721278E+04</pdfrwt>
<totfact> 0.26787866E+00</totfact>
</mgrwt>
</event>
<event>
12    6  0.1457317E-007  0.2256477E+04  0.7818608E-02  0.8495282E-01
          2   -1    0    0  501    0  0.00000000000E+00  0.00000000000E+00  0.10762353125E+04  0.10762353125E+04  0.00000000000E+00 0. -1.
         -1   -1    0    0    0  501 -0.00000000000E+00 -0.00000000000E+00 -0.11827539742E+04  0.11827539742E+04  0.00000000000E+00 0.  1.
         24    2    1    2    0    0  0.38459259658E+03 -0.33614479943E+03 -0.84341059752E+03  0.98945283711E+03  0.82284198584E+02 0.  0.
        254    2    1    2    0    0 -0.38459259658E+03  0.33614479943E+03  0.73689193580E+03  0.12695364496E+04  0.89878155322E+03 0.  0.
         23    2    4    4    0    0 -0.57453367624E+03  0.12239215680E+03  0.76137529047E+03  0.96615383714E+03  0.93231533910E+02 0.  0.
         23    2    4    4    0    0  0.18994107966E+03  0.21375264263E+03 -0.24483354662E+02  0.30338261250E+03  0.98355319844E+02 0.  0.
          2    1    3    3  502    0  0.65592851319E+02 -0.92953401395E+02 -0.14836789148E+03  0.18696467099E+03  0.00000000000E+00 0. -1.
         -1    1    3    3    0  502  0.31899974526E+03 -0.24319139803E+03 -0.69504270604E+03  0.80248816612E+03  0.00000000000E+00 0.  1.
         11    1    5    5    0    0 -0.13438541330E+03  0.65554501855E+02  0.22212048444E+03  0.26775799078E+03  0.00000000000E+00 0.  1.
        -11    1    5    5    0    0 -0.44014826294E+03  0.56837654944E+02  0.53925480603E+03  0.69839584636E+03  0.00000000000E+00 0. -1.
          1    1    6    6  503    0  0.58683819326E+02  0.13690932769E+03 -0.26380582498E+02  0.15127422051E+03  0.00000000000E+00 0. -1.
         -1    1    6    6    0  503  0.13125726033E+03  0.76843314943E+02  0.18972278361E+01  0.15210839199E+03  0.00000000000E+00 0.  1.
<mgrwt>
<rscale>  0 0.22564765E+04</rscale>
<asrwt>0</asrwt>
<pdfrwt beam="1">  1        2 0.16557466E+00 0.22564765E+04</pdfrwt>
<pdfrwt beam="2">  1       -1 0.18196215E+00 0.22564765E+04</pdfrwt>
<totfact> 0.47109094E+00</totfact>
</mgrwt>
</event>
<event>
12    6  0.1457317E-007  0.1035850E+04  0.7818608E-02  0.9270076E-01
          2   -1    0    0  501    0  0.00000000000E+00  0.00000000000E+00  0.32215433253E+03  0.32215433253E+03  0.00000000000E+00 0. -1.
         -1   -1    0    0    0  501 -0.00000000000E+00 -0.00000000000E+00 -0.83266394832E+03  0.83266394832E+03  0.00000000000E+00 0.  1.
         24    2    1    2    0    0 -0.18076705135E+02 -0.15714923570E+01  0.44731973227E+02  0.92893585538E+02  0.79366440947E+02 0.  0.
        254    2    1    2    0    0  0.18076705135E+02  0.15714923570E+01 -0.55524158902E+03  0.10619246953E+04  0.90502022048E+03 0.  0.
         23    2    4    4    0    0 -0.35857218290E+03 -0.13517149700E+03 -0.51563544973E+03  0.64890135106E+03  0.91365761898E+02 0.  0.
         23    2    4    4    0    0  0.37664888803E+03  0.13674298936E+03 -0.39606139295E+02  0.41302334425E+03  0.91959809859E+02 0.  0.
          2    1    3    3  502    0 -0.12099733021E+02 -0.21802737496E+02  0.61230107197E+02  0.66112698696E+02  0.00000000000E+00 0. -1.
         -1    1    3    3    0  502 -0.59769721137E+01  0.20231245139E+02 -0.16498133971E+02  0.26780886842E+02  0.00000000000E+00 0.  1.
         11    1    5    5    0    0 -0.32552321375E+03 -0.93407102079E+02 -0.46629655545E+03  0.57630089973E+03  0.00000000000E+00 0.  1.
        -11    1    5    5    0    0 -0.33048969149E+02 -0.41764394922E+02 -0.49338894281E+02  0.72600451334E+02  0.00000000000E+00 0. -1.
          1    1    6    6  503    0  0.83195528611E+02 -0.84282484805E+01 -0.11739304195E+02  0.84441356078E+02  0.00000000000E+00 0. -1.
         -1    1    6    6    0  503  0.29345335942E+03  0.14517123784E+03 -0.27866835100E+02  0.32858198817E+03  0.00000000000E+00 0.  1.
<mgrwt>
<rscale>  0 0.10358500E+04</rscale>
<asrwt>0</asrwt>
<pdfrwt beam="1">  1        2 0.49562205E-01 0.10358500E+04</pdfrwt>
<pdfrwt beam="2">  1       -1 0.12810215E+00 0.10358500E+04</pdfrwt>
<totfact> 0.60944518E+01</totfact>
</mgrwt>
</event>
<event>
12    6  0.1457317E-007  0.1892591E+04  0.7818608E-02  0.8658553E-01
          2   -1    0    0  501    0  0.00000000000E+00  0.00000000000E+00  0.22231774618E+04  0.22231774618E+04  0.00000000000E+00 0. -1.
         -1   -1    0    0    0  501 -0.00000000000E+00 -0.00000000000E+00 -0.40279084899E+03  0.40279084899E+03  0.00000000000E+00 0.  1.
         24    2    1    2    0    0 -0.51544479094E+03  0.10167014702E+03 -0.58288233408E-01  0.53100659459E+03  0.77122297669E+02 0.  0.
        254    2    1    2    0    0  0.51544479094E+03 -0.10167014702E+03  0.18204449010E+04  0.20949617162E+04  0.89376999460E+03 0.  0.
         23    2    4    4    0    0  0.49558113817E+03  0.26935481965E+03  0.14664226567E+04  0.15737446331E+04  0.90133671939E+02 0.  0.
         23    2    4    4    0    0  0.19863652777E+02 -0.37102496667E+03  0.35402224431E+03  0.52121708304E+03  0.91002239463E+02 0.  0.
          2    1    3    3  502    0 -0.17284873297E+02 -0.10061371490E+02 -0.42805995826E+01  0.20452911136E+02  0.00000000000E+00 0. -1.
         -1    1    3    3    0  502 -0.49815991765E+03  0.11173151851E+03  0.42223113492E+01  0.51055368346E+03  0.00000000000E+00 0.  1.
         11    1    5    5    0    0  0.29873907828E+03  0.17275082369E+03  0.77430735990E+03  0.84772623622E+03  0.00000000000E+00 0.  1.
        -11    1    5    5    0    0  0.19684205988E+03  0.96603995961E+02  0.69211529680E+03  0.72601839690E+03  0.00000000000E+00 0. -1.
          2    1    6    6  503    0  0.32989378262E+02 -0.22303898737E+03  0.15826788392E+03  0.27546943940E+03  0.00000000000E+00 0. -1.
         -2    1    6    6    0  503 -0.13125725484E+02 -0.14798597931E+03  0.19575436039E+03  0.24574764364E+03  0.00000000000E+00 0.  1.
<mgrwt>
<rscale>  0 0.18925914E+04</rscale>
<asrwt>0</asrwt>
<pdfrwt beam="1">  1        2 0.34202729E+00 0.18925914E+04</pdfrwt>
<pdfrwt beam="2">  1       -1 0.61967824E-01 0.18925914E+04</pdfrwt>
<totfact> 0.14124790E+01</totfact>
</mgrwt>
</event>
<event>
12    6  0.1457317E-007  0.2685363E+04  0.7818608E-02  0.8339770E-01
         -1   -1    0    0    0  501 -0.00000000000E+00  0.00000000000E+00  0.54514349469E+03  0.54514349469E+03  0.00000000000E+00 0.  1.
          2   -1    0    0  501    0  0.00000000000E+00 -0.00000000000E+00 -0.33070082475E+04  0.33070082475E+04  0.00000000000E+00 0. -1.
         24    2    1    2    0    0  0.33878228329E+03  0.44139169525E+03 -0.27392961638E+04  0.27963378422E+04  0.78497075095E+02 0.  0.
        254    2    1    2    0    0 -0.33878228329E+03 -0.44139169525E+03 -0.22568589046E+02  0.10558139000E+04  0.89701370452E+03 0.  0.
         23    2    4    4    0    0  0.19953099998E+03  0.69665900562E+02  0.16688828031E+03  0.28426797294E+03  0.91052867495E+02 0.  0.
         23    2    4    4    0    0 -0.53831328327E+03 -0.51105759581E+03 -0.18945686935E+03  0.77154592705E+03  0.91804983666E+02 0.  0.
          4    1    3    3  502    0  0.17086724441E+03  0.27112598968E+03 -0.16925438305E+04  0.17226170601E+04  0.00000000000E+00 0. -1.
         -3    1    3    3    0  502  0.16791503888E+03  0.17026570557E+03 -0.10467523332E+04  0.10737207821E+04  0.00000000000E+00 0.  1.
         11    1    5    5    0    0  0.88329507794E+02  0.14762834692E+02  0.12417979730E+03  0.15310344638E+03  0.00000000000E+00 0. -1.
        -11    1    5    5    0    0  0.11120149219E+03  0.54903065870E+02  0.42708483006E+02  0.13116452656E+03  0.00000000000E+00 0.  1.
          4    1    6    6  503    0 -0.23077951685E+03 -0.22461423805E+03 -0.12914074441E+03  0.34696984480E+03  0.00000000000E+00 0. -1.
         -4    1    6    6    0  503 -0.30753376642E+03 -0.28644335776E+03 -0.60316124938E+02  0.42457608225E+03  0.00000000000E+00 0.  1.
<mgrwt>
<rscale>  0 0.26853633E+04</rscale>
<asrwt>0</asrwt>
<pdfrwt beam="1">  1        2 0.50877050E+00 0.26853633E+04</pdfrwt>
<pdfrwt beam="2">  1       -1 0.83868230E-01 0.26853633E+04</pdfrwt>
<totfact> 0.15506993E+00</totfact>
</mgrwt>
</event>
<event>
12    6  0.1457317E-007  0.1477317E+04  0.7818608E-02  0.8899678E-01
          2   -1    0    0  501    0  0.00000000000E+00  0.00000000000E+00  0.43317251914E+03  0.43317251914E+03  0.00000000000E+00 0. -1.
         -1   -1    0    0    0  501 -0.00000000000E+00 -0.00000000000E+00 -0.12595825535E+04  0.12595825535E+04  0.00000000000E+00 0.  1.
         24    2    1    2    0    0  0.77584660743E+01  0.42646423566E+03 -0.44436360648E+03  0.62106733360E+03  0.79584420639E+02 0.  0.
        254    2    1    2    0    0 -0.77584660743E+01 -0.42646423566E+03 -0.38204642792E+03  0.10716877391E+04  0.90588255249E+03 0.  0.
         23    2    4    4    0    0  0.13494838812E+03 -0.33659559165E+03  0.22390561794E+03  0.43603828330E+03  0.92130336964E+02 0.  0.
         23    2    4    4    0    0 -0.14270685419E+03 -0.89868644017E+02 -0.60595204586E+03  0.63564945577E+03  0.91819003098E+02 0.  0.
          2    1    3    3  502    0  0.23143288836E+02  0.18381376895E+03 -0.24173895861E+03  0.30456663899E+03  0.00000000000E+00 0. -1.
         -1    1    3    3    0  502 -0.15384822762E+02  0.24265046672E+03 -0.20262464787E+03  0.31650069462E+03  0.00000000000E+00 0.  1.
         11    1    5    5    0    0  0.98775548002E+02 -0.12487060973E+03  0.89173332728E+02  0.18248605790E+03  0.00000000000E+00 0.  1.
        -11    1    5    5    0    0  0.36172840117E+02 -0.21172498191E+03  0.13473228522E+03  0.25355222540E+03  0.00000000000E+00 0. -1.
          2    1    6    6  503    0 -0.13558607451E+03 -0.86726472594E+02 -0.42383997851E+03  0.45337114160E+03  0.00000000000E+00 0.  1.
         -2    1    6    6    0  503 -0.71207796885E+01 -0.31421714238E+01 -0.18211206734E+03  0.18227831417E+03  0.00000000000E+00 0. -1.
<mgrwt>
<rscale>  0 0.14773172E+04</rscale>
<asrwt>0</asrwt>
<pdfrwt beam="1">  1        2 0.66641926E-01 0.14773172E+04</pdfrwt>
<pdfrwt beam="2">  1       -1 0.19378193E+00 0.14773172E+04</pdfrwt>
<totfact> 0.13366652E+01</totfact>
</mgrwt>
</event>
<event>
12    6  0.1457317E-007  0.1825167E+04  0.7818608E-02  0.8693029E-01
          2   -1    0    0  501    0  0.00000000000E+00  0.00000000000E+00  0.23774985429E+04  0.23774985429E+04  0.00000000000E+00 0. -1.
         -1   -1    0    0    0  501 -0.00000000000E+00 -0.00000000000E+00 -0.35028773571E+03  0.35028773571E+03  0.00000000000E+00 0.  1.
         24    2    1    2    0    0 -0.25708043274E+03  0.26232675659E+03 -0.10337538794E+03  0.38945319222E+03  0.77984883013E+02 0.  0.
        254    2    1    2    0    0  0.25708043274E+03 -0.26232675659E+03  0.21305861951E+04  0.23383330864E+04  0.89078527820E+03 0.  0.
         23    2    4    4    0    0  0.64164572268E+02 -0.57442938962E+03  0.13188035660E+04  0.14427950978E+04  0.91261342913E+02 0.  0.
         23    2    4    4    0    0  0.19291586047E+03  0.31210263303E+03  0.81178262913E+03  0.89553798852E+03  0.91502290507E+02 0.  0.
          2    1    3    3  502    0 -0.12245100361E+03  0.73876303201E+02 -0.26630460094E+02  0.14546868345E+03  0.00000000000E+00 0. -1.
         -1    1    3    3    0  502 -0.13462942913E+03  0.18845045339E+03 -0.76744927850E+02  0.24398450877E+03  0.00000000000E+00 0.  1.
         11    1    5    5    0    0 -0.15180213181E+02 -0.10347514843E+03  0.18511509145E+03  0.21261500958E+03  0.00000000000E+00 0. -1.
        -11    1    5    5    0    0  0.79344785449E+02 -0.47095424119E+03  0.11336884745E+04  0.12301800883E+04  0.00000000000E+00 0.  1.
          2    1    6    6  503    0  0.19433436188E+03  0.27011978851E+03  0.75338484091E+03  0.82360139804E+03  0.00000000000E+00 0.  1.
         -2    1    6    6    0  503 -0.14185014138E+01  0.41982844524E+02  0.58397788220E+02  0.71936590478E+02  0.00000000000E+00 0. -1.
<mgrwt>
<rscale>  0 0.18251669E+04</rscale>
<asrwt>0</asrwt>
<pdfrwt beam="1">  1        2 0.36576900E+00 0.18251669E+04</pdfrwt>
<pdfrwt beam="2">  1       -1 0.53890422E-01 0.18251669E+04</pdfrwt>
<totfact> 0.15280320E+01</totfact>
</mgrwt>
</event>
<event>
12    6  0.1457317E-007  0.1454257E+04  0.7818608E-02  0.8915454E-01
         -1   -1    0    0    0  501 -0.00000000000E+00  0.00000000000E+00  0.53621116788E+03  0.53621116788E+03  0.00000000000E+00 0.  1.
          2   -1    0    0  501    0  0.00000000000E+00 -0.00000000000E+00 -0.98602198727E+03  0.98602198727E+03  0.00000000000E+00 0. -1.
         24    2    1    2    0    0 -0.85300671056E+01 -0.48995739819E+02 -0.65844346145E+03  0.66506541047E+03  0.79314965238E+02 0.  0.
        254    2    1    2    0    0  0.85300671056E+01  0.48995739819E+02  0.20863264206E+03  0.85716774468E+03  0.82990096916E+03 0.  0.
         23    2    4    4    0    0  0.37688079039E+03 -0.13433220482E+03  0.10209159441E+03  0.42284236205E+03  0.91042287264E+02 0.  0.
         23    2    4    4    0    0 -0.36835072329E+03  0.18332794464E+03  0.10654104765E+03  0.43432538263E+03  0.89421208505E+02 0.  0.
          2    1    3    3  502    0 -0.70070734527E+01  0.17545632794E+02 -0.29311849232E+03  0.29372674180E+03  0.00000000000E+00 0. -1.
         -1    1    3    3    0  502 -0.15229936530E+01 -0.66541372614E+02 -0.36532496913E+03  0.37133866867E+03  0.00000000000E+00 0.  1.
         11    1    5    5    0    0  0.40117874837E+01 -0.19719124980E+02  0.72766060775E+01  0.21398301913E+02  0.00000000000E+00 0.  1.
        -11    1    5    5    0    0  0.37286900291E+03 -0.11461307984E+03  0.94814988337E+02  0.40144406013E+03  0.00000000000E+00 0. -1.
          4    1    6    6  503    0 -0.22853865049E+03  0.14367421222E+03  0.10307362095E+03  0.28895737637E+03  0.00000000000E+00 0. -1.
         -4    1    6    6    0  503 -0.13981207280E+03  0.39653732420E+02  0.34674266939E+01  0.14536800626E+03  0.00000000000E+00 0.  1.
<mgrwt>
<rscale>  0 0.14542572E+04</rscale>
<asrwt>0</asrwt>
<pdfrwt beam="1">  1        2 0.15169569E+00 0.14542572E+04</pdfrwt>
<pdfrwt beam="2">  1       -1 0.82494027E-01 0.14542572E+04</pdfrwt>
<totfact> 0.41560083E+01</totfact>
</mgrwt>
</event>
<event>
12    6  0.1457317E-007  0.2476443E+04  0.7818608E-02  0.8411426E-01
          2   -1    0    0  501    0  0.00000000000E+00  0.00000000000E+00  0.19411215305E+04  0.19411215305E+04  0.00000000000E+00 0. -1.
         -1   -1    0    0    0  501 -0.00000000000E+00 -0.00000000000E+00 -0.78984862343E+03  0.78984862343E+03  0.00000000000E+00 0.  1.
         24    2    1    2    0    0 -0.79568774954E+03  0.53690148081E+03  0.10292894080E+04  0.14096571905E+04  0.79463919034E+02 0.  0.
        254    2    1    2    0    0  0.79568774954E+03 -0.53690148081E+03  0.12198349911E+03  0.13213129635E+04  0.89978096142E+03 0.  0.
         23    2    4    4    0    0  0.90399456784E+03 -0.56415276050E+03 -0.80809238200E+02  0.10723990947E+04  0.89639106721E+02 0.  0.
         23    2    4    4    0    0 -0.10830681830E+03  0.27251279691E+02  0.20279273731E+03  0.24891386879E+03  0.91434242128E+02 0.  0.
          4    1    3    3  502    0 -0.65193600868E+03  0.42004097194E+03  0.86835981906E+03  0.11642610330E+04  0.00000000000E+00 0. -1.
         -3    1    3    3    0  502 -0.14375174086E+03  0.11686050887E+03  0.16092958893E+03  0.24539615753E+03  0.00000000000E+00 0.  1.
         11    1    5    5    0    0  0.35972225794E+03 -0.17411678977E+03 -0.22861683624E+02  0.40029915803E+03  0.00000000000E+00 0. -1.
        -11    1    5    5    0    0  0.54427230990E+03 -0.39003597073E+03 -0.57947554576E+02  0.67209993667E+03  0.00000000000E+00 0.  1.
          3    1    6    6  503    0  0.45235020310E+01 -0.16480072934E+02  0.64294715893E+01  0.18259051987E+02  0.00000000000E+00 0. -1.
         -3    1    6    6    0  503 -0.11283032033E+03  0.43731352625E+02  0.19636326572E+03  0.23065481680E+03  0.00000000000E+00 0.  1.
<mgrwt>
<rscale>  0 0.24764427E+04</rscale>
<asrwt>0</asrwt>
<pdfrwt beam="1">  1        2 0.29863408E+00 0.24764427E+04</pdfrwt>
<pdfrwt beam="2">  1       -1 0.12151517E+00 0.24764427E+04</pdfrwt>
<totfact> 0.43976476E+00</totfact>
</mgrwt>
</event>
<event>
12    6  0.1457317E-007  0.1578483E+04  0.7818608E-02  0.8833877E-01
          2   -1    0    0  501    0  0.00000000000E+00  0.00000000000E+00  0.13843934976E+04  0.13843934976E+04  0.00000000000E+00 0. -1.
         -1   -1    0    0    0  501 -0.00000000000E+00 -0.00000000000E+00 -0.44994605559E+03  0.44994605559E+03  0.00000000000E+00 0.  1.
         24    2    1    2    0    0 -0.39751179493E+03  0.19478633643E+03  0.65622374981E+03  0.79559247812E+03  0.79877640492E+02 0.  0.
        254    2    1    2    0    0  0.39751179493E+03 -0.19478633643E+03  0.27822369222E+03  0.10387470751E+04  0.89756878239E+03 0.  0.
         23    2    4    4    0    0  0.57401284958E+03  0.99326836097E+02  0.33717956579E+03  0.67976177346E+03  0.95023350913E+02 0.  0.
         23    2    4    4    0    0 -0.17650105465E+03 -0.29411317253E+03 -0.58955873571E+02  0.35898530163E+03  0.87974264451E+02 0.  0.
          2    1    3    3  502    0 -0.38004510246E+03  0.19080998987E+03  0.64975564220E+03  0.77654692499E+03  0.00000000000E+00 0. -1.
         -1    1    3    3    0  502 -0.17466692472E+02  0.39763465615E+01  0.64681076085E+01  0.19045553127E+02  0.00000000000E+00 0.  1.
         11    1    5    5    0    0  0.29276720680E+02  0.22159713376E+02  0.40599236946E+02  0.54740088704E+02  0.00000000000E+00 0.  1.
        -11    1    5    5    0    0  0.54473612890E+03  0.77167122722E+02  0.29658032884E+03  0.62502168476E+03  0.00000000000E+00 0. -1.
          1    1    6    6  503    0 -0.14121796488E+03 -0.23583518643E+03 -0.99486155059E+01  0.27506312678E+03  0.00000000000E+00 0. -1.
         -1    1    6    6    0  503 -0.35283089769E+02 -0.58277986100E+02 -0.49007258065E+02  0.83922174844E+02  0.00000000000E+00 0.  1.
<mgrwt>
<rscale>  0 0.15784833E+04</rscale>
<asrwt>0</asrwt>
<pdfrwt beam="1">  1        2 0.21298361E+00 0.15784833E+04</pdfrwt>
<pdfrwt beam="2">  1       -1 0.69222471E-01 0.15784833E+04</pdfrwt>
<totfact> 0.34140820E+01</totfact>
</mgrwt>
</event>
<event>
12    6  0.1457317E-007  0.1767280E+04  0.7818608E-02  0.8723896E-01
          2   -1    0    0  501    0  0.00000000000E+00  0.00000000000E+00  0.14805084724E+04  0.14805084724E+04  0.00000000000E+00 0. -1.
         -1   -1    0    0    0  501 -0.00000000000E+00 -0.00000000000E+00 -0.52739986903E+03  0.52739986903E+03  0.00000000000E+00 0.  1.
         24    2    1    2    0    0  0.40344806091E+03  0.50846691273E+03  0.42110037205E+03  0.77798747037E+03  0.81425066899E+02 0.  0.
        254    2    1    2    0    0 -0.40344806091E+03 -0.50846691273E+03  0.53200823133E+03  0.12299208711E+04  0.89909045802E+03 0.  0.
         23    2    4    4    0    0  0.19713421311E+03  0.10173797859E+03  0.17714671778E+03  0.29859578827E+03  0.92552530427E+02 0.  0.
         23    2    4    4    0    0 -0.60058227401E+03 -0.61020489132E+03  0.35486151356E+03  0.93132508280E+03  0.91600430136E+02 0.  0.
          2    1    3    3  502    0  0.25004504462E+03  0.36875817494E+03  0.30845302481E+03  0.54189333308E+03  0.00000000000E+00 0. -1.
         -1    1    3    3    0  502  0.15340301629E+03  0.13970873779E+03  0.11264734724E+03  0.23609413729E+03  0.00000000000E+00 0.  1.
         11    1    5    5    0    0  0.15734137053E+02  0.18524229459E+02 -0.87718848573E+01  0.25839042355E+02  0.00000000000E+00 0. -1.
        -11    1    5    5    0    0  0.18140007605E+03  0.83213749131E+02  0.18591860263E+03  0.27275674591E+03  0.00000000000E+00 0.  1.
          1    1    6    6  503    0 -0.11373023343E+02 -0.10487394167E+02  0.22450179182E+02  0.27264292429E+02  0.00000000000E+00 0. -1.
         -1    1    6    6    0  503 -0.58920925067E+03 -0.59971749715E+03  0.33241133438E+03  0.90406079037E+03  0.00000000000E+00 0.  1.
<mgrwt>
<rscale>  0 0.17672804E+04</rscale>
<asrwt>0</asrwt>
<pdfrwt beam="1">  1        2 0.22777053E+00 0.17672804E+04</pdfrwt>
<pdfrwt beam="2">  1       -1 0.81138442E-01 0.17672804E+04</pdfrwt>
<totfact> 0.21254937E+01</totfact>
</mgrwt>
</event>
<event>
12    6  0.1457317E-007  0.1580076E+04  0.7818608E-02  0.8832883E-01
          2   -1    0    0  501    0  0.00000000000E+00  0.00000000000E+00  0.68464483049E+03  0.68464483049E+03  0.00000000000E+00 0. -1.
         -1   -1    0    0    0  501 -0.00000000000E+00 -0.00000000000E+00 -0.91165465819E+03  0.91165465819E+03  0.00000000000E+00 0.  1.
         24    2    1    2    0    0  0.46869129440E+03 -0.69219841213E+02 -0.10890940378E+02  0.48072913960E+03  0.80740183366E+02 0.  0.
        254    2    1    2    0    0 -0.46869129440E+03  0.69219841213E+02 -0.21611888732E+03  0.11155703491E+04  0.98657331934E+03 0.  0.
         23    2    4    4    0    0 -0.63559227662E+03  0.31513762549E+03 -0.32291524804E+03  0.78483278968E+03  0.91645977782E+02 0.  0.
         23    2    4    4    0    0  0.16690098222E+03 -0.24591778427E+03  0.10679636072E+03  0.33073755940E+03  0.98236327529E+02 0.  0.
          4    1    3    3  502    0  0.25880507462E+03 -0.76700836782E+02 -0.18566762528E+02  0.27056941750E+03  0.00000000000E+00 0. -1.
         -3    1    3    3    0  502  0.20988621978E+03  0.74809955691E+01  0.76758221498E+01  0.21015972210E+03  0.00000000000E+00 0.  1.
         11    1    5    5    0    0 -0.27284214904E+03  0.15911977490E+03 -0.18786535945E+03  0.36749875420E+03  0.00000000000E+00 0.  1.
        -11    1    5    5    0    0 -0.36275012758E+03  0.15601785058E+03 -0.13504988858E+03  0.41733403548E+03  0.00000000000E+00 0. -1.
          2    1    6    6  503    0  0.11742521378E+03 -0.86175015385E+02  0.54622739528E+02  0.15555853490E+03  0.00000000000E+00 0. -1.
         -2    1    6    6    0  503  0.49475768441E+02 -0.15974276889E+03  0.52173621189E+02  0.17517902450E+03  0.00000000000E+00 0.  1.
<mgrwt>
<rscale>  0 0.15800755E+04</rscale>
<asrwt>0</asrwt>
<pdfrwt beam="1">  1        2 0.10532997E+00 0.15800755E+04</pdfrwt>
<pdfrwt beam="2">  1       -1 0.14025456E+00 0.15800755E+04</pdfrwt>
<totfact> 0.19285295E+01</totfact>
</mgrwt>
</event>
<event>
12    6  0.1457317E-007  0.1330679E+04  0.7818608E-02  0.9005584E-01
          2   -1    0    0  501    0  0.00000000000E+00  0.00000000000E+00  0.24029118481E+04  0.24029118481E+04  0.00000000000E+00 0. -1.
         -1   -1    0    0    0  501 -0.00000000000E+00 -0.00000000000E+00 -0.18422519392E+03  0.18422519392E+03  0.00000000000E+00 0.  1.
         24    2    1    2    0    0 -0.87177789486E+02  0.29977097969E+03  0.11775157963E+04  0.12207861921E+04  0.79453566594E+02 0.  0.
        254    2    1    2    0    0  0.87177789486E+02 -0.29977097969E+03  0.10411708580E+04  0.13663508499E+04  0.82789811109E+03 0.  0.
         23    2    4    4    0    0 -0.16792010706E+03 -0.32627098044E+02  0.95769119321E+03  0.97685597404E+03  0.88393905807E+02 0.  0.
         23    2    4    4    0    0  0.25509789655E+03 -0.26714388165E+03  0.83479664757E+02  0.38949487588E+03  0.91085748515E+02 0.  0.
          2    1    3    3  502    0 -0.71696382868E+02  0.17128995887E+03  0.81434510680E+03  0.83524761256E+03  0.00000000000E+00 0. -1.
         -1    1    3    3    0  502 -0.15481406618E+02  0.12848102082E+03  0.36317068946E+03  0.38553857958E+03  0.00000000000E+00 0.  1.
         11    1    5    5    0    0 -0.83516956898E+02  0.25463848440E+02  0.52407589384E+03  0.53129938093E+03  0.00000000000E+00 0. -1.
        -11    1    5    5    0    0 -0.84403150162E+02 -0.58090946484E+02  0.43361529937E+03  0.44555659311E+03  0.00000000000E+00 0.  1.
          1    1    6    6  503    0  0.23668660600E+03 -0.26880145832E+03  0.66261655200E+02  0.36423259108E+03  0.00000000000E+00 0. -1.
         -1    1    6    6    0  503  0.18411290546E+02  0.16575766746E+01  0.17218009557E+02  0.25262284796E+02  0.00000000000E+00 0.  1.
<mgrwt>
<rscale>  0 0.13306794E+04</rscale>
<asrwt>0</asrwt>
<pdfrwt beam="1">  1        2 0.36967872E+00 0.13306794E+04</pdfrwt>
<pdfrwt beam="2">  1       -1 0.28342339E-01 0.13306794E+04</pdfrwt>
<totfact> 0.49904465E+01</totfact>
</mgrwt>
</event>
<event>
12    6  0.1457317E-007  0.2072157E+04  0.7818608E-02  0.8573609E-01
         -1   -1    0    0    0  501 -0.00000000000E+00  0.00000000000E+00  0.15787375388E+04  0.15787375388E+04  0.00000000000E+00 0.  1.
          2   -1    0    0  501    0  0.00000000000E+00 -0.00000000000E+00 -0.67994719846E+03  0.67994719846E+03  0.00000000000E+00 0. -1.
         24    2    1    2    0    0 -0.28781095939E+02  0.82422019483E+03  0.20203779782E+03  0.85243253738E+03  0.75197592866E+02 0.  0.
        254    2    1    2    0    0  0.28781095939E+02 -0.82422019483E+03  0.69675254249E+03  0.14062521999E+04  0.90106262994E+03 0.  0.
         23    2    4    4    0    0  0.42640924180E+03 -0.50461711575E+03  0.21958737610E+03  0.70166190115E+03  0.87450173107E+02 0.  0.
         23    2    4    4    0    0 -0.39762814586E+03 -0.31960307908E+03  0.47716516639E+03  0.70459029871E+03  0.92231353050E+02 0.  0.
          4    1    3    3  502    0 -0.78433239328E+01  0.63685053254E+03  0.12657153054E+03  0.64935388724E+03  0.00000000000E+00 0. -1.
         -3    1    3    3    0  502 -0.20937772006E+02  0.18736966230E+03  0.75466267283E+02  0.20307865014E+03  0.00000000000E+00 0.  1.
         11    1    5    5    0    0  0.18703231975E+03 -0.28778888639E+03  0.10429100047E+03  0.35872014794E+03  0.00000000000E+00 0. -1.
        -11    1    5    5    0    0  0.23937692204E+03 -0.21682822936E+03  0.11529637563E+03  0.34294175320E+03  0.00000000000E+00 0.  1.
          3    1    6    6  503    0 -0.10534607114E+03 -0.13537530169E+03  0.18301300239E+03  0.25083465880E+03  0.00000000000E+00 0. -1.
         -3    1    6    6    0  503 -0.29228207472E+03 -0.18422777740E+03  0.29415216399E+03  0.45375563991E+03  0.00000000000E+00 0.  1.
<mgrwt>
<rscale>  0 0.20721565E+04</rscale>
<asrwt>0</asrwt>
<pdfrwt beam="1">  1        2 0.10460726E+00 0.20721565E+04</pdfrwt>
<pdfrwt beam="2">  1       -1 0.24288270E+00 0.20721565E+04</pdfrwt>
<totfact> 0.34781786E+00</totfact>
</mgrwt>
</event>
<event>
12    6  0.1457317E-007  0.1388205E+04  0.7818608E-02  0.8962401E-01
          2   -1    0    0  501    0  0.00000000000E+00  0.00000000000E+00  0.58007584869E+03  0.58007584869E+03  0.00000000000E+00 0. -1.
         -1   -1    0    0    0  501 -0.00000000000E+00 -0.00000000000E+00 -0.83054320847E+03  0.83054320847E+03  0.00000000000E+00 0.  1.
         24    2    1    2    0    0 -0.19157458352E+02 -0.23546590496E+03  0.24562712628E+03  0.34974069131E+03  0.78579039105E+02 0.  0.
        254    2    1    2    0    0  0.19157458352E+02  0.23546590496E+03 -0.49609448606E+03  0.10608783658E+04  0.90749213076E+03 0.  0.
         23    2    4    4    0    0  0.38601782656E+03  0.33692065548E+02  0.94182289724E+01  0.39810035199E+03  0.90830994261E+02 0.  0.
         23    2    4    4    0    0 -0.36686036821E+03  0.20177383941E+03 -0.50551271504E+03  0.66277801385E+03  0.91827983475E+02 0.  0.
          4    1    3    3  502    0 -0.42068638578E+01 -0.15539749198E+03  0.20889129583E+03  0.26038750294E+03  0.00000000000E+00 0. -1.
         -3    1    3    3    0  502 -0.14950594494E+02 -0.80068412979E+02  0.36735830457E+02  0.89353188372E+02  0.00000000000E+00 0.  1.
         11    1    5    5    0    0  0.31210589867E+03 -0.51788926127E+01  0.25002685461E+02  0.31314860242E+03  0.00000000000E+00 0.  1.
        -11    1    5    5    0    0  0.73911927885E+02  0.38870958161E+02 -0.15584456489E+02  0.84951749576E+02  0.00000000000E+00 0. -1.
          4    1    6    6  503    0 -0.16953328810E+03  0.48337944675E+02 -0.24397075535E+03  0.30099804341E+03  0.00000000000E+00 0. -1.
         -4    1    6    6    0  503 -0.19732708011E+03  0.15343589473E+03 -0.26154195968E+03  0.36177997044E+03  0.00000000000E+00 0.  1.
<mgrwt>
<rscale>  0 0.13882047E+04</rscale>
<asrwt>0</asrwt>
<pdfrwt beam="1">  1        2 0.89242439E-01 0.13882047E+04</pdfrwt>
<pdfrwt beam="2">  1       -1 0.12777588E+00 0.13882047E+04</pdfrwt>
<totfact> 0.30474391E+01</totfact>
</mgrwt>
</event>
<event>
12    6  0.1457317E-007  0.1654790E+04  0.7818608E-02  0.8787578E-01
         -1   -1    0    0    0  501 -0.00000000000E+00  0.00000000000E+00  0.18302065917E+03  0.18302065917E+03  0.00000000000E+00 0.  1.
          2   -1    0    0  501    0  0.00000000000E+00 -0.00000000000E+00 -0.37404663019E+04  0.37404663019E+04  0.00000000000E+00 0. -1.
         24    2    1    2    0    0  0.54280620319E+03 -0.16690063676E+03 -0.11872316185E+04  0.13184762204E+04  0.79788665520E+02 0.  0.
        254    2    1    2    0    0 -0.54280620319E+03  0.16690063676E+03 -0.23702140243E+04  0.26050107407E+04  0.91960428521E+03 0.  0.
         23    2    4    4    0    0 -0.28563406538E+03  0.14889915338E+03 -0.22975173832E+04  0.23217808264E+04  0.91226655834E+02 0.  0.
         23    2    4    4    0    0 -0.25717213781E+03  0.18001483383E+02 -0.72696641055E+02  0.28322991422E+03  0.92047926742E+02 0.  0.
          4    1    3    3  502    0  0.17479605407E+02 -0.19734130969E+02 -0.37064387568E+02  0.45483418474E+02  0.00000000000E+00 0. -1.
         -3    1    3    3    0  502  0.52532659778E+03 -0.14716650579E+03 -0.11501672309E+04  0.12729928020E+04  0.00000000000E+00 0.  1.
         11    1    5    5    0    0 -0.22470174310E+03  0.14948093338E+03 -0.17179853920E+04  0.17390541193E+04  0.00000000000E+00 0.  1.
        -11    1    5    5    0    0 -0.60932322279E+02 -0.58178000775E+00 -0.57953199121E+03  0.58272670713E+03  0.00000000000E+00 0. -1.
          4    1    6    6  503    0 -0.75195665033E+02  0.84308406089E+01 -0.66756123288E+02  0.10090513916E+03  0.00000000000E+00 0. -1.
         -4    1    6    6    0  503 -0.18197647277E+03  0.95706427738E+01 -0.59405177668E+01  0.18232477505E+03  0.00000000000E+00 0.  1.
<mgrwt>
<rscale>  0 0.16547901E+04</rscale>
<asrwt>0</asrwt>
<pdfrwt beam="1">  1        2 0.57545629E+00 0.16547901E+04</pdfrwt>
<pdfrwt beam="2">  1       -1 0.28157027E-01 0.16547901E+04</pdfrwt>
<totfact> 0.68481391E+00</totfact>
</mgrwt>
</event>
<event>
12    6  0.1457317E-007  0.1241319E+04  0.7818608E-02  0.9077440E-01
         -1   -1    0    0    0  501 -0.00000000000E+00  0.00000000000E+00  0.62127216600E+03  0.62127216600E+03  0.00000000000E+00 0.  1.
          2   -1    0    0  501    0  0.00000000000E+00 -0.00000000000E+00 -0.62004714719E+03  0.62004714719E+03  0.00000000000E+00 0. -1.
         24    2    1    2    0    0 -0.16072418855E+03  0.16865748407E+03  0.15904874790E+03  0.29372493060E+03  0.81854865020E+02 0.  0.
        254    2    1    2    0    0  0.16072418855E+03 -0.16865748407E+03 -0.15782372910E+03  0.94759438259E+03  0.90484759641E+03 0.  0.
         23    2    4    4    0    0 -0.10552202667E+03  0.12362652932E+03  0.29039510177E+03  0.34300610480E+03  0.83099073000E+02 0.  0.
         23    2    4    4    0    0  0.26624621522E+03 -0.29228401339E+03 -0.44821883087E+03  0.60458827779E+03  0.91158508654E+02 0.  0.
          2    1    3    3  502    0 -0.19829163622E+02  0.33478865351E+02 -0.43058292144E+01  0.39148056406E+02  0.00000000000E+00 0. -1.
         -1    1    3    3    0  502 -0.14089502493E+03  0.13517861872E+03  0.16335457712E+03  0.25457687419E+03  0.00000000000E+00 0.  1.
         11    1    5    5    0    0 -0.30144826190E+02  0.98029417691E+02  0.15239036945E+03  0.18368805617E+03  0.00000000000E+00 0.  1.
        -11    1    5    5    0    0 -0.75377200479E+02  0.25597111629E+02  0.13800473232E+03  0.15931804863E+03  0.00000000000E+00 0. -1.
          1    1    6    6  503    0  0.18362492711E+03 -0.14853964707E+03 -0.30307640082E+03  0.38423618433E+03  0.00000000000E+00 0. -1.
         -1    1    6    6    0  503  0.82621288106E+02 -0.14374436632E+03 -0.14514243004E+03  0.22035209347E+03  0.00000000000E+00 0.  1.
<mgrwt>
<rscale>  0 0.12413187E+04</rscale>
<asrwt>0</asrwt>
<pdfrwt beam="1">  1        2 0.95391868E-01 0.12413187E+04</pdfrwt>
<pdfrwt beam="2">  1       -1 0.95580334E-01 0.12413187E+04</pdfrwt>
<totfact> 0.56624599E+01</totfact>
</mgrwt>
</event>
<event>
12    6  0.1457317E-007  0.1833701E+04  0.7818608E-02  0.8688580E-01
         -1   -1    0    0    0  501 -0.00000000000E+00  0.00000000000E+00  0.27413596321E+03  0.27413596321E+03  0.00000000000E+00 0.  1.
          2   -1    0    0  501    0  0.00000000000E+00 -0.00000000000E+00 -0.30664142653E+04  0.30664142653E+04  0.00000000000E+00 0. -1.
         24    2    1    2    0    0  0.36375584383E+02 -0.39769057264E+03 -0.20644840978E+04  0.21042446589E+04  0.79183454023E+02 0.  0.
        254    2    1    2    0    0 -0.36375584383E+02  0.39769057264E+03 -0.72779420423E+03  0.12363055696E+04  0.91612558259E+03 0.  0.
         23    2    4    4    0    0 -0.98520826767E+02  0.26988630760E+03 -0.92681042730E+03  0.97478191752E+03  0.93151737651E+02 0.  0.
         23    2    4    4    0    0  0.62145242385E+02  0.12780426504E+03  0.19901622307E+03  0.26152365212E+03  0.92688738574E+02 0.  0.
          2    1    3    3  502    0  0.29979358463E+02 -0.35772431879E+03 -0.16979464340E+04  0.17354790529E+04  0.00000000000E+00 0. -1.
         -1    1    3    3    0  502  0.63962259198E+01 -0.39966253850E+02 -0.36653766381E+03  0.36876560596E+03  0.00000000000E+00 0.  1.
         11    1    5    5    0    0  0.42646777911E+01  0.10880661035E+03 -0.39284593751E+03  0.40765794062E+03  0.00000000000E+00 0. -1.
        -11    1    5    5    0    0 -0.10278550456E+03  0.16107969726E+03 -0.53396448979E+03  0.56712397690E+03  0.00000000000E+00 0.  1.
          1    1    6    6  503    0  0.15210712824E+02  0.96082503843E+02  0.67724575907E+02  0.11853198518E+03  0.00000000000E+00 0. -1.
         -1    1    6    6    0  503  0.46934529561E+02  0.31721761197E+02  0.13129164716E+03  0.14299166693E+03  0.00000000000E+00 0.  1.
<mgrwt>
<rscale>  0 0.18337006E+04</rscale>
<asrwt>0</asrwt>
<pdfrwt beam="1">  1        2 0.47175604E+00 0.18337006E+04</pdfrwt>
<pdfrwt beam="2">  1       -1 0.42174764E-01 0.18337006E+04</pdfrwt>
<totfact> 0.94000989E+00</totfact>
</mgrwt>
</event>
<event>
12    6  0.1457317E-007  0.1052229E+04  0.7818608E-02  0.9253046E-01
          2   -1    0    0  501    0  0.00000000000E+00  0.00000000000E+00  0.56865911824E+03  0.56865911824E+03  0.00000000000E+00 0. -1.
         -1   -1    0    0    0  501 -0.00000000000E+00 -0.00000000000E+00 -0.48675294175E+03  0.48675294175E+03  0.00000000000E+00 0.  1.
         24    2    1    2    0    0  0.73418535797E+02  0.46523331003E+02  0.10724719830E+03  0.16007058282E+03  0.81030415363E+02 0.  0.
        254    2    1    2    0    0 -0.73418535797E+02 -0.46523331003E+02 -0.25341021809E+02  0.89534147717E+03  0.89075220551E+03 0.  0.
         23    2    4    4    0    0 -0.35086552110E+03  0.12669474247E+03  0.25002905691E+03  0.45804486915E+03  0.90179826940E+02 0.  0.
         23    2    4    4    0    0  0.27744698530E+03 -0.17321807347E+03 -0.27537007872E+03  0.43729660802E+03  0.91751362362E+02 0.  0.
          2    1    3    3  502    0  0.19466342468E+02 -0.53231223028E+00  0.81810504716E+02  0.84096257511E+02  0.00000000000E+00 0. -1.
         -1    1    3    3    0  502  0.53952193329E+02  0.47055643233E+02  0.25436693582E+02  0.75974325304E+02  0.00000000000E+00 0.  1.
         11    1    5    5    0    0 -0.20859127864E+03  0.10705472415E+03  0.11594931384E+03  0.26156314508E+03  0.00000000000E+00 0.  1.
        -11    1    5    5    0    0 -0.14227424247E+03  0.19640018313E+02  0.13407974308E+03  0.19648172407E+03  0.00000000000E+00 0. -1.
          1    1    6    6  503    0  0.13949217148E+03 -0.53252733469E+02 -0.17009462022E+03  0.22633183460E+03  0.00000000000E+00 0. -1.
         -1    1    6    6    0  503  0.13795481382E+03 -0.11996534000E+03 -0.10527545850E+03  0.21096477341E+03  0.00000000000E+00 0.  1.
<mgrwt>
<rscale>  0 0.10522291E+04</rscale>
<asrwt>0</asrwt>
<pdfrwt beam="1">  1        2 0.87486018E-01 0.10522291E+04</pdfrwt>
<pdfrwt beam="2">  1       -1 0.74885068E-01 0.10522291E+04</pdfrwt>
<totfact> 0.10804075E+02</totfact>
</mgrwt>
</event>
<event>
12    6  0.1457317E-007  0.1443198E+04  0.7818608E-02  0.8923130E-01
          2   -1    0    0  501    0  0.00000000000E+00  0.00000000000E+00  0.45524720474E+03  0.45524720474E+03  0.00000000000E+00 0. -1.
         -1   -1    0    0    0  501 -0.00000000000E+00 -0.00000000000E+00 -0.11437854040E+04  0.11437854040E+04  0.00000000000E+00 0.  1.
         24    2    1    2    0    0 -0.24816231459E+03 -0.32655489729E+03 -0.44158443923E+02  0.42033157236E+03  0.80659948095E+02 0.  0.
        254    2    1    2    0    0  0.24816231459E+03  0.32655489729E+03 -0.64437975538E+03  0.11787010364E+04  0.89771277634E+03 0.  0.
         23    2    4    4    0    0 -0.12210230092E+03  0.43022744722E+03 -0.63542677024E+03  0.78340757567E+03  0.99777858502E+02 0.  0.
         23    2    4    4    0    0  0.37026461550E+03 -0.10367254993E+03 -0.89529851472E+01  0.39529346076E+03  0.91284615752E+02 0.  0.
          4    1    3    3  502    0 -0.68826236295E+01 -0.80132115097E+01 -0.16729936355E+02  0.19785672522E+02  0.00000000000E+00 0. -1.
         -3    1    3    3    0  502 -0.24127969096E+03 -0.31854168578E+03 -0.27428507568E+02  0.40054589984E+03  0.00000000000E+00 0.  1.
         11    1    5    5    0    0 -0.53664974063E+02  0.57079810833E+02 -0.95466012307E+02  0.12349815283E+03  0.00000000000E+00 0. -1.
        -11    1    5    5    0    0 -0.68437326855E+02  0.37314763639E+03 -0.53996075793E+03  0.65990942284E+03  0.00000000000E+00 0.  1.
          1    1    6    6  503    0  0.92309934904E+02  0.44631090010E+01 -0.27633365885E+02  0.96460594722E+02  0.00000000000E+00 0. -1.
         -1    1    6    6    0  503  0.27795468060E+03 -0.10813565893E+03  0.18680380737E+02  0.29883286604E+03  0.00000000000E+00 0.  1.
<mgrwt>
<rscale>  0 0.14431980E+04</rscale>
<asrwt>0</asrwt>
<pdfrwt beam="1">  1        2 0.70038031E-01 0.14431980E+04</pdfrwt>
<pdfrwt beam="2">  1       -1 0.17596699E+00 0.14431980E+04</pdfrwt>
<totfact> 0.16947284E+01</totfact>
</mgrwt>
</event>
<event>
12    6  0.1457317E-007  0.1254786E+04  0.7818608E-02  0.9066209E-01
         -1   -1    0    0    0  501 -0.00000000000E+00  0.00000000000E+00  0.23354066126E+03  0.23354066126E+03  0.00000000000E+00 0.  1.
          2   -1    0    0  501    0  0.00000000000E+00 -0.00000000000E+00 -0.16854548057E+04  0.16854548057E+04  0.00000000000E+00 0. -1.
         24    2    1    2    0    0  0.22505466122E+03 -0.19897575962E+03 -0.40628580450E+03  0.51157499461E+03  0.79999167015E+02 0.  0.
        254    2    1    2    0    0 -0.22505466122E+03  0.19897575962E+03 -0.10456283400E+04  0.14074204724E+04  0.89289014288E+03 0.  0.
         23    2    4    4    0    0 -0.42129932034E+03 -0.14913271289E+03 -0.27017556348E+03  0.53019085606E+03  0.91508608170E+02 0.  0.
         23    2    4    4    0    0  0.19624465912E+03  0.34810847251E+03 -0.77545277651E+03  0.87722961633E+03  0.92267634099E+02 0.  0.
          2    1    3    3  502    0  0.22238619134E+03 -0.16530655698E+03 -0.36176984807E+03  0.45569649862E+03  0.00000000000E+00 0. -1.
         -1    1    3    3    0  502  0.26684698775E+01 -0.33669202639E+02 -0.44515956421E+02  0.55878495989E+02  0.00000000000E+00 0.  1.
         11    1    5    5    0    0 -0.25242853057E+03 -0.49043010056E+02 -0.18172514765E+03  0.31487999170E+03  0.00000000000E+00 0.  1.
        -11    1    5    5    0    0 -0.16887078978E+03 -0.10008970283E+03 -0.88450415826E+02  0.21531086436E+03  0.00000000000E+00 0. -1.
          4    1    6    6  503    0  0.24057722164E+02  0.10789235511E+03 -0.26929311235E+03  0.29109846212E+03  0.00000000000E+00 0. -1.
         -4    1    6    6    0  503  0.17218693696E+03  0.24021611740E+03 -0.50615966416E+03  0.58613115421E+03  0.00000000000E+00 0.  1.
<mgrwt>
<rscale>  0 0.12547864E+04</rscale>
<asrwt>0</asrwt>
<pdfrwt beam="1">  1        2 0.25930074E+00 0.12547864E+04</pdfrwt>
<pdfrwt beam="2">  1       -1 0.35929332E-01 0.12547864E+04</pdfrwt>
<totfact> 0.82834723E+01</totfact>
</mgrwt>
</event>
<event>
12    6  0.1457317E-007  0.1967537E+04  0.7818608E-02  0.8621950E-01
         -1   -1    0    0    0  501 -0.00000000000E+00  0.00000000000E+00  0.13570776803E+04  0.13570776803E+04  0.00000000000E+00 0.  1.
          2   -1    0    0  501    0  0.00000000000E+00 -0.00000000000E+00 -0.71315071689E+03  0.71315071689E+03  0.00000000000E+00 0. -1.
         24    2    1    2    0    0 -0.74615241579E+03 -0.15386315562E+02  0.44889273531E+02  0.75195734336E+03  0.80278471976E+02 0.  0.
        254    2    1    2    0    0  0.74615241579E+03  0.15386315562E+02  0.59903768990E+03  0.13182710539E+04  0.90664891288E+03 0.  0.
         23    2    4    4    0    0  0.69130036572E+03 -0.35968885310E+03  0.37921562416E+03  0.87112403926E+03  0.88206209992E+02 0.  0.
         23    2    4    4    0    0  0.54852050074E+02  0.37507516866E+03  0.21982206574E+03  0.44714701460E+03  0.89042588321E+02 0.  0.
          2    1    3    3  502    0 -0.26831912651E+03 -0.21782570185E+02 -0.18791591753E+02  0.26985692123E+03  0.00000000000E+00 0. -1.
         -1    1    3    3    0  502 -0.47783328928E+03  0.63962546221E+01  0.63680865284E+02  0.48210042213E+03  0.00000000000E+00 0.  1.
         11    1    5    5    0    0  0.60613746439E+03 -0.32308774311E+03  0.30135941905E+03  0.75007053997E+03  0.00000000000E+00 0.  1.
        -11    1    5    5    0    0  0.85162901326E+02 -0.36601109990E+02  0.77856205111E+02  0.12105349928E+03  0.00000000000E+00 0. -1.
          1    1    6    6  503    0  0.73839954338E+02  0.34876466166E+03  0.19538401547E+03  0.40652680303E+03  0.00000000000E+00 0.  1.
         -1    1    6    6    0  503 -0.18987904264E+02  0.26310507000E+02  0.24438050266E+02  0.40620211567E+02  0.00000000000E+00 0. -1.
<mgrwt>
<rscale>  0 0.19675375E+04</rscale>
<asrwt>0</asrwt>
<pdfrwt beam="1">  1        2 0.10971550E+00 0.19675375E+04</pdfrwt>
<pdfrwt beam="2">  1       -1 0.20878118E+00 0.19675375E+04</pdfrwt>
<totfact> 0.55747515E+00</totfact>
</mgrwt>
</event>
<event>
12    6  0.1457317E-007  0.1348818E+04  0.7818608E-02  0.8991723E-01
         -1   -1    0    0    0  501 -0.00000000000E+00  0.00000000000E+00  0.11206808355E+04  0.11206808355E+04  0.00000000000E+00 0.  1.
          2   -1    0    0  501    0  0.00000000000E+00 -0.00000000000E+00 -0.40584954001E+03  0.40584954001E+03  0.00000000000E+00 0. -1.
         24    2    1    2    0    0  0.84348168134E+01  0.36875666502E+03  0.15746350898E+03  0.40657176455E+03  0.66732442910E+02 0.  0.
        254    2    1    2    0    0 -0.84348168134E+01 -0.36875666502E+03  0.55736778654E+03  0.11199586110E+04  0.89866335006E+03 0.  0.
         23    2    4    4    0    0  0.24558422002E+03 -0.37807982904E+03 -0.41961478652E+02  0.46221696661E+03  0.92885910049E+02 0.  0.
         23    2    4    4    0    0 -0.25401903683E+03  0.93231640202E+01  0.59932926519E+03  0.65774164439E+03  0.93893078467E+02 0.  0.
          4    1    3    3  502    0  0.25086338039E+02  0.25347955020E+03  0.13378961226E+03  0.28771664372E+03  0.00000000000E+00 0. -1.
         -3    1    3    3    0  502 -0.16651521226E+02  0.11527711482E+03  0.23673896710E+02  0.11885512083E+03  0.00000000000E+00 0.  1.
         11    1    5    5    0    0  0.24706455810E+03 -0.33027454366E+03 -0.36238314162E+02  0.41404756426E+03  0.00000000000E+00 0.  1.
        -11    1    5    5    0    0 -0.14803380797E+01 -0.47805285381E+02 -0.57231644904E+01  0.48169402352E+02  0.00000000000E+00 0. -1.
          3    1    6    6  503    0 -0.46214765288E+02 -0.35577663997E+02  0.13448934618E+03  0.14659112846E+03  0.00000000000E+00 0. -1.
         -3    1    6    6    0  503 -0.20780427154E+03  0.44900828017E+02  0.46483991901E+03  0.51115051593E+03  0.00000000000E+00 0.  1.
<mgrwt>
<rscale>  0 0.13488184E+04</rscale>
<asrwt>0</asrwt>
<pdfrwt beam="1">  1        2 0.62438391E-01 0.13488184E+04</pdfrwt>
<pdfrwt beam="2">  1       -1 0.17241244E+00 0.13488184E+04</pdfrwt>
<totfact> 0.20654703E+01</totfact>
</mgrwt>
</event>
<event>
12    6  0.1457317E-007  0.1495156E+04  0.7818608E-02  0.8887680E-01
          2   -1    0    0  501    0  0.00000000000E+00  0.00000000000E+00  0.21775534378E+04  0.21775534378E+04  0.00000000000E+00 0. -1.
         -1   -1    0    0    0  501 -0.00000000000E+00 -0.00000000000E+00 -0.25665178474E+03  0.25665178474E+03  0.00000000000E+00 0.  1.
         24    2    1    2    0    0  0.13435754131E+03 -0.27474295115E+03  0.29914464536E+02  0.31716070521E+03  0.78488213331E+02 0.  0.
        254    2    1    2    0    0 -0.13435754131E+03  0.27474295115E+03  0.18909871885E+04  0.21170445173E+04  0.90139297928E+03 0.  0.
         23    2    4    4    0    0 -0.15076541222E+03  0.58721549658E+03  0.10669065736E+04  0.12304361991E+04  0.90174022881E+02 0.  0.
         23    2    4    4    0    0  0.16407870917E+02 -0.31247254543E+03  0.82408061490E+03  0.88660831818E+03  0.95169008264E+02 0.  0.
          2    1    3    3  502    0  0.38962537656E+02 -0.98773893980E+02  0.47308602852E+02  0.11624313045E+03  0.00000000000E+00 0. -1.
         -1    1    3    3    0  502  0.95395003650E+02 -0.17596905717E+03 -0.17394138316E+02  0.20091757477E+03  0.00000000000E+00 0.  1.
         11    1    5    5    0    0  0.12222866270E+02  0.49101718422E+02  0.82920985757E+02  0.97140450333E+02  0.00000000000E+00 0. -1.
        -11    1    5    5    0    0 -0.16298827849E+03  0.53811377816E+03  0.98398558785E+03  0.11332957488E+04  0.00000000000E+00 0.  1.
          1    1    6    6  503    0  0.21095830007E+02 -0.11654293726E+02  0.38885355435E+02  0.45748524274E+02  0.00000000000E+00 0. -1.
         -1    1    6    6    0  503 -0.46879590905E+01 -0.30081825170E+03  0.78519525946E+03  0.84085979390E+03  0.00000000000E+00 0.  1.
<mgrwt>
<rscale>  0 0.14951561E+04</rscale>
<asrwt>0</asrwt>
<pdfrwt beam="1">  1        2 0.33500821E+00 0.14951561E+04</pdfrwt>
<pdfrwt beam="2">  1       -1 0.39484891E-01 0.14951561E+04</pdfrwt>
<totfact> 0.36540105E+01</totfact>
</mgrwt>
</event>
<event>
12    6  0.1457317E-007  0.1798333E+04  0.7818608E-02  0.8707186E-01
         -1   -1    0    0    0  501 -0.00000000000E+00  0.00000000000E+00  0.36953255821E+03  0.36953255821E+03  0.00000000000E+00 0.  1.
          2   -1    0    0  501    0  0.00000000000E+00 -0.00000000000E+00 -0.21879002748E+04  0.21879002748E+04  0.00000000000E+00 0. -1.
         24    2    1    2    0    0  0.51250347724E+03 -0.10794159305E+03 -0.12539857368E+04  0.13622924442E+04  0.95127669642E+02 0.  0.
        254    2    1    2    0    0 -0.51250347724E+03  0.10794159305E+03 -0.56438197980E+03  0.11951403889E+04  0.91406910480E+03 0.  0.
         23    2    4    4    0    0 -0.68562462765E+03  0.50028895573E+02 -0.67310610853E+03  0.96632498407E+03  0.90156092751E+02 0.  0.
         23    2    4    4    0    0  0.17312115041E+03  0.57912697477E+02  0.10872412873E+03  0.22881540482E+03  0.84916076616E+02 0.  0.
          2    1    3    3  502    0  0.38668837310E+03 -0.62613707952E+02 -0.10222994258E+04  0.10947805672E+04  0.00000000000E+00 0. -1.
         -1    1    3    3    0  502  0.12581510414E+03 -0.45327885098E+02 -0.23168631107E+03  0.26751187700E+03  0.00000000000E+00 0.  1.
         11    1    5    5    0    0 -0.24387543026E+03  0.39748103940E+02 -0.19061103343E+03  0.31207002951E+03  0.00000000000E+00 0.  1.
        -11    1    5    5    0    0 -0.44174919739E+03  0.10280791633E+02 -0.48249507510E+03  0.65425495456E+03  0.00000000000E+00 0. -1.
          1    1    6    6  503    0  0.37580179840E+02  0.45268288218E+02  0.60516110773E+02  0.84401940132E+02  0.00000000000E+00 0. -1.
         -1    1    6    6    0  503  0.13554097057E+03  0.12644409259E+02  0.48208017957E+02  0.14441346469E+03  0.00000000000E+00 0.  1.
<mgrwt>
<rscale>  0 0.17983330E+04</rscale>
<asrwt>0</asrwt>
<pdfrwt beam="1">  1        2 0.33660004E+00 0.17983330E+04</pdfrwt>
<pdfrwt beam="2">  1       -1 0.56851163E-01 0.17983330E+04</pdfrwt>
<totfact> 0.17669731E+01</totfact>
</mgrwt>
</event>
<event>
12    6  0.1457317E-007  0.1248389E+04  0.7818608E-02  0.9071525E-01
         -1   -1    0    0    0  501 -0.00000000000E+00  0.00000000000E+00  0.45767188830E+03  0.45767188830E+03  0.00000000000E+00 0.  1.
          2   -1    0    0  501    0  0.00000000000E+00 -0.00000000000E+00 -0.85130562269E+03  0.85130562269E+03  0.00000000000E+00 0. -1.
         24    2    1    2    0    0 -0.38285513098E+02  0.91064238291E+02 -0.37926290380E+03  0.40022778041E+03  0.81138461965E+02 0.  0.
        254    2    1    2    0    0  0.38285513098E+02 -0.91064238291E+02 -0.14370830596E+02  0.90874973058E+03  0.90325028427E+03 0.  0.
         23    2    4    4    0    0 -0.39802241895E+03 -0.14757674662E+03  0.95694335529E+02  0.44467215304E+03  0.91515986090E+02 0.  0.
         23    2    4    4    0    0  0.43630793204E+03  0.56512508334E+02 -0.11006516612E+03  0.46407757754E+03  0.98465130962E+02 0.  0.
          4    1    3    3  502    0 -0.26216423919E+02  0.94672178553E+02 -0.37380834657E+03  0.38650071441E+03  0.00000000000E+00 0. -1.
         -3    1    3    3    0  502 -0.12069089179E+02 -0.36079402624E+01 -0.54545572297E+01  0.13727066005E+02  0.00000000000E+00 0.  1.
         11    1    5    5    0    0 -0.35476037923E+03 -0.97467579719E+02  0.76924572830E+02  0.37586200350E+03  0.00000000000E+00 0.  1.
        -11    1    5    5    0    0 -0.43262039712E+02 -0.50109166906E+02  0.18769762699E+02  0.68810149541E+02  0.00000000000E+00 0. -1.
          1    1    6    6  503    0  0.60034602771E+00 -0.30393953946E+00  0.88490089663E+01  0.88745565682E+01  0.00000000000E+00 0. -1.
         -1    1    6    6    0  503  0.43570758602E+03  0.56816447873E+02 -0.11891417509E+03  0.45520302097E+03  0.00000000000E+00 0.  1.
<mgrwt>
<rscale>  0 0.12483888E+04</rscale>
<asrwt>0</asrwt>
<pdfrwt beam="1">  1        2 0.13097010E+00 0.12483888E+04</pdfrwt>
<pdfrwt beam="2">  1       -1 0.70411060E-01 0.12483888E+04</pdfrwt>
<totfact> 0.72506291E+01</totfact>
</mgrwt>
</event>
<event>
12    6  0.1457317E-007  0.3515575E+04  0.7818608E-02  0.8110109E-01
          2   -1    0    0  501    0  0.00000000000E+00  0.00000000000E+00  0.18631604517E+04  0.18631604517E+04  0.00000000000E+00 0. -1.
         -1   -1    0    0    0  501 -0.00000000000E+00 -0.00000000000E+00 -0.16583742395E+04  0.16583742395E+04  0.00000000000E+00 0.  1.
         24    2    1    2    0    0 -0.15351679302E+04 -0.33126458515E+03  0.52761270113E+03  0.16586599608E+04  0.79378233089E+02 0.  0.
        254    2    1    2    0    0  0.15351679302E+04  0.33126458515E+03 -0.32282648895E+03  0.18628747303E+04  0.94847694730E+03 0.  0.
         23    2    4    4    0    0  0.79513314451E+03 -0.27303854608E+03 -0.31649189744E+03  0.90302478361E+03  0.92194758612E+02 0.  0.
         23    2    4    4    0    0  0.74003478571E+03  0.60430313123E+03 -0.63345915025E+01  0.95984994672E+03  0.91858775788E+02 0.  0.
          2    1    3    3  502    0 -0.81888229796E+03 -0.21159810227E+03  0.30502043409E+03  0.89909923814E+03  0.00000000000E+00 0. -1.
         -1    1    3    3    0  502 -0.71628563226E+03 -0.11966648288E+03  0.22259226704E+03  0.75956072269E+03  0.00000000000E+00 0.  1.
         11    1    5    5    0    0 -0.23996635512E+01 -0.23242363517E+01 -0.13501638835E+00  0.33434546808E+01  0.00000000000E+00 0.  1.
        -11    1    5    5    0    0  0.79753280806E+03 -0.27071430973E+03 -0.31635688106E+03  0.89968132892E+03  0.00000000000E+00 0. -1.
          3    1    6    6  503    0  0.72562026679E+03  0.57035087538E+03 -0.61324331372E+01  0.92296397511E+03  0.00000000000E+00 0. -1.
         -3    1    6    6    0  503  0.14414518920E+02  0.33952255854E+02 -0.20215836529E+00  0.36885971605E+02  0.00000000000E+00 0.  1.
<mgrwt>
<rscale>  0 0.35155752E+04</rscale>
<asrwt>0</asrwt>
<pdfrwt beam="1">  1        2 0.28664007E+00 0.35155752E+04</pdfrwt>
<pdfrwt beam="2">  1       -1 0.25513450E+00 0.35155752E+04</pdfrwt>
<totfact> 0.47968334E-01</totfact>
</mgrwt>
</event>
<event>
12    6  0.1457317E-007  0.1263936E+04  0.7818608E-02  0.9058663E-01
         -1   -1    0    0    0  501 -0.00000000000E+00  0.00000000000E+00  0.30192941912E+03  0.30192941912E+03  0.00000000000E+00 0.  1.
          2   -1    0    0  501    0  0.00000000000E+00 -0.00000000000E+00 -0.13227719715E+04  0.13227719715E+04  0.00000000000E+00 0. -1.
         24    2    1    2    0    0 -0.24583579502E+03 -0.15569765419E+03 -0.14592596155E+03  0.33528738326E+03  0.80288514041E+02 0.  0.
        254    2    1    2    0    0  0.24583579502E+03  0.15569765419E+03 -0.87491659082E+03  0.12894140073E+04  0.90135034467E+03 0.  0.
         23    2    4    4    0    0 -0.30761726393E+03 -0.57104167183E+02 -0.18184356971E+03  0.37256272465E+03  0.88581222467E+02 0.  0.
         23    2    4    4    0    0  0.55345305894E+03  0.21280182137E+03 -0.69307302110E+03  0.91685128270E+03  0.93119054855E+02 0.  0.
          4    1    3    3  502    0 -0.14125399041E+03 -0.92552942999E+02 -0.12780392900E+03  0.21178428018E+03  0.00000000000E+00 0. -1.
         -3    1    3    3    0  502 -0.10458180461E+03 -0.63144711191E+02 -0.18122032552E+02  0.12350310308E+03  0.00000000000E+00 0.  1.
         11    1    5    5    0    0 -0.10600937269E+02  0.15763078837E+02 -0.67348123301E+01  0.20154707205E+02  0.00000000000E+00 0. -1.
        -11    1    5    5    0    0 -0.29701632666E+03 -0.72867246020E+02 -0.17510875738E+03  0.35240801744E+03  0.00000000000E+00 0.  1.
          1    1    6    6  503    0  0.72495309106E+02  0.24453889680E+02 -0.14365714496E+03  0.16276036944E+03  0.00000000000E+00 0. -1.
         -1    1    6    6    0  503  0.48095774984E+03  0.18834793169E+03 -0.54941587614E+03  0.75409091326E+03  0.00000000000E+00 0.  1.
<mgrwt>
<rscale>  0 0.12639363E+04</rscale>
<asrwt>0</asrwt>
<pdfrwt beam="1">  1        2 0.20350338E+00 0.12639363E+04</pdfrwt>
<pdfrwt beam="2">  1       -1 0.46450680E-01 0.12639363E+04</pdfrwt>
<totfact> 0.82832359E+01</totfact>
</mgrwt>
</event>
<event>
12    6  0.1457317E-007  0.1353642E+04  0.7818608E-02  0.8988076E-01
         -1   -1    0    0    0  501 -0.00000000000E+00  0.00000000000E+00  0.39544137349E+03  0.39544137349E+03  0.00000000000E+00 0.  1.
          2   -1    0    0  501    0  0.00000000000E+00 -0.00000000000E+00 -0.11584191853E+04  0.11584191853E+04  0.00000000000E+00 0. -1.
         24    2    1    2    0    0  0.36166186486E+03  0.75144534482E+02 -0.17051039815E+03  0.41409549034E+03  0.77170419778E+02 0.  0.
        254    2    1    2    0    0 -0.36166186486E+03 -0.75144534482E+02 -0.59246741369E+03  0.11397650685E+04  0.90088887743E+03 0.  0.
         23    2    4    4    0    0 -0.12632027181E+03 -0.46533583150E+03 -0.18781155881E+03  0.52470188699E+03  0.86859895459E+02 0.  0.
         23    2    4    4    0    0 -0.23534159304E+03  0.39019129702E+03 -0.40465585488E+03  0.61506318148E+03  0.83195208042E+02 0.  0.
          2    1    3    3  502    0  0.34167135010E+03  0.57035855285E+02 -0.17264452627E+03  0.38703815409E+03  0.00000000000E+00 0. -1.
         -1    1    3    3    0  502  0.19990514751E+02  0.18108679197E+02  0.21341281130E+01  0.27057336252E+02  0.00000000000E+00 0.  1.
         11    1    5    5    0    0 -0.61292263888E+02 -0.24910749457E+03 -0.53750195715E+02  0.26210755236E+03  0.00000000000E+00 0.  1.
        -11    1    5    5    0    0 -0.65028007925E+02 -0.21622833693E+03 -0.13406136310E+03  0.26259433464E+03  0.00000000000E+00 0. -1.
          3    1    6    6  503    0 -0.50863826602E+00 -0.41255710216E+01 -0.49199581711E+01  0.64408879469E+01  0.00000000000E+00 0.  1.
         -3    1    6    6    0  503 -0.23483295478E+03  0.39431686804E+03 -0.39973589671E+03  0.60862229354E+03  0.00000000000E+00 0. -1.
<mgrwt>
<rscale>  0 0.13536423E+04</rscale>
<asrwt>0</asrwt>
<pdfrwt beam="1">  1        2 0.17821833E+00 0.13536423E+04</pdfrwt>
<pdfrwt beam="2">  1       -1 0.60837135E-01 0.13536423E+04</pdfrwt>
<totfact> 0.61221318E+01</totfact>
</mgrwt>
</event>
<event>
12    6  0.1457317E-007  0.2449574E+04  0.7818608E-02  0.8421173E-01
          2   -1    0    0  501    0  0.00000000000E+00  0.00000000000E+00  0.14731830004E+04  0.14731830004E+04  0.00000000000E+00 0. -1.
         -1   -1    0    0    0  501 -0.00000000000E+00 -0.00000000000E+00 -0.10182738890E+04  0.10182738890E+04  0.00000000000E+00 0.  1.
         24    2    1    2    0    0  0.16672608814E+02 -0.21904414716E+03  0.12490041024E+04  0.12707071553E+04  0.80169273081E+02 0.  0.
        254    2    1    2    0    0 -0.16672608814E+02  0.21904414716E+03 -0.79409499100E+03  0.12207497341E+04  0.90076897391E+03 0.  0.
         23    2    4    4    0    0  0.26648201956E+03 -0.10066188615E+03 -0.71558685686E+03  0.77559444993E+03  0.91305635019E+02 0.  0.
         23    2    4    4    0    0 -0.28315462838E+03  0.31970603331E+03 -0.78508134138E+02  0.44515528419E+03  0.98036771716E+02 0.  0.
          2    1    3    3  502    0  0.25539602892E+02 -0.18603273865E+03  0.86300933017E+03  0.88320187676E+03  0.00000000000E+00 0. -1.
         -1    1    3    3    0  502 -0.88669940786E+01 -0.33011408509E+02  0.38599477228E+03  0.38750527855E+03  0.00000000000E+00 0.  1.
         11    1    5    5    0    0  0.84214802031E+02  0.52223216208E+01 -0.26565500313E+03  0.27873282227E+03  0.00000000000E+00 0. -1.
        -11    1    5    5    0    0  0.18226721753E+03 -0.10588420777E+03 -0.44993185373E+03  0.49686162766E+03  0.00000000000E+00 0.  1.
          1    1    6    6  503    0 -0.19225073740E+02  0.73768153124E+02 -0.13654711744E+01  0.76244399054E+02  0.00000000000E+00 0. -1.
         -1    1    6    6    0  503 -0.26392955464E+03  0.24593788019E+03 -0.77142662964E+02  0.36891088514E+03  0.00000000000E+00 0.  1.
<mgrwt>
<rscale>  0 0.24495745E+04</rscale>
<asrwt>0</asrwt>
<pdfrwt beam="1">  1        2 0.22664354E+00 0.24495745E+04</pdfrwt>
<pdfrwt beam="2">  1       -1 0.15665752E+00 0.24495745E+04</pdfrwt>
<totfact> 0.41561147E+00</totfact>
</mgrwt>
</event>
<event>
12    6  0.1457317E-007  0.1968087E+04  0.7818608E-02  0.8621688E-01
          2   -1    0    0  501    0  0.00000000000E+00  0.00000000000E+00  0.86204646804E+03  0.86204646804E+03  0.00000000000E+00 0. -1.
         -1   -1    0    0    0  501 -0.00000000000E+00 -0.00000000000E+00 -0.11233054806E+04  0.11233054806E+04  0.00000000000E+00 0.  1.
         24    2    1    2    0    0 -0.58220206351E+03  0.43888586221E+03 -0.37267312028E+03  0.82248339256E+03  0.77547621794E+02 0.  0.
        254    2    1    2    0    0  0.58220206351E+03 -0.43888586221E+03  0.11141410774E+03  0.11628685561E+04  0.89903844883E+03 0.  0.
         23    2    4    4    0    0 -0.13564654426E+03  0.57914789343E+02  0.21845667132E+03  0.27852979693E+03  0.90007903754E+02 0.  0.
         23    2    4    4    0    0  0.71784860778E+03 -0.49680065155E+03 -0.10704256358E+03  0.88433875914E+03  0.92083763076E+02 0.  0.
          4    1    3    3  502    0 -0.26493480047E+03  0.20096966889E+03 -0.21346977361E+03  0.39515642543E+03  0.00000000000E+00 0. -1.
         -3    1    3    3    0  502 -0.31726726305E+03  0.23791619332E+03 -0.15920334667E+03  0.42732696713E+03  0.00000000000E+00 0.  1.
         11    1    5    5    0    0 -0.51933568605E+02  0.15821153375E+02  0.17900965226E+02  0.57165102975E+02  0.00000000000E+00 0. -1.
        -11    1    5    5    0    0 -0.83712975658E+02  0.42093635968E+02  0.20055570609E+03  0.22136469395E+03  0.00000000000E+00 0.  1.
          2    1    6    6  503    0  0.15189704444E+03 -0.14776168492E+03 -0.43982814195E+02  0.21642716000E+03  0.00000000000E+00 0.  1.
         -2    1    6    6    0  503  0.56595156333E+03 -0.34903896663E+03 -0.63059749383E+02  0.66791159913E+03  0.00000000000E+00 0. -1.
<mgrwt>
<rscale>  0 0.19680869E+04</rscale>
<asrwt>0</asrwt>
<pdfrwt beam="1">  1        2 0.13262253E+00 0.19680869E+04</pdfrwt>
<pdfrwt beam="2">  1       -1 0.17281623E+00 0.19680869E+04</pdfrwt>
<totfact> 0.77640282E+00</totfact>
</mgrwt>
</event>
<event>
12    6  0.1457317E-007  0.1091710E+04  0.7818608E-02  0.9213309E-01
         -1   -1    0    0    0  501 -0.00000000000E+00  0.00000000000E+00  0.22449219143E+03  0.22449219143E+03  0.00000000000E+00 0.  1.
          2   -1    0    0  501    0  0.00000000000E+00 -0.00000000000E+00 -0.13272526074E+04  0.13272526074E+04  0.00000000000E+00 0. -1.
         24    2    1    2    0    0 -0.87035751961E+02 -0.49652973826E+02 -0.35076578113E+03  0.37272349272E+03  0.76456058562E+02 0.  0.
        254    2    1    2    0    0  0.87035751961E+02  0.49652973826E+02 -0.75199463488E+03  0.11790213061E+04  0.90252682483E+03 0.  0.
         23    2    4    4    0    0  0.14349353314E+03 -0.29223192756E+03 -0.74772717565E+03  0.82077463080E+03  0.92656202315E+02 0.  0.
         23    2    4    4    0    0 -0.56457781180E+02  0.34188490139E+03 -0.42674592360E+01  0.35824667535E+03  0.90827872017E+02 0.  0.
          4    1    3    3  502    0 -0.80527027514E+02 -0.65963609261E+02 -0.25617959157E+03  0.27652085463E+03  0.00000000000E+00 0. -1.
         -3    1    3    3    0  502 -0.65087244470E+01  0.16310635435E+02 -0.94586189552E+02  0.96202638094E+02  0.00000000000E+00 0.  1.
         11    1    5    5    0    0  0.26328221628E+02 -0.10569145639E+03 -0.34437891595E+03  0.36119343427E+03  0.00000000000E+00 0. -1.
        -11    1    5    5    0    0  0.11716531151E+03 -0.18654047117E+03 -0.40334825970E+03  0.45958119653E+03  0.00000000000E+00 0.  1.
          1    1    6    6  503    0 -0.18781122387E+02  0.56480505238E+01  0.29257449830E+01  0.19829044771E+02  0.00000000000E+00 0. -1.
         -1    1    6    6    0  503 -0.37676658793E+02  0.33623685086E+03 -0.71932042190E+01  0.33841763058E+03  0.00000000000E+00 0.  1.
<mgrwt>
<rscale>  0 0.10917103E+04</rscale>
<asrwt>0</asrwt>
<pdfrwt beam="1">  1        2 0.20419271E+00 0.10917103E+04</pdfrwt>
<pdfrwt beam="2">  1       -1 0.34537261E-01 0.10917103E+04</pdfrwt>
<totfact> 0.14325208E+02</totfact>
</mgrwt>
</event>
<event>
12    6  0.1457317E-007  0.1589020E+04  0.7818608E-02  0.8827322E-01
          2   -1    0    0  501    0  0.00000000000E+00  0.00000000000E+00  0.22576943896E+04  0.22576943896E+04  0.00000000000E+00 0. -1.
         -1   -1    0    0    0  501 -0.00000000000E+00 -0.00000000000E+00 -0.27959784054E+03  0.27959784054E+03  0.00000000000E+00 0.  1.
         24    2    1    2    0    0 -0.14367000895E+03 -0.60146432018E+02 -0.14505433634E+03  0.22669473167E+03  0.78045346566E+02 0.  0.
        254    2    1    2    0    0  0.14367000895E+03  0.60146432018E+02  0.21231508854E+04  0.23105974985E+04  0.89823852792E+03 0.  0.
         23    2    4    4    0    0 -0.12527076396E+02  0.22994514332E+03  0.20310540834E+04  0.20460799765E+04  0.90724220075E+02 0.  0.
         23    2    4    4    0    0  0.15619708534E+03 -0.16979871131E+03  0.92096802015E+02  0.26451752196E+03  0.90876656238E+02 0.  0.
          4    1    3    3  502    0 -0.11241108166E+02  0.83002081592E+01 -0.45097981218E+02  0.47213174838E+02  0.00000000000E+00 0. -1.
         -3    1    3    3    0  502 -0.13242890078E+03 -0.68446640177E+02 -0.99956355119E+02  0.17948155683E+03  0.00000000000E+00 0.  1.
         11    1    5    5    0    0 -0.29233734591E+02  0.20080460192E+03  0.14594158759E+04  0.14734557334E+04  0.00000000000E+00 0.  1.
        -11    1    5    5    0    0  0.16706658195E+02  0.29140541401E+02  0.57163820748E+03  0.57262424314E+03  0.00000000000E+00 0. -1.
          1    1    6    6  503    0  0.21924464045E+02 -0.44932691275E+02 -0.14967876232E+02  0.52188755376E+02  0.00000000000E+00 0. -1.
         -1    1    6    6    0  503  0.13427262130E+03 -0.12486602003E+03  0.10706467825E+03  0.21232876658E+03  0.00000000000E+00 0.  1.
<mgrwt>
<rscale>  0 0.15890204E+04</rscale>
<asrwt>0</asrwt>
<pdfrwt beam="1">  1        2 0.34733759E+00 0.15890204E+04</pdfrwt>
<pdfrwt beam="2">  1       -1 0.43015054E-01 0.15890204E+04</pdfrwt>
<totfact> 0.27923023E+01</totfact>
</mgrwt>
</event>
<event>
12    6  0.1457317E-007  0.1910198E+04  0.7818608E-02  0.8649797E-01
         -1   -1    0    0    0  501 -0.00000000000E+00  0.00000000000E+00  0.51101142349E+03  0.51101142349E+03  0.00000000000E+00 0.  1.
          2   -1    0    0  501    0  0.00000000000E+00 -0.00000000000E+00 -0.17851140688E+04  0.17851140688E+04  0.00000000000E+00 0. -1.
         24    2    1    2    0    0 -0.34300074736E+03 -0.15245992435E+03  0.27289400122E+03  0.47109059959E+03  0.81004172090E+02 0.  0.
        254    2    1    2    0    0  0.34300074736E+03  0.15245992435E+03 -0.15469966466E+04  0.18250348928E+04  0.89255823006E+03 0.  0.
         23    2    4    4    0    0  0.34490221185E+03  0.49301456724E+03 -0.87151284869E+03  0.10630384296E+04  0.92169181873E+02 0.  0.
         23    2    4    4    0    0 -0.19014644886E+01 -0.34055464289E+03 -0.67548379788E+03  0.76199646317E+03  0.91537797229E+02 0.  0.
          2    1    3    3  502    0 -0.19436964134E+03 -0.42890926583E+02  0.15087082504E+03  0.24976227679E+03  0.00000000000E+00 0. -1.
         -1    1    3    3    0  502 -0.14863110602E+03 -0.10956899777E+03  0.12202317617E+03  0.22132832280E+03  0.00000000000E+00 0.  1.
         11    1    5    5    0    0  0.11940817540E+03  0.20662294779E+03 -0.41650714913E+03  0.48003079087E+03  0.00000000000E+00 0.  1.
        -11    1    5    5    0    0  0.22549403645E+03  0.28639161945E+03 -0.45500569955E+03  0.58300763871E+03  0.00000000000E+00 0. -1.
          3    1    6    6  503    0 -0.34222439885E+02 -0.19506237175E+03 -0.45070733659E+03  0.49229829120E+03  0.00000000000E+00 0. -1.
         -3    1    6    6    0  503  0.32320975397E+02 -0.14549227114E+03 -0.22477646129E+03  0.26969817197E+03  0.00000000000E+00 0.  1.
<mgrwt>
<rscale>  0 0.19101976E+04</rscale>
<asrwt>0</asrwt>
<pdfrwt beam="1">  1        2 0.27463293E+00 0.19101976E+04</pdfrwt>
<pdfrwt beam="2">  1       -1 0.78617142E-01 0.19101976E+04</pdfrwt>
<totfact> 0.15172905E+01</totfact>
</mgrwt>
</event>
<event>
12    6  0.1526071E-007  0.1788882E+04  0.7818608E-02  0.8712234E-01
          2   -1    0    0  501    0  0.00000000000E+00  0.00000000000E+00  0.18176346131E+04  0.18176346131E+04  0.00000000000E+00 0. -1.
         -1   -1    0    0    0  501 -0.00000000000E+00 -0.00000000000E+00 -0.44014614623E+03  0.44014614623E+03  0.00000000000E+00 0.  1.
         24    2    1    2    0    0  0.47321629419E+03 -0.33191218073E+03  0.89606732502E+03  0.10692564312E+04  0.79204216689E+02 0.  0.
        254    2    1    2    0    0 -0.47321629419E+03  0.33191218073E+03  0.48142114180E+03  0.11885243281E+04  0.92017629063E+03 0.  0.
         23    2    4    4    0    0 -0.28690986560E+03 -0.16445842362E+03  0.54845407527E+03  0.64643112135E+03  0.87792242782E+02 0.  0.
         23    2    4    4    0    0 -0.18630642859E+03  0.49637060435E+03 -0.67032933468E+02  0.54209320672E+03  0.90982242287E+02 0.  0.
          2    1    3    3  502    0  0.45673269500E+03 -0.31688126160E+03  0.82530580516E+03  0.99506188786E+03  0.00000000000E+00 0. -1.
         -1    1    3    3    0  502  0.16483599181E+02 -0.15030919124E+02  0.70761519856E+02  0.74194543358E+02  0.00000000000E+00 0.  1.
         11    1    5    5    0    0 -0.23724997343E+03 -0.16309674883E+03  0.42478810384E+03  0.51315985086E+03  0.00000000000E+00 0.  1.
        -11    1    5    5    0    0 -0.49659892170E+02 -0.13616747907E+01  0.12366597143E+03  0.13327127049E+03  0.00000000000E+00 0. -1.
          1    1    6    6  503    0 -0.14938608703E+03  0.35910786425E+03 -0.87012041287E+02  0.39855458408E+03  0.00000000000E+00 0. -1.
         -1    1    6    6    0  503 -0.36920341553E+02  0.13726274010E+03  0.19979107819E+02  0.14353862264E+03  0.00000000000E+00 0.  1.
<mgrwt>
<rscale>  0 0.17888822E+04</rscale>
<asrwt>0</asrwt>
<pdfrwt beam="1">  1        2 0.27963609E+00 0.17888822E+04</pdfrwt>
<pdfrwt beam="2">  1       -1 0.67714793E-01 0.17888822E+04</pdfrwt>
<totfact> 0.20050299E+01</totfact>
</mgrwt>
</event>
<event>
12    6  0.1457317E-007  0.1156307E+04  0.7818608E-02  0.9151984E-01
         -1   -1    0    0    0  501 -0.00000000000E+00  0.00000000000E+00  0.13150192092E+03  0.13150192092E+03  0.00000000000E+00 0.  1.
          2   -1    0    0  501    0  0.00000000000E+00 -0.00000000000E+00 -0.25418765651E+04  0.25418765651E+04  0.00000000000E+00 0. -1.
         24    2    1    2    0    0 -0.12375997097E+03 -0.18768555734E+03 -0.75840901842E+03  0.79496691974E+03  0.79030155090E+02 0.  0.
        254    2    1    2    0    0  0.12375997097E+03  0.18768555734E+03 -0.16519656257E+04  0.18784115663E+04  0.86538845888E+03 0.  0.
         23    2    4    4    0    0  0.25718922570E+03  0.47304485571E+03 -0.12164772919E+04  0.13332257417E+04  0.88068968659E+02 0.  0.
         23    2    4    4    0    0 -0.13342925473E+03 -0.28535929837E+03 -0.43548833385E+03  0.54518582458E+03  0.91346588464E+02 0.  0.
          2    1    3    3  502    0 -0.57445009371E+02 -0.60215813272E+02 -0.40504474151E+03  0.41350588375E+03  0.00000000000E+00 0. -1.
         -1    1    3    3    0  502 -0.66314961597E+02 -0.12746974407E+03 -0.35336427691E+03  0.38146103599E+03  0.00000000000E+00 0.  1.
         11    1    5    5    0    0  0.23735414672E+03  0.38049191809E+03 -0.10492539252E+04  0.11410718164E+04  0.00000000000E+00 0.  1.
        -11    1    5    5    0    0  0.19835078984E+02  0.92552937617E+02 -0.16722336671E+03  0.19215392526E+03  0.00000000000E+00 0. -1.
          4    1    6    6  503    0  0.12087867579E+02 -0.47606978275E+02 -0.60029765857E+02  0.77563610745E+02  0.00000000000E+00 0. -1.
         -4    1    6    6    0  503 -0.14551712231E+03 -0.23775232009E+03 -0.37545856799E+03  0.46762221384E+03  0.00000000000E+00 0.  1.
<mgrwt>
<rscale>  0 0.11563073E+04</rscale>
<asrwt>0</asrwt>
<pdfrwt beam="1">  1        2 0.39105788E+00 0.11563073E+04</pdfrwt>
<pdfrwt beam="2">  1       -1 0.20231068E-01 0.11563073E+04</pdfrwt>
<totfact> 0.75022914E+01</totfact>
</mgrwt>
</event>
<event>
12    6  0.1457317E-007  0.1129312E+04  0.7818608E-02  0.9177084E-01
         -1   -1    0    0    0  501 -0.00000000000E+00  0.00000000000E+00  0.40026430422E+03  0.40026430422E+03  0.00000000000E+00 0.  1.
          2   -1    0    0  501    0  0.00000000000E+00 -0.00000000000E+00 -0.79656431038E+03  0.79656431038E+03  0.00000000000E+00 0. -1.
         24    2    1    2    0    0 -0.10725011575E+03 -0.57448599319E+02 -0.23031669234E+03  0.27391766420E+03  0.84747738035E+02 0.  0.
        254    2    1    2    0    0  0.10725011575E+03  0.57448599319E+02 -0.16598331382E+03  0.92291095039E+03  0.89967284776E+03 0.  0.
         23    2    4    4    0    0  0.20607835480E+03  0.19608034052E+02 -0.50710140518E+03  0.55416511864E+03  0.84228144126E+02 0.  0.
         23    2    4    4    0    0 -0.98828239051E+02  0.37840565267E+02  0.34111809136E+03  0.36874583176E+03  0.91722445308E+02 0.  0.
          2    1    3    3  502    0 -0.11375602317E+03 -0.28158478837E+02 -0.16902883971E+03  0.20567955997E+03  0.00000000000E+00 0. -1.
         -1    1    3    3    0  502  0.65059074201E+01 -0.29290120481E+02 -0.61287852631E+02  0.68238104233E+02  0.00000000000E+00 0.  1.
         11    1    5    5    0    0  0.45568496755E+01 -0.57537983807E+01 -0.89383547125E+02  0.89684388671E+02  0.00000000000E+00 0.  1.
        -11    1    5    5    0    0  0.20152150512E+03  0.25361832433E+02 -0.41771785806E+03  0.46448072997E+03  0.00000000000E+00 0. -1.
          3    1    6    6  503    0 -0.60989619629E+02  0.24216180683E+02  0.31267647214E+03  0.31948823662E+03  0.00000000000E+00 0. -1.
         -3    1    6    6    0  503 -0.37838619422E+02  0.13624384584E+02  0.28441619222E+02  0.49257595141E+02  0.00000000000E+00 0.  1.
<mgrwt>
<rscale>  0 0.11293118E+04</rscale>
<asrwt>0</asrwt>
<pdfrwt beam="1">  1        2 0.12254835E+00 0.11293118E+04</pdfrwt>
<pdfrwt beam="2">  1       -1 0.61579124E-01 0.11293118E+04</pdfrwt>
<totfact> 0.10485576E+02</totfact>
</mgrwt>
</event>
<event>
12    6  0.1457317E-007  0.1876333E+04  0.7818608E-02  0.8666727E-01
          2   -1    0    0  501    0  0.00000000000E+00  0.00000000000E+00  0.40063326858E+04  0.40063326858E+04  0.00000000000E+00 0. -1.
         -1   -1    0    0    0  501 -0.00000000000E+00 -0.00000000000E+00 -0.21969126397E+03  0.21969126397E+03  0.00000000000E+00 0.  1.
         24    2    1    2    0    0  0.21205873018E+03  0.31176445435E+03  0.28770382853E+04  0.29027843652E+04  0.81497212963E+02 0.  0.
        254    2    1    2    0    0 -0.21205873018E+03 -0.31176445435E+03  0.90960313657E+03  0.13232395846E+04  0.88397915824E+03 0.  0.
         23    2    4    4    0    0  0.12180281487E+03 -0.40375737629E+03  0.85898427078E+03  0.96121623457E+03  0.90701309454E+02 0.  0.
         23    2    4    4    0    0 -0.33386154505E+03  0.91992921945E+02  0.50618865787E+02  0.36202335004E+03  0.92587296387E+02 0.  0.
          4    1    3    3  502    0  0.11480439521E+03  0.21317622235E+03  0.20474578631E+04  0.20617244850E+04  0.00000000000E+00 0. -1.
         -1    1    3    3    0  502  0.97254334975E+02  0.98588231998E+02  0.82958042218E+03  0.84105988017E+03  0.00000000000E+00 0.  1.
         11    1    5    5    0    0  0.10579310336E+03 -0.31318100293E+03  0.74275886784E+03  0.81299769808E+03  0.00000000000E+00 0.  1.
        -11    1    5    5    0    0  0.16009711506E+02 -0.90576373356E+02  0.11622540294E+03  0.14821853650E+03  0.00000000000E+00 0. -1.
          4    1    6    6  503    0 -0.17218538365E+03  0.94861028757E+02  0.33456375588E+02  0.19941351556E+03  0.00000000000E+00 0. -1.
         -4    1    6    6    0  503 -0.16167616140E+03 -0.28681068116E+01  0.17162490199E+02  0.16260983449E+03  0.00000000000E+00 0.  1.
<mgrwt>
<rscale>  0 0.18763329E+04</rscale>
<asrwt>0</asrwt>
<pdfrwt beam="1">  1        2 0.61635882E+00 0.18763329E+04</pdfrwt>
<pdfrwt beam="2">  1       -1 0.33798659E-01 0.18763329E+04</pdfrwt>
<totfact> 0.30223127E+00</totfact>
</mgrwt>
</event>
<event>
12    6  0.1457317E-007  0.1801305E+04  0.7818608E-02  0.8705606E-01
          4   -1    0    0  501    0  0.00000000000E+00  0.00000000000E+00  0.82755308528E+03  0.82755308528E+03  0.00000000000E+00 0. -1.
         -3   -1    0    0    0  501 -0.00000000000E+00 -0.00000000000E+00 -0.98020864718E+03  0.98020864718E+03  0.00000000000E+00 0.  1.
         24    2    1    2    0    0  0.82585792740E+02  0.81466677558E+02 -0.70804081774E+03  0.72210280620E+03  0.81568562743E+02 0.  0.
        254    2    1    2    0    0 -0.82585792740E+02 -0.81466677558E+02  0.55538525585E+03  0.10856589263E+04  0.92560536355E+03 0.  0.
         23    2    4    4    0    0  0.14083154210E+03 -0.21209042113E+03 -0.16271326141E+03  0.31631640361E+03  0.93619398474E+02 0.  0.
         23    2    4    4    0    0 -0.22341733484E+03  0.13062374357E+03  0.71809851726E+03  0.76934252265E+03  0.96148680581E+02 0.  0.
          4    1    3    3  502    0  0.25506491720E+02 -0.14242502282E+02 -0.11287001544E+03  0.11658932360E+03  0.00000000000E+00 0. -1.
         -3    1    3    3    0  502  0.57079301019E+02  0.95709179840E+02 -0.59517080230E+03  0.60551348261E+03  0.00000000000E+00 0.  1.
         11    1    5    5    0    0  0.76122552683E+02 -0.12951734715E+03 -0.14709456478E+03  0.21025269850E+03  0.00000000000E+00 0. -1.
        -11    1    5    5    0    0  0.64708989414E+02 -0.82573073977E+02 -0.15618696633E+02  0.10606370511E+03  0.00000000000E+00 0.  1.
          3    1    6    6  503    0 -0.19732337613E+03  0.84486948013E+02  0.63932182832E+03  0.67439377171E+03  0.00000000000E+00 0. -1.
         -3    1    6    6    0  503 -0.26093958706E+02  0.46136795555E+02  0.78776688936E+02  0.94948750938E+02  0.00000000000E+00 0.  1.
<mgrwt>
<rscale>  0 0.18013047E+04</rscale>
<asrwt>0</asrwt>
<pdfrwt beam="1">  1        4 0.12731586E+00 0.18013047E+04</pdfrwt>
<pdfrwt beam="2">  1       -3 0.15080133E+00 0.18013047E+04</pdfrwt>
<totfact> 0.31326298E-01</totfact>
</mgrwt>
</event>
<event>
12    6  0.1457317E-007  0.1554834E+04  0.7818608E-02  0.8848786E-01
         -1   -1    0    0    0  501 -0.00000000000E+00  0.00000000000E+00  0.90296355257E+03  0.90296355257E+03  0.00000000000E+00 0.  1.
          2   -1    0    0  501    0  0.00000000000E+00 -0.00000000000E+00 -0.66932638712E+03  0.66932638712E+03  0.00000000000E+00 0. -1.
         24    2    1    2    0    0  0.36464615272E+03  0.32999287791E+03 -0.77874798549E+02  0.50416370578E+03  0.79085029000E+02 0.  0.
        254    2    1    2    0    0 -0.36464615272E+03 -0.32999287791E+03  0.31151196401E+03  0.10681262339E+04  0.89553996654E+03 0.  0.
         23    2    4    4    0    0  0.91334810056E+02  0.80615708612E+02  0.41330254717E+03  0.44057522646E+03  0.91905357127E+02 0.  0.
         23    2    4    4    0    0 -0.45598096278E+03 -0.41060858652E+03 -0.10179058316E+03  0.62755100745E+03  0.83312030277E+02 0.  0.
          2    1    3    3  502    0  0.30043540031E+03  0.29876883268E+03 -0.46749126336E+02  0.42627423797E+03  0.00000000000E+00 0. -1.
         -1    1    3    3    0  502  0.64210752413E+02  0.31224045231E+02 -0.31125672213E+02  0.77889467817E+02  0.00000000000E+00 0.  1.
         11    1    5    5    0    0  0.53555711395E+01 -0.18081665826E+02  0.28999212390E+02  0.34591662297E+02  0.00000000000E+00 0. -1.
        -11    1    5    5    0    0  0.85979238917E+02  0.98697374438E+02  0.38430333478E+03  0.40598356416E+03  0.00000000000E+00 0.  1.
          4    1    6    6  503    0 -0.17577761417E+03 -0.18159846840E+03 -0.43302994071E+01  0.25277366331E+03  0.00000000000E+00 0. -1.
         -4    1    6    6    0  503 -0.28020334861E+03 -0.22901011812E+03 -0.97460283755E+02  0.37477734414E+03  0.00000000000E+00 0.  1.
<mgrwt>
<rscale>  0 0.15548342E+04</rscale>
<asrwt>0</asrwt>
<pdfrwt beam="1">  1        2 0.10297329E+00 0.15548342E+04</pdfrwt>
<pdfrwt beam="2">  1       -1 0.13891747E+00 0.15548342E+04</pdfrwt>
<totfact> 0.20385138E+01</totfact>
</mgrwt>
</event>
<event>
12    6  0.1854040E-007  0.1761306E+04  0.7818608E-02  0.8727152E-01
         -1   -1    0    0    0  501 -0.00000000000E+00  0.00000000000E+00  0.75692223388E+03  0.75692223388E+03  0.00000000000E+00 0.  1.
          2   -1    0    0  501    0  0.00000000000E+00 -0.00000000000E+00 -0.10246094007E+04  0.10246094007E+04  0.00000000000E+00 0. -1.
         24    2    1    2    0    0  0.10571136201E+03 -0.52056179718E+03 -0.46427726481E+03  0.70999641096E+03  0.79887722544E+02 0.  0.
        254    2    1    2    0    0 -0.10571136201E+03  0.52056179718E+03  0.19659009796E+03  0.10715352236E+04  0.90960463507E+03 0.  0.
         23    2    4    4    0    0 -0.14873184414E+03  0.75046579815E+03  0.25914916560E+03  0.81266123324E+03  0.89106196874E+02 0.  0.
         23    2    4    4    0    0  0.43020482130E+02 -0.22990400097E+03 -0.62559067638E+02  0.25887399040E+03  0.91626930622E+02 0.  0.
          2    1    3    3  502    0  0.89700592051E+02 -0.42430893362E+03 -0.33487277438E+03  0.54792704112E+03  0.00000000000E+00 0. -1.
         -1    1    3    3    0  502  0.16010769961E+02 -0.96252863560E+02 -0.12940449043E+03  0.16206936984E+03  0.00000000000E+00 0.  1.
         11    1    5    5    0    0  0.12224361450E+01 -0.22103229260E+01 -0.25558478154E+00  0.25387400707E+01  0.00000000000E+00 0. -1.
        -11    1    5    5    0    0 -0.14995428029E+03  0.75267612108E+03  0.25940475038E+03  0.81012249317E+03  0.00000000000E+00 0.  1.
          3    1    6    6  503    0  0.30737111478E+02 -0.19225244303E+02  0.64855219490E+01  0.36829906808E+02  0.00000000000E+00 0. -1.
         -3    1    6    6    0  503  0.12283370653E+02 -0.21067875667E+03 -0.69044589587E+02  0.22204408359E+03  0.00000000000E+00 0.  1.
<mgrwt>
<rscale>  0 0.17613059E+04</rscale>
<asrwt>0</asrwt>
<pdfrwt beam="1">  1        2 0.15763222E+00 0.17613059E+04</pdfrwt>
<pdfrwt beam="2">  1       -1 0.11644957E+00 0.17613059E+04</pdfrwt>
<totfact> 0.17480078E+01</totfact>
</mgrwt>
</event>
<event>
12    6  0.1457317E-007  0.2589507E+04  0.7818608E-02  0.8371774E-01
         -1   -1    0    0    0  501 -0.00000000000E+00  0.00000000000E+00  0.15429596368E+04  0.15429596368E+04  0.00000000000E+00 0.  1.
          2   -1    0    0  501    0  0.00000000000E+00 -0.00000000000E+00 -0.10864747732E+04  0.10864747732E+04  0.00000000000E+00 0. -1.
         24    2    1    2    0    0  0.55176372291E+03  0.32347453299E+03  0.11167003785E+04  0.12895417190E+04  0.82578025627E+02 0.  0.
        254    2    1    2    0    0 -0.55176372291E+03 -0.32347453299E+03 -0.66021551481E+03  0.13398926911E+04  0.97485840929E+03 0.  0.
         23    2    4    4    0    0 -0.69123792858E+03 -0.53776996139E+03 -0.41702303842E+03  0.97492178813E+03  0.97764375470E+02 0.  0.
         23    2    4    4    0    0  0.13947420567E+03  0.21429542840E+03 -0.24319247639E+03  0.36497090294E+03  0.93196538228E+02 0.  0.
          4    1    3    3  502    0  0.11193192021E+03  0.48822188178E+02  0.27563078488E+03  0.30147087819E+03  0.00000000000E+00 0. -1.
         -3    1    3    3    0  502  0.43983180270E+03  0.27465234481E+03  0.84106959357E+03  0.98807084079E+03  0.00000000000E+00 0.  1.
         11    1    5    5    0    0 -0.66650468753E+03 -0.49943654171E+03 -0.41147529798E+03  0.92896570365E+03  0.00000000000E+00 0. -1.
        -11    1    5    5    0    0 -0.24733241051E+02 -0.38333419677E+02 -0.55477404343E+01  0.45956084482E+02  0.00000000000E+00 0.  1.
          2    1    6    6  503    0  0.73887680077E+02  0.12270643492E+03 -0.72713112576E+02  0.16063453918E+03  0.00000000000E+00 0. -1.
         -2    1    6    6    0  503  0.65586525594E+02  0.91588993481E+02 -0.17047936382E+03  0.20433636376E+03  0.00000000000E+00 0.  1.
<mgrwt>
<rscale>  0 0.25895071E+04</rscale>
<asrwt>0</asrwt>
<pdfrwt beam="1">  1        2 0.16714997E+00 0.25895071E+04</pdfrwt>
<pdfrwt beam="2">  1       -1 0.23737841E+00 0.25895071E+04</pdfrwt>
<totfact> 0.18907188E+00</totfact>
</mgrwt>
</event>
<event>
12    6  0.1457317E-007  0.1166873E+04  0.7818608E-02  0.9142357E-01
         -1   -1    0    0    0  501 -0.00000000000E+00  0.00000000000E+00  0.36107701893E+03  0.36107701893E+03  0.00000000000E+00 0.  1.
          2   -1    0    0  501    0  0.00000000000E+00 -0.00000000000E+00 -0.94273014975E+03  0.94273014975E+03  0.00000000000E+00 0. -1.
         24    2    1    2    0    0 -0.77512041231E+02 -0.11021532410E+03  0.22459788202E+02  0.15657807595E+03  0.76529194287E+02 0.  0.
        254    2    1    2    0    0  0.77512041231E+02  0.11021532410E+03 -0.60411291902E+03  0.11472290927E+04  0.96593304017E+03 0.  0.
         23    2    4    4    0    0 -0.37507385680E+03 -0.18353174881E+03 -0.27317912077E+03  0.50762945938E+03  0.93255215032E+02 0.  0.
         23    2    4    4    0    0  0.45258589803E+03  0.29374707292E+03 -0.33093379825E+03  0.63959963335E+03  0.91919389785E+02 0.  0.
          4    1    3    3  502    0  0.63928001693E+01 -0.13770139021E+02  0.24389812905E+02  0.28728863469E+02  0.00000000000E+00 0. -1.
         -3    1    3    3    0  502 -0.83904841401E+02 -0.96445185082E+02 -0.19300247031E+01  0.12784921248E+03  0.00000000000E+00 0.  1.
         11    1    5    5    0    0 -0.14867671665E+03 -0.23307204619E+02 -0.94871650577E+02  0.17790059568E+03  0.00000000000E+00 0. -1.
        -11    1    5    5    0    0 -0.22639714015E+03 -0.16022454419E+03 -0.17830747019E+03  0.32972886370E+03  0.00000000000E+00 0.  1.
          3    1    6    6  503    0  0.71337278716E+02  0.32462147758E+02 -0.86598604155E+02  0.11679947180E+03  0.00000000000E+00 0. -1.
         -3    1    6    6    0  503  0.38124861931E+03  0.26128492516E+03 -0.24433519409E+03  0.52280016155E+03  0.00000000000E+00 0.  1.
<mgrwt>
<rscale>  0 0.11668731E+04</rscale>
<asrwt>0</asrwt>
<pdfrwt beam="1">  1        2 0.14503541E+00 0.11668731E+04</pdfrwt>
<pdfrwt beam="2">  1       -1 0.55550311E-01 0.11668731E+04</pdfrwt>
<totfact> 0.10147563E+02</totfact>
</mgrwt>
</event>
<event>
12    6  0.1457317E-007  0.1554727E+04  0.7818608E-02  0.8848854E-01
          4   -1    0    0  501    0  0.00000000000E+00  0.00000000000E+00  0.68850250057E+03  0.68850250057E+03  0.00000000000E+00 0. -1.
         -3   -1    0    0    0  501 -0.00000000000E+00 -0.00000000000E+00 -0.87769362421E+03  0.87769362421E+03  0.00000000000E+00 0.  1.
         24    2    1    2    0    0 -0.24959867323E+03  0.16505889860E+03  0.35396826976E+03  0.47040172500E+03  0.80251537066E+02 0.  0.
        254    2    1    2    0    0  0.24959867323E+03 -0.16505889860E+03 -0.54315939340E+03  0.10957943998E+04  0.90343749218E+03 0.  0.
         23    2    4    4    0    0  0.31562110726E+03 -0.53865908582E+02 -0.75882535495E+03  0.82852345680E+03  0.90094282277E+02 0.  0.
         23    2    4    4    0    0 -0.66022434033E+02 -0.11119299002E+03  0.21566596154E+03  0.26727094299E+03  0.90548921424E+02 0.  0.
          4    1    3    3  502    0 -0.18459353262E+03  0.13392064057E+03  0.21290466184E+03  0.31199023269E+03  0.00000000000E+00 0. -1.
         -3    1    3    3    0  502 -0.65005140603E+02  0.31138258032E+02  0.14106360792E+03  0.15841149232E+03  0.00000000000E+00 0.  1.
         11    1    5    5    0    0  0.24338803455E+03 -0.62198721966E+02 -0.49828776250E+03  0.55802966824E+03  0.00000000000E+00 0.  1.
        -11    1    5    5    0    0  0.72233072713E+02  0.83328133842E+01 -0.26053759245E+03  0.27049378856E+03  0.00000000000E+00 0. -1.
          3    1    6    6  503    0 -0.70707780973E+02 -0.95661203187E+02  0.22032921356E+03  0.25039093121E+03  0.00000000000E+00 0. -1.
         -3    1    6    6    0  503  0.46853469398E+01 -0.15531786833E+02 -0.46632520153E+01  0.16880011775E+02  0.00000000000E+00 0.  1.
<mgrwt>
<rscale>  0 0.15547273E+04</rscale>
<asrwt>0</asrwt>
<pdfrwt beam="1">  1        4 0.10592346E+00 0.15547273E+04</pdfrwt>
<pdfrwt beam="2">  1       -3 0.13502979E+00 0.15547273E+04</pdfrwt>
<totfact> 0.66798826E-01</totfact>
</mgrwt>
</event>
<event>
12    6  0.1457317E-007  0.2429528E+04  0.7818608E-02  0.8428531E-01
         -1   -1    0    0    0  501 -0.00000000000E+00  0.00000000000E+00  0.63310147519E+03  0.63310147519E+03  0.00000000000E+00 0.  1.
          2   -1    0    0  501    0  0.00000000000E+00 -0.00000000000E+00 -0.23308286293E+04  0.23308286293E+04  0.00000000000E+00 0. -1.
         24    2    1    2    0    0 -0.70314504157E+03 -0.71636070790E+03 -0.37096990227E+03  0.10731280758E+04  0.79997408356E+02 0.  0.
        254    2    1    2    0    0  0.70314504157E+03  0.71636070790E+03 -0.13267572519E+04  0.18908020287E+04  0.89847754183E+03 0.  0.
         23    2    4    4    0    0  0.30651618320E+03 -0.10198385806E+03 -0.71467027748E+03  0.79078778559E+03  0.10118714577E+03 0.  0.
         23    2    4    4    0    0  0.39662885837E+03  0.81834456596E+03 -0.61208697439E+03  0.11000142431E+04  0.91534643512E+02 0.  0.
          2    1    3    3  502    0 -0.26751394311E+03 -0.26405767462E+03 -0.17997330988E+03  0.41674999407E+03  0.00000000000E+00 0. -1.
         -1    1    3    3    0  502 -0.43563109846E+03 -0.45230303328E+03 -0.19099659239E+03  0.65637808172E+03  0.00000000000E+00 0.  1.
         11    1    5    5    0    0  0.64551877235E+02  0.17333152544E+02 -0.17771263937E+03  0.18986617715E+03  0.00000000000E+00 0. -1.
        -11    1    5    5    0    0  0.24196430596E+03 -0.11931701060E+03 -0.53695763810E+03  0.60092160845E+03  0.00000000000E+00 0.  1.
          3    1    6    6  503    0  0.79284814404E+02  0.22502725424E+03 -0.12490168371E+03  0.26930239052E+03  0.00000000000E+00 0. -1.
         -3    1    6    6    0  503  0.31734404397E+03  0.59331731171E+03 -0.48718529068E+03  0.83071185261E+03  0.00000000000E+00 0.  1.
<mgrwt>
<rscale>  0 0.24295276E+04</rscale>
<asrwt>0</asrwt>
<pdfrwt beam="1">  1        2 0.35858903E+00 0.24295276E+04</pdfrwt>
<pdfrwt beam="2">  1       -1 0.97400224E-01 0.24295276E+04</pdfrwt>
<totfact> 0.44965086E+00</totfact>
</mgrwt>
</event>
<event>
12    6  0.1457317E-007  0.1346230E+04  0.7818608E-02  0.8993687E-01
         -1   -1    0    0    0  501 -0.00000000000E+00  0.00000000000E+00  0.54118713065E+03  0.54118713065E+03  0.00000000000E+00 0.  1.
          2   -1    0    0  501    0  0.00000000000E+00 -0.00000000000E+00 -0.83720313782E+03  0.83720313782E+03  0.00000000000E+00 0. -1.
         24    2    1    2    0    0  0.19127125646E+03  0.19955791894E+03 -0.30842997102E+03  0.42294245820E+03  0.85692586421E+02 0.  0.
        254    2    1    2    0    0 -0.19127125646E+03 -0.19955791894E+03  0.12413963849E+02  0.95544781027E+03  0.91450443142E+03 0.  0.
         23    2    4    4    0    0  0.26975147904E+03 -0.35111350351E+03  0.71534876204E+02  0.45794134723E+03  0.92447207624E+02 0.  0.
         23    2    4    4    0    0 -0.46102273550E+03  0.15155558457E+03 -0.59120912355E+02  0.49750646304E+03  0.92229825069E+02 0.  0.
          2    1    3    3  502    0  0.79549817549E+02  0.91326462934E+02 -0.19827136712E+03  0.23233646146E+03  0.00000000000E+00 0. -1.
         -1    1    3    3    0  502  0.11172143891E+03  0.10823145600E+03 -0.11015860390E+03  0.19060599674E+03  0.00000000000E+00 0.  1.
         11    1    5    5    0    0  0.17157918175E+02 -0.40690405005E+01 -0.11082125513E+02  0.20827019772E+02  0.00000000000E+00 0. -1.
        -11    1    5    5    0    0  0.25259356086E+03 -0.34704446301E+03  0.82617001717E+02  0.43711432745E+03  0.00000000000E+00 0.  1.
          1    1    6    6  503    0 -0.49773615577E+02 -0.11638281373E+02  0.91817518705E-01  0.51116248213E+02  0.00000000000E+00 0. -1.
         -1    1    6    6    0  503 -0.41124911992E+03  0.16319386594E+03 -0.59212729874E+02  0.44639021483E+03  0.00000000000E+00 0.  1.
<mgrwt>
<rscale>  0 0.13462296E+04</rscale>
<asrwt>0</asrwt>
<pdfrwt beam="1">  1        2 0.12880048E+00 0.13462296E+04</pdfrwt>
<pdfrwt beam="2">  1       -1 0.83259559E-01 0.13462296E+04</pdfrwt>
<totfact> 0.51763902E+01</totfact>
</mgrwt>
</event>
<event>
12    6  0.1457317E-007  0.1374204E+04  0.7818608E-02  0.8972706E-01
          2   -1    0    0  501    0  0.00000000000E+00  0.00000000000E+00  0.85523289317E+03  0.85523289317E+03  0.00000000000E+00 0. -1.
         -1   -1    0    0    0  501 -0.00000000000E+00 -0.00000000000E+00 -0.55202414961E+03  0.55202414961E+03  0.00000000000E+00 0.  1.
         24    2    1    2    0    0 -0.68647020175E+02  0.18314129404E+03  0.42763104039E+03  0.47673691604E+03  0.78464217636E+02 0.  0.
        254    2    1    2    0    0  0.68647020175E+02 -0.18314129404E+03 -0.12442229683E+03  0.93052012674E+03  0.90118458230E+03 0.  0.
         23    2    4    4    0    0 -0.10398487850E+03 -0.18045657927E+03  0.34935348063E+03  0.41778678593E+03  0.95501372333E+02 0.  0.
         23    2    4    4    0    0  0.17263189868E+03 -0.26847147636E+01 -0.47377577746E+03  0.51273334081E+03  0.92860170907E+02 0.  0.
          4    1    3    3  502    0 -0.46354835073E+02  0.15533421303E+03  0.26829786796E+03  0.31346648054E+03  0.00000000000E+00 0. -1.
         -3    1    3    3    0  502 -0.22292185102E+02  0.27807081009E+02  0.15933317243E+03  0.16327043550E+03  0.00000000000E+00 0.  1.
         11    1    5    5    0    0  0.10393984974E+02 -0.27095860517E+02  0.15249793872E+02  0.32783788584E+02  0.00000000000E+00 0. -1.
        -11    1    5    5    0    0 -0.11437886347E+03 -0.15336071875E+03  0.33410368675E+03  0.38500299735E+03  0.00000000000E+00 0.  1.
          4    1    6    6  503    0  0.64550636908E+01  0.16826204331E+02 -0.12188623441E+02  0.21756643602E+02  0.00000000000E+00 0. -1.
         -4    1    6    6    0  503  0.16617683498E+03 -0.19510919095E+02 -0.46158715402E+03  0.49097669721E+03  0.00000000000E+00 0.  1.
<mgrwt>
<rscale>  0 0.13742041E+04</rscale>
<asrwt>0</asrwt>
<pdfrwt beam="1">  1        2 0.13157429E+00 0.13742041E+04</pdfrwt>
<pdfrwt beam="2">  1       -1 0.84926792E-01 0.13742041E+04</pdfrwt>
<totfact> 0.48068559E+01</totfact>
</mgrwt>
</event>
<event>
12    6  0.1457317E-007  0.1105408E+04  0.7818608E-02  0.9199936E-01
         -1   -1    0    0    0  501 -0.00000000000E+00  0.00000000000E+00  0.27206949179E+03  0.27206949179E+03  0.00000000000E+00 0.  1.
          2   -1    0    0  501    0  0.00000000000E+00 -0.00000000000E+00 -0.11228086693E+04  0.11228086693E+04  0.00000000000E+00 0. -1.
         24    2    1    2    0    0  0.14861925895E+03  0.51877808526E+02 -0.19510022507E+03  0.26333246509E+03  0.80628147681E+02 0.  0.
        254    2    1    2    0    0 -0.14861925895E+03 -0.51877808526E+02 -0.65563895244E+03  0.11315456960E+04  0.90871020411E+03 0.  0.
         23    2    4    4    0    0  0.43435369449E+02 -0.45452988867E+03 -0.37803567586E+03  0.59818723725E+03  0.80205658012E+02 0.  0.
         23    2    4    4    0    0 -0.19205462840E+03  0.40265208015E+03 -0.27760327659E+03  0.53335845876E+03  0.91618712165E+02 0.  0.
          2    1    3    3  502    0  0.86111368119E+02  0.14895210723E+02 -0.49035903217E+02  0.10020755873E+03  0.00000000000E+00 0. -1.
         -1    1    3    3    0  502  0.62507890829E+02  0.36982597803E+02 -0.14606432186E+03  0.16312490636E+03  0.00000000000E+00 0.  1.
         11    1    5    5    0    0  0.32518417573E+02 -0.11749048756E+03 -0.13876196925E+03  0.18470610780E+03  0.00000000000E+00 0. -1.
        -11    1    5    5    0    0  0.10916951877E+02 -0.33703940112E+03 -0.23927370661E+03  0.41348112946E+03  0.00000000000E+00 0.  1.
          1    1    6    6  503    0 -0.14989480078E+03  0.24134565677E+03 -0.21070443958E+03  0.35371250784E+03  0.00000000000E+00 0. -1.
         -1    1    6    6    0  503 -0.42159827612E+02  0.16130642338E+03 -0.66898837007E+02  0.17964595092E+03  0.00000000000E+00 0.  1.
<mgrwt>
<rscale>  0 0.11054085E+04</rscale>
<asrwt>0</asrwt>
<pdfrwt beam="1">  1        2 0.17273980E+00 0.11054085E+04</pdfrwt>
<pdfrwt beam="2">  1       -1 0.41856845E-01 0.11054085E+04</pdfrwt>
<totfact> 0.13363816E+02</totfact>
</mgrwt>
</event>
<event>
12    6  0.1457317E-007  0.1134479E+04  0.7818608E-02  0.9172223E-01
          2   -1    0    0  501    0  0.00000000000E+00  0.00000000000E+00  0.59051876854E+03  0.59051876854E+03  0.00000000000E+00 0. -1.
         -1   -1    0    0    0  501 -0.00000000000E+00 -0.00000000000E+00 -0.54487812666E+03  0.54487812666E+03  0.00000000000E+00 0.  1.
         24    2    1    2    0    0  0.65784680591E+02  0.38899641294E+02 -0.17694210897E+03  0.21015797560E+03  0.83767884586E+02 0.  0.
        254    2    1    2    0    0 -0.65784680591E+02 -0.38899641294E+02  0.22258275085E+03  0.92523891960E+03  0.89480901374E+03 0.  0.
         23    2    4    4    0    0 -0.23669936546E+03  0.26880126389E+03 -0.15498511663E+03  0.40058913273E+03  0.90391137871E+02 0.  0.
         23    2    4    4    0    0  0.17091468487E+03 -0.30770090518E+03  0.37756786749E+03  0.52464978686E+03  0.93852158958E+02 0.  0.
          4    1    3    3  502    0 -0.13391375810E+02  0.10022464876E+02 -0.31659304764E+01  0.17023567901E+02  0.00000000000E+00 0. -1.
         -3    1    3    3    0  502  0.79176056401E+02  0.28877176418E+02 -0.17377617850E+03  0.19313440770E+03  0.00000000000E+00 0.  1.
         11    1    5    5    0    0 -0.19199148432E+03  0.15388433234E+03 -0.10583043609E+03  0.26784547597E+03  0.00000000000E+00 0.  1.
        -11    1    5    5    0    0 -0.44707881143E+02  0.11491693155E+03 -0.49154680542E+02  0.13274365677E+03  0.00000000000E+00 0. -1.
          4    1    6    6  503    0  0.14237996136E+03 -0.19113332291E+03  0.20450465536E+03  0.31404801319E+03  0.00000000000E+00 0.  1.
         -4    1    6    6    0  503  0.28534723509E+02 -0.11656758228E+03  0.17306321213E+03  0.21060177367E+03  0.00000000000E+00 0. -1.
<mgrwt>
<rscale>  0 0.11344792E+04</rscale>
<asrwt>0</asrwt>
<pdfrwt beam="1">  1        2 0.90849042E-01 0.11344792E+04</pdfrwt>
<pdfrwt beam="2">  1       -1 0.83827403E-01 0.11344792E+04</pdfrwt>
<totfact> 0.80829005E+01</totfact>
</mgrwt>
</event>
<event>
12    6  0.1457317E-007  0.2666938E+04  0.7818608E-02  0.8345813E-01
         -1   -1    0    0    0  501 -0.00000000000E+00  0.00000000000E+00  0.36654073989E+03  0.36654073989E+03  0.00000000000E+00 0.  1.
          2   -1    0    0  501    0  0.00000000000E+00 -0.00000000000E+00 -0.48511388362E+04  0.48511388362E+04  0.00000000000E+00 0. -1.
         24    2    1    2    0    0  0.24558480809E+03  0.11510644289E+04 -0.23431263999E+04  0.26234891157E+04  0.84809178449E+02 0.  0.
        254    2    1    2    0    0 -0.24558480809E+03 -0.11510644289E+04 -0.21414716964E+04  0.25941904604E+04  0.87101199821E+03 0.  0.
         23    2    4    4    0    0  0.22044372574E+03 -0.70886518146E+03 -0.75181102478E+03  0.10605025692E+04  0.91436320107E+02 0.  0.
         23    2    4    4    0    0 -0.46602853382E+03 -0.44219924743E+03 -0.13896606716E+04  0.15336878912E+04  0.91208533606E+02 0.  0.
          4    1    3    3  502    0  0.24340343063E+03  0.10812427935E+04 -0.22359556551E+04  0.24955618406E+04  0.00000000000E+00 0. -1.
         -3    1    3    3    0  502  0.21813774571E+01  0.69821635365E+02 -0.10717074482E+03  0.12792727511E+03  0.00000000000E+00 0.  1.
         11    1    5    5    0    0  0.37723978579E+02 -0.14024575078E+03 -0.20141271038E+03  0.24831240217E+03  0.00000000000E+00 0. -1.
        -11    1    5    5    0    0  0.18271974716E+03 -0.56861943067E+03 -0.55039831441E+03  0.81219016704E+03  0.00000000000E+00 0.  1.
          4    1    6    6  503    0 -0.13675462763E+03 -0.80089935831E+02 -0.37689936134E+03  0.40886349137E+03  0.00000000000E+00 0. -1.
         -4    1    6    6    0  503 -0.32927390619E+03 -0.36210931160E+03 -0.10127613103E+04  0.11248243998E+04  0.00000000000E+00 0.  1.
<mgrwt>
<rscale>  0 0.26669383E+04</rscale>
<asrwt>0</asrwt>
<pdfrwt beam="1">  1        2 0.74632904E+00 0.26669383E+04</pdfrwt>
<pdfrwt beam="2">  1       -1 0.56390884E-01 0.26669383E+04</pdfrwt>
<totfact> 0.16634353E-01</totfact>
</mgrwt>
</event>
<event>
12    6  0.1457317E-007  0.3265584E+04  0.7818608E-02  0.8171708E-01
         -1   -1    0    0    0  501 -0.00000000000E+00  0.00000000000E+00  0.12297151287E+04  0.12297151287E+04  0.00000000000E+00 0.  1.
          2   -1    0    0  501    0  0.00000000000E+00 -0.00000000000E+00 -0.21679895214E+04  0.21679895214E+04  0.00000000000E+00 0. -1.
         24    2    1    2    0    0 -0.63683047801E+03  0.50386703214E+03 -0.17579855230E+04  0.19380392025E+04  0.77767650772E+02 0.  0.
        254    2    1    2    0    0  0.63683047801E+03 -0.50386703214E+03  0.81971113030E+03  0.14596654476E+04  0.89401445064E+03 0.  0.
         23    2    4    4    0    0 -0.20405537697E+02  0.20827987966E+03  0.21356561006E+03  0.31308827083E+03  0.92828343143E+02 0.  0.
         23    2    4    4    0    0  0.65723601571E+03 -0.71214691180E+03  0.60614552024E+03  0.11465771768E+04  0.90080110100E+02 0.  0.
          4    1    3    3  502    0 -0.47423273810E+03  0.33401736948E+03 -0.12836080174E+04  0.14085857572E+04  0.00000000000E+00 0. -1.
         -3    1    3    3    0  502 -0.16259773991E+03  0.16984966267E+03 -0.47437750566E+03  0.52945344537E+03  0.00000000000E+00 0.  1.
         11    1    5    5    0    0  0.21274738745E+02  0.13523007304E+03  0.17032740261E+03  0.21852050531E+03  0.00000000000E+00 0.  1.
        -11    1    5    5    0    0 -0.41680276441E+02  0.73049806618E+02  0.43238207458E+02  0.94567765520E+02  0.00000000000E+00 0. -1.
          1    1    6    6  503    0  0.54440535921E+03 -0.53597524991E+03  0.48192335119E+03  0.90327004826E+03  0.00000000000E+00 0. -1.
         -1    1    6    6    0  503  0.11283065650E+03 -0.17617166189E+03  0.12422216905E+03  0.24330712851E+03  0.00000000000E+00 0.  1.
<mgrwt>
<rscale>  0 0.32655839E+04</rscale>
<asrwt>0</asrwt>
<pdfrwt beam="1">  1        2 0.33353684E+00 0.32655839E+04</pdfrwt>
<pdfrwt beam="2">  1       -1 0.18918695E+00 0.32655839E+04</pdfrwt>
<totfact> 0.91773155E-01</totfact>
</mgrwt>
</event>
<event>
12    6  0.1457317E-007  0.3519753E+04  0.7818608E-02  0.8109125E-01
         -1   -1    0    0    0  501 -0.00000000000E+00  0.00000000000E+00  0.10663350553E+04  0.10663350553E+04  0.00000000000E+00 0.  1.
          2   -1    0    0  501    0  0.00000000000E+00 -0.00000000000E+00 -0.29044959491E+04  0.29044959491E+04  0.00000000000E+00 0. -1.
         24    2    1    2    0    0  0.15257198189E+04 -0.57744962727E+03 -0.10884805440E+04  0.19626301661E+04  0.76539118807E+02 0.  0.
        254    2    1    2    0    0 -0.15257198189E+04  0.57744962727E+03 -0.74968034985E+03  0.20082008382E+04  0.89976715994E+03 0.  0.
         23    2    4    4    0    0 -0.56724142847E+03 -0.28281045702E+02 -0.64762859058E+03  0.86618260414E+03  0.91032173696E+02 0.  0.
         23    2    4    4    0    0 -0.95847839038E+03  0.60573067297E+03 -0.10205175927E+03  0.11420182341E+04  0.90557233117E+02 0.  0.
          2    1    3    3  502    0  0.77721802306E+03 -0.30888936331E+03 -0.60082423022E+03  0.10297913622E+04  0.00000000000E+00 0. -1.
         -1    1    3    3    0  502  0.74850179580E+03 -0.26856026396E+03 -0.48765631375E+03  0.93283880388E+03  0.00000000000E+00 0.  1.
         11    1    5    5    0    0 -0.10805164674E+03  0.29070599040E+02 -0.11155831538E+03  0.15800479684E+03  0.00000000000E+00 0.  1.
        -11    1    5    5    0    0 -0.45918978173E+03 -0.57351644742E+02 -0.53607027520E+03  0.70817780730E+03  0.00000000000E+00 0. -1.
          1    1    6    6  503    0 -0.77332846159E+03  0.48664531381E+03 -0.11802891626E+03  0.92129875504E+03  0.00000000000E+00 0. -1.
         -1    1    6    6    0  503 -0.18514992878E+03  0.11908535916E+03  0.15977156992E+02  0.22071947907E+03  0.00000000000E+00 0.  1.
<mgrwt>
<rscale>  0 0.35197533E+04</rscale>
<asrwt>0</asrwt>
<pdfrwt beam="1">  1        2 0.44684552E+00 0.35197533E+04</pdfrwt>
<pdfrwt beam="2">  1       -1 0.16405155E+00 0.35197533E+04</pdfrwt>
<totfact> 0.50638929E-01</totfact>
</mgrwt>
</event>
<event>
12    6  0.1457317E-007  0.2693867E+04  0.7818608E-02  0.8336998E-01
         -1   -1    0    0    0  501 -0.00000000000E+00  0.00000000000E+00  0.79555413643E+03  0.79555413643E+03  0.00000000000E+00 0.  1.
          2   -1    0    0  501    0  0.00000000000E+00 -0.00000000000E+00 -0.22804605895E+04  0.22804605895E+04  0.00000000000E+00 0. -1.
         24    2    1    2    0    0  0.10557410287E+04  0.44115685347E+03 -0.10516787140E+04  0.15561791313E+04  0.80354727219E+02 0.  0.
        254    2    1    2    0    0 -0.10557410287E+04 -0.44115685347E+03 -0.43322773904E+03  0.15198355946E+04  0.90166816061E+03 0.  0.
         23    2    4    4    0    0 -0.10593959333E+03 -0.36439859589E+03  0.12800554993E+03  0.41020689716E+03  0.88739751783E+02 0.  0.
         23    2    4    4    0    0 -0.94980143532E+03 -0.76758257580E+02 -0.56123328896E+03  0.11096286975E+04  0.90985960091E+02 0.  0.
          2    1    3    3  502    0  0.10218721608E+04  0.44069889802E+03 -0.10264043508E+04  0.15139168151E+04  0.00000000000E+00 0. -1.
         -1    1    3    3    0  502  0.33868867829E+02  0.45795544819E+00 -0.25274363249E+02  0.42262316179E+02  0.00000000000E+00 0.  1.
         11    1    5    5    0    0 -0.11527859297E+03 -0.35857824301E+03  0.13103159448E+03  0.39879416885E+03  0.00000000000E+00 0. -1.
        -11    1    5    5    0    0  0.93389996398E+01 -0.58203528809E+01 -0.30260445519E+01  0.11412728314E+02  0.00000000000E+00 0.  1.
          3    1    6    6  503    0 -0.51998667227E+03  0.26704370427E+01 -0.31457492506E+03  0.60774225956E+03  0.00000000000E+00 0. -1.
         -3    1    6    6    0  503 -0.42981476305E+03 -0.79428694623E+02 -0.24665836391E+03  0.50188643790E+03  0.00000000000E+00 0.  1.
<mgrwt>
<rscale>  0 0.26938670E+04</rscale>
<asrwt>0</asrwt>
<pdfrwt beam="1">  1        2 0.35084009E+00 0.26938670E+04</pdfrwt>
<pdfrwt beam="2">  1       -1 0.12239295E+00 0.26938670E+04</pdfrwt>
<totfact> 0.27371634E+00</totfact>
</mgrwt>
</event>
<event>
12    6  0.1457317E-007  0.3818617E+04  0.7818608E-02  0.8042172E-01
          2   -1    0    0  501    0  0.00000000000E+00  0.00000000000E+00  0.29260713778E+04  0.29260713778E+04  0.00000000000E+00 0. -1.
         -1   -1    0    0    0  501 -0.00000000000E+00 -0.00000000000E+00 -0.12458542818E+04  0.12458542818E+04  0.00000000000E+00 0.  1.
         24    2    1    2    0    0 -0.13906576982E+04 -0.37438782545E+03 -0.39569808962E+03  0.14956299491E+04  0.78973977332E+02 0.  0.
        254    2    1    2    0    0  0.13906576982E+04  0.37438782545E+03  0.20759151856E+04  0.26762957105E+04  0.88263231001E+03 0.  0.
         23    2    4    4    0    0  0.31864530564E+03  0.23632605658E+03  0.12452535120E+04  0.13101720830E+04  0.92248263703E+02 0.  0.
         23    2    4    4    0    0  0.10720123926E+04  0.13806176887E+03  0.83066167365E+03  0.13661236275E+04  0.89573029913E+02 0.  0.
          4    1    3    3  502    0 -0.71520274229E+01 -0.29649020775E+01  0.35803654376E+01  0.85300150793E+01  0.00000000000E+00 0. -1.
         -3    1    3    3    0  502 -0.13835056708E+04 -0.37142292337E+03 -0.39927845506E+03  0.14870999340E+04  0.00000000000E+00 0.  1.
         11    1    5    5    0    0  0.22737602381E+03  0.15925789182E+03  0.72375699337E+03  0.77516908978E+03  0.00000000000E+00 0. -1.
        -11    1    5    5    0    0  0.91269281827E+02  0.77068164757E+02  0.52149651863E+03  0.53500299323E+03  0.00000000000E+00 0.  1.
          1    1    6    6  503    0  0.97625387902E+03  0.14685236176E+03  0.77429996539E+03  0.12546623804E+04  0.00000000000E+00 0.  1.
         -1    1    6    6    0  503  0.95758513538E+02 -0.87905928916E+01  0.56361708265E+02  0.11146124706E+03  0.00000000000E+00 0. -1.
<mgrwt>
<rscale>  0 0.38186168E+04</rscale>
<asrwt>0</asrwt>
<pdfrwt beam="1">  1        2 0.45016483E+00 0.38186168E+04</pdfrwt>
<pdfrwt beam="2">  1       -1 0.19166989E+00 0.38186168E+04</pdfrwt>
<totfact> 0.30260276E-01</totfact>
</mgrwt>
</event>
<event>
12    6  0.1457317E-007  0.2400678E+04  0.7818608E-02  0.8439250E-01
         -1   -1    0    0    0  501 -0.00000000000E+00  0.00000000000E+00  0.89166275780E+03  0.89166275780E+03  0.00000000000E+00 0.  1.
          2   -1    0    0  501    0  0.00000000000E+00 -0.00000000000E+00 -0.16158731734E+04  0.16158731734E+04  0.00000000000E+00 0. -1.
         24    2    1    2    0    0  0.54064404344E+03 -0.78292568123E+03  0.90987459083E+02  0.95907179486E+03  0.79192082613E+02 0.  0.
        254    2    1    2    0    0 -0.54064404344E+03  0.78292568123E+03 -0.81519787473E+03  0.15484641364E+04  0.90990384253E+03 0.  0.
         23    2    4    4    0    0 -0.51560951693E+03  0.74525957055E+03 -0.21021953507E+03  0.93483687785E+03  0.91993118360E+02 0.  0.
         23    2    4    4    0    0 -0.25034526513E+02  0.37666110688E+02 -0.60497833966E+03  0.61362725853E+03  0.92163753950E+02 0.  0.
          4    1    3    3  502    0  0.24063677558E+03 -0.37462813139E+03  0.79354830374E+02  0.45227147124E+03  0.00000000000E+00 0. -1.
         -3    1    3    3    0  502  0.30000726787E+03 -0.40829754984E+03  0.11632628709E+02  0.50680032363E+03  0.00000000000E+00 0.  1.
         11    1    5    5    0    0 -0.31543809745E+03  0.37541377500E+03 -0.11531947219E+03  0.50372142743E+03  0.00000000000E+00 0.  1.
        -11    1    5    5    0    0 -0.20017141948E+03  0.36984579554E+03 -0.94900062886E+02  0.43111545042E+03  0.00000000000E+00 0. -1.
          2    1    6    6  503    0  0.23056501208E+01  0.64387286275E+02 -0.37691814573E+03  0.38238505101E+03  0.00000000000E+00 0.  1.
         -2    1    6    6    0  503 -0.27340176634E+02 -0.26721175587E+02 -0.22806019393E+03  0.23124220752E+03  0.00000000000E+00 0. -1.
<mgrwt>
<rscale>  0 0.24006782E+04</rscale>
<asrwt>0</asrwt>
<pdfrwt beam="1">  1        2 0.24859587E+00 0.24006782E+04</pdfrwt>
<pdfrwt beam="2">  1       -1 0.13717889E+00 0.24006782E+04</pdfrwt>
<totfact> 0.49454227E+00</totfact>
</mgrwt>
</event>
<event>
12    6  0.1457317E-007  0.1841916E+04  0.7818608E-02  0.8684321E-01
          2   -1    0    0  501    0  0.00000000000E+00  0.00000000000E+00  0.18218415037E+04  0.18218415037E+04  0.00000000000E+00 0. -1.
         -1   -1    0    0    0  501 -0.00000000000E+00 -0.00000000000E+00 -0.46555284514E+03  0.46555284514E+03  0.00000000000E+00 0.  1.
         24    2    1    2    0    0 -0.88003539575E+02  0.11475836463E+03 -0.33064454354E+03  0.36961502160E+03  0.79845756231E+02 0.  0.
        254    2    1    2    0    0  0.88003539575E+02 -0.11475836463E+03  0.16869332021E+04  0.19177793272E+04  0.90067741970E+03 0.  0.
         23    2    4    4    0    0  0.12850413794E+03  0.12730261835E+03  0.16390242186E+04  0.16515612978E+04  0.92385394503E+02 0.  0.
         23    2    4    4    0    0 -0.40500598366E+02 -0.24206098298E+03  0.47908983528E+02  0.26621802945E+03  0.91339753422E+02 0.  0.
          4    1    3    3  502    0  0.64844828650E+01 -0.45119661895E+01 -0.31638632684E+01  0.85097818834E+01  0.00000000000E+00 0. -1.
         -3    1    3    3    0  502 -0.94488022440E+02  0.11927033082E+03 -0.32748068028E+03  0.36110523972E+03  0.00000000000E+00 0.  1.
         11    1    5    5    0    0  0.14043989200E+02 -0.14053317481E+02  0.22765328829E+03  0.22851859669E+03  0.00000000000E+00 0. -1.
        -11    1    5    5    0    0  0.11446014874E+03  0.14135593583E+03  0.14113709303E+04  0.14230427011E+04  0.00000000000E+00 0.  1.
          3    1    6    6  503    0 -0.49914496720E+02 -0.12933543114E+03  0.62671559953E+02  0.15214083987E+03  0.00000000000E+00 0.  1.
         -3    1    6    6    0  503  0.94138983538E+01 -0.11272555184E+03 -0.14762576425E+02  0.11407718958E+03  0.00000000000E+00 0. -1.
<mgrwt>
<rscale>  0 0.18419158E+04</rscale>
<asrwt>0</asrwt>
<pdfrwt beam="1">  1        2 0.28028331E+00 0.18419158E+04</pdfrwt>
<pdfrwt beam="2">  1       -1 0.71623515E-01 0.18419158E+04</pdfrwt>
<totfact> 0.17694512E+01</totfact>
</mgrwt>
</event>
<event>
12    6  0.1457317E-007  0.1349736E+04  0.7818608E-02  0.8991028E-01
          2   -1    0    0  501    0  0.00000000000E+00  0.00000000000E+00  0.63062163564E+03  0.63062163564E+03  0.00000000000E+00 0. -1.
         -1   -1    0    0    0  501 -0.00000000000E+00 -0.00000000000E+00 -0.72221908741E+03  0.72221908741E+03  0.00000000000E+00 0.  1.
         24    2    1    2    0    0 -0.28798570206E+03  0.22538023987E+03 -0.16035930756E+02  0.38159816952E+03  0.10783318037E+03 0.  0.
        254    2    1    2    0    0  0.28798570206E+03 -0.22538023987E+03 -0.75561521008E+02  0.97124255354E+03  0.89658827632E+03 0.  0.
         23    2    4    4    0    0  0.21822593891E+03  0.91063799481E+02  0.34785320476E+03  0.43025542243E+03  0.90568761039E+02 0.  0.
         23    2    4    4    0    0  0.69759763143E+02 -0.31644403935E+03 -0.42341472577E+03  0.54098713111E+03  0.91563046221E+02 0.  0.
          4    1    3    3  502    0 -0.63944455621E+02  0.12016690803E+02  0.24595632699E+02  0.69557454024E+02  0.00000000000E+00 0. -1.
         -3    1    3    3    0  502 -0.22404124644E+03  0.21336354907E+03 -0.40631563456E+02  0.31204071549E+03  0.00000000000E+00 0.  1.
         11    1    5    5    0    0  0.16111425595E+02 -0.17484989975E+02  0.31113596431E+02  0.39158125491E+02  0.00000000000E+00 0. -1.
        -11    1    5    5    0    0  0.20211451332E+03  0.10854878946E+03  0.31673960833E+03  0.39109729694E+03  0.00000000000E+00 0.  1.
          1    1    6    6  503    0  0.52826828568E+02 -0.17214649174E+03 -0.16350488804E+03  0.24322610232E+03  0.00000000000E+00 0. -1.
         -1    1    6    6    0  503  0.16932934575E+02 -0.14429754761E+03 -0.25990983773E+03  0.29776102879E+03  0.00000000000E+00 0.  1.
<mgrwt>
<rscale>  0 0.13497362E+04</rscale>
<asrwt>0</asrwt>
<pdfrwt beam="1">  1        2 0.97018713E-01 0.13497362E+04</pdfrwt>
<pdfrwt beam="2">  1       -1 0.11111063E+00 0.13497362E+04</pdfrwt>
<totfact> 0.38836989E+01</totfact>
</mgrwt>
</event>
<event>
12    6  0.1457317E-007  0.1688487E+04  0.7818608E-02  0.8767958E-01
         -1   -1    0    0    0  501 -0.00000000000E+00  0.00000000000E+00  0.71591946258E+03  0.71591946258E+03  0.00000000000E+00 0.  1.
          2   -1    0    0  501    0  0.00000000000E+00 -0.00000000000E+00 -0.99556928169E+03  0.99556928169E+03  0.00000000000E+00 0. -1.
         24    2    1    2    0    0  0.67443449972E+02  0.55239543327E+03 -0.33795208046E+03  0.65573259143E+03  0.78001853342E+02 0.  0.
        254    2    1    2    0    0 -0.67443449972E+02 -0.55239543327E+03  0.58302261350E+02  0.10557561528E+04  0.89528351205E+03 0.  0.
         23    2    4    4    0    0 -0.26241403805E+03 -0.66334434757E+03  0.23522069705E+03  0.75671760734E+03  0.91683750560E+02 0.  0.
         23    2    4    4    0    0  0.19497058808E+03  0.11094891430E+03 -0.17691843570E+03  0.29903854551E+03  0.88321724438E+02 0.  0.
          4    1    3    3  502    0  0.20089050994E+02  0.42882063187E+03 -0.26745285449E+03  0.50578823005E+03  0.00000000000E+00 0. -1.
         -3    1    3    3    0  502  0.47354398978E+02  0.12357480140E+03 -0.70499225973E+02  0.14994436137E+03  0.00000000000E+00 0.  1.
         11    1    5    5    0    0 -0.88515670809E+02 -0.14354665119E+03  0.29147067772E+02  0.17114384771E+03  0.00000000000E+00 0.  1.
        -11    1    5    5    0    0 -0.17389836724E+03 -0.51979769638E+03  0.20607362928E+03  0.58557375964E+03  0.00000000000E+00 0. -1.
          3    1    6    6  503    0  0.32203216364E+02  0.68322968594E+01 -0.72006630018E+02  0.79175009890E+02  0.00000000000E+00 0. -1.
         -3    1    6    6    0  503  0.16276737172E+03  0.10411661744E+03 -0.10491180569E+03  0.21986353562E+03  0.00000000000E+00 0.  1.
<mgrwt>
<rscale>  0 0.16884874E+04</rscale>
<asrwt>0</asrwt>
<pdfrwt beam="1">  1        2 0.15316450E+00 0.16884874E+04</pdfrwt>
<pdfrwt beam="2">  1       -1 0.11014146E+00 0.16884874E+04</pdfrwt>
<totfact> 0.20966354E+01</totfact>
</mgrwt>
</event>
<event>
12    6  0.1457317E-007  0.2547916E+04  0.7818608E-02  0.8386111E-01
         -1   -1    0    0    0  501 -0.00000000000E+00  0.00000000000E+00  0.14313107542E+04  0.14313107542E+04  0.00000000000E+00 0.  1.
          2   -1    0    0  501    0  0.00000000000E+00 -0.00000000000E+00 -0.11339042668E+04  0.11339042668E+04  0.00000000000E+00 0. -1.
         24    2    1    2    0    0  0.62090251070E+03 -0.54895227622E+03 -0.61854497916E+03  0.10371159431E+04  0.78377668375E+02 0.  0.
        254    2    1    2    0    0 -0.62090251070E+03  0.54895227622E+03  0.91595146647E+03  0.15280990779E+04  0.89958388910E+03 0.  0.
         23    2    4    4    0    0 -0.15371214598E+03  0.67006392835E+03  0.72030134491E+03  0.99931059586E+03  0.84702701322E+02 0.  0.
         23    2    4    4    0    0 -0.46719036472E+03 -0.12111165213E+03  0.19565012156E+03  0.52878848202E+03  0.91670166832E+02 0.  0.
          2    1    3    3  502    0  0.52811429049E+03 -0.49427260226E+03 -0.51707229900E+03  0.88914221110E+03  0.00000000000E+00 0. -1.
         -1    1    3    3    0  502  0.92788220210E+02 -0.54679673961E+02 -0.10147268015E+03  0.14797373203E+03  0.00000000000E+00 0.  1.
         11    1    5    5    0    0 -0.77074211726E+02  0.24587538622E+03  0.21899966432E+03  0.33816562900E+03  0.00000000000E+00 0.  1.
        -11    1    5    5    0    0 -0.76637934257E+02  0.42418854213E+03  0.50130168059E+03  0.66114496686E+03  0.00000000000E+00 0. -1.
          2    1    6    6  503    0 -0.17964266085E+03 -0.12466065004E+02  0.40972974359E+02  0.18467721300E+03  0.00000000000E+00 0. -1.
         -2    1    6    6    0  503 -0.28754770386E+03 -0.10864558713E+03  0.15467714720E+03  0.34411126902E+03  0.00000000000E+00 0.  1.
<mgrwt>
<rscale>  0 0.25479163E+04</rscale>
<asrwt>0</asrwt>
<pdfrwt beam="1">  1        2 0.17444681E+00 0.25479163E+04</pdfrwt>
<pdfrwt beam="2">  1       -1 0.22020166E+00 0.25479163E+04</pdfrwt>
<totfact> 0.23067285E+00</totfact>
</mgrwt>
</event>
<event>
12    6  0.1457317E-007  0.1631349E+04  0.7818608E-02  0.8801517E-01
          2   -1    0    0  501    0  0.00000000000E+00  0.00000000000E+00  0.12743777888E+04  0.12743777888E+04  0.00000000000E+00 0. -1.
         -1   -1    0    0    0  501 -0.00000000000E+00 -0.00000000000E+00 -0.52207821983E+03  0.52207821983E+03  0.00000000000E+00 0.  1.
         24    2    1    2    0    0 -0.45000671562E+03 -0.70730129522E+02  0.63715552204E+03  0.78712974616E+03  0.78085099004E+02 0.  0.
        254    2    1    2    0    0  0.45000671562E+03  0.70730129522E+02  0.11514404691E+03  0.10093262625E+04  0.89329309705E+03 0.  0.
         23    2    4    4    0    0  0.35461407372E+03 -0.87072624146E+01  0.48543307064E+03  0.60848428161E+03  0.93706441608E+02 0.  0.
         23    2    4    4    0    0  0.95392641904E+02  0.79437391937E+02 -0.37028902373E+03  0.40084198086E+03  0.90278885443E+02 0.  0.
          2    1    3    3  502    0 -0.44035992395E+03 -0.68758097861E+02  0.63680066715E+03  0.77727706020E+03  0.00000000000E+00 0. -1.
         -1    1    3    3    0  502 -0.96467916738E+01 -0.19720316612E+01  0.35485489646E+00  0.98526859519E+01  0.00000000000E+00 0.  1.
         11    1    5    5    0    0  0.89886326321E+02 -0.14661222647E+02  0.66056842860E+02  0.11250782016E+03  0.00000000000E+00 0. -1.
        -11    1    5    5    0    0  0.26472774740E+03  0.59539602328E+01  0.41937622778E+03  0.49597646145E+03  0.00000000000E+00 0.  1.
          4    1    6    6  503    0  0.60155119078E+02 -0.83938318651E+00 -0.10012402982E+03  0.11680823714E+03  0.00000000000E+00 0. -1.
         -4    1    6    6    0  503  0.35237522826E+02  0.80276775123E+02 -0.27016499390E+03  0.28403374372E+03  0.00000000000E+00 0.  1.
<mgrwt>
<rscale>  0 0.16313490E+04</rscale>
<asrwt>0</asrwt>
<pdfrwt beam="1">  1        2 0.19605812E+00 0.16313490E+04</pdfrwt>
<pdfrwt beam="2">  1       -1 0.80319726E-01 0.16313490E+04</pdfrwt>
<totfact> 0.28868183E+01</totfact>
</mgrwt>
</event>
<event>
12    6  0.1457317E-007  0.1595975E+04  0.7818608E-02  0.8823025E-01
         -1   -1    0    0    0  501 -0.00000000000E+00  0.00000000000E+00  0.58734132121E+03  0.58734132121E+03  0.00000000000E+00 0.  1.
          2   -1    0    0  501    0  0.00000000000E+00 -0.00000000000E+00 -0.10841802783E+04  0.10841802783E+04  0.00000000000E+00 0. -1.
         24    2    1    2    0    0 -0.42610084161E+03 -0.31361588471E+03 -0.76425077901E+02  0.54077866569E+03  0.81755258946E+02 0.  0.
        254    2    1    2    0    0  0.42610084161E+03  0.31361588471E+03 -0.42041387915E+03  0.11307429338E+04  0.90659522509E+03 0.  0.
         23    2    4    4    0    0 -0.63185910669E+02 -0.56847221163E+02  0.21145781807E+03  0.24526028234E+03  0.90631845445E+02 0.  0.
         23    2    4    4    0    0  0.48928675228E+03  0.37046310588E+03 -0.63187169722E+03  0.88548265145E+03  0.90406003712E+02 0.  0.
          4    1    3    3  502    0 -0.25809360970E+03 -0.19018115441E+03 -0.57455429924E+01  0.32064652521E+03  0.00000000000E+00 0. -1.
         -3    1    3    3    0  502 -0.16800723190E+03 -0.12343473030E+03 -0.70679534909E+02  0.22013214048E+03  0.00000000000E+00 0.  1.
         11    1    5    5    0    0 -0.85015363564E+02 -0.38025594547E+02  0.13936494255E+03  0.16761904753E+03  0.00000000000E+00 0. -1.
        -11    1    5    5    0    0  0.21829452894E+02 -0.18821626616E+02  0.72092875513E+02  0.77641234803E+02  0.00000000000E+00 0.  1.
          3    1    6    6  503    0  0.41184450116E+03  0.26793058281E+03 -0.51523356763E+03  0.71194685164E+03  0.00000000000E+00 0. -1.
         -3    1    6    6    0  503  0.77442251118E+02  0.10253252306E+03 -0.11663812958E+03  0.17353579981E+03  0.00000000000E+00 0.  1.
<mgrwt>
<rscale>  0 0.15959748E+04</rscale>
<asrwt>0</asrwt>
<pdfrwt beam="1">  1        2 0.16679697E+00 0.15959748E+04</pdfrwt>
<pdfrwt beam="2">  1       -1 0.90360203E-01 0.15959748E+04</pdfrwt>
<totfact> 0.29197449E+01</totfact>
</mgrwt>
</event>
<event>
12    6  0.1457317E-007  0.3580141E+04  0.7818608E-02  0.8095056E-01
         -1   -1    0    0    0  501 -0.00000000000E+00  0.00000000000E+00  0.17533003695E+04  0.17533003695E+04  0.00000000000E+00 0.  1.
          2   -1    0    0  501    0  0.00000000000E+00 -0.00000000000E+00 -0.18276121549E+04  0.18276121549E+04  0.00000000000E+00 0. -1.
         24    2    1    2    0    0  0.11409218589E+04 -0.67340096986E+03  0.98659518830E+03  0.16537038436E+04  0.78706940910E+02 0.  0.
        254    2    1    2    0    0 -0.11409218589E+04  0.67340096986E+03 -0.10609069736E+04  0.19272086808E+04  0.91292833143E+03 0.  0.
         23    2    4    4    0    0  0.12802095196E+03  0.15902784594E+03 -0.24149582017E+03  0.32876918894E+03  0.89942918071E+02 0.  0.
         23    2    4    4    0    0 -0.12689428109E+04  0.51437312392E+03 -0.81941115344E+03  0.15984394918E+04  0.93694198644E+02 0.  0.
          2    1    3    3  502    0  0.81475845863E+02 -0.53078435577E+02  0.48703497989E+02  0.10875506654E+03  0.00000000000E+00 0. -1.
         -1    1    3    3    0  502  0.10594460130E+04 -0.62032253428E+03  0.93789169031E+03  0.15449487771E+04  0.00000000000E+00 0.  1.
         11    1    5    5    0    0  0.64852207165E+02  0.13952405662E+03 -0.19276113162E+03  0.24663662545E+03  0.00000000000E+00 0. -1.
        -11    1    5    5    0    0  0.63168744799E+02  0.19503789314E+02 -0.48734688553E+02  0.82132563490E+02  0.00000000000E+00 0.  1.
          2    1    6    6  503    0 -0.77132458117E+03  0.26391149636E+03 -0.47663356686E+03  0.94433598072E+03  0.00000000000E+00 0. -1.
         -2    1    6    6    0  503 -0.49761822969E+03  0.25046162756E+03 -0.34277758659E+03  0.65410351112E+03  0.00000000000E+00 0.  1.
<mgrwt>
<rscale>  0 0.35801414E+04</rscale>
<asrwt>0</asrwt>
<pdfrwt beam="1">  1        2 0.28117110E+00 0.35801414E+04</pdfrwt>
<pdfrwt beam="2">  1       -1 0.26973852E+00 0.35801414E+04</pdfrwt>
<totfact> 0.40134214E-01</totfact>
</mgrwt>
</event>
<event>
12    6  0.2728544E-007  0.2514567E+04  0.7818608E-02  0.8397814E-01
          2   -1    0    0  501    0  0.00000000000E+00  0.00000000000E+00  0.13191427400E+04  0.13191427400E+04  0.00000000000E+00 0. -1.
         -1   -1    0    0    0  501 -0.00000000000E+00 -0.00000000000E+00 -0.11983248211E+04  0.11983248211E+04  0.00000000000E+00 0.  1.
         24    2    1    2    0    0 -0.13566874423E+02  0.34709503825E+03 -0.98551420161E+03  0.10474426379E+04  0.72379640680E+02 0.  0.
        254    2    1    2    0    0  0.13566874423E+02 -0.34709503825E+03  0.11063321205E+04  0.14700249233E+04  0.90351728734E+03 0.  0.
         23    2    4    4    0    0 -0.31363572952E+03 -0.10628416732E+03  0.65072283183E+02  0.34865020105E+03  0.87514945019E+02 0.  0.
         23    2    4    4    0    0  0.32720260394E+03 -0.24081087093E+03  0.10412598373E+04  0.11213747222E+04  0.90596905250E+02 0.  0.
          4    1    3    3  502    0  0.10792059507E+02  0.83319171982E+01 -0.22699225642E+02  0.26479128334E+02  0.00000000000E+00 0. -1.
         -3    1    3    3    0  502 -0.24358933929E+02  0.33876312105E+03 -0.96281497597E+03  0.10209635095E+04  0.00000000000E+00 0.  1.
         11    1    5    5    0    0 -0.58743354006E+01 -0.22340519427E+02  0.88085446923E+01  0.24722400455E+02  0.00000000000E+00 0. -1.
        -11    1    5    5    0    0 -0.30776139412E+03 -0.83943647893E+02  0.56263738491E+02  0.32392780060E+03  0.00000000000E+00 0.  1.
          4    1    6    6  503    0  0.10851488619E+02 -0.12736591278E+01  0.55536698139E+01  0.12256437542E+02  0.00000000000E+00 0. -1.
         -4    1    6    6    0  503  0.31635111532E+03 -0.23953721180E+03  0.10357061675E+04  0.11091182847E+04  0.00000000000E+00 0.  1.
<mgrwt>
<rscale>  0 0.25145668E+04</rscale>
<asrwt>0</asrwt>
<pdfrwt beam="1">  1        2 0.20294504E+00 0.25145668E+04</pdfrwt>
<pdfrwt beam="2">  1       -1 0.18435766E+00 0.25145668E+04</pdfrwt>
<totfact> 0.31678179E+00</totfact>
</mgrwt>
</event>
<event>
12    6  0.1457317E-007  0.2174833E+04  0.7818608E-02  0.8528977E-01
          2   -1    0    0  501    0  0.00000000000E+00  0.00000000000E+00  0.11351558169E+04  0.11351558169E+04  0.00000000000E+00 0. -1.
         -1   -1    0    0    0  501 -0.00000000000E+00 -0.00000000000E+00 -0.10416847546E+04  0.10416847546E+04  0.00000000000E+00 0.  1.
         24    2    1    2    0    0 -0.71883629823E+03 -0.28838258562E+03 -0.41902775170E+03  0.88438415440E+03  0.81614560719E+02 0.  0.
        254    2    1    2    0    0  0.71883629823E+03  0.28838258562E+03  0.51249881403E+03  0.12924564171E+04  0.89883169520E+03 0.  0.
         23    2    4    4    0    0  0.46750545531E+03  0.21538455780E+03 -0.17486692860E+03  0.55143196000E+03  0.92449474373E+02 0.  0.
         23    2    4    4    0    0  0.25133084292E+03  0.72998027819E+02  0.68736574263E+03  0.74102445706E+03  0.90275562366E+02 0.  0.
          4    1    3    3  502    0 -0.24433044783E+03 -0.78027423541E+02 -0.10098789742E+03  0.27565232085E+03  0.00000000000E+00 0. -1.
         -3    1    3    3    0  502 -0.47450585039E+03 -0.21035516208E+03 -0.31803985428E+03  0.60873183355E+03  0.00000000000E+00 0.  1.
         11    1    5    5    0    0  0.36470351670E+03  0.14075387331E+03 -0.16401018309E+03  0.42393354208E+03  0.00000000000E+00 0. -1.
        -11    1    5    5    0    0  0.10280193861E+03  0.74630684485E+02 -0.10856745506E+02  0.12749841792E+03  0.00000000000E+00 0.  1.
          2    1    6    6  503    0  0.23945812985E+03  0.90208283152E+02  0.63923285551E+03  0.68854656622E+03  0.00000000000E+00 0. -1.
         -2    1    6    6    0  503  0.11872713064E+02 -0.17210255333E+02  0.48132887121E+02  0.52477890837E+02  0.00000000000E+00 0.  1.
<mgrwt>
<rscale>  0 0.21748329E+04</rscale>
<asrwt>0</asrwt>
<pdfrwt beam="1">  1        2 0.17463936E+00 0.21748329E+04</pdfrwt>
<pdfrwt beam="2">  1       -1 0.16025919E+00 0.21748329E+04</pdfrwt>
<totfact> 0.62981924E+00</totfact>
</mgrwt>
</event>
<event>
12    6  0.1457317E-007  0.1042520E+04  0.7818608E-02  0.9263101E-01
          2   -1    0    0  501    0  0.00000000000E+00  0.00000000000E+00  0.45662181205E+03  0.45662181205E+03  0.00000000000E+00 0. -1.
         -1   -1    0    0    0  501 -0.00000000000E+00 -0.00000000000E+00 -0.59504768978E+03  0.59504768978E+03  0.00000000000E+00 0.  1.
         24    2    1    2    0    0  0.10293366063E+03  0.31837471285E+01  0.30616742440E+02  0.13369451505E+03  0.79569866785E+02 0.  0.
        254    2    1    2    0    0 -0.10293366063E+03 -0.31837471285E+01 -0.16904262017E+03  0.91797498678E+03  0.89638005008E+03 0.  0.
         23    2    4    4    0    0  0.32020525600E+03  0.21051731216E+03  0.33549296657E+02  0.39489970044E+03  0.89281988150E+02 0.  0.
         23    2    4    4    0    0 -0.42313891664E+03 -0.21370105929E+03 -0.20259191683E+03  0.52307528634E+03  0.88597883174E+02 0.  0.
          2    1    3    3  502    0  0.49079875485E+02  0.41161434598E+02  0.18685957634E+02  0.66725279231E+02  0.00000000000E+00 0. -1.
         -1    1    3    3    0  502  0.53853785150E+02 -0.37977687469E+02  0.11930784805E+02  0.66969235822E+02  0.00000000000E+00 0.  1.
         11    1    5    5    0    0  0.11263833976E+03  0.50278093110E+02  0.47805387896E+02  0.13228997446E+03  0.00000000000E+00 0. -1.
        -11    1    5    5    0    0  0.20756691624E+03  0.16023921905E+03 -0.14256091239E+02  0.26260972597E+03  0.00000000000E+00 0.  1.
          1    1    6    6  503    0 -0.10914293557E+03 -0.43356237079E+02 -0.91804174199E+02  0.14906357731E+03  0.00000000000E+00 0. -1.
         -1    1    6    6    0  503 -0.31399598107E+03 -0.17034482221E+03 -0.11078774263E+03  0.37401170904E+03  0.00000000000E+00 0.  1.
<mgrwt>
<rscale>  0 0.10425196E+04</rscale>
<asrwt>0</asrwt>
<pdfrwt beam="1">  1        2 0.70249510E-01 0.10425196E+04</pdfrwt>
<pdfrwt beam="2">  1       -1 0.91545798E-01 0.10425196E+04</pdfrwt>
<totfact> 0.90714852E+01</totfact>
</mgrwt>
</event>
<event>
12    6  0.1457317E-007  0.2077020E+04  0.7818608E-02  0.8571435E-01
         -1   -1    0    0    0  501 -0.00000000000E+00  0.00000000000E+00  0.48534434049E+03  0.48534434049E+03  0.00000000000E+00 0.  1.
          2   -1    0    0  501    0  0.00000000000E+00 -0.00000000000E+00 -0.22221388733E+04  0.22221388733E+04  0.00000000000E+00 0. -1.
         24    2    1    2    0    0 -0.61746592950E+03 -0.55585624916E+03 -0.82979465724E+03  0.11768295390E+04  0.78283119489E+02 0.  0.
        254    2    1    2    0    0  0.61746592950E+03  0.55585624916E+03 -0.90699987559E+03  0.15306536748E+04  0.91104969907E+03 0.  0.
         23    2    4    4    0    0 -0.83872019006E+02  0.37624575127E+03 -0.41145956900E+02  0.39843676231E+03  0.91997189466E+02 0.  0.
         23    2    4    4    0    0  0.70133794851E+03  0.17961049788E+03 -0.86585391869E+03  0.11322169125E+04  0.89873686619E+02 0.  0.
          2    1    3    3  502    0 -0.54606535023E+03 -0.52208629690E+03 -0.75334594912E+03  0.10669074876E+04  0.00000000000E+00 0. -1.
         -1    1    3    3    0  502 -0.71400579270E+02 -0.33769952255E+02 -0.76448708125E+02  0.10992205133E+03  0.00000000000E+00 0.  1.
         11    1    5    5    0    0 -0.40401967640E+02  0.31616623731E+03 -0.53687701396E+02  0.32322713049E+03  0.00000000000E+00 0.  1.
        -11    1    5    5    0    0 -0.43470051365E+02  0.60079513963E+02  0.12541744497E+02  0.75209631822E+02  0.00000000000E+00 0. -1.
          4    1    6    6  503    0  0.12108045863E+03  0.34993267076E+02 -0.20778639748E+03  0.24302303015E+03  0.00000000000E+00 0. -1.
         -4    1    6    6    0  503  0.58025748987E+03  0.14461723081E+03 -0.65806752121E+03  0.88919388239E+03  0.00000000000E+00 0.  1.
<mgrwt>
<rscale>  0 0.20770195E+04</rscale>
<asrwt>0</asrwt>
<pdfrwt beam="1">  1        2 0.34186752E+00 0.20770195E+04</pdfrwt>
<pdfrwt beam="2">  1       -1 0.74668360E-01 0.20770195E+04</pdfrwt>
<totfact> 0.95160578E+00</totfact>
</mgrwt>
</event>
<event>
12    6  0.1457317E-007  0.1445587E+04  0.7818608E-02  0.8921466E-01
          2   -1    0    0  501    0  0.00000000000E+00  0.00000000000E+00  0.11190788053E+04  0.11190788053E+04  0.00000000000E+00 0. -1.
         -1   -1    0    0    0  501 -0.00000000000E+00 -0.00000000000E+00 -0.46683941656E+03  0.46683941656E+03  0.00000000000E+00 0.  1.
         24    2    1    2    0    0 -0.13986653072E+03 -0.81691896064E+02  0.64806361475E+03  0.67122212360E+03  0.65699909794E+02 0.  0.
        254    2    1    2    0    0  0.13986653072E+03  0.81691896064E+02  0.41757739370E+01  0.91469609822E+03  0.90023069416E+03 0.  0.
         23    2    4    4    0    0 -0.67073503175E+02 -0.31782860004E+03 -0.22230363573E+03  0.40390592344E+03  0.90593679164E+02 0.  0.
         23    2    4    4    0    0  0.20694003389E+03  0.39952049610E+03  0.22647940966E+03  0.51079017478E+03  0.84692828608E+02 0.  0.
          4    1    3    3  502    0 -0.14081117043E+03 -0.88131954276E+02  0.59476988616E+03  0.61753238342E+03  0.00000000000E+00 0. -1.
         -3    1    3    3    0  502  0.94463971412E+00  0.64400582114E+01  0.53293728586E+02  0.53689740179E+02  0.00000000000E+00 0.  1.
         11    1    5    5    0    0 -0.89476938318E+02 -0.24301995737E+03 -0.16540111895E+03  0.30728220307E+03  0.00000000000E+00 0.  1.
        -11    1    5    5    0    0  0.22403435143E+02 -0.74808642666E+02 -0.56902516775E+02  0.96623720375E+02  0.00000000000E+00 0. -1.
          3    1    6    6  503    0  0.63371357739E+02  0.16405789285E+03  0.48036143250E+02  0.18231399356E+03  0.00000000000E+00 0. -1.
         -3    1    6    6    0  503  0.14356867615E+03  0.23546260325E+03  0.17844326641E+03  0.32847618122E+03  0.00000000000E+00 0.  1.
<mgrwt>
<rscale>  0 0.14455865E+04</rscale>
<asrwt>0</asrwt>
<pdfrwt beam="1">  1        2 0.17216597E+00 0.14455865E+04</pdfrwt>
<pdfrwt beam="2">  1       -1 0.71821449E-01 0.14455865E+04</pdfrwt>
<totfact> 0.45909938E+01</totfact>
</mgrwt>
</event>
<event>
12    6  0.2120881E-007  0.2426822E+04  0.7818608E-02  0.8429529E-01
         -1   -1    0    0    0  501 -0.00000000000E+00  0.00000000000E+00  0.80975463587E+03  0.80975463587E+03  0.00000000000E+00 0.  1.
          2   -1    0    0  501    0  0.00000000000E+00 -0.00000000000E+00 -0.18182871469E+04  0.18182871469E+04  0.00000000000E+00 0. -1.
         24    2    1    2    0    0 -0.95908662095E+03  0.42170138187E+03 -0.27002480040E+03  0.10851210112E+04  0.83036221482E+02 0.  0.
        254    2    1    2    0    0  0.95908662095E+03 -0.42170138187E+03 -0.73850771059E+03  0.15429207716E+04  0.85879663880E+03 0.  0.
         23    2    4    4    0    0 -0.84919404879E+02 -0.25639346371E+03 -0.22965504787E+03  0.36606180111E+03  0.91164069980E+02 0.  0.
         23    2    4    4    0    0  0.10440060258E+04 -0.16530791816E+03 -0.50885266272E+03  0.11768589705E+04  0.93758808957E+02 0.  0.
          2    1    3    3  502    0 -0.61591674636E+02  0.38095389165E+02 -0.50041685872E-02  0.72420943691E+02  0.00000000000E+00 0. -1.
         -1    1    3    3    0  502 -0.89749494631E+03  0.38360599270E+03 -0.27001979623E+03  0.10127000675E+04  0.00000000000E+00 0.  1.
         11    1    5    5    0    0 -0.10095454310E+03 -0.24499485922E+03 -0.20851609531E+03  0.33718431580E+03  0.00000000000E+00 0.  1.
        -11    1    5    5    0    0  0.16035138223E+02 -0.11398604494E+02 -0.21138952562E+02  0.28877485307E+02  0.00000000000E+00 0. -1.
          1    1    6    6  503    0  0.93938933808E+03 -0.12371486653E+03 -0.43802179024E+03  0.10438490242E+04  0.00000000000E+00 0.  1.
         -1    1    6    6    0  503  0.10461668775E+03 -0.41593051622E+02 -0.70830872478E+02  0.13300994623E+03  0.00000000000E+00 0. -1.
<mgrwt>
<rscale>  0 0.24268222E+04</rscale>
<asrwt>0</asrwt>
<pdfrwt beam="1">  1        2 0.27973648E+00 0.24268222E+04</pdfrwt>
<pdfrwt beam="2">  1       -1 0.12457764E+00 0.24268222E+04</pdfrwt>
<totfact> 0.48588043E+00</totfact>
</mgrwt>
</event>
<event>
12    6  0.1457317E-007  0.1762491E+04  0.7818608E-02  0.8726505E-01
          2   -1    0    0  501    0  0.00000000000E+00  0.00000000000E+00  0.15770274918E+04  0.15770274918E+04  0.00000000000E+00 0. -1.
         -1   -1    0    0    0  501 -0.00000000000E+00 -0.00000000000E+00 -0.49244141252E+03  0.49244141252E+03  0.00000000000E+00 0.  1.
         24    2    1    2    0    0  0.46368402344E+02  0.59609134751E+03  0.68451779218E+03  0.91240237168E+03  0.80240617740E+02 0.  0.
        254    2    1    2    0    0 -0.46368402344E+02 -0.59609134751E+03  0.40006828709E+03  0.11570665326E+04  0.90624136040E+03 0.  0.
         23    2    4    4    0    0  0.10394416149E+03 -0.68244284115E+03 -0.16090463789E+02  0.69676068235E+03  0.93187581296E+02 0.  0.
         23    2    4    4    0    0 -0.15031256383E+03  0.86351493641E+02  0.41615875088E+03  0.46030585028E+03  0.92967319892E+02 0.  0.
          4    1    3    3  502    0  0.14470015168E+02  0.44806397466E+03  0.46680835619E+03  0.64720997221E+03  0.00000000000E+00 0. -1.
         -3    1    3    3    0  502  0.31898387176E+02  0.14802737284E+03  0.21770943599E+03  0.26519239947E+03  0.00000000000E+00 0.  1.
         11    1    5    5    0    0  0.58416523218E+02 -0.43096292918E+03  0.34365828245E+02  0.43625972386E+03  0.00000000000E+00 0. -1.
        -11    1    5    5    0    0  0.45527638271E+02 -0.25147991197E+03 -0.50456292034E+02  0.26050095849E+03  0.00000000000E+00 0.  1.
          3    1    6    6  503    0 -0.10859082358E+03  0.76611683886E+02  0.20126149530E+03  0.24117940742E+03  0.00000000000E+00 0. -1.
         -3    1    6    6    0  503 -0.41721740249E+02  0.97398097554E+01  0.21489725558E+03  0.21912644286E+03  0.00000000000E+00 0.  1.
<mgrwt>
<rscale>  0 0.17624910E+04</rscale>
<asrwt>0</asrwt>
<pdfrwt beam="1">  1        2 0.24261961E+00 0.17624910E+04</pdfrwt>
<pdfrwt beam="2">  1       -1 0.75760218E-01 0.17624910E+04</pdfrwt>
<totfact> 0.21692744E+01</totfact>
</mgrwt>
</event>
<event>
12    6  0.1457317E-007  0.2745166E+04  0.7818608E-02  0.8320497E-01
          2   -1    0    0  501    0  0.00000000000E+00  0.00000000000E+00  0.16995868601E+04  0.16995868601E+04  0.00000000000E+00 0. -1.
         -1   -1    0    0    0  501 -0.00000000000E+00 -0.00000000000E+00 -0.11084951686E+04  0.11084951686E+04  0.00000000000E+00 0.  1.
         24    2    1    2    0    0 -0.61642324476E+02  0.11511335324E+04  0.67756532175E+03  0.13394721530E+04  0.78630132911E+02 0.  0.
        254    2    1    2    0    0  0.61642324476E+02 -0.11511335324E+04 -0.86473630222E+02  0.14686098757E+04  0.90577540964E+03 0.  0.
         23    2    4    4    0    0  0.43080505405E+03 -0.30360002561E+03 -0.68289559307E+02  0.53948935129E+03  0.92840325824E+02 0.  0.
         23    2    4    4    0    0 -0.36916272958E+03 -0.84753350681E+03 -0.18184070915E+02  0.92912052442E+03  0.91324270602E+02 0.  0.
          4    1    3    3  502    0 -0.79399583883E+02  0.10085658209E+04  0.59924058955E+03  0.11758395270E+04  0.00000000000E+00 0. -1.
         -3    1    3    3    0  502  0.17757259407E+02  0.14256771152E+03  0.78324732202E+02  0.16363262604E+03  0.00000000000E+00 0.  1.
         11    1    5    5    0    0  0.38706805375E+03 -0.28358688227E+03 -0.35236294117E+02  0.48112866725E+03  0.00000000000E+00 0. -1.
        -11    1    5    5    0    0  0.43737000307E+02 -0.20013143341E+02 -0.33053265190E+02  0.58360684043E+02  0.00000000000E+00 0.  1.
          1    1    6    6  503    0 -0.23014004446E+03 -0.47673241072E+03 -0.50610658176E+02  0.53178912194E+03  0.00000000000E+00 0. -1.
         -1    1    6    6    0  503 -0.13902268512E+03 -0.37080109609E+03  0.32426587261E+02  0.39733140248E+03  0.00000000000E+00 0.  1.
<mgrwt>
<rscale>  0 0.27451658E+04</rscale>
<asrwt>0</asrwt>
<pdfrwt beam="1">  1        2 0.26147490E+00 0.27451658E+04</pdfrwt>
<pdfrwt beam="2">  1       -1 0.17053772E+00 0.27451658E+04</pdfrwt>
<totfact> 0.23806201E+00</totfact>
</mgrwt>
</event>
<event>
12    6  0.1457317E-007  0.1655107E+04  0.7818608E-02  0.8787391E-01
         -1   -1    0    0    0  501 -0.00000000000E+00  0.00000000000E+00  0.48014955428E+03  0.48014955428E+03  0.00000000000E+00 0.  1.
          2   -1    0    0  501    0  0.00000000000E+00 -0.00000000000E+00 -0.14263158453E+04  0.14263158453E+04  0.00000000000E+00 0. -1.
         24    2    1    2    0    0 -0.10105261193E+03  0.27263233521E+03  0.24593199797E+03  0.38901876991E+03  0.79454610506E+02 0.  0.
        254    2    1    2    0    0  0.10105261193E+03 -0.27263233521E+03 -0.11920982890E+04  0.15174466297E+04  0.89275188194E+03 0.  0.
         23    2    4    4    0    0  0.28996172661E+03 -0.47588196526E+03 -0.45935075733E+03  0.72864057768E+03  0.96811804142E+02 0.  0.
         23    2    4    4    0    0 -0.18890911468E+03  0.20324963004E+03 -0.73274753169E+03  0.78880605202E+03  0.91098719956E+02 0.  0.
          4    1    3    3  502    0 -0.71552691256E+02  0.12472071401E+03  0.79072008143E+02  0.16409578484E+03  0.00000000000E+00 0. -1.
         -3    1    3    3    0  502 -0.29499920671E+02  0.14791162120E+03  0.16685998983E+03  0.22492298507E+03  0.00000000000E+00 0.  1.
         11    1    5    5    0    0  0.60133245524E+02 -0.38352015642E+02 -0.54252586339E+02  0.89611536342E+02  0.00000000000E+00 0. -1.
        -11    1    5    5    0    0  0.22982848108E+03 -0.43752994962E+03 -0.40509817100E+03  0.63902904134E+03  0.00000000000E+00 0.  1.
          1    1    6    6  503    0 -0.23593691502E+02  0.69315553339E+02 -0.26524796738E+03  0.27516866176E+03  0.00000000000E+00 0. -1.
         -1    1    6    6    0  503 -0.16531542318E+03  0.13393407671E+03 -0.46749956431E+03  0.51363739026E+03  0.00000000000E+00 0.  1.
<mgrwt>
<rscale>  0 0.16551071E+04</rscale>
<asrwt>0</asrwt>
<pdfrwt beam="1">  1        2 0.21943320E+00 0.16551071E+04</pdfrwt>
<pdfrwt beam="2">  1       -1 0.73869163E-01 0.16551071E+04</pdfrwt>
<totfact> 0.28074264E+01</totfact>
</mgrwt>
</event>
<event>
12    6  0.1457317E-007  0.1354575E+04  0.7818608E-02  0.8987372E-01
         -1   -1    0    0    0  501 -0.00000000000E+00  0.00000000000E+00  0.67647137750E+03  0.67647137750E+03  0.00000000000E+00 0.  1.
          2   -1    0    0  501    0  0.00000000000E+00 -0.00000000000E+00 -0.67810411870E+03  0.67810411870E+03  0.00000000000E+00 0. -1.
         24    2    1    2    0    0  0.68927733692E+02  0.32711556804E+03  0.14609771269E+03  0.37348086056E+03  0.79923614930E+02 0.  0.
        254    2    1    2    0    0 -0.68927733692E+02 -0.32711556804E+03 -0.14773045389E+03  0.98109463564E+03  0.91047612256E+03 0.  0.
         23    2    4    4    0    0  0.25422245804E+03 -0.52716740019E+01  0.25039358988E+03  0.36840872088E+03  0.91494191349E+02 0.  0.
         23    2    4    4    0    0 -0.32315019173E+03 -0.32184389404E+03 -0.39812404377E+03  0.61268591476E+03  0.94189900569E+02 0.  0.
          4    1    3    3  502    0  0.15254394648E+02  0.18201852014E+03  0.11451007560E+03  0.21558292058E+03  0.00000000000E+00 0. -1.
         -3    1    3    3    0  502  0.53673339044E+02  0.14509704790E+03  0.31587637089E+02  0.15789793998E+03  0.00000000000E+00 0.  1.
         11    1    5    5    0    0 -0.10630871262E-01  0.11174346108E+02  0.28308990071E+02  0.30434602721E+02  0.00000000000E+00 0. -1.
        -11    1    5    5    0    0  0.25423308891E+03 -0.16446020109E+02  0.22208459981E+03  0.33797411816E+03  0.00000000000E+00 0.  1.
          4    1    6    6  503    0 -0.56603883338E+02 -0.24096776654E+02 -0.85366585495E+02  0.10522408552E+03  0.00000000000E+00 0. -1.
         -4    1    6    6    0  503 -0.26654630839E+03 -0.29774711739E+03 -0.31275745828E+03  0.50746182924E+03  0.00000000000E+00 0.  1.
<mgrwt>
<rscale>  0 0.13545745E+04</rscale>
<asrwt>0</asrwt>
<pdfrwt beam="1">  1        2 0.10432371E+00 0.13545745E+04</pdfrwt>
<pdfrwt beam="2">  1       -1 0.10407252E+00 0.13545745E+04</pdfrwt>
<totfact> 0.41367677E+01</totfact>
</mgrwt>
</event>
<event>
12    6  0.1457317E-007  0.2029087E+04  0.7818608E-02  0.8593141E-01
         -1   -1    0    0    0  501 -0.00000000000E+00  0.00000000000E+00  0.79970963898E+03  0.79970963898E+03  0.00000000000E+00 0.  1.
          2   -1    0    0  501    0  0.00000000000E+00 -0.00000000000E+00 -0.12870906916E+04  0.12870906916E+04  0.00000000000E+00 0. -1.
         24    2    1    2    0    0  0.46672753861E+03  0.36829642905E+03 -0.77170840297E+03  0.97731369764E+03  0.78302933751E+02 0.  0.
        254    2    1    2    0    0 -0.46672753861E+03 -0.36829642905E+03  0.28432735040E+03  0.11094866329E+04  0.89254786507E+03 0.  0.
         23    2    4    4    0    0 -0.67719668113E+03 -0.46135519358E+03  0.18977657627E+03  0.84495910750E+03  0.80602635650E+02 0.  0.
         23    2    4    4    0    0  0.21046914252E+03  0.93058764531E+02  0.94550774125E+02  0.26452752540E+03  0.89876410689E+02 0.  0.
          4    1    3    3  502    0  0.39444244128E+03  0.34349012078E+03 -0.68177078171E+03  0.85929139490E+03  0.00000000000E+00 0. -1.
         -3    1    3    3    0  502  0.72285097330E+02  0.24806308263E+02 -0.89937621264E+02  0.11802230274E+03  0.00000000000E+00 0.  1.
         11    1    5    5    0    0 -0.65166922043E+03 -0.42270868468E+03  0.17381219212E+03  0.79596864453E+03  0.00000000000E+00 0.  1.
        -11    1    5    5    0    0 -0.25527460699E+02 -0.38646508901E+02  0.15964384157E+02  0.48990462964E+02  0.00000000000E+00 0. -1.
          1    1    6    6  503    0 -0.33152581279E+01  0.21235449550E+02  0.94564857662E+01  0.23481064224E+02  0.00000000000E+00 0. -1.
         -1    1    6    6    0  503  0.21378440064E+03  0.71823314981E+02  0.85094288358E+02  0.24104646117E+03  0.00000000000E+00 0.  1.
<mgrwt>
<rscale>  0 0.20290873E+04</rscale>
<asrwt>0</asrwt>
<pdfrwt beam="1">  1        2 0.19801395E+00 0.20290873E+04</pdfrwt>
<pdfrwt beam="2">  1       -1 0.12303225E+00 0.20290873E+04</pdfrwt>
<totfact> 0.10346756E+01</totfact>
</mgrwt>
</event>
<event>
12    6  0.1457317E-007  0.2180706E+04  0.7818608E-02  0.8526502E-01
          2   -1    0    0  501    0  0.00000000000E+00  0.00000000000E+00  0.20401862206E+04  0.20401862206E+04  0.00000000000E+00 0. -1.
         -1   -1    0    0    0  501 -0.00000000000E+00 -0.00000000000E+00 -0.58272593172E+03  0.58272593172E+03  0.00000000000E+00 0.  1.
         24    2    1    2    0    0  0.28892543660E+03 -0.84330582463E+03  0.49696375978E+03  0.10237092063E+04  0.79780566518E+02 0.  0.
        254    2    1    2    0    0 -0.28892543660E+03  0.84330582463E+03  0.96049652913E+03  0.15992029460E+04  0.91665361961E+03 0.  0.
         23    2    4    4    0    0 -0.25024011984E+03  0.93077166525E+01 -0.63889639666E+02  0.27439297833E+03  0.92211004421E+02 0.  0.
         23    2    4    4    0    0 -0.38685316762E+02  0.83399810797E+03  0.10243861688E+04  0.13248099677E+04  0.93300749423E+02 0.  0.
          4    1    3    3  502    0  0.23445951657E+03 -0.57548000499E+03  0.33343277678E+03  0.70521338450E+03  0.00000000000E+00 0. -1.
         -3    1    3    3    0  502  0.54465920027E+02 -0.26782581964E+03  0.16353098300E+03  0.31849582181E+03  0.00000000000E+00 0.  1.
         11    1    5    5    0    0 -0.63924644867E+02  0.35316775244E+02  0.69800066933E+01  0.73364537267E+02  0.00000000000E+00 0. -1.
        -11    1    5    5    0    0 -0.18631547497E+03 -0.26009058591E+02 -0.70869646360E+02  0.20102844107E+03  0.00000000000E+00 0.  1.
          2    1    6    6  503    0 -0.37095086211E+02  0.80770363550E+03  0.95932212173E+03  0.12546155353E+04  0.00000000000E+00 0.  1.
         -2    1    6    6    0  503 -0.15902305503E+01  0.26294472473E+02  0.65064047066E+02  0.70194432375E+02  0.00000000000E+00 0. -1.
<mgrwt>
<rscale>  0 0.21807058E+04</rscale>
<asrwt>0</asrwt>
<pdfrwt beam="1">  1        2 0.31387480E+00 0.21807058E+04</pdfrwt>
<pdfrwt beam="2">  1       -1 0.89650144E-01 0.21807058E+04</pdfrwt>
<totfact> 0.80557157E+00</totfact>
</mgrwt>
</event>
<event>
12    6  0.1457317E-007  0.2735046E+04  0.7818608E-02  0.8323722E-01
         -1   -1    0    0    0  501 -0.00000000000E+00  0.00000000000E+00  0.92049405396E+03  0.92049405396E+03  0.00000000000E+00 0.  1.
          2   -1    0    0  501    0  0.00000000000E+00 -0.00000000000E+00 -0.20316478574E+04  0.20316478574E+04  0.00000000000E+00 0. -1.
         24    2    1    2    0    0  0.43645398845E+02 -0.56357888894E+03 -0.16606538902E+04  0.17560949392E+04  0.81067919634E+02 0.  0.
        254    2    1    2    0    0 -0.43645398845E+02  0.56357888894E+03  0.54950008678E+03  0.11960469721E+04  0.89947313981E+03 0.  0.
         23    2    4    4    0    0 -0.20089815590E+03  0.74167543710E+03  0.53650165916E+03  0.94154585461E+03  0.90730606884E+02 0.  0.
         23    2    4    4    0    0  0.15725275705E+03 -0.17809654816E+03  0.12998427628E+02  0.25450111750E+03  0.90305313369E+02 0.  0.
          2    1    3    3  502    0  0.41046215767E+02 -0.53126716920E+03 -0.16106489700E+04  0.16965021961E+04  0.00000000000E+00 0. -1.
         -3    1    3    3    0  502  0.25991830779E+01 -0.32311719738E+02 -0.50004920258E+02  0.59592743142E+02  0.00000000000E+00 0.  1.
         11    1    5    5    0    0 -0.11565057168E+03  0.55807097765E+03  0.42018888610E+03  0.70807977716E+03  0.00000000000E+00 0.  1.
        -11    1    5    5    0    0 -0.85247584217E+02  0.18360445945E+03  0.11631277305E+03  0.23346607745E+03  0.00000000000E+00 0. -1.
          2    1    6    6  503    0  0.46570244389E+02 -0.83184396876E+02  0.44696165897E+02  0.10529092455E+03  0.00000000000E+00 0. -1.
         -2    1    6    6    0  503  0.11068251266E+03 -0.94912151284E+02 -0.31697738269E+02  0.14921019296E+03  0.00000000000E+00 0.  1.
<mgrwt>
<rscale>  0 0.27350465E+04</rscale>
<asrwt>0</asrwt>
<pdfrwt beam="1">  1        2 0.31256121E+00 0.27350465E+04</pdfrwt>
<pdfrwt beam="2">  1       -1 0.14161447E+00 0.27350465E+04</pdfrwt>
<totfact> 0.25966597E+00</totfact>
</mgrwt>
</event>
<event>
12    6  0.1457317E-007  0.1859834E+04  0.7818608E-02  0.8675112E-01
         -1   -1    0    0    0  501 -0.00000000000E+00  0.00000000000E+00  0.87994329648E+03  0.87994329648E+03  0.00000000000E+00 0.  1.
          2   -1    0    0  501    0  0.00000000000E+00 -0.00000000000E+00 -0.98272895959E+03  0.98272895959E+03  0.00000000000E+00 0. -1.
         24    2    1    2    0    0  0.34603301246E+03  0.50040092588E+02  0.57966106009E+03  0.68200944883E+03  0.82988475845E+02 0.  0.
        254    2    1    2    0    0 -0.34603301246E+03 -0.50040092588E+02 -0.68244672321E+03  0.11806628072E+04  0.89776849901E+03 0.  0.
         23    2    4    4    0    0  0.19117250229E+03  0.17277854556E+03  0.71141004061E+01  0.27384659527E+03  0.92422918596E+02 0.  0.
         23    2    4    4    0    0 -0.53720551475E+03 -0.22281863814E+03 -0.68956082361E+03  0.90681621197E+03  0.92647732006E+02 0.  0.
          4    1    3    3  502    0  0.13693504300E+03  0.94599456251E+01  0.30477410927E+03  0.33425731743E+03  0.00000000000E+00 0. -1.
         -3    1    3    3    0  502  0.20909796946E+03  0.40580146963E+02  0.27488695082E+03  0.34775213140E+03  0.00000000000E+00 0.  1.
         11    1    5    5    0    0  0.14383369240E+03  0.10723560386E+03 -0.34837257157E+02  0.18276006207E+03  0.00000000000E+00 0. -1.
        -11    1    5    5    0    0  0.47338809892E+02  0.65542941701E+02  0.41951357563E+02  0.91086533199E+02  0.00000000000E+00 0.  1.
          1    1    6    6  503    0 -0.56579414738E+02  0.33566878873E+01 -0.51430567957E+02  0.76534964860E+02  0.00000000000E+00 0. -1.
         -1    1    6    6    0  503 -0.48062610001E+03 -0.22617532603E+03 -0.63813025566E+03  0.83028124711E+03  0.00000000000E+00 0.  1.
<mgrwt>
<rscale>  0 0.18598341E+04</rscale>
<asrwt>0</asrwt>
<pdfrwt beam="1">  1        2 0.15118907E+00 0.18598341E+04</pdfrwt>
<pdfrwt beam="2">  1       -1 0.13537589E+00 0.18598341E+04</pdfrwt>
<totfact> 0.12671629E+01</totfact>
</mgrwt>
</event>
<event>
12    6  0.1457317E-007  0.1582966E+04  0.7818608E-02  0.8831082E-01
          2   -1    0    0  501    0  0.00000000000E+00  0.00000000000E+00  0.25012901501E+04  0.25012901501E+04  0.00000000000E+00 0. -1.
         -1   -1    0    0    0  501 -0.00000000000E+00 -0.00000000000E+00 -0.25044883659E+03  0.25044883659E+03  0.00000000000E+00 0.  1.
         24    2    1    2    0    0 -0.98475277898E+02  0.49113653223E+03  0.44126707640E+03  0.67352731215E+03  0.89498233762E+02 0.  0.
        254    2    1    2    0    0  0.98475277898E+02 -0.49113653223E+03  0.18095742371E+04  0.20782116745E+04  0.89078188739E+03 0.  0.
         23    2    4    4    0    0 -0.21623243451E+03 -0.18031998915E+03  0.15044585045E+04  0.15333331733E+04  0.91888325168E+02 0.  0.
         23    2    4    4    0    0  0.31470771241E+03 -0.31081654308E+03  0.30511573254E+03  0.54487850118E+03  0.90272382852E+02 0.  0.
          4    1    3    3  502    0  0.13395330796E+02  0.26350513006E+02  0.37662747571E+02  0.47877625019E+02  0.00000000000E+00 0. -1.
         -3    1    3    3    0  502 -0.11187060869E+03  0.46478601923E+03  0.40360432883E+03  0.62564968713E+03  0.00000000000E+00 0.  1.
         11    1    5    5    0    0 -0.21781945092E+03 -0.16788760598E+03  0.14845502186E+04  0.15098082372E+04  0.00000000000E+00 0.  1.
        -11    1    5    5    0    0  0.15870164047E+01 -0.12432383176E+02  0.19908285935E+02  0.23524936161E+02  0.00000000000E+00 0. -1.
          1    1    6    6  503    0  0.22930984535E+02 -0.38517522205E+02  0.41512156653E+01  0.45018464657E+02  0.00000000000E+00 0. -1.
         -1    1    6    6    0  503  0.29177672787E+03 -0.27229902088E+03  0.30096451687E+03  0.49986003652E+03  0.00000000000E+00 0.  1.
<mgrwt>
<rscale>  0 0.15829658E+04</rscale>
<asrwt>0</asrwt>
<pdfrwt beam="1">  1        2 0.38481385E+00 0.15829658E+04</pdfrwt>
<pdfrwt beam="2">  1       -1 0.38530592E-01 0.15829658E+04</pdfrwt>
<totfact> 0.24839045E+01</totfact>
</mgrwt>
</event>
<event>
12    6  0.1457317E-007  0.1544148E+04  0.7818608E-02  0.8855615E-01
         -1   -1    0    0    0  501 -0.00000000000E+00  0.00000000000E+00  0.50587833354E+03  0.50587833354E+03  0.00000000000E+00 0.  1.
          2   -1    0    0  501    0  0.00000000000E+00 -0.00000000000E+00 -0.11783426510E+04  0.11783426510E+04  0.00000000000E+00 0. -1.
         24    2    1    2    0    0 -0.29394459554E+03 -0.40911316677E+03 -0.21423870552E+03  0.55337493016E+03  0.80923308821E+02 0.  0.
        254    2    1    2    0    0  0.29394459554E+03  0.40911316677E+03 -0.45822561194E+03  0.11308460544E+04  0.90280954737E+03 0.  0.
         23    2    4    4    0    0  0.48675133034E+03  0.17585743456E+03 -0.58838526574E+03  0.78896638662E+03  0.91749895936E+02 0.  0.
         23    2    4    4    0    0 -0.19280673480E+03  0.23325573221E+03  0.13015965379E+03  0.34187966777E+03  0.91419353360E+02 0.  0.
          2    1    3    3  502    0 -0.24102738716E+02 -0.60660306886E+02 -0.48793379066E+01  0.65455502317E+02  0.00000000000E+00 0. -1.
         -1    1    3    3    0  502 -0.26984185683E+03 -0.34845285988E+03 -0.20935936761E+03  0.48791942784E+03  0.00000000000E+00 0.  1.
         11    1    5    5    0    0  0.33521472058E+03  0.13031666177E+03 -0.34302025361E+03  0.49700526719E+03  0.00000000000E+00 0.  1.
        -11    1    5    5    0    0  0.15153660976E+03  0.45540772790E+02 -0.24536501212E+03  0.29196111943E+03  0.00000000000E+00 0. -1.
          4    1    6    6  503    0 -0.56853883970E+01  0.40531543605E+02  0.43259147094E+02  0.59552359110E+02  0.00000000000E+00 0. -1.
         -4    1    6    6    0  503 -0.18712134640E+03  0.19272418860E+03  0.86900506700E+02  0.28232730866E+03  0.00000000000E+00 0.  1.
<mgrwt>
<rscale>  0 0.15441477E+04</rscale>
<asrwt>0</asrwt>
<pdfrwt beam="1">  1        2 0.18128348E+00 0.15441477E+04</pdfrwt>
<pdfrwt beam="2">  1       -1 0.77827437E-01 0.15441477E+04</pdfrwt>
<totfact> 0.35449655E+01</totfact>
</mgrwt>
</event>
<event>
12    6  0.1457317E-007  0.1715019E+04  0.7818608E-02  0.8752845E-01
         -1   -1    0    0    0  501 -0.00000000000E+00  0.00000000000E+00  0.32462206976E+03  0.32462206976E+03  0.00000000000E+00 0.  1.
          2   -1    0    0  501    0  0.00000000000E+00 -0.00000000000E+00 -0.22651647523E+04  0.22651647523E+04  0.00000000000E+00 0. -1.
         24    2    1    2    0    0  0.30348280575E+03  0.43684987290E+03 -0.11444965448E+04  0.12645314134E+04  0.78915965746E+02 0.  0.
        254    2    1    2    0    0 -0.30348280575E+03 -0.43684987290E+03 -0.79604613768E+03  0.13252554086E+04  0.91633663019E+03 0.  0.
         23    2    4    4    0    0 -0.48907871945E+01 -0.46514808184E+03 -0.88145904801E+03  0.10010206568E+04  0.93196803232E+02 0.  0.
         23    2    4    4    0    0 -0.29859201855E+03  0.28298208945E+02  0.85412910333E+02  0.32423475180E+03  0.88740221157E+02 0.  0.
          2    1    3    3  502    0  0.30611872101E+03  0.43526250880E+03 -0.11435754667E+04  0.12613195357E+04  0.00000000000E+00 0. -1.
         -1    1    3    3    0  502 -0.26359152637E+01  0.15873641001E+01 -0.92107808318E+00  0.32118777840E+01  0.00000000000E+00 0.  1.
         11    1    5    5    0    0 -0.11384182021E+02 -0.16159217450E+03 -0.40317252998E+03  0.43449938941E+03  0.00000000000E+00 0.  1.
        -11    1    5    5    0    0  0.64933948262E+01 -0.30355590734E+03 -0.47828651803E+03  0.56652126737E+03  0.00000000000E+00 0. -1.
          2    1    6    6  503    0 -0.24800645881E+03 -0.10913135262E+02  0.75461406954E+02  0.25946237507E+03  0.00000000000E+00 0.  1.
         -2    1    6    6    0  503 -0.50585559740E+02  0.39211344207E+02  0.99515033799E+01  0.64772376738E+02  0.00000000000E+00 0. -1.
<mgrwt>
<rscale>  0 0.17150189E+04</rscale>
<asrwt>0</asrwt>
<pdfrwt beam="1">  1        2 0.34848688E+00 0.17150189E+04</pdfrwt>
<pdfrwt beam="2">  1       -1 0.49941858E-01 0.17150189E+04</pdfrwt>
<totfact> 0.20671442E+01</totfact>
</mgrwt>
</event>
<event>
12    6  0.1457317E-007  0.2858900E+04  0.7818608E-02  0.8285212E-01
          2   -1    0    0  501    0  0.00000000000E+00  0.00000000000E+00  0.35297439404E+04  0.35297439404E+04  0.00000000000E+00 0. -1.
         -1   -1    0    0    0  501 -0.00000000000E+00 -0.00000000000E+00 -0.57888829470E+03  0.57888829470E+03  0.00000000000E+00 0.  1.
         24    2    1    2    0    0  0.10437520501E+04  0.45439468766E+03  0.47258838107E+03  0.12352448557E+04  0.81223157824E+02 0.  0.
        254    2    1    2    0    0 -0.10437520501E+04 -0.45439468766E+03  0.24782672647E+04  0.28733873794E+04  0.90479474079E+03 0.  0.
         23    2    4    4    0    0  0.15074832413E+03 -0.13888282108E+02  0.34108064199E+03  0.38398155910E+03  0.90486970227E+02 0.  0.
         23    2    4    4    0    0 -0.11945003742E+04 -0.44050640555E+03  0.21371866227E+04  0.24894058203E+04  0.93261143219E+02 0.  0.
          4    1    3    3  502    0  0.23884899744E+03  0.76657486308E+02  0.79984400957E+02  0.26329207771E+03  0.00000000000E+00 0. -1.
         -3    1    3    3    0  502  0.80490305265E+03  0.37773720135E+03  0.39260398011E+03  0.97195277799E+03  0.00000000000E+00 0.  1.
         11    1    5    5    0    0  0.89149638584E+02  0.28429413436E+02  0.24497709819E+03  0.26223971524E+03  0.00000000000E+00 0.  1.
        -11    1    5    5    0    0  0.61598685548E+02 -0.42317695543E+02  0.96103543798E+02  0.12174184387E+03  0.00000000000E+00 0. -1.
          4    1    6    6  503    0 -0.41538943545E+03 -0.10803212021E+03  0.69534521391E+03  0.81714398278E+03  0.00000000000E+00 0. -1.
         -4    1    6    6    0  503 -0.77911093877E+03 -0.33247428535E+03  0.14418414088E+04  0.16722618375E+04  0.00000000000E+00 0.  1.
<mgrwt>
<rscale>  0 0.28589001E+04</rscale>
<asrwt>0</asrwt>
<pdfrwt beam="1">  1        2 0.54303752E+00 0.28589001E+04</pdfrwt>
<pdfrwt beam="2">  1       -1 0.89059740E-01 0.28589001E+04</pdfrwt>
<totfact> 0.94219898E-01</totfact>
</mgrwt>
</event>
<event>
12    6  0.1457317E-007  0.1226989E+04  0.7818608E-02  0.9089556E-01
          2   -1    0    0  501    0  0.00000000000E+00  0.00000000000E+00  0.28949518755E+03  0.28949518755E+03  0.00000000000E+00 0. -1.
         -1   -1    0    0    0  501 -0.00000000000E+00 -0.00000000000E+00 -0.13001093106E+04  0.13001093106E+04  0.00000000000E+00 0.  1.
         24    2    1    2    0    0  0.23766932272E+01 -0.15617863225E+03 -0.52869645307E+03  0.55718325539E+03  0.80844460221E+02 0.  0.
        254    2    1    2    0    0 -0.23766932272E+01  0.15617863225E+03 -0.48191766999E+03  0.10324212428E+04  0.89958410838E+03 0.  0.
         23    2    4    4    0    0  0.74415163816E+02 -0.26210420124E+03 -0.52171889250E+03  0.59568026508E+03  0.91695945962E+02 0.  0.
         23    2    4    4    0    0 -0.76791857044E+02  0.41828283349E+03  0.39801222511E+02  0.43674097770E+03  0.91109967540E+02 0.  0.
          2    1    3    3  502    0  0.30331649986E+02 -0.39545725196E+02 -0.22937469849E+03  0.23472670424E+03  0.00000000000E+00 0. -1.
         -1    1    3    3    0  502 -0.27954956758E+02 -0.11663290706E+03 -0.29932175458E+03  0.32245655115E+03  0.00000000000E+00 0.  1.
         11    1    5    5    0    0 -0.18754598149E+02 -0.22868851645E+02 -0.71993246563E+02  0.77831528817E+02  0.00000000000E+00 0. -1.
        -11    1    5    5    0    0  0.93169761965E+02 -0.23923534959E+03 -0.44972564594E+03  0.51784873626E+03  0.00000000000E+00 0.  1.
          3    1    6    6  503    0  0.12111999385E+02  0.87893149190E+02  0.32599092429E+02  0.94523050262E+02  0.00000000000E+00 0. -1.
         -3    1    6    6    0  503 -0.88903856429E+02  0.33038968430E+03  0.72021300818E+01  0.34221792743E+03  0.00000000000E+00 0.  1.
<mgrwt>
<rscale>  0 0.12269888E+04</rscale>
<asrwt>0</asrwt>
<pdfrwt beam="1">  1        2 0.44537721E-01 0.12269888E+04</pdfrwt>
<pdfrwt beam="2">  1       -1 0.20001682E+00 0.12269888E+04</pdfrwt>
<totfact> 0.19406955E+01</totfact>
</mgrwt>
</event>
<event>
12    6  0.1457317E-007  0.1368101E+04  0.7818608E-02  0.8977238E-01
         -1   -1    0    0    0  501 -0.00000000000E+00  0.00000000000E+00  0.14114958875E+04  0.14114958875E+04  0.00000000000E+00 0.  1.
          2   -1    0    0  501    0  0.00000000000E+00 -0.00000000000E+00 -0.33150999809E+03  0.33150999809E+03  0.00000000000E+00 0. -1.
         24    2    1    2    0    0  0.26539280826E+03  0.20167838860E+03  0.65634180309E+02  0.34888107221E+03  0.79389179485E+02 0.  0.
        254    2    1    2    0    0 -0.26539280826E+03 -0.20167838860E+03  0.10143517091E+04  0.13941248134E+04  0.89641903729E+03 0.  0.
         23    2    4    4    0    0 -0.57070575011E+03 -0.76555782203E+02  0.46514525856E+03  0.74603071239E+03  0.92929388636E+02 0.  0.
         23    2    4    4    0    0  0.30531294185E+03 -0.12512260640E+03  0.54920645051E+03  0.64809410097E+03  0.97604197316E+02 0.  0.
          2    1    3    3  502    0  0.21821935005E+03  0.15230209164E+03  0.82375480355E+02  0.27857015564E+03  0.00000000000E+00 0. -1.
         -1    1    3    3    0  502  0.47173458212E+02  0.49376296960E+02 -0.16741300046E+02  0.70310916566E+02  0.00000000000E+00 0.  1.
         11    1    5    5    0    0 -0.65661108880E+02  0.82102247750E+01  0.24906507149E+02  0.70704477288E+02  0.00000000000E+00 0. -1.
        -11    1    5    5    0    0 -0.50504464123E+03 -0.84766006978E+02  0.44023875141E+03  0.67532623510E+03  0.00000000000E+00 0.  1.
          1    1    6    6  503    0  0.20374078404E+03 -0.71633301484E+02  0.26684873715E+03  0.34329271108E+03  0.00000000000E+00 0. -1.
         -1    1    6    6    0  503  0.10157215781E+03 -0.53489304912E+02  0.28235771336E+03  0.30480138989E+03  0.00000000000E+00 0.  1.
<mgrwt>
<rscale>  0 0.13681009E+04</rscale>
<asrwt>0</asrwt>
<pdfrwt beam="1">  1        2 0.51001539E-01 0.13681009E+04</pdfrwt>
<pdfrwt beam="2">  1       -1 0.21715321E+00 0.13681009E+04</pdfrwt>
<totfact> 0.12617468E+01</totfact>
</mgrwt>
</event>
<event>
12    6  0.1457317E-007  0.1230088E+04  0.7818608E-02  0.9086921E-01
          2   -1    0    0  501    0  0.00000000000E+00  0.00000000000E+00  0.59501635852E+03  0.59501635852E+03  0.00000000000E+00 0. -1.
         -1   -1    0    0    0  501 -0.00000000000E+00 -0.00000000000E+00 -0.63574568606E+03  0.63574568606E+03  0.00000000000E+00 0.  1.
         24    2    1    2    0    0  0.13434540202E+03 -0.22952347467E+03  0.19425986610E+03  0.33953273751E+03  0.82558293308E+02 0.  0.
        254    2    1    2    0    0 -0.13434540202E+03  0.22952347467E+03 -0.23498919364E+03  0.89122930707E+03  0.81752066897E+03 0.  0.
         23    2    4    4    0    0 -0.17518161351E+03  0.48312107230E+03 -0.31129107064E+03  0.60854622846E+03  0.96601311070E+02 0.  0.
         23    2    4    4    0    0  0.40836211492E+02 -0.25359759762E+03  0.76301877000E+02  0.28268307862E+03  0.90046703510E+02 0.  0.
          2    1    3    3  502    0  0.11245614722E+03 -0.22801225487E+03  0.16549773332E+03  0.30335700610E+03  0.00000000000E+00 0. -1.
         -1    1    3    3    0  502  0.21889254804E+02 -0.15112198078E+01  0.28762132773E+02  0.36175731407E+02  0.00000000000E+00 0.  1.
         11    1    5    5    0    0 -0.46582512825E+02  0.54778943485E+02 -0.70108412537E+02  0.10042834589E+03  0.00000000000E+00 0. -1.
        -11    1    5    5    0    0 -0.12859910069E+03  0.42834212881E+03 -0.24118265810E+03  0.50811788256E+03  0.00000000000E+00 0.  1.
          2    1    6    6  503    0 -0.24059512009E+02 -0.13372394595E+03  0.37084921133E+02  0.14084120567E+03  0.00000000000E+00 0. -1.
         -2    1    6    6    0  503  0.64895723501E+02 -0.11987365167E+03  0.39216955866E+02  0.14184187295E+03  0.00000000000E+00 0.  1.
<mgrwt>
<rscale>  0 0.12300879E+04</rscale>
<asrwt>0</asrwt>
<pdfrwt beam="1">  1        2 0.91540978E-01 0.12300879E+04</pdfrwt>
<pdfrwt beam="2">  1       -1 0.97807029E-01 0.12300879E+04</pdfrwt>
<totfact> 0.56562548E+01</totfact>
</mgrwt>
</event>
<event>
12    6  0.1457317E-007  0.1517801E+04  0.7818608E-02  0.8872701E-01
          2   -1    0    0  501    0  0.00000000000E+00  0.00000000000E+00  0.61324896403E+03  0.61324896403E+03  0.00000000000E+00 0. -1.
         -1   -1    0    0    0  501 -0.00000000000E+00 -0.00000000000E+00 -0.93914507535E+03  0.93914507535E+03  0.00000000000E+00 0.  1.
         24    2    1    2    0    0  0.33583058280E+02 -0.24312532542E+03 -0.53718541147E+03  0.59592122451E+03  0.79474485604E+02 0.  0.
        254    2    1    2    0    0 -0.33583058280E+02  0.24312532542E+03  0.21128930015E+03  0.95647281487E+03  0.89997740614E+03 0.  0.
         23    2    4    4    0    0  0.32747724305E+03  0.40292062132E+03  0.13205652133E+03  0.54326094475E+03  0.90039754905E+02 0.  0.
         23    2    4    4    0    0 -0.36106030133E+03 -0.15979529589E+03  0.79232778814E+02  0.41321187012E+03  0.92558838515E+02 0.  0.
          4    1    3    3  502    0 -0.54500097875E+01 -0.62566335619E+01 -0.88724205966E+00  0.83447749331E+01  0.00000000000E+00 0. -1.
         -3    1    3    3    0  502  0.39033068068E+02 -0.23686869186E+03 -0.53629816941E+03  0.58757644958E+03  0.00000000000E+00 0.  1.
         11    1    5    5    0    0  0.26838344563E+03  0.27150164176E+03  0.11147072037E+03  0.39770408204E+03  0.00000000000E+00 0. -1.
        -11    1    5    5    0    0  0.59093797413E+02  0.13141897956E+03  0.20585800963E+02  0.14555686271E+03  0.00000000000E+00 0.  1.
          1    1    6    6  503    0 -0.20477650614E+03 -0.40845447739E+02  0.32471623877E+02  0.21132007577E+03  0.00000000000E+00 0. -1.
         -1    1    6    6    0  503 -0.15628379519E+03 -0.11894984815E+03  0.46761154937E+02  0.20189179435E+03  0.00000000000E+00 0.  1.
<mgrwt>
<rscale>  0 0.15178007E+04</rscale>
<asrwt>0</asrwt>
<pdfrwt beam="1">  1        2 0.94345995E-01 0.15178007E+04</pdfrwt>
<pdfrwt beam="2">  1       -1 0.14448386E+00 0.15178007E+04</pdfrwt>
<totfact> 0.20540549E+01</totfact>
</mgrwt>
</event>
<event>
12    6  0.1457317E-007  0.1207740E+04  0.7818608E-02  0.9106109E-01
          2   -1    0    0  501    0  0.00000000000E+00  0.00000000000E+00  0.18603321370E+04  0.18603321370E+04  0.00000000000E+00 0. -1.
         -1   -1    0    0    0  501 -0.00000000000E+00 -0.00000000000E+00 -0.19601818140E+03  0.19601818140E+03  0.00000000000E+00 0.  1.
         24    2    1    2    0    0  0.11647010793E+03 -0.78482603123E+02  0.72774500971E+03  0.74527289975E+03  0.78064658521E+02 0.  0.
        254    2    1    2    0    0 -0.11647010793E+03  0.78482603123E+02  0.93656894594E+03  0.13110774187E+04  0.90666300370E+03 0.  0.
         23    2    4    4    0    0 -0.25600920486E+03  0.44098906034E+03  0.50217467036E+03  0.72046219925E+03  0.82911499100E+02 0.  0.
         23    2    4    4    0    0  0.13953909693E+03 -0.36250645722E+03  0.43439427558E+03  0.59061521945E+03  0.96155393456E+02 0.  0.
          2    1    3    3  502    0  0.12548244707E+02 -0.44886354305E+02  0.31012244530E+03  0.31360512485E+03  0.00000000000E+00 0. -1.
         -1    1    3    3    0  502  0.10392186322E+03 -0.33596248818E+02  0.41762256441E+03  0.43166777491E+03  0.00000000000E+00 0.  1.
         11    1    5    5    0    0 -0.24307478912E+03  0.37661952114E+03  0.41132741210E+03  0.60837312297E+03  0.00000000000E+00 0.  1.
        -11    1    5    5    0    0 -0.12934415741E+02  0.64369539195E+02  0.90847258261E+02  0.11208907628E+03  0.00000000000E+00 0. -1.
          3    1    6    6  503    0  0.10785807800E+03 -0.28966051264E+03  0.28033610713E+03  0.41728277047E+03  0.00000000000E+00 0. -1.
         -3    1    6    6    0  503  0.31681018933E+02 -0.72845944579E+02  0.15405816845E+03  0.17333244898E+03  0.00000000000E+00 0.  1.
<mgrwt>
<rscale>  0 0.12077399E+04</rscale>
<asrwt>0</asrwt>
<pdfrwt beam="1">  1        2 0.28620493E+00 0.12077399E+04</pdfrwt>
<pdfrwt beam="2">  1       -1 0.30156645E-01 0.12077399E+04</pdfrwt>
<totfact> 0.90793265E+01</totfact>
</mgrwt>
</event>
<event>
12    6  0.1457317E-007  0.2108689E+04  0.7818608E-02  0.8557425E-01
          2   -1    0    0  501    0  0.00000000000E+00  0.00000000000E+00  0.22228857409E+04  0.22228857409E+04  0.00000000000E+00 0. -1.
         -1   -1    0    0    0  501 -0.00000000000E+00 -0.00000000000E+00 -0.50008974420E+03  0.50008974420E+03  0.00000000000E+00 0.  1.
         24    2    1    2    0    0 -0.15195596543E+03  0.36656092047E+03 -0.28142771593E+03  0.49290868440E+03  0.79371833875E+02 0.  0.
        254    2    1    2    0    0  0.15195596543E+03 -0.36656092047E+03  0.20042237126E+04  0.22300668007E+04  0.89377162716E+03 0.  0.
         23    2    4    4    0    0  0.76279149641E+02  0.10314636120E+03 -0.70792510351E+01  0.16125695066E+03  0.97447461950E+02 0.  0.
         23    2    4    4    0    0  0.75676815790E+02 -0.46970728168E+03  0.20113029637E+04  0.20688098500E+04  0.91009192568E+02 0.  0.
          2    1    3    3  502    0  0.44579263197E+01  0.86169334232E+00  0.15212014642E+01  0.47884941665E+01  0.00000000000E+00 0. -1.
         -1    1    3    3    0  502 -0.15641389175E+03  0.36569922713E+03 -0.28294891739E+03  0.48812019023E+03  0.00000000000E+00 0.  1.
         11    1    5    5    0    0  0.48734958782E+02  0.42617296102E+02  0.43249353778E+02  0.77857798176E+02  0.00000000000E+00 0. -1.
        -11    1    5    5    0    0  0.27544190859E+02  0.60529065101E+02 -0.50328604813E+02  0.83399152481E+02  0.00000000000E+00 0.  1.
          4    1    6    6  503    0  0.39362237924E+02 -0.56485638122E+02  0.32816934463E+03  0.33531348294E+03  0.00000000000E+00 0. -1.
         -4    1    6    6    0  503  0.36314577866E+02 -0.41322164355E+03  0.16831336190E+04  0.17334963671E+04  0.00000000000E+00 0.  1.
<mgrwt>
<rscale>  0 0.21086890E+04</rscale>
<asrwt>0</asrwt>
<pdfrwt beam="1">  1        2 0.34198242E+00 0.21086890E+04</pdfrwt>
<pdfrwt beam="2">  1       -1 0.76936885E-01 0.21086890E+04</pdfrwt>
<totfact> 0.89037431E+00</totfact>
</mgrwt>
</event>
<event>
12    6  0.1457317E-007  0.1508487E+04  0.7818608E-02  0.8878829E-01
          2   -1    0    0  501    0  0.00000000000E+00  0.00000000000E+00  0.62409123670E+03  0.62409123670E+03  0.00000000000E+00 0. -1.
         -1   -1    0    0    0  501 -0.00000000000E+00 -0.00000000000E+00 -0.91153824595E+03  0.91153824595E+03  0.00000000000E+00 0.  1.
         24    2    1    2    0    0  0.23448548010E+02 -0.48131358625E+03 -0.50821442805E+02  0.49258941093E+03  0.88594051707E+02 0.  0.
        254    2    1    2    0    0 -0.23448548010E+02  0.48131358625E+03 -0.23662556644E+03  0.10430400717E+04  0.89427530984E+03 0.  0.
         23    2    4    4    0    0 -0.28956073778E+03  0.23547365978E+03 -0.46651087088E+03  0.60419677212E+03  0.90155873226E+02 0.  0.
         23    2    4    4    0    0  0.26611218977E+03  0.24583992647E+03  0.22988530444E+03  0.43884329960E+03  0.92104404962E+02 0.  0.
          2    1    3    3  502    0 -0.13808926110E+02 -0.29401240411E+03  0.23813909383E+01  0.29434614187E+03  0.00000000000E+00 0. -1.
         -3    1    3    3    0  502  0.37257474120E+02 -0.18730118214E+03 -0.53202833743E+02  0.19824326906E+03  0.00000000000E+00 0.  1.
         11    1    5    5    0    0 -0.22110292518E+03  0.18744451565E+03 -0.29604949583E+03  0.41432747188E+03  0.00000000000E+00 0. -1.
        -11    1    5    5    0    0 -0.68457812600E+02  0.48029144138E+02 -0.17046137504E+03  0.18986930024E+03  0.00000000000E+00 0.  1.
          1    1    6    6  503    0  0.24234739573E+03  0.17739371742E+03  0.17195453726E+03  0.34607680373E+03  0.00000000000E+00 0. -1.
         -1    1    6    6    0  503  0.23764794038E+02  0.68446209045E+02  0.57930767182E+02  0.92766495863E+02  0.00000000000E+00 0.  1.
<mgrwt>
<rscale>  0 0.15084867E+04</rscale>
<asrwt>0</asrwt>
<pdfrwt beam="1">  1        2 0.96014036E-01 0.15084867E+04</pdfrwt>
<pdfrwt beam="2">  1       -1 0.14023665E+00 0.15084867E+04</pdfrwt>
<totfact> 0.21767017E+01</totfact>
</mgrwt>
</event>
<event>
12    6  0.1457317E-007  0.1783773E+04  0.7818608E-02  0.8714977E-01
          2   -1    0    0  501    0  0.00000000000E+00  0.00000000000E+00  0.88706514468E+03  0.88706514468E+03  0.00000000000E+00 0. -1.
         -1   -1    0    0    0  501 -0.00000000000E+00 -0.00000000000E+00 -0.89673359369E+03  0.89673359369E+03  0.00000000000E+00 0.  1.
         24    2    1    2    0    0 -0.46619973932E+03  0.36455670724E+03  0.29818232968E+03  0.66757689794E+03  0.80637604095E+02 0.  0.
        254    2    1    2    0    0  0.46619973932E+03 -0.36455670724E+03 -0.30785077869E+03  0.11162218404E+04  0.89494988987E+03 0.  0.
         23    2    4    4    0    0  0.49463845757E+03  0.15594418572E+03 -0.25081200391E+03  0.58356993235E+03  0.93066706582E+02 0.  0.
         23    2    4    4    0    0 -0.28438718247E+02 -0.52050089296E+03 -0.57038774784E+02  0.53265190808E+03  0.93459579961E+02 0.  0.
          4    1    3    3  502    0 -0.31164259564E+03  0.20438673826E+03  0.15991762448E+03  0.40554739897E+03  0.00000000000E+00 0. -1.
         -3    1    3    3    0  502 -0.15455714368E+03  0.16016996898E+03  0.13826470520E+03  0.26202949897E+03  0.00000000000E+00 0.  1.
         11    1    5    5    0    0  0.43904524332E+03  0.15524796155E+03 -0.19522618848E+03  0.50495140352E+03  0.00000000000E+00 0. -1.
        -11    1    5    5    0    0  0.55593214245E+02  0.69622416657E+00 -0.55585815429E+02  0.78618528828E+02  0.00000000000E+00 0.  1.
          2    1    6    6  503    0 -0.12278135377E+02 -0.50770353597E+03 -0.61495462784E+02  0.51156165316E+03  0.00000000000E+00 0. -1.
         -2    1    6    6    0  503 -0.16160582870E+02 -0.12797356993E+02  0.44566879995E+01  0.21090254921E+02  0.00000000000E+00 0.  1.
<mgrwt>
<rscale>  0 0.17837725E+04</rscale>
<asrwt>0</asrwt>
<pdfrwt beam="1">  1        2 0.13647156E+00 0.17837725E+04</pdfrwt>
<pdfrwt beam="2">  1       -1 0.13795901E+00 0.17837725E+04</pdfrwt>
<totfact> 0.14060582E+01</totfact>
</mgrwt>
</event>
<event>
12    6  0.1457317E-007  0.1184458E+04  0.7818608E-02  0.9126570E-01
         -1   -1    0    0    0  501 -0.00000000000E+00  0.00000000000E+00  0.25768723456E+03  0.25768723456E+03  0.00000000000E+00 0.  1.
          2   -1    0    0  501    0  0.00000000000E+00 -0.00000000000E+00 -0.13610880683E+04  0.13610880683E+04  0.00000000000E+00 0. -1.
         24    2    1    2    0    0  0.18458293676E+03 -0.84946343331E+01 -0.44197606420E+03  0.48548671343E+03  0.78812995341E+02 0.  0.
        254    2    1    2    0    0 -0.18458293676E+03  0.84946343331E+01 -0.66142476955E+03  0.11332885894E+04  0.90150833707E+03 0.  0.
         23    2    4    4    0    0 -0.90977519015E+02 -0.32987130131E+03  0.26470163485E+02  0.35560091020E+03  0.93055646730E+02 0.  0.
         23    2    4    4    0    0 -0.93605417744E+02  0.33836593564E+03 -0.68789493303E+03  0.77768767923E+03  0.91352103980E+02 0.  0.
          4    1    3    3  502    0  0.17672883031E+03 -0.16462704571E+02 -0.43955610505E+03  0.47403973419E+03  0.00000000000E+00 0. -1.
         -3    1    3    3    0  502  0.78541064455E+01  0.79680702377E+01 -0.24199591510E+01  0.11446979237E+02  0.00000000000E+00 0.  1.
         11    1    5    5    0    0 -0.71701088815E+02 -0.30018812611E+03  0.50616726544E+02  0.31275551187E+03  0.00000000000E+00 0.  1.
        -11    1    5    5    0    0 -0.19276430200E+02 -0.29683175194E+02 -0.24146563059E+02  0.42845398335E+02  0.00000000000E+00 0. -1.
          3    1    6    6  503    0 -0.23685788069E+02  0.10961846382E+02 -0.73551656144E+02  0.78045017483E+02  0.00000000000E+00 0. -1.
         -3    1    6    6    0  503 -0.69919629675E+02  0.32740408926E+03 -0.61434327689E+03  0.69964266175E+03  0.00000000000E+00 0.  1.
<mgrwt>
<rscale>  0 0.11844577E+04</rscale>
<asrwt>0</asrwt>
<pdfrwt beam="1">  1        2 0.20939816E+00 0.11844577E+04</pdfrwt>
<pdfrwt beam="2">  1       -1 0.39644190E-01 0.11844577E+04</pdfrwt>
<totfact> 0.10611888E+02</totfact>
</mgrwt>
</event>
<event>
12    6  0.1457317E-007  0.1742310E+04  0.7818608E-02  0.8737595E-01
         -1   -1    0    0    0  501 -0.00000000000E+00  0.00000000000E+00  0.24416848088E+03  0.24416848088E+03  0.00000000000E+00 0.  1.
          2   -1    0    0  501    0  0.00000000000E+00 -0.00000000000E+00 -0.31081450193E+04  0.31081450193E+04  0.00000000000E+00 0. -1.
         24    2    1    2    0    0  0.21193841146E+03  0.24910616409E+03 -0.42372049577E+01  0.33697059458E+03  0.80990471442E+02 0.  0.
        254    2    1    2    0    0 -0.21193841146E+03 -0.24910616409E+03 -0.28597393335E+04  0.30153429056E+04  0.89844978258E+03 0.  0.
         23    2    4    4    0    0 -0.19487080852E+03 -0.29046984397E+03 -0.28882565079E+04  0.29109186564E+04  0.95259679952E+02 0.  0.
         23    2    4    4    0    0 -0.17067602944E+02  0.41363679883E+02  0.28517174432E+02  0.10442424919E+03  0.89938520655E+02 0.  0.
          4    1    3    3  502    0  0.78591327476E+02  0.65082408962E+02  0.31782462541E+02  0.10687582344E+03  0.00000000000E+00 0. -1.
         -3    1    3    3    0  502  0.13334708398E+03  0.18402375513E+03 -0.36019667498E+02  0.23009477114E+03  0.00000000000E+00 0.  1.
         11    1    5    5    0    0 -0.21312929376E+02 -0.27231790590E+01 -0.32811780114E+03  0.32882054086E+03  0.00000000000E+00 0. -1.
        -11    1    5    5    0    0 -0.17355787914E+03 -0.28774666491E+03 -0.25601387068E+04  0.25820981156E+04  0.00000000000E+00 0.  1.
          3    1    6    6  503    0 -0.86897767661E+01 -0.28420197640E+02  0.13047351998E+02  0.32456944532E+02  0.00000000000E+00 0. -1.
         -3    1    6    6    0  503 -0.83778261781E+01  0.69783877524E+02  0.15469822434E+02  0.71967304659E+02  0.00000000000E+00 0.  1.
<mgrwt>
<rscale>  0 0.17423100E+04</rscale>
<asrwt>0</asrwt>
<pdfrwt beam="1">  1        2 0.47817616E+00 0.17423100E+04</pdfrwt>
<pdfrwt beam="2">  1       -1 0.37564382E-01 0.17423100E+04</pdfrwt>
<totfact> 0.11024147E+01</totfact>
</mgrwt>
</event>
<event>
12    6  0.1457317E-007  0.1588364E+04  0.7818608E-02  0.8827729E-01
          2   -1    0    0  501    0  0.00000000000E+00  0.00000000000E+00  0.11245468199E+04  0.11245468199E+04  0.00000000000E+00 0. -1.
         -1   -1    0    0    0  501 -0.00000000000E+00 -0.00000000000E+00 -0.56087019455E+03  0.56087019455E+03  0.00000000000E+00 0.  1.
         24    2    1    2    0    0  0.42038604230E+03 -0.11333965126E+03 -0.13242510423E+03  0.46231964061E+03  0.81441640177E+02 0.  0.
        254    2    1    2    0    0 -0.42038604230E+03  0.11333965126E+03  0.69610172956E+03  0.12230973738E+04  0.90655351018E+03 0.  0.
         23    2    4    4    0    0 -0.40153153260E+03 -0.27794186332E+03  0.10385201175E+03  0.50702249578E+03  0.88359039303E+02 0.  0.
         23    2    4    4    0    0 -0.18854509709E+02  0.39128151458E+03  0.59224971781E+03  0.71607487803E+03  0.92448831847E+02 0.  0.
          4    1    3    3  502    0  0.82188299590E+02  0.10332918392E+02 -0.26093921957E+02  0.86848019869E+02  0.00000000000E+00 0. -1.
         -3    1    3    3    0  502  0.33819774271E+03 -0.12367256965E+03 -0.10633118227E+03  0.37547162074E+03  0.00000000000E+00 0.  1.
         11    1    5    5    0    0 -0.35409588641E+03 -0.25004240967E+03  0.62016192316E+02  0.43789395008E+03  0.00000000000E+00 0.  1.
        -11    1    5    5    0    0 -0.47435646184E+02 -0.27899453654E+02  0.41835819432E+02  0.69128545701E+02  0.00000000000E+00 0. -1.
          1    1    6    6  503    0 -0.28520894331E+02  0.13196733848E+03  0.13886221557E+03  0.19367894762E+03  0.00000000000E+00 0. -1.
         -1    1    6    6    0  503  0.96663846221E+01  0.25931417610E+03  0.45338750224E+03  0.52239593041E+03  0.00000000000E+00 0.  1.
<mgrwt>
<rscale>  0 0.15883637E+04</rscale>
<asrwt>0</asrwt>
<pdfrwt beam="1">  1        2 0.17300720E+00 0.15883637E+04</pdfrwt>
<pdfrwt beam="2">  1       -1 0.86287722E-01 0.15883637E+04</pdfrwt>
<totfact> 0.30523589E+01</totfact>
</mgrwt>
</event>
<event>
12    6  0.1457317E-007  0.1209420E+04  0.7818608E-02  0.9104651E-01
         -1   -1    0    0    0  501 -0.00000000000E+00  0.00000000000E+00  0.34272246364E+03  0.34272246364E+03  0.00000000000E+00 0.  1.
          2   -1    0    0  501    0  0.00000000000E+00 -0.00000000000E+00 -0.10669695884E+04  0.10669695884E+04  0.00000000000E+00 0. -1.
         24    2    1    2    0    0  0.92701661942E+02  0.12087221145E+03 -0.29366699305E+03  0.34705119232E+03  0.10488344796E+03 0.  0.
        254    2    1    2    0    0 -0.92701661942E+02 -0.12087221145E+03 -0.43058013168E+03  0.10626408597E+04  0.95948041004E+03 0.  0.
         23    2    4    4    0    0 -0.41981737119E+03 -0.22035481930E+03  0.27606015046E+02  0.48383208128E+03  0.92349982484E+02 0.  0.
         23    2    4    4    0    0  0.32711570925E+03  0.99482607850E+02 -0.45818614673E+03  0.57880877841E+03  0.90463143918E+02 0.  0.
          2    1    3    3  502    0  0.18530596794E+02 -0.12320625287E+02 -0.89622883641E+02  0.92344150313E+02  0.00000000000E+00 0. -1.
         -1    1    3    3    0  502  0.74171065148E+02  0.13319283674E+03 -0.20404410941E+03  0.25470704201E+03  0.00000000000E+00 0.  1.
         11    1    5    5    0    0 -0.15602515179E+03 -0.12152137101E+03  0.40369521432E+02  0.20184397406E+03  0.00000000000E+00 0. -1.
        -11    1    5    5    0    0 -0.26379221940E+03 -0.98833448288E+02 -0.12763506386E+02  0.28198810722E+03  0.00000000000E+00 0.  1.
          4    1    6    6  503    0  0.31704806403E+03  0.73416354102E+02 -0.42801003758E+03  0.53768208844E+03  0.00000000000E+00 0. -1.
         -4    1    6    6    0  503  0.10067645212E+02  0.26066253748E+02 -0.30176109149E+02  0.41126689970E+02  0.00000000000E+00 0.  1.
<mgrwt>
<rscale>  0 0.12094204E+04</rscale>
<asrwt>0</asrwt>
<pdfrwt beam="1">  1        2 0.16414916E+00 0.12094204E+04</pdfrwt>
<pdfrwt beam="2">  1       -1 0.52726534E-01 0.12094204E+04</pdfrwt>
<totfact> 0.93111990E+01</totfact>
</mgrwt>
</event>
<event>
12    6  0.1457317E-007  0.1408214E+04  0.7818608E-02  0.8947894E-01
         -1   -1    0    0    0  501 -0.00000000000E+00  0.00000000000E+00  0.20395588432E+03  0.20395588432E+03  0.00000000000E+00 0.  1.
          2   -1    0    0  501    0  0.00000000000E+00 -0.00000000000E+00 -0.24307549456E+04  0.24307549456E+04  0.00000000000E+00 0. -1.
         24    2    1    2    0    0  0.12668459512E+03 -0.36742078249E+03 -0.42921151956E+03  0.58657947538E+03  0.93839940143E+02 0.  0.
        254    2    1    2    0    0 -0.12668459512E+03  0.36742078249E+03 -0.17975875417E+04  0.20481313545E+04  0.90137342830E+03 0.  0.
         23    2    4    4    0    0 -0.61211892252E+02  0.63451909118E+03 -0.15003700616E+04  0.16328637396E+04  0.93660544378E+02 0.  0.
         23    2    4    4    0    0 -0.65472702866E+02 -0.26709830869E+03 -0.29721748010E+03  0.41526761491E+03  0.92091151526E+02 0.  0.
          2    1    3    3  502    0  0.75804356257E+02 -0.12728577848E+03 -0.11327063827E+03  0.18648916141E+03  0.00000000000E+00 0. -1.
         -3    1    3    3    0  502  0.50880238861E+02 -0.24013500401E+03 -0.31594088129E+03  0.40009031396E+03  0.00000000000E+00 0.  1.
         11    1    5    5    0    0 -0.49020778252E+02  0.45293803857E+03 -0.11720092296E+04  0.12574424591E+04  0.00000000000E+00 0. -1.
        -11    1    5    5    0    0 -0.12191113999E+02  0.18158105260E+03 -0.32836083195E+03  0.37542128054E+03  0.00000000000E+00 0.  1.
          3    1    6    6  503    0 -0.54586959535E+02 -0.24701598261E+03 -0.22171061419E+03  0.33638107596E+03  0.00000000000E+00 0. -1.
         -3    1    6    6    0  503 -0.10885743331E+02 -0.20082326079E+02 -0.75506865908E+02  0.78886538952E+02  0.00000000000E+00 0.  1.
<mgrwt>
<rscale>  0 0.14082142E+04</rscale>
<asrwt>0</asrwt>
<pdfrwt beam="1">  1        2 0.37396231E+00 0.14082142E+04</pdfrwt>
<pdfrwt beam="2">  1       -1 0.31377827E-01 0.14082142E+04</pdfrwt>
<totfact> 0.39986400E+01</totfact>
</mgrwt>
</event>
<event>
12    6  0.1457317E-007  0.1215980E+04  0.7818608E-02  0.9098983E-01
         -3   -1    0    0    0  501 -0.00000000000E+00  0.00000000000E+00  0.33111276208E+03  0.33111276208E+03  0.00000000000E+00 0.  1.
          2   -1    0    0  501    0  0.00000000000E+00 -0.00000000000E+00 -0.11163932173E+04  0.11163932173E+04  0.00000000000E+00 0. -1.
         24    2    1    2    0    0  0.14382420012E+03  0.20962768505E+03 -0.48921689496E+02  0.27014240194E+03  0.77164880225E+02 0.  0.
        254    2    1    2    0    0 -0.14382420012E+03 -0.20962768505E+03 -0.73635876574E+03  0.11773635775E+04  0.88279759559E+03 0.  0.
         23    2    4    4    0    0 -0.38105835685E+03 -0.68355595180E+02 -0.12781203065E+02  0.39766126290E+03  0.89962003887E+02 0.  0.
         23    2    4    4    0    0  0.23723415673E+03 -0.14127208987E+03 -0.72357756267E+03  0.77970231456E+03  0.90185151927E+02 0.  0.
          4    1    3    3  502    0  0.31884297402E+02  0.46197220908E+02 -0.45114720842E+02  0.72014787906E+02  0.00000000000E+00 0. -1.
         -3    1    3    3    0  502  0.11193990272E+03  0.16343046415E+03 -0.38069686540E+01  0.19812761403E+03  0.00000000000E+00 0.  1.
         11    1    5    5    0    0 -0.28450760107E+03 -0.40523727627E+02  0.29000357638E+02  0.28883865447E+03  0.00000000000E+00 0.  1.
        -11    1    5    5    0    0 -0.96550755777E+02 -0.27831867553E+02 -0.41781560703E+02  0.10882260844E+03  0.00000000000E+00 0. -1.
          1    1    6    6  503    0 -0.33908801924E+01 -0.21065917848E+02 -0.46937499945E+02  0.51559672849E+02  0.00000000000E+00 0. -1.
         -1    1    6    6    0  503  0.24062503692E+03 -0.12020617203E+03 -0.67664006273E+03  0.72814264171E+03  0.00000000000E+00 0.  1.
<mgrwt>
<rscale>  0 0.12159803E+04</rscale>
<asrwt>0</asrwt>
<pdfrwt beam="1">  1        2 0.17175280E+00 0.12159803E+04</pdfrwt>
<pdfrwt beam="2">  1       -3 0.50940425E-01 0.12159803E+04</pdfrwt>
<totfact> 0.51124352E+01</totfact>
</mgrwt>
</event>
<event>
12    6  0.1457317E-007  0.1612138E+04  0.7818608E-02  0.8813126E-01
          2   -1    0    0  501    0  0.00000000000E+00  0.00000000000E+00  0.14117334285E+04  0.14117334285E+04  0.00000000000E+00 0. -1.
         -1   -1    0    0    0  501 -0.00000000000E+00 -0.00000000000E+00 -0.46024788337E+03  0.46024788337E+03  0.00000000000E+00 0.  1.
         24    2    1    2    0    0 -0.25704141236E+03 -0.10532408864E+03 -0.22375493254E+03  0.36621915903E+03  0.82986452417E+02 0.  0.
        254    2    1    2    0    0  0.25704141236E+03  0.10532408864E+03  0.11752404777E+04  0.15057621529E+04  0.89942538839E+03 0.  0.
         23    2    4    4    0    0  0.36341460131E+03  0.42385186727E+03  0.53898440824E+03  0.78061879362E+03  0.84504028273E+02 0.  0.
         23    2    4    4    0    0 -0.10637318895E+03 -0.31852777863E+03  0.63625606946E+03  0.72514335925E+03  0.90751884032E+02 0.  0.
          4    1    3    3  502    0 -0.17505060433E+03 -0.29524009413E+02 -0.12457965551E+03  0.21687432253E+03  0.00000000000E+00 0. -1.
         -3    1    3    3    0  502 -0.81990808032E+02 -0.75800079224E+02 -0.99175277032E+02  0.14934483649E+03  0.00000000000E+00 0.  1.
         11    1    5    5    0    0  0.21779592305E+03  0.21708643213E+03  0.24765844891E+03  0.39483704287E+03  0.00000000000E+00 0. -1.
        -11    1    5    5    0    0  0.14561867826E+03  0.20676543514E+03  0.29132595933E+03  0.38578175074E+03  0.00000000000E+00 0.  1.
          4    1    6    6  503    0 -0.10033385346E+03 -0.22325919389E+03  0.51992231492E+03  0.57465708327E+03  0.00000000000E+00 0. -1.
         -4    1    6    6    0  503 -0.60393354820E+01 -0.95268584744E+02  0.11633375455E+03  0.15048627598E+03  0.00000000000E+00 0.  1.
<mgrwt>
<rscale>  0 0.16121381E+04</rscale>
<asrwt>0</asrwt>
<pdfrwt beam="1">  1        2 0.21718976E+00 0.16121381E+04</pdfrwt>
<pdfrwt beam="2">  1       -1 0.70807367E-01 0.16121381E+04</pdfrwt>
<totfact> 0.31349816E+01</totfact>
</mgrwt>
</event>
<event>
12    6  0.1457317E-007  0.2605273E+04  0.7818608E-02  0.8366412E-01
         -1   -1    0    0    0  501 -0.00000000000E+00  0.00000000000E+00  0.60333493747E+03  0.60333493747E+03  0.00000000000E+00 0.  1.
          2   -1    0    0  501    0  0.00000000000E+00 -0.00000000000E+00 -0.28124709121E+04  0.28124709121E+04  0.00000000000E+00 0. -1.
         24    2    1    2    0    0  0.53366663939E+03  0.41249608691E+03 -0.22097880337E+04  0.23118715097E+04  0.81447037630E+02 0.  0.
        254    2    1    2    0    0 -0.53366663939E+03 -0.41249608691E+03  0.65205901070E+00  0.11039343399E+04  0.87390931903E+03 0.  0.
         23    2    4    4    0    0 -0.22244566467E+03 -0.38631304717E+03 -0.38753063793E+03  0.59751876250E+03  0.90160035825E+02 0.  0.
         23    2    4    4    0    0 -0.31122097472E+03 -0.26183039740E+02  0.38818269694E+03  0.50641557738E+03  0.90702172716E+02 0.  0.
          2    1    3    3  502    0  0.38108890742E+03  0.33304248354E+03 -0.15857422169E+04  0.16645493173E+04  0.00000000000E+00 0. -1.
         -1    1    3    3    0  502  0.15257773197E+03  0.79453603371E+02 -0.62404581679E+03  0.64732219245E+03  0.00000000000E+00 0.  1.
         11    1    5    5    0    0 -0.28182779581E+02 -0.21549778239E+02 -0.62022145859E+02  0.71452141914E+02  0.00000000000E+00 0.  1.
        -11    1    5    5    0    0 -0.19426288509E+03 -0.36476326893E+03 -0.32550849207E+03  0.52606662059E+03  0.00000000000E+00 0. -1.
          2    1    6    6  503    0 -0.21083263770E+03  0.13690569643E+02  0.30023609747E+03  0.36712334036E+03  0.00000000000E+00 0. -1.
         -2    1    6    6    0  503 -0.10038833702E+03 -0.39873609383E+02  0.87946599475E+02  0.13929223702E+03  0.00000000000E+00 0.  1.
<mgrwt>
<rscale>  0 0.26052731E+04</rscale>
<asrwt>0</asrwt>
<pdfrwt beam="1">  1        2 0.43268782E+00 0.26052731E+04</pdfrwt>
<pdfrwt beam="2">  1       -1 0.92820762E-01 0.26052731E+04</pdfrwt>
<totfact> 0.25763318E+00</totfact>
</mgrwt>
</event>
<event>
12    6  0.1457317E-007  0.1395261E+04  0.7818608E-02  0.8957256E-01
          2   -1    0    0  501    0  0.00000000000E+00  0.00000000000E+00  0.97879743569E+03  0.97879743569E+03  0.00000000000E+00 0. -1.
         -1   -1    0    0    0  501 -0.00000000000E+00 -0.00000000000E+00 -0.49723070769E+03  0.49723070769E+03  0.00000000000E+00 0.  1.
         24    2    1    2    0    0 -0.93274403252E+02 -0.26769091793E+02 -0.27324651243E+03  0.29930072884E+03  0.74165835447E+02 0.  0.
        254    2    1    2    0    0  0.93274403252E+02  0.26769091793E+02  0.75481324043E+03  0.11767274145E+04  0.89751193954E+03 0.  0.
         23    2    4    4    0    0  0.16290133938E+03 -0.33893356116E+03  0.68629927260E+03  0.78766251880E+03  0.89402162756E+02 0.  0.
         23    2    4    4    0    0 -0.69626936126E+02  0.36570265295E+03  0.68513967830E+02  0.38906489573E+03  0.89949923264E+02 0.  0.
          4    1    3    3  502    0 -0.86501616075E+02  0.71827833991E+01 -0.20927958655E+03  0.22656581231E+03  0.00000000000E+00 0. -1.
         -3    1    3    3    0  502 -0.67727871774E+01 -0.33951875192E+02 -0.63966925884E+02  0.72734916528E+02  0.00000000000E+00 0.  1.
         11    1    5    5    0    0  0.11019227760E+03 -0.13952587298E+03  0.27360051599E+03  0.32629288933E+03  0.00000000000E+00 0. -1.
        -11    1    5    5    0    0  0.52709061777E+02 -0.19940768818E+03  0.41269875661E+03  0.46136962948E+03  0.00000000000E+00 0.  1.
          3    1    6    6  503    0 -0.79724959468E+02  0.26156284460E+03  0.77043410790E+02  0.28408955980E+03  0.00000000000E+00 0. -1.
         -3    1    6    6    0  503  0.10098023342E+02  0.10413980835E+03 -0.85294429598E+01  0.10497533594E+03  0.00000000000E+00 0.  1.
<mgrwt>
<rscale>  0 0.13952608E+04</rscale>
<asrwt>0</asrwt>
<pdfrwt beam="1">  1        2 0.15058422E+00 0.13952608E+04</pdfrwt>
<pdfrwt beam="2">  1       -1 0.76497032E-01 0.13952608E+04</pdfrwt>
<totfact> 0.49545516E+01</totfact>
</mgrwt>
</event>
<event>
12    6  0.1457317E-007  0.2300426E+04  0.7818608E-02  0.8477753E-01
         -1   -1    0    0    0  501 -0.00000000000E+00  0.00000000000E+00  0.18211667723E+04  0.18211667723E+04  0.00000000000E+00 0.  1.
          2   -1    0    0  501    0  0.00000000000E+00 -0.00000000000E+00 -0.72645163381E+03  0.72645163381E+03  0.00000000000E+00 0. -1.
         24    2    1    2    0    0 -0.79162799527E+03 -0.98835716657E+02 -0.15501680931E+03  0.81669883473E+03  0.80767528735E+02 0.  0.
        254    2    1    2    0    0  0.79162799527E+03  0.98835716657E+02  0.12497319478E+04  0.17309195714E+04  0.89320167903E+03 0.  0.
         23    2    4    4    0    0  0.97088626468E+03  0.12393507761E+03  0.93716639804E+03  0.13582401647E+04  0.92495647833E+02 0.  0.
         23    2    4    4    0    0 -0.17925826941E+03 -0.25099360950E+02  0.31256554974E+03  0.37267940670E+03  0.91810741306E+02 0.  0.
          2    1    3    3  502    0 -0.76782911185E+03 -0.85428871673E+02 -0.15992520730E+03  0.78894594812E+03  0.00000000000E+00 0. -1.
         -1    1    3    3    0  502 -0.23798883413E+02 -0.13406844984E+02  0.49083979910E+01  0.27752886606E+02  0.00000000000E+00 0.  1.
         11    1    5    5    0    0  0.25975053390E+03  0.58548411283E+02  0.21074694033E+03  0.33957698565E+03  0.00000000000E+00 0. -1.
        -11    1    5    5    0    0  0.71113573078E+03  0.65386666324E+02  0.72641945771E+03  0.10186631790E+04  0.00000000000E+00 0.  1.
          1    1    6    6  503    0  0.56001643546E+01  0.97263784301E+01  0.53159424763E+01  0.12418676362E+02  0.00000000000E+00 0. -1.
         -1    1    6    6    0  503 -0.18485843377E+03 -0.34825739380E+02  0.30724960726E+03  0.36026073034E+03  0.00000000000E+00 0.  1.
<mgrwt>
<rscale>  0 0.23004257E+04</rscale>
<asrwt>0</asrwt>
<pdfrwt beam="1">  1        2 0.11176179E+00 0.23004257E+04</pdfrwt>
<pdfrwt beam="2">  1       -1 0.28017950E+00 0.23004257E+04</pdfrwt>
<totfact> 0.17945015E+00</totfact>
</mgrwt>
</event>
<event>
12    6  0.1457317E-007  0.2257751E+04  0.7818608E-02  0.8494768E-01
         -1   -1    0    0    0  501 -0.00000000000E+00  0.00000000000E+00  0.95385261093E+03  0.95385261093E+03  0.00000000000E+00 0.  1.
          2   -1    0    0  501    0  0.00000000000E+00 -0.00000000000E+00 -0.13360130774E+04  0.13360130774E+04  0.00000000000E+00 0. -1.
         24    2    1    2    0    0 -0.18857698593E+02  0.85724776842E+03 -0.57489143631E+03  0.10354027782E+04  0.79557528701E+02 0.  0.
        254    2    1    2    0    0  0.18857698593E+02 -0.85724776842E+03  0.19273096987E+03  0.12544629101E+04  0.89515507970E+03 0.  0.
         23    2    4    4    0    0  0.25756947239E+03 -0.93046385774E+03  0.18361122535E+03  0.98707976548E+03  0.92240759290E+02 0.  0.
         23    2    4    4    0    0 -0.23871177380E+03  0.73216089320E+02  0.91197445275E+01  0.26738314458E+03  0.95219061005E+02 0.  0.
          2    1    3    3  502    0 -0.82707101531E+01  0.70129925237E+03 -0.50465337685E+03  0.86403939539E+03  0.00000000000E+00 0. -1.
         -1    1    3    3    0  502 -0.10586988440E+02  0.15594851605E+03 -0.70238059460E+02  0.17136338284E+03  0.00000000000E+00 0.  1.
         11    1    5    5    0    0  0.24412198270E+03 -0.74980688163E+03  0.14255293237E+03  0.80132842250E+03  0.00000000000E+00 0.  1.
        -11    1    5    5    0    0  0.13447489690E+02 -0.18065697612E+03  0.41058292974E+02  0.18575134298E+03  0.00000000000E+00 0. -1.
          3    1    6    6  503    0  0.76498084574E+01 -0.16561662987E+01 -0.53636716086E+01  0.94884893091E+01  0.00000000000E+00 0. -1.
         -3    1    6    6    0  503 -0.24636158226E+03  0.74872255619E+02  0.14483416136E+02  0.25789465527E+03  0.00000000000E+00 0.  1.
<mgrwt>
<rscale>  0 0.22577507E+04</rscale>
<asrwt>0</asrwt>
<pdfrwt beam="1">  1        2 0.20554047E+00 0.22577507E+04</pdfrwt>
<pdfrwt beam="2">  1       -1 0.14674656E+00 0.22577507E+04</pdfrwt>
<totfact> 0.60442155E+00</totfact>
</mgrwt>
</event>
<event>
12    6  0.1457317E-007  0.1850099E+04  0.7818608E-02  0.8680102E-01
          2   -1    0    0  501    0  0.00000000000E+00  0.00000000000E+00  0.27587123341E+04  0.27587123341E+04  0.00000000000E+00 0. -1.
         -1   -1    0    0    0  501 -0.00000000000E+00 -0.00000000000E+00 -0.31018699501E+03  0.31018699501E+03  0.00000000000E+00 0.  1.
         24    2    1    2    0    0  0.15009978981E+03 -0.24971997784E+03  0.20008934264E+04  0.20235786407E+04  0.80037472022E+02 0.  0.
        254    2    1    2    0    0 -0.15009978981E+03  0.24971997784E+03  0.44763191265E+03  0.10453206884E+04  0.89857164331E+03 0.  0.
         23    2    4    4    0    0  0.95057477471E+02  0.49010052943E+02  0.64557056807E+03  0.66060095657E+03  0.90522683090E+02 0.  0.
         23    2    4    4    0    0 -0.24515726728E+03  0.20070992489E+03 -0.19793865542E+03  0.38471973183E+03  0.91885804675E+02 0.  0.
          2    1    3    3  502    0  0.10482474959E+03 -0.19975418809E+03  0.17186985647E+04  0.17334401403E+04  0.00000000000E+00 0. -1.
         -1    1    3    3    0  502  0.45275040222E+02 -0.49965789746E+02  0.28219486169E+03  0.29013850034E+03  0.00000000000E+00 0.  1.
         11    1    5    5    0    0  0.11629349893E+02 -0.19934539094E+02  0.47421860577E+02  0.52739553358E+02  0.00000000000E+00 0. -1.
        -11    1    5    5    0    0  0.83428127577E+02  0.68944592038E+02  0.59814870749E+03  0.60786140321E+03  0.00000000000E+00 0.  1.
          3    1    6    6  503    0 -0.69347738917E+01  0.16342258522E+02 -0.41825412232E+02  0.45437051080E+02  0.00000000000E+00 0. -1.
         -3    1    6    6    0  503 -0.23822249339E+03  0.18436766637E+03 -0.15611324319E+03  0.33928268075E+03  0.00000000000E+00 0.  1.
<mgrwt>
<rscale>  0 0.18500991E+04</rscale>
<asrwt>0</asrwt>
<pdfrwt beam="1">  1        2 0.42441727E+00 0.18500991E+04</pdfrwt>
<pdfrwt beam="2">  1       -1 0.47721078E-01 0.18500991E+04</pdfrwt>
<totfact> 0.11521126E+01</totfact>
</mgrwt>
</event>
<event>
12    6  0.1457317E-007  0.2440184E+04  0.7818608E-02  0.8424611E-01
         -1   -1    0    0    0  501 -0.00000000000E+00  0.00000000000E+00  0.14168369779E+04  0.14168369779E+04  0.00000000000E+00 0.  1.
          2   -1    0    0  501    0  0.00000000000E+00 -0.00000000000E+00 -0.10506671142E+04  0.10506671142E+04  0.00000000000E+00 0. -1.
         24    2    1    2    0    0 -0.31183248661E+03  0.94923322547E+03 -0.17547058695E+03  0.10173194622E+04  0.76588154024E+02 0.  0.
        254    2    1    2    0    0  0.31183248661E+03 -0.94923322547E+03  0.54164045059E+03  0.14501846298E+04  0.90076515632E+03 0.  0.
         23    2    4    4    0    0 -0.75856162936E+01 -0.97574280831E+03  0.26097993647E+03  0.10143347246E+04  0.92913059884E+02 0.  0.
         23    2    4    4    0    0  0.31941810290E+03  0.26509582841E+02  0.28066051412E+03  0.43584990525E+03  0.92000724337E+02 0.  0.
          2    1    3    3  502    0 -0.21431933631E+01  0.50240949582E+02 -0.18658609155E+02  0.53636647810E+02  0.00000000000E+00 0. -1.
         -1    1    3    3    0  502 -0.30968929324E+03  0.89899227589E+03 -0.15681197779E+03  0.96368281444E+03  0.00000000000E+00 0.  1.
         11    1    5    5    0    0 -0.93287502350E+00 -0.15052267154E+03  0.75941503467E+02  0.16859732161E+03  0.00000000000E+00 0.  1.
        -11    1    5    5    0    0 -0.66527412701E+01 -0.82522013677E+03  0.18503843301E+03  0.84573740298E+03  0.00000000000E+00 0. -1.
          2    1    6    6  503    0  0.66973143858E+02 -0.21864365714E+02  0.29192825373E+02  0.76260563462E+02  0.00000000000E+00 0.  1.
         -2    1    6    6    0  503  0.25244495904E+03  0.48373948555E+02  0.25146768875E+03  0.35958934179E+03  0.00000000000E+00 0. -1.
<mgrwt>
<rscale>  0 0.24401836E+04</rscale>
<asrwt>0</asrwt>
<pdfrwt beam="1">  1        2 0.16164109E+00 0.24401836E+04</pdfrwt>
<pdfrwt beam="2">  1       -1 0.21797492E+00 0.24401836E+04</pdfrwt>
<totfact> 0.27132859E+00</totfact>
</mgrwt>
</event>
<event>
12    6  0.1457317E-007  0.2201102E+04  0.7818608E-02  0.8517969E-01
         -1   -1    0    0    0  501 -0.00000000000E+00  0.00000000000E+00  0.31366106047E+03  0.31366106047E+03  0.00000000000E+00 0.  1.
          2   -1    0    0  501    0  0.00000000000E+00 -0.00000000000E+00 -0.38615343799E+04  0.38615343799E+04  0.00000000000E+00 0. -1.
         24    2    1    2    0    0  0.99418013781E+02  0.78224988462E+03 -0.23496976993E+04  0.24797760596E+04  0.80069997370E+02 0.  0.
        254    2    1    2    0    0 -0.99418013781E+02 -0.78224988462E+03 -0.11981756202E+04  0.16954193808E+04  0.90389337670E+03 0.  0.
         23    2    4    4    0    0  0.28039739746E+03 -0.45304295023E+03 -0.20427132381E+03  0.57796774380E+03  0.91920203928E+02 0.  0.
         23    2    4    4    0    0 -0.37981541124E+03 -0.32920693439E+03 -0.99390429638E+03  0.11174516370E+04  0.90639165608E+02 0.  0.
          4    1    3    3  502    0  0.88439278748E+02  0.74675350110E+03 -0.22798309034E+04  0.24006439231E+04  0.00000000000E+00 0. -1.
         -3    1    3    3    0  502  0.10978735033E+02  0.35496383520E+02 -0.69866795922E+02  0.79132136571E+02  0.00000000000E+00 0.  1.
         11    1    5    5    0    0  0.16702263189E+03 -0.20752142751E+03 -0.66971440508E+02  0.27467594777E+03  0.00000000000E+00 0. -1.
        -11    1    5    5    0    0  0.11337476557E+03 -0.24552152272E+03 -0.13729988330E+03  0.30329179603E+03  0.00000000000E+00 0.  1.
          1    1    6    6  503    0 -0.23522040591E+03 -0.25928374816E+03 -0.67465278469E+03  0.76007439196E+03  0.00000000000E+00 0. -1.
         -1    1    6    6    0  503 -0.14459500533E+03 -0.69923186229E+02 -0.31925151169E+03  0.35737724502E+03  0.00000000000E+00 0.  1.
<mgrwt>
<rscale>  0 0.22011024E+04</rscale>
<asrwt>0</asrwt>
<pdfrwt beam="1">  1        2 0.59408220E+00 0.22011024E+04</pdfrwt>
<pdfrwt beam="2">  1       -1 0.48255549E-01 0.22011024E+04</pdfrwt>
<totfact> 0.19788888E+00</totfact>
</mgrwt>
</event>
<event>
12    6  0.1457317E-007  0.1404813E+04  0.7818608E-02  0.8950342E-01
         -1   -1    0    0    0  501 -0.00000000000E+00  0.00000000000E+00  0.18946013472E+04  0.18946013472E+04  0.00000000000E+00 0.  1.
          2   -1    0    0  501    0  0.00000000000E+00 -0.00000000000E+00 -0.26041091054E+03  0.26041091054E+03  0.00000000000E+00 0. -1.
         24    2    1    2    0    0  0.12412522925E+03  0.38536098672E+03  0.39476052149E+03  0.57110762436E+03  0.80111713576E+02 0.  0.
        254    2    1    2    0    0 -0.12412522925E+03 -0.38536098672E+03  0.12394299151E+04  0.15839046333E+04  0.89925369632E+03 0.  0.
         23    2    4    4    0    0  0.78328724716E+02 -0.63781965379E+03  0.86126509910E+03  0.10783329490E+04  0.89861438110E+02 0.  0.
         23    2    4    4    0    0 -0.20245395397E+03  0.25245866706E+03  0.37816481604E+03  0.50557168436E+03  0.88719320790E+02 0.  0.
          2    1    3    3  502    0  0.32444926360E+01  0.28966727204E+01  0.25623371547E+02  0.25989894474E+02  0.00000000000E+00 0. -1.
         -1    1    3    3    0  502  0.12088073661E+03  0.38246431400E+03  0.36913714994E+03  0.54511772989E+03  0.00000000000E+00 0.  1.
         11    1    5    5    0    0  0.89021949940E+02 -0.58996383586E+03  0.76365548206E+03  0.96909851433E+03  0.00000000000E+00 0. -1.
        -11    1    5    5    0    0 -0.10693225224E+02 -0.47855817927E+02  0.97609617044E+02  0.10923443466E+03  0.00000000000E+00 0.  1.
          1    1    6    6  503    0 -0.19987345799E+03  0.22554680632E+03  0.37026375831E+03  0.47740550036E+03  0.00000000000E+00 0. -1.
         -1    1    6    6    0  503 -0.25804959773E+01  0.26911860741E+02  0.79010577295E+01  0.28166184002E+02  0.00000000000E+00 0.  1.
<mgrwt>
<rscale>  0 0.14048130E+04</rscale>
<asrwt>0</asrwt>
<pdfrwt beam="1">  1        2 0.40063218E-01 0.14048130E+04</pdfrwt>
<pdfrwt beam="2">  1       -1 0.29147712E+00 0.14048130E+04</pdfrwt>
<totfact> 0.53923297E+00</totfact>
</mgrwt>
</event>
<event>
12    6  0.1457317E-007  0.2300909E+04  0.7818608E-02  0.8477563E-01
          2   -1    0    0  501    0  0.00000000000E+00  0.00000000000E+00  0.77084837329E+03  0.77084837329E+03  0.00000000000E+00 0. -1.
         -1   -1    0    0    0  501 -0.00000000000E+00 -0.00000000000E+00 -0.17169980475E+04  0.17169980475E+04  0.00000000000E+00 0.  1.
         24    2    1    2    0    0  0.28518371581E+03 -0.21052890268E+03  0.57983357071E+03  0.68427283429E+03  0.79813353529E+02 0.  0.
        254    2    1    2    0    0 -0.28518371581E+03  0.21052890268E+03 -0.15259832449E+04  0.18035735865E+04  0.89364458676E+03 0.  0.
         23    2    4    4    0    0  0.23253450637E+03  0.27839533523E+03 -0.34327246240E+03  0.50744463188E+03  0.89932261447E+02 0.  0.
         23    2    4    4    0    0 -0.51771822218E+03 -0.67866432543E+02 -0.11827107825E+04  0.12961289546E+04  0.92235902072E+02 0.  0.
          2    1    3    3  502    0  0.14786359235E+03 -0.15313751091E+03  0.30876966594E+03  0.37503792580E+03  0.00000000000E+00 0. -1.
         -1    1    3    3    0  502  0.13732012346E+03 -0.57391391779E+02  0.27106390477E+03  0.30923490849E+03  0.00000000000E+00 0.  1.
         11    1    5    5    0    0  0.23299056400E+03  0.27623284193E+03 -0.31589454047E+03  0.47997765216E+03  0.00000000000E+00 0.  1.
        -11    1    5    5    0    0 -0.45605762209E+00  0.21624932973E+01 -0.27377921928E+02  0.27466979719E+02  0.00000000000E+00 0. -1.
          4    1    6    6  503    0 -0.21643070847E+03 -0.31277708342E+02 -0.38713355936E+03  0.44462674165E+03  0.00000000000E+00 0. -1.
         -4    1    6    6    0  503 -0.30128751372E+03 -0.36588724202E+02 -0.79557722313E+03  0.85150221293E+03  0.00000000000E+00 0.  1.
<mgrwt>
<rscale>  0 0.23009086E+04</rscale>
<asrwt>0</asrwt>
<pdfrwt beam="1">  1        2 0.11859206E+00 0.23009086E+04</pdfrwt>
<pdfrwt beam="2">  1       -1 0.26415354E+00 0.23009086E+04</pdfrwt>
<totfact> 0.21100684E+00</totfact>
</mgrwt>
</event>
<event>
12    6  0.1457317E-007  0.2810283E+04  0.7818608E-02  0.8300083E-01
         -1   -1    0    0    0  501 -0.00000000000E+00  0.00000000000E+00  0.11612025435E+04  0.11612025435E+04  0.00000000000E+00 0.  1.
          2   -1    0    0  501    0  0.00000000000E+00 -0.00000000000E+00 -0.17003253920E+04  0.17003253920E+04  0.00000000000E+00 0. -1.
         24    2    1    2    0    0  0.10642160760E+04  0.47698174565E+03  0.24651705935E+03  0.11948375221E+04  0.82453633757E+02 0.  0.
        254    2    1    2    0    0 -0.10642160760E+04 -0.47698174565E+03 -0.78563990781E+03  0.16666904133E+04  0.89473986555E+03 0.  0.
         23    2    4    4    0    0 -0.40434172855E+03 -0.10454014046E+03 -0.79572128235E+03  0.90322993366E+03  0.90725296692E+02 0.  0.
         23    2    4    4    0    0 -0.65987434743E+03 -0.37244160518E+03  0.10081374537E+02  0.76346047965E+03  0.92862081608E+02 0.  0.
          4    1    3    3  502    0  0.60471331143E+02  0.49367435198E+02  0.14266275972E+02  0.79356487941E+02  0.00000000000E+00 0. -1.
         -3    1    3    3    0  502  0.10037447448E+04  0.42761431045E+03  0.23225078337E+03  0.11154810342E+04  0.00000000000E+00 0.  1.
         11    1    5    5    0    0 -0.35146995457E+03 -0.86881910878E+02 -0.61028489143E+03  0.70959653614E+03  0.00000000000E+00 0. -1.
        -11    1    5    5    0    0 -0.52871773988E+02 -0.17658229586E+02 -0.18543639092E+03  0.19363339752E+03  0.00000000000E+00 0.  1.
          1    1    6    6  503    0 -0.37986416762E+03 -0.26427825994E+03  0.19151209585E+02  0.46314852190E+03  0.00000000000E+00 0. -1.
         -1    1    6    6    0  503 -0.28001017982E+03 -0.10816334525E+03 -0.90698350480E+01  0.30031195774E+03  0.00000000000E+00 0.  1.
<mgrwt>
<rscale>  0 0.28102827E+04</rscale>
<asrwt>0</asrwt>
<pdfrwt beam="1">  1        2 0.26158852E+00 0.28102827E+04</pdfrwt>
<pdfrwt beam="2">  1       -1 0.17864655E+00 0.28102827E+04</pdfrwt>
<totfact> 0.20649110E+00</totfact>
</mgrwt>
</event>
<event>
12    6  0.1457317E-007  0.2063126E+04  0.7818608E-02  0.8577663E-01
          2   -1    0    0  501    0  0.00000000000E+00  0.00000000000E+00  0.77807841972E+03  0.77807841972E+03  0.00000000000E+00 0. -1.
         -1   -1    0    0    0  501 -0.00000000000E+00 -0.00000000000E+00 -0.13676278756E+04  0.13676278756E+04  0.00000000000E+00 0.  1.
         24    2    1    2    0    0  0.58514422215E+03  0.27007727465E+03  0.30974868744E+03  0.71947296929E+03  0.79759696330E+02 0.  0.
        254    2    1    2    0    0 -0.58514422215E+03 -0.27007727465E+03 -0.89929814332E+03  0.14262333260E+04  0.90003825181E+03 0.  0.
         23    2    4    4    0    0 -0.55931867851E+03 -0.52993302261E+03 -0.83969894694E+03  0.11432407789E+04  0.90767639797E+02 0.  0.
         23    2    4    4    0    0 -0.25825543642E+02  0.25985574796E+03 -0.59599196379E+02  0.28299254715E+03  0.91327701610E+02 0.  0.
          2    1    3    3  502    0  0.43081381908E+03  0.18116237941E+03  0.18812389674E+03  0.50379654122E+03  0.00000000000E+00 0. -1.
         -1    1    3    3    0  502  0.15433040307E+03  0.88914895248E+02  0.12162479070E+03  0.21567642806E+03  0.00000000000E+00 0.  1.
         11    1    5    5    0    0 -0.23861795942E+03 -0.16559665140E+03 -0.31406842652E+03  0.42778470993E+03  0.00000000000E+00 0. -1.
        -11    1    5    5    0    0 -0.32070071909E+03 -0.36433637121E+03 -0.52563052042E+03  0.71545606896E+03  0.00000000000E+00 0.  1.
          2    1    6    6  503    0 -0.11197182709E+02  0.70489156967E+02  0.24245162056E+02  0.75378551549E+02  0.00000000000E+00 0. -1.
         -2    1    6    6    0  503 -0.14628360933E+02  0.18936659099E+03 -0.83844358436E+02  0.20761399560E+03  0.00000000000E+00 0.  1.
<mgrwt>
<rscale>  0 0.20631255E+04</rscale>
<asrwt>0</asrwt>
<pdfrwt beam="1">  1        2 0.11970437E+00 0.20631255E+04</pdfrwt>
<pdfrwt beam="2">  1       -1 0.21040429E+00 0.20631255E+04</pdfrwt>
<totfact> 0.48155608E+00</totfact>
</mgrwt>
</event>
<event>
12    6  0.1457317E-007  0.1473037E+04  0.7818608E-02  0.8902584E-01
         -3   -1    0    0    0  501 -0.00000000000E+00  0.00000000000E+00  0.45255729598E+03  0.45255729598E+03  0.00000000000E+00 0.  1.
          2   -1    0    0  501    0  0.00000000000E+00 -0.00000000000E+00 -0.11986536705E+04  0.11986536705E+04  0.00000000000E+00 0. -1.
         24    2    1    2    0    0  0.62256766797E+02 -0.14738985153E+03 -0.70661382488E+03  0.72919133753E+03  0.82566554179E+02 0.  0.
        254    2    1    2    0    0 -0.62256766797E+02  0.14738985153E+03 -0.39482549633E+02  0.92201962894E+03  0.90717233814E+03 0.  0.
         23    2    4    4    0    0 -0.40925232977E+03 -0.15493346612E+03  0.27759983432E+02  0.44797147309E+03  0.91738626970E+02 0.  0.
         23    2    4    4    0    0  0.34699556297E+03  0.30232331765E+03 -0.67242533065E+02  0.47404815585E+03  0.91623068576E+02 0.  0.
          2    1    3    3  502    0  0.62684392117E+02 -0.69052728850E+02 -0.49120521808E+03  0.49998017825E+03  0.00000000000E+00 0. -1.
         -1    1    3    3    0  502 -0.42762532039E+00 -0.78337122677E+02 -0.21540860680E+03  0.22921115928E+03  0.00000000000E+00 0.  1.
         11    1    5    5    0    0 -0.25526318656E+03 -0.51090771891E+02  0.31343793852E+02  0.26220601595E+03  0.00000000000E+00 0.  1.
        -11    1    5    5    0    0 -0.15398914321E+03 -0.10384269423E+03 -0.35838104207E+01  0.18576545714E+03  0.00000000000E+00 0. -1.
          1    1    6    6  503    0  0.10602131164E+03  0.54988394617E+02  0.11128886385E+02  0.11995038215E+03  0.00000000000E+00 0. -1.
         -1    1    6    6    0  503  0.24097425133E+03  0.24733492303E+03 -0.78371419450E+02  0.35409777370E+03  0.00000000000E+00 0.  1.
<mgrwt>
<rscale>  0 0.14730369E+04</rscale>
<asrwt>0</asrwt>
<pdfrwt beam="1">  1        2 0.18440825E+00 0.14730369E+04</pdfrwt>
<pdfrwt beam="2">  1       -3 0.69624200E-01 0.14730369E+04</pdfrwt>
<totfact> 0.23102302E+01</totfact>
</mgrwt>
</event>
<event>
12    6  0.1457317E-007  0.1284025E+04  0.7818608E-02  0.9042330E-01
          2   -1    0    0  501    0  0.00000000000E+00  0.00000000000E+00  0.16292738840E+04  0.16292738840E+04  0.00000000000E+00 0. -1.
         -1   -1    0    0    0  501 -0.00000000000E+00 -0.00000000000E+00 -0.25298398361E+03  0.25298398361E+03  0.00000000000E+00 0.  1.
         24    2    1    2    0    0  0.33296492290E+02 -0.31644363172E+02 -0.11081522628E+03  0.14369638859E+03  0.79111412574E+02 0.  0.
        254    2    1    2    0    0 -0.33296492290E+02  0.31644363172E+02  0.14871051267E+04  0.17385614790E+04  0.89944668350E+03 0.  0.
         23    2    4    4    0    0  0.41301475276E+03  0.52377066051E+02  0.54502351393E+03  0.69179196882E+03  0.90559120711E+02 0.  0.
         23    2    4    4    0    0 -0.44631124505E+03 -0.20732702878E+02  0.94208161277E+03  0.10467695102E+04  0.92655652763E+02 0.  0.
          4    1    3    3  502    0 -0.25477417082E+02 -0.16536700128E+02 -0.30629680624E+02  0.43136279017E+02  0.00000000000E+00 0. -1.
         -3    1    3    3    0  502  0.58773909372E+02 -0.15107663045E+02 -0.80185545654E+02  0.10056010957E+03  0.00000000000E+00 0.  1.
         11    1    5    5    0    0  0.25893882556E+03  0.76153275541E+02  0.35688448682E+03  0.44745410232E+03  0.00000000000E+00 0. -1.
        -11    1    5    5    0    0  0.15407592721E+03 -0.23776209490E+02  0.18813902711E+03  0.24433786650E+03  0.00000000000E+00 0.  1.
          2    1    6    6  503    0 -0.18413315632E+02  0.10604758249E+02  0.93586617853E+02  0.95968568454E+02  0.00000000000E+00 0. -1.
         -2    1    6    6    0  503 -0.42789792942E+03 -0.31337461128E+02  0.84849499492E+03  0.95080094177E+03  0.00000000000E+00 0.  1.
<mgrwt>
<rscale>  0 0.12840252E+04</rscale>
<asrwt>0</asrwt>
<pdfrwt beam="1">  1        2 0.25065751E+00 0.12840252E+04</pdfrwt>
<pdfrwt beam="2">  1       -1 0.38920614E-01 0.12840252E+04</pdfrwt>
<totfact> 0.76862555E+01</totfact>
</mgrwt>
</event>
<event>
12    6  0.1457317E-007  0.1237211E+04  0.7818608E-02  0.9080895E-01
          2   -1    0    0  501    0  0.00000000000E+00  0.00000000000E+00  0.45736178240E+03  0.45736178240E+03  0.00000000000E+00 0. -1.
         -1   -1    0    0    0  501 -0.00000000000E+00 -0.00000000000E+00 -0.83669631988E+03  0.83669631988E+03  0.00000000000E+00 0.  1.
         24    2    1    2    0    0  0.60990963006E+02  0.68720468071E+02 -0.37022433376E+03  0.38953766713E+03  0.78937548122E+02 0.  0.
        254    2    1    2    0    0 -0.60990963006E+02 -0.68720468071E+02 -0.91102037152E+01  0.90452043515E+03  0.89979543314E+03 0.  0.
         23    2    4    4    0    0 -0.11856013596E+03 -0.45949314882E+03 -0.89075744407E+02  0.49112835365E+03  0.89900566522E+02 0.  0.
         23    2    4    4    0    0  0.57569172957E+02  0.39077268075E+03  0.79965540692E+02  0.41339208150E+03  0.92092495093E+02 0.  0.
          4    1    3    3  502    0  0.57959113968E+02  0.19826851956E+02 -0.28247166131E+03  0.28903737197E+03  0.00000000000E+00 0. -1.
         -3    1    3    3    0  502  0.30318490379E+01  0.48893616114E+02 -0.87752672448E+02  0.10050029516E+03  0.00000000000E+00 0.  1.
         11    1    5    5    0    0 -0.23736597127E+02 -0.26959432104E+03 -0.45249958695E+02  0.27439402825E+03  0.00000000000E+00 0. -1.
        -11    1    5    5    0    0 -0.94823538836E+02 -0.18989882779E+03 -0.43825785712E+02  0.21673432540E+03  0.00000000000E+00 0.  1.
          1    1    6    6  503    0  0.16229597885E+02  0.33671842674E+03  0.59402892631E+02  0.34230308559E+03  0.00000000000E+00 0. -1.
         -1    1    6    6    0  503  0.41339575072E+02  0.54054254013E+02  0.20562648061E+02  0.71088995909E+02  0.00000000000E+00 0.  1.
<mgrwt>
<rscale>  0 0.12372113E+04</rscale>
<asrwt>0</asrwt>
<pdfrwt beam="1">  1        2 0.70363351E-01 0.12372113E+04</pdfrwt>
<pdfrwt beam="2">  1       -1 0.12872251E+00 0.12372113E+04</pdfrwt>
<totfact> 0.39980019E+01</totfact>
</mgrwt>
</event>
<event>
12    6  0.1457317E-007  0.2007323E+04  0.7818608E-02  0.8603205E-01
         -1   -1    0    0    0  501 -0.00000000000E+00  0.00000000000E+00  0.83855355430E+03  0.83855355430E+03  0.00000000000E+00 0.  1.
          2   -1    0    0  501    0  0.00000000000E+00 -0.00000000000E+00 -0.12012782534E+04  0.12012782534E+04  0.00000000000E+00 0. -1.
         24    2    1    2    0    0 -0.30360337065E+03  0.21497006434E+03 -0.86038447733E+03  0.94044778085E+03  0.76114679607E+02 0.  0.
        254    2    1    2    0    0  0.30360337065E+03 -0.21497006434E+03  0.49765977819E+03  0.10993840269E+04  0.90696904496E+03 0.  0.
         23    2    4    4    0    0  0.56977339908E+03  0.16044844766E+02  0.45139117974E+03  0.73270953549E+03  0.90609618198E+02 0.  0.
         23    2    4    4    0    0 -0.26617002843E+03 -0.23101490911E+03  0.46268598454E+02  0.36667449140E+03  0.89972368969E+02 0.  0.
          2    1    3    3  502    0 -0.19220243486E+03  0.14328310135E+03 -0.46007055919E+03  0.51878390736E+03  0.00000000000E+00 0. -1.
         -1    1    3    3    0  502 -0.11140093579E+03  0.71686962991E+02 -0.40031391813E+03  0.42166387349E+03  0.00000000000E+00 0.  1.
         11    1    5    5    0    0  0.33833323354E+03  0.35242883349E+02  0.22143989126E+03  0.40589045712E+03  0.00000000000E+00 0.  1.
        -11    1    5    5    0    0  0.23144016554E+03 -0.19198038584E+02  0.22995128848E+03  0.32681907837E+03  0.00000000000E+00 0. -1.
          3    1    6    6  503    0 -0.10016941015E+03 -0.14001244916E+03  0.15773352565E+01  0.17216237869E+03  0.00000000000E+00 0. -1.
         -3    1    6    6    0  503 -0.16600061827E+03 -0.91002459944E+02  0.44691263197E+02  0.19451211271E+03  0.00000000000E+00 0.  1.
<mgrwt>
<rscale>  0 0.20073227E+04</rscale>
<asrwt>0</asrwt>
<pdfrwt beam="1">  1        2 0.18481204E+00 0.20073227E+04</pdfrwt>
<pdfrwt beam="2">  1       -1 0.12900824E+00 0.20073227E+04</pdfrwt>
<totfact> 0.10350282E+01</totfact>
</mgrwt>
</event>
<event>
12    6  0.1457317E-007  0.1441794E+04  0.7818608E-02  0.8924109E-01
          2   -1    0    0  501    0  0.00000000000E+00  0.00000000000E+00  0.18817903960E+04  0.18817903960E+04  0.00000000000E+00 0. -1.
         -1   -1    0    0    0  501 -0.00000000000E+00 -0.00000000000E+00 -0.27616917282E+03  0.27616917282E+03  0.00000000000E+00 0.  1.
         24    2    1    2    0    0 -0.33877315849E+03  0.10600801666E+03  0.85476666939E+03  0.92890419914E+03  0.78943014684E+02 0.  0.
        254    2    1    2    0    0  0.33877315849E+03 -0.10600801666E+03  0.75085455379E+03  0.12290553697E+04  0.90597438612E+03 0.  0.
         23    2    4    4    0    0 -0.12466693664E+02 -0.39196024978E+03  0.63602976823E+03  0.75274243461E+03  0.91099126957E+02 0.  0.
         23    2    4    4    0    0  0.35123985215E+03  0.28595223312E+03  0.11482478556E+03  0.47631293508E+03  0.92472522316E+02 0.  0.
          2    1    3    3  502    0 -0.14865760348E+03  0.32396910659E+02  0.46154154323E+03  0.48597246735E+03  0.00000000000E+00 0. -1.
         -1    1    3    3    0  502 -0.19011555501E+03  0.73611106004E+02  0.39322512616E+03  0.44293173179E+03  0.00000000000E+00 0.  1.
         11    1    5    5    0    0  0.14308833910E+02 -0.36203814105E+03  0.57808243416E+03  0.68224310842E+03  0.00000000000E+00 0. -1.
        -11    1    5    5    0    0 -0.26775527574E+02 -0.29922108733E+02  0.57947334069E+02  0.70499326193E+02  0.00000000000E+00 0.  1.
          2    1    6    6  503    0  0.18247336456E+02  0.10591174416E+02  0.28856905412E+02  0.35747157274E+02  0.00000000000E+00 0.  1.
         -2    1    6    6    0  503  0.33299251569E+03  0.27536105870E+03  0.85967880151E+02  0.44056577781E+03  0.00000000000E+00 0. -1.
<mgrwt>
<rscale>  0 0.14417940E+04</rscale>
<asrwt>0</asrwt>
<pdfrwt beam="1">  1        2 0.28950621E+00 0.14417940E+04</pdfrwt>
<pdfrwt beam="2">  1       -1 0.42487566E-01 0.14417940E+04</pdfrwt>
<totfact> 0.46833588E+01</totfact>
</mgrwt>
</event>
<event>
12    6  0.1457317E-007  0.3940741E+04  0.7818608E-02  0.8016609E-01
          2   -1    0    0  501    0  0.00000000000E+00  0.00000000000E+00  0.34794092531E+04  0.34794092531E+04  0.00000000000E+00 0. -1.
         -1   -1    0    0    0  501 -0.00000000000E+00 -0.00000000000E+00 -0.11158101845E+04  0.11158101845E+04  0.00000000000E+00 0.  1.
         24    2    1    2    0    0 -0.15933405547E+04  0.74055561934E+03  0.42512648725E+03  0.18094618225E+04  0.79137908460E+02 0.  0.
        254    2    1    2    0    0  0.15933405547E+04 -0.74055561934E+03  0.19384725814E+04  0.27857576151E+04  0.95687658174E+03 0.  0.
         23    2    4    4    0    0  0.13962575647E+04 -0.51510927413E+03  0.19703677029E+04  0.24708606661E+04  0.89055012988E+02 0.  0.
         23    2    4    4    0    0  0.19708298997E+03 -0.22544634522E+03 -0.31895121519E+02  0.31489694898E+03  0.92059927202E+02 0.  0.
          2    1    3    3  502    0 -0.26021104516E+03  0.14508361107E+03  0.92803548668E+02  0.31204413289E+03  0.00000000000E+00 0. -1.
         -1    1    3    3    0  502 -0.13331295095E+04  0.59547200828E+03  0.33232293859E+03  0.14974176896E+04  0.00000000000E+00 0.  1.
         11    1    5    5    0    0  0.74205939723E+03 -0.28843274681E+03  0.98366330532E+03  0.12654797891E+04  0.00000000000E+00 0.  1.
        -11    1    5    5    0    0  0.65419816746E+03 -0.22667652732E+03  0.98670439755E+03  0.12053808769E+04  0.00000000000E+00 0. -1.
          3    1    6    6  503    0  0.20233411102E+03 -0.19224042535E+03 -0.34274657455E+02  0.28119428473E+03  0.00000000000E+00 0. -1.
         -3    1    6    6    0  503 -0.52511210543E+01 -0.33205919864E+02  0.23795359357E+01  0.33702664251E+02  0.00000000000E+00 0.  1.
<mgrwt>
<rscale>  0 0.39407412E+04</rscale>
<asrwt>0</asrwt>
<pdfrwt beam="1">  1        2 0.53529372E+00 0.39407412E+04</pdfrwt>
<pdfrwt beam="2">  1       -1 0.17166311E+00 0.39407412E+04</pdfrwt>
<totfact> 0.18054686E-01</totfact>
</mgrwt>
</event>
<event>
12    6  0.1457317E-007  0.1673753E+04  0.7818608E-02  0.8776477E-01
          2   -1    0    0  501    0  0.00000000000E+00  0.00000000000E+00  0.26203026660E+04  0.26203026660E+04  0.00000000000E+00 0. -1.
         -1   -1    0    0    0  501 -0.00000000000E+00 -0.00000000000E+00 -0.26728288304E+03  0.26728288304E+03  0.00000000000E+00 0.  1.
         24    2    1    2    0    0  0.28221749857E+03  0.80651799273E+02 -0.61746636093E+02  0.31039431952E+03  0.79878390654E+02 0.  0.
        254    2    1    2    0    0 -0.28221749857E+03 -0.80651799273E+02  0.24147664191E+04  0.25771912296E+04  0.85127336723E+03 0.  0.
         23    2    4    4    0    0 -0.44866624742E+02 -0.30374257371E+03  0.20610823784E+04  0.20857412957E+04  0.89351087407E+02 0.  0.
         23    2    4    4    0    0 -0.23735087383E+03  0.22309077443E+03  0.35368404064E+03  0.49144993384E+03  0.10161548074E+03 0.  0.
          2    1    3    3  502    0  0.73033819305E+02 -0.13691946152E+02 -0.82175881267E+01  0.74759192788E+02  0.00000000000E+00 0. -1.
         -1    1    3    3    0  502  0.20918367927E+03  0.94343745424E+02 -0.53529047967E+02  0.23563512673E+03  0.00000000000E+00 0.  1.
         11    1    5    5    0    0  0.79628449603E+01 -0.14950267984E+03  0.77135966770E+03  0.78575453873E+03  0.00000000000E+00 0. -1.
        -11    1    5    5    0    0 -0.52829469702E+02 -0.15423989386E+03  0.12897227107E+04  0.12999867570E+04  0.00000000000E+00 0.  1.
          2    1    6    6  503    0  0.21518804790E+01 -0.61342600970E+01  0.20194078411E+02  0.21214630315E+02  0.00000000000E+00 0. -1.
         -2    1    6    6    0  503 -0.23950275431E+03  0.22922503453E+03  0.33348996223E+03  0.47023530353E+03  0.00000000000E+00 0.  1.
<mgrwt>
<rscale>  0 0.16737527E+04</rscale>
<asrwt>0</asrwt>
<pdfrwt beam="1">  1        2 0.40312347E+00 0.16737527E+04</pdfrwt>
<pdfrwt beam="2">  1       -1 0.41120445E-01 0.16737527E+04</pdfrwt>
<totfact> 0.18655076E+01</totfact>
</mgrwt>
</event>
<event>
12    6  0.1457317E-007  0.2796394E+04  0.7818608E-02  0.8304389E-01
         -1   -1    0    0    0  501 -0.00000000000E+00  0.00000000000E+00  0.70530611893E+03  0.70530611893E+03  0.00000000000E+00 0.  1.
          2   -1    0    0  501    0  0.00000000000E+00 -0.00000000000E+00 -0.27717825668E+04  0.27717825668E+04  0.00000000000E+00 0. -1.
         24    2    1    2    0    0 -0.52468663583E+03  0.65756324180E+03  0.22615010912E+03  0.87481099165E+03  0.80404704402E+02 0.  0.
        254    2    1    2    0    0  0.52468663583E+03 -0.65756324180E+03 -0.22926265570E+04  0.26022776941E+04  0.89890332324E+03 0.  0.
         23    2    4    4    0    0  0.19982066035E+03 -0.61361192496E+03 -0.21265971964E+04  0.22241896143E+04  0.90310097340E+02 0.  0.
         23    2    4    4    0    0  0.32486597548E+03 -0.43951316841E+02 -0.16602936054E+03  0.37808807978E+03  0.88967562827E+02 0.  0.
          2    1    3    3  502    0 -0.14338736290E+03  0.17399887319E+03  0.97806586316E+02  0.24576751624E+03  0.00000000000E+00 0. -1.
         -1    1    3    3    0  502 -0.38129927293E+03  0.48356436861E+03  0.12834352280E+03  0.62904347542E+03  0.00000000000E+00 0.  1.
         11    1    5    5    0    0  0.13500870880E+03 -0.52327921045E+03 -0.17707292599E+04  0.18513591211E+04  0.00000000000E+00 0. -1.
        -11    1    5    5    0    0  0.64811951545E+02 -0.90332714504E+02 -0.35586793655E+03  0.37283049317E+03  0.00000000000E+00 0.  1.
          1    1    6    6  503    0  0.22068298795E+03  0.93333712786E+01 -0.12668963105E+03  0.25463376761E+03  0.00000000000E+00 0. -1.
         -1    1    6    6    0  503  0.10418298752E+03 -0.53284688119E+02 -0.39339729498E+02  0.12345431217E+03  0.00000000000E+00 0.  1.
<mgrwt>
<rscale>  0 0.27963943E+04</rscale>
<asrwt>0</asrwt>
<pdfrwt beam="1">  1        2 0.42642809E+00 0.27963943E+04</pdfrwt>
<pdfrwt beam="2">  1       -1 0.10850863E+00 0.27963943E+04</pdfrwt>
<totfact> 0.18747529E+00</totfact>
</mgrwt>
</event>
<event>
12    6  0.1457317E-007  0.1527863E+04  0.7818608E-02  0.8866133E-01
         -1   -1    0    0    0  501 -0.00000000000E+00  0.00000000000E+00  0.29695883195E+03  0.29695883195E+03  0.00000000000E+00 0.  1.
          2   -1    0    0  501    0  0.00000000000E+00 -0.00000000000E+00 -0.19652255781E+04  0.19652255781E+04  0.00000000000E+00 0. -1.
         24    2    1    2    0    0 -0.28747866626E+03 -0.18838122796E+03 -0.10570140264E+04  0.11139285541E+04  0.73666145440E+02 0.  0.
        254    2    1    2    0    0  0.28747866626E+03  0.18838122796E+03 -0.61125271966E+03  0.11482558559E+04  0.90924702510E+03 0.  0.
         23    2    4    4    0    0  0.24985188416E+03  0.11826201841E+03  0.18371646647E+03  0.34364978775E+03  0.89059348482E+02 0.  0.
         23    2    4    4    0    0  0.37626782109E+02  0.70119209548E+02 -0.79496918613E+03  0.80460606813E+03  0.95301834713E+02 0.  0.
          4    1    3    3  502    0 -0.27554538561E+03 -0.19523556162E+03 -0.10189743651E+04  0.10734761017E+04  0.00000000000E+00 0. -1.
         -3    1    3    3    0  502 -0.11933280654E+02  0.68543336558E+01 -0.38039661330E+02  0.40452452474E+02  0.00000000000E+00 0.  1.
         11    1    5    5    0    0  0.89854331248E+02  0.86863273896E+01  0.26726476571E+02  0.94146469277E+02  0.00000000000E+00 0.  1.
        -11    1    5    5    0    0  0.15999755291E+03  0.10957569102E+03  0.15698998990E+03  0.24950331847E+03  0.00000000000E+00 0. -1.
          3    1    6    6  503    0  0.11355705961E+02  0.27370879481E+02 -0.65913823250E+03  0.65980400623E+03  0.00000000000E+00 0. -1.
         -3    1    6    6    0  503  0.26271076148E+02  0.42748330067E+02 -0.13583095363E+03  0.14480206190E+03  0.00000000000E+00 0.  1.
<mgrwt>
<rscale>  0 0.15278627E+04</rscale>
<asrwt>0</asrwt>
<pdfrwt beam="1">  1        2 0.30234239E+00 0.15278627E+04</pdfrwt>
<pdfrwt beam="2">  1       -1 0.45685975E-01 0.15278627E+04</pdfrwt>
<totfact> 0.36532777E+01</totfact>
</mgrwt>
</event>
<event>
12    6  0.1457317E-007  0.4453282E+04  0.7818608E-02  0.7918867E-01
         -1   -1    0    0    0  501 -0.00000000000E+00  0.00000000000E+00  0.16469942033E+04  0.16469942033E+04  0.00000000000E+00 0.  1.
          2   -1    0    0  501    0  0.00000000000E+00 -0.00000000000E+00 -0.30102895958E+04  0.30102895958E+04  0.00000000000E+00 0. -1.
         24    2    1    2    0    0  0.86559259417E+03 -0.14495896739E+03 -0.26904896729E+04  0.28311403408E+04  0.79732728743E+02 0.  0.
        254    2    1    2    0    0 -0.86559259417E+03  0.14495896739E+03  0.13271942804E+04  0.18261434583E+04  0.89615379866E+03 0.  0.
         23    2    4    4    0    0 -0.95637843804E+03 -0.10852876284E+03  0.97368893573E+03  0.13725623479E+04  0.97051770546E+02 0.  0.
         23    2    4    4    0    0  0.90785843870E+02  0.25348773023E+03  0.35350534472E+03  0.45358111039E+03  0.90948865468E+02 0.  0.
          4    1    3    3  502    0  0.61948173770E+03 -0.11515587441E+03 -0.18169126961E+04  0.19230679250E+04  0.00000000000E+00 0. -1.
         -3    1    3    3    0  502  0.24611085647E+03 -0.29803092980E+02 -0.87357697680E+03  0.90807241585E+03  0.00000000000E+00 0.  1.
         11    1    5    5    0    0 -0.46932588022E+03 -0.48541649357E+01  0.48136096496E+03  0.67230850311E+03  0.00000000000E+00 0. -1.
        -11    1    5    5    0    0 -0.48705255783E+03 -0.10367459791E+03  0.49232797076E+03  0.70025384478E+03  0.00000000000E+00 0.  1.
          2    1    6    6  503    0  0.96095893937E+02  0.23023850540E+03  0.27395988765E+03  0.37053773120E+03  0.00000000000E+00 0. -1.
         -2    1    6    6    0  503 -0.53100500670E+01  0.23249224837E+02  0.79545457071E+02  0.83043379193E+02  0.00000000000E+00 0.  1.
<mgrwt>
<rscale>  0 0.44532817E+04</rscale>
<asrwt>0</asrwt>
<pdfrwt beam="1">  1        2 0.46312148E+00 0.44532817E+04</pdfrwt>
<pdfrwt beam="2">  1       -1 0.25338372E+00 0.44532817E+04</pdfrwt>
<totfact> 0.98152274E-02</totfact>
</mgrwt>
</event>
<event>
12    6  0.1457317E-007  0.2016185E+04  0.7818608E-02  0.8599091E-01
         -1   -1    0    0    0  501 -0.00000000000E+00  0.00000000000E+00  0.39213490677E+03  0.39213490677E+03  0.00000000000E+00 0.  1.
          2   -1    0    0  501    0  0.00000000000E+00 -0.00000000000E+00 -0.25915836285E+04  0.25915836285E+04  0.00000000000E+00 0. -1.
         24    2    1    2    0    0 -0.40982320286E+03  0.93800061988E+01 -0.19113905312E+04  0.19564934952E+04  0.80062425779E+02 0.  0.
        254    2    1    2    0    0  0.40982320286E+03 -0.93800061988E+01 -0.28805819057E+03  0.10272250401E+04  0.89675566331E+03 0.  0.
         23    2    4    4    0    0  0.63236711924E+03  0.15768003735E+03 -0.68518844425E+02  0.66140902027E+03  0.89531516077E+02 0.  0.
         23    2    4    4    0    0 -0.22254391639E+03 -0.16706004355E+03 -0.21953934614E+03  0.36581601980E+03  0.90492999530E+02 0.  0.
          4    1    3    3  502    0 -0.36959480323E+03 -0.43782317579E+01 -0.17929646790E+04  0.18306670444E+04  0.00000000000E+00 0. -1.
         -3    1    3    3    0  502 -0.40228399630E+02  0.13758237957E+02 -0.11842585219E+03  0.12582645078E+03  0.00000000000E+00 0.  1.
         11    1    5    5    0    0  0.18446741540E+01  0.62737332944E+01  0.57704206665E+01  0.87212560364E+01  0.00000000000E+00 0.  1.
        -11    1    5    5    0    0  0.63052244509E+03  0.15140630406E+03 -0.74289265091E+02  0.65268776423E+03  0.00000000000E+00 0. -1.
          1    1    6    6  503    0 -0.12231061158E+03 -0.13583282355E+03 -0.17042631666E+03  0.24991112634E+03  0.00000000000E+00 0. -1.
         -1    1    6    6    0  503 -0.10023330481E+03 -0.31227219998E+02 -0.49113029477E+02  0.11590489345E+03  0.00000000000E+00 0.  1.
<mgrwt>
<rscale>  0 0.20161849E+04</rscale>
<asrwt>0</asrwt>
<pdfrwt beam="1">  1        2 0.39870519E+00 0.20161849E+04</pdfrwt>
<pdfrwt beam="2">  1       -1 0.60328445E-01 0.20161849E+04</pdfrwt>
<totfact> 0.90642917E+00</totfact>
</mgrwt>
</event>
<event>
12    6  0.1457317E-007  0.1519752E+04  0.7818608E-02  0.8871423E-01
         -1   -1    0    0    0  501 -0.00000000000E+00  0.00000000000E+00  0.70829772857E+03  0.70829772857E+03  0.00000000000E+00 0.  1.
          2   -1    0    0  501    0  0.00000000000E+00 -0.00000000000E+00 -0.81521000127E+03  0.81521000127E+03  0.00000000000E+00 0. -1.
         24    2    1    2    0    0  0.11708142194E+03 -0.40621562825E+03  0.13078381020E+03  0.44987558001E+03  0.81021210056E+02 0.  0.
        254    2    1    2    0    0 -0.11708142194E+03  0.40621562825E+03 -0.23769608290E+03  0.10736321498E+04  0.95784516980E+03 0.  0.
         23    2    4    4    0    0  0.13586506046E+02 -0.29977532839E+03 -0.59636493162E+01  0.31379140105E+03  0.91540360503E+02 0.  0.
         23    2    4    4    0    0 -0.13066792799E+03  0.70599095664E+03 -0.23173243358E+03  0.75984074878E+03  0.90336617515E+02 0.  0.
          2    1    3    3  502    0  0.39371533481E+02 -0.65184858868E+02  0.49361808101E+02  0.90751151912E+02  0.00000000000E+00 0. -1.
         -1    1    3    3    0  502  0.77709888463E+02 -0.34103076939E+03  0.81422002097E+02  0.35912442810E+03  0.00000000000E+00 0.  1.
         11    1    5    5    0    0  0.40747068595E+02 -0.26917792216E+03 -0.11600875583E+02  0.27249157361E+03  0.00000000000E+00 0. -1.
        -11    1    5    5    0    0 -0.27160562549E+02 -0.30597406231E+02  0.56372262672E+01  0.41299827434E+02  0.00000000000E+00 0.  1.
          3    1    6    6  503    0 -0.83399903510E+02  0.22181652677E+03 -0.67779595079E+02  0.24647959137E+03  0.00000000000E+00 0. -1.
         -3    1    6    6    0  503 -0.47268024480E+02  0.48417442987E+03 -0.16395283850E+03  0.51336115740E+03  0.00000000000E+00 0.  1.
<mgrwt>
<rscale>  0 0.15197518E+04</rscale>
<asrwt>0</asrwt>
<pdfrwt beam="1">  1        2 0.12541692E+00 0.15197518E+04</pdfrwt>
<pdfrwt beam="2">  1       -1 0.10896888E+00 0.15197518E+04</pdfrwt>
<totfact> 0.28879018E+01</totfact>
</mgrwt>
</event>
<event>
12    6  0.1457317E-007  0.1135165E+04  0.7818608E-02  0.9171579E-01
          2   -1    0    0  501    0  0.00000000000E+00  0.00000000000E+00  0.10525463567E+04  0.10525463567E+04  0.00000000000E+00 0. -1.
         -1   -1    0    0    0  501 -0.00000000000E+00 -0.00000000000E+00 -0.30606738433E+03  0.30606738433E+03  0.00000000000E+00 0.  1.
         24    2    1    2    0    0  0.34894457330E+02  0.17827862403E+03  0.43115327617E+02  0.20385679489E+03  0.81839907191E+02 0.  0.
        254    2    1    2    0    0 -0.34894457330E+02 -0.17827862403E+03  0.70336364471E+03  0.11547569461E+04  0.89763149284E+03 0.  0.
         23    2    4    4    0    0  0.39528728959E+03 -0.13094342790E+03  0.52834799951E+03  0.67881560836E+03  0.90778846287E+02 0.  0.
         23    2    4    4    0    0 -0.43018174692E+03 -0.47335196134E+02  0.17501564520E+03  0.47594133775E+03  0.92696951053E+02 0.  0.
          4    1    3    3  502    0  0.28967335062E+02  0.10124385381E+03  0.64752702009E+02  0.12362174911E+03  0.00000000000E+00 0. -1.
         -3    1    3    3    0  502  0.59271222685E+01  0.77034770220E+02 -0.21637374392E+02  0.80235045783E+02  0.00000000000E+00 0.  1.
         11    1    5    5    0    0  0.33288778746E+03 -0.83630275464E+02  0.46576376853E+03  0.57857081683E+03  0.00000000000E+00 0. -1.
        -11    1    5    5    0    0  0.62399502128E+02 -0.47313152436E+02  0.62584230984E+02  0.10024479152E+03  0.00000000000E+00 0.  1.
          4    1    6    6  503    0 -0.14212443919E+03 -0.59703841332E+02  0.55794454245E+02  0.16394183727E+03  0.00000000000E+00 0. -1.
         -4    1    6    6    0  503 -0.28805730774E+03  0.12368645198E+02  0.11922119095E+03  0.31199950048E+03  0.00000000000E+00 0.  1.
<mgrwt>
<rscale>  0 0.11351654E+04</rscale>
<asrwt>0</asrwt>
<pdfrwt beam="1">  1        2 0.16193021E+00 0.11351654E+04</pdfrwt>
<pdfrwt beam="2">  1       -1 0.47087290E-01 0.11351654E+04</pdfrwt>
<totfact> 0.11846228E+02</totfact>
</mgrwt>
</event>
<event>
12    6  0.1457317E-007  0.2086454E+04  0.7818608E-02  0.8567234E-01
          2   -1    0    0  501    0  0.00000000000E+00  0.00000000000E+00  0.30576599646E+04  0.30576599646E+04  0.00000000000E+00 0. -1.
         -1   -1    0    0    0  501 -0.00000000000E+00 -0.00000000000E+00 -0.35593319871E+03  0.35593319871E+03  0.00000000000E+00 0.  1.
         24    2    1    2    0    0 -0.20232492404E+03 -0.26330855209E+03  0.23755718233E+04  0.23999834242E+04  0.79449231138E+02 0.  0.
        254    2    1    2    0    0  0.20232492404E+03  0.26330855209E+03  0.32615494262E+03  0.10136097391E+04  0.90042261643E+03 0.  0.
         23    2    4    4    0    0  0.14007646703E+03  0.40339185768E+03  0.56588345105E+03  0.71473825778E+03  0.90996096065E+02 0.  0.
         23    2    4    4    0    0  0.62248457006E+02 -0.14008330559E+03 -0.23972850843E+03  0.29887148136E+03  0.91412262357E+02 0.  0.
          2    1    3    3  502    0 -0.18434856090E+03 -0.26560437309E+03  0.22517601722E+04  0.22748525113E+04  0.00000000000E+00 0. -1.
         -3    1    3    3    0  502 -0.17976363140E+02  0.22958209937E+01  0.12381165104E+03  0.12513091288E+03  0.00000000000E+00 0.  1.
         11    1    5    5    0    0  0.19827244168E+01  0.82269663745E+02  0.70022618385E+02  0.10805274570E+03  0.00000000000E+00 0.  1.
        -11    1    5    5    0    0  0.13809374262E+03  0.32112219394E+03  0.49586083267E+03  0.60668551208E+03  0.00000000000E+00 0. -1.
          1    1    6    6  503    0  0.58868910694E+02 -0.13124258769E+03 -0.24774063865E+03  0.28647092263E+03  0.00000000000E+00 0. -1.
         -1    1    6    6    0  503  0.33795463125E+01 -0.88407178950E+01  0.80121302196E+01  0.12400558731E+02  0.00000000000E+00 0.  1.
<mgrwt>
<rscale>  0 0.20864541E+04</rscale>
<asrwt>0</asrwt>
<pdfrwt beam="1">  1        2 0.47040921E+00 0.20864541E+04</pdfrwt>
<pdfrwt beam="2">  1       -1 0.54758956E-01 0.20864541E+04</pdfrwt>
<totfact> 0.56773418E+00</totfact>
</mgrwt>
</event>
<event>
12    6  0.1457317E-007  0.3322341E+04  0.7818608E-02  0.8157234E-01
         -1   -1    0    0    0  501 -0.00000000000E+00  0.00000000000E+00  0.62066125930E+03  0.62066125930E+03  0.00000000000E+00 0.  1.
          2   -1    0    0  501    0  0.00000000000E+00 -0.00000000000E+00 -0.44460444119E+04  0.44460444119E+04  0.00000000000E+00 0. -1.
         24    2    1    2    0    0 -0.19669170662E+03 -0.51626172619E+03 -0.39621750007E+04  0.40012970000E+04  0.79581081106E+02 0.  0.
        254    2    1    2    0    0  0.19669170662E+03  0.51626172619E+03  0.13679184810E+03  0.10654086712E+04  0.90064967087E+03 0.  0.
         23    2    4    4    0    0 -0.29512062074E+03  0.19011297134E+03 -0.16355664960E+03  0.39719467945E+03  0.88168662791E+02 0.  0.
         23    2    4    4    0    0  0.49181232736E+03  0.32614875485E+03  0.30034849770E+03  0.66821399178E+03  0.89712558253E+02 0.  0.
          4    1    3    3  502    0 -0.19361270007E+03 -0.51880758689E+03 -0.39176421801E+04  0.39565853259E+04  0.00000000000E+00 0. -1.
         -3    1    3    3    0  502 -0.30790065493E+01  0.25458606959E+01 -0.44532820660E+02  0.44711674135E+02  0.00000000000E+00 0.  1.
         11    1    5    5    0    0 -0.10953936107E+03  0.42796956205E+02 -0.93111165369E+02  0.15000046734E+03  0.00000000000E+00 0. -1.
        -11    1    5    5    0    0 -0.18558125967E+03  0.14731601513E+03 -0.70445484231E+02  0.24719421211E+03  0.00000000000E+00 0.  1.
          3    1    6    6  503    0  0.21223268357E+02  0.38716646940E+02  0.11084100217E+02  0.45522117126E+02  0.00000000000E+00 0. -1.
         -3    1    6    6    0  503  0.47058905900E+03  0.28743210791E+03  0.28926439748E+03  0.62269187465E+03  0.00000000000E+00 0.  1.
<mgrwt>
<rscale>  0 0.33223411E+04</rscale>
<asrwt>0</asrwt>
<pdfrwt beam="1">  1        2 0.68400685E+00 0.33223411E+04</pdfrwt>
<pdfrwt beam="2">  1       -1 0.95486345E-01 0.33223411E+04</pdfrwt>
<totfact> 0.13858539E-01</totfact>
</mgrwt>
</event>
<event>
12    6  0.1457317E-007  0.1107202E+04  0.7818608E-02  0.9198201E-01
         -1   -1    0    0    0  501 -0.00000000000E+00  0.00000000000E+00  0.84721782008E+02  0.84721782008E+02  0.00000000000E+00 0.  1.
          2   -1    0    0  501    0  0.00000000000E+00 -0.00000000000E+00 -0.36174180869E+04  0.36174180869E+04  0.00000000000E+00 0. -1.
         24    2    1    2    0    0  0.11858518017E+03  0.12105295612E+03 -0.43549588359E+03  0.47442811188E+03  0.81909130026E+02 0.  0.
        254    2    1    2    0    0 -0.11858518017E+03 -0.12105295612E+03 -0.30972004213E+04  0.32277117570E+04  0.89261216301E+03 0.  0.
         23    2    4    4    0    0  0.10563427817E+03 -0.35282638985E+03 -0.61848799737E+03  0.72635970259E+03  0.97087345010E+02 0.  0.
         23    2    4    4    0    0 -0.22421945834E+03  0.23177343373E+03 -0.24787124239E+04  0.25013520544E+04  0.93560299051E+02 0.  0.
          4    1    3    3  502    0  0.68680702179E+02  0.82446604519E+02 -0.36197680594E+03  0.37754693680E+03  0.00000000000E+00 0. -1.
         -3    1    3    3    0  502  0.49904477990E+02  0.38606351602E+02 -0.73519077652E+02  0.96881175087E+02  0.00000000000E+00 0.  1.
         11    1    5    5    0    0  0.11828910398E+03 -0.32153231537E+03 -0.52435552240E+03  0.62635776983E+03  0.00000000000E+00 0.  1.
        -11    1    5    5    0    0 -0.12654825808E+02 -0.31294074483E+02 -0.94132474967E+02  0.10000193277E+03  0.00000000000E+00 0. -1.
          2    1    6    6  503    0 -0.22551150662E+02  0.21795003309E+02 -0.53908614711E+03  0.53999763941E+03  0.00000000000E+00 0. -1.
         -2    1    6    6    0  503 -0.20166830768E+03  0.20997843042E+03 -0.19396262768E+04  0.19613544150E+04  0.00000000000E+00 0.  1.
<mgrwt>
<rscale>  0 0.11072021E+04</rscale>
<asrwt>0</asrwt>
<pdfrwt beam="1">  1        2 0.55652582E+00 0.11072021E+04</pdfrwt>
<pdfrwt beam="2">  1       -1 0.13034121E-01 0.11072021E+04</pdfrwt>
<totfact> 0.32436249E+01</totfact>
</mgrwt>
</event>
<event>
12    6  0.1457317E-007  0.1637903E+04  0.7818608E-02  0.8797595E-01
          2   -1    0    0  501    0  0.00000000000E+00  0.00000000000E+00  0.14103162069E+04  0.14103162069E+04  0.00000000000E+00 0. -1.
         -1   -1    0    0    0  501 -0.00000000000E+00 -0.00000000000E+00 -0.47555396592E+03  0.47555396592E+03  0.00000000000E+00 0.  1.
         24    2    1    2    0    0 -0.44416363647E+03 -0.26878345873E+03  0.59288833089E+03  0.79211519476E+03  0.80025153608E+02 0.  0.
        254    2    1    2    0    0  0.44416363647E+03  0.26878345873E+03  0.34187391012E+03  0.10937549781E+04  0.89994238596E+03 0.  0.
         23    2    4    4    0    0  0.70243012280E+03  0.23628359347E+03  0.16097673068E+03  0.76364984552E+03  0.89496171884E+02 0.  0.
         23    2    4    4    0    0 -0.25826648633E+03  0.32499865258E+02  0.18089717944E+03  0.33010513258E+03  0.92129201780E+02 0.  0.
          2    1    3    3  502    0 -0.38835537779E+03 -0.20833314599E+03  0.52496080883E+03  0.68542428465E+03  0.00000000000E+00 0. -1.
         -1    1    3    3    0  502 -0.55808258676E+02 -0.60450312733E+02  0.67927522063E+02  0.10669091011E+03  0.00000000000E+00 0.  1.
         11    1    5    5    0    0  0.67630757979E+03  0.24306017464E+03  0.14815274748E+03  0.73377069140E+03  0.00000000000E+00 0. -1.
        -11    1    5    5    0    0  0.26122543010E+02 -0.67765811696E+01  0.12823983193E+02  0.29879154114E+02  0.00000000000E+00 0.  1.
          1    1    6    6  503    0 -0.25164147924E+03  0.10188719704E+02  0.17293967679E+03  0.30550838923E+03  0.00000000000E+00 0. -1.
         -1    1    6    6    0  503 -0.66250070951E+01  0.22311145554E+02  0.79575026562E+01  0.24596743351E+02  0.00000000000E+00 0.  1.
<mgrwt>
<rscale>  0 0.16379029E+04</rscale>
<asrwt>0</asrwt>
<pdfrwt beam="1">  1        2 0.21697172E+00 0.16379029E+04</pdfrwt>
<pdfrwt beam="2">  1       -1 0.73162149E-01 0.16379029E+04</pdfrwt>
<totfact> 0.29291911E+01</totfact>
</mgrwt>
</event>
<event>
12    6  0.1457317E-007  0.1159196E+04  0.7818608E-02  0.9149341E-01
          2   -1    0    0  501    0  0.00000000000E+00  0.00000000000E+00  0.36488358746E+04  0.36488358746E+04  0.00000000000E+00 0. -1.
         -1   -1    0    0    0  501 -0.00000000000E+00 -0.00000000000E+00 -0.92066063861E+02  0.92066063861E+02  0.00000000000E+00 0.  1.
         24    2    1    2    0    0 -0.38762634012E+02 -0.15737847500E+03  0.23629262139E+03  0.29785738468E+03  0.81328300731E+02 0.  0.
        254    2    1    2    0    0  0.38762634012E+02  0.15737847500E+03  0.33204771894E+04  0.34430445538E+04  0.89594447826E+03 0.  0.
         23    2    4    4    0    0  0.58951174030E+02 -0.17976113614E+03  0.28445997757E+04  0.28523551930E+04  0.91613077246E+02 0.  0.
         23    2    4    4    0    0 -0.20188540019E+02  0.33713961114E+03  0.47587741366E+03  0.59068936082E+03  0.91563713407E+02 0.  0.
          2    1    3    3  502    0  0.25084731245E+02 -0.32235273609E+02  0.54296711616E+02  0.67944753282E+02  0.00000000000E+00 0. -1.
         -1    1    3    3    0  502 -0.63847365257E+02 -0.12514320139E+03  0.18199590977E+03  0.22991263140E+03  0.00000000000E+00 0.  1.
         11    1    5    5    0    0  0.46967466939E+01  0.10913443363E+02  0.14450342663E+03  0.14499104449E+03  0.00000000000E+00 0.  1.
        -11    1    5    5    0    0  0.54254427337E+02 -0.19067457950E+03  0.27000963491E+04  0.27073641485E+04  0.00000000000E+00 0. -1.
          1    1    6    6  503    0 -0.53574608113E+01  0.25483375452E+03  0.28534442440E+03  0.38260996506E+03  0.00000000000E+00 0. -1.
         -1    1    6    6    0  503 -0.14831079207E+02  0.82305856617E+02  0.19053298926E+03  0.20807939576E+03  0.00000000000E+00 0.  1.
<mgrwt>
<rscale>  0 0.11591962E+04</rscale>
<asrwt>0</asrwt>
<pdfrwt beam="1">  1        2 0.56135925E+00 0.11591962E+04</pdfrwt>
<pdfrwt beam="2">  1       -1 0.14164013E-01 0.11591962E+04</pdfrwt>
<totfact> 0.26751148E+01</totfact>
</mgrwt>
</event>
<event>
12    6  0.1457317E-007  0.1578270E+04  0.7818608E-02  0.8834010E-01
          2   -1    0    0  501    0  0.00000000000E+00  0.00000000000E+00  0.15380635092E+04  0.15380635092E+04  0.00000000000E+00 0. -1.
         -1   -1    0    0    0  501 -0.00000000000E+00 -0.00000000000E+00 -0.40488193689E+03  0.40488193689E+03  0.00000000000E+00 0.  1.
         24    2    1    2    0    0  0.47760401068E+03  0.15281192451E+03  0.59582207902E+03  0.78297178860E+03  0.81140597743E+02 0.  0.
        254    2    1    2    0    0 -0.47760401068E+03 -0.15281192451E+03  0.53735949329E+03  0.11599736575E+04  0.89739990293E+03 0.  0.
         23    2    4    4    0    0 -0.81810391695E+02 -0.48448654793E+03  0.31010209729E+03  0.58821681427E+03  0.91736331592E+02 0.  0.
         23    2    4    4    0    0 -0.39579361899E+03  0.33167462342E+03  0.22725739600E+03  0.57175684323E+03  0.92732513691E+02 0.  0.
          4    1    3    3  502    0  0.97493431261E+01  0.18445389352E+02  0.19099405055E+02  0.28285497224E+02  0.00000000000E+00 0. -1.
         -3    1    3    3    0  502  0.46785466756E+03  0.13436653516E+03  0.57672267397E+03  0.75468629138E+03  0.00000000000E+00 0.  1.
         11    1    5    5    0    0 -0.55524906251E+02 -0.36515572742E+03  0.27681768563E+03  0.46157312699E+03  0.00000000000E+00 0. -1.
        -11    1    5    5    0    0 -0.26285485445E+02 -0.11933082051E+03  0.33284411658E+02  0.12664368728E+03  0.00000000000E+00 0.  1.
          3    1    6    6  503    0 -0.13224311159E+03  0.15103712766E+03  0.52178791860E+02  0.20742005886E+03  0.00000000000E+00 0. -1.
         -3    1    6    6    0  503 -0.26355050740E+03  0.18063749576E+03  0.17507860414E+03  0.36433678438E+03  0.00000000000E+00 0.  1.
<mgrwt>
<rscale>  0 0.15782701E+04</rscale>
<asrwt>0</asrwt>
<pdfrwt beam="1">  1        2 0.23662515E+00 0.15782701E+04</pdfrwt>
<pdfrwt beam="2">  1       -1 0.62289530E-01 0.15782701E+04</pdfrwt>
<totfact> 0.34564669E+01</totfact>
</mgrwt>
</event>
<event>
12    6  0.1457317E-007  0.2191833E+04  0.7818608E-02  0.8521835E-01
          2   -1    0    0  501    0  0.00000000000E+00  0.00000000000E+00  0.16568256787E+04  0.16568256787E+04  0.00000000000E+00 0. -1.
         -1   -1    0    0    0  501 -0.00000000000E+00 -0.00000000000E+00 -0.72490026825E+03  0.72490026825E+03  0.00000000000E+00 0.  1.
         24    2    1    2    0    0  0.42223836163E+03 -0.67494072625E+03  0.85416874335E+03  0.11703159221E+04  0.78771171495E+02 0.  0.
        254    2    1    2    0    0 -0.42223836163E+03  0.67494072625E+03  0.77756667128E+02  0.12114100249E+04  0.90974608056E+03 0.  0.
         23    2    4    4    0    0 -0.65660187000E+03  0.58926616208E+03 -0.95357497148E+02  0.89271431288E+03  0.97391820537E+02 0.  0.
         23    2    4    4    0    0  0.23436350837E+03  0.85674564173E+02  0.17311416428E+03  0.31869571199E+03  0.96602577425E+02 0.  0.
          4    1    3    3  502    0  0.39744560121E+02 -0.58437670363E+02  0.11203049123E+03  0.13245913461E+03  0.00000000000E+00 0. -1.
         -3    1    3    3    0  502  0.38249380151E+03 -0.61650305589E+03  0.74213825212E+03  0.10378567875E+04  0.00000000000E+00 0.  1.
         11    1    5    5    0    0 -0.15774441775E+03  0.16880429238E+03  0.12809896279E+02  0.23139205669E+03  0.00000000000E+00 0. -1.
        -11    1    5    5    0    0 -0.49885745224E+03  0.42046186970E+03 -0.10816739343E+03  0.66132225619E+03  0.00000000000E+00 0.  1.
          3    1    6    6  503    0  0.37628888962E+02  0.20271855806E+02  0.81514315427E+02  0.92040561939E+02  0.00000000000E+00 0. -1.
         -3    1    6    6    0  503  0.19673461941E+03  0.65402708367E+02  0.91599848848E+02  0.22665515005E+03  0.00000000000E+00 0.  1.
<mgrwt>
<rscale>  0 0.21918334E+04</rscale>
<asrwt>0</asrwt>
<pdfrwt beam="1">  1        2 0.25489626E+00 0.21918334E+04</pdfrwt>
<pdfrwt beam="2">  1       -1 0.11152312E+00 0.21918334E+04</pdfrwt>
<totfact> 0.79757036E+00</totfact>
</mgrwt>
</event>
<event>
12    6  0.1457317E-007  0.3040271E+04  0.7818608E-02  0.8232324E-01
         -1   -1    0    0    0  501 -0.00000000000E+00  0.00000000000E+00  0.68875442784E+03  0.68875442784E+03  0.00000000000E+00 0.  1.
          2   -1    0    0  501    0  0.00000000000E+00 -0.00000000000E+00 -0.33550593369E+04  0.33550593369E+04  0.00000000000E+00 0. -1.
         24    2    1    2    0    0  0.12468957453E+04  0.59732449491E+03 -0.10944369971E+04  0.17650963983E+04  0.78913896033E+02 0.  0.
        254    2    1    2    0    0 -0.12468957453E+04 -0.59732449491E+03 -0.15718679119E+04  0.22787173664E+04  0.90013251885E+03 0.  0.
         23    2    4    4    0    0 -0.10661047632E+04 -0.58570045796E+03 -0.74963613807E+03  0.14314681773E+04  0.86731832363E+02 0.  0.
         23    2    4    4    0    0 -0.18079098212E+03 -0.11624036946E+02 -0.82223177388E+03  0.84724918906E+03  0.94581186996E+02 0.  0.
          4    1    3    3  502    0  0.22325895313E+03  0.75996861112E+02 -0.19922982970E+03  0.30872740094E+03  0.00000000000E+00 0. -1.
         -3    1    3    3    0  502  0.10236367921E+04  0.52132763380E+03 -0.89520716740E+03  0.14563689974E+04  0.00000000000E+00 0.  1.
         11    1    5    5    0    0 -0.14629756279E+03 -0.49909941692E+02 -0.10790403853E+03  0.18851329048E+03  0.00000000000E+00 0. -1.
        -11    1    5    5    0    0 -0.91980720036E+03 -0.53579051627E+03 -0.64173209954E+03  0.12429548868E+04  0.00000000000E+00 0.  1.
          1    1    6    6  503    0 -0.41002240430E+02 -0.42035842562E+02 -0.30481653023E+03  0.31042118626E+03  0.00000000000E+00 0. -1.
         -1    1    6    6    0  503 -0.13978874169E+03  0.30411805616E+02 -0.51741524365E+03  0.53682800280E+03  0.00000000000E+00 0.  1.
<mgrwt>
<rscale>  0 0.30402710E+04</rscale>
<asrwt>0</asrwt>
<pdfrwt beam="1">  1        2 0.51616298E+00 0.30402710E+04</pdfrwt>
<pdfrwt beam="2">  1       -1 0.10596222E+00 0.30402710E+04</pdfrwt>
<totfact> 0.82552122E-01</totfact>
</mgrwt>
</event>
<event>
12    6  0.1457317E-007  0.1488124E+04  0.7818608E-02  0.8892389E-01
          2   -1    0    0  501    0  0.00000000000E+00  0.00000000000E+00  0.12873852489E+04  0.12873852489E+04  0.00000000000E+00 0. -1.
         -1   -1    0    0    0  501 -0.00000000000E+00 -0.00000000000E+00 -0.43004098832E+03  0.43004098832E+03  0.00000000000E+00 0.  1.
         24    2    1    2    0    0  0.18673250563E+03  0.31171899499E+03  0.63365513334E+03  0.73480990324E+03  0.79931254183E+02 0.  0.
        254    2    1    2    0    0 -0.18673250563E+03 -0.31171899499E+03  0.22368912722E+03  0.98261633396E+03  0.88513291298E+03 0.  0.
         23    2    4    4    0    0 -0.40430037667E+03 -0.50174829414E+03  0.19187835078E+03  0.67844507790E+03  0.90886065952E+02 0.  0.
         23    2    4    4    0    0  0.21756787104E+03  0.19002929915E+03  0.31810776434E+02  0.30417125606E+03  0.89784823158E+02 0.  0.
          4    1    3    3  502    0  0.16903413121E+03  0.24517788972E+03  0.55813268289E+03  0.63261111817E+03  0.00000000000E+00 0. -1.
         -3    1    3    3    0  502  0.17698374412E+02  0.66541105271E+02  0.75522450447E+02  0.10219878507E+03  0.00000000000E+00 0.  1.
         11    1    5    5    0    0 -0.38098702381E+02 -0.90228495005E+02  0.10575862183E+02  0.98511630252E+02  0.00000000000E+00 0. -1.
        -11    1    5    5    0    0 -0.36620167429E+03 -0.41151979913E+03  0.18130248860E+03  0.57993344765E+03  0.00000000000E+00 0.  1.
          2    1    6    6  503    0  0.10753929378E+03  0.62775701637E+02  0.51594104696E+02  0.13478664645E+03  0.00000000000E+00 0.  1.
         -2    1    6    6    0  503  0.11002857727E+03  0.12725359751E+03 -0.19783328261E+02  0.16938460961E+03  0.00000000000E+00 0. -1.
<mgrwt>
<rscale>  0 0.14881242E+04</rscale>
<asrwt>0</asrwt>
<pdfrwt beam="1">  1        2 0.19805927E+00 0.14881242E+04</pdfrwt>
<pdfrwt beam="2">  1       -1 0.66160153E-01 0.14881242E+04</pdfrwt>
<totfact> 0.42918653E+01</totfact>
</mgrwt>
</event>
<event>
12    6  0.1457317E-007  0.2143327E+04  0.7818608E-02  0.8542394E-01
         -1   -1    0    0    0  501 -0.00000000000E+00  0.00000000000E+00  0.36942860700E+03  0.36942860700E+03  0.00000000000E+00 0.  1.
          2   -1    0    0  501    0  0.00000000000E+00 -0.00000000000E+00 -0.31087551971E+04  0.31087551971E+04  0.00000000000E+00 0. -1.
         24    2    1    2    0    0  0.25537754746E+03  0.84119993839E+03 -0.13263851992E+04  0.15941607263E+04  0.95998420432E+02 0.  0.
        254    2    1    2    0    0 -0.25537754746E+03 -0.84119993839E+03 -0.14129413909E+04  0.18840230778E+04  0.88334849025E+03 0.  0.
         23    2    4    4    0    0  0.13371374922E+03  0.38307853413E+01  0.30277959242E+02  0.16483766166E+03  0.91436635102E+02 0.  0.
         23    2    4    4    0    0 -0.38909129668E+03 -0.84503072373E+03 -0.14432193502E+04  0.17191854161E+04  0.85131903611E+02 0.  0.
          4    1    3    3  502    0  0.55334373787E+02  0.22604610488E+03 -0.42720447655E+03  0.48647959797E+03  0.00000000000E+00 0. -1.
         -3    1    3    3    0  502  0.20004317368E+03  0.61515383351E+03 -0.89918072261E+03  0.11076811284E+04  0.00000000000E+00 0.  1.
         11    1    5    5    0    0  0.18526858629E+02  0.27771034745E+02  0.33297055371E+02  0.47150490537E+02  0.00000000000E+00 0. -1.
        -11    1    5    5    0    0  0.11518689059E+03 -0.23940249404E+02 -0.30190961289E+01  0.11768717112E+03  0.00000000000E+00 0.  1.
          3    1    6    6  503    0 -0.11334611243E+02 -0.69362110948E+02 -0.13275977491E+03  0.15021562396E+03  0.00000000000E+00 0. -1.
         -3    1    6    6    0  503 -0.37775668544E+03 -0.77566861278E+03 -0.13104595753E+04  0.15689697921E+04  0.00000000000E+00 0.  1.
<mgrwt>
<rscale>  0 0.21433274E+04</rscale>
<asrwt>0</asrwt>
<pdfrwt beam="1">  1        2 0.47827004E+00 0.21433274E+04</pdfrwt>
<pdfrwt beam="2">  1       -1 0.56835169E-01 0.21433274E+04</pdfrwt>
<totfact> 0.48746904E+00</totfact>
</mgrwt>
</event>
<event>
12    6  0.1457317E-007  0.1717931E+04  0.7818608E-02  0.8751203E-01
          2   -1    0    0  501    0  0.00000000000E+00  0.00000000000E+00  0.52547691620E+03  0.52547691620E+03  0.00000000000E+00 0. -1.
         -1   -1    0    0    0  501 -0.00000000000E+00 -0.00000000000E+00 -0.14040996043E+04  0.14040996043E+04  0.00000000000E+00 0.  1.
         24    2    1    2    0    0 -0.60272013218E+02  0.30772367652E+02  0.37256747205E+03  0.38587133371E+03  0.74232814570E+02 0.  0.
        254    2    1    2    0    0  0.60272013218E+02 -0.30772367652E+02 -0.12511901602E+04  0.15437051868E+04  0.90164806475E+03 0.  0.
         23    2    4    4    0    0 -0.26218270396E+03 -0.13541122260E+03 -0.78671152187E+02  0.32013699233E+03  0.96034234579E+02 0.  0.
         23    2    4    4    0    0  0.32245471718E+03  0.10463885494E+03 -0.11725190080E+04  0.12235681945E+04  0.85976553992E+02 0.  0.
          4    1    3    3  502    0 -0.29498514884E+02  0.28908635168E+02  0.33377145561E+03  0.33631719574E+03  0.00000000000E+00 0. -1.
         -3    1    3    3    0  502 -0.30773498334E+02  0.18637324840E+01  0.38796016442E+02  0.49554137973E+02  0.00000000000E+00 0.  1.
         11    1    5    5    0    0 -0.96954397171E+02 -0.96165804025E+02 -0.99016541366E+01  0.13691625086E+03  0.00000000000E+00 0.  1.
        -11    1    5    5    0    0 -0.16522830679E+03 -0.39245418570E+02 -0.68769498050E+02  0.18322074147E+03  0.00000000000E+00 0. -1.
          3    1    6    6  503    0  0.28369289852E+03  0.65652423867E+02 -0.91384489010E+03  0.95911646039E+03  0.00000000000E+00 0. -1.
         -3    1    6    6    0  503  0.38761818662E+02  0.38986431077E+02 -0.25867411790E+03  0.26445173409E+03  0.00000000000E+00 0.  1.
<mgrwt>
<rscale>  0 0.17179312E+04</rscale>
<asrwt>0</asrwt>
<pdfrwt beam="1">  1        2 0.80842603E-01 0.17179312E+04</pdfrwt>
<pdfrwt beam="2">  1       -1 0.21601532E+00 0.17179312E+04</pdfrwt>
<totfact> 0.73837187E+00</totfact>
</mgrwt>
</event>
<event>
12    6  0.1457317E-007  0.1247166E+04  0.7818608E-02  0.9072545E-01
          2   -1    0    0  501    0  0.00000000000E+00  0.00000000000E+00  0.10117846653E+04  0.10117846653E+04  0.00000000000E+00 0. -1.
         -1   -1    0    0    0  501 -0.00000000000E+00 -0.00000000000E+00 -0.38432649810E+03  0.38432649810E+03  0.00000000000E+00 0.  1.
         24    2    1    2    0    0 -0.21594720035E+03 -0.52739369589E+02 -0.55606292063E+02  0.24226164755E+03  0.78638487466E+02 0.  0.
        254    2    1    2    0    0  0.21594720035E+03  0.52739369589E+02  0.68306445922E+03  0.11538495158E+04  0.90298228954E+03 0.  0.
         23    2    4    4    0    0  0.38373787653E+03  0.35745404417E+03  0.24192949093E+03  0.58462130003E+03  0.90686461424E+02 0.  0.
         23    2    4    4    0    0 -0.16779067618E+03 -0.30471467458E+03  0.44113496829E+03  0.56922821578E+03  0.91738527759E+02 0.  0.
          4    1    3    3  502    0 -0.34160933051E+02  0.18335203263E+02 -0.20794158209E+02  0.43994841075E+02  0.00000000000E+00 0. -1.
         -3    1    3    3    0  502 -0.18178626730E+03 -0.71074572852E+02 -0.34812133854E+02  0.19826680647E+03  0.00000000000E+00 0.  1.
         11    1    5    5    0    0  0.32288857909E+03  0.30989858418E+03  0.16896294539E+03  0.47837500342E+03  0.00000000000E+00 0.  1.
        -11    1    5    5    0    0  0.60849297443E+02  0.47555459986E+02  0.72966545545E+02  0.10624629661E+03  0.00000000000E+00 0. -1.
          1    1    6    6  503    0 -0.31195762767E+02 -0.73588380797E+02  0.16902350360E+03  0.18696890162E+03  0.00000000000E+00 0. -1.
         -1    1    6    6    0  503 -0.13659491341E+03 -0.23112629378E+03  0.27211146468E+03  0.38225931416E+03  0.00000000000E+00 0.  1.
<mgrwt>
<rscale>  0 0.12471658E+04</rscale>
<asrwt>0</asrwt>
<pdfrwt beam="1">  1        2 0.15565918E+00 0.12471658E+04</pdfrwt>
<pdfrwt beam="2">  1       -1 0.59127154E-01 0.12471658E+04</pdfrwt>
<totfact> 0.80532760E+01</totfact>
</mgrwt>
</event>
<event>
12    6  0.1457317E-007  0.1951009E+04  0.7818608E-02  0.8629874E-01
          2   -1    0    0  501    0  0.00000000000E+00  0.00000000000E+00  0.22002544675E+04  0.22002544675E+04  0.00000000000E+00 0. -1.
         -1   -1    0    0    0  501 -0.00000000000E+00 -0.00000000000E+00 -0.43249957572E+03  0.43249957572E+03  0.00000000000E+00 0.  1.
         24    2    1    2    0    0 -0.12745293348E+03  0.21619164831E+03  0.16824994716E+04  0.17030546842E+04  0.81287798892E+02 0.  0.
        254    2    1    2    0    0  0.12745293348E+03 -0.21619164831E+03  0.85255420150E+02  0.92969935904E+03  0.89111690169E+03 0.  0.
         23    2    4    4    0    0  0.14579185988E+03  0.28521025909E+03 -0.15347865144E+03  0.36664783265E+03  0.90965809190E+02 0.  0.
         23    2    4    4    0    0 -0.18338926403E+02 -0.50140190740E+03  0.23873407159E+03  0.56305152639E+03  0.91065226472E+02 0.  0.
          2    1    3    3  502    0 -0.12420754953E+03  0.15682512676E+03  0.11528887176E+04  0.11701171013E+04  0.00000000000E+00 0. -1.
         -1    1    3    3    0  502 -0.32453839489E+01  0.59366521547E+02  0.52961075407E+03  0.53293758286E+03  0.00000000000E+00 0.  1.
         11    1    5    5    0    0  0.10321331688E+03  0.22508694914E+03 -0.15646574736E+03  0.29291407196E+03  0.00000000000E+00 0.  1.
        -11    1    5    5    0    0  0.42578542999E+02  0.60123309944E+02  0.29870959251E+01  0.73733760684E+02  0.00000000000E+00 0. -1.
          1    1    6    6  503    0 -0.11043706329E+01  0.23569974838E+01 -0.30486351205E+01  0.40086466210E+01  0.00000000000E+00 0. -1.
         -1    1    6    6    0  503 -0.17234555770E+02 -0.50375890488E+03  0.24178270671E+03  0.55904287977E+03  0.00000000000E+00 0.  1.
<mgrwt>
<rscale>  0 0.19510091E+04</rscale>
<asrwt>0</asrwt>
<pdfrwt beam="1">  1        2 0.33850068E+00 0.19510091E+04</pdfrwt>
<pdfrwt beam="2">  1       -1 0.66538398E-01 0.19510091E+04</pdfrwt>
<totfact> 0.12547089E+01</totfact>
</mgrwt>
</event>
<event>
12    6  0.1457317E-007  0.2704406E+04  0.7818608E-02  0.8333577E-01
          2   -1    0    0  501    0  0.00000000000E+00  0.00000000000E+00  0.10624740131E+04  0.10624740131E+04  0.00000000000E+00 0. -1.
         -1   -1    0    0    0  501 -0.00000000000E+00 -0.00000000000E+00 -0.17209391057E+04  0.17209391057E+04  0.00000000000E+00 0.  1.
         24    2    1    2    0    0 -0.74059329354E+03  0.62750439602E+02 -0.12614302541E+04  0.14662555458E+04  0.79265350203E+02 0.  0.
        254    2    1    2    0    0  0.74059329354E+03 -0.62750439602E+02  0.60296516143E+03  0.13171575730E+04  0.90494256282E+03 0.  0.
         23    2    4    4    0    0 -0.19039760062E+03 -0.73659393599E+02  0.43862207949E+02  0.22737100949E+03  0.89981831957E+02 0.  0.
         23    2    4    4    0    0  0.93099089416E+03  0.10908953997E+02  0.55910295348E+03  0.10897865635E+04  0.90418975081E+02 0.  0.
          4    1    3    3  502    0 -0.74546902597E+02 -0.11083319646E+02 -0.97962715678E+02  0.12359924888E+03  0.00000000000E+00 0. -1.
         -1    1    3    3    0  502 -0.66604639094E+03  0.73833759249E+02 -0.11634675384E+04  0.13426562970E+04  0.00000000000E+00 0.  1.
         11    1    5    5    0    0 -0.13585438726E+03 -0.61803354049E+02 -0.10285027754E+02  0.14960565132E+03  0.00000000000E+00 0.  1.
        -11    1    5    5    0    0 -0.54543213356E+02 -0.11856039550E+02  0.54147235702E+02  0.77765358169E+02  0.00000000000E+00 0. -1.
          3    1    6    6  503    0  0.52305814462E+03 -0.12668200113E+02  0.26620222946E+03  0.58703827210E+03  0.00000000000E+00 0. -1.
         -3    1    6    6    0  503  0.40793274954E+03  0.23577154110E+02  0.29290072402E+03  0.50274829137E+03  0.00000000000E+00 0.  1.
<mgrwt>
<rscale>  0 0.27044061E+04</rscale>
<asrwt>0</asrwt>
<pdfrwt beam="1">  1        2 0.16345754E+00 0.27044061E+04</pdfrwt>
<pdfrwt beam="2">  1       -1 0.26475986E+00 0.27044061E+04</pdfrwt>
<totfact> 0.12839923E+00</totfact>
</mgrwt>
</event>
<event>
12    6  0.1457317E-007  0.1801993E+04  0.7818608E-02  0.8705240E-01
          2   -1    0    0  501    0  0.00000000000E+00  0.00000000000E+00  0.16449024029E+04  0.16449024029E+04  0.00000000000E+00 0. -1.
         -1   -1    0    0    0  501 -0.00000000000E+00 -0.00000000000E+00 -0.49352173613E+03  0.49352173613E+03  0.00000000000E+00 0.  1.
         24    2    1    2    0    0  0.35243257929E+03  0.27369966234E+03  0.10577849001E+04  0.11508071986E+04  0.79549264236E+02 0.  0.
        254    2    1    2    0    0 -0.35243257929E+03 -0.27369966234E+03  0.93595766734E+02  0.98761694046E+03  0.87607466886E+03 0.  0.
         23    2    4    4    0    0 -0.19166005281E+03 -0.11243606804E+03 -0.38314937118E+03  0.45197300516E+03  0.90003952792E+02 0.  0.
         23    2    4    4    0    0 -0.16077252649E+03 -0.16126359430E+03  0.47674513791E+03  0.53564393530E+03  0.88174524554E+02 0.  0.
          2    1    3    3  502    0  0.25787666604E+03  0.21221832844E+03  0.86806930955E+03  0.93009747876E+03  0.00000000000E+00 0. -1.
         -1    1    3    3    0  502  0.94555913253E+02  0.61481333896E+02  0.18971559052E+03  0.22070971985E+03  0.00000000000E+00 0.  1.
         11    1    5    5    0    0 -0.20052689134E+03 -0.11409701875E+03 -0.36934737862E+03  0.43548438540E+03  0.00000000000E+00 0. -1.
        -11    1    5    5    0    0  0.88668385302E+01  0.16609507112E+01 -0.13801992562E+02  0.16488619756E+02  0.00000000000E+00 0.  1.
          1    1    6    6  503    0 -0.15809366200E+03 -0.12710322124E+03  0.44446966059E+03  0.48857150347E+03  0.00000000000E+00 0. -1.
         -1    1    6    6    0  503 -0.26788644851E+01 -0.34160373053E+02  0.32275477322E+02  0.47072431830E+02  0.00000000000E+00 0.  1.
<mgrwt>
<rscale>  0 0.18019934E+04</rscale>
<asrwt>0</asrwt>
<pdfrwt beam="1">  1        2 0.25306191E+00 0.18019934E+04</pdfrwt>
<pdfrwt beam="2">  1       -1 0.75926422E-01 0.18019934E+04</pdfrwt>
<totfact> 0.19720283E+01</totfact>
</mgrwt>
</event>
<event>
12    6  0.1457317E-007  0.1909999E+04  0.7818608E-02  0.8649895E-01
          2   -1    0    0  501    0  0.00000000000E+00  0.00000000000E+00  0.81297722298E+03  0.81297722298E+03  0.00000000000E+00 0. -1.
         -1   -1    0    0    0  501 -0.00000000000E+00 -0.00000000000E+00 -0.11218323755E+04  0.11218323755E+04  0.00000000000E+00 0.  1.
         24    2    1    2    0    0 -0.56950249222E+03 -0.15418614115E+03 -0.57689274581E+03  0.82918650865E+03  0.81477427458E+02 0.  0.
        254    2    1    2    0    0  0.56950249222E+03  0.15418614115E+03  0.26803759327E+03  0.11056230899E+04  0.89579674629E+03 0.  0.
         23    2    4    4    0    0 -0.21705106938E+03  0.10417112652E+03  0.16770893220E+03  0.30602481672E+03  0.86960405883E+02 0.  0.
         23    2    4    4    0    0  0.78655356159E+03  0.50015014633E+02  0.10032866107E+03  0.79959827314E+03  0.90130745219E+02 0.  0.
          4    1    3    3  502    0 -0.29390588361E+03 -0.41734945294E+02 -0.31318770765E+03  0.43151942517E+03  0.00000000000E+00 0. -1.
         -3    1    3    3    0  502 -0.27559660861E+03 -0.11245119586E+03 -0.26370503817E+03  0.39766708348E+03  0.00000000000E+00 0.  1.
         11    1    5    5    0    0 -0.33939363718E+01  0.27186982842E+01 -0.95232045280E+01  0.10469075840E+02  0.00000000000E+00 0.  1.
        -11    1    5    5    0    0 -0.21365713300E+03  0.10145242823E+03  0.17723213672E+03  0.29555574088E+03  0.00000000000E+00 0. -1.
          2    1    6    6  503    0  0.62147577142E+02 -0.13462892970E+02 -0.90724151095E+01  0.64233009798E+02  0.00000000000E+00 0. -1.
         -2    1    6    6    0  503  0.72440598445E+03  0.63477907603E+02  0.10940107618E+03  0.73536526334E+03  0.00000000000E+00 0.  1.
<mgrwt>
<rscale>  0 0.19099991E+04</rscale>
<asrwt>0</asrwt>
<pdfrwt beam="1">  1        2 0.12507342E+00 0.19099991E+04</pdfrwt>
<pdfrwt beam="2">  1       -1 0.17258960E+00 0.19099991E+04</pdfrwt>
<totfact> 0.84807878E+00</totfact>
</mgrwt>
</event>
<event>
12    6  0.1457317E-007  0.1238284E+04  0.7818608E-02  0.9079992E-01
          2   -1    0    0  501    0  0.00000000000E+00  0.00000000000E+00  0.21149261511E+03  0.21149261511E+03  0.00000000000E+00 0. -1.
         -1   -1    0    0    0  501 -0.00000000000E+00 -0.00000000000E+00 -0.18125291295E+04  0.18125291295E+04  0.00000000000E+00 0.  1.
         24    2    1    2    0    0 -0.15485753223E+03 -0.23629629013E+03 -0.34922397139E+03  0.45629945340E+03  0.80218557462E+02 0.  0.
        254    2    1    2    0    0  0.15485753223E+03  0.23629629013E+03 -0.12518125430E+04  0.15677222912E+04  0.90050083148E+03 0.  0.
         23    2    4    4    0    0  0.90944243034E+01 -0.32017572760E+02  0.12247291989E+03  0.15697517973E+03  0.92378338519E+02 0.  0.
         23    2    4    4    0    0  0.14576310793E+03  0.26831386289E+03 -0.13742854628E+04  0.14107471114E+04  0.91146400751E+02 0.  0.
          4    1    3    3  502    0 -0.10211024105E+03 -0.18425336725E+03 -0.30276687417E+03  0.36884086646E+03  0.00000000000E+00 0. -1.
         -3    1    3    3    0  502 -0.52747291176E+02 -0.52042922876E+02 -0.46457097215E+02  0.87458586940E+02  0.00000000000E+00 0.  1.
         11    1    5    5    0    0 -0.38806762449E+02  0.28651110101E+01  0.46898048043E+02  0.60939318860E+02  0.00000000000E+00 0. -1.
        -11    1    5    5    0    0  0.47901186752E+02 -0.34882683770E+02  0.75574871845E+02  0.96035860873E+02  0.00000000000E+00 0.  1.
          2    1    6    6  503    0  0.75867644728E+02  0.20875266502E+03 -0.85350303539E+03  0.88193027281E+03  0.00000000000E+00 0.  1.
         -2    1    6    6    0  503  0.69895463199E+02  0.59561197866E+02 -0.52078242745E+03  0.52881683862E+03  0.00000000000E+00 0. -1.
<mgrwt>
<rscale>  0 0.12382835E+04</rscale>
<asrwt>0</asrwt>
<pdfrwt beam="1">  1        2 0.32537324E-01 0.12382835E+04</pdfrwt>
<pdfrwt beam="2">  1       -1 0.27885065E+00 0.12382835E+04</pdfrwt>
<totfact> 0.83372607E+00</totfact>
</mgrwt>
</event>
<event>
12    6  0.1457317E-007  0.1734310E+04  0.7818608E-02  0.8742034E-01
         -1   -1    0    0    0  501 -0.00000000000E+00  0.00000000000E+00  0.46899558266E+03  0.46899558266E+03  0.00000000000E+00 0.  1.
          2   -1    0    0  501    0  0.00000000000E+00 -0.00000000000E+00 -0.16033367106E+04  0.16033367106E+04  0.00000000000E+00 0. -1.
         24    2    1    2    0    0 -0.30325131454E+03  0.54383857920E+03 -0.52427955801E+03  0.82011231506E+03  0.99966966364E+02 0.  0.
        254    2    1    2    0    0  0.30325131454E+03 -0.54383857920E+03 -0.61006156992E+03  0.12522199782E+04  0.89897608127E+03 0.  0.
         23    2    4    4    0    0  0.59552759511E+03 -0.20297333674E+03 -0.35457547945E+03  0.72779635006E+03  0.90069221000E+02 0.  0.
         23    2    4    4    0    0 -0.29227628056E+03 -0.34086524245E+03 -0.25548609047E+03  0.52442362813E+03  0.90180162050E+02 0.  0.
          4    1    3    3  502    0 -0.22130172214E+03  0.41885087153E+03 -0.44929625113E+03  0.65289939967E+03  0.00000000000E+00 0. -1.
         -3    1    3    3    0  502 -0.81949592403E+02  0.12498770766E+03 -0.74983306881E+02  0.16721291539E+03  0.00000000000E+00 0.  1.
         11    1    5    5    0    0  0.33181444618E+03 -0.13251653701E+03 -0.24718834542E+03  0.43446925943E+03  0.00000000000E+00 0.  1.
        -11    1    5    5    0    0  0.26371314892E+03 -0.70456799732E+02 -0.10738713404E+03  0.29332709064E+03  0.00000000000E+00 0. -1.
          1    1    6    6  503    0 -0.19576511021E+03 -0.21694836812E+03 -0.21332117278E+03  0.36179620723E+03  0.00000000000E+00 0. -1.
         -1    1    6    6    0  503 -0.96511170356E+02 -0.12391687433E+03 -0.42164917688E+02  0.16262742091E+03  0.00000000000E+00 0.  1.
<mgrwt>
<rscale>  0 0.17343100E+04</rscale>
<asrwt>0</asrwt>
<pdfrwt beam="1">  1        2 0.24666719E+00 0.17343100E+04</pdfrwt>
<pdfrwt beam="2">  1       -1 0.72153166E-01 0.17343100E+04</pdfrwt>
<totfact> 0.23266831E+01</totfact>
</mgrwt>
</event>
<event>
12    6  0.1457317E-007  0.3302636E+04  0.7818608E-02  0.8162225E-01
          2   -1    0    0  501    0  0.00000000000E+00  0.00000000000E+00  0.24658446797E+04  0.24658446797E+04  0.00000000000E+00 0. -1.
         -1   -1    0    0    0  501 -0.00000000000E+00 -0.00000000000E+00 -0.11058490016E+04  0.11058490016E+04  0.00000000000E+00 0.  1.
         24    2    1    2    0    0 -0.10437033545E+04 -0.67035918753E+03  0.15938164121E+04  0.20211438804E+04  0.77933928814E+02 0.  0.
        254    2    1    2    0    0  0.10437033545E+04  0.67035918753E+03 -0.23382073407E+03  0.15505498010E+04  0.90046344576E+03 0.  0.
         23    2    4    4    0    0  0.47771082260E+03  0.15738771682E+03 -0.52098575753E+03  0.72934251735E+03  0.86809127609E+02 0.  0.
         23    2    4    4    0    0  0.56599253186E+03  0.51297147071E+03  0.28716502347E+03  0.82120728360E+03  0.91817079270E+02 0.  0.
          4    1    3    3  502    0 -0.60257252584E+03 -0.40178601180E+03  0.98901972161E+03  0.12258407963E+04  0.00000000000E+00 0. -1.
         -1    1    3    3    0  502 -0.44113082862E+03 -0.26857317573E+03  0.60479669049E+03  0.79530308405E+03  0.00000000000E+00 0.  1.
         11    1    5    5    0    0  0.42064683711E+03  0.15962973625E+03 -0.43288375536E+03  0.62435067063E+03  0.00000000000E+00 0.  1.
        -11    1    5    5    0    0  0.57063985487E+02 -0.22420194309E+01 -0.88102002178E+02  0.10499184672E+03  0.00000000000E+00 0. -1.
          2    1    6    6  503    0  0.51750229488E+03  0.47171305701E+03  0.23410144868E+03  0.73832602666E+03  0.00000000000E+00 0. -1.
         -2    1    6    6    0  503  0.48490236973E+02  0.41258413702E+02  0.53063574783E+02  0.82881256938E+02  0.00000000000E+00 0.  1.
<mgrwt>
<rscale>  0 0.33026364E+04</rscale>
<asrwt>0</asrwt>
<pdfrwt beam="1">  1        2 0.37936072E+00 0.33026364E+04</pdfrwt>
<pdfrwt beam="2">  1       -1 0.17013062E+00 0.33026364E+04</pdfrwt>
<totfact> 0.84874297E-01</totfact>
</mgrwt>
</event>
<event>
12    6  0.1457317E-007  0.4783470E+04  0.7818608E-02  0.7862806E-01
          2   -1    0    0  501    0  0.00000000000E+00  0.00000000000E+00  0.29370560639E+04  0.29370560639E+04  0.00000000000E+00 0. -1.
         -1   -1    0    0    0  501 -0.00000000000E+00 -0.00000000000E+00 -0.19476633586E+04  0.19476633586E+04  0.00000000000E+00 0.  1.
         24    2    1    2    0    0  0.45459258222E+03  0.13604895544E+04 -0.13672216304E+04  0.19832098824E+04  0.78994984330E+02 0.  0.
        254    2    1    2    0    0 -0.45459258222E+03 -0.13604895544E+04  0.23566143357E+04  0.29015095401E+04  0.89863242822E+03 0.  0.
         23    2    4    4    0    0 -0.24288504169E+03 -0.56336583822E+03  0.31144730155E+03  0.69406527396E+03  0.91394593526E+02 0.  0.
         23    2    4    4    0    0 -0.21170754053E+03 -0.79712371617E+03  0.20451670341E+04  0.22074442662E+04  0.99376502522E+02 0.  0.
          2    1    3    3  502    0  0.23858918338E+03  0.60881749565E+03 -0.65144664675E+03  0.92302019208E+03  0.00000000000E+00 0. -1.
         -1    1    3    3    0  502  0.21600339884E+03  0.75167205874E+03 -0.71577498361E+03  0.10601896903E+04  0.00000000000E+00 0.  1.
         11    1    5    5    0    0  0.12228159631E+01  0.90229573903E+00 -0.31101050256E+01  0.34615270836E+01  0.00000000000E+00 0. -1.
        -11    1    5    5    0    0 -0.24410785766E+03 -0.56426813395E+03  0.31455740657E+03  0.69060374687E+03  0.00000000000E+00 0.  1.
          4    1    6    6  503    0 -0.98304514061E+02 -0.19919838173E+03  0.54355950463E+03  0.58719733296E+03  0.00000000000E+00 0. -1.
         -4    1    6    6    0  503 -0.11340302647E+03 -0.59792533444E+03  0.15016075295E+04  0.16202469332E+04  0.00000000000E+00 0.  1.
<mgrwt>
<rscale>  0 0.47834701E+04</rscale>
<asrwt>0</asrwt>
<pdfrwt beam="1">  1        2 0.45185478E+00 0.47834701E+04</pdfrwt>
<pdfrwt beam="2">  1       -1 0.29964052E+00 0.47834701E+04</pdfrwt>
<totfact> 0.53245082E-02</totfact>
</mgrwt>
</event>
<event>
12    6  0.1457317E-007  0.1617832E+04  0.7818608E-02  0.8809667E-01
         -3   -1    0    0    0  501 -0.00000000000E+00  0.00000000000E+00  0.61879640683E+03  0.61879640683E+03  0.00000000000E+00 0.  1.
          4   -1    0    0  501    0  0.00000000000E+00 -0.00000000000E+00 -0.10574481322E+04  0.10574481322E+04  0.00000000000E+00 0. -1.
         24    2    1    2    0    0 -0.76292848013E+02 -0.53378117834E+03 -0.30543835437E+03  0.62491561357E+03  0.80523231161E+02 0.  0.
        254    2    1    2    0    0  0.76292848013E+02  0.53378117834E+03 -0.13321337100E+03  0.10513289255E+04  0.89263865158E+03 0.  0.
         23    2    4    4    0    0  0.27154977995E+02  0.46464162913E+03 -0.48498067308E+03  0.67825098334E+03  0.90492578686E+02 0.  0.
         23    2    4    4    0    0  0.49137870018E+02  0.69139549213E+02  0.35176730208E+03  0.37307794213E+03  0.90841117097E+02 0.  0.
          4    1    3    3  502    0 -0.64325371181E+02 -0.47926170907E+03 -0.29946748027E+03  0.56877966815E+03  0.00000000000E+00 0. -1.
         -3    1    3    3    0  502 -0.11967476832E+02 -0.54519469270E+02 -0.59708741022E+01  0.56135945425E+02  0.00000000000E+00 0.  1.
         11    1    5    5    0    0  0.24629322215E+02  0.39579994756E+03 -0.45372731227E+03  0.60260490863E+03  0.00000000000E+00 0. -1.
        -11    1    5    5    0    0  0.25256557801E+01  0.68841681564E+02 -0.31253360807E+02  0.75646074713E+02  0.00000000000E+00 0.  1.
          1    1    6    6  503    0  0.64985826867E+02  0.57563604093E+02  0.33833608461E+03  0.34929648203E+03  0.00000000000E+00 0. -1.
         -1    1    6    6    0  503 -0.15847956850E+02  0.11575945120E+02  0.13431217472E+02  0.23781460100E+02  0.00000000000E+00 0.  1.
<mgrwt>
<rscale>  0 0.16178320E+04</rscale>
<asrwt>0</asrwt>
<pdfrwt beam="1">  1        4 0.16268433E+00 0.16178320E+04</pdfrwt>
<pdfrwt beam="2">  1       -3 0.95199449E-01 0.16178320E+04</pdfrwt>
<totfact> 0.51261142E-01</totfact>
</mgrwt>
</event>
<event>
12    6  0.1457317E-007  0.1334895E+04  0.7818608E-02  0.9002342E-01
         -1   -1    0    0    0  501 -0.00000000000E+00  0.00000000000E+00  0.13048331595E+03  0.13048331595E+03  0.00000000000E+00 0.  1.
          2   -1    0    0  501    0  0.00000000000E+00 -0.00000000000E+00 -0.34141236853E+04  0.34141236853E+04  0.00000000000E+00 0. -1.
         24    2    1    2    0    0  0.25798154494E+03  0.10659866617E+03 -0.27592784142E+03  0.39767862062E+03  0.63987174275E+02 0.  0.
        254    2    1    2    0    0 -0.25798154494E+03 -0.10659866617E+03 -0.30077125279E+04  0.31469283806E+04  0.88255641688E+03 0.  0.
         23    2    4    4    0    0  0.11426990385E+03  0.31953992266E+03 -0.10995060810E+04  0.11543952405E+04  0.92473651359E+02 0.  0.
         23    2    4    4    0    0 -0.37225144879E+03 -0.42613858882E+03 -0.19082064470E+04  0.19925331401E+04  0.93654856308E+02 0.  0.
          4    1    3    3  502    0  0.69624234920E+00  0.62565519129E+01  0.12400752508E+01  0.64161500820E+01  0.00000000000E+00 0. -1.
         -3    1    3    3    0  502  0.25728530259E+03  0.10034211425E+03 -0.27716791667E+03  0.39126247054E+03  0.00000000000E+00 0.  1.
         11    1    5    5    0    0  0.86476998026E+02  0.30984597532E+03 -0.10246370921E+04  0.10739478433E+04  0.00000000000E+00 0. -1.
        -11    1    5    5    0    0  0.27792905826E+02  0.96939473367E+01 -0.74868988842E+02  0.80447397220E+02  0.00000000000E+00 0.  1.
          2    1    6    6  503    0 -0.30589767760E+03 -0.39661642018E+03 -0.16599815157E+04  0.17339021329E+04  0.00000000000E+00 0. -1.
         -2    1    6    6    0  503 -0.66353771195E+02 -0.29522168644E+02 -0.24822493126E+03  0.25863100721E+03  0.00000000000E+00 0.  1.
<mgrwt>
<rscale>  0 0.13348950E+04</rscale>
<asrwt>0</asrwt>
<pdfrwt beam="1">  1        2 0.52524971E+00 0.13348950E+04</pdfrwt>
<pdfrwt beam="2">  1       -1 0.20074360E-01 0.13348950E+04</pdfrwt>
<totfact> 0.21485645E+01</totfact>
</mgrwt>
</event>
<event>
12    6  0.1457317E-007  0.1282667E+04  0.7818608E-02  0.9043425E-01
          2   -1    0    0  501    0  0.00000000000E+00  0.00000000000E+00  0.10006174304E+04  0.10006174304E+04  0.00000000000E+00 0. -1.
         -1   -1    0    0    0  501 -0.00000000000E+00 -0.00000000000E+00 -0.41105470464E+03  0.41105470464E+03  0.00000000000E+00 0.  1.
         24    2    1    2    0    0  0.21576412543E+02  0.99000428325E+02  0.52177116854E+03  0.53748968663E+03  0.79896085826E+02 0.  0.
        254    2    1    2    0    0 -0.21576412543E+02 -0.99000428325E+02  0.67791557227E+02  0.87418244841E+03  0.86564001264E+03 0.  0.
         23    2    4    4    0    0  0.19985038589E+03  0.19817961775E+03  0.30468838715E+03  0.42492195262E+03  0.92240527547E+02 0.  0.
         23    2    4    4    0    0 -0.22142679843E+03 -0.29718004607E+03 -0.23689682992E+03  0.44926049579E+03  0.91482666126E+02 0.  0.
          2    1    3    3  502    0  0.25429311008E+02  0.11116579350E+03  0.49297132553E+03  0.50598933911E+03  0.00000000000E+00 0. -1.
         -1    1    3    3    0  502 -0.38528984653E+01 -0.12165365174E+02  0.28799843010E+02  0.31500347518E+02  0.00000000000E+00 0.  1.
         11    1    5    5    0    0  0.12623076065E+03  0.17740715416E+03  0.24593395185E+03  0.32846767262E+03  0.00000000000E+00 0. -1.
        -11    1    5    5    0    0  0.73619625233E+02  0.20772463591E+02  0.58754435301E+02  0.96454280002E+02  0.00000000000E+00 0.  1.
          1    1    6    6  503    0 -0.20675851597E+03 -0.28625696075E+03 -0.24444951996E+03  0.42947374694E+03  0.00000000000E+00 0. -1.
         -1    1    6    6    0  503 -0.14668282462E+02 -0.10923085326E+02  0.75526900314E+01  0.19786748852E+02  0.00000000000E+00 0.  1.
<mgrwt>
<rscale>  0 0.12826668E+04</rscale>
<asrwt>0</asrwt>
<pdfrwt beam="1">  1        2 0.15394114E+00 0.12826668E+04</pdfrwt>
<pdfrwt beam="2">  1       -1 0.63239186E-01 0.12826668E+04</pdfrwt>
<totfact> 0.71454604E+01</totfact>
</mgrwt>
</event>
<event>
12    6  0.1457317E-007  0.4050656E+04  0.7818608E-02  0.7994405E-01
          2   -1    0    0  501    0  0.00000000000E+00  0.00000000000E+00  0.40639607925E+04  0.40639607925E+04  0.00000000000E+00 0. -1.
         -1   -1    0    0    0  501 -0.00000000000E+00 -0.00000000000E+00 -0.10093487428E+04  0.10093487428E+04  0.00000000000E+00 0.  1.
         24    2    1    2    0    0 -0.13684597988E+04  0.51177866342E+03  0.30331420119E+04  0.33676470933E+04  0.80603094467E+02 0.  0.
        254    2    1    2    0    0  0.13684597988E+04 -0.51177866342E+03  0.21470037700E+02  0.17056624420E+04  0.87989987065E+03 0.  0.
         23    2    4    4    0    0  0.58599119929E+03 -0.38733709553E+03 -0.38966679488E+03  0.80844044325E+03  0.91214187659E+02 0.  0.
         23    2    4    4    0    0  0.78246859953E+03 -0.12444156789E+03  0.41113683258E+03  0.89722199880E+03  0.90724897131E+02 0.  0.
          4    1    3    3  502    0 -0.90994469257E+03  0.31874543933E+03  0.19250940470E+04  0.21530408933E+04  0.00000000000E+00 0. -1.
         -3    1    3    3    0  502 -0.45851510625E+03  0.19303322410E+03  0.11080479650E+04  0.12146061999E+04  0.00000000000E+00 0.  1.
         11    1    5    5    0    0  0.25577418424E+03 -0.11712288283E+03 -0.16701895024E+03  0.32715979695E+03  0.00000000000E+00 0. -1.
        -11    1    5    5    0    0  0.33021701505E+03 -0.27021421269E+03 -0.22264784464E+03  0.48128064629E+03  0.00000000000E+00 0.  1.
          2    1    6    6  503    0  0.62078144937E+03 -0.13479765873E+03  0.31917232497E+03  0.71092263271E+03  0.00000000000E+00 0. -1.
         -2    1    6    6    0  503  0.16168715017E+03  0.10356090833E+02  0.91964507610E+02  0.18629936609E+03  0.00000000000E+00 0.  1.
<mgrwt>
<rscale>  0 0.40506561E+04</rscale>
<asrwt>0</asrwt>
<pdfrwt beam="1">  1        2 0.62522473E+00 0.40506561E+04</pdfrwt>
<pdfrwt beam="2">  1       -1 0.15528442E+00 0.40506561E+04</pdfrwt>
<totfact> 0.85460408E-02</totfact>
</mgrwt>
</event>
<event>
12    6  0.1457317E-007  0.1169595E+04  0.7818608E-02  0.9139894E-01
          2   -1    0    0  501    0  0.00000000000E+00  0.00000000000E+00  0.12860870610E+04  0.12860870610E+04  0.00000000000E+00 0. -1.
         -1   -1    0    0    0  501 -0.00000000000E+00 -0.00000000000E+00 -0.26591375489E+03  0.26591375489E+03  0.00000000000E+00 0.  1.
         24    2    1    2    0    0  0.11552069751E+03  0.19213012334E+03  0.23506323760E+03  0.33482938046E+03  0.81221748948E+02 0.  0.
        254    2    1    2    0    0 -0.11552069751E+03 -0.19213012334E+03  0.78511006855E+03  0.12171714355E+04  0.90269012830E+03 0.  0.
         23    2    4    4    0    0 -0.44440253020E+03 -0.30013122966E+03  0.60859875739E+03  0.81627632593E+03  0.91335803031E+02 0.  0.
         23    2    4    4    0    0  0.32888183268E+03  0.10800110632E+03  0.17651131116E+03  0.40089510954E+03  0.98656713144E+02 0.  0.
          4    1    3    3  502    0  0.10907073790E+03  0.15048230546E+03  0.22437446623E+03  0.29135073574E+03  0.00000000000E+00 0. -1.
         -3    1    3    3    0  502  0.64499596183E+01  0.41647817886E+02  0.10688771370E+02  0.43478644725E+02  0.00000000000E+00 0.  1.
         11    1    5    5    0    0 -0.31372938806E+03 -0.15999053642E+03  0.38351065496E+03  0.52067602513E+03  0.00000000000E+00 0. -1.
        -11    1    5    5    0    0 -0.13067314214E+03 -0.14014069325E+03  0.22508810243E+03  0.29560030081E+03  0.00000000000E+00 0.  1.
          4    1    6    6  503    0  0.27082832227E+03  0.48239683280E+02  0.15073985311E+03  0.31368383845E+03  0.00000000000E+00 0. -1.
         -4    1    6    6    0  503  0.58053510412E+02  0.59761423041E+02  0.25771458042E+02  0.87211271087E+02  0.00000000000E+00 0.  1.
<mgrwt>
<rscale>  0 0.11695952E+04</rscale>
<asrwt>0</asrwt>
<pdfrwt beam="1">  1        2 0.19785955E+00 0.11695952E+04</pdfrwt>
<pdfrwt beam="2">  1       -1 0.40909809E-01 0.11695952E+04</pdfrwt>
<totfact> 0.11086052E+02</totfact>
</mgrwt>
</event>
<event>
12    6  0.1457317E-007  0.1912756E+04  0.7818608E-02  0.8648533E-01
         -1   -1    0    0    0  501 -0.00000000000E+00  0.00000000000E+00  0.15341148956E+04  0.15341148956E+04  0.00000000000E+00 0.  1.
          2   -1    0    0  501    0  0.00000000000E+00 -0.00000000000E+00 -0.59621258915E+03  0.59621258915E+03  0.00000000000E+00 0. -1.
         24    2    1    2    0    0  0.73816858495E+02 -0.71825647115E+03  0.46861487493E+03  0.86444342971E+03  0.79506321798E+02 0.  0.
        254    2    1    2    0    0 -0.73816858495E+02  0.71825647115E+03  0.46928743148E+03  0.12658840550E+04  0.92784182941E+03 0.  0.
         23    2    4    4    0    0  0.19807390149E+03  0.20185206850E+03 -0.21108572250E+03  0.36483302063E+03  0.92565774939E+02 0.  0.
         23    2    4    4    0    0 -0.27189075999E+03  0.51640440265E+03  0.68037315397E+03  0.90105103436E+03  0.91581905620E+02 0.  0.
          2    1    3    3  502    0 -0.12748431252E+02 -0.21910157096E+03  0.12983548156E+03  0.25500053563E+03  0.00000000000E+00 0. -1.
         -1    1    3    3    0  502  0.86565289747E+02 -0.49915490019E+03  0.33877939337E+03  0.60944289408E+03  0.00000000000E+00 0.  1.
         11    1    5    5    0    0  0.11615169921E+03  0.17695502334E+03 -0.15730600992E+03  0.26372235072E+03  0.00000000000E+00 0. -1.
        -11    1    5    5    0    0  0.81922202282E+02  0.24897045168E+02 -0.53779712574E+02  0.10111066991E+03  0.00000000000E+00 0.  1.
          3    1    6    6  503    0 -0.14296092607E+03  0.17648985568E+03  0.25449714833E+03  0.34110891816E+03  0.00000000000E+00 0. -1.
         -3    1    6    6    0  503 -0.12892983392E+03  0.33991454696E+03  0.42587600564E+03  0.55994211620E+03  0.00000000000E+00 0.  1.
<mgrwt>
<rscale>  0 0.19127557E+04</rscale>
<asrwt>0</asrwt>
<pdfrwt beam="1">  1        2 0.91725015E-01 0.19127557E+04</pdfrwt>
<pdfrwt beam="2">  1       -1 0.23601767E+00 0.19127557E+04</pdfrwt>
<totfact> 0.45989537E+00</totfact>
</mgrwt>
</event>
<event>
12    6  0.1457317E-007  0.2202940E+04  0.7818608E-02  0.8517205E-01
          2   -1    0    0  501    0  0.00000000000E+00  0.00000000000E+00  0.65621584727E+03  0.65621584727E+03  0.00000000000E+00 0. -1.
         -1   -1    0    0    0  501 -0.00000000000E+00 -0.00000000000E+00 -0.18488375480E+04  0.18488375480E+04  0.00000000000E+00 0.  1.
         24    2    1    2    0    0 -0.83251998996E+03 -0.33450635639E+03 -0.29464949795E+03  0.94780645499E+03  0.80837573771E+02 0.  0.
        254    2    1    2    0    0  0.83251998996E+03  0.33450635639E+03 -0.89797220278E+03  0.15572469403E+04  0.90204208323E+03 0.  0.
         23    2    4    4    0    0  0.48036813941E+03 -0.17889872309E+03 -0.82431845831E+02  0.52707682395E+03  0.90866201965E+02 0.  0.
         23    2    4    4    0    0  0.35215185055E+03  0.51340507948E+03 -0.81554035695E+03  0.10301701163E+04  0.92459143880E+02 0.  0.
          4    1    3    3  502    0 -0.27427539151E+03 -0.12369644239E+03 -0.13705993699E+03  0.33062550805E+03  0.00000000000E+00 0. -1.
         -3    1    3    3    0  502 -0.55824459845E+03 -0.21080991401E+03 -0.15758956096E+03  0.61718094694E+03  0.00000000000E+00 0.  1.
         11    1    5    5    0    0  0.31796890791E+03 -0.16279981034E+03 -0.50266014450E+02  0.36074184239E+03  0.00000000000E+00 0. -1.
        -11    1    5    5    0    0  0.16239923150E+03 -0.16098912758E+02 -0.32165831382E+02  0.16633498156E+03  0.00000000000E+00 0.  1.
          4    1    6    6  503    0  0.34608608678E+03  0.46169077993E+03 -0.73852588058E+03  0.93720565087E+03  0.00000000000E+00 0. -1.
         -4    1    6    6    0  503  0.60657637697E+01  0.51714299550E+02 -0.77014476378E+02  0.92964465469E+02  0.00000000000E+00 0.  1.
<mgrwt>
<rscale>  0 0.22029403E+04</rscale>
<asrwt>0</asrwt>
<pdfrwt beam="1">  1        2 0.10095629E+00 0.22029403E+04</pdfrwt>
<pdfrwt beam="2">  1       -1 0.28443654E+00 0.22029403E+04</pdfrwt>
<totfact> 0.19310853E+00</totfact>
</mgrwt>
</event>
<event>
12    6  0.1457317E-007  0.1707364E+04  0.7818608E-02  0.8757175E-01
         -1   -1    0    0    0  501 -0.00000000000E+00  0.00000000000E+00  0.38159721327E+03  0.38159721327E+03  0.00000000000E+00 0.  1.
          2   -1    0    0  501    0  0.00000000000E+00 -0.00000000000E+00 -0.19097968831E+04  0.19097968831E+04  0.00000000000E+00 0. -1.
         24    2    1    2    0    0  0.32717306461E+03  0.47390999007E+03 -0.27969230547E+03  0.64527855613E+03  0.80769650001E+02 0.  0.
        254    2    1    2    0    0 -0.32717306461E+03 -0.47390999007E+03 -0.12485073643E+04  0.16461155402E+04  0.90514796583E+03 0.  0.
         23    2    4    4    0    0  0.48417751507E+02  0.16761856264E+02  0.10959745094E+03  0.15114824567E+03  0.90603269424E+02 0.  0.
         23    2    4    4    0    0 -0.37559081612E+03 -0.49067184634E+03 -0.13581048153E+04  0.14949672945E+04  0.93011830190E+02 0.  0.
          4    1    3    3  502    0  0.87438683004E+02  0.16121040268E+03 -0.12516979614E+03  0.22204007540E+03  0.00000000000E+00 0. -1.
         -3    1    3    3    0  502  0.23973438160E+03  0.31269958739E+03 -0.15452250934E+03  0.42323848073E+03  0.00000000000E+00 0.  1.
         11    1    5    5    0    0  0.55995479514E+02  0.21757489682E+02  0.23393997892E+02  0.64468296245E+02  0.00000000000E+00 0. -1.
        -11    1    5    5    0    0 -0.75777280069E+01 -0.49956334184E+01  0.86203453050E+02  0.86679949427E+02  0.00000000000E+00 0.  1.
          2    1    6    6  503    0 -0.30243391566E+03 -0.39901994095E+03 -0.10034144524E+04  0.11213936641E+04  0.00000000000E+00 0. -1.
         -2    1    6    6    0  503 -0.73156900455E+02 -0.91651905388E+02 -0.35469036282E+03  0.37357363039E+03  0.00000000000E+00 0.  1.
<mgrwt>
<rscale>  0 0.17073642E+04</rscale>
<asrwt>0</asrwt>
<pdfrwt beam="1">  1        2 0.29381490E+00 0.17073642E+04</pdfrwt>
<pdfrwt beam="2">  1       -1 0.58707265E-01 0.17073642E+04</pdfrwt>
<totfact> 0.23885298E+01</totfact>
</mgrwt>
</event>
<event>
12    6  0.1457317E-007  0.3233348E+04  0.7818608E-02  0.8180065E-01
         -1   -1    0    0    0  501 -0.00000000000E+00  0.00000000000E+00  0.12070745464E+04  0.12070745464E+04  0.00000000000E+00 0.  1.
          2   -1    0    0  501    0  0.00000000000E+00 -0.00000000000E+00 -0.21652637650E+04  0.21652637650E+04  0.00000000000E+00 0. -1.
         24    2    1    2    0    0 -0.50246799875E+03  0.14029279490E+04 -0.50732835268E+03  0.15762395604E+04  0.80424962892E+02 0.  0.
        254    2    1    2    0    0  0.50246799875E+03 -0.14029279490E+04 -0.45086086591E+03  0.17960987510E+04  0.89555250153E+03 0.  0.
         23    2    4    4    0    0  0.43524544545E+03 -0.64035937211E+03 -0.63234224082E+03  0.10039146782E+04  0.92137116678E+02 0.  0.
         23    2    4    4    0    0  0.67222553301E+02 -0.76256857686E+03  0.18148137491E+03  0.79218407279E+03  0.92684462834E+02 0.  0.
          4    1    3    3  502    0 -0.11483277160E+03  0.38768968139E+03 -0.16703123301E+03  0.43748061361E+03  0.00000000000E+00 0. -1.
         -3    1    3    3    0  502 -0.38763522715E+03  0.10152382676E+04 -0.34029711967E+03  0.11387589468E+04  0.00000000000E+00 0.  1.
         11    1    5    5    0    0  0.13758597471E+03 -0.16640101941E+03 -0.22391377597E+03  0.31105719533E+03  0.00000000000E+00 0. -1.
        -11    1    5    5    0    0  0.29765947074E+03 -0.47395835270E+03 -0.40842846485E+03  0.69285748283E+03  0.00000000000E+00 0.  1.
          1    1    6    6  503    0 -0.14886938163E+02 -0.17271948609E+03  0.16073427755E+02  0.17410340860E+03  0.00000000000E+00 0. -1.
         -1    1    6    6    0  503  0.82109491463E+02 -0.58984909077E+03  0.16540794716E+03  0.61808066420E+03  0.00000000000E+00 0.  1.
<mgrwt>
<rscale>  0 0.32333480E+04</rscale>
<asrwt>0</asrwt>
<pdfrwt beam="1">  1        2 0.33311750E+00 0.32333480E+04</pdfrwt>
<pdfrwt beam="2">  1       -1 0.18570378E+00 0.32333480E+04</pdfrwt>
<totfact> 0.97723397E-01</totfact>
</mgrwt>
</event>
<event>
12    6  0.1457317E-007  0.2132626E+04  0.7818608E-02  0.8547006E-01
         -1   -1    0    0    0  501 -0.00000000000E+00  0.00000000000E+00  0.63020802067E+03  0.63020802067E+03  0.00000000000E+00 0.  1.
          2   -1    0    0  501    0  0.00000000000E+00 -0.00000000000E+00 -0.18042040727E+04  0.18042040727E+04  0.00000000000E+00 0. -1.
         24    2    1    2    0    0 -0.39766672933E+03 -0.69713383124E+03 -0.89107862063E+02  0.81163145206E+03  0.81676169208E+02 0.  0.
        254    2    1    2    0    0  0.39766672933E+03  0.69713383124E+03 -0.10848881900E+04  0.16227806413E+04  0.90127699338E+03 0.  0.
         23    2    4    4    0    0 -0.12310047753E+03  0.14930272392E+03  0.81700648008E+02  0.22968286288E+03  0.92920345881E+02 0.  0.
         23    2    4    4    0    0  0.52076720685E+03  0.54783110732E+03 -0.11665888380E+04  0.13930977784E+04  0.92057033918E+02 0.  0.
          4    1    3    3  502    0 -0.20772307446E+03 -0.33098052140E+03 -0.80955163275E+02  0.39906230049E+03  0.00000000000E+00 0. -1.
         -1    1    3    3    0  502 -0.18994365487E+03 -0.36615330984E+03 -0.81526987876E+01  0.41256915157E+03  0.00000000000E+00 0.  1.
         11    1    5    5    0    0 -0.30729459946E+02  0.10048535991E+03  0.16067650613E+02  0.10630040762E+03  0.00000000000E+00 0. -1.
        -11    1    5    5    0    0 -0.92371017583E+02  0.48817364008E+02  0.65632997396E+02  0.12338245526E+03  0.00000000000E+00 0.  1.
          3    1    6    6  503    0  0.40546901510E+03  0.46483062726E+03 -0.99029207951E+03  0.11666837776E+04  0.00000000000E+00 0. -1.
         -3    1    6    6    0  503  0.11529819176E+03  0.83000480059E+02 -0.17629675845E+03  0.22641400079E+03  0.00000000000E+00 0.  1.
<mgrwt>
<rscale>  0 0.21326264E+04</rscale>
<asrwt>0</asrwt>
<pdfrwt beam="1">  1        2 0.27756985E+00 0.21326264E+04</pdfrwt>
<pdfrwt beam="2">  1       -1 0.96955081E-01 0.21326264E+04</pdfrwt>
<totfact> 0.91847526E+00</totfact>
</mgrwt>
</event>
<event>
12    6  0.1457317E-007  0.2062349E+04  0.7818608E-02  0.8578013E-01
          2   -1    0    0  501    0  0.00000000000E+00  0.00000000000E+00  0.10197667778E+04  0.10197667778E+04  0.00000000000E+00 0. -1.
         -1   -1    0    0    0  501 -0.00000000000E+00 -0.00000000000E+00 -0.10427099465E+04  0.10427099465E+04  0.00000000000E+00 0.  1.
         24    2    1    2    0    0  0.56274902339E+03  0.35813722356E+03 -0.50882655488E+03  0.84306056377E+03  0.83053699509E+02 0.  0.
        254    2    1    2    0    0 -0.56274902339E+03 -0.35813722356E+03  0.48588338618E+03  0.12194161606E+04  0.89774404679E+03 0.  0.
         23    2    4    4    0    0  0.62822390786E+02 -0.41822240962E+03  0.22354183721E+02  0.43327863026E+03  0.91509700124E+02 0.  0.
         23    2    4    4    0    0 -0.62557141418E+03  0.60085186054E+02  0.46352920246E+03  0.78613753035E+03  0.90570808073E+02 0.  0.
          4    1    3    3  502    0  0.39609607607E+03  0.26433270520E+03 -0.31615327396E+03  0.57159143901E+03  0.00000000000E+00 0. -1.
         -3    1    3    3    0  502  0.16665294733E+03  0.93804518362E+02 -0.19267328092E+03  0.27146912476E+03  0.00000000000E+00 0.  1.
         11    1    5    5    0    0  0.58711420700E+02 -0.27342376331E+03  0.54452055771E+02  0.28490807578E+03  0.00000000000E+00 0. -1.
        -11    1    5    5    0    0  0.41109700860E+01 -0.14479864630E+03 -0.32097872049E+02  0.14837055448E+03  0.00000000000E+00 0.  1.
          1    1    6    6  503    0 -0.19822078579E+03  0.39047579257E+02  0.10376745761E+03  0.22712084586E+03  0.00000000000E+00 0. -1.
         -1    1    6    6    0  503 -0.42735062839E+03  0.21037606798E+02  0.35976174485E+03  0.55901668449E+03  0.00000000000E+00 0.  1.
<mgrwt>
<rscale>  0 0.20623491E+04</rscale>
<asrwt>0</asrwt>
<pdfrwt beam="1">  1        2 0.15688720E+00 0.20623491E+04</pdfrwt>
<pdfrwt beam="2">  1       -1 0.16041692E+00 0.20623491E+04</pdfrwt>
<totfact> 0.74835441E+00</totfact>
</mgrwt>
</event>
<event>
12    6  0.1457317E-007  0.1239959E+04  0.7818608E-02  0.9078582E-01
         -1   -1    0    0    0  501 -0.00000000000E+00  0.00000000000E+00  0.13926896607E+03  0.13926896607E+03  0.00000000000E+00 0.  1.
          2   -1    0    0  501    0  0.00000000000E+00 -0.00000000000E+00 -0.27599449606E+04  0.27599449606E+04  0.00000000000E+00 0. -1.
         24    2    1    2    0    0  0.12318489017E+03 -0.25187352359E+03 -0.73423858370E+03  0.79006626439E+03  0.80520899584E+02 0.  0.
        254    2    1    2    0    0 -0.12318489017E+03  0.25187352359E+03 -0.18864374109E+04  0.21091476623E+04  0.90069027268E+03 0.  0.
         23    2    4    4    0    0  0.81491866140E+02 -0.30971532855E+03 -0.56157531249E+03  0.65285916368E+03  0.91070011615E+02 0.  0.
         23    2    4    4    0    0 -0.20467675631E+03  0.56158885214E+03 -0.13248620984E+04  0.14562884986E+04  0.90785451132E+02 0.  0.
          4    1    3    3  502    0  0.10775013283E+03 -0.13959065436E+03 -0.49136382322E+03  0.52204793715E+03  0.00000000000E+00 0. -1.
         -3    1    3    3    0  502  0.15434757345E+02 -0.11228286923E+03 -0.24287476048E+03  0.26801832724E+03  0.00000000000E+00 0.  1.
         11    1    5    5    0    0  0.74137805076E+02 -0.10835200125E+03 -0.21146873331E+03  0.24890880958E+03  0.00000000000E+00 0. -1.
        -11    1    5    5    0    0  0.73540610635E+01 -0.20136332730E+03 -0.35010657918E+03  0.40395035410E+03  0.00000000000E+00 0.  1.
          3    1    6    6  503    0 -0.97637645174E+02  0.18142067187E+03 -0.38124756482E+03  0.43335467647E+03  0.00000000000E+00 0. -1.
         -3    1    6    6    0  503 -0.10703911114E+03  0.38016818027E+03 -0.94361453355E+03  0.10229338222E+04  0.00000000000E+00 0.  1.
<mgrwt>
<rscale>  0 0.12399592E+04</rscale>
<asrwt>0</asrwt>
<pdfrwt beam="1">  1        2 0.42460691E+00 0.12399592E+04</pdfrwt>
<pdfrwt beam="2">  1       -1 0.21425995E-01 0.12399592E+04</pdfrwt>
<totfact> 0.50382504E+01</totfact>
</mgrwt>
</event>
<event>
12    6  0.1457317E-007  0.1322736E+04  0.7818608E-02  0.9011727E-01
          2   -1    0    0  501    0  0.00000000000E+00  0.00000000000E+00  0.11734298389E+04  0.11734298389E+04  0.00000000000E+00 0. -1.
         -1   -1    0    0    0  501 -0.00000000000E+00 -0.00000000000E+00 -0.37275970835E+03  0.37275970835E+03  0.00000000000E+00 0.  1.
         24    2    1    2    0    0  0.20141335777E+03  0.25822365377E+03  0.10174057110E+03  0.35162744617E+03  0.77742659076E+02 0.  0.
        254    2    1    2    0    0 -0.20141335777E+03 -0.25822365377E+03  0.69892955946E+03  0.11945621011E+04  0.91171776785E+03 0.  0.
         23    2    4    4    0    0 -0.50341702239E+03 -0.34244592588E+03  0.58176624330E+03  0.84736565978E+03  0.94226795227E+02 0.  0.
         23    2    4    4    0    0  0.30200366462E+03  0.84222272111E+02  0.11716331616E+03  0.34719644131E+03  0.92295837611E+02 0.  0.
          2    1    3    3  502    0  0.63266454759E+02  0.77619923488E+02 -0.53697931075E+01  0.10028126195E+03  0.00000000000E+00 0. -1.
         -1    1    3    3    0  502  0.13814690301E+03  0.18060373028E+03  0.10711036421E+03  0.25134618423E+03  0.00000000000E+00 0.  1.
         11    1    5    5    0    0 -0.49218661752E+03 -0.34793675946E+03  0.56281373743E+03  0.82466172343E+03  0.00000000000E+00 0. -1.
        -11    1    5    5    0    0 -0.11230404866E+02  0.54908335766E+01  0.18952505867E+02  0.22703936343E+02  0.00000000000E+00 0.  1.
          1    1    6    6  503    0  0.28973100106E+03  0.97504452496E+02  0.12088837890E+03  0.32873267465E+03  0.00000000000E+00 0. -1.
         -1    1    6    6    0  503  0.12272663565E+02 -0.13282180386E+02 -0.37250627427E+01  0.18463766658E+02  0.00000000000E+00 0.  1.
<mgrwt>
<rscale>  0 0.13227356E+04</rscale>
<asrwt>0</asrwt>
<pdfrwt beam="1">  1        2 0.18052766E+00 0.13227356E+04</pdfrwt>
<pdfrwt beam="2">  1       -1 0.57347648E-01 0.13227356E+04</pdfrwt>
<totfact> 0.67513557E+01</totfact>
</mgrwt>
</event>
<event>
12    6  0.1457317E-007  0.1610539E+04  0.7818608E-02  0.8814100E-01
          2   -1    0    0  501    0  0.00000000000E+00  0.00000000000E+00  0.21900266530E+04  0.21900266530E+04  0.00000000000E+00 0. -1.
         -1   -1    0    0    0  501 -0.00000000000E+00 -0.00000000000E+00 -0.29609637425E+03  0.29609637425E+03  0.00000000000E+00 0.  1.
         24    2    1    2    0    0 -0.88920151028E+02 -0.44064630488E+01 -0.18700603030E+03  0.22164137216E+03  0.78914081816E+02 0.  0.
        254    2    1    2    0    0  0.88920151028E+02  0.44064630488E+01  0.20809363090E+04  0.22644816551E+04  0.88862536186E+03 0.  0.
         23    2    4    4    0    0 -0.42642847733E+02 -0.24305343199E+03  0.19009473687E+04  0.19190946322E+04  0.91814627338E+02 0.  0.
         23    2    4    4    0    0  0.13156299876E+03  0.24745989504E+03  0.17998894035E+03  0.34538702282E+03  0.91383557542E+02 0.  0.
          4    1    3    3  502    0 -0.83673032123E+02 -0.15440445029E+02 -0.89940308849E+02  0.12380970399E+03  0.00000000000E+00 0. -1.
         -3    1    3    3    0  502 -0.52471189043E+01  0.11033981980E+02 -0.97065721452E+02  0.97831668166E+02  0.00000000000E+00 0.  1.
         11    1    5    5    0    0  0.28382094082E+02 -0.86185529375E+02  0.60931963870E+03  0.61603888745E+03  0.00000000000E+00 0.  1.
        -11    1    5    5    0    0 -0.71024941815E+02 -0.15686790261E+03  0.12916277300E+04  0.13030557448E+04  0.00000000000E+00 0. -1.
          3    1    6    6  503    0  0.13532624416E+03  0.24441419109E+03  0.15411831353E+03  0.31906730283E+03  0.00000000000E+00 0. -1.
         -3    1    6    6    0  503 -0.37632454017E+01  0.30457039431E+01  0.25870626820E+02  0.26319719994E+02  0.00000000000E+00 0.  1.
<mgrwt>
<rscale>  0 0.16105390E+04</rscale>
<asrwt>0</asrwt>
<pdfrwt beam="1">  1        2 0.33692717E+00 0.16105390E+04</pdfrwt>
<pdfrwt beam="2">  1       -1 0.45553290E-01 0.16105390E+04</pdfrwt>
<totfact> 0.27343305E+01</totfact>
</mgrwt>
</event>
<event>
12    6  0.1457317E-007  0.2590307E+04  0.7818608E-02  0.8371501E-01
         -1   -1    0    0    0  501 -0.00000000000E+00  0.00000000000E+00  0.87880411091E+03  0.87880411091E+03  0.00000000000E+00 0.  1.
          2   -1    0    0  501    0  0.00000000000E+00 -0.00000000000E+00 -0.19087558874E+04  0.19087558874E+04  0.00000000000E+00 0. -1.
         24    2    1    2    0    0  0.19462228997E+03 -0.55358692215E+03  0.60051983796E+03  0.84364885737E+03  0.82358986339E+02 0.  0.
        254    2    1    2    0    0 -0.19462228997E+03  0.55358692215E+03 -0.16304716145E+04  0.19439111409E+04  0.88091799968E+03 0.  0.
         23    2    4    4    0    0  0.40655217954E+02  0.17078165014E+03  0.48954154288E+02  0.20296355441E+03  0.89322317616E+02 0.  0.
         23    2    4    4    0    0 -0.23527750792E+03  0.38280527201E+03 -0.16794257687E+04  0.17409475865E+04  0.92369931752E+02 0.  0.
          2    1    3    3  502    0  0.25447176177E+02 -0.42151185718E+02  0.24526374222E+02  0.55007492811E+02  0.00000000000E+00 0. -1.
         -1    1    3    3    0  502  0.16917511379E+03 -0.51143573643E+03  0.57599346374E+03  0.78864136456E+03  0.00000000000E+00 0.  1.
         11    1    5    5    0    0  0.51291046371E+02  0.12436791974E+03 -0.19727330514E+00  0.13452951281E+03  0.00000000000E+00 0. -1.
        -11    1    5    5    0    0 -0.10635828417E+02  0.46413730395E+02  0.49151427593E+02  0.68434041600E+02  0.00000000000E+00 0.  1.
          1    1    6    6  503    0 -0.14308235476E+03  0.22960574078E+03 -0.11758295108E+04  0.12065514472E+04  0.00000000000E+00 0. -1.
         -1    1    6    6    0  503 -0.92195153166E+02  0.15319953123E+03 -0.50359625798E+03  0.53439613929E+03  0.00000000000E+00 0.  1.
<mgrwt>
<rscale>  0 0.25903069E+04</rscale>
<asrwt>0</asrwt>
<pdfrwt beam="1">  1        2 0.29365475E+00 0.25903069E+04</pdfrwt>
<pdfrwt beam="2">  1       -1 0.13520064E+00 0.25903069E+04</pdfrwt>
<totfact> 0.34712543E+00</totfact>
</mgrwt>
</event>
<event>
12    6  0.1457317E-007  0.2355215E+04  0.7818608E-02  0.8456463E-01
          2   -1    0    0  501    0  0.00000000000E+00  0.00000000000E+00  0.15610640341E+04  0.15610640341E+04  0.00000000000E+00 0. -1.
         -1   -1    0    0    0  501 -0.00000000000E+00 -0.00000000000E+00 -0.88834271963E+03  0.88834271963E+03  0.00000000000E+00 0.  1.
         24    2    1    2    0    0  0.20162208147E+03 -0.98233634151E+03  0.34734778163E+03  0.10643327537E+04  0.80731515252E+02 0.  0.
        254    2    1    2    0    0 -0.20162208147E+03  0.98233634151E+03  0.32537353288E+03  0.13850740001E+04  0.89829054224E+03 0.  0.
         23    2    4    4    0    0  0.27528233107E+03  0.74912718821E+03  0.14105890039E+03  0.81573902037E+03  0.92523673001E+02 0.  0.
         23    2    4    4    0    0 -0.47690441254E+03  0.23320915330E+03  0.18431463249E+03  0.56933497973E+03  0.91357033203E+02 0.  0.
          2    1    3    3  502    0  0.20227326839E+03 -0.88974236457E+03  0.32892603151E+03  0.96992179304E+03  0.00000000000E+00 0. -1.
         -1    1    3    3    0  502 -0.65118691969E+00 -0.92593976941E+02  0.18421750123E+02  0.94410960633E+02  0.00000000000E+00 0.  1.
         11    1    5    5    0    0  0.11861657960E+03  0.39752083908E+03  0.34178978892E+02  0.41624621687E+03  0.00000000000E+00 0. -1.
        -11    1    5    5    0    0  0.15666575147E+03  0.35160634912E+03  0.10687992150E+03  0.39949280350E+03  0.00000000000E+00 0.  1.
          1    1    6    6  503    0 -0.42030558059E+03  0.20309747230E+03  0.19203753793E+03  0.50476111212E+03  0.00000000000E+00 0. -1.
         -1    1    6    6    0  503 -0.56598831944E+02  0.30111681006E+02 -0.77229054407E+01  0.64573867616E+02  0.00000000000E+00 0.  1.
<mgrwt>
<rscale>  0 0.23552154E+04</rscale>
<asrwt>0</asrwt>
<pdfrwt beam="1">  1        2 0.24016370E+00 0.23552154E+04</pdfrwt>
<pdfrwt beam="2">  1       -1 0.13666811E+00 0.23552154E+04</pdfrwt>
<totfact> 0.53802974E+00</totfact>
</mgrwt>
</event>
<event>
12    6  0.1457317E-007  0.2071964E+04  0.7818608E-02  0.8573695E-01
          2   -1    0    0  501    0  0.00000000000E+00  0.00000000000E+00  0.20115999324E+04  0.20115999324E+04  0.00000000000E+00 0. -1.
         -1   -1    0    0    0  501 -0.00000000000E+00 -0.00000000000E+00 -0.53353500182E+03  0.53353500182E+03  0.00000000000E+00 0.  1.
         24    2    1    2    0    0  0.11844759823E+03  0.72502287579E+03  0.11035626623E+04  0.13280652821E+04  0.78859621305E+02 0.  0.
        254    2    1    2    0    0 -0.11844759823E+03 -0.72502287579E+03  0.37450226832E+03  0.12170696522E+04  0.89516399913E+03 0.  0.
         23    2    4    4    0    0 -0.18002475922E+03 -0.17815528981E+03  0.56639932886E+03  0.62722007548E+03  0.91916277855E+02 0.  0.
         23    2    4    4    0    0  0.61577160988E+02 -0.54686758598E+03 -0.19189706054E+03  0.58984957670E+03  0.90786221053E+02 0.  0.
          4    1    3    3  502    0  0.85061834740E+02  0.65535170474E+03  0.96883850144E+03  0.11727614482E+04  0.00000000000E+00 0. -1.
         -3    1    3    3    0  502  0.33385763490E+02  0.69671171057E+02  0.13472416086E+03  0.15530383382E+03  0.00000000000E+00 0.  1.
         11    1    5    5    0    0  0.10745109461E+02 -0.77552382842E+01  0.36038397624E+02  0.38397489521E+02  0.00000000000E+00 0. -1.
        -11    1    5    5    0    0 -0.19076986868E+03 -0.17040005153E+03  0.53036093124E+03  0.58882258596E+03  0.00000000000E+00 0.  1.
          1    1    6    6  503    0 -0.20801888730E+02 -0.73969468695E+02 -0.15111504385E+02  0.78310653417E+02  0.00000000000E+00 0. -1.
         -1    1    6    6    0  503  0.82379049718E+02 -0.47289811729E+03 -0.17678555616E+03  0.51153892328E+03  0.00000000000E+00 0.  1.
<mgrwt>
<rscale>  0 0.20719643E+04</rscale>
<asrwt>0</asrwt>
<pdfrwt beam="1">  1        2 0.30947691E+00 0.20719643E+04</pdfrwt>
<pdfrwt beam="2">  1       -1 0.82082309E-01 0.20719643E+04</pdfrwt>
<totfact> 0.10218695E+01</totfact>
</mgrwt>
</event>
<event>
12    6  0.1457317E-007  0.1335591E+04  0.7818608E-02  0.9001808E-01
         -1   -1    0    0    0  501 -0.00000000000E+00  0.00000000000E+00  0.22547941130E+03  0.22547941130E+03  0.00000000000E+00 0.  1.
          2   -1    0    0  501    0  0.00000000000E+00 -0.00000000000E+00 -0.19777900577E+04  0.19777900577E+04  0.00000000000E+00 0. -1.
         24    2    1    2    0    0 -0.87418906571E+02 -0.12041265131E+03 -0.96016834016E+03  0.97455750382E+03  0.75483872294E+02 0.  0.
        254    2    1    2    0    0  0.87418906571E+02  0.12041265131E+03 -0.79214230628E+03  0.12287119652E+04  0.92741705195E+03 0.  0.
         23    2    4    4    0    0  0.26627597618E+03 -0.50256734926E+02  0.96174432094E+02  0.30221900483E+03  0.93049291222E+02 0.  0.
         23    2    4    4    0    0 -0.17885706961E+03  0.17066938624E+03 -0.88831673838E+03  0.92649296039E+03  0.90358658829E+02 0.  0.
          2    1    3    3  502    0 -0.38014832371E+01 -0.51332889507E+02 -0.45339204781E+03  0.45630457573E+03  0.00000000000E+00 0. -1.
         -1    1    3    3    0  502 -0.83617423333E+02 -0.69079761805E+02 -0.50677629236E+03  0.51825292809E+03  0.00000000000E+00 0.  1.
         11    1    5    5    0    0  0.26042053841E+03 -0.37776048815E+02  0.69463071413E+02  0.27215988863E+03  0.00000000000E+00 0. -1.
        -11    1    5    5    0    0  0.58554377693E+01 -0.12480686111E+02  0.26711360681E+02  0.30059116200E+02  0.00000000000E+00 0.  1.
          1    1    6    6  503    0 -0.18437841747E+03  0.16995291173E+03 -0.88536652507E+03  0.92019197820E+03  0.00000000000E+00 0. -1.
         -1    1    6    6    0  503  0.55213478642E+01  0.71647450417E+00 -0.29502133054E+01  0.63009821854E+01  0.00000000000E+00 0.  1.
<mgrwt>
<rscale>  0 0.13355912E+04</rscale>
<asrwt>0</asrwt>
<pdfrwt beam="1">  1        2 0.30427539E+00 0.13355912E+04</pdfrwt>
<pdfrwt beam="2">  1       -1 0.34689140E-01 0.13355912E+04</pdfrwt>
<totfact> 0.60412171E+01</totfact>
</mgrwt>
</event>
<event>
12    6  0.1457317E-007  0.2770104E+04  0.7818608E-02  0.8312610E-01
          2   -1    0    0  501    0  0.00000000000E+00  0.00000000000E+00  0.21875959855E+04  0.21875959855E+04  0.00000000000E+00 0. -1.
         -1   -1    0    0    0  501 -0.00000000000E+00 -0.00000000000E+00 -0.87693020110E+03  0.87693020110E+03  0.00000000000E+00 0.  1.
         24    2    1    2    0    0  0.10872878154E+04 -0.36927164867E+02  0.12364532177E+04  0.16487372369E+04  0.77197847136E+02 0.  0.
        254    2    1    2    0    0 -0.10872878154E+04  0.36927164867E+02  0.74212566723E+02  0.14157889497E+04  0.90299082836E+03 0.  0.
         23    2    4    4    0    0 -0.66793757320E+03 -0.59669701802E+02 -0.38765340990E+03  0.77953479243E+03  0.87739679689E+02 0.  0.
         23    2    4    4    0    0 -0.41935024222E+03  0.96596866668E+02  0.46186597662E+03  0.63625415732E+03  0.79458115090E+02 0.  0.
          2    1    3    3  502    0  0.10245103054E+04 -0.51664803311E+02  0.11530536896E+04  0.15433157255E+04  0.00000000000E+00 0. -1.
         -1    1    3    3    0  502  0.62777510056E+02  0.14737638445E+02  0.83399528147E+02  0.10542151133E+03  0.00000000000E+00 0.  1.
         11    1    5    5    0    0 -0.24161763886E+03  0.19645948654E+02 -0.14946314162E+03  0.28478812723E+03  0.00000000000E+00 0.  1.
        -11    1    5    5    0    0 -0.42631993434E+03 -0.79315650456E+02 -0.23819026828E+03  0.49474666520E+03  0.00000000000E+00 0. -1.
          4    1    6    6  503    0 -0.29297686963E+01 -0.54030716286E+01  0.18532981058E+02  0.19525575908E+02  0.00000000000E+00 0.  1.
         -4    1    6    6    0  503 -0.41642047352E+03  0.10199993830E+03  0.44333299556E+03  0.61672858141E+03  0.00000000000E+00 0. -1.
<mgrwt>
<rscale>  0 0.27701040E+04</rscale>
<asrwt>0</asrwt>
<pdfrwt beam="1">  1        2 0.33655323E+00 0.27701040E+04</pdfrwt>
<pdfrwt beam="2">  1       -1 0.13491234E+00 0.27701040E+04</pdfrwt>
<totfact> 0.24017642E+00</totfact>
</mgrwt>
</event>
<event>
12    6  0.1457317E-007  0.1336507E+04  0.7818608E-02  0.9001105E-01
          2   -1    0    0  501    0  0.00000000000E+00  0.00000000000E+00  0.12857263744E+03  0.12857263744E+03  0.00000000000E+00 0. -1.
         -1   -1    0    0    0  501 -0.00000000000E+00 -0.00000000000E+00 -0.34732327378E+04  0.34732327378E+04  0.00000000000E+00 0.  1.
         24    2    1    2    0    0  0.27873649067E+02 -0.32651215783E+02  0.37606606195E+02  0.97394131748E+02  0.78919692504E+02 0.  0.
        254    2    1    2    0    0 -0.27873649067E+02  0.32651215783E+02 -0.33822667065E+04  0.35044112435E+04  0.91614793951E+03 0.  0.
         23    2    4    4    0    0  0.10085020029E+03 -0.40873918846E+03 -0.12798128707E+04  0.13502778148E+04  0.89948351444E+02 0.  0.
         23    2    4    4    0    0 -0.12872384936E+03  0.44139040424E+03 -0.21024538358E+04  0.21541334287E+04  0.92646524972E+02 0.  0.
          4    1    3    3  502    0  0.17257278886E+02 -0.15322269390E+02  0.61699845999E+02  0.65874552068E+02  0.00000000000E+00 0. -1.
         -3    1    3    3    0  502  0.10616370181E+02 -0.17328946393E+02 -0.24093239805E+02  0.31519579680E+02  0.00000000000E+00 0.  1.
         11    1    5    5    0    0  0.25283605953E+02 -0.22510713557E+03 -0.78734078716E+03  0.81927895027E+03  0.00000000000E+00 0. -1.
        -11    1    5    5    0    0  0.75566594339E+02 -0.18363205289E+03 -0.49247208357E+03  0.53099886452E+03  0.00000000000E+00 0.  1.
          1    1    6    6  503    0 -0.82196740957E+02  0.26915612817E+03 -0.10706902624E+04  0.11070586992E+04  0.00000000000E+00 0. -1.
         -1    1    6    6    0  503 -0.46527108402E+02  0.17223427606E+03 -0.10317635734E+04  0.10470747295E+04  0.00000000000E+00 0.  1.
<mgrwt>
<rscale>  0 0.13365069E+04</rscale>
<asrwt>0</asrwt>
<pdfrwt beam="1">  1        2 0.19780408E-01 0.13365069E+04</pdfrwt>
<pdfrwt beam="2">  1       -1 0.53434345E+00 0.13365069E+04</pdfrwt>
<totfact> 0.29555508E-01</totfact>
</mgrwt>
</event>
<event>
12    6  0.1457317E-007  0.1391249E+04  0.7818608E-02  0.8960178E-01
          2   -1    0    0  501    0  0.00000000000E+00  0.00000000000E+00  0.15312984735E+04  0.15312984735E+04  0.00000000000E+00 0. -1.
         -1   -1    0    0    0  501 -0.00000000000E+00 -0.00000000000E+00 -0.31600181970E+03  0.31600181970E+03  0.00000000000E+00 0.  1.
         24    2    1    2    0    0 -0.33032777636E+03  0.62894707830E+02  0.74133163242E+02  0.35644074880E+03  0.92098302925E+02 0.  0.
        254    2    1    2    0    0  0.33032777636E+03 -0.62894707830E+02  0.11411634905E+04  0.14908595444E+04  0.89851871701E+03 0.  0.
         23    2    4    4    0    0 -0.25900082997E+02  0.23397911276E+03 -0.30219451350E+01  0.25272965426E+03  0.91902701189E+02 0.  0.
         23    2    4    4    0    0  0.35622785936E+03 -0.29687382059E+03  0.11441854357E+04  0.12381298901E+04  0.93664083108E+02 0.  0.
          2    1    3    3  502    0 -0.15221194949E+03  0.28373897960E+02  0.81276886600E+02  0.17486991722E+03  0.00000000000E+00 0. -1.
         -1    1    3    3    0  502 -0.17811582687E+03  0.34520809870E+02 -0.71437233587E+01  0.18157083158E+03  0.00000000000E+00 0.  1.
         11    1    5    5    0    0 -0.16664825932E+01  0.22686181916E+03 -0.79014076135E+01  0.22700549420E+03  0.00000000000E+00 0.  1.
        -11    1    5    5    0    0 -0.24233600404E+02  0.71172935981E+01  0.48794624786E+01  0.25724160060E+02  0.00000000000E+00 0. -1.
          1    1    6    6  503    0  0.15937704890E+03 -0.74767468323E+02  0.40661592552E+03  0.44308884992E+03  0.00000000000E+00 0. -1.
         -1    1    6    6    0  503  0.19685081046E+03 -0.22210635226E+03  0.73756951014E+03  0.79504104019E+03  0.00000000000E+00 0.  1.
<mgrwt>
<rscale>  0 0.13912485E+04</rscale>
<asrwt>0</asrwt>
<pdfrwt beam="1">  1        2 0.23558438E+00 0.13912485E+04</pdfrwt>
<pdfrwt beam="2">  1       -1 0.48615665E-01 0.13912485E+04</pdfrwt>
<totfact> 0.57258410E+01</totfact>
</mgrwt>
</event>
<event>
12    6  0.1457317E-007  0.1543815E+04  0.7818608E-02  0.8855828E-01
          2   -1    0    0  501    0  0.00000000000E+00  0.00000000000E+00  0.35175452077E+04  0.35175452077E+04  0.00000000000E+00 0. -1.
         -1   -1    0    0    0  501 -0.00000000000E+00 -0.00000000000E+00 -0.16939111363E+03  0.16939111363E+03  0.00000000000E+00 0.  1.
         24    2    1    2    0    0  0.15511957524E+02 -0.87656105838E+02 -0.82854208867E+02  0.14504151612E+03  0.79044340437E+02 0.  0.
        254    2    1    2    0    0 -0.15511957524E+02  0.87656105838E+02  0.34310083029E+04  0.35418948052E+04  0.87480090452E+03 0.  0.
         23    2    4    4    0    0  0.79157027593E+02  0.44565830822E+03  0.13566659433E+04  0.14327168370E+04  0.85193254849E+02 0.  0.
         23    2    4    4    0    0 -0.94668985117E+02 -0.35800220238E+03  0.20743423596E+04  0.21091779681E+04  0.92777598633E+02 0.  0.
          4    1    3    3  502    0  0.72676102933E+01 -0.82577924370E+01  0.15099060801E+02  0.18681299001E+02  0.00000000000E+00 0. -1.
         -3    1    3    3    0  502  0.82443472309E+01 -0.79398313401E+02 -0.97953269668E+02  0.12636021712E+03  0.00000000000E+00 0.  1.
         11    1    5    5    0    0  0.56401765056E+02  0.37063368925E+03  0.10110232873E+04  0.10782942910E+04  0.00000000000E+00 0. -1.
        -11    1    5    5    0    0  0.22755262537E+02  0.75024618965E+02  0.34564265604E+03  0.35442254598E+03  0.00000000000E+00 0.  1.
          3    1    6    6  503    0 -0.74955921339E+02 -0.34100930196E+03  0.20037238885E+04  0.20339162115E+04  0.00000000000E+00 0. -1.
         -3    1    6    6    0  503 -0.19713063778E+02 -0.16992900425E+02  0.70618471120E+02  0.75261756635E+02  0.00000000000E+00 0.  1.
<mgrwt>
<rscale>  0 0.15438146E+04</rscale>
<asrwt>0</asrwt>
<pdfrwt beam="1">  1        2 0.54116075E+00 0.15438146E+04</pdfrwt>
<pdfrwt beam="2">  1       -1 0.26060174E-01 0.15438146E+04</pdfrwt>
<totfact> 0.11452294E+01</totfact>
</mgrwt>
</event>
<event>
12    6  0.1457317E-007  0.1995584E+04  0.7818608E-02  0.8608688E-01
         -1   -1    0    0    0  501 -0.00000000000E+00  0.00000000000E+00  0.82569251925E+03  0.82569251925E+03  0.00000000000E+00 0.  1.
          2   -1    0    0  501    0  0.00000000000E+00 -0.00000000000E+00 -0.12057625605E+04  0.12057625605E+04  0.00000000000E+00 0. -1.
         24    2    1    2    0    0 -0.23021371718E+03  0.28378562021E+03 -0.87138218652E+03  0.94818043273E+03  0.78781877322E+02 0.  0.
        254    2    1    2    0    0  0.23021371718E+03 -0.28378562021E+03  0.49131214525E+03  0.10832746471E+04  0.89362391590E+03 0.  0.
         23    2    4    4    0    0  0.23507788167E+03 -0.51076630313E+03  0.40997956727E+02  0.57091062427E+03  0.90079307180E+02 0.  0.
         23    2    4    4    0    0 -0.48641644859E+01  0.22698068291E+03  0.45031418852E+03  0.51236402279E+03  0.90499353363E+02 0.  0.
          4    1    3    3  502    0 -0.22223554665E+03  0.23573600472E+03 -0.78051528191E+03  0.84508236724E+03  0.00000000000E+00 0. -1.
         -3    1    3    3    0  502 -0.79781705355E+01  0.48049615491E+02 -0.90866904614E+02  0.10309806549E+03  0.00000000000E+00 0.  1.
         11    1    5    5    0    0  0.51053255085E+02 -0.17557498772E+03 -0.19061099462E+02  0.18383779992E+03  0.00000000000E+00 0. -1.
        -11    1    5    5    0    0  0.18402462659E+03 -0.33519131541E+03  0.60059056190E+02  0.38707282435E+03  0.00000000000E+00 0.  1.
          3    1    6    6  503    0 -0.10158258012E+02 -0.53742595585E+01  0.29038133645E+02  0.31229570558E+02  0.00000000000E+00 0. -1.
         -3    1    6    6    0  503  0.52940935263E+01  0.23235494247E+03  0.42127605487E+03  0.48113445224E+03  0.00000000000E+00 0.  1.
<mgrwt>
<rscale>  0 0.19955843E+04</rscale>
<asrwt>0</asrwt>
<pdfrwt beam="1">  1        2 0.18550193E+00 0.19955843E+04</pdfrwt>
<pdfrwt beam="2">  1       -1 0.12702962E+00 0.19955843E+04</pdfrwt>
<totfact> 0.10704409E+01</totfact>
</mgrwt>
</event>
<event>
12    6  0.1457317E-007  0.1883452E+04  0.7818608E-02  0.8663138E-01
          2   -1    0    0  501    0  0.00000000000E+00  0.00000000000E+00  0.12749974972E+04  0.12749974972E+04  0.00000000000E+00 0. -1.
         -1   -1    0    0    0  501 -0.00000000000E+00 -0.00000000000E+00 -0.69556809428E+03  0.69556809428E+03  0.00000000000E+00 0.  1.
         24    2    1    2    0    0 -0.60886453432E+03  0.17538906595E+02 -0.19172983002E+03  0.64352857991E+03  0.79655954233E+02 0.  0.
        254    2    1    2    0    0  0.60886453432E+03 -0.17538906595E+02  0.77115923294E+03  0.13270370116E+04  0.89180549062E+03 0.  0.
         23    2    4    4    0    0  0.64249229275E+02 -0.31792795029E+03  0.58173188158E+01  0.33658412197E+03  0.89715577966E+02 0.  0.
         23    2    4    4    0    0  0.54461530505E+03  0.30038904369E+03  0.76534191412E+03  0.99045288959E+03  0.91702087870E+02 0.  0.
          2    1    3    3  502    0 -0.16043552333E+03  0.35124362125E+02 -0.70056659348E+02  0.17855311109E+03  0.00000000000E+00 0. -1.
         -1    1    3    3    0  502 -0.44842901099E+03 -0.17585455530E+02 -0.12167317068E+03  0.46497546882E+03  0.00000000000E+00 0.  1.
         11    1    5    5    0    0  0.50612246072E+02 -0.13986734852E+03 -0.36288013420E+02  0.15310550138E+03  0.00000000000E+00 0.  1.
        -11    1    5    5    0    0  0.13636983203E+02 -0.17806060176E+03  0.42105332235E+02  0.18347862059E+03  0.00000000000E+00 0. -1.
          2    1    6    6  503    0  0.80574620656E+02  0.34080323263E+02  0.64307792940E+02  0.10857822139E+03  0.00000000000E+00 0. -1.
         -2    1    6    6    0  503  0.46404068439E+03  0.26630872043E+03  0.70103412118E+03  0.88187466820E+03  0.00000000000E+00 0.  1.
<mgrwt>
<rscale>  0 0.18834517E+04</rscale>
<asrwt>0</asrwt>
<pdfrwt beam="1">  1        2 0.19615346E+00 0.18834517E+04</pdfrwt>
<pdfrwt beam="2">  1       -1 0.10701048E+00 0.18834517E+04</pdfrwt>
<totfact> 0.14888282E+01</totfact>
</mgrwt>
</event>
<event>
12    6  0.1457317E-007  0.1275846E+04  0.7818608E-02  0.9048942E-01
         -1   -1    0    0    0  501 -0.00000000000E+00  0.00000000000E+00  0.17045482898E+03  0.17045482898E+03  0.00000000000E+00 0.  1.
          2   -1    0    0  501    0  0.00000000000E+00 -0.00000000000E+00 -0.23874093658E+04  0.23874093658E+04  0.00000000000E+00 0. -1.
         24    2    1    2    0    0  0.29398324393E+03  0.66235585728E+02 -0.71768241088E+03  0.78245058998E+03  0.79671716098E+02 0.  0.
        254    2    1    2    0    0 -0.29398324393E+03 -0.66235585728E+02 -0.14992721260E+04  0.17754136048E+04  0.90192198110E+03 0.  0.
         23    2    4    4    0    0 -0.35936861429E+03 -0.23824923187E+03 -0.24397941741E+03  0.50343566079E+03  0.89515423355E+02 0.  0.
         23    2    4    4    0    0  0.65385370358E+02  0.17201364614E+03 -0.12552927086E+04  0.12719779440E+04  0.91127190510E+02 0.  0.
          2    1    3    3  502    0  0.21360457462E+03  0.47599926027E+02 -0.60049324854E+03  0.63912816305E+03  0.00000000000E+00 0. -1.
         -1    1    3    3    0  502  0.80378669305E+02  0.18635659701E+02 -0.11718916233E+03  0.14332242693E+03  0.00000000000E+00 0.  1.
         11    1    5    5    0    0 -0.16710200493E+03 -0.61055938210E+02 -0.82304878976E+02  0.19602295974E+03  0.00000000000E+00 0.  1.
        -11    1    5    5    0    0 -0.19226660936E+03 -0.17719329366E+03 -0.16167453843E+03  0.30741270106E+03  0.00000000000E+00 0. -1.
          2    1    6    6  503    0  0.54140686332E+02  0.12146729436E+03 -0.11058619524E+04  0.11138295090E+04  0.00000000000E+00 0.  1.
         -2    1    6    6    0  503  0.11244684026E+02  0.50546351783E+02 -0.14943075620E+03  0.15814843501E+03  0.00000000000E+00 0. -1.
<mgrwt>
<rscale>  0 0.12758455E+04</rscale>
<asrwt>0</asrwt>
<pdfrwt beam="1">  1        2 0.36729372E+00 0.12758455E+04</pdfrwt>
<pdfrwt beam="2">  1       -1 0.26223822E-01 0.12758455E+04</pdfrwt>
<totfact> 0.58538502E+01</totfact>
</mgrwt>
</event>
<event>
12    6  0.1457317E-007  0.1215610E+04  0.7818608E-02  0.9099302E-01
          2   -1    0    0  501    0  0.00000000000E+00  0.00000000000E+00  0.37170806744E+03  0.37170806744E+03  0.00000000000E+00 0. -1.
         -1   -1    0    0    0  501 -0.00000000000E+00 -0.00000000000E+00 -0.99386227078E+03  0.99386227078E+03  0.00000000000E+00 0.  1.
         24    2    1    2    0    0 -0.61842096400E+02 -0.18201471745E+03 -0.36008430308E+03  0.41583426618E+03  0.79395398826E+02 0.  0.
        254    2    1    2    0    0  0.61842096400E+02  0.18201471745E+03 -0.26206990026E+03  0.94973607203E+03  0.89239238659E+03 0.  0.
         23    2    4    4    0    0 -0.43801320623E+02 -0.20183088879E+02  0.31035343845E+03  0.32680031781E+03  0.90295504866E+02 0.  0.
         23    2    4    4    0    0  0.10564341702E+03  0.20219780633E+03 -0.57242333871E+03  0.62293575422E+03  0.91301646987E+02 0.  0.
          4    1    3    3  502    0 -0.31070737281E+02 -0.27793928832E+02 -0.33945637669E+02  0.53760575815E+02  0.00000000000E+00 0. -1.
         -1    1    3    3    0  502 -0.30771359119E+02 -0.15422078862E+03 -0.32613866541E+03  0.36207369037E+03  0.00000000000E+00 0.  1.
         11    1    5    5    0    0 -0.32059964028E+02  0.20810309800E+02  0.49781360384E+02  0.62762203029E+02  0.00000000000E+00 0. -1.
        -11    1    5    5    0    0 -0.11741356595E+02 -0.40993398679E+02  0.26057207806E+03  0.26403811478E+03  0.00000000000E+00 0.  1.
          2    1    6    6  503    0  0.37305842286E+02  0.31657986538E+02 -0.22137611642E+03  0.22671863378E+03  0.00000000000E+00 0. -1.
         -2    1    6    6    0  503  0.68337574737E+02  0.17053981980E+03 -0.35104722229E+03  0.39621712044E+03  0.00000000000E+00 0.  1.
<mgrwt>
<rscale>  0 0.12156095E+04</rscale>
<asrwt>0</asrwt>
<pdfrwt beam="1">  1        2 0.57185857E-01 0.12156095E+04</pdfrwt>
<pdfrwt beam="2">  1       -1 0.15290189E+00 0.12156095E+04</pdfrwt>
<totfact> 0.32287500E+01</totfact>
</mgrwt>
</event>
<event>
12    6  0.1457317E-007  0.1452871E+04  0.7818608E-02  0.8916412E-01
          2   -1    0    0  501    0  0.00000000000E+00  0.00000000000E+00  0.12606362971E+04  0.12606362971E+04  0.00000000000E+00 0. -1.
         -1   -1    0    0    0  501 -0.00000000000E+00 -0.00000000000E+00 -0.41860518347E+03  0.41860518347E+03  0.00000000000E+00 0.  1.
         24    2    1    2    0    0  0.36220476669E+02 -0.16849958389E+03  0.72955771228E+03  0.75395932029E+03  0.80598811440E+02 0.  0.
        254    2    1    2    0    0 -0.36220476669E+02  0.16849958389E+03  0.11247340135E+03  0.92528216027E+03  0.90210463772E+03 0.  0.
         23    2    4    4    0    0 -0.12194582969E+03 -0.33988947056E+03 -0.53669029334E+02  0.37589422018E+03  0.89557034804E+02 0.  0.
         23    2    4    4    0    0  0.85725353020E+02  0.50838905445E+03  0.16614243069E+03  0.54938794009E+03  0.91736222955E+02 0.  0.
          2    1    3    3  502    0  0.12639104584E+01 -0.90891305587E+02  0.51809329199E+03  0.52600711602E+03  0.00000000000E+00 0. -1.
         -1    1    3    3    0  502  0.34956566210E+02 -0.77608278305E+02  0.21146442029E+03  0.22795220427E+03  0.00000000000E+00 0.  1.
         11    1    5    5    0    0 -0.64502828583E+02 -0.87988393645E+02  0.10719246457E+02  0.10962424256E+03  0.00000000000E+00 0.  1.
        -11    1    5    5    0    0 -0.57443001105E+02 -0.25190107691E+03 -0.64388275792E+02  0.26626997763E+03  0.00000000000E+00 0. -1.
          3    1    6    6  503    0  0.31627435370E+02  0.32162759497E+03  0.14360245058E+03  0.35364709574E+03  0.00000000000E+00 0. -1.
         -3    1    6    6    0  503  0.54097917650E+02  0.18676145948E+03  0.22539980107E+02  0.19574084434E+03  0.00000000000E+00 0.  1.
<mgrwt>
<rscale>  0 0.14528715E+04</rscale>
<asrwt>0</asrwt>
<pdfrwt beam="1">  1        2 0.19394404E+00 0.14528715E+04</pdfrwt>
<pdfrwt beam="2">  1       -1 0.64400798E-01 0.14528715E+04</pdfrwt>
<totfact> 0.47117007E+01</totfact>
</mgrwt>
</event>
<event>
12    6  0.1457317E-007  0.2481521E+04  0.7818608E-02  0.8409598E-01
          2   -1    0    0  501    0  0.00000000000E+00  0.00000000000E+00  0.13114464825E+04  0.13114464825E+04  0.00000000000E+00 0. -1.
         -1   -1    0    0    0  501 -0.00000000000E+00 -0.00000000000E+00 -0.11738845955E+04  0.11738845955E+04  0.00000000000E+00 0.  1.
         24    2    1    2    0    0 -0.19213786408E+02 -0.27938337347E+03  0.10957725291E+04  0.11342114888E+04  0.85405075080E+02 0.  0.
        254    2    1    2    0    0  0.19213786408E+02  0.27938337347E+03 -0.95821064204E+03  0.13511195892E+04  0.91045717678E+03 0.  0.
         23    2    4    4    0    0 -0.43665950941E+03  0.13932929807E+03 -0.45402338852E+03  0.65164134419E+03  0.91733438188E+02 0.  0.
         23    2    4    4    0    0  0.45587329582E+03  0.14005407540E+03 -0.50418725353E+03  0.69947824498E+03  0.87346566608E+02 0.  0.
          2    1    3    3  502    0  0.49627238217E+01 -0.25722158588E+03  0.10134879641E+04  0.10456315920E+04  0.00000000000E+00 0. -1.
         -1    1    3    3    0  502 -0.24176510230E+02 -0.22161787584E+02  0.82284565009E+02  0.88579896786E+02  0.00000000000E+00 0.  1.
         11    1    5    5    0    0 -0.36005445286E+03  0.13985812503E+03 -0.40996740388E+03  0.56326971905E+03  0.00000000000E+00 0.  1.
        -11    1    5    5    0    0 -0.76605056549E+02 -0.52882696542E+00 -0.44055984643E+02  0.88371625139E+02  0.00000000000E+00 0. -1.
          1    1    6    6  503    0  0.42674327147E+03  0.13773420544E+03 -0.49698055204E+03  0.66938045998E+03  0.00000000000E+00 0. -1.
         -1    1    6    6    0  503  0.29130024355E+02  0.23198699570E+01 -0.72067014819E+01  0.30097784998E+02  0.00000000000E+00 0.  1.
<mgrwt>
<rscale>  0 0.24815212E+04</rscale>
<asrwt>0</asrwt>
<pdfrwt beam="1">  1        2 0.20176100E+00 0.24815212E+04</pdfrwt>
<pdfrwt beam="2">  1       -1 0.18059763E+00 0.24815212E+04</pdfrwt>
<totfact> 0.34143946E+00</totfact>
</mgrwt>
</event>
<event>
12    6  0.1457317E-007  0.1328365E+04  0.7818608E-02  0.9007369E-01
          2   -1    0    0  501    0  0.00000000000E+00  0.00000000000E+00  0.18240723811E+04  0.18240723811E+04  0.00000000000E+00 0. -1.
         -1   -1    0    0    0  501 -0.00000000000E+00 -0.00000000000E+00 -0.24184242241E+03  0.24184242241E+03  0.00000000000E+00 0.  1.
         24    2    1    2    0    0  0.20300254291E+03  0.21128256972E+03  0.13944130955E+03  0.33418767166E+03  0.79919737125E+02 0.  0.
        254    2    1    2    0    0 -0.20300254291E+03 -0.21128256972E+03  0.14427886491E+04  0.17317271319E+04  0.91180558040E+03 0.  0.
         23    2    4    4    0    0 -0.12971972926E+03 -0.96540549889E+02 -0.77765942009E+02  0.20232985667E+03  0.93501568071E+02 0.  0.
         23    2    4    4    0    0 -0.73282813655E+02 -0.11474201983E+03  0.15205545912E+04  0.15293972752E+04  0.91834954229E+02 0.  0.
          4    1    3    3  502    0  0.90347923523E+02  0.12344355654E+03  0.10977914029E+03  0.18828839204E+03  0.00000000000E+00 0. -1.
         -3    1    3    3    0  502  0.11265461939E+03  0.87839013179E+02  0.29662169261E+02  0.14589927961E+03  0.00000000000E+00 0.  1.
         11    1    5    5    0    0 -0.13843397511E+03 -0.95409297795E+02 -0.87234815361E+02  0.18941175407E+03  0.00000000000E+00 0. -1.
        -11    1    5    5    0    0  0.87142458535E+01 -0.11312520939E+01  0.94688733515E+01  0.12918102595E+02  0.00000000000E+00 0.  1.
          3    1    6    6  503    0 -0.31646344622E+01 -0.88025882231E+02  0.73193052726E+03  0.73721154873E+03  0.00000000000E+00 0. -1.
         -3    1    6    6    0  503 -0.70118179193E+02 -0.26716137598E+02  0.78862406390E+03  0.79218572647E+03  0.00000000000E+00 0.  1.
<mgrwt>
<rscale>  0 0.13283645E+04</rscale>
<asrwt>0</asrwt>
<pdfrwt beam="1">  1        2 0.28062651E+00 0.13283645E+04</pdfrwt>
<pdfrwt beam="2">  1       -1 0.37206528E-01 0.13283645E+04</pdfrwt>
<totfact> 0.64816659E+01</totfact>
</mgrwt>
</event>
<event>
12    6  0.1457317E-007  0.1648818E+04  0.7818608E-02  0.8791106E-01
         -1   -1    0    0    0  501 -0.00000000000E+00  0.00000000000E+00  0.22018784958E+04  0.22018784958E+04  0.00000000000E+00 0.  1.
          2   -1    0    0  501    0  0.00000000000E+00 -0.00000000000E+00 -0.30866828468E+03  0.30866828468E+03  0.00000000000E+00 0. -1.
         24    2    1    2    0    0 -0.13967327242E+03 -0.41870632803E+02  0.15054336126E+04  0.15146982559E+04  0.81967504800E+02 0.  0.
        254    2    1    2    0    0  0.13967327242E+03  0.41870632803E+02  0.38777659857E+03  0.99584852454E+03  0.90558369051E+03 0.  0.
         23    2    4    4    0    0  0.46496062711E+03  0.20563304249E+03  0.10860092786E+03  0.52806361007E+03  0.92648161500E+02 0.  0.
         23    2    4    4    0    0 -0.32528735469E+03 -0.16376240969E+03  0.27917567071E+03  0.46778491447E+03  0.90849772394E+02 0.  0.
          2    1    3    3  502    0 -0.65086586187E+02  0.12714467760E+02  0.87704984776E+03  0.87955349857E+03  0.00000000000E+00 0. -1.
         -1    1    3    3    0  502 -0.74586686233E+02 -0.54585100563E+02  0.62838376479E+03  0.63514475738E+03  0.00000000000E+00 0.  1.
         11    1    5    5    0    0  0.39026249084E+03  0.15226161878E+03  0.57066425615E+02  0.42278243724E+03  0.00000000000E+00 0. -1.
        -11    1    5    5    0    0  0.74698136268E+02  0.53371423713E+02  0.51534502247E+02  0.10528117283E+03  0.00000000000E+00 0.  1.
          3    1    6    6  503    0 -0.13212629298E+03 -0.20927651964E+02  0.81228800579E+02  0.15650380813E+03  0.00000000000E+00 0. -1.
         -3    1    6    6    0  503 -0.19316106170E+03 -0.14283475773E+03  0.19794687013E+03  0.31128110634E+03  0.00000000000E+00 0.  1.
<mgrwt>
<rscale>  0 0.16488178E+04</rscale>
<asrwt>0</asrwt>
<pdfrwt beam="1">  1        2 0.47487430E-01 0.16488178E+04</pdfrwt>
<pdfrwt beam="2">  1       -1 0.33875053E+00 0.16488178E+04</pdfrwt>
<totfact> 0.21513215E+00</totfact>
</mgrwt>
</event>
<event>
12    6  0.1457317E-007  0.1048910E+04  0.7818608E-02  0.9256470E-01
          2   -1    0    0  501    0  0.00000000000E+00  0.00000000000E+00  0.15666855480E+04  0.15666855480E+04  0.00000000000E+00 0. -1.
         -3   -1    0    0    0  501 -0.00000000000E+00 -0.00000000000E+00 -0.17556376637E+03  0.17556376637E+03  0.00000000000E+00 0.  1.
         24    2    1    2    0    0 -0.53831807842E+02  0.85288267226E+02  0.24660514736E+03  0.27790670549E+03  0.79032184504E+02 0.  0.
        254    2    1    2    0    0  0.53831807842E+02 -0.85288267226E+02  0.11445166343E+04  0.14643426089E+04  0.90785956956E+03 0.  0.
         23    2    4    4    0    0 -0.26214440115E+03 -0.35810845997E+03  0.78360005389E+03  0.90534741713E+03  0.93078166571E+02 0.  0.
         23    2    4    4    0    0  0.31597620899E+03  0.27282019275E+03  0.36091658042E+03  0.55899519179E+03  0.89123645592E+02 0.  0.
          4    1    3    3  502    0 -0.53983003574E+02  0.97539163148E+02  0.19267270069E+03  0.22260014064E+03  0.00000000000E+00 0. -1.
         -3    1    3    3    0  502  0.15119573134E+00 -0.12250895921E+02  0.53932446674E+02  0.55306564848E+02  0.00000000000E+00 0.  1.
         11    1    5    5    0    0 -0.12209434975E+02 -0.17953186151E+02  0.96192276686E+01  0.23746931093E+02  0.00000000000E+00 0. -1.
        -11    1    5    5    0    0 -0.24993496618E+03 -0.34015527382E+03  0.77398082622E+03  0.88160048604E+03  0.00000000000E+00 0.  1.
          3    1    6    6  503    0  0.12391655332E+03  0.56250224598E+02  0.13628461291E+03  0.19259516004E+03  0.00000000000E+00 0. -1.
         -3    1    6    6    0  503  0.19205965567E+03  0.21656996815E+03  0.22463196751E+03  0.36640003175E+03  0.00000000000E+00 0.  1.
<mgrwt>
<rscale>  0 0.10489103E+04</rscale>
<asrwt>0</asrwt>
<pdfrwt beam="1">  1        2 0.24102854E+00 0.10489103E+04</pdfrwt>
<pdfrwt beam="2">  1       -3 0.27009811E-01 0.10489103E+04</pdfrwt>
<totfact> 0.98884821E+01</totfact>
</mgrwt>
</event>
<event>
12    6  0.1457317E-007  0.1434638E+04  0.7818608E-02  0.8929121E-01
         -1   -1    0    0    0  501 -0.00000000000E+00  0.00000000000E+00  0.10081098922E+04  0.10081098922E+04  0.00000000000E+00 0.  1.
          2   -1    0    0  501    0  0.00000000000E+00 -0.00000000000E+00 -0.51040714827E+03  0.51040714827E+03  0.00000000000E+00 0. -1.
         24    2    1    2    0    0  0.71847101103E+02  0.41174029152E+03  0.24621539353E+03  0.49137857556E+03  0.78350564208E+02 0.  0.
        254    2    1    2    0    0 -0.71847101103E+02 -0.41174029152E+03  0.25148735040E+03  0.10271384649E+04  0.90392226717E+03 0.  0.
         23    2    4    4    0    0  0.28360802621E+03 -0.52436331379E+03  0.86262968181E+02  0.60942877691E+03  0.92583676084E+02 0.  0.
         23    2    4    4    0    0 -0.35545512731E+03  0.11262302226E+03  0.16522438221E+03  0.41770968800E+03  0.90277318818E+02 0.  0.
          4    1    3    3  502    0  0.56828919193E+02  0.31584516342E+03  0.14836858969E+03  0.35355470824E+03  0.00000000000E+00 0. -1.
         -3    1    3    3    0  502  0.15018181909E+02  0.95895128102E+02  0.97846803847E+02  0.13782386733E+03  0.00000000000E+00 0.  1.
         11    1    5    5    0    0  0.33095471940E+02 -0.12409029670E+03  0.42161998812E+02  0.13517154338E+03  0.00000000000E+00 0. -1.
        -11    1    5    5    0    0  0.25051255427E+03 -0.40027301709E+03  0.44100969370E+02  0.47425723353E+03  0.00000000000E+00 0.  1.
          2    1    6    6  503    0 -0.92104135118E+02  0.48883842020E+02  0.83212242825E+01  0.10460422788E+03  0.00000000000E+00 0. -1.
         -2    1    6    6    0  503 -0.26335099219E+03  0.63739180245E+02  0.15690315793E+03  0.31310546012E+03  0.00000000000E+00 0.  1.
<mgrwt>
<rscale>  0 0.14346379E+04</rscale>
<asrwt>0</asrwt>
<pdfrwt beam="1">  1        2 0.78524177E-01 0.14346379E+04</pdfrwt>
<pdfrwt beam="2">  1       -1 0.15509383E+00 0.14346379E+04</pdfrwt>
<totfact> 0.21260429E+01</totfact>
</mgrwt>
</event>
<event>
12    6  0.1457317E-007  0.1420401E+04  0.7818608E-02  0.8939182E-01
         -1   -1    0    0    0  501 -0.00000000000E+00  0.00000000000E+00  0.17719447394E+03  0.17719447394E+03  0.00000000000E+00 0.  1.
          2   -1    0    0  501    0  0.00000000000E+00 -0.00000000000E+00 -0.28465028476E+04  0.28465028476E+04  0.00000000000E+00 0. -1.
         24    2    1    2    0    0 -0.33257105658E+03  0.20110420189E+02 -0.11749191470E+04  0.12240325962E+04  0.82540039002E+02 0.  0.
        254    2    1    2    0    0  0.33257105658E+03 -0.20110420189E+02 -0.14943892267E+04  0.17996647253E+04  0.94582557908E+03 0.  0.
         23    2    4    4    0    0  0.23800403513E+03 -0.11479166849E+03 -0.15871015812E+04  0.16115453070E+04  0.91453810166E+02 0.  0.
         23    2    4    4    0    0  0.94567021456E+02  0.94681248298E+02  0.92712354511E+02  0.18811941837E+03  0.94264916923E+02 0.  0.
          4    1    3    3  502    0 -0.26221040368E+03  0.49292836720E+02 -0.89310630929E+03  0.93210673168E+03  0.00000000000E+00 0. -1.
         -3    1    3    3    0  502 -0.70360652902E+02 -0.29182416531E+02 -0.28181283768E+03  0.29192586455E+03  0.00000000000E+00 0.  1.
         11    1    5    5    0    0  0.20419452103E+03 -0.11537759966E+03 -0.11825915638E+04  0.12056244024E+04  0.00000000000E+00 0. -1.
        -11    1    5    5    0    0  0.33809514099E+02  0.58593116900E+00 -0.40451001741E+03  0.40592090454E+03  0.00000000000E+00 0.  1.
          1    1    6    6  503    0 -0.12773882331E+01  0.61774164876E+02  0.27630013545E+02  0.67683800243E+02  0.00000000000E+00 0. -1.
         -1    1    6    6    0  503  0.95844409689E+02  0.32907083422E+02  0.65082340966E+02  0.12043561813E+03  0.00000000000E+00 0.  1.
<mgrwt>
<rscale>  0 0.14204008E+04</rscale>
<asrwt>0</asrwt>
<pdfrwt beam="1">  1        2 0.43792348E+00 0.14204008E+04</pdfrwt>
<pdfrwt beam="2">  1       -1 0.27260690E-01 0.14204008E+04</pdfrwt>
<totfact> 0.29125765E+01</totfact>
</mgrwt>
</event>
<event>
12    6  0.1457317E-007  0.1490812E+04  0.7818608E-02  0.8890586E-01
         -1   -1    0    0    0  501 -0.00000000000E+00  0.00000000000E+00  0.26649313827E+03  0.26649313827E+03  0.00000000000E+00 0.  1.
          2   -1    0    0  501    0  0.00000000000E+00 -0.00000000000E+00 -0.20849683827E+04  0.20849683827E+04  0.00000000000E+00 0. -1.
         24    2    1    2    0    0  0.26895444510E+03 -0.27615177710E+03 -0.10048185963E+04  0.10789652400E+04  0.76871842550E+02 0.  0.
        254    2    1    2    0    0 -0.26895444510E+03  0.27615177710E+03 -0.81365664818E+03  0.12724962810E+04  0.89922930695E+03 0.  0.
         23    2    4    4    0    0 -0.30276142846E+03  0.75220456404E+02  0.93469644094E+02  0.33845985278E+03  0.92173195420E+02 0.  0.
         23    2    4    4    0    0  0.33806983360E+02  0.20093132070E+03 -0.90712629227E+03  0.93403642821E+03  0.89608210152E+02 0.  0.
          4    1    3    3  502    0  0.25778622183E+03 -0.24181722679E+03 -0.94687205665E+03  0.10106908523E+04  0.00000000000E+00 0. -1.
         -3    1    3    3    0  502  0.11168223274E+02 -0.34334550312E+02 -0.57946539613E+02  0.68274387653E+02  0.00000000000E+00 0.  1.
         11    1    5    5    0    0 -0.64176150594E+02  0.68249413518E+01 -0.17076551290E+02  0.66759019866E+02  0.00000000000E+00 0.  1.
        -11    1    5    5    0    0 -0.23858527787E+03  0.68395515052E+02  0.11054619538E+03  0.27170083292E+03  0.00000000000E+00 0. -1.
          3    1    6    6  503    0  0.48175126033E+02  0.16388325412E+03 -0.82865309645E+03  0.84607595286E+03  0.00000000000E+00 0. -1.
         -3    1    6    6    0  503 -0.14368142673E+02  0.37048066579E+02 -0.78473195819E+02  0.87960475347E+02  0.00000000000E+00 0.  1.
<mgrwt>
<rscale>  0 0.14908115E+04</rscale>
<asrwt>0</asrwt>
<pdfrwt beam="1">  1        2 0.32076437E+00 0.14908115E+04</pdfrwt>
<pdfrwt beam="2">  1       -1 0.40998944E-01 0.14908115E+04</pdfrwt>
<totfact> 0.38429599E+01</totfact>
</mgrwt>
</event>
<event>
12    6  0.1457317E-007  0.1236799E+04  0.7818608E-02  0.9081242E-01
         -1   -1    0    0    0  501 -0.00000000000E+00  0.00000000000E+00  0.24999387267E+03  0.24999387267E+03  0.00000000000E+00 0.  1.
          2   -1    0    0  501    0  0.00000000000E+00 -0.00000000000E+00 -0.15297099191E+04  0.15297099191E+04  0.00000000000E+00 0. -1.
         24    2    1    2    0    0 -0.19034916926E+03  0.13937049703E+03 -0.49764632055E+03  0.55897629413E+03  0.95633128961E+02 0.  0.
        254    2    1    2    0    0  0.19034916926E+03 -0.13937049703E+03 -0.78206972583E+03  0.12207274976E+04  0.90713043476E+03 0.  0.
         23    2    4    4    0    0  0.64362228563E+02 -0.15790969266E+02 -0.95271633625E+03  0.95881075420E+03  0.85192686455E+02 0.  0.
         23    2    4    4    0    0  0.12598694070E+03 -0.12357952776E+03  0.17064661042E+03  0.26191674341E+03  0.91298991911E+02 0.  0.
          4    1    3    3  502    0 -0.10611387026E+03  0.55560055302E+02 -0.34709326757E+03  0.36717953320E+03  0.00000000000E+00 0. -1.
         -3    1    3    3    0  502 -0.84235298998E+02  0.83810441728E+02 -0.15055305298E+03  0.19179676093E+03  0.00000000000E+00 0.  1.
         11    1    5    5    0    0  0.29349781990E+02 -0.28414573032E+02 -0.81880588981E+03  0.81982429999E+03  0.00000000000E+00 0. -1.
        -11    1    5    5    0    0  0.35012446573E+02  0.12623603766E+02 -0.13391044644E+03  0.13898645420E+03  0.00000000000E+00 0.  1.
          2    1    6    6  503    0  0.13645142653E+03 -0.12810959870E+03  0.15856504704E+03  0.24530376113E+03  0.00000000000E+00 0. -1.
         -2    1    6    6    0  503 -0.10464485836E+02  0.45300709406E+01  0.12081563379E+02  0.16612982280E+02  0.00000000000E+00 0.  1.
<mgrwt>
<rscale>  0 0.12367993E+04</rscale>
<asrwt>0</asrwt>
<pdfrwt beam="1">  1        2 0.23533998E+00 0.12367993E+04</pdfrwt>
<pdfrwt beam="2">  1       -1 0.38460596E-01 0.12367993E+04</pdfrwt>
<totfact> 0.89600847E+01</totfact>
</mgrwt>
</event>
<event>
12    6  0.1457317E-007  0.1657239E+04  0.7818608E-02  0.8786135E-01
          2   -1    0    0  501    0  0.00000000000E+00  0.00000000000E+00  0.93253863281E+03  0.93253863281E+03  0.00000000000E+00 0. -1.
         -1   -1    0    0    0  501 -0.00000000000E+00 -0.00000000000E+00 -0.73628113493E+03  0.73628113493E+03  0.00000000000E+00 0.  1.
         24    2    1    2    0    0  0.19137726368E+03 -0.30268523113E+03 -0.40096042495E+03  0.54317420130E+03  0.77623091768E+02 0.  0.
        254    2    1    2    0    0 -0.19137726368E+03  0.30268523113E+03  0.59721792284E+03  0.11256455664E+04  0.88440097676E+03 0.  0.
         23    2    4    4    0    0 -0.30873142498E+03  0.61349187529E+02 -0.12409800251E+03  0.35066632767E+03  0.92128950690E+02 0.  0.
         23    2    4    4    0    0  0.11735416130E+03  0.24133604361E+03  0.72131592535E+03  0.77497923877E+03  0.91000391500E+02 0.  0.
          2    1    3    3  502    0  0.20263254298E+02 -0.84144386581E+01 -0.81878200826E+01  0.23418852457E+02  0.00000000000E+00 0. -1.
         -1    1    3    3    0  502  0.17111400938E+03 -0.29427079248E+03 -0.39277260487E+03  0.51975534884E+03  0.00000000000E+00 0.  1.
         11    1    5    5    0    0 -0.22829937473E+03  0.92381291338E+01 -0.63010705966E+02  0.23701539317E+03  0.00000000000E+00 0. -1.
        -11    1    5    5    0    0 -0.80432050245E+02  0.52111058395E+02 -0.61087296542E+02  0.11365093450E+03  0.00000000000E+00 0.  1.
          4    1    6    6  503    0  0.31168676483E+02  0.14112911955E+03  0.29255518749E+03  0.32630882996E+03  0.00000000000E+00 0. -1.
         -4    1    6    6    0  503  0.86185484818E+02  0.10020692405E+03  0.42876073785E+03  0.44867040881E+03  0.00000000000E+00 0.  1.
<mgrwt>
<rscale>  0 0.16572394E+04</rscale>
<asrwt>0</asrwt>
<pdfrwt beam="1">  1        2 0.14346748E+00 0.16572394E+04</pdfrwt>
<pdfrwt beam="2">  1       -1 0.11327402E+00 0.16572394E+04</pdfrwt>
<totfact> 0.21625614E+01</totfact>
</mgrwt>
</event>
<event>
12    6  0.1457317E-007  0.2096143E+04  0.7818608E-02  0.8562944E-01
          2   -1    0    0  501    0  0.00000000000E+00  0.00000000000E+00  0.22474322392E+04  0.22474322392E+04  0.00000000000E+00 0. -1.
         -1   -1    0    0    0  501 -0.00000000000E+00 -0.00000000000E+00 -0.48875961223E+03  0.48875961223E+03  0.00000000000E+00 0.  1.
         24    2    1    2    0    0 -0.31400688219E+03 -0.12792501544E+03 -0.30334551877E+03  0.46254397151E+03  0.83446331129E+02 0.  0.
        254    2    1    2    0    0  0.31400688219E+03  0.12792501544E+03  0.20620181458E+04  0.22736478799E+04  0.89587427515E+03 0.  0.
         23    2    4    4    0    0  0.32224660248E+02 -0.14065175902E+02 -0.67374628946E+02  0.11904353937E+03  0.91628411201E+02 0.  0.
         23    2    4    4    0    0  0.28178222194E+03  0.14199019135E+03  0.21293927747E+04  0.21546043406E+04  0.91890371578E+02 0.  0.
          2    1    3    3  502    0 -0.81874944563E+02 -0.67675000605E+02 -0.12273369588E+03  0.16231750478E+03  0.00000000000E+00 0. -1.
         -1    1    3    3    0  502 -0.23213193762E+03 -0.60250014839E+02 -0.18061182290E+03  0.30022646673E+03  0.00000000000E+00 0.  1.
         11    1    5    5    0    0  0.21660962971E+02 -0.48543097313E+02 -0.14599000818E+02  0.55124952956E+02  0.00000000000E+00 0. -1.
        -11    1    5    5    0    0  0.10563697277E+02  0.34477921411E+02 -0.52775628128E+02  0.63918586415E+02  0.00000000000E+00 0.  1.
          1    1    6    6  503    0  0.14669058585E+03  0.34170561948E+02  0.11839440060E+04  0.11934861393E+04  0.00000000000E+00 0. -1.
         -1    1    6    6    0  503  0.13509163609E+03  0.10781962940E+03  0.94544876871E+03  0.96111820130E+03  0.00000000000E+00 0.  1.
<mgrwt>
<rscale>  0 0.20961432E+04</rscale>
<asrwt>0</asrwt>
<pdfrwt beam="1">  1        2 0.34575880E+00 0.20961432E+04</pdfrwt>
<pdfrwt beam="2">  1       -1 0.75193788E-01 0.20961432E+04</pdfrwt>
<totfact> 0.90595531E+00</totfact>
</mgrwt>
</event>
<event>
12    6  0.2072833E-007  0.2547104E+04  0.7818608E-02  0.8386394E-01
          2   -1    0    0  501    0  0.00000000000E+00  0.00000000000E+00  0.16040037642E+04  0.16040037642E+04  0.00000000000E+00 0. -1.
         -1   -1    0    0    0  501 -0.00000000000E+00 -0.00000000000E+00 -0.10111785265E+04  0.10111785265E+04  0.00000000000E+00 0.  1.
         24    2    1    2    0    0 -0.10455171963E+04 -0.39067769623E+02  0.52722116998E+03  0.11748939092E+04  0.88210187709E+02 0.  0.
        254    2    1    2    0    0  0.10455171963E+04  0.39067769623E+02  0.65604067751E+02  0.14402883815E+04  0.98767111419E+03 0.  0.
         23    2    4    4    0    0  0.76884160565E+01 -0.46546676455E+01  0.34858351237E+03  0.35963222791E+03  0.88000548755E+02 0.  0.
         23    2    4    4    0    0  0.10378287803E+04  0.43722437268E+02 -0.28297944462E+03  0.10806561536E+04  0.93488649506E+02 0.  0.
          4    1    3    3  502    0 -0.50630772988E+03 -0.25124733860E+02  0.20665034091E+03  0.54743322240E+03  0.00000000000E+00 0. -1.
         -3    1    3    3    0  502 -0.53920946646E+03 -0.13943035763E+02  0.32057082908E+03  0.62746068676E+03  0.00000000000E+00 0.  1.
         11    1    5    5    0    0  0.37225551180E+02 -0.15140774954E+02  0.83123269268E+02  0.92328016445E+02  0.00000000000E+00 0. -1.
        -11    1    5    5    0    0 -0.29537135124E+02  0.10486107308E+02  0.26546024310E+03  0.26730421146E+03  0.00000000000E+00 0.  1.
          1    1    6    6  503    0  0.68335889370E+02  0.22545629223E+02 -0.33382737948E+02  0.79325319829E+02  0.00000000000E+00 0. -1.
         -1    1    6    6    0  503  0.96949289092E+03  0.21176808046E+02 -0.24959670667E+03  0.10013308338E+04  0.00000000000E+00 0.  1.
<mgrwt>
<rscale>  0 0.25471036E+04</rscale>
<asrwt>0</asrwt>
<pdfrwt beam="1">  1        2 0.24676981E+00 0.25471036E+04</pdfrwt>
<pdfrwt beam="2">  1       -1 0.15556593E+00 0.25471036E+04</pdfrwt>
<totfact> 0.35462250E+00</totfact>
</mgrwt>
</event>
<event>
12    6  0.1457317E-007  0.1914349E+04  0.7818608E-02  0.8647747E-01
          2   -1    0    0  501    0  0.00000000000E+00  0.00000000000E+00  0.15431973702E+04  0.15431973702E+04  0.00000000000E+00 0. -1.
         -1   -1    0    0    0  501 -0.00000000000E+00 -0.00000000000E+00 -0.59369152165E+03  0.59369152165E+03  0.00000000000E+00 0.  1.
         24    2    1    2    0    0  0.25912838014E+03 -0.32666909717E+03 -0.31588273051E+03  0.52880241169E+03  0.77394280976E+02 0.  0.
        254    2    1    2    0    0 -0.25912838014E+03  0.32666909717E+03  0.12653885790E+04  0.16080864801E+04  0.90048523321E+03 0.  0.
         23    2    4    4    0    0 -0.25788190350E+03  0.53127000573E+03  0.41161755745E+03  0.72565098220E+03  0.91593882029E+02 0.  0.
         23    2    4    4    0    0 -0.12464766373E+01 -0.20460090855E+03  0.85377102158E+03  0.88243549794E+03  0.88906497255E+02 0.  0.
          2    1    3    3  502    0  0.17333352988E+03 -0.24712683053E+03 -0.26322303942E+03  0.40050287318E+03  0.00000000000E+00 0. -1.
         -1    1    3    3    0  502  0.85794850262E+02 -0.79542266638E+02 -0.52659691099E+02  0.12829953850E+03  0.00000000000E+00 0.  1.
         11    1    5    5    0    0 -0.25506461499E+03  0.47478570015E+03  0.38928136425E+03  0.66484539514E+03  0.00000000000E+00 0. -1.
        -11    1    5    5    0    0 -0.28172885152E+01  0.56484305575E+02  0.22336193204E+02  0.60805587060E+02  0.00000000000E+00 0.  1.
          3    1    6    6  503    0 -0.45654330091E+01 -0.21083209777E+03  0.84621006717E+03  0.87209087509E+03  0.00000000000E+00 0. -1.
         -3    1    6    6    0  503  0.33189563718E+01  0.62311892140E+01  0.75609544016E+01  0.10344622849E+02  0.00000000000E+00 0.  1.
<mgrwt>
<rscale>  0 0.19143492E+04</rscale>
<asrwt>0</asrwt>
<pdfrwt beam="1">  1        2 0.23741498E+00 0.19143492E+04</pdfrwt>
<pdfrwt beam="2">  1       -1 0.91337158E-01 0.19143492E+04</pdfrwt>
<totfact> 0.14954466E+01</totfact>
</mgrwt>
</event>
<event>
12    6  0.1457317E-007  0.1368094E+04  0.7818608E-02  0.8977243E-01
         -1   -1    0    0    0  501 -0.00000000000E+00  0.00000000000E+00  0.44207537239E+03  0.44207537239E+03  0.00000000000E+00 0.  1.
          2   -1    0    0  501    0  0.00000000000E+00 -0.00000000000E+00 -0.10584625238E+04  0.10584625238E+04  0.00000000000E+00 0. -1.
         24    2    1    2    0    0  0.23437876069E+03  0.10549937044E+03 -0.65002521628E+03  0.70333838812E+03  0.78029390542E+02 0.  0.
        254    2    1    2    0    0 -0.23437876069E+03 -0.10549937044E+03  0.33638064847E+02  0.79719950808E+03  0.75387798459E+03 0.  0.
         23    2    4    4    0    0 -0.47399717008E+03 -0.10166493558E+03 -0.10748961001E+03  0.50465385723E+03  0.90068990122E+02 0.  0.
         23    2    4    4    0    0  0.23961840939E+03 -0.38344348610E+01  0.14112767485E+03  0.29254565086E+03  0.90742780507E+02 0.  0.
          4    1    3    3  502    0  0.17272603970E+03  0.49997697198E+02 -0.50768998279E+03  0.53859369950E+03  0.00000000000E+00 0. -1.
         -3    1    3    3    0  502  0.61652720995E+02  0.55501673245E+02 -0.14233523349E+03  0.16474468863E+03  0.00000000000E+00 0.  1.
         11    1    5    5    0    0 -0.67331601525E+02 -0.45195123340E+02 -0.37357249952E+01  0.81179427066E+02  0.00000000000E+00 0.  1.
        -11    1    5    5    0    0 -0.40666556856E+03 -0.56469812243E+02 -0.10375388501E+03  0.42347443016E+03  0.00000000000E+00 0. -1.
          1    1    6    6  503    0  0.21946665458E+03 -0.27519733357E+02  0.10489581109E+03  0.24479803794E+03  0.00000000000E+00 0. -1.
         -1    1    6    6    0  503  0.20151754811E+02  0.23685298496E+02  0.36231863766E+02  0.47747612912E+02  0.00000000000E+00 0.  1.
<mgrwt>
<rscale>  0 0.13680939E+04</rscale>
<asrwt>0</asrwt>
<pdfrwt beam="1">  1        2 0.16284039E+00 0.13680939E+04</pdfrwt>
<pdfrwt beam="2">  1       -1 0.68011596E-01 0.13680939E+04</pdfrwt>
<totfact> 0.56324746E+01</totfact>
</mgrwt>
</event>
<event>
12    6  0.1457317E-007  0.1942876E+04  0.7818608E-02  0.8633804E-01
         -1   -1    0    0    0  501 -0.00000000000E+00  0.00000000000E+00  0.55687326222E+03  0.55687326222E+03  0.00000000000E+00 0.  1.
          2   -1    0    0  501    0  0.00000000000E+00 -0.00000000000E+00 -0.16946262256E+04  0.16946262256E+04  0.00000000000E+00 0. -1.
         24    2    1    2    0    0 -0.19265768857E+03 -0.44659103486E+03  0.23229769701E+03  0.54525545311E+03  0.82345320047E+02 0.  0.
        254    2    1    2    0    0  0.19265768857E+03  0.44659103486E+03 -0.13700506604E+04  0.17062440348E+04  0.89312337146E+03 0.  0.
         23    2    4    4    0    0 -0.75859116768E+02  0.56937397874E+03 -0.12426470180E+04  0.13719757092E+04  0.90578153628E+02 0.  0.
         23    2    4    4    0    0  0.26851680533E+03 -0.12278294388E+03 -0.12740364239E+03  0.33426832557E+03  0.91250749745E+02 0.  0.
          2    1    3    3  502    0  0.59262529513E+01 -0.25122537661E+01  0.57514681312E+01  0.86319915832E+01  0.00000000000E+00 0. -1.
         -1    1    3    3    0  502 -0.19858394152E+03 -0.44407878109E+03  0.22654622887E+03  0.53662346153E+03  0.00000000000E+00 0.  1.
         11    1    5    5    0    0 -0.19960484516E+02  0.33370739769E+02 -0.50979886786E+02  0.64116893808E+02  0.00000000000E+00 0. -1.
        -11    1    5    5    0    0 -0.55898632252E+02  0.53600323897E+03 -0.11916671313E+04  0.13078588154E+04  0.00000000000E+00 0.  1.
          2    1    6    6  503    0  0.20032219434E+02 -0.32634221668E+02  0.50220378587E+01  0.38619983215E+02  0.00000000000E+00 0. -1.
         -2    1    6    6    0  503  0.24848458590E+03 -0.90148722217E+02 -0.13242568025E+03  0.29564834236E+03  0.00000000000E+00 0.  1.
<mgrwt>
<rscale>  0 0.19428763E+04</rscale>
<asrwt>0</asrwt>
<pdfrwt beam="1">  1        2 0.26071172E+00 0.19428763E+04</pdfrwt>
<pdfrwt beam="2">  1       -1 0.85672812E-01 0.19428763E+04</pdfrwt>
<totfact> 0.14127500E+01</totfact>
</mgrwt>
</event>
<event>
12    6  0.1457317E-007  0.2236786E+04  0.7818608E-02  0.8503271E-01
         -1   -1    0    0    0  501 -0.00000000000E+00  0.00000000000E+00  0.16398254828E+04  0.16398254828E+04  0.00000000000E+00 0.  1.
          2   -1    0    0  501    0  0.00000000000E+00 -0.00000000000E+00 -0.76276610435E+03  0.76276610435E+03  0.00000000000E+00 0. -1.
         24    2    1    2    0    0 -0.36360060625E+03 -0.64741257451E+03 -0.23113850739E+03  0.78191696528E+03  0.81367613306E+02 0.  0.
        254    2    1    2    0    0  0.36360060625E+03  0.64741257451E+03  0.11081978859E+04  0.16206746219E+04  0.92039949659E+03 0.  0.
         23    2    4    4    0    0  0.96923611705E+02  0.11648316024E+03 -0.14614420001E+03  0.22977178728E+03  0.92056688559E+02 0.  0.
         23    2    4    4    0    0  0.26667699455E+03  0.53092941427E+03  0.12543420859E+04  0.13909028346E+04  0.90741195543E+02 0.  0.
          2    1    3    3  502    0 -0.30949377192E+03 -0.51583469631E+03 -0.21460217663E+03  0.63869078825E+03  0.00000000000E+00 0. -1.
         -1    1    3    3    0  502 -0.54106834332E+02 -0.13157787820E+03 -0.16536330755E+02  0.14322617704E+03  0.00000000000E+00 0.  1.
         11    1    5    5    0    0  0.94335524084E+02  0.43047559631E+02 -0.89852788565E+02  0.13720716857E+03  0.00000000000E+00 0.  1.
        -11    1    5    5    0    0  0.25880876211E+01  0.73435600612E+02 -0.56291411448E+02  0.92564618714E+02  0.00000000000E+00 0. -1.
          1    1    6    6  503    0  0.24451743832E+03  0.51555737945E+03  0.12229513858E+04  0.13495177958E+04  0.00000000000E+00 0. -1.
         -1    1    6    6    0  503  0.22159556224E+02  0.15372034819E+02  0.31390700115E+02  0.41385038845E+02  0.00000000000E+00 0.  1.
<mgrwt>
<rscale>  0 0.22367864E+04</rscale>
<asrwt>0</asrwt>
<pdfrwt beam="1">  1        2 0.11734863E+00 0.22367864E+04</pdfrwt>
<pdfrwt beam="2">  1       -1 0.25228084E+00 0.22367864E+04</pdfrwt>
<totfact> 0.25695591E+00</totfact>
</mgrwt>
</event>
<event>
12    6  0.1457317E-007  0.1619901E+04  0.7818608E-02  0.8808415E-01
         -1   -1    0    0    0  501 -0.00000000000E+00  0.00000000000E+00  0.63798642065E+03  0.63798642065E+03  0.00000000000E+00 0.  1.
          2   -1    0    0  501    0  0.00000000000E+00 -0.00000000000E+00 -0.10282656934E+04  0.10282656934E+04  0.00000000000E+00 0. -1.
         24    2    1    2    0    0 -0.46082239309E+03 -0.24943681214E+03 -0.38085613874E+03  0.65295516115E+03  0.81994163373E+02 0.  0.
        254    2    1    2    0    0  0.46082239309E+03  0.24943681214E+03 -0.94231339611E+01  0.10132969529E+04  0.86724040381E+03 0.  0.
         23    2    4    4    0    0  0.28819014407E+03  0.36623938861E+03  0.34867567977E+03  0.58916475083E+03  0.91408561153E+02 0.  0.
         23    2    4    4    0    0  0.17263224902E+03 -0.11680257647E+03 -0.35809881373E+03  0.42413220203E+03  0.90601485299E+02 0.  0.
          2    1    3    3  502    0 -0.28141070672E+03 -0.14946761032E+03 -0.27981653444E+03  0.42406349211E+03  0.00000000000E+00 0. -1.
         -3    1    3    3    0  502 -0.17941168637E+03 -0.99969201823E+02 -0.10103960430E+03  0.22889166904E+03  0.00000000000E+00 0.  1.
         11    1    5    5    0    0  0.12396723830E+03  0.96913755074E+02  0.90390158148E+02  0.18146771830E+03  0.00000000000E+00 0.  1.
        -11    1    5    5    0    0  0.16422290577E+03  0.26932563353E+03  0.25828552162E+03  0.40769703253E+03  0.00000000000E+00 0. -1.
          1    1    6    6  503    0  0.90591241001E+02 -0.17640174867E+02 -0.10229041467E+03  0.13777255767E+03  0.00000000000E+00 0. -1.
         -1    1    6    6    0  503  0.82041008018E+02 -0.99162401601E+02 -0.25580839906E+03  0.28635964436E+03  0.00000000000E+00 0.  1.
<mgrwt>
<rscale>  0 0.16199007E+04</rscale>
<asrwt>0</asrwt>
<pdfrwt beam="1">  1        2 0.15819472E+00 0.16199007E+04</pdfrwt>
<pdfrwt beam="2">  1       -1 0.98151757E-01 0.16199007E+04</pdfrwt>
<totfact> 0.26253939E+01</totfact>
</mgrwt>
</event>
<event>
12    6  0.1457317E-007  0.1377476E+04  0.7818608E-02  0.8970286E-01
          2   -1    0    0  501    0  0.00000000000E+00  0.00000000000E+00  0.21418503512E+04  0.21418503512E+04  0.00000000000E+00 0. -1.
         -1   -1    0    0    0  501 -0.00000000000E+00 -0.00000000000E+00 -0.22147206138E+03  0.22147206138E+03  0.00000000000E+00 0.  1.
         24    2    1    2    0    0 -0.10274239217E+00 -0.39982128289E+03  0.44748752003E+03  0.60538863398E+03  0.79957793587E+02 0.  0.
        254    2    1    2    0    0  0.10274239217E+00  0.39982128289E+03  0.14728907698E+04  0.17579337786E+04  0.87239147257E+03 0.  0.
         23    2    4    4    0    0  0.15485354487E+02 -0.22992323038E+03  0.77548599489E+03  0.81386678457E+03  0.88860152397E+02 0.  0.
         23    2    4    4    0    0 -0.15382612094E+02  0.62974451327E+03  0.69740477488E+03  0.94406699402E+03  0.89857066551E+02 0.  0.
          4    1    3    3  502    0 -0.80769072321E+01 -0.12059324294E+02  0.18796368287E+01  0.14635462667E+02  0.00000000000E+00 0. -1.
         -3    1    3    3    0  502  0.79741648399E+01 -0.38776195860E+03  0.44560788320E+03  0.59075317131E+03  0.00000000000E+00 0.  1.
         11    1    5    5    0    0  0.24424285681E+02 -0.23524331293E+03  0.74658295885E+03  0.78314882140E+03  0.00000000000E+00 0. -1.
        -11    1    5    5    0    0 -0.89389311945E+01  0.53200825491E+01  0.28903036042E+02  0.30717963176E+02  0.00000000000E+00 0.  1.
          4    1    6    6  503    0  0.68077469683E+01  0.59225507045E+03  0.65818611143E+03  0.88544981290E+03  0.00000000000E+00 0. -1.
         -4    1    6    6    0  503 -0.22190359063E+02  0.37489442828E+02  0.39218663451E+02  0.58617181114E+02  0.00000000000E+00 0.  1.
<mgrwt>
<rscale>  0 0.13774760E+04</rscale>
<asrwt>0</asrwt>
<pdfrwt beam="1">  1        2 0.32951543E+00 0.13774760E+04</pdfrwt>
<pdfrwt beam="2">  1       -1 0.34072626E-01 0.13774760E+04</pdfrwt>
<totfact> 0.50403123E+01</totfact>
</mgrwt>
</event>
<event>
12    6  0.1457317E-007  0.2050434E+04  0.7818608E-02  0.8583397E-01
         -1   -1    0    0    0  501 -0.00000000000E+00  0.00000000000E+00  0.11096459135E+04  0.11096459135E+04  0.00000000000E+00 0.  1.
          2   -1    0    0  501    0  0.00000000000E+00 -0.00000000000E+00 -0.94721196231E+03  0.94721196231E+03  0.00000000000E+00 0. -1.
         24    2    1    2    0    0  0.78642857165E+02 -0.50574445768E+03 -0.58030483929E+03  0.77792016731E+03  0.80274060199E+02 0.  0.
        254    2    1    2    0    0 -0.78642857165E+02  0.50574445768E+03  0.74273879047E+03  0.12789377085E+04  0.90667447072E+03 0.  0.
         23    2    4    4    0    0 -0.26753466450E+03  0.65840523948E+03  0.72404492982E+03  0.10185741191E+04  0.90442908226E+02 0.  0.
         23    2    4    4    0    0  0.18889180734E+03 -0.15266078180E+03  0.18693860649E+02  0.26036358937E+03  0.91947316795E+02 0.  0.
          4    1    3    3  502    0  0.89388976100E+02 -0.33264586397E+03 -0.39610665991E+03  0.52492299043E+03  0.00000000000E+00 0. -1.
         -3    1    3    3    0  502 -0.10746118935E+02 -0.17309859371E+03 -0.18419817938E+03  0.25299717687E+03  0.00000000000E+00 0.  1.
         11    1    5    5    0    0 -0.23963495264E+03  0.63332310443E+03  0.66839694979E+03  0.95146074413E+03  0.00000000000E+00 0. -1.
        -11    1    5    5    0    0 -0.27899711861E+02  0.25082135052E+02  0.55647980026E+02  0.67113374984E+02  0.00000000000E+00 0.  1.
          2    1    6    6  503    0  0.18080657384E+03 -0.10336536654E+03  0.25976773963E+02  0.20988141635E+03  0.00000000000E+00 0. -1.
         -2    1    6    6    0  503  0.80852334948E+01 -0.49295415262E+02 -0.72829133147E+01  0.50482173021E+02  0.00000000000E+00 0.  1.
<mgrwt>
<rscale>  0 0.20504340E+04</rscale>
<asrwt>0</asrwt>
<pdfrwt beam="1">  1        2 0.14572492E+00 0.20504340E+04</pdfrwt>
<pdfrwt beam="2">  1       -1 0.17071476E+00 0.20504340E+04</pdfrwt>
<totfact> 0.69964011E+00</totfact>
</mgrwt>
</event>
<event>
12    6  0.1457317E-007  0.2567671E+04  0.7818608E-02  0.8379266E-01
         -1   -1    0    0    0  501 -0.00000000000E+00  0.00000000000E+00  0.61882688636E+03  0.61882688636E+03  0.00000000000E+00 0.  1.
          2   -1    0    0  501    0  0.00000000000E+00 -0.00000000000E+00 -0.26634802377E+04  0.26634802377E+04  0.00000000000E+00 0. -1.
         24    2    1    2    0    0 -0.82221815571E+03 -0.62270922680E+03 -0.32356755322E+03  0.10838385740E+04  0.78743992552E+02 0.  0.
        254    2    1    2    0    0  0.82221815571E+03  0.62270922680E+03 -0.17210857981E+04  0.21984685500E+04  0.89850885595E+03 0.  0.
         23    2    4    4    0    0  0.53397188537E+02 -0.17903328150E+03 -0.51960503366E+03  0.55959853869E+03  0.90867804370E+02 0.  0.
         23    2    4    4    0    0  0.76882096717E+03  0.80174250830E+03 -0.12014807645E+04  0.16388700113E+04  0.91989985785E+02 0.  0.
          4    1    3    3  502    0 -0.84269970398E+02 -0.53735259429E+02 -0.55017973648E+02  0.11408717474E+03  0.00000000000E+00 0. -1.
         -3    1    3    3    0  502 -0.73794818531E+03 -0.56897396737E+03 -0.26854957957E+03  0.96975139929E+03  0.00000000000E+00 0.  1.
         11    1    5    5    0    0  0.48364418793E+01 -0.14894580496E+03 -0.40494182786E+03  0.43149290601E+03  0.00000000000E+00 0.  1.
        -11    1    5    5    0    0  0.48560746658E+02 -0.30087476544E+02 -0.11466320580E+03  0.12810563268E+03  0.00000000000E+00 0. -1.
          4    1    6    6  503    0  0.67797542221E+03  0.71313123330E+03 -0.10183548131E+04  0.14160696856E+04  0.00000000000E+00 0. -1.
         -4    1    6    6    0  503  0.90845544963E+02  0.88611275004E+02 -0.18312595135E+03  0.22280032576E+03  0.00000000000E+00 0.  1.
<mgrwt>
<rscale>  0 0.25676707E+04</rscale>
<asrwt>0</asrwt>
<pdfrwt beam="1">  1        2 0.40976620E+00 0.25676707E+04</pdfrwt>
<pdfrwt beam="2">  1       -1 0.95204135E-01 0.25676707E+04</pdfrwt>
<totfact> 0.29996868E+00</totfact>
</mgrwt>
</event>
<event>
12    6  0.1457317E-007  0.1664495E+04  0.7818608E-02  0.8781877E-01
         -1   -1    0    0    0  501 -0.00000000000E+00  0.00000000000E+00  0.31449024548E+03  0.31449024548E+03  0.00000000000E+00 0.  1.
          2   -1    0    0  501    0  0.00000000000E+00 -0.00000000000E+00 -0.22024081395E+04  0.22024081395E+04  0.00000000000E+00 0. -1.
         24    2    1    2    0    0  0.39271831600E+03 -0.28608786931E+03 -0.17967999090E+03  0.52364097758E+03  0.76426628767E+02 0.  0.
        254    2    1    2    0    0 -0.39271831600E+03  0.28608786931E+03 -0.17082379031E+04  0.19932574074E+04  0.90494442584E+03 0.  0.
         23    2    4    4    0    0 -0.41321142156E+03 -0.24419194669E+03 -0.83806360493E+03  0.96994673877E+03  0.89848118551E+02 0.  0.
         23    2    4    4    0    0  0.20493105560E+02  0.53027981600E+03 -0.87017429822E+03  0.10233106687E+04  0.91349683613E+02 0.  0.
          2    1    3    3  502    0  0.11748184984E+03 -0.11423151330E+03 -0.31229825870E+02  0.16681164737E+03  0.00000000000E+00 0. -1.
         -1    1    3    3    0  502  0.27523646616E+03 -0.17185635601E+03 -0.14845016503E+03  0.35682933022E+03  0.00000000000E+00 0.  1.
         11    1    5    5    0    0 -0.96889989933E+02 -0.80402070396E+02 -0.29179820620E+03  0.31780238548E+03  0.00000000000E+00 0.  1.
        -11    1    5    5    0    0 -0.31632143163E+03 -0.16378987629E+03 -0.54626539873E+03  0.65214435329E+03  0.00000000000E+00 0. -1.
          1    1    6    6  503    0  0.39237758305E+02  0.41472300148E+03 -0.73178461789E+03  0.84204720569E+03  0.00000000000E+00 0. -1.
         -1    1    6    6    0  503 -0.18744652745E+02  0.11555681452E+03 -0.13838968033E+03  0.18126346297E+03  0.00000000000E+00 0.  1.
<mgrwt>
<rscale>  0 0.16644950E+04</rscale>
<asrwt>0</asrwt>
<pdfrwt beam="1">  1        2 0.33883203E+00 0.16644950E+04</pdfrwt>
<pdfrwt beam="2">  1       -1 0.48383113E-01 0.16644950E+04</pdfrwt>
<totfact> 0.23915909E+01</totfact>
</mgrwt>
</event>
<event>
12    6  0.1457317E-007  0.1391202E+04  0.7818608E-02  0.8960212E-01
         -1   -1    0    0    0  501 -0.00000000000E+00  0.00000000000E+00  0.31487532710E+03  0.31487532710E+03  0.00000000000E+00 0.  1.
          2   -1    0    0  501    0  0.00000000000E+00 -0.00000000000E+00 -0.15366744096E+04  0.15366744096E+04  0.00000000000E+00 0. -1.
         24    2    1    2    0    0 -0.25695983267E+03  0.10987480622E+03 -0.69287672846E+03  0.75132673170E+03  0.79453560429E+02 0.  0.
        254    2    1    2    0    0  0.25695983267E+03 -0.10987480622E+03 -0.52892235403E+03  0.11002230050E+04  0.92338019010E+03 0.  0.
         23    2    4    4    0    0  0.25207598952E+03 -0.23038983646E+03  0.16381710793E+03  0.39042652502E+03  0.94736715942E+02 0.  0.
         23    2    4    4    0    0  0.48838431531E+01  0.12051503024E+03 -0.69273946196E+03  0.70979647998E+03  0.96826424057E+02 0.  0.
          2    1    3    3  502    0 -0.19690289838E+03  0.10424963000E+03 -0.60517336857E+03  0.64488258061E+03  0.00000000000E+00 0. -1.
         -1    1    3    3    0  502 -0.60056934289E+02  0.56251762184E+01 -0.87703359890E+02  0.10644415108E+03  0.00000000000E+00 0.  1.
         11    1    5    5    0    0 -0.73999183164E+01 -0.24617395674E+01 -0.78774859202E+00  0.78383353227E+01  0.00000000000E+00 0. -1.
        -11    1    5    5    0    0  0.25947590784E+03 -0.22792809689E+03  0.16460485652E+03  0.38258818969E+03  0.00000000000E+00 0.  1.
          2    1    6    6  503    0 -0.19754141896E+01  0.31637736293E+02 -0.45154746076E+03  0.45265876545E+03  0.00000000000E+00 0. -1.
         -2    1    6    6    0  503  0.68592573427E+01  0.88877293946E+02 -0.24119200119E+03  0.25713771452E+03  0.00000000000E+00 0.  1.
<mgrwt>
<rscale>  0 0.13912022E+04</rscale>
<asrwt>0</asrwt>
<pdfrwt beam="1">  1        2 0.23641145E+00 0.13912022E+04</pdfrwt>
<pdfrwt beam="2">  1       -1 0.48442357E-01 0.13912022E+04</pdfrwt>
<totfact> 0.57246795E+01</totfact>
</mgrwt>
</event>
<event>
12    6  0.1457317E-007  0.1253190E+04  0.7818608E-02  0.9067532E-01
          2   -1    0    0  501    0  0.00000000000E+00  0.00000000000E+00  0.13072617962E+04  0.13072617962E+04  0.00000000000E+00 0. -1.
         -1   -1    0    0    0  501 -0.00000000000E+00 -0.00000000000E+00 -0.30033884227E+03  0.30033884227E+03  0.00000000000E+00 0.  1.
         24    2    1    2    0    0  0.12814353672E+03  0.10979312730E+02 -0.11143670954E+03  0.19080428329E+03  0.86294976558E+02 0.  0.
        254    2    1    2    0    0 -0.12814353672E+03 -0.10979312730E+02  0.11183596635E+04  0.14167963552E+04  0.86025709174E+03 0.  0.
         23    2    4    4    0    0  0.17318693279E+03  0.16103353107E+03  0.10112184823E+04  0.10422524943E+04  0.88328540534E+02 0.  0.
         23    2    4    4    0    0 -0.30133046950E+03 -0.17201284380E+03  0.10714118115E+03  0.37454386089E+03  0.91735493394E+02 0.  0.
          4    1    3    3  502    0  0.15830299784E+02  0.89373118330E+01  0.13611898438E+02  0.22710299715E+02  0.00000000000E+00 0. -1.
         -3    1    3    3    0  502  0.11231323693E+03  0.20420008973E+01 -0.12504860797E+03  0.16809398358E+03  0.00000000000E+00 0.  1.
         11    1    5    5    0    0  0.18040172082E+03  0.14249989519E+03  0.87990759255E+03  0.90944399081E+03  0.00000000000E+00 0.  1.
        -11    1    5    5    0    0 -0.72147880363E+01  0.18533635876E+02  0.13131088979E+03  0.13280850350E+03  0.00000000000E+00 0. -1.
          4    1    6    6  503    0 -0.90818877685E+02 -0.82652017790E+01  0.15265318016E+02  0.92463030659E+02  0.00000000000E+00 0. -1.
         -4    1    6    6    0  503 -0.21051159182E+03 -0.16374764202E+03  0.91875863131E+02  0.28208083023E+03  0.00000000000E+00 0.  1.
<mgrwt>
<rscale>  0 0.12531903E+04</rscale>
<asrwt>0</asrwt>
<pdfrwt beam="1">  1        2 0.20111720E+00 0.12531903E+04</pdfrwt>
<pdfrwt beam="2">  1       -1 0.46205976E-01 0.12531903E+04</pdfrwt>
<totfact> 0.85478629E+01</totfact>
</mgrwt>
</event>
<event>
12    6  0.1457317E-007  0.1445724E+04  0.7818608E-02  0.8921370E-01
         -1   -1    0    0    0  501 -0.00000000000E+00  0.00000000000E+00  0.45075155134E+03  0.45075155134E+03  0.00000000000E+00 0.  1.
          2   -1    0    0  501    0  0.00000000000E+00 -0.00000000000E+00 -0.11592405287E+04  0.11592405287E+04  0.00000000000E+00 0. -1.
         24    2    1    2    0    0  0.45391427970E+02  0.28420584826E+03 -0.58691657183E+03  0.65818090680E+03  0.76796470405E+02 0.  0.
        254    2    1    2    0    0 -0.45391427970E+02 -0.28420584826E+03 -0.12157240555E+03  0.95181117326E+03  0.89907247419E+03 0.  0.
         23    2    4    4    0    0  0.12897658269E+03 -0.49415631606E+03 -0.31360006172E+03  0.60607347187E+03  0.90302995546E+02 0.  0.
         23    2    4    4    0    0 -0.17436801066E+03  0.20995046780E+03  0.19202765617E+03  0.34573770140E+03  0.90424196757E+02 0.  0.
          2    1    3    3  502    0 -0.17805566968E+02  0.10401721206E+03 -0.24020547836E+03  0.26236480415E+03  0.00000000000E+00 0. -1.
         -1    1    3    3    0  502  0.63196994938E+02  0.18018863620E+03 -0.34671109347E+03  0.39581610266E+03  0.00000000000E+00 0.  1.
         11    1    5    5    0    0  0.10190084796E+03 -0.33471850832E+03 -0.25924361084E+03  0.43546241214E+03  0.00000000000E+00 0.  1.
        -11    1    5    5    0    0  0.27075734735E+02 -0.15943780774E+03 -0.54356450882E+02  0.17061105973E+03  0.00000000000E+00 0. -1.
          4    1    6    6  503    0 -0.87947540482E+02  0.15443912034E+03  0.83672487350E+02  0.19643649586E+03  0.00000000000E+00 0. -1.
         -4    1    6    6    0  503 -0.86420470180E+02  0.55511347466E+02  0.10835516882E+03  0.14930120553E+03  0.00000000000E+00 0.  1.
<mgrwt>
<rscale>  0 0.14457240E+04</rscale>
<asrwt>0</asrwt>
<pdfrwt beam="1">  1        2 0.17834469E+00 0.14457240E+04</pdfrwt>
<pdfrwt beam="2">  1       -1 0.69346394E-01 0.14457240E+04</pdfrwt>
<totfact> 0.46638967E+01</totfact>
</mgrwt>
</event>
<event>
12    6  0.1457317E-007  0.1575273E+04  0.7818608E-02  0.8835884E-01
         -1   -1    0    0    0  501 -0.00000000000E+00  0.00000000000E+00  0.16528799874E+03  0.16528799874E+03  0.00000000000E+00 0.  1.
          2   -1    0    0  501    0  0.00000000000E+00 -0.00000000000E+00 -0.37532754499E+04  0.37532754499E+04  0.00000000000E+00 0. -1.
         24    2    1    2    0    0 -0.29372311797E+03  0.28043805623E+03 -0.36217092007E+03  0.55015065731E+03  0.81112249295E+02 0.  0.
        254    2    1    2    0    0  0.29372311797E+03 -0.28043805623E+03 -0.32258165311E+04  0.33684127913E+04  0.88056440258E+03 0.  0.
         23    2    4    4    0    0  0.45768920143E+03  0.43686779699E+02 -0.92157071651E+03  0.10339439974E+04  0.91431200234E+02 0.  0.
         23    2    4    4    0    0 -0.16396608346E+03 -0.32412483593E+03 -0.23042458146E+04  0.23344687940E+04  0.90851472558E+02 0.  0.
          4    1    3    3  502    0 -0.89583202242E+02  0.10725053648E+03 -0.17281054908E+03  0.22224156581E+03  0.00000000000E+00 0. -1.
         -3    1    3    3    0  502 -0.20413991573E+03  0.17318751975E+03 -0.18936037099E+03  0.32790909150E+03  0.00000000000E+00 0.  1.
         11    1    5    5    0    0  0.32641604603E+03  0.29295631996E+02 -0.55789716156E+03  0.64703547974E+03  0.00000000000E+00 0. -1.
        -11    1    5    5    0    0  0.13127315540E+03  0.14391147703E+02 -0.36367355495E+03  0.38690851765E+03  0.00000000000E+00 0.  1.
          2    1    6    6  503    0 -0.10861735371E+03 -0.28899830754E+03 -0.18760894145E+04  0.19013230243E+04  0.00000000000E+00 0. -1.
         -2    1    6    6    0  503 -0.55348729746E+02 -0.35126528389E+02 -0.42815640008E+03  0.43314576970E+03  0.00000000000E+00 0.  1.
<mgrwt>
<rscale>  0 0.15752732E+04</rscale>
<asrwt>0</asrwt>
<pdfrwt beam="1">  1        2 0.57742693E+00 0.15752732E+04</pdfrwt>
<pdfrwt beam="2">  1       -1 0.25428926E-01 0.15752732E+04</pdfrwt>
<totfact> 0.80591207E+00</totfact>
</mgrwt>
</event>
<event>
12    6  0.1457317E-007  0.1944765E+04  0.7818608E-02  0.8632889E-01
         -1   -1    0    0    0  501 -0.00000000000E+00  0.00000000000E+00  0.65485671351E+03  0.65485671351E+03  0.00000000000E+00 0.  1.
          2   -1    0    0  501    0  0.00000000000E+00 -0.00000000000E+00 -0.14438691331E+04  0.14438691331E+04  0.00000000000E+00 0. -1.
         24    2    1    2    0    0 -0.71642787559E+03  0.20024646718E+03 -0.48038919460E+03  0.88999401542E+03  0.89151672201E+02 0.  0.
        254    2    1    2    0    0  0.71642787559E+03 -0.20024646718E+03 -0.30862322502E+03  0.12087318312E+04  0.90134166455E+03 0.  0.
         23    2    4    4    0    0  0.81376361612E+03 -0.16113854245E+03  0.37943433610E+02  0.83535815072E+03  0.90590744755E+02 0.  0.
         23    2    4    4    0    0 -0.97335740526E+02 -0.39107924735E+02 -0.34656665863E+03  0.37337368051E+03  0.91081174036E+02 0.  0.
          2    1    3    3  502    0 -0.48723539852E+03  0.16494950074E+03 -0.36674079779E+03  0.63174795934E+03  0.00000000000E+00 0. -1.
         -1    1    3    3    0  502 -0.22919247707E+03  0.35296966449E+02 -0.11364839682E+03  0.25824605609E+03  0.00000000000E+00 0.  1.
         11    1    5    5    0    0  0.56968651443E+03 -0.89259104517E+02  0.61103680542E+02  0.57986513280E+03  0.00000000000E+00 0.  1.
        -11    1    5    5    0    0  0.24407710169E+03 -0.71879437933E+02 -0.23160246932E+02  0.25549301791E+03  0.00000000000E+00 0. -1.
          2    1    6    6  503    0  0.17323696347E+01 -0.25411951734E+02 -0.21699940333E+02  0.33461258284E+02  0.00000000000E+00 0. -1.
         -2    1    6    6    0  503 -0.99068110161E+02 -0.13695973001E+02 -0.32486671830E+03  0.33991242223E+03  0.00000000000E+00 0.  1.
<mgrwt>
<rscale>  0 0.19447647E+04</rscale>
<asrwt>0</asrwt>
<pdfrwt beam="1">  1        2 0.22213371E+00 0.19447647E+04</pdfrwt>
<pdfrwt beam="2">  1       -1 0.10074719E+00 0.19447647E+04</pdfrwt>
<totfact> 0.13610497E+01</totfact>
</mgrwt>
</event>
<event>
12    6  0.1457317E-007  0.2239608E+04  0.7818608E-02  0.8502121E-01
         -1   -1    0    0    0  501 -0.00000000000E+00  0.00000000000E+00  0.10353005043E+04  0.10353005043E+04  0.00000000000E+00 0.  1.
          2   -1    0    0  501    0  0.00000000000E+00 -0.00000000000E+00 -0.12112050444E+04  0.12112050444E+04  0.00000000000E+00 0. -1.
         24    2    1    2    0    0 -0.35292349785E+03 -0.86633641221E+03 -0.62569671840E+02  0.94093565877E+03  0.79694263642E+02 0.  0.
        254    2    1    2    0    0  0.35292349785E+03  0.86633641221E+03 -0.11333486833E+03  0.13055698899E+04  0.90364493613E+03 0.  0.
         23    2    4    4    0    0  0.73884256356E+02  0.39729258133E+02  0.30868908994E+03  0.33265193324E+03  0.91274624896E+02 0.  0.
         23    2    4    4    0    0  0.27903924149E+03  0.82660715408E+03 -0.42202395827E+03  0.97291795667E+03  0.85573614975E+02 0.  0.
          4    1    3    3  502    0 -0.11780828050E+02 -0.52785413915E+02  0.12681125125E+02  0.55550866476E+02  0.00000000000E+00 0. -1.
         -3    1    3    3    0  502 -0.34114266980E+03 -0.81355099830E+03 -0.75250796965E+02  0.88538479230E+03  0.00000000000E+00 0.  1.
         11    1    5    5    0    0  0.18965307070E+01 -0.19068525996E+02  0.14222165260E+02  0.23863685739E+02  0.00000000000E+00 0.  1.
        -11    1    5    5    0    0  0.71987725649E+02  0.58797784129E+02  0.29446692468E+03  0.30878824750E+03  0.00000000000E+00 0. -1.
          2    1    6    6  503    0  0.15361281141E+03  0.33307958011E+03 -0.19465209485E+03  0.41524491634E+03  0.00000000000E+00 0. -1.
         -2    1    6    6    0  503  0.12542643008E+03  0.49352757397E+03 -0.22737186342E+03  0.55767304032E+03  0.00000000000E+00 0.  1.
<mgrwt>
<rscale>  0 0.22396082E+04</rscale>
<asrwt>0</asrwt>
<pdfrwt beam="1">  1        2 0.18633924E+00 0.22396082E+04</pdfrwt>
<pdfrwt beam="2">  1       -1 0.15927700E+00 0.22396082E+04</pdfrwt>
<totfact> 0.57330732E+00</totfact>
</mgrwt>
</event>
<event>
12    6  0.1457317E-007  0.3085224E+04  0.7818608E-02  0.8219805E-01
         -1   -1    0    0    0  501 -0.00000000000E+00  0.00000000000E+00  0.33754490267E+04  0.33754490267E+04  0.00000000000E+00 0.  1.
          2   -1    0    0  501    0  0.00000000000E+00 -0.00000000000E+00 -0.70498841451E+03  0.70498841451E+03  0.00000000000E+00 0. -1.
         24    2    1    2    0    0  0.13354651892E+04  0.15018107714E+02  0.18310396653E+04  0.22676396187E+04  0.76094477497E+02 0.  0.
        254    2    1    2    0    0 -0.13354651892E+04 -0.15018107714E+02  0.83942094686E+03  0.18127978225E+04  0.89326121829E+03 0.  0.
         23    2    4    4    0    0 -0.82955424735E+03 -0.41588952978E+03  0.64209264698E+03  0.11320276810E+04  0.89885221626E+02 0.  0.
         23    2    4    4    0    0 -0.50591094180E+03  0.40087142207E+03  0.19732829988E+03  0.68077014142E+03  0.88689060500E+02 0.  0.
          4    1    3    3  502    0  0.63778050251E+03  0.22931714257E+01  0.93840896185E+03  0.11346279600E+04  0.00000000000E+00 0. -1.
         -3    1    3    3    0  502  0.69768468664E+03  0.12724936288E+02  0.89263070346E+03  0.11330116587E+04  0.00000000000E+00 0.  1.
         11    1    5    5    0    0 -0.44767205016E+03 -0.27265923882E+03  0.37491786618E+03  0.64445072068E+03  0.00000000000E+00 0. -1.
        -11    1    5    5    0    0 -0.38188219719E+03 -0.14323029096E+03  0.26717478080E+03  0.48757696036E+03  0.00000000000E+00 0.  1.
          2    1    6    6  503    0 -0.49081315642E+03  0.36970252375E+03  0.19955732120E+03  0.64606550366E+03  0.00000000000E+00 0. -1.
         -2    1    6    6    0  503 -0.15097785385E+02  0.31168898319E+02 -0.22290213200E+01  0.34704637759E+02  0.00000000000E+00 0.  1.
<mgrwt>
<rscale>  0 0.30852244E+04</rscale>
<asrwt>0</asrwt>
<pdfrwt beam="1">  1        2 0.10845976E+00 0.30852244E+04</pdfrwt>
<pdfrwt beam="2">  1       -1 0.51929984E+00 0.30852244E+04</pdfrwt>
<totfact> 0.44169181E-02</totfact>
</mgrwt>
</event>
<event>
12    6  0.1457317E-007  0.1594288E+04  0.7818608E-02  0.8824065E-01
         -1   -1    0    0    0  501 -0.00000000000E+00  0.00000000000E+00  0.12626101217E+04  0.12626101217E+04  0.00000000000E+00 0.  1.
          2   -1    0    0  501    0  0.00000000000E+00 -0.00000000000E+00 -0.50327394300E+03  0.50327394300E+03  0.00000000000E+00 0. -1.
         24    2    1    2    0    0  0.35791151017E+02 -0.27787466178E+03  0.77200520901E+03  0.82466682602E+03  0.74752906584E+02 0.  0.
        254    2    1    2    0    0 -0.35791151017E+02  0.27787466178E+03 -0.12669030275E+02  0.94121723873E+03  0.89846204817E+03 0.  0.
         23    2    4    4    0    0 -0.20090890920E+02  0.63606777817E+02  0.42783537689E+03  0.44230327864E+03  0.90219812115E+02 0.  0.
         23    2    4    4    0    0 -0.15700260097E+02  0.21426788396E+03 -0.44050440716E+03  0.49891396009E+03  0.93347643653E+02 0.  0.
          2    1    3    3  502    0  0.19208828761E+02 -0.32476849215E+02  0.17422936248E+03  0.17826832469E+03  0.00000000000E+00 0. -1.
         -1    1    3    3    0  502  0.16582322256E+02 -0.24539781256E+03  0.59777584653E+03  0.64639850132E+03  0.00000000000E+00 0.  1.
         11    1    5    5    0    0 -0.37430325290E+02  0.71125879337E+02  0.40383107279E+03  0.41175169133E+03  0.00000000000E+00 0. -1.
        -11    1    5    5    0    0  0.17339434370E+02 -0.75191015205E+01  0.24004304094E+02  0.30551587307E+02  0.00000000000E+00 0.  1.
          3    1    6    6  503    0  0.29831859641E+02  0.42771468231E+02 -0.14662534925E+03  0.15562240001E+03  0.00000000000E+00 0. -1.
         -3    1    6    6    0  503 -0.45532119738E+02  0.17149641573E+03 -0.29387905792E+03  0.34329156007E+03  0.00000000000E+00 0.  1.
<mgrwt>
<rscale>  0 0.15942883E+04</rscale>
<asrwt>0</asrwt>
<pdfrwt beam="1">  1        2 0.77426761E-01 0.15942883E+04</pdfrwt>
<pdfrwt beam="2">  1       -1 0.19424771E+00 0.15942883E+04</pdfrwt>
<totfact> 0.11056178E+01</totfact>
</mgrwt>
</event>
<event>
12    6  0.1457317E-007  0.1426557E+04  0.7818608E-02  0.8934816E-01
         -1   -1    0    0    0  501 -0.00000000000E+00  0.00000000000E+00  0.33050898204E+03  0.33050898204E+03  0.00000000000E+00 0.  1.
          2   -1    0    0  501    0  0.00000000000E+00 -0.00000000000E+00 -0.15393415045E+04  0.15393415045E+04  0.00000000000E+00 0. -1.
         24    2    1    2    0    0  0.78020086042E+02 -0.17926012295E+03  0.12610573401E+03  0.24588318750E+03  0.79589950619E+02 0.  0.
        254    2    1    2    0    0 -0.78020086042E+02  0.17926012295E+03 -0.13349382565E+04  0.16239672991E+04  0.90387405885E+03 0.  0.
         23    2    4    4    0    0  0.28326377156E+03 -0.14645496040E+02 -0.91766993716E+02  0.31183141503E+03  0.91459255581E+02 0.  0.
         23    2    4    4    0    0 -0.36128385760E+03  0.19390561899E+03 -0.12431712628E+04  0.13121358841E+04  0.90002081691E+02 0.  0.
          2    1    3    3  502    0  0.77655232231E+02 -0.78857234773E+02  0.65291818433E+02  0.12849832732E+03  0.00000000000E+00 0. -1.
         -1    1    3    3    0  502  0.36485381032E+00 -0.10040288818E+03  0.60813915579E+02  0.11738486019E+03  0.00000000000E+00 0.  1.
         11    1    5    5    0    0  0.25872785411E+03 -0.16720941048E+02 -0.51046715388E+02  0.26424507472E+03  0.00000000000E+00 0.  1.
        -11    1    5    5    0    0  0.24535917452E+02  0.20754450080E+01 -0.40720278328E+02  0.47586340312E+02  0.00000000000E+00 0. -1.
          1    1    6    6  503    0 -0.83051984019E+02  0.85004618460E+01 -0.20110295828E+03  0.21774363304E+03  0.00000000000E+00 0. -1.
         -1    1    6    6    0  503 -0.27823187358E+03  0.18540515715E+03 -0.10420683045E+04  0.10943922510E+04  0.00000000000E+00 0.  1.
<mgrwt>
<rscale>  0 0.14265570E+04</rscale>
<asrwt>0</asrwt>
<pdfrwt beam="1">  1        2 0.23682177E+00 0.14265570E+04</pdfrwt>
<pdfrwt beam="2">  1       -1 0.50847536E-01 0.14265570E+04</pdfrwt>
<totfact> 0.51889770E+01</totfact>
</mgrwt>
</event>
<event>
12    6  0.1457317E-007  0.3754714E+04  0.7818608E-02  0.8055944E-01
         -1   -1    0    0    0  501 -0.00000000000E+00  0.00000000000E+00  0.12174613725E+04  0.12174613725E+04  0.00000000000E+00 0.  1.
          2   -1    0    0  501    0  0.00000000000E+00 -0.00000000000E+00 -0.28949328712E+04  0.28949328712E+04  0.00000000000E+00 0. -1.
         24    2    1    2    0    0 -0.13736326880E+04  0.10116476395E+04 -0.12820032588E+04  0.21354354056E+04  0.79084182275E+02 0.  0.
        254    2    1    2    0    0  0.13736326880E+04 -0.10116476395E+04 -0.39546823994E+03  0.19769588382E+04  0.91742760537E+03 0.  0.
         23    2    4    4    0    0  0.80438395575E+03 -0.44156476924E+02 -0.16441075115E+03  0.82728680953E+03  0.91592725693E+02 0.  0.
         23    2    4    4    0    0  0.56924873227E+03 -0.96749116253E+03 -0.23105748878E+03  0.11496720287E+04  0.90966705978E+02 0.  0.
          2    1    3    3  502    0 -0.13527666531E+04  0.99165718735E+03 -0.12711708106E+04  0.21045752124E+04  0.00000000000E+00 0. -1.
         -3    1    3    3    0  502 -0.20866034893E+02  0.19990452108E+02 -0.10832448140E+02  0.30860193136E+02  0.00000000000E+00 0.  1.
         11    1    5    5    0    0  0.62813697518E+03 -0.40166846209E+02 -0.16617214154E+03  0.65098587984E+03  0.00000000000E+00 0. -1.
        -11    1    5    5    0    0  0.17624698057E+03 -0.39896307154E+01  0.17613903898E+01  0.17630092969E+03  0.00000000000E+00 0.  1.
          3    1    6    6  503    0  0.26567331234E+03 -0.40207298753E+03 -0.61002969881E+02  0.48576368589E+03  0.00000000000E+00 0. -1.
         -3    1    6    6    0  503  0.30357541992E+03 -0.56541817500E+03 -0.17005451890E+03  0.66390834277E+03  0.00000000000E+00 0.  1.
<mgrwt>
<rscale>  0 0.37547138E+04</rscale>
<asrwt>0</asrwt>
<pdfrwt beam="1">  1        2 0.44537428E+00 0.37547138E+04</pdfrwt>
<pdfrwt beam="2">  1       -1 0.18730175E+00 0.37547138E+04</pdfrwt>
<totfact> 0.34128288E-01</totfact>
</mgrwt>
</event>
<event>
12    6  0.1457317E-007  0.1273813E+04  0.7818608E-02  0.9050594E-01
         -1   -1    0    0    0  501 -0.00000000000E+00  0.00000000000E+00  0.43322530349E+03  0.43322530349E+03  0.00000000000E+00 0.  1.
          2   -1    0    0  501    0  0.00000000000E+00 -0.00000000000E+00 -0.93634800466E+03  0.93634800466E+03  0.00000000000E+00 0. -1.
         24    2    1    2    0    0  0.21172568416E+03  0.28992878602E+02 -0.24893635104E+03  0.33799519517E+03  0.81259416364E+02 0.  0.
        254    2    1    2    0    0 -0.21172568416E+03 -0.28992878602E+02 -0.25418635013E+03  0.10315781130E+04  0.97666491195E+03 0.  0.
         23    2    4    4    0    0 -0.22466633759E+03  0.81220760979E+02 -0.60314258524E+03  0.65440621044E+03  0.85992644240E+02 0.  0.
         23    2    4    4    0    0  0.12940653427E+02 -0.11021363958E+03  0.34895623511E+03  0.37717190254E+03  0.90408424284E+02 0.  0.
          4    1    3    3  502    0  0.20895726806E+03  0.35363300226E+02 -0.25293176995E+03  0.32998209516E+03  0.00000000000E+00 0. -1.
         -3    1    3    3    0  502  0.27684161026E+01 -0.63704216241E+01  0.39954189168E+01  0.80131000061E+01  0.00000000000E+00 0.  1.
         11    1    5    5    0    0 -0.18453844980E+03  0.94062702820E+02 -0.54129665655E+03  0.57957251652E+03  0.00000000000E+00 0.  1.
        -11    1    5    5    0    0 -0.40127887791E+02 -0.12841941842E+02 -0.61845928694E+02  0.74833693914E+02  0.00000000000E+00 0. -1.
          4    1    6    6  503    0 -0.35211901340E+02 -0.25877073955E+02  0.79021207186E+02  0.90298682923E+02  0.00000000000E+00 0. -1.
         -4    1    6    6    0  503  0.48152554768E+02 -0.84336565626E+02  0.26993502793E+03  0.28687321962E+03  0.00000000000E+00 0.  1.
<mgrwt>
<rscale>  0 0.12738126E+04</rscale>
<asrwt>0</asrwt>
<pdfrwt beam="1">  1        2 0.14405354E+00 0.12738126E+04</pdfrwt>
<pdfrwt beam="2">  1       -1 0.66650047E-01 0.12738126E+04</pdfrwt>
<totfact> 0.70852585E+01</totfact>
</mgrwt>
</event>
<event>
12    6  0.1457317E-007  0.2073455E+04  0.7818608E-02  0.8573028E-01
          2   -1    0    0  501    0  0.00000000000E+00  0.00000000000E+00  0.13216332544E+04  0.13216332544E+04  0.00000000000E+00 0. -1.
         -1   -1    0    0    0  501 -0.00000000000E+00 -0.00000000000E+00 -0.81323900064E+03  0.81323900064E+03  0.00000000000E+00 0.  1.
         24    2    1    2    0    0 -0.63134653377E+03 -0.16530132337E+03  0.73998588208E+03  0.98995789988E+03  0.80712852969E+02 0.  0.
        254    2    1    2    0    0  0.63134653377E+03  0.16530132337E+03 -0.23159162834E+03  0.11449143552E+04  0.91174076639E+03 0.  0.
         23    2    4    4    0    0  0.20725669134E+03  0.38611858162E+03 -0.42923296260E+03  0.62016374862E+03  0.91209888402E+02 0.  0.
         23    2    4    4    0    0  0.42408984244E+03 -0.22081725825E+03  0.19764133426E+03  0.52475060653E+03  0.87684924870E+02 0.  0.
          4    1    3    3  502    0 -0.45491419767E+03 -0.95476276904E+02  0.56714262696E+03  0.73328944218E+03  0.00000000000E+00 0. -1.
         -3    1    3    3    0  502 -0.17643233610E+03 -0.69825046470E+02  0.17284325512E+03  0.25666845770E+03  0.00000000000E+00 0.  1.
         11    1    5    5    0    0  0.20126240355E+03  0.30410468331E+03 -0.33624913375E+03  0.49603396400E+03  0.00000000000E+00 0. -1.
        -11    1    5    5    0    0  0.59942877902E+01  0.82013898316E+02 -0.92983828851E+02  0.12412978462E+03  0.00000000000E+00 0.  1.
          4    1    6    6  503    0  0.15763123542E+03 -0.35989065716E+02  0.71587753102E+02  0.17682654106E+03  0.00000000000E+00 0.  1.
         -4    1    6    6    0  503  0.26645860702E+03 -0.18482819253E+03  0.12605358116E+03  0.34792406547E+03  0.00000000000E+00 0. -1.
<mgrwt>
<rscale>  0 0.20734548E+04</rscale>
<asrwt>0</asrwt>
<pdfrwt beam="1">  1        2 0.20332819E+00 0.20734548E+04</pdfrwt>
<pdfrwt beam="2">  1       -1 0.12511369E+00 0.20734548E+04</pdfrwt>
<totfact> 0.94390747E+00</totfact>
</mgrwt>
</event>
<event>
12    6  0.1457317E-007  0.1286935E+04  0.7818608E-02  0.9039990E-01
          2   -1    0    0  501    0  0.00000000000E+00  0.00000000000E+00  0.88206349795E+03  0.88206349795E+03  0.00000000000E+00 0. -1.
         -1   -1    0    0    0  501 -0.00000000000E+00 -0.00000000000E+00 -0.46941149393E+03  0.46941149393E+03  0.00000000000E+00 0.  1.
         24    2    1    2    0    0  0.22083400381E+03  0.21566966645E+03  0.22498541096E+03  0.39005990548E+03  0.79039436061E+02 0.  0.
        254    2    1    2    0    0 -0.22083400381E+03 -0.21566966645E+03  0.18766659306E+03  0.96141508640E+03  0.89096529446E+03 0.  0.
         23    2    4    4    0    0  0.91940846899E+02  0.23700488609E+03 -0.15069150033E+03  0.30924593563E+03  0.91108095549E+02 0.  0.
         23    2    4    4    0    0 -0.31277485071E+03 -0.45267455254E+03  0.33835809339E+03  0.65216915077E+03  0.89978020033E+02 0.  0.
          4    1    3    3  502    0  0.21558507723E+03  0.20323464148E+03  0.18850577471E+03  0.35116331261E+03  0.00000000000E+00 0. -1.
         -3    1    3    3    0  502  0.52489265829E+01  0.12435024969E+02  0.36479636252E+02  0.38896592876E+02  0.00000000000E+00 0.  1.
         11    1    5    5    0    0  0.90893609168E+02  0.18494155725E+03 -0.79125103290E+02  0.22073923474E+03  0.00000000000E+00 0.  1.
        -11    1    5    5    0    0  0.10472377310E+01  0.52063328846E+02 -0.71566397040E+02  0.88506700891E+02  0.00000000000E+00 0. -1.
          1    1    6    6  503    0 -0.58893702492E+02 -0.57682890872E+02  0.85897408538E+02  0.11905523460E+03  0.00000000000E+00 0. -1.
         -1    1    6    6    0  503 -0.25388114822E+03 -0.39499166167E+03  0.25246068486E+03  0.53311391616E+03  0.00000000000E+00 0.  1.
<mgrwt>
<rscale>  0 0.12869355E+04</rscale>
<asrwt>0</asrwt>
<pdfrwt beam="1">  1        2 0.13570208E+00 0.12869355E+04</pdfrwt>
<pdfrwt beam="2">  1       -1 0.72217153E-01 0.12869355E+04</pdfrwt>
<totfact> 0.65342353E+01</totfact>
</mgrwt>
</event>
<event>
12    6  0.1457317E-007  0.1895923E+04  0.7818608E-02  0.8656888E-01
         -1   -1    0    0    0  501 -0.00000000000E+00  0.00000000000E+00  0.25034252839E+03  0.25034252839E+03  0.00000000000E+00 0.  1.
          2   -1    0    0  501    0  0.00000000000E+00 -0.00000000000E+00 -0.35896077160E+04  0.35896077160E+04  0.00000000000E+00 0. -1.
         24    2    1    2    0    0  0.60450418469E+03 -0.17768867293E+03 -0.17473732529E+04  0.18592495011E+04  0.80603031266E+02 0.  0.
        254    2    1    2    0    0 -0.60450418469E+03  0.17768867293E+03 -0.15918919347E+04  0.19807007432E+04  0.99602054636E+03 0.  0.
         23    2    4    4    0    0 -0.26191736798E+03  0.33441601192E+03 -0.15268555958E+04  0.15875064564E+04  0.91945428276E+02 0.  0.
         23    2    4    4    0    0 -0.34258681670E+03 -0.15672733899E+03 -0.65036338823E+02  0.39319428686E+03  0.91884906719E+02 0.  0.
          4    1    3    3  502    0  0.53379109822E+03 -0.12839922751E+03 -0.15102277274E+04  0.16069247296E+04  0.00000000000E+00 0. -1.
         -3    1    3    3    0  502  0.70713086466E+02 -0.49289445424E+02 -0.23714552555E+03  0.25232477151E+03  0.00000000000E+00 0.  1.
         11    1    5    5    0    0 -0.11337955437E+03  0.19651570634E+03 -0.92594513326E+03  0.95333505967E+03  0.00000000000E+00 0. -1.
        -11    1    5    5    0    0 -0.14853781361E+03  0.13790030558E+03 -0.60091046258E+03  0.63417139670E+03  0.00000000000E+00 0.  1.
          2    1    6    6  503    0 -0.32397674155E+03 -0.16536917664E+03 -0.73335758385E+02  0.37106067847E+03  0.00000000000E+00 0. -1.
         -2    1    6    6    0  503 -0.18610075151E+02  0.86418376495E+01  0.82994195615E+01  0.22133608385E+02  0.00000000000E+00 0.  1.
<mgrwt>
<rscale>  0 0.18959235E+04</rscale>
<asrwt>0</asrwt>
<pdfrwt beam="1">  1        2 0.55224728E+00 0.18959235E+04</pdfrwt>
<pdfrwt beam="2">  1       -1 0.38514239E-01 0.18959235E+04</pdfrwt>
<totfact> 0.49271666E+00</totfact>
</mgrwt>
</event>
<event>
12    6  0.1457317E-007  0.1205343E+04  0.7818608E-02  0.9108192E-01
         -1   -1    0    0    0  501 -0.00000000000E+00  0.00000000000E+00  0.19785364361E+03  0.19785364361E+03  0.00000000000E+00 0.  1.
          2   -1    0    0  501    0  0.00000000000E+00 -0.00000000000E+00 -0.18357669750E+04  0.18357669750E+04  0.00000000000E+00 0. -1.
         24    2    1    2    0    0 -0.79648633116E+02 -0.20592496980E+03 -0.16717559554E+03  0.28835901176E+03  0.80338297052E+02 0.  0.
        254    2    1    2    0    0  0.79648633116E+02  0.20592496980E+03 -0.14707377358E+04  0.17452616068E+04  0.91330147857E+03 0.  0.
         23    2    4    4    0    0 -0.21771714336E+03  0.64077828853E+02 -0.13686990729E+04  0.13903880777E+04  0.91296942720E+02 0.  0.
         23    2    4    4    0    0  0.29736577648E+03  0.14184714095E+03 -0.10203866292E+03  0.35487352914E+03  0.83524347002E+02 0.  0.
          2    1    3    3  502    0 -0.12225436010E+02 -0.29360325245E+02  0.55938719079E+01  0.32292125774E+02  0.00000000000E+00 0. -1.
         -1    1    3    3    0  502 -0.67423197106E+02 -0.17656464456E+03 -0.17276946745E+03  0.25606688598E+03  0.00000000000E+00 0.  1.
         11    1    5    5    0    0 -0.19496678478E+03  0.81586927165E+02 -0.12747177281E+04  0.12921198707E+04  0.00000000000E+00 0. -1.
        -11    1    5    5    0    0 -0.22750358581E+02 -0.17509098312E+02 -0.93981344776E+02  0.98268206990E+02  0.00000000000E+00 0.  1.
          2    1    6    6  503    0  0.15602004361E+03  0.98249130725E+02 -0.93449683631E+02  0.20670749640E+03  0.00000000000E+00 0. -1.
         -2    1    6    6    0  503  0.14134573287E+03  0.43598010224E+02 -0.85889792932E+01  0.14816603275E+03  0.00000000000E+00 0.  1.
<mgrwt>
<rscale>  0 0.12053434E+04</rscale>
<asrwt>0</asrwt>
<pdfrwt beam="1">  1        2 0.28242568E+00 0.12053434E+04</pdfrwt>
<pdfrwt beam="2">  1       -1 0.30439023E-01 0.12053434E+04</pdfrwt>
<totfact> 0.92169564E+01</totfact>
</mgrwt>
</event>
<event>
12    6  0.1457317E-007  0.3635054E+04  0.7818608E-02  0.8082509E-01
         -1   -1    0    0    0  501 -0.00000000000E+00  0.00000000000E+00  0.11589010635E+04  0.11589010635E+04  0.00000000000E+00 0.  1.
          2   -1    0    0  501    0  0.00000000000E+00 -0.00000000000E+00 -0.28504622255E+04  0.28504622255E+04  0.00000000000E+00 0. -1.
         24    2    1    2    0    0 -0.12182429045E+04 -0.14942724055E+03  0.51253081924E+03  0.13325276635E+04  0.80609296762E+02 0.  0.
        254    2    1    2    0    0  0.12182429045E+04  0.14942724055E+03 -0.22040919813E+04  0.26768356256E+04  0.89497666438E+03 0.  0.
         23    2    4    4    0    0 -0.51047265328E+02 -0.14537218271E+02  0.21010093550E+02  0.10827866692E+03  0.92009193385E+02 0.  0.
         23    2    4    4    0    0  0.12692901698E+04  0.16396445882E+03 -0.22251020748E+04  0.25685569586E+04  0.91780866265E+02 0.  0.
          2    1    3    3  502    0 -0.66417265428E+03 -0.45839268039E+02  0.29815743603E+03  0.72946858044E+03  0.00000000000E+00 0. -1.
         -1    1    3    3    0  502 -0.55407025017E+03 -0.10358797251E+03  0.21437338322E+03  0.60305908302E+03  0.00000000000E+00 0.  1.
         11    1    5    5    0    0 -0.66718309836E+02 -0.30922974965E+02  0.35204651544E+02  0.81528711129E+02  0.00000000000E+00 0. -1.
        -11    1    5    5    0    0  0.15671044508E+02  0.16385756694E+02 -0.14194557994E+02  0.26749955795E+02  0.00000000000E+00 0.  1.
          2    1    6    6  503    0  0.12622829674E+04  0.16257731457E+03 -0.22221895126E+04  0.25608428111E+04  0.00000000000E+00 0. -1.
         -2    1    6    6    0  503  0.70072023335E+01  0.13871442444E+01 -0.29125622382E+01  0.77141475543E+01  0.00000000000E+00 0.  1.
<mgrwt>
<rscale>  0 0.36350536E+04</rscale>
<asrwt>0</asrwt>
<pdfrwt beam="1">  1        2 0.43853265E+00 0.36350536E+04</pdfrwt>
<pdfrwt beam="2">  1       -1 0.17829247E+00 0.36350536E+04</pdfrwt>
<totfact> 0.42561198E-01</totfact>
</mgrwt>
</event>
<event>
12    6  0.1457317E-007  0.1177257E+04  0.7818608E-02  0.9133000E-01
          2   -1    0    0  501    0  0.00000000000E+00  0.00000000000E+00  0.87866947602E+03  0.87866947602E+03  0.00000000000E+00 0. -1.
         -1   -1    0    0    0  501 -0.00000000000E+00 -0.00000000000E+00 -0.39432742106E+03  0.39432742106E+03  0.00000000000E+00 0.  1.
         24    2    1    2    0    0 -0.10624233197E+03 -0.34326294507E+02  0.32215992986E+03  0.35028305600E+03  0.80283692695E+02 0.  0.
        254    2    1    2    0    0  0.10624233197E+03  0.34326294507E+02  0.16218212510E+03  0.92271384109E+03  0.90146107139E+03 0.  0.
         23    2    4    4    0    0 -0.35518515072E+03  0.18958495225E+03  0.65901153419E+02  0.41792261546E+03  0.90649903885E+02 0.  0.
         23    2    4    4    0    0  0.46142748270E+03 -0.15525865774E+03  0.96280971683E+02  0.50479122563E+03  0.92323254781E+02 0.  0.
          4    1    3    3  502    0 -0.64125160947E+02 -0.25456156124E+02  0.28558491623E+03  0.29380060676E+03  0.00000000000E+00 0. -1.
         -3    1    3    3    0  502 -0.42117171027E+02 -0.88701383828E+01  0.36575013629E+02  0.56482449240E+02  0.00000000000E+00 0.  1.
         11    1    5    5    0    0 -0.33251906351E+03  0.17388196050E+03  0.84534904711E+02  0.38464270941E+03  0.00000000000E+00 0. -1.
        -11    1    5    5    0    0 -0.22666087209E+02  0.15702991756E+02 -0.18633751292E+02  0.33279906049E+02  0.00000000000E+00 0.  1.
          3    1    6    6  503    0  0.15499642735E+03 -0.73704301945E+02  0.74030175214E+02  0.18691357216E+03  0.00000000000E+00 0. -1.
         -3    1    6    6    0  503  0.30643105535E+03 -0.81554355800E+02  0.22250796470E+02  0.31787765347E+03  0.00000000000E+00 0.  1.
<mgrwt>
<rscale>  0 0.11772569E+04</rscale>
<asrwt>0</asrwt>
<pdfrwt beam="1">  1        2 0.13517992E+00 0.11772569E+04</pdfrwt>
<pdfrwt beam="2">  1       -1 0.60665757E-01 0.11772569E+04</pdfrwt>
<totfact> 0.94224290E+01</totfact>
</mgrwt>
</event>
<event>
12    6  0.1457317E-007  0.1648790E+04  0.7818608E-02  0.8791123E-01
          2   -1    0    0  501    0  0.00000000000E+00  0.00000000000E+00  0.27188089699E+04  0.27188089699E+04  0.00000000000E+00 0. -1.
         -3   -1    0    0    0  501 -0.00000000000E+00 -0.00000000000E+00 -0.24997242254E+03  0.24997242254E+03  0.00000000000E+00 0.  1.
         24    2    1    2    0    0 -0.28131665366E+03  0.20480899084E+03  0.17147275937E+04  0.17526848057E+04  0.10260372828E+03 0.  0.
        254    2    1    2    0    0  0.28131665366E+03 -0.20480899084E+03  0.75410895360E+03  0.12160965867E+04  0.88832697357E+03 0.  0.
         23    2    4    4    0    0 -0.26612695030E+03  0.11893832437E+03  0.30047068273E+03  0.42941073288E+03  0.95608930862E+02 0.  0.
         23    2    4    4    0    0  0.54744360396E+03 -0.32374731521E+03  0.45363827087E+03  0.78668585383E+03  0.92628981424E+02 0.  0.
          2    1    3    3  502    0 -0.14199662875E+03  0.15441884620E+03  0.11418223096E+04  0.11609334216E+04  0.00000000000E+00 0. -1.
         -1    1    3    3    0  502 -0.13932002491E+03  0.50390144638E+02  0.57290528409E+03  0.59175138408E+03  0.00000000000E+00 0.  1.
         11    1    5    5    0    0 -0.87394744200E+02  0.71117268753E+02  0.65462480927E+02  0.13031056610E+03  0.00000000000E+00 0. -1.
        -11    1    5    5    0    0 -0.17873220610E+03  0.47821055613E+02  0.23500820180E+03  0.29910016678E+03  0.00000000000E+00 0.  1.
          1    1    6    6  503    0  0.15788880642E+03 -0.11693467065E+03  0.18735501131E+03  0.27148571354E+03  0.00000000000E+00 0. -1.
         -1    1    6    6    0  503  0.38955479754E+03 -0.20681264456E+03  0.26628325956E+03  0.51520014029E+03  0.00000000000E+00 0.  1.
<mgrwt>
<rscale>  0 0.16487902E+04</rscale>
<asrwt>0</asrwt>
<pdfrwt beam="1">  1        2 0.41827828E+00 0.16487902E+04</pdfrwt>
<pdfrwt beam="2">  1       -3 0.38457298E-01 0.16487902E+04</pdfrwt>
<totfact> 0.10774437E+01</totfact>
</mgrwt>
</event>
<event>
12    6  0.1457317E-007  0.1191763E+04  0.7818608E-02  0.9120097E-01
          2   -1    0    0  501    0  0.00000000000E+00  0.00000000000E+00  0.25233711578E+04  0.25233711578E+04  0.00000000000E+00 0. -1.
         -1   -1    0    0    0  501 -0.00000000000E+00 -0.00000000000E+00 -0.14071434869E+03  0.14071434869E+03  0.00000000000E+00 0.  1.
         24    2    1    2    0    0  0.17649908184E+03 -0.16620809587E+02  0.89764832714E+03  0.91842287496E+03  0.79371788583E+02 0.  0.
        254    2    1    2    0    0 -0.17649908184E+03  0.16620809587E+02  0.14850084820E+04  0.17456626316E+04  0.90036640011E+03 0.  0.
         23    2    4    4    0    0 -0.30881365768E+03  0.23365044547E+03  0.22578586287E+03  0.45769733129E+03  0.92461804830E+02 0.  0.
         23    2    4    4    0    0  0.13231457584E+03 -0.21702963589E+03  0.12592226191E+04  0.12879653003E+04  0.92757751012E+02 0.  0.
          4    1    3    3  502    0  0.95786103012E+02 -0.43942679875E+02  0.40655168315E+03  0.41998834236E+03  0.00000000000E+00 0. -1.
         -3    1    3    3    0  502  0.80712978830E+02  0.27321870288E+02  0.49109664399E+03  0.49843453260E+03  0.00000000000E+00 0.  1.
         11    1    5    5    0    0 -0.17331264855E+03  0.15442799329E+03  0.86113528702E+02  0.24759002218E+03  0.00000000000E+00 0. -1.
        -11    1    5    5    0    0 -0.13550100914E+03  0.79222452180E+02  0.13967233417E+03  0.21010730911E+03  0.00000000000E+00 0.  1.
          4    1    6    6  503    0  0.31847920704E+02 -0.12660861736E+03  0.74058027765E+03  0.75199945458E+03  0.00000000000E+00 0. -1.
         -4    1    6    6    0  503  0.10046665514E+03 -0.90421018530E+02  0.51864234147E+03  0.53596584570E+03  0.00000000000E+00 0.  1.
<mgrwt>
<rscale>  0 0.11917626E+04</rscale>
<asrwt>0</asrwt>
<pdfrwt beam="1">  1        2 0.38821091E+00 0.11917626E+04</pdfrwt>
<pdfrwt beam="2">  1       -1 0.21648363E-01 0.11917626E+04</pdfrwt>
<totfact> 0.68389224E+01</totfact>
</mgrwt>
</event>
<event>
12    6  0.1457317E-007  0.1695962E+04  0.7818608E-02  0.8763671E-01
         -1   -1    0    0    0  501 -0.00000000000E+00  0.00000000000E+00  0.72566630665E+03  0.72566630665E+03  0.00000000000E+00 0.  1.
          2   -1    0    0  501    0  0.00000000000E+00 -0.00000000000E+00 -0.99091187488E+03  0.99091187488E+03  0.00000000000E+00 0. -1.
         24    2    1    2    0    0 -0.11694116911E+03  0.70788603452E+01 -0.69264925377E+03  0.70698929654E+03  0.79658831093E+02 0.  0.
        254    2    1    2    0    0  0.11694116911E+03 -0.70788603452E+01  0.42740368555E+03  0.10095888850E+04  0.90712207501E+03 0.  0.
         23    2    4    4    0    0  0.30095239904E+03  0.24110063431E+02  0.63955411642E+03  0.71270891289E+03  0.88152623513E+02 0.  0.
         23    2    4    4    0    0 -0.18401122994E+03 -0.31188923776E+02 -0.21215043087E+03  0.29687997210E+03  0.91088038765E+02 0.  0.
          2    1    3    3  502    0 -0.10751048289E+03  0.34238602603E+02 -0.54156656585E+03  0.55319538238E+03  0.00000000000E+00 0. -1.
         -1    1    3    3    0  502 -0.94306862150E+01 -0.27159742258E+02 -0.15108268793E+03  0.15379391416E+03  0.00000000000E+00 0.  1.
         11    1    5    5    0    0  0.13576238158E+03  0.50483278182E+01  0.19152426398E+03  0.23481578643E+03  0.00000000000E+00 0.  1.
        -11    1    5    5    0    0  0.16519001747E+03  0.19061735613E+02  0.44802985244E+03  0.47789312645E+03  0.00000000000E+00 0. -1.
          3    1    6    6  503    0 -0.59723235346E+02 -0.26592644448E+02 -0.20694757505E+02  0.68573366310E+02  0.00000000000E+00 0. -1.
         -3    1    6    6    0  503 -0.12428799459E+03 -0.45962793281E+01 -0.19145567337E+03  0.22830660579E+03  0.00000000000E+00 0.  1.
<mgrwt>
<rscale>  0 0.16959615E+04</rscale>
<asrwt>0</asrwt>
<pdfrwt beam="1">  1        2 0.15244798E+00 0.16959615E+04</pdfrwt>
<pdfrwt beam="2">  1       -1 0.11164097E+00 0.16959615E+04</pdfrwt>
<totfact> 0.20433228E+01</totfact>
</mgrwt>
</event>
<event>
12    6  0.1457317E-007  0.1703521E+04  0.7818608E-02  0.8759359E-01
          2   -1    0    0  501    0  0.00000000000E+00  0.00000000000E+00  0.22938966698E+04  0.22938966698E+04  0.00000000000E+00 0. -1.
         -1   -1    0    0    0  501 -0.00000000000E+00 -0.00000000000E+00 -0.31627242487E+03  0.31627242487E+03  0.00000000000E+00 0.  1.
         24    2    1    2    0    0 -0.21495320898E+03 -0.54384199492E+03  0.99723568702E+03  0.11587968666E+04  0.79763181106E+02 0.  0.
        254    2    1    2    0    0  0.21495320898E+03  0.54384199492E+03  0.98038855791E+03  0.14513722281E+04  0.89629828879E+03 0.  0.
         23    2    4    4    0    0  0.21998694928E+03  0.76150884990E+03  0.57256116058E+03  0.98210273289E+03  0.91703375134E+02 0.  0.
         23    2    4    4    0    0 -0.50337403027E+01 -0.21766685498E+03  0.40782739733E+03  0.46926949520E+03  0.80538654153E+02 0.  0.
          4    1    3    3  502    0 -0.19333526368E+03 -0.44905471565E+03  0.77643847184E+03  0.91754311200E+03  0.00000000000E+00 0. -1.
         -3    1    3    3    0  502 -0.21617945296E+02 -0.94787279268E+02  0.22079721518E+03  0.24125375459E+03  0.00000000000E+00 0.  1.
         11    1    5    5    0    0  0.21045483083E+03  0.64796337640E+03  0.46072673928E+03  0.82244568286E+03  0.00000000000E+00 0. -1.
        -11    1    5    5    0    0  0.95321184533E+01  0.11354547350E+03  0.11183442130E+03  0.15965705002E+03  0.00000000000E+00 0.  1.
          2    1    6    6  503    0 -0.31251759199E+02 -0.17292459908E+03  0.34971923932E+03  0.39138617217E+03  0.00000000000E+00 0. -1.
         -2    1    6    6    0  503  0.26218018896E+02 -0.44742255897E+02  0.58108158011E+02  0.77883323022E+02  0.00000000000E+00 0.  1.
<mgrwt>
<rscale>  0 0.17035214E+04</rscale>
<asrwt>0</asrwt>
<pdfrwt beam="1">  1        2 0.35290717E+00 0.17035214E+04</pdfrwt>
<pdfrwt beam="2">  1       -1 0.48657297E-01 0.17035214E+04</pdfrwt>
<totfact> 0.20943758E+01</totfact>
</mgrwt>
</event>
<event>
12    6  0.1457317E-007  0.1170604E+04  0.7818608E-02  0.9138983E-01
         -1   -1    0    0    0  501 -0.00000000000E+00  0.00000000000E+00  0.30031859935E+03  0.30031859935E+03  0.00000000000E+00 0.  1.
          2   -1    0    0  501    0  0.00000000000E+00 -0.00000000000E+00 -0.11407164989E+04  0.11407164989E+04  0.00000000000E+00 0. -1.
         24    2    1    2    0    0 -0.94290663502E+02 -0.40548923559E-01 -0.42906980948E+03  0.44665305157E+03  0.80667937851E+02 0.  0.
        254    2    1    2    0    0  0.94290663502E+02  0.40548923559E-01 -0.41132809006E+03  0.99438204667E+03  0.90039664937E+03 0.  0.
         23    2    4    4    0    0 -0.22990682259E+03  0.26559070332E+03 -0.43232733530E+03  0.56516730586E+03  0.95454648917E+02 0.  0.
         23    2    4    4    0    0  0.32419748609E+03 -0.26555015440E+03  0.20999245249E+02  0.42921474081E+03  0.90351706905E+02 0.  0.
          2    1    3    3  502    0 -0.42816996887E+02 -0.36066243874E+02 -0.13886218302E+03  0.14972232646E+03  0.00000000000E+00 0. -1.
         -1    1    3    3    0  502 -0.51473666615E+02  0.36025694951E+02 -0.29020762647E+03  0.29693072510E+03  0.00000000000E+00 0.  1.
         11    1    5    5    0    0 -0.22532998976E+03  0.22974188244E+03 -0.41483385413E+03  0.52501625058E+03  0.00000000000E+00 0. -1.
        -11    1    5    5    0    0 -0.45768328257E+01  0.35848820876E+02 -0.17493481172E+02  0.40151055284E+02  0.00000000000E+00 0.  1.
          2    1    6    6  503    0  0.24935417100E+03 -0.23084629756E+03 -0.12837340329E+02  0.34004751580E+03  0.00000000000E+00 0. -1.
         -2    1    6    6    0  503  0.74843315088E+02 -0.34703856833E+02  0.33836585578E+02  0.89167225011E+02  0.00000000000E+00 0.  1.
<mgrwt>
<rscale>  0 0.11706039E+04</rscale>
<asrwt>0</asrwt>
<pdfrwt beam="1">  1        2 0.17549484E+00 0.11706039E+04</pdfrwt>
<pdfrwt beam="2">  1       -1 0.46202862E-01 0.11706039E+04</pdfrwt>
<totfact> 0.10800969E+02</totfact>
</mgrwt>
</event>
<event>
12    6  0.1457317E-007  0.1378624E+04  0.7818608E-02  0.8969439E-01
         -1   -1    0    0    0  501 -0.00000000000E+00  0.00000000000E+00  0.39290537248E+03  0.39290537248E+03  0.00000000000E+00 0.  1.
          2   -1    0    0  501    0  0.00000000000E+00 -0.00000000000E+00 -0.12093266963E+04  0.12093266963E+04  0.00000000000E+00 0. -1.
         24    2    1    2    0    0 -0.23231908249E+03 -0.29928199550E+03 -0.33015134901E+03  0.50860113592E+03  0.78315600581E+02 0.  0.
        254    2    1    2    0    0  0.23231908249E+03  0.29928199550E+03 -0.48626997486E+03  0.10936309329E+04  0.90334282531E+03 0.  0.
         23    2    4    4    0    0  0.23624113811E+02  0.46422360494E+03  0.61141130849E+02  0.47827761937E+03  0.94602268343E+02 0.  0.
         23    2    4    4    0    0  0.20869496867E+03 -0.16494160944E+03 -0.54741110571E+03  0.61535331354E+03  0.90782472711E+02 0.  0.
          2    1    3    3  502    0 -0.16434276077E+03 -0.19517096632E+03 -0.26638794012E+03  0.36886689164E+03  0.00000000000E+00 0. -1.
         -1    1    3    3    0  502 -0.67976321714E+02 -0.10411102918E+03 -0.63763408888E+02  0.13973424428E+03  0.00000000000E+00 0.  1.
         11    1    5    5    0    0 -0.17880174636E+01  0.28052533939E+03 -0.72397824914E+01  0.28062444209E+03  0.00000000000E+00 0.  1.
        -11    1    5    5    0    0  0.25412131275E+02  0.18369826554E+03  0.68380913341E+02  0.19765317728E+03  0.00000000000E+00 0. -1.
          2    1    6    6  503    0  0.18600858515E+03 -0.10539266603E+03 -0.45923933583E+03  0.50656448294E+03  0.00000000000E+00 0. -1.
         -2    1    6    6    0  503  0.22686383523E+02 -0.59548943413E+02 -0.88171769880E+02  0.10878883060E+03  0.00000000000E+00 0.  1.
<mgrwt>
<rscale>  0 0.13786239E+04</rscale>
<asrwt>0</asrwt>
<pdfrwt beam="1">  1        2 0.18605026E+00 0.13786239E+04</pdfrwt>
<pdfrwt beam="2">  1       -1 0.60446981E-01 0.13786239E+04</pdfrwt>
<totfact> 0.57678323E+01</totfact>
</mgrwt>
</event>
<event>
12    6  0.1552554E-007  0.1707617E+04  0.7818608E-02  0.8757032E-01
          2   -1    0    0  501    0  0.00000000000E+00  0.00000000000E+00  0.27241956351E+04  0.27241956351E+04  0.00000000000E+00 0. -1.
         -1   -1    0    0    0  501 -0.00000000000E+00 -0.00000000000E+00 -0.26759791510E+03  0.26759791510E+03  0.00000000000E+00 0.  1.
         24    2    1    2    0    0 -0.19420043765E+03 -0.12409081604E+02 -0.12906247497E+03  0.24694564127E+03  0.80356903933E+02 0.  0.
        254    2    1    2    0    0  0.19420043765E+03  0.12409081604E+02  0.25856601950E+04  0.27448479089E+04  0.90037969992E+03 0.  0.
         23    2    4    4    0    0  0.25442197098E+03 -0.29584545265E+03  0.53602361853E+03  0.66927730266E+03  0.91409611440E+02 0.  0.
         23    2    4    4    0    0 -0.60221533332E+02  0.30825453426E+03  0.20496365764E+04  0.20755706063E+04  0.91300356897E+02 0.  0.
          4    1    3    3  502    0 -0.28097389163E+02 -0.22627595625E+02  0.43765178657E+00  0.36078565667E+02  0.00000000000E+00 0. -1.
         -3    1    3    3    0  502 -0.16610304848E+03  0.10218514021E+02 -0.12950012675E+03  0.21086707560E+03  0.00000000000E+00 0.  1.
         11    1    5    5    0    0  0.17993234053E+03 -0.14339722223E+03  0.28488966126E+03  0.36619739159E+03  0.00000000000E+00 0.  1.
        -11    1    5    5    0    0  0.74489630450E+02 -0.15244823042E+03  0.25113395727E+03  0.30307991107E+03  0.00000000000E+00 0. -1.
          4    1    6    6  503    0 -0.47923708093E+02  0.66192115590E+02  0.64797865363E+03  0.65311133318E+03  0.00000000000E+00 0. -1.
         -4    1    6    6    0  503 -0.12297825239E+02  0.24206241867E+03  0.14016579228E+04  0.14224592731E+04  0.00000000000E+00 0.  1.
<mgrwt>
<rscale>  0 0.17076171E+04</rscale>
<asrwt>0</asrwt>
<pdfrwt beam="1">  1        2 0.41910700E+00 0.17076171E+04</pdfrwt>
<pdfrwt beam="2">  1       -1 0.41168912E-01 0.17076171E+04</pdfrwt>
<totfact> 0.16112636E+01</totfact>
</mgrwt>
</event>
<event>
12    6  0.1457317E-007  0.1356442E+04  0.7818608E-02  0.8985966E-01
          2   -1    0    0  501    0  0.00000000000E+00  0.00000000000E+00  0.73937982133E+03  0.73937982133E+03  0.00000000000E+00 0. -1.
         -1   -1    0    0    0  501 -0.00000000000E+00 -0.00000000000E+00 -0.62212109851E+03  0.62212109851E+03  0.00000000000E+00 0.  1.
         24    2    1    2    0    0  0.30296008304E+02  0.19452608751E+03  0.34876941461E+03  0.40825864557E+03  0.79226070655E+02 0.  0.
        254    2    1    2    0    0 -0.30296008304E+02 -0.19452608751E+03 -0.23151069179E+03  0.95324227427E+03  0.90350173558E+03 0.  0.
         23    2    4    4    0    0  0.40174782596E+03 -0.21704645747E+03 -0.21052990408E+03  0.51131167139E+03  0.92770169902E+02 0.  0.
         23    2    4    4    0    0 -0.43204383427E+03  0.22520369963E+02 -0.20980787708E+02  0.44193060288E+03  0.87712157177E+02 0.  0.
          4    1    3    3  502    0  0.50755412835E+02  0.73962923207E+02  0.15691869674E+03  0.18074872981E+03  0.00000000000E+00 0. -1.
         -3    1    3    3    0  502 -0.20459404531E+02  0.12056316430E+03  0.19185071787E+03  0.22750991576E+03  0.00000000000E+00 0.  1.
         11    1    5    5    0    0  0.40641723540E+02 -0.17823297488E+02 -0.54697760018E+02  0.70436244766E+02  0.00000000000E+00 0. -1.
        -11    1    5    5    0    0  0.36110610242E+03 -0.19922315998E+03 -0.15583214406E+03  0.44087542663E+03  0.00000000000E+00 0.  1.
          1    1    6    6  503    0 -0.27114979681E+03  0.37749234806E+01  0.28221090298E+02  0.27264059180E+03  0.00000000000E+00 0. -1.
         -1    1    6    6    0  503 -0.16089403746E+03  0.18745446483E+02 -0.49201878006E+02  0.16929001108E+03  0.00000000000E+00 0.  1.
<mgrwt>
<rscale>  0 0.13564421E+04</rscale>
<asrwt>0</asrwt>
<pdfrwt beam="1">  1        2 0.11375074E+00 0.13564421E+04</pdfrwt>
<pdfrwt beam="2">  1       -1 0.95710938E-01 0.13564421E+04</pdfrwt>
<totfact> 0.44867259E+01</totfact>
</mgrwt>
</event>
<event>
12    6  0.1457317E-007  0.1482325E+04  0.7818608E-02  0.8896292E-01
         -1   -1    0    0    0  501 -0.00000000000E+00  0.00000000000E+00  0.64411415446E+03  0.64411415446E+03  0.00000000000E+00 0.  1.
          2   -1    0    0  501    0  0.00000000000E+00 -0.00000000000E+00 -0.85283363888E+03  0.85283363888E+03  0.00000000000E+00 0. -1.
         24    2    1    2    0    0  0.17398297116E+03 -0.29632644174E+03  0.23808195101E+03  0.42555265677E+03  0.79577722729E+02 0.  0.
        254    2    1    2    0    0 -0.17398297116E+03  0.29632644174E+03 -0.44680143543E+03  0.10713951366E+04  0.91114026452E+03 0.  0.
         23    2    4    4    0    0 -0.53802423575E+03  0.12460611557E+03 -0.22886064547E+03  0.60473473121E+03  0.91269588554E+02 0.  0.
         23    2    4    4    0    0  0.36404126459E+03  0.17172032617E+03 -0.21794078996E+03  0.46666040536E+03  0.90883624779E+02 0.  0.
          2    1    3    3  502    0  0.95355265905E+01  0.37371394504E+01  0.41075040481E+01  0.11034675715E+02  0.00000000000E+00 0. -1.
         -1    1    3    3    0  502  0.16444744457E+03 -0.30006358119E+03  0.23397444697E+03  0.41451798105E+03  0.00000000000E+00 0.  1.
         11    1    5    5    0    0 -0.14784508896E+03  0.69242159479E+02 -0.92990850394E+02  0.18788279654E+03  0.00000000000E+00 0. -1.
        -11    1    5    5    0    0 -0.39017914679E+03  0.55363956089E+02 -0.13586979507E+03  0.41685193467E+03  0.00000000000E+00 0.  1.
          1    1    6    6  503    0  0.29518785658E+03  0.99753497840E+02 -0.14795359324E+03  0.34493027810E+03  0.00000000000E+00 0. -1.
         -1    1    6    6    0  503  0.68853408015E+02  0.71966828335E+02 -0.69987196725E+02  0.12173012725E+03  0.00000000000E+00 0.  1.
<mgrwt>
<rscale>  0 0.14823255E+04</rscale>
<asrwt>0</asrwt>
<pdfrwt beam="1">  1        2 0.13120517E+00 0.14823255E+04</pdfrwt>
<pdfrwt beam="2">  1       -1 0.99094486E-01 0.14823255E+04</pdfrwt>
<totfact> 0.33966215E+01</totfact>
</mgrwt>
</event>
<event>
12    6  0.1457317E-007  0.2469704E+04  0.7818608E-02  0.8413859E-01
         -1   -1    0    0    0  501 -0.00000000000E+00  0.00000000000E+00  0.83350178167E+03  0.83350178167E+03  0.00000000000E+00 0.  1.
          2   -1    0    0  501    0  0.00000000000E+00 -0.00000000000E+00 -0.18294615864E+04  0.18294615864E+04  0.00000000000E+00 0. -1.
         24    2    1    2    0    0  0.55980843217E+03  0.35374087675E+03  0.47732189936E+03  0.81985496776E+03  0.76209474040E+02 0.  0.
        254    2    1    2    0    0 -0.55980843217E+03 -0.35374087675E+03 -0.14732817040E+04  0.18431084003E+04  0.88767759182E+03 0.  0.
         23    2    4    4    0    0 -0.77222092627E+02  0.27983753465E+03 -0.35927745656E+03  0.47063258375E+03  0.90235473691E+02 0.  0.
         23    2    4    4    0    0 -0.48258633954E+03 -0.63357841140E+03 -0.11140042475E+04  0.13724758165E+04  0.91505327593E+02 0.  0.
          2    1    3    3  502    0  0.11156227080E+03  0.55111268349E+02  0.58131888918E+02  0.13734157664E+03  0.00000000000E+00 0. -1.
         -1    1    3    3    0  502  0.44824616137E+03  0.29862960840E+03  0.41919001044E+03  0.68251339112E+03  0.00000000000E+00 0.  1.
         11    1    5    5    0    0  0.14196959211E+02  0.71145000863E+02 -0.57870575333E+02  0.92801768776E+02  0.00000000000E+00 0.  1.
        -11    1    5    5    0    0 -0.91419051838E+02  0.20869253378E+03 -0.30140688122E+03  0.37783081497E+03  0.00000000000E+00 0. -1.
          3    1    6    6  503    0 -0.45263953458E+03 -0.62241525046E+03 -0.10648501608E+04  0.13138451801E+04  0.00000000000E+00 0. -1.
         -3    1    6    6    0  503 -0.29946804969E+02 -0.11163160941E+02 -0.49154086704E+02  0.58630636443E+02  0.00000000000E+00 0.  1.
<mgrwt>
<rscale>  0 0.24697040E+04</rscale>
<asrwt>0</asrwt>
<pdfrwt beam="1">  1        2 0.28145563E+00 0.24697040E+04</pdfrwt>
<pdfrwt beam="2">  1       -1 0.12823104E+00 0.24697040E+04</pdfrwt>
<totfact> 0.44397390E+00</totfact>
</mgrwt>
</event>
<event>
12    6  0.1457317E-007  0.2381480E+04  0.7818608E-02  0.8446470E-01
          2   -1    0    0  501    0  0.00000000000E+00  0.00000000000E+00  0.54171008668E+04  0.54171008668E+04  0.00000000000E+00 0. -1.
         -1   -1    0    0    0  501 -0.00000000000E+00 -0.00000000000E+00 -0.26173803060E+03  0.26173803060E+03  0.00000000000E+00 0.  1.
         24    2    1    2    0    0 -0.54375380317E+03 -0.27900430536E+03  0.27138483120E+03  0.67475151086E+03  0.90156940525E+02 0.  0.
        254    2    1    2    0    0  0.54375380317E+03  0.27900430536E+03  0.48839780050E+04  0.50040873866E+04  0.90229585941E+03 0.  0.
         23    2    4    4    0    0  0.47966357094E+03  0.57798173324E+03  0.37820438250E+04  0.38570331678E+04  0.93323835221E+02 0.  0.
         23    2    4    4    0    0  0.64090232236E+02 -0.29897742787E+03  0.11019341800E+04  0.11470542188E+04  0.89327394326E+02 0.  0.
          4    1    3    3  502    0 -0.12860031553E+03 -0.97808860404E+02  0.10239285766E+03  0.19128228258E+03  0.00000000000E+00 0. -1.
         -3    1    3    3    0  502 -0.41515348764E+03 -0.18119544496E+03  0.16899197354E+03  0.48346922828E+03  0.00000000000E+00 0.  1.
         11    1    5    5    0    0  0.24298687659E+02  0.31667407692E+02  0.33608304021E+03  0.33844506327E+03  0.00000000000E+00 0. -1.
        -11    1    5    5    0    0  0.45536488328E+03  0.54631432554E+03  0.34459607848E+04  0.35185881045E+04  0.00000000000E+00 0.  1.
          2    1    6    6  503    0  0.14382012551E+02 -0.19888332715E+03  0.58095915309E+03  0.61422712221E+03  0.00000000000E+00 0. -1.
         -2    1    6    6    0  503  0.49708219684E+02 -0.10009410073E+03  0.52097502695E+03  0.53282709654E+03  0.00000000000E+00 0.  1.
<mgrwt>
<rscale>  0 0.23814796E+04</rscale>
<asrwt>0</asrwt>
<pdfrwt beam="1">  1        2 0.83340005E+00 0.23814796E+04</pdfrwt>
<pdfrwt beam="2">  1       -1 0.40267393E-01 0.23814796E+04</pdfrwt>
<totfact> 0.52797519E-02</totfact>
</mgrwt>
</event>
<event>
12    6  0.1457317E-007  0.1402965E+04  0.7818608E-02  0.8951675E-01
          2   -1    0    0  501    0  0.00000000000E+00  0.00000000000E+00  0.12052336442E+04  0.12052336442E+04  0.00000000000E+00 0. -1.
         -1   -1    0    0    0  501 -0.00000000000E+00 -0.00000000000E+00 -0.40828415377E+03  0.40828415377E+03  0.00000000000E+00 0.  1.
         24    2    1    2    0    0 -0.90570948774E+02 -0.10206359059E+03  0.72054179791E+03  0.73768083051E+03  0.79827638499E+02 0.  0.
        254    2    1    2    0    0  0.90570948774E+02  0.10206359059E+03  0.76407692522E+02  0.87583696748E+03  0.86176109499E+03 0.  0.
         23    2    4    4    0    0 -0.22004099581E+03 -0.26409287746E+03  0.14186072026E+03  0.38305654846E+03  0.91895416667E+02 0.  0.
         23    2    4    4    0    0  0.31061194459E+03  0.36615646805E+03 -0.65453027741E+02  0.49278041901E+03  0.89432115649E+02 0.  0.
          4    1    3    3  502    0 -0.92062840643E+02 -0.52290183966E+02  0.54620200771E+03  0.55636899913E+03  0.00000000000E+00 0. -1.
         -3    1    3    3    0  502  0.14918918694E+01 -0.49773406625E+02  0.17433979020E+03  0.18131183137E+03  0.00000000000E+00 0.  1.
         11    1    5    5    0    0 -0.42825737571E+02 -0.18147537949E+02 -0.39338356769E+01  0.46678174721E+02  0.00000000000E+00 0. -1.
        -11    1    5    5    0    0 -0.17721525824E+03 -0.24594533951E+03  0.14579455594E+03  0.33637837374E+03  0.00000000000E+00 0.  1.
          3    1    6    6  503    0  0.97625496456E+02  0.69533938125E+02  0.86502200027E+01  0.12016876639E+03  0.00000000000E+00 0. -1.
         -3    1    6    6    0  503  0.21298644813E+03  0.29662252992E+03 -0.74103247744E+02  0.37261165262E+03  0.00000000000E+00 0.  1.
<mgrwt>
<rscale>  0 0.14029651E+04</rscale>
<asrwt>0</asrwt>
<pdfrwt beam="1">  1        2 0.18542056E+00 0.14029651E+04</pdfrwt>
<pdfrwt beam="2">  1       -1 0.62812947E-01 0.14029651E+04</pdfrwt>
<totfact> 0.53637008E+01</totfact>
</mgrwt>
</event>
<event>
12    6  0.1457317E-007  0.1133799E+04  0.7818608E-02  0.9172861E-01
         -1   -1    0    0    0  501 -0.00000000000E+00  0.00000000000E+00  0.29567024763E+03  0.29567024763E+03  0.00000000000E+00 0.  1.
          2   -1    0    0  501    0  0.00000000000E+00 -0.00000000000E+00 -0.10869368029E+04  0.10869368029E+04  0.00000000000E+00 0. -1.
         24    2    1    2    0    0 -0.19328923780E+02 -0.12676622898E+02 -0.38550668671E+03  0.39419744300E+03  0.79005787825E+02 0.  0.
        254    2    1    2    0    0  0.19328923780E+02  0.12676622898E+02 -0.40575986852E+03  0.98840960749E+03  0.90098733465E+03 0.  0.
         23    2    4    4    0    0  0.40246196973E+03  0.41421019365E+02  0.98185939092E+01  0.41486318057E+03  0.91234400793E+02 0.  0.
         23    2    4    4    0    0 -0.38313304594E+03 -0.28744396468E+02 -0.41557846243E+03  0.57354642691E+03  0.92913261511E+02 0.  0.
          2    1    3    3  502    0 -0.33433750543E+02 -0.23229528925E+02 -0.36456913856E+03  0.36683522660E+03  0.00000000000E+00 0. -1.
         -1    1    3    3    0  502  0.14104826763E+02  0.10552906027E+02 -0.20937548152E+02  0.27362216398E+02  0.00000000000E+00 0.  1.
         11    1    5    5    0    0  0.38444254318E+03  0.56881105360E+02  0.19744977399E+02  0.38912901882E+03  0.00000000000E+00 0. -1.
        -11    1    5    5    0    0  0.18019426541E+02 -0.15460085995E+02 -0.99263834893E+01  0.25734161751E+02  0.00000000000E+00 0.  1.
          2    1    6    6  503    0 -0.38076337181E+03 -0.29582582832E+02 -0.38301049581E+03  0.54088160850E+03  0.00000000000E+00 0. -1.
         -2    1    6    6    0  503 -0.23696741384E+01  0.83818636420E+00 -0.32567966621E+02  0.32664818409E+02  0.00000000000E+00 0.  1.
<mgrwt>
<rscale>  0 0.11337987E+04</rscale>
<asrwt>0</asrwt>
<pdfrwt beam="1">  1        2 0.16722105E+00 0.11337987E+04</pdfrwt>
<pdfrwt beam="2">  1       -1 0.45487731E-01 0.11337987E+04</pdfrwt>
<totfact> 0.12029759E+02</totfact>
</mgrwt>
</event>
<event>
12    6  0.1457317E-007  0.2284256E+04  0.7818608E-02  0.8484155E-01
         -1   -1    0    0    0  501 -0.00000000000E+00  0.00000000000E+00  0.40911636099E+03  0.40911636099E+03  0.00000000000E+00 0.  1.
          2   -1    0    0  501    0  0.00000000000E+00 -0.00000000000E+00 -0.31884741412E+04  0.31884741412E+04  0.00000000000E+00 0. -1.
         24    2    1    2    0    0  0.40386970092E+03  0.66821132129E+03 -0.28746152314E+03  0.83588201786E+03  0.80296421238E+02 0.  0.
        254    2    1    2    0    0 -0.40386970092E+03 -0.66821132129E+03 -0.24918962571E+04  0.27617084843E+04  0.89881571593E+03 0.  0.
         23    2    4    4    0    0 -0.30355998774E+03  0.11905484366E+03 -0.40864886614E+03  0.53047256909E+03  0.89914007860E+02 0.  0.
         23    2    4    4    0    0 -0.10030971318E+03 -0.78726616495E+03 -0.20832473910E+04  0.22312359153E+04  0.92972923946E+02 0.  0.
          2    1    3    3  502    0  0.12765572965E+03  0.20249591182E+03 -0.12786676555E+03  0.27138623647E+03  0.00000000000E+00 0. -1.
         -1    1    3    3    0  502  0.27621397127E+03  0.46571540948E+03 -0.15959475759E+03  0.56449578139E+03  0.00000000000E+00 0.  1.
         11    1    5    5    0    0 -0.28238874814E+03  0.13128497423E+03 -0.35984044844E+03  0.47588265136E+03  0.00000000000E+00 0.  1.
        -11    1    5    5    0    0 -0.21171239599E+02 -0.12230130565E+02 -0.48808417696E+02  0.54589917730E+02  0.00000000000E+00 0. -1.
          1    1    6    6  503    0 -0.67291961105E-01  0.24415933832E+01 -0.29319013604E+01  0.38160125844E+01  0.00000000000E+00 0. -1.
         -1    1    6    6    0  503 -0.10024242122E+03 -0.78970775834E+03 -0.20803154896E+04  0.22274199027E+04  0.00000000000E+00 0.  1.
<mgrwt>
<rscale>  0 0.22842565E+04</rscale>
<asrwt>0</asrwt>
<pdfrwt beam="1">  1        2 0.49053446E+00 0.22842565E+04</pdfrwt>
<pdfrwt beam="2">  1       -1 0.62940982E-01 0.22842565E+04</pdfrwt>
<totfact> 0.34938609E+00</totfact>
</mgrwt>
</event>
<event>
12    6  0.1457317E-007  0.1471530E+04  0.7818608E-02  0.8903609E-01
         -1   -1    0    0    0  501 -0.00000000000E+00  0.00000000000E+00  0.70403890713E+03  0.70403890713E+03  0.00000000000E+00 0.  1.
          2   -1    0    0  501    0  0.00000000000E+00 -0.00000000000E+00 -0.76892068879E+03  0.76892068879E+03  0.00000000000E+00 0. -1.
         24    2    1    2    0    0 -0.59319480812E+02 -0.99070245004E+02  0.41462781151E+03  0.43790962094E+03  0.80714929155E+02 0.  0.
        254    2    1    2    0    0  0.59319480812E+02  0.99070245004E+02 -0.47950959317E+03  0.10350499750E+04  0.90998092645E+03 0.  0.
         23    2    4    4    0    0 -0.34869824181E+03  0.27247152324E+03 -0.15224028195E+03  0.47679364134E+03  0.91235290115E+02 0.  0.
         23    2    4    4    0    0  0.40801772262E+03 -0.17340127823E+03 -0.32726931122E+03  0.55825633363E+03  0.89434147317E+02 0.  0.
          2    1    3    3  502    0 -0.16732277764E+02 -0.56297370671E+01  0.19120515331E+03  0.19201842024E+03  0.00000000000E+00 0. -1.
         -1    1    3    3    0  502 -0.42587203048E+02 -0.93440507937E+02  0.22342265820E+03  0.24589120070E+03  0.00000000000E+00 0.  1.
         11    1    5    5    0    0 -0.33113862686E+03  0.24253738689E+03 -0.16115479825E+03  0.44096263247E+03  0.00000000000E+00 0. -1.
        -11    1    5    5    0    0 -0.17559614945E+02  0.29934136348E+02  0.89145162955E+01  0.35831008871E+02  0.00000000000E+00 0.  1.
          4    1    6    6  503    0  0.35113208251E+03 -0.17939733974E+03 -0.27461642367E+03  0.48051152434E+03  0.00000000000E+00 0. -1.
         -4    1    6    6    0  503  0.56885640110E+02  0.59960615066E+01 -0.52652887546E+02  0.77744809288E+02  0.00000000000E+00 0.  1.
<mgrwt>
<rscale>  0 0.14715299E+04</rscale>
<asrwt>0</asrwt>
<pdfrwt beam="1">  1        2 0.11829549E+00 0.14715299E+04</pdfrwt>
<pdfrwt beam="2">  1       -1 0.10831368E+00 0.14715299E+04</pdfrwt>
<totfact> 0.31778433E+01</totfact>
</mgrwt>
</event>
<event>
12    6  0.1457317E-007  0.1493539E+04  0.7818608E-02  0.8888761E-01
         -3   -1    0    0    0  501 -0.00000000000E+00  0.00000000000E+00  0.59805157702E+03  0.59805157702E+03  0.00000000000E+00 0.  1.
          2   -1    0    0  501    0  0.00000000000E+00 -0.00000000000E+00 -0.93246914539E+03  0.93246914539E+03  0.00000000000E+00 0. -1.
         24    2    1    2    0    0 -0.63017031390E+02  0.33304148577E+02  0.37425241867E+03  0.38574778287E+03  0.60466243074E+02 0.  0.
        254    2    1    2    0    0  0.63017031390E+02 -0.33304148577E+02 -0.70866998704E+03  0.11447729395E+04  0.89622074291E+03 0.  0.
         23    2    4    4    0    0  0.39342995713E+03  0.23062122963E+03 -0.39867094452E+03  0.61270126090E+03  0.92146787137E+02 0.  0.
         23    2    4    4    0    0 -0.33041292574E+03 -0.26392537820E+03 -0.30999904252E+03  0.53207167864E+03  0.90396670840E+02 0.  0.
          4    1    3    3  502    0 -0.36346942304E+02 -0.14136477852E+02  0.15026256249E+03  0.15524103164E+03  0.00000000000E+00 0. -1.
         -3    1    3    3    0  502 -0.26670089086E+02  0.47440626429E+02  0.22398985619E+03  0.23050675123E+03  0.00000000000E+00 0.  1.
         11    1    5    5    0    0  0.32007074755E+03  0.18466586106E+03 -0.27013309206E+03  0.45773207349E+03  0.00000000000E+00 0. -1.
        -11    1    5    5    0    0  0.73359209581E+02  0.45955368571E+02 -0.12853785246E+03  0.15496918741E+03  0.00000000000E+00 0.  1.
          3    1    6    6  503    0 -0.24571219354E+03 -0.24184432518E+03 -0.25259205233E+03  0.42739431977E+03  0.00000000000E+00 0. -1.
         -3    1    6    6    0  503 -0.84700732198E+02 -0.22081053025E+02 -0.57406990188E+02  0.10467735887E+03  0.00000000000E+00 0.  1.
<mgrwt>
<rscale>  0 0.14935389E+04</rscale>
<asrwt>0</asrwt>
<pdfrwt beam="1">  1        2 0.14345679E+00 0.14935389E+04</pdfrwt>
<pdfrwt beam="2">  1       -3 0.92007936E-01 0.14935389E+04</pdfrwt>
<totfact> 0.18111249E+01</totfact>
</mgrwt>
</event>
<event>
12    6  0.1457317E-007  0.1872759E+04  0.7818608E-02  0.8668536E-01
         -3   -1    0    0    0  501 -0.00000000000E+00  0.00000000000E+00  0.28502871638E+03  0.28502871638E+03  0.00000000000E+00 0.  1.
          4   -1    0    0  501    0  0.00000000000E+00 -0.00000000000E+00 -0.30762052111E+04  0.30762052111E+04  0.00000000000E+00 0. -1.
         24    2    1    2    0    0 -0.87401310020E+02  0.71959775836E+02  0.19570751799E+03  0.23986325784E+03  0.80098386564E+02 0.  0.
        254    2    1    2    0    0  0.87401310020E+02 -0.71959775836E+02 -0.29868840127E+04  0.31213706696E+04  0.89925611123E+03 0.  0.
         23    2    4    4    0    0 -0.16281498133E+03  0.29104004924E+03 -0.60205277539E+03  0.69448948827E+03  0.92925112671E+02 0.  0.
         23    2    4    4    0    0  0.25021629135E+03 -0.36299982508E+03 -0.23848312373E+04  0.24268811814E+04  0.89191773723E+02 0.  0.
          4    1    3    3  502    0 -0.48385570115E+02  0.92197779099E+01  0.28131925731E+02  0.56723654197E+02  0.00000000000E+00 0. -1.
         -3    1    3    3    0  502 -0.39015739905E+02  0.62739997926E+02  0.16757559226E+03  0.18313960364E+03  0.00000000000E+00 0.  1.
         11    1    5    5    0    0 -0.11920313723E+03  0.18793541893E+03 -0.30916383242E+03  0.38093488274E+03  0.00000000000E+00 0. -1.
        -11    1    5    5    0    0 -0.43611844102E+02  0.10310463031E+03 -0.29288894297E+03  0.31355460553E+03  0.00000000000E+00 0.  1.
          3    1    6    6  503    0  0.24959578326E+03 -0.36719902551E+03 -0.23327672935E+04  0.23746444839E+04  0.00000000000E+00 0. -1.
         -3    1    6    6    0  503  0.62050809173E+00  0.41992004322E+01 -0.52063943792E+02  0.52236697423E+02  0.00000000000E+00 0.  1.
<mgrwt>
<rscale>  0 0.18727593E+04</rscale>
<asrwt>0</asrwt>
<pdfrwt beam="1">  1        4 0.47326233E+00 0.18727593E+04</pdfrwt>
<pdfrwt beam="2">  1       -3 0.43850572E-01 0.18727593E+04</pdfrwt>
<totfact> 0.22019250E-02</totfact>
</mgrwt>
</event>
<event>
12    6  0.1457317E-007  0.1542322E+04  0.7818608E-02  0.8856787E-01
         -1   -1    0    0    0  501 -0.00000000000E+00  0.00000000000E+00  0.35534278055E+03  0.35534278055E+03  0.00000000000E+00 0.  1.
          2   -1    0    0  501    0  0.00000000000E+00 -0.00000000000E+00 -0.16735645947E+04  0.16735645947E+04  0.00000000000E+00 0. -1.
         24    2    1    2    0    0  0.41059267566E+03 -0.13651616264E+02 -0.82608075381E+03  0.92555032578E+03  0.73900485774E+02 0.  0.
        254    2    1    2    0    0 -0.41059267566E+03  0.13651616264E+02 -0.49214106038E+03  0.11033570495E+04  0.89800960098E+03 0.  0.
         23    2    4    4    0    0  0.15131686688E+02  0.35522396907E+03 -0.43661233078E+01  0.36555249868E+03  0.84832364751E+02 0.  0.
         23    2    4    4    0    0 -0.42572436235E+03 -0.34157235281E+03 -0.48777493707E+03  0.73780455083E+03  0.92294426107E+02 0.  0.
          2    1    3    3  502    0  0.18590712301E+03 -0.34417497174E+02 -0.42946993892E+03  0.46924455344E+03  0.00000000000E+00 0. -1.
         -1    1    3    3    0  502  0.22468555265E+03  0.20765880910E+02 -0.39661081489E+03  0.45630577234E+03  0.00000000000E+00 0.  1.
         11    1    5    5    0    0  0.29749601127E+02  0.33713770760E+03 -0.17398570834E+02  0.33889464870E+03  0.00000000000E+00 0.  1.
        -11    1    5    5    0    0 -0.14617914440E+02  0.18086261476E+02  0.13032447527E+02  0.26657849975E+02  0.00000000000E+00 0. -1.
          1    1    6    6  503    0 -0.70589310171E+02 -0.10407140021E+03 -0.12532544784E+03  0.17753922082E+03  0.00000000000E+00 0. -1.
         -1    1    6    6    0  503 -0.35513505218E+03 -0.23750095260E+03 -0.36244948924E+03  0.56026533001E+03  0.00000000000E+00 0.  1.
<mgrwt>
<rscale>  0 0.15423218E+04</rscale>
<asrwt>0</asrwt>
<pdfrwt beam="1">  1        2 0.25747148E+00 0.15423218E+04</pdfrwt>
<pdfrwt beam="2">  1       -1 0.54668120E-01 0.15423218E+04</pdfrwt>
<totfact> 0.37630155E+01</totfact>
</mgrwt>
</event>
<event>
12    6  0.1457317E-007  0.1218896E+04  0.7818608E-02  0.9096476E-01
          2   -1    0    0  501    0  0.00000000000E+00  0.00000000000E+00  0.18214513470E+04  0.18214513470E+04  0.00000000000E+00 0. -1.
         -1   -1    0    0    0  501 -0.00000000000E+00 -0.00000000000E+00 -0.20391814320E+03  0.20391814320E+03  0.00000000000E+00 0.  1.
         24    2    1    2    0    0 -0.45952876338E+02 -0.24588630049E+03  0.51244393128E+03  0.57495539251E+03  0.73506333412E+02 0.  0.
        254    2    1    2    0    0  0.45952876338E+02  0.24588630049E+03  0.11050892726E+04  0.14504140977E+04  0.90548716997E+03 0.  0.
         23    2    4    4    0    0  0.70330676688E+02  0.13467819996E+03  0.12424942282E+04  0.12549814754E+04  0.90010971096E+02 0.  0.
         23    2    4    4    0    0 -0.24377800351E+02  0.11120810053E+03 -0.13740495562E+03  0.19543262234E+03  0.79701124658E+02 0.  0.
          4    1    3    3  502    0 -0.64277546466E+02 -0.17590269575E+03  0.39235837133E+03  0.43476252472E+03  0.00000000000E+00 0. -1.
         -3    1    3    3    0  502  0.18324670129E+02 -0.69983604746E+02  0.12008555995E+03  0.14019286778E+03  0.00000000000E+00 0.  1.
         11    1    5    5    0    0 -0.73212165888E+01  0.93510224347E+01  0.17513922265E+02  0.21160796441E+02  0.00000000000E+00 0. -1.
        -11    1    5    5    0    0  0.77651893277E+02  0.12532717753E+03  0.12249803059E+04  0.12338206790E+04  0.00000000000E+00 0.  1.
          3    1    6    6  503    0  0.60376878871E+00 -0.98960145522E+01 -0.30169979303E+02  0.31757255736E+02  0.00000000000E+00 0. -1.
         -3    1    6    6    0  503 -0.24981569139E+02  0.12110411508E+03 -0.10723497631E+03  0.16367536660E+03  0.00000000000E+00 0.  1.
<mgrwt>
<rscale>  0 0.12188962E+04</rscale>
<asrwt>0</asrwt>
<pdfrwt beam="1">  1        2 0.28022327E+00 0.12188962E+04</pdfrwt>
<pdfrwt beam="2">  1       -1 0.31372023E-01 0.12188962E+04</pdfrwt>
<totfact> 0.88914220E+01</totfact>
</mgrwt>
</event>
<event>
12    6  0.1457317E-007  0.1738599E+04  0.7818608E-02  0.8739651E-01
         -1   -1    0    0    0  501 -0.00000000000E+00  0.00000000000E+00  0.62561800203E+03  0.62561800203E+03  0.00000000000E+00 0.  1.
          2   -1    0    0  501    0  0.00000000000E+00 -0.00000000000E+00 -0.12078955510E+04  0.12078955510E+04  0.00000000000E+00 0. -1.
         24    2    1    2    0    0  0.74467458995E+02  0.55189367618E+03  0.10119753382E+03  0.57393331346E+03  0.95007763881E+02 0.  0.
        254    2    1    2    0    0 -0.74467458995E+02 -0.55189367618E+03 -0.68347508282E+03  0.12595802396E+04  0.89959555296E+03 0.  0.
         23    2    4    4    0    0 -0.64004236183E+02 -0.72884356782E+03 -0.24185363990E+03  0.77533412359E+03  0.85675734403E+02 0.  0.
         23    2    4    4    0    0 -0.10463222812E+02  0.17694989164E+03 -0.44162144292E+03  0.48424611601E+03  0.89688677356E+02 0.  0.
          2    1    3    3  502    0 -0.47146199203E+00  0.40494973425E+02 -0.16685608494E+02  0.43800395888E+02  0.00000000000E+00 0. -1.
         -1    1    3    3    0  502  0.74938920987E+02  0.51139870275E+03  0.11788314231E+03  0.53013291757E+03  0.00000000000E+00 0.  1.
         11    1    5    5    0    0 -0.16602793260E+02 -0.25378385899E+03 -0.41993668901E+02  0.25776999060E+03  0.00000000000E+00 0. -1.
        -11    1    5    5    0    0 -0.47401442922E+02 -0.47505970884E+03 -0.19985997100E+03  0.51756413299E+03  0.00000000000E+00 0.  1.
          1    1    6    6  503    0  0.19395351665E+02  0.42298223937E+02 -0.20631616168E+03  0.21149864771E+03  0.00000000000E+00 0. -1.
         -1    1    6    6    0  503 -0.29858574477E+02  0.13465166771E+03 -0.23530528124E+03  0.27274746830E+03  0.00000000000E+00 0.  1.
<mgrwt>
<rscale>  0 0.17385985E+04</rscale>
<asrwt>0</asrwt>
<pdfrwt beam="1">  1        2 0.18583008E+00 0.17385985E+04</pdfrwt>
<pdfrwt beam="2">  1       -1 0.96248924E-01 0.17385985E+04</pdfrwt>
<totfact> 0.21074066E+01</totfact>
</mgrwt>
</event>
<event>
12    6  0.1457317E-007  0.2245620E+04  0.7818608E-02  0.8499677E-01
         -1   -1    0    0    0  501 -0.00000000000E+00  0.00000000000E+00  0.62006202329E+03  0.62006202329E+03  0.00000000000E+00 0.  1.
          2   -1    0    0  501    0  0.00000000000E+00 -0.00000000000E+00 -0.20331866884E+04  0.20331866884E+04  0.00000000000E+00 0. -1.
         24    2    1    2    0    0 -0.35509224309E+03  0.84021960979E+03 -0.86364650615E+03  0.12586483472E+04  0.79062509732E+02 0.  0.
        254    2    1    2    0    0  0.35509224309E+03 -0.84021960979E+03 -0.54947815896E+03  0.13946003645E+04  0.90051342899E+03 0.  0.
         23    2    4    4    0    0  0.13142204743E+03 -0.90168456154E+03 -0.64798405545E+03  0.11222617043E+04  0.96338953048E+02 0.  0.
         23    2    4    4    0    0  0.22367019566E+03  0.61464951743E+02  0.98505896485E+02  0.27233866018E+03  0.10324067739E+03 0.  0.
          4    1    3    3  502    0 -0.33624346174E+03  0.81430325385E+03 -0.81350577625E+03  0.11991418193E+04  0.00000000000E+00 0. -1.
         -3    1    3    3    0  502 -0.18848781347E+02  0.25916355941E+02 -0.50140729895E+02  0.59506527860E+02  0.00000000000E+00 0.  1.
         11    1    5    5    0    0  0.54273079192E+02 -0.17576736744E+03 -0.99295569433E+02  0.20904388221E+03  0.00000000000E+00 0. -1.
        -11    1    5    5    0    0  0.77148968236E+02 -0.72591719410E+03 -0.54868848601E+03  0.91321782214E+03  0.00000000000E+00 0.  1.
          3    1    6    6  503    0 -0.91834696848E+01  0.47667661262E+01  0.15653657852E+02  0.18764199394E+02  0.00000000000E+00 0. -1.
         -3    1    6    6    0  503  0.23285366535E+03  0.56698185617E+02  0.82852238633E+02  0.25357446079E+03  0.00000000000E+00 0.  1.
<mgrwt>
<rscale>  0 0.22456196E+04</rscale>
<asrwt>0</asrwt>
<pdfrwt beam="1">  1        2 0.31279795E+00 0.22456196E+04</pdfrwt>
<pdfrwt beam="2">  1       -1 0.95394157E-01 0.22456196E+04</pdfrwt>
<totfact> 0.70392123E+00</totfact>
</mgrwt>
</event>
<event>
12    6  0.1457317E-007  0.1411667E+04  0.7818608E-02  0.8945416E-01
         -1   -1    0    0    0  501 -0.00000000000E+00  0.00000000000E+00  0.53169688672E+03  0.53169688672E+03  0.00000000000E+00 0.  1.
          2   -1    0    0  501    0  0.00000000000E+00 -0.00000000000E+00 -0.93700213422E+03  0.93700213422E+03  0.00000000000E+00 0. -1.
         24    2    1    2    0    0  0.36077274537E+03  0.14046482674E+03 -0.16695970519E+03  0.42936788508E+03  0.81202809207E+02 0.  0.
        254    2    1    2    0    0 -0.36077274537E+03 -0.14046482674E+03 -0.23834554231E+03  0.10393311359E+04  0.93461931880E+03 0.  0.
         23    2    4    4    0    0 -0.52916183690E+03 -0.20786150714E+03 -0.46099274834E+03  0.73796237870E+03  0.94103679895E+02 0.  0.
         23    2    4    4    0    0  0.16838909153E+03  0.67396680396E+02  0.22264720603E+03  0.30136875716E+03  0.91401043579E+02 0.  0.
          2    1    3    3  502    0  0.61829484655E+02  0.13545951069E+02  0.18964151283E+01  0.63324358295E+02  0.00000000000E+00 0. -1.
         -1    1    3    3    0  502  0.29894326071E+03  0.12691887567E+03 -0.16885612032E+03  0.36604352678E+03  0.00000000000E+00 0.  1.
         11    1    5    5    0    0 -0.14406199490E+03 -0.13461083847E+02 -0.10777521039E+03  0.18041772398E+03  0.00000000000E+00 0. -1.
        -11    1    5    5    0    0 -0.38509984200E+03 -0.19440042329E+03 -0.35321753795E+03  0.55754465471E+03  0.00000000000E+00 0.  1.
          1    1    6    6  503    0  0.13058782629E+03  0.32494628166E+02  0.20824407215E+03  0.24794086960E+03  0.00000000000E+00 0. -1.
         -1    1    6    6    0  503  0.37801265238E+02  0.34902052230E+02  0.14403133881E+02  0.53427887560E+02  0.00000000000E+00 0.  1.
<mgrwt>
<rscale>  0 0.14116673E+04</rscale>
<asrwt>0</asrwt>
<pdfrwt beam="1">  1        2 0.14415417E+00 0.14116673E+04</pdfrwt>
<pdfrwt beam="2">  1       -1 0.81799522E-01 0.14116673E+04</pdfrwt>
<totfact> 0.45723918E+01</totfact>
</mgrwt>
</event>
<event>
12    6  0.1457317E-007  0.1373466E+04  0.7818608E-02  0.8973252E-01
          2   -1    0    0  501    0  0.00000000000E+00  0.00000000000E+00  0.61813645475E+03  0.61813645475E+03  0.00000000000E+00 0. -1.
         -1   -1    0    0    0  501 -0.00000000000E+00 -0.00000000000E+00 -0.76294201207E+03  0.76294201207E+03  0.00000000000E+00 0.  1.
         24    2    1    2    0    0  0.29879726844E+03  0.74166467535E+02 -0.32473366389E+03  0.45442991332E+03  0.79209349950E+02 0.  0.
        254    2    1    2    0    0 -0.29879726844E+03 -0.74166467535E+02  0.17992810658E+03  0.92664855350E+03  0.85529114670E+03 0.  0.
         23    2    4    4    0    0 -0.32067834617E+03 -0.18212550336E+03  0.46921789292E+03  0.60358989389E+03  0.90283045428E+02 0.  0.
         23    2    4    4    0    0  0.21881077730E+02  0.10795903583E+03 -0.28928978634E+03  0.32305865961E+03  0.92435826867E+02 0.  0.
          2    1    3    3  502    0  0.59647699388E+02 -0.15865608318E+02 -0.74939168262E+02  0.97084728507E+02  0.00000000000E+00 0. -1.
         -1    1    3    3    0  502  0.23914956906E+03  0.90032075853E+02 -0.24979449563E+03  0.35734518481E+03  0.00000000000E+00 0.  1.
         11    1    5    5    0    0 -0.19901428274E+03 -0.15224999499E+03  0.35159541335E+03  0.43174770456E+03  0.00000000000E+00 0.  1.
        -11    1    5    5    0    0 -0.12166406344E+03 -0.29875508373E+02  0.11762247957E+03  0.17184218932E+03  0.00000000000E+00 0. -1.
          3    1    6    6  503    0  0.18621755690E+02  0.75862858694E+00 -0.12810221432E+03  0.12945085019E+03  0.00000000000E+00 0. -1.
         -3    1    6    6    0  503  0.32593220393E+01  0.10720040724E+03 -0.16118757202E+03  0.19360780941E+03  0.00000000000E+00 0.  1.
<mgrwt>
<rscale>  0 0.13734661E+04</rscale>
<asrwt>0</asrwt>
<pdfrwt beam="1">  1        2 0.95097916E-01 0.13734661E+04</pdfrwt>
<pdfrwt beam="2">  1       -1 0.11737569E+00 0.13734661E+04</pdfrwt>
<totfact> 0.34837109E+01</totfact>
</mgrwt>
</event>
<event>
12    6  0.1457317E-007  0.1480849E+04  0.7818608E-02  0.8897289E-01
         -1   -1    0    0    0  501 -0.00000000000E+00  0.00000000000E+00  0.35294342320E+03  0.35294342320E+03  0.00000000000E+00 0.  1.
          2   -1    0    0  501    0  0.00000000000E+00 -0.00000000000E+00 -0.15533041465E+04  0.15533041465E+04  0.00000000000E+00 0. -1.
         24    2    1    2    0    0  0.32204310611E+03 -0.34239212792E+03 -0.39092699410E+03  0.61669255455E+03  0.80880533289E+02 0.  0.
        254    2    1    2    0    0 -0.32204310611E+03  0.34239212792E+03 -0.80943372919E+03  0.12895550152E+04  0.88703159115E+03 0.  0.
         23    2    4    4    0    0 -0.30741433446E+03  0.55170627389E+03 -0.25023807011E+03  0.68557051545E+03  0.92219597886E+02 0.  0.
         23    2    4    4    0    0 -0.14628771648E+02 -0.20931414598E+03 -0.55919565908E+03  0.60398449971E+03  0.89839178989E+02 0.  0.
          2    1    3    3  502    0  0.88098132792E+01  0.20328856094E+01 -0.18164930817E+02  0.20290641821E+02  0.00000000000E+00 0. -1.
         -1    1    3    3    0  502  0.31323329283E+03 -0.34442501353E+03 -0.37276206328E+03  0.59640191272E+03  0.00000000000E+00 0.  1.
         11    1    5    5    0    0 -0.49991888579E+02  0.10861462712E+03 -0.11114905679E+02  0.12008275179E+03  0.00000000000E+00 0. -1.
        -11    1    5    5    0    0 -0.25742244588E+03  0.44309164677E+03 -0.23912316443E+03  0.56548776366E+03  0.00000000000E+00 0.  1.
          2    1    6    6  503    0 -0.33409818230E+02 -0.18045046535E+03 -0.52188553704E+03  0.55321162332E+03  0.00000000000E+00 0. -1.
         -2    1    6    6    0  503  0.18781046582E+02 -0.28863680626E+02 -0.37310122039E+02  0.50772876387E+02  0.00000000000E+00 0.  1.
<mgrwt>
<rscale>  0 0.14808491E+04</rscale>
<asrwt>0</asrwt>
<pdfrwt beam="1">  1        2 0.23896987E+00 0.14808491E+04</pdfrwt>
<pdfrwt beam="2">  1       -1 0.54298988E-01 0.14808491E+04</pdfrwt>
<totfact> 0.44728043E+01</totfact>
</mgrwt>
</event>
<event>
12    6  0.1457317E-007  0.2654272E+04  0.7818608E-02  0.8349996E-01
          2   -1    0    0  501    0  0.00000000000E+00  0.00000000000E+00  0.63184518376E+03  0.63184518376E+03  0.00000000000E+00 0. -1.
         -3   -1    0    0    0  501 -0.00000000000E+00 -0.00000000000E+00 -0.27875350457E+04  0.27875350457E+04  0.00000000000E+00 0.  1.
         24    2    1    2    0    0 -0.68890686130E+03  0.75133570525E+03 -0.20666623970E+03  0.10434315232E+04  0.83309083279E+02 0.  0.
        254    2    1    2    0    0  0.68890686130E+03 -0.75133570525E+03 -0.19490236223E+04  0.23759487063E+04  0.89852165773E+03 0.  0.
         23    2    4    4    0    0  0.43062543350E+03  0.40617752174E+02 -0.10886495137E+04  0.11748534698E+04  0.89637302428E+02 0.  0.
         23    2    4    4    0    0  0.25828142780E+03 -0.79195345742E+03 -0.86037410857E+03  0.12010952366E+04  0.92122667777E+02 0.  0.
          2    1    3    3  502    0 -0.57444361030E+03  0.62046761654E+03 -0.20274968745E+03  0.86952455994E+03  0.00000000000E+00 0. -1.
         -1    1    3    3    0  502 -0.11446325100E+03  0.13086808871E+03 -0.39165522570E+01  0.17390696321E+03  0.00000000000E+00 0.  1.
         11    1    5    5    0    0  0.33523136835E+02 -0.86027030300E+01 -0.15939385644E+03  0.16310796631E+03  0.00000000000E+00 0.  1.
        -11    1    5    5    0    0  0.39710229667E+03  0.49220455204E+02 -0.92925565725E+03  0.10117455035E+04  0.00000000000E+00 0. -1.
          3    1    6    6  503    0  0.22795855947E+03 -0.69264320622E+03 -0.70538677879E+03  0.10145394145E+04  0.00000000000E+00 0. -1.
         -3    1    6    6    0  503  0.30322868323E+02 -0.99310251196E+02 -0.15498732978E+03  0.18655582201E+03  0.00000000000E+00 0.  1.
<mgrwt>
<rscale>  0 0.26542725E+04</rscale>
<asrwt>0</asrwt>
<pdfrwt beam="1">  1        2 0.97206954E-01 0.26542725E+04</pdfrwt>
<pdfrwt beam="2">  1       -3 0.42885153E+00 0.26542725E+04</pdfrwt>
<totfact> 0.18701692E-01</totfact>
</mgrwt>
</event>
<event>
12    6  0.1457317E-007  0.1243388E+04  0.7818608E-02  0.9075705E-01
         -1   -1    0    0    0  501 -0.00000000000E+00  0.00000000000E+00  0.77674690358E+03  0.77674690358E+03  0.00000000000E+00 0.  1.
          2   -1    0    0  501    0  0.00000000000E+00 -0.00000000000E+00 -0.49759239427E+03  0.49759239427E+03  0.00000000000E+00 0. -1.
         24    2    1    2    0    0  0.12468464053E+03 -0.22424335913E+03  0.23520447046E+03  0.35705785955E+03  0.79610479498E+02 0.  0.
        254    2    1    2    0    0 -0.12468464053E+03  0.22424335913E+03  0.43950038854E+02  0.91728143830E+03  0.87956937613E+03 0.  0.
         23    2    4    4    0    0 -0.85418254684E+02 -0.10114579430E+03 -0.35758428999E+03  0.39120802462E+03  0.87466817359E+02 0.  0.
         23    2    4    4    0    0 -0.39266385845E+02  0.32538915343E+03  0.40153432885E+03  0.52607341368E+03  0.90019270746E+02 0.  0.
          2    1    3    3  502    0  0.78359529192E+01  0.62315818770E+01  0.11759269801E+02  0.15443937228E+02  0.00000000000E+00 0. -1.
         -1    1    3    3    0  502  0.11684868761E+03 -0.23047494101E+03  0.22344520066E+03  0.34161392232E+03  0.00000000000E+00 0.  1.
         11    1    5    5    0    0  0.92971989159E+01 -0.40238183344E+02 -0.58348002158E+02  0.71484534428E+02  0.00000000000E+00 0. -1.
        -11    1    5    5    0    0 -0.94715453600E+02 -0.60907610956E+02 -0.29923628784E+03  0.31972349019E+03  0.00000000000E+00 0.  1.
          3    1    6    6  503    0 -0.60176014684E+02  0.19498259622E+03  0.20469672293E+03  0.28903306723E+03  0.00000000000E+00 0. -1.
         -3    1    6    6    0  503  0.20909628838E+02  0.13040655721E+03  0.19683760592E+03  0.23704034645E+03  0.00000000000E+00 0.  1.
<mgrwt>
<rscale>  0 0.12433879E+04</rscale>
<asrwt>0</asrwt>
<pdfrwt beam="1">  1        2 0.76552676E-01 0.12433879E+04</pdfrwt>
<pdfrwt beam="2">  1       -1 0.11949952E+00 0.12433879E+04</pdfrwt>
<totfact> 0.43600257E+01</totfact>
</mgrwt>
</event>
<event>
12    6  0.1457317E-007  0.1484126E+04  0.7818608E-02  0.8895078E-01
          2   -1    0    0  501    0  0.00000000000E+00  0.00000000000E+00  0.20694432463E+04  0.20694432463E+04  0.00000000000E+00 0. -1.
         -1   -1    0    0    0  501 -0.00000000000E+00 -0.00000000000E+00 -0.26608954243E+03  0.26608954243E+03  0.00000000000E+00 0.  1.
         24    2    1    2    0    0  0.44079833687E+03  0.14679415420E+03  0.55714631629E+03  0.72981768951E+03  0.79813186097E+02 0.  0.
        254    2    1    2    0    0 -0.44079833687E+03 -0.14679415420E+03  0.12462073876E+04  0.16057150992E+04  0.89968685079E+03 0.  0.
         23    2    4    4    0    0 -0.43218351771E+03 -0.39792576922E+03  0.39470700302E+03  0.71335316184E+03  0.89171769512E+02 0.  0.
         23    2    4    4    0    0 -0.86148191550E+01  0.25113161502E+03  0.85150038453E+03  0.89236193735E+03  0.90086731551E+02 0.  0.
          4    1    3    3  502    0  0.19157246574E+03  0.47968258945E+02  0.18087234638E+03  0.26779800070E+03  0.00000000000E+00 0. -1.
         -3    1    3    3    0  502  0.24922587112E+03  0.98825895258E+02  0.37627396991E+03  0.46201968881E+03  0.00000000000E+00 0.  1.
         11    1    5    5    0    0 -0.46208009127E+02 -0.20882780653E+02  0.59322532105E+02  0.78041229171E+02  0.00000000000E+00 0. -1.
        -11    1    5    5    0    0 -0.38597550858E+03 -0.37704298857E+03  0.33538447092E+03  0.63531193267E+03  0.00000000000E+00 0.  1.
          2    1    6    6  503    0  0.10000753347E+02  0.15529800920E+03  0.37579285435E+03  0.40674040384E+03  0.00000000000E+00 0. -1.
         -2    1    6    6    0  503 -0.18615572502E+02  0.95833605817E+02  0.47570753018E+03  0.48562153351E+03  0.00000000000E+00 0.  1.
<mgrwt>
<rscale>  0 0.14841256E+04</rscale>
<asrwt>0</asrwt>
<pdfrwt beam="1">  1        2 0.31837587E+00 0.14841256E+04</pdfrwt>
<pdfrwt beam="2">  1       -1 0.40936854E-01 0.14841256E+04</pdfrwt>
<totfact> 0.39332792E+01</totfact>
</mgrwt>
</event>
<event>
12    6  0.1457317E-007  0.4665333E+04  0.7818608E-02  0.7882314E-01
          2   -1    0    0  501    0  0.00000000000E+00  0.00000000000E+00  0.30890394022E+04  0.30890394022E+04  0.00000000000E+00 0. -1.
         -1   -1    0    0    0  501 -0.00000000000E+00 -0.00000000000E+00 -0.17614968988E+04  0.17614968988E+04  0.00000000000E+00 0.  1.
         24    2    1    2    0    0  0.83520973693E+03 -0.19776146575E+04  0.13141379519E+04  0.25183435322E+04  0.80997233482E+02 0.  0.
        254    2    1    2    0    0 -0.83520973693E+03  0.19776146575E+04  0.13404551447E+02  0.23321927688E+04  0.91126746384E+03 0.  0.
         23    2    4    4    0    0 -0.69954284653E+03  0.14658692406E+04  0.39389713363E+03  0.16738313943E+04  0.91781043560E+02 0.  0.
         23    2    4    4    0    0 -0.13566689040E+03  0.51174541685E+03 -0.38049258218E+03  0.65836137448E+03  0.91521677690E+02 0.  0.
          4    1    3    3  502    0  0.61483373478E+03 -0.14409643520E+04  0.91696773878E+03  0.18152764580E+04  0.00000000000E+00 0. -1.
         -3    1    3    3    0  502  0.22037600214E+03 -0.53665030546E+03  0.39717021308E+03  0.70306707421E+03  0.00000000000E+00 0.  1.
         11    1    5    5    0    0 -0.48603133475E+03  0.95116997605E+03  0.22528206791E+03  0.10916514058E+04  0.00000000000E+00 0.  1.
        -11    1    5    5    0    0 -0.21351151178E+03  0.51469926455E+03  0.16861506572E+03  0.58217998847E+03  0.00000000000E+00 0. -1.
          4    1    6    6  503    0  0.31931872343E+01  0.13250811513E+03 -0.78179109473E+02  0.15388492511E+03  0.00000000000E+00 0. -1.
         -4    1    6    6    0  503 -0.13886007764E+03  0.37923730173E+03 -0.30231347271E+03  0.50447644936E+03  0.00000000000E+00 0.  1.
<mgrwt>
<rscale>  0 0.46653331E+04</rscale>
<asrwt>0</asrwt>
<pdfrwt beam="1">  1        2 0.47523683E+00 0.46653331E+04</pdfrwt>
<pdfrwt beam="2">  1       -1 0.27099952E+00 0.46653331E+04</pdfrwt>
<totfact> 0.66076837E-02</totfact>
</mgrwt>
</event>
<event>
12    6  0.1457317E-007  0.1500293E+04  0.7818608E-02  0.8884258E-01
         -1   -1    0    0    0  501 -0.00000000000E+00  0.00000000000E+00  0.36195202199E+03  0.36195202199E+03  0.00000000000E+00 0.  1.
          2   -1    0    0  501    0  0.00000000000E+00 -0.00000000000E+00 -0.15546808570E+04  0.15546808570E+04  0.00000000000E+00 0. -1.
         24    2    1    2    0    0  0.30487704186E+02  0.16310668493E+03 -0.95461464128E+03  0.97220792251E+03  0.79786217259E+02 0.  0.
        254    2    1    2    0    0 -0.30487704186E+02 -0.16310668493E+03 -0.23811419372E+03  0.94442495647E+03  0.89872511837E+03 0.  0.
         23    2    4    4    0    0  0.12025862460E+03 -0.24056305181E+03  0.27581816995E+03  0.39582805682E+03  0.90947616810E+02 0.  0.
         23    2    4    4    0    0 -0.15074632878E+03  0.77456366880E+02 -0.51393236366E+03  0.54859689966E+03  0.90045207987E+02 0.  0.
          2    1    3    3  502    0  0.42550611012E+02  0.13121018355E+03 -0.87183373555E+03  0.88267815720E+03  0.00000000000E+00 0. -1.
         -1    1    3    3    0  502 -0.12062906826E+02  0.31896501385E+02 -0.82780905735E+02  0.89529765307E+02  0.00000000000E+00 0.  1.
         11    1    5    5    0    0  0.57795997974E+02 -0.57972445422E+02  0.39992773774E+02  0.91107649317E+02  0.00000000000E+00 0.  1.
        -11    1    5    5    0    0  0.62462626624E+02 -0.18259060639E+03  0.23582539617E+03  0.30472040750E+03  0.00000000000E+00 0. -1.
          1    1    6    6  503    0 -0.14450880663E+03  0.34781405487E+02 -0.38897862784E+03  0.41640955113E+03  0.00000000000E+00 0. -1.
         -1    1    6    6    0  503 -0.62375221495E+01  0.42674961393E+02 -0.12495373583E+03  0.13218734852E+03  0.00000000000E+00 0.  1.
<mgrwt>
<rscale>  0 0.15002931E+04</rscale>
<asrwt>0</asrwt>
<pdfrwt beam="1">  1        2 0.23918167E+00 0.15002931E+04</pdfrwt>
<pdfrwt beam="2">  1       -1 0.55684928E-01 0.15002931E+04</pdfrwt>
<totfact> 0.42452739E+01</totfact>
</mgrwt>
</event>
<event>
12    6  0.1457317E-007  0.3416419E+04  0.7818608E-02  0.8133888E-01
          2   -1    0    0  501    0  0.00000000000E+00  0.00000000000E+00  0.27820188694E+04  0.27820188694E+04  0.00000000000E+00 0. -1.
         -1   -1    0    0    0  501 -0.00000000000E+00 -0.00000000000E+00 -0.10488710794E+04  0.10488710794E+04  0.00000000000E+00 0.  1.
         24    2    1    2    0    0 -0.15571762162E+04 -0.13167698837E+03  0.11347236836E+04  0.19328829145E+04  0.79384668825E+02 0.  0.
        254    2    1    2    0    0  0.15571762162E+04  0.13167698837E+03  0.59842410641E+03  0.18980070343E+04  0.89564652262E+03 0.  0.
         23    2    4    4    0    0 -0.65397712249E+02 -0.80811711005E+02 -0.28846892394E+02  0.14307691712E+03  0.93975888443E+02 0.  0.
         23    2    4    4    0    0  0.16225739284E+04  0.21248869938E+03  0.62727099881E+03  0.17549301171E+04  0.91723549477E+02 0.  0.
          4    1    3    3  502    0 -0.11732548969E+04 -0.13121347902E+03  0.84107349423E+03  0.14495339433E+04  0.00000000000E+00 0. -1.
         -3    1    3    3    0  502 -0.38392131933E+03 -0.46350934762E+00  0.29365018936E+03  0.48334897123E+03  0.00000000000E+00 0.  1.
         11    1    5    5    0    0 -0.44129589943E+02 -0.87724231322E+02 -0.51806133785E+02  0.11102628953E+03  0.00000000000E+00 0.  1.
        -11    1    5    5    0    0 -0.21268122306E+02  0.69125203165E+01  0.22959241390E+02  0.32050627588E+02  0.00000000000E+00 0. -1.
          2    1    6    6  503    0  0.33057733788E+03  0.77483309788E+01  0.11533250146E+03  0.35020422448E+03  0.00000000000E+00 0. -1.
         -2    1    6    6    0  503  0.12919965906E+04  0.20474036840E+03  0.51193849735E+03  0.14047258927E+04  0.00000000000E+00 0.  1.
<mgrwt>
<rscale>  0 0.34164187E+04</rscale>
<asrwt>0</asrwt>
<pdfrwt beam="1">  1        2 0.42800290E+00 0.34164187E+04</pdfrwt>
<pdfrwt beam="2">  1       -1 0.16136478E+00 0.34164187E+04</pdfrwt>
<totfact> 0.63562808E-01</totfact>
</mgrwt>
</event>
<event>
12    6  0.1457317E-007  0.2037312E+04  0.7818608E-02  0.8589372E-01
          2   -1    0    0  501    0  0.00000000000E+00  0.00000000000E+00  0.36864828131E+04  0.36864828131E+04  0.00000000000E+00 0. -1.
         -1   -1    0    0    0  501 -0.00000000000E+00 -0.00000000000E+00 -0.28147710016E+03  0.28147710016E+03  0.00000000000E+00 0.  1.
         24    2    1    2    0    0 -0.11436619366E+03 -0.70371933822E+03  0.20572886195E+04  0.21783809208E+04  0.67870751226E+02 0.  0.
        254    2    1    2    0    0  0.11436619366E+03  0.70371933822E+03  0.13477170935E+04  0.17895789925E+04  0.93699043386E+03 0.  0.
         23    2    4    4    0    0  0.17268497944E+03  0.59158009245E+03  0.14692626177E+04  0.15960245944E+04  0.93673680438E+02 0.  0.
         23    2    4    4    0    0 -0.58318785779E+02  0.11213924578E+03 -0.12154552423E+03  0.19355439806E+03  0.81937166954E+02 0.  0.
          4    1    3    3  502    0 -0.83251920618E+02 -0.45963071168E+03  0.14395614166E+04  0.15134491553E+04  0.00000000000E+00 0. -1.
         -3    1    3    3    0  502 -0.31114273038E+02 -0.24408862654E+03  0.61772720287E+03  0.66493176549E+03  0.00000000000E+00 0.  1.
         11    1    5    5    0    0  0.10606446836E+03  0.26494757280E+03  0.77500893032E+03  0.82588481634E+03  0.00000000000E+00 0. -1.
        -11    1    5    5    0    0  0.66620511077E+02  0.32663251964E+03  0.69425368739E+03  0.77013977811E+03  0.00000000000E+00 0.  1.
          4    1    6    6  503    0 -0.70649620450E+01  0.33703480588E+02  0.63431407071E+01  0.35015335590E+02  0.00000000000E+00 0. -1.
         -4    1    6    6    0  503 -0.51253823734E+02  0.78435765189E+02 -0.12788866494E+03  0.15853906247E+03  0.00000000000E+00 0.  1.
<mgrwt>
<rscale>  0 0.20373124E+04</rscale>
<asrwt>0</asrwt>
<pdfrwt beam="1">  1        2 0.56715117E+00 0.20373124E+04</pdfrwt>
<pdfrwt beam="2">  1       -1 0.43304172E-01 0.20373124E+04</pdfrwt>
<totfact> 0.33349520E+00</totfact>
</mgrwt>
</event>
<event>
12    6  0.1457317E-007  0.2289891E+04  0.7818608E-02  0.8481918E-01
         -1   -1    0    0    0  501 -0.00000000000E+00  0.00000000000E+00  0.55087633920E+03  0.55087633920E+03  0.00000000000E+00 0.  1.
          2   -1    0    0  501    0  0.00000000000E+00 -0.00000000000E+00 -0.23796628808E+04  0.23796628808E+04  0.00000000000E+00 0. -1.
         24    2    1    2    0    0 -0.50365394307E+03  0.60930147610E+03 -0.60488746887E+02  0.79701489255E+03  0.81598206438E+02 0.  0.
        254    2    1    2    0    0  0.50365394307E+03 -0.60930147610E+03 -0.17682977947E+04  0.21335243275E+04  0.89450175065E+03 0.  0.
         23    2    4    4    0    0  0.67247776283E+03 -0.50348477572E+03 -0.17099585179E+04  0.19073092759E+04  0.90262285564E+02 0.  0.
         23    2    4    4    0    0 -0.16882381975E+03 -0.10581670039E+03 -0.58339276815E+02  0.22621505154E+03  0.89839424125E+02 0.  0.
          2    1    3    3  502    0 -0.72661397492E+02  0.10824763227E+03 -0.37665489021E+02  0.13570526018E+03  0.00000000000E+00 0. -1.
         -1    1    3    3    0  502 -0.43099254558E+03  0.50105384383E+03 -0.22823257866E+02  0.66130963237E+03  0.00000000000E+00 0.  1.
         11    1    5    5    0    0  0.58677025824E+03 -0.44355768020E+03 -0.15571831598E+04  0.17221678619E+04  0.00000000000E+00 0. -1.
        -11    1    5    5    0    0  0.85707504590E+02 -0.59927095514E+02 -0.15277535814E+03  0.18514141399E+03  0.00000000000E+00 0.  1.
          3    1    6    6  503    0 -0.78817877923E+02 -0.98835408979E+02 -0.48519770499E+02  0.13540629261E+03  0.00000000000E+00 0. -1.
         -3    1    6    6    0  503 -0.90005941831E+02 -0.69812914069E+01 -0.98195063154E+01  0.90808758933E+02  0.00000000000E+00 0.  1.
<mgrwt>
<rscale>  0 0.22898908E+04</rscale>
<asrwt>0</asrwt>
<pdfrwt beam="1">  1        2 0.36610198E+00 0.22898908E+04</pdfrwt>
<pdfrwt beam="2">  1       -1 0.84750207E-01 0.22898908E+04</pdfrwt>
<totfact> 0.58085655E+00</totfact>
</mgrwt>
</event>
<event>
12    6  0.1457317E-007  0.1446972E+04  0.7818608E-02  0.8920502E-01
          2   -1    0    0  501    0  0.00000000000E+00  0.00000000000E+00  0.25847262367E+04  0.25847262367E+04  0.00000000000E+00 0. -1.
         -1   -1    0    0    0  501 -0.00000000000E+00 -0.00000000000E+00 -0.20250962882E+03  0.20250962882E+03  0.00000000000E+00 0.  1.
         24    2    1    2    0    0 -0.99880024019E+01  0.26948794522E+03  0.13596978514E+04  0.13884264012E+04  0.78905715145E+02 0.  0.
        254    2    1    2    0    0  0.99880024019E+01 -0.26948794522E+03  0.10225187565E+04  0.13988094642E+04  0.91564174056E+03 0.  0.
         23    2    4    4    0    0  0.34095908661E+02 -0.54395174685E+03  0.95079622989E+03  0.10997417529E+04  0.91500920535E+02 0.  0.
         23    2    4    4    0    0 -0.24107906259E+02  0.27446380163E+03  0.71722526604E+02  0.29906771132E+03  0.91574044279E+02 0.  0.
          2    1    3    3  502    0  0.24606294321E+02  0.15022044540E+03  0.87071560460E+03  0.88392155536E+03  0.00000000000E+00 0. -1.
         -1    1    3    3    0  502 -0.34594296723E+02  0.11926749982E+03  0.48898224676E+03  0.50450484589E+03  0.00000000000E+00 0.  1.
         11    1    5    5    0    0 -0.88734053980E+01 -0.96730236950E+02  0.11244040913E+03  0.14858775747E+03  0.00000000000E+00 0.  1.
        -11    1    5    5    0    0  0.42969314059E+02 -0.44722150990E+03  0.83835582076E+03  0.95115399546E+03  0.00000000000E+00 0. -1.
          1    1    6    6  503    0  0.27304384144E+02  0.18615726774E+03  0.45382880156E+02  0.19354499099E+03  0.00000000000E+00 0. -1.
         -1    1    6    6    0  503 -0.51412290403E+02  0.88306533890E+02  0.26339646448E+02  0.10552272034E+03  0.00000000000E+00 0.  1.
<mgrwt>
<rscale>  0 0.14469719E+04</rscale>
<asrwt>0</asrwt>
<pdfrwt beam="1">  1        2 0.39765017E+00 0.14469719E+04</pdfrwt>
<pdfrwt beam="2">  1       -1 0.31155329E-01 0.14469719E+04</pdfrwt>
<totfact> 0.32892186E+01</totfact>
</mgrwt>
</event>
<event>
12    6  0.1457317E-007  0.1225779E+04  0.7818608E-02  0.9090586E-01
          2   -1    0    0  501    0  0.00000000000E+00  0.00000000000E+00  0.49414830173E+03  0.49414830173E+03  0.00000000000E+00 0. -1.
         -1   -1    0    0    0  501 -0.00000000000E+00 -0.00000000000E+00 -0.76016407647E+03  0.76016407647E+03  0.00000000000E+00 0.  1.
         24    2    1    2    0    0  0.13922773801E+03 -0.15308425990E+03  0.12548363878E+03  0.25516869603E+03  0.80905909371E+02 0.  0.
        254    2    1    2    0    0 -0.13922773801E+03  0.15308425990E+03 -0.39149941352E+03  0.99914368218E+03  0.89565459480E+03 0.  0.
         23    2    4    4    0    0 -0.17370517890E+03  0.50727678079E+03 -0.29920304731E+03  0.62033787408E+03  0.88280195927E+02 0.  0.
         23    2    4    4    0    0  0.34477440898E+02 -0.35419252089E+03 -0.92296366213E+02  0.37880580810E+03  0.91291758935E+02 0.  0.
          4    1    3    3  502    0  0.56794704379E+02 -0.10247009033E+03  0.10268152763E+03  0.15578592354E+03  0.00000000000E+00 0. -1.
         -3    1    3    3    0  502  0.82433033627E+02 -0.50614169572E+02  0.22802111158E+02  0.99382772489E+02  0.00000000000E+00 0.  1.
         11    1    5    5    0    0 -0.13923347419E+03  0.28055389148E+03 -0.15522193957E+03  0.34955728699E+03  0.00000000000E+00 0. -1.
        -11    1    5    5    0    0 -0.34471704715E+02  0.22672288930E+03 -0.14398110774E+03  0.27078058709E+03  0.00000000000E+00 0.  1.
          3    1    6    6  503    0  0.55909055808E+02 -0.12249761978E+03 -0.30749653376E+02  0.13811962408E+03  0.00000000000E+00 0. -1.
         -3    1    6    6    0  503 -0.21431614909E+02 -0.23169490110E+03 -0.61546712837E+02  0.24068618402E+03  0.00000000000E+00 0.  1.
<mgrwt>
<rscale>  0 0.12257794E+04</rscale>
<asrwt>0</asrwt>
<pdfrwt beam="1">  1        2 0.76022816E-01 0.12257794E+04</pdfrwt>
<pdfrwt beam="2">  1       -1 0.11694832E+00 0.12257794E+04</pdfrwt>
<totfact> 0.46380054E+01</totfact>
</mgrwt>
</event>
<event>
12    6  0.1457317E-007  0.1534522E+04  0.7818608E-02  0.8861815E-01
          2   -1    0    0  501    0  0.00000000000E+00  0.00000000000E+00  0.63831429567E+03  0.63831429567E+03  0.00000000000E+00 0. -1.
         -1   -1    0    0    0  501 -0.00000000000E+00 -0.00000000000E+00 -0.92225644266E+03  0.92225644266E+03  0.00000000000E+00 0.  1.
         24    2    1    2    0    0  0.16615400263E+03  0.43161707439E+03 -0.28816140045E+01  0.46989623661E+03  0.83028416734E+02 0.  0.
        254    2    1    2    0    0 -0.16615400263E+03 -0.43161707439E+03 -0.28106053298E+03  0.10906745017E+04  0.94692945567E+03 0.  0.
         23    2    4    4    0    0 -0.73145580085E+02 -0.47858297650E+03 -0.58006790382E+03  0.76109132206E+03  0.91593046658E+02 0.  0.
         23    2    4    4    0    0 -0.93008422542E+02  0.46965902106E+02  0.29900737083E+03  0.32958317967E+03  0.91451090115E+02 0.  0.
          4    1    3    3  502    0  0.12493541233E+03  0.38885995886E+03  0.12207681893E+02  0.40861956923E+03  0.00000000000E+00 0. -1.
         -3    1    3    3    0  502  0.41218590297E+02  0.42757115529E+02 -0.15089295897E+02  0.61276667379E+02  0.00000000000E+00 0.  1.
         11    1    5    5    0    0 -0.53267720873E+02 -0.17666810745E+03 -0.16562320895E+03  0.24795184537E+03  0.00000000000E+00 0. -1.
        -11    1    5    5    0    0 -0.19877859212E+02 -0.30191486904E+03 -0.41444469486E+03  0.51313947669E+03  0.00000000000E+00 0.  1.
          3    1    6    6  503    0 -0.27290116449E+02 -0.68127462054E+01  0.12543117769E+02  0.30797626045E+02  0.00000000000E+00 0. -1.
         -3    1    6    6    0  503 -0.65718306092E+02  0.53778648312E+02  0.28646425306E+03  0.29878555362E+03  0.00000000000E+00 0.  1.
<mgrwt>
<rscale>  0 0.15345220E+04</rscale>
<asrwt>0</asrwt>
<pdfrwt beam="1">  1        2 0.98202200E-01 0.15345220E+04</pdfrwt>
<pdfrwt beam="2">  1       -1 0.14188561E+00 0.15345220E+04</pdfrwt>
<totfact> 0.20489725E+01</totfact>
</mgrwt>
</event>
<event>
12    6  0.1457317E-007  0.3039732E+04  0.7818608E-02  0.8232475E-01
          2   -1    0    0  501    0  0.00000000000E+00  0.00000000000E+00  0.14540689252E+04  0.14540689252E+04  0.00000000000E+00 0. -1.
         -1   -1    0    0    0  501 -0.00000000000E+00 -0.00000000000E+00 -0.15886401769E+04  0.15886401769E+04  0.00000000000E+00 0.  1.
         24    2    1    2    0    0 -0.64728216796E+03 -0.69831507436E+03  0.94638064454E+03  0.13449093516E+04  0.80787942821E+02 0.  0.
        254    2    1    2    0    0  0.64728216796E+03  0.69831507436E+03 -0.10809518962E+04  0.16977997504E+04  0.89858157260E+03 0.  0.
         23    2    4    4    0    0  0.31921130254E+03  0.46917490607E+03 -0.11462773271E+04  0.12820064189E+04  0.86993098698E+02 0.  0.
         23    2    4    4    0    0  0.32807086542E+03  0.22914016830E+03  0.65325430947E+02  0.41579333153E+03  0.92092199189E+02 0.  0.
          4    1    3    3  502    0 -0.48868514523E+03 -0.47938378694E+03  0.65519905437E+03  0.94757996348E+03  0.00000000000E+00 0. -1.
         -3    1    3    3    0  502 -0.15859702273E+03 -0.21893128742E+03  0.29118159017E+03  0.39732938815E+03  0.00000000000E+00 0.  1.
         11    1    5    5    0    0  0.23095428262E+03  0.32932989108E+03 -0.89449871938E+03  0.98077827096E+03  0.00000000000E+00 0. -1.
        -11    1    5    5    0    0  0.88257019917E+02  0.13984501499E+03 -0.25177860777E+03  0.30122814794E+03  0.00000000000E+00 0.  1.
          4    1    6    6  503    0  0.18208381218E+03  0.15647445241E+03 -0.11441925416E+00  0.24008078225E+03  0.00000000000E+00 0. -1.
         -4    1    6    6    0  503  0.14598705324E+03  0.72665715885E+02  0.65439850201E+02  0.17571254928E+03  0.00000000000E+00 0.  1.
<mgrwt>
<rscale>  0 0.30397318E+04</rscale>
<asrwt>0</asrwt>
<pdfrwt beam="1">  1        2 0.22370291E+00 0.30397318E+04</pdfrwt>
<pdfrwt beam="2">  1       -1 0.24440618E+00 0.30397318E+04</pdfrwt>
<totfact> 0.99327452E-01</totfact>
</mgrwt>
</event>
<event>
12    6  0.1457317E-007  0.1383339E+04  0.7818608E-02  0.8965968E-01
          2   -1    0    0  501    0  0.00000000000E+00  0.00000000000E+00  0.11326599839E+04  0.11326599839E+04  0.00000000000E+00 0. -1.
         -1   -1    0    0    0  501 -0.00000000000E+00 -0.00000000000E+00 -0.42237425835E+03  0.42237425835E+03  0.00000000000E+00 0.  1.
         24    2    1    2    0    0  0.27167989523E+03  0.17542997960E+03 -0.14313396381E+02  0.33267114497E+03  0.76678381342E+02 0.  0.
        254    2    1    2    0    0 -0.27167989523E+03 -0.17542997960E+03  0.72459912189E+03  0.12223630972E+04  0.92980751277E+03 0.  0.
         23    2    4    4    0    0  0.86993535451E+02  0.26198077602E+03  0.55183115502E+03  0.62378355929E+03  0.91577852027E+02 0.  0.
         23    2    4    4    0    0 -0.35867343068E+03 -0.43741075563E+03  0.17276796687E+03  0.59857953793E+03  0.92053755164E+02 0.  0.
          2    1    3    3  502    0  0.57773762850E+02  0.62797827750E+02  0.22225526145E+02  0.88177938604E+02  0.00000000000E+00 0. -1.
         -1    1    3    3    0  502  0.21390613238E+03  0.11263215185E+03 -0.36538922526E+02  0.24449320637E+03  0.00000000000E+00 0.  1.
         11    1    5    5    0    0  0.78982469482E+00  0.90479038867E+02  0.11265643561E+03  0.14449412715E+03  0.00000000000E+00 0.  1.
        -11    1    5    5    0    0  0.86203710756E+02  0.17150173716E+03  0.43917471941E+03  0.47928943214E+03  0.00000000000E+00 0. -1.
          3    1    6    6  503    0 -0.20345089995E+03 -0.20911229186E+03  0.48203166903E+02  0.29570891870E+03  0.00000000000E+00 0. -1.
         -3    1    6    6    0  503 -0.15522253073E+03 -0.22829846376E+03  0.12456479997E+03  0.30287061923E+03  0.00000000000E+00 0.  1.
<mgrwt>
<rscale>  0 0.13833386E+04</rscale>
<asrwt>0</asrwt>
<pdfrwt beam="1">  1        2 0.17425538E+00 0.13833386E+04</pdfrwt>
<pdfrwt beam="2">  1       -1 0.64980656E-01 0.13833386E+04</pdfrwt>
<totfact> 0.55511256E+01</totfact>
</mgrwt>
</event>
<event>
12    6  0.1457317E-007  0.4764943E+04  0.7818608E-02  0.7865827E-01
          2   -1    0    0  501    0  0.00000000000E+00  0.00000000000E+00  0.23601761959E+04  0.23601761959E+04  0.00000000000E+00 0. -1.
         -1   -1    0    0    0  501 -0.00000000000E+00 -0.00000000000E+00 -0.24049776685E+04  0.24049776685E+04  0.00000000000E+00 0.  1.
         24    2    1    2    0    0  0.18919551488E+04  0.97386117620E+03 -0.89022446152E+03  0.23079529022E+04  0.79038795220E+02 0.  0.
        254    2    1    2    0    0 -0.18919551488E+04 -0.97386117620E+03  0.84542298893E+03  0.24572009622E+04  0.89173800114E+03 0.  0.
         23    2    4    4    0    0 -0.18367127615E+04 -0.64606096403E+03  0.80907403150E+03  0.21105987694E+04  0.95487379013E+02 0.  0.
         23    2    4    4    0    0 -0.55242387297E+02 -0.32780021217E+03  0.36348957435E+02  0.34660219274E+03  0.91143474000E+02 0.  0.
          2    1    3    3  502    0  0.12291229890E+04  0.63112446572E+03 -0.61871546065E+03  0.15138924118E+04  0.00000000000E+00 0. -1.
         -1    1    3    3    0  502  0.66283215980E+03  0.34273671048E+03 -0.27150900087E+03  0.79406049035E+03  0.00000000000E+00 0.  1.
         11    1    5    5    0    0 -0.16419365080E+04 -0.55029709445E+03  0.70198903767E+03  0.18685745897E+04  0.00000000000E+00 0. -1.
        -11    1    5    5    0    0 -0.19477625357E+03 -0.95763869581E+02  0.10708499383E+03  0.24202417973E+03  0.00000000000E+00 0.  1.
          1    1    6    6  503    0 -0.57101094578E+02 -0.24379835004E+03  0.63463027317E+02  0.25831323295E+03  0.00000000000E+00 0. -1.
         -1    1    6    6    0  503  0.18587072804E+01 -0.84001862131E+02 -0.27114069883E+02  0.88288959784E+02  0.00000000000E+00 0.  1.
<mgrwt>
<rscale>  0 0.47649433E+04</rscale>
<asrwt>0</asrwt>
<pdfrwt beam="1">  1        2 0.36310403E+00 0.47649433E+04</pdfrwt>
<pdfrwt beam="2">  1       -1 0.36999656E+00 0.47649433E+04</pdfrwt>
<totfact> 0.40402985E-02</totfact>
</mgrwt>
</event>
<event>
12    6  0.1457317E-007  0.1426431E+04  0.7818608E-02  0.8934906E-01
         -1   -1    0    0    0  501 -0.00000000000E+00  0.00000000000E+00  0.37284469706E+03  0.37284469706E+03  0.00000000000E+00 0.  1.
          2   -1    0    0  501    0  0.00000000000E+00 -0.00000000000E+00 -0.13643108447E+04  0.13643108447E+04  0.00000000000E+00 0. -1.
         24    2    1    2    0    0  0.31506135602E+02  0.13167730385E+03  0.19479435755E+03  0.25065964544E+03  0.80955958327E+02 0.  0.
        254    2    1    2    0    0 -0.31506135602E+02 -0.13167730385E+03 -0.11862605052E+04  0.14864958964E+04  0.88550805458E+03 0.  0.
         23    2    4    4    0    0 -0.35640133206E+03 -0.14095740138E+03 -0.19585840860E+03  0.44003944739E+03  0.91560365549E+02 0.  0.
         23    2    4    4    0    0  0.32489519646E+03  0.92800975255E+01 -0.99040209662E+03  0.10464564490E+04  0.92367622674E+02 0.  0.
          2    1    3    3  502    0  0.39145051057E+02  0.18395473999E+02  0.41905014851E+02  0.60222576792E+02  0.00000000000E+00 0. -1.
         -1    1    3    3    0  502 -0.76389154551E+01  0.11328182985E+03  0.15288934270E+03  0.19043706865E+03  0.00000000000E+00 0.  1.
         11    1    5    5    0    0 -0.21859088338E+03 -0.42328702886E+02 -0.89536035410E+02  0.23997998879E+03  0.00000000000E+00 0.  1.
        -11    1    5    5    0    0 -0.13781044868E+03 -0.98628698492E+02 -0.10632237319E+03  0.20005945860E+03  0.00000000000E+00 0. -1.
          2    1    6    6  503    0  0.63655651920E+02  0.12601873752E+02 -0.32871038036E+03  0.33505426933E+03  0.00000000000E+00 0. -1.
         -2    1    6    6    0  503  0.26123954454E+03 -0.33217762268E+01 -0.66169171627E+03  0.71140217964E+03  0.00000000000E+00 0.  1.
<mgrwt>
<rscale>  0 0.14264306E+04</rscale>
<asrwt>0</asrwt>
<pdfrwt beam="1">  1        2 0.20989398E+00 0.14264306E+04</pdfrwt>
<pdfrwt beam="2">  1       -1 0.57360722E-01 0.14264306E+04</pdfrwt>
<totfact> 0.51696373E+01</totfact>
</mgrwt>
</event>
<event>
12    6  0.1457317E-007  0.3152652E+04  0.7818608E-02  0.8201435E-01
          2   -1    0    0  501    0  0.00000000000E+00  0.00000000000E+00  0.31783375460E+04  0.31783375460E+04  0.00000000000E+00 0. -1.
         -1   -1    0    0    0  501 -0.00000000000E+00 -0.00000000000E+00 -0.78179339929E+03  0.78179339929E+03  0.00000000000E+00 0.  1.
         24    2    1    2    0    0 -0.69209864072E+03 -0.62914694219E+03 -0.29026050496E+03  0.98243409388E+03  0.78097277336E+02 0.  0.
        254    2    1    2    0    0  0.69209864072E+03  0.62914694219E+03  0.26868046517E+04  0.29776968514E+04  0.87916602489E+03 0.  0.
         23    2    4    4    0    0 -0.13181070494E+03  0.14807712445E+03  0.11191188237E+04  0.11401819960E+04  0.91033760343E+02 0.  0.
         23    2    4    4    0    0  0.82390934566E+03  0.48106981773E+03  0.15676858279E+04  0.18375148555E+04  0.92559221821E+02 0.  0.
          4    1    3    3  502    0 -0.29174686655E+03 -0.27909198042E+03 -0.16442885130E+03  0.43594198561E+03  0.00000000000E+00 0. -1.
         -3    1    3    3    0  502 -0.40035177417E+03 -0.35005496177E+03 -0.12583165366E+03  0.54649210827E+03  0.00000000000E+00 0.  1.
         11    1    5    5    0    0 -0.99201269905E+02  0.14858901590E+03  0.10278365412E+04  0.10432485528E+04  0.00000000000E+00 0. -1.
        -11    1    5    5    0    0 -0.32609435034E+02 -0.51189145144E+00  0.91282282558E+02  0.96933443120E+02  0.00000000000E+00 0.  1.
          2    1    6    6  503    0  0.62107663760E+03  0.35198319512E+03  0.12443809828E+04  0.14346122785E+04  0.00000000000E+00 0. -1.
         -2    1    6    6    0  503  0.20283270806E+03  0.12908662261E+03  0.32330484517E+03  0.40290257694E+03  0.00000000000E+00 0.  1.
<mgrwt>
<rscale>  0 0.31526518E+04</rscale>
<asrwt>0</asrwt>
<pdfrwt beam="1">  1        2 0.48897500E+00 0.31526518E+04</pdfrwt>
<pdfrwt beam="2">  1       -1 0.12027591E+00 0.31526518E+04</pdfrwt>
<totfact> 0.79112600E-01</totfact>
</mgrwt>
</event>
<event>
12    6  0.1457317E-007  0.1565521E+04  0.7818608E-02  0.8842015E-01
          2   -1    0    0  501    0  0.00000000000E+00  0.00000000000E+00  0.35692106385E+04  0.35692106385E+04  0.00000000000E+00 0. -1.
         -1   -1    0    0    0  501 -0.00000000000E+00 -0.00000000000E+00 -0.17166643384E+03  0.17166643384E+03  0.00000000000E+00 0.  1.
         24    2    1    2    0    0 -0.66189918904E+02 -0.38092973542E+03  0.19555160306E+04  0.19950255210E+04  0.81211541729E+02 0.  0.
        254    2    1    2    0    0  0.66189918904E+02  0.38092973542E+03  0.14420281741E+04  0.17458515514E+04  0.90502144511E+03 0.  0.
         23    2    4    4    0    0 -0.35027186494E+03  0.92046682588E+02  0.10012205218E+04  0.10684865347E+04  0.89766199076E+02 0.  0.
         23    2    4    4    0    0  0.41646178385E+03  0.28888305283E+03  0.44080765228E+03  0.67736501670E+03  0.87281979333E+02 0.  0.
          4    1    3    3  502    0 -0.45250085766E+02 -0.33484290368E+03  0.15525440710E+04  0.15888865387E+04  0.00000000000E+00 0. -1.
         -3    1    3    3    0  502 -0.20939833138E+02 -0.46086831737E+02  0.40297195965E+03  0.40613898229E+03  0.00000000000E+00 0.  1.
         11    1    5    5    0    0 -0.52218422473E+02  0.47989852139E+02  0.16294423552E+03  0.17770935103E+03  0.00000000000E+00 0. -1.
        -11    1    5    5    0    0 -0.29805344247E+03  0.44056830449E+02  0.83827628626E+03  0.89077718369E+03  0.00000000000E+00 0.  1.
          2    1    6    6  503    0  0.18366326759E+03  0.11183035977E+03  0.24191773417E+03  0.32367022621E+03  0.00000000000E+00 0. -1.
         -2    1    6    6    0  503  0.23279851625E+03  0.17705269306E+03  0.19888991811E+03  0.35369479048E+03  0.00000000000E+00 0.  1.
<mgrwt>
<rscale>  0 0.15655206E+04</rscale>
<asrwt>0</asrwt>
<pdfrwt beam="1">  1        2 0.54910927E+00 0.15655206E+04</pdfrwt>
<pdfrwt beam="2">  1       -1 0.26410223E-01 0.15655206E+04</pdfrwt>
<totfact> 0.10272674E+01</totfact>
</mgrwt>
</event>
<event>
12    6  0.1457317E-007  0.2437900E+04  0.7818608E-02  0.8425449E-01
         -3   -1    0    0    0  501 -0.00000000000E+00  0.00000000000E+00  0.72920514618E+03  0.72920514618E+03  0.00000000000E+00 0.  1.
          2   -1    0    0  501    0  0.00000000000E+00 -0.00000000000E+00 -0.20376144824E+04  0.20376144824E+04  0.00000000000E+00 0. -1.
         24    2    1    2    0    0  0.10479518097E+04 -0.42458973352E+02 -0.54217793289E+03  0.11842661639E+04  0.92323757074E+02 0.  0.
        254    2    1    2    0    0 -0.10479518097E+04  0.42458973352E+02 -0.76623140329E+03  0.15825534647E+04  0.90407916984E+03 0.  0.
         23    2    4    4    0    0 -0.76036902192E+03 -0.20058831676E+03 -0.87478371251E+03  0.11800964918E+04  0.94786412056E+02 0.  0.
         23    2    4    4    0    0 -0.28758278776E+03  0.24304729011E+03  0.10855230922E+03  0.40245697290E+03  0.91717861716E+02 0.  0.
          2    1    3    3  502    0  0.22594166546E+03 -0.41769987129E+02 -0.14099439974E+03  0.26958076485E+03  0.00000000000E+00 0. -1.
         -1    1    3    3    0  502  0.82201014422E+03 -0.68898622390E+00 -0.40118353315E+03  0.91468539901E+03  0.00000000000E+00 0.  1.
         11    1    5    5    0    0 -0.44883690076E+03 -0.11429829727E+03 -0.58334267985E+03  0.74485390942E+03  0.00000000000E+00 0.  1.
        -11    1    5    5    0    0 -0.31153212116E+03 -0.86290019483E+02 -0.29144103266E+03  0.43524258236E+03  0.00000000000E+00 0. -1.
          4    1    6    6  503    0 -0.33557708462E+02  0.76534600293E+02  0.29253328557E+02  0.88540510902E+02  0.00000000000E+00 0. -1.
         -4    1    6    6    0  503 -0.25402507930E+03  0.16651268982E+03  0.79298980660E+02  0.31391646200E+03  0.00000000000E+00 0.  1.
<mgrwt>
<rscale>  0 0.24378999E+04</rscale>
<asrwt>0</asrwt>
<pdfrwt beam="1">  1        2 0.31347915E+00 0.24378999E+04</pdfrwt>
<pdfrwt beam="2">  1       -3 0.11218541E+00 0.24378999E+04</pdfrwt>
<totfact> 0.24188980E+00</totfact>
</mgrwt>
</event>
<event>
12    6  0.1457317E-007  0.1615830E+04  0.7818608E-02  0.8810881E-01
          2   -1    0    0  501    0  0.00000000000E+00  0.00000000000E+00  0.96567163144E+03  0.96567163144E+03  0.00000000000E+00 0. -1.
         -1   -1    0    0    0  501 -0.00000000000E+00 -0.00000000000E+00 -0.67593047510E+03  0.67593047510E+03  0.00000000000E+00 0.  1.
         24    2    1    2    0    0 -0.68761343480E+02 -0.33998774954E+03  0.53594387348E+03  0.64386765021E+03  0.83725284545E+02 0.  0.
        254    2    1    2    0    0  0.68761343480E+02  0.33998774954E+03 -0.24620271713E+03  0.99773445633E+03  0.90251785314E+03 0.  0.
         23    2    4    4    0    0 -0.27012694258E+03  0.27677112277E+03  0.18338789035E+03  0.43947562835E+03  0.99683950982E+02 0.  0.
         23    2    4    4    0    0  0.33888828606E+03  0.63216626762E+02 -0.42959060748E+03  0.55825882798E+03  0.90902236765E+02 0.  0.
          4    1    3    3  502    0 -0.84683648298E+02 -0.23067386664E+03  0.38718033958E+03  0.45857427795E+03  0.00000000000E+00 0. -1.
         -1    1    3    3    0  502  0.15922304818E+02 -0.10931388290E+03  0.14876353390E+03  0.18529337226E+03  0.00000000000E+00 0.  1.
         11    1    5    5    0    0 -0.16911423233E+03  0.16310575222E+03  0.57058061548E+02  0.24178240708E+03  0.00000000000E+00 0.  1.
        -11    1    5    5    0    0 -0.10101271025E+03  0.11366537055E+03  0.12632982880E+03  0.19769322128E+03  0.00000000000E+00 0. -1.
          3    1    6    6  503    0  0.89386026644E+02  0.57793822890E+02 -0.14241672913E+03  0.17779907891E+03  0.00000000000E+00 0. -1.
         -3    1    6    6    0  503  0.24950225941E+03  0.54228038718E+01 -0.28717387835E+03  0.38045974907E+03  0.00000000000E+00 0.  1.
<mgrwt>
<rscale>  0 0.16158303E+04</rscale>
<asrwt>0</asrwt>
<pdfrwt beam="1">  1        2 0.14856487E+00 0.16158303E+04</pdfrwt>
<pdfrwt beam="2">  1       -1 0.10398930E+00 0.16158303E+04</pdfrwt>
<totfact> 0.25237020E+01</totfact>
</mgrwt>
</event>
<event>
12    6  0.1457317E-007  0.1110413E+04  0.7818608E-02  0.9195102E-01
         -1   -1    0    0    0  501 -0.00000000000E+00  0.00000000000E+00  0.34435906945E+03  0.34435906945E+03  0.00000000000E+00 0.  1.
          2   -1    0    0  501    0  0.00000000000E+00 -0.00000000000E+00 -0.89515352336E+03  0.89515352336E+03  0.00000000000E+00 0. -1.
         24    2    1    2    0    0  0.31797990489E+02  0.40176952116E+02  0.93121743843E+02  0.13306048294E+03  0.80050816751E+02 0.  0.
        254    2    1    2    0    0 -0.31797990489E+02 -0.40176952116E+02 -0.64391619775E+03  0.11064521099E+04  0.89832227070E+03 0.  0.
         23    2    4    4    0    0 -0.26256924120E+03 -0.33889191035E+03 -0.55378883747E+03  0.70662552088E+03  0.94059645530E+02 0.  0.
         23    2    4    4    0    0  0.23077125071E+03  0.29871495824E+03 -0.90127360279E+02  0.39982658900E+03  0.96189208184E+02 0.  0.
          4    1    3    3  502    0 -0.87106715232E+01  0.54482071173E+01 -0.11620183986E+02  0.15510881182E+02  0.00000000000E+00 0. -1.
         -3    1    3    3    0  502  0.40508662012E+02  0.34728744999E+02  0.10474192783E+03  0.11754960175E+03  0.00000000000E+00 0.  1.
         11    1    5    5    0    0 -0.10142141774E+03 -0.19815033613E+03 -0.31883707781E+03  0.38885336809E+03  0.00000000000E+00 0. -1.
        -11    1    5    5    0    0 -0.16114782346E+03 -0.14074157422E+03 -0.23495175966E+03  0.31777215278E+03  0.00000000000E+00 0.  1.
          3    1    6    6  503    0  0.22707397018E+03  0.28618246843E+03 -0.64382507275E+02  0.37095565828E+03  0.00000000000E+00 0. -1.
         -3    1    6    6    0  503  0.36972805252E+01  0.12532489809E+02 -0.25744853004E+02  0.28870930714E+02  0.00000000000E+00 0.  1.
<mgrwt>
<rscale>  0 0.11104130E+04</rscale>
<asrwt>0</asrwt>
<pdfrwt beam="1">  1        2 0.13771593E+00 0.11104130E+04</pdfrwt>
<pdfrwt beam="2">  1       -1 0.52978318E-01 0.11104130E+04</pdfrwt>
<totfact> 0.12013606E+02</totfact>
</mgrwt>
</event>
<event>
12    6  0.1457317E-007  0.1403229E+04  0.7818608E-02  0.8951484E-01
         -1   -1    0    0    0  501 -0.00000000000E+00  0.00000000000E+00  0.27783100603E+03  0.27783100603E+03  0.00000000000E+00 0.  1.
          2   -1    0    0  501    0  0.00000000000E+00 -0.00000000000E+00 -0.17718079676E+04  0.17718079676E+04  0.00000000000E+00 0. -1.
         24    2    1    2    0    0  0.21502952185E+02  0.27172724845E+03 -0.82381979203E+02  0.29596899827E+03  0.80701814957E+02 0.  0.
        254    2    1    2    0    0 -0.21502952185E+02 -0.27172724845E+03 -0.14115949823E+04  0.17536699753E+04  0.10042210482E+04 0.  0.
         23    2    4    4    0    0 -0.50355539590E+03 -0.16758120042E+03 -0.70859500714E+03  0.89012208279E+03  0.92514553735E+02 0.  0.
         23    2    4    4    0    0  0.48205244372E+03 -0.10414604804E+03 -0.70299997520E+03  0.86354789254E+03  0.91022193777E+02 0.  0.
          4    1    3    3  502    0  0.41411392398E+02  0.16308995948E+03 -0.77923195051E+02  0.18543263637E+03  0.00000000000E+00 0. -1.
         -3    1    3    3    0  502 -0.19908440214E+02  0.10863728898E+03 -0.44587841516E+01  0.11053636191E+03  0.00000000000E+00 0.  1.
         11    1    5    5    0    0 -0.25320051576E+02 -0.31810319346E+02 -0.68404037809E+02  0.79574580220E+02  0.00000000000E+00 0.  1.
        -11    1    5    5    0    0 -0.47823534433E+03 -0.13577088107E+03 -0.64019096933E+03  0.81054750257E+03  0.00000000000E+00 0. -1.
          4    1    6    6  503    0  0.20815344809E+03 -0.62039213638E+02 -0.23780329699E+03  0.32206696515E+03  0.00000000000E+00 0.  1.
         -4    1    6    6    0  503  0.27389899563E+03 -0.42106834398E+02 -0.46519667821E+03  0.54148092739E+03  0.00000000000E+00 0. -1.
<mgrwt>
<rscale>  0 0.14032294E+04</rscale>
<asrwt>0</asrwt>
<pdfrwt beam="1">  1        2 0.27258584E+00 0.14032294E+04</pdfrwt>
<pdfrwt beam="2">  1       -1 0.42743232E-01 0.14032294E+04</pdfrwt>
<totfact> 0.53450899E+01</totfact>
</mgrwt>
</event>
<event>
12    6  0.1457317E-007  0.1486825E+04  0.7818608E-02  0.8893262E-01
         -1   -1    0    0    0  501 -0.00000000000E+00  0.00000000000E+00  0.56479171568E+03  0.56479171568E+03  0.00000000000E+00 0.  1.
          2   -1    0    0  501    0  0.00000000000E+00 -0.00000000000E+00 -0.97852329723E+03  0.97852329723E+03  0.00000000000E+00 0. -1.
         24    2    1    2    0    0  0.19556783441E+03 -0.38381533191E+03 -0.44566014419E+02  0.44059711426E+03  0.81109189297E+02 0.  0.
        254    2    1    2    0    0 -0.19556783441E+03  0.38381533191E+03 -0.36916556713E+03  0.11027178986E+04  0.94559111733E+03 0.  0.
         23    2    4    4    0    0 -0.48115704724E+03  0.47711941972E+03 -0.10313681037E+03  0.69109353608E+03  0.88419619842E+02 0.  0.
         23    2    4    4    0    0  0.28558921283E+03 -0.93304087810E+02 -0.26602875676E+03  0.41162436257E+03  0.91632227658E+02 0.  0.
          2    1    3    3  502    0  0.10573050526E+03 -0.17153525256E+03 -0.58044755593E+02  0.20969615224E+03  0.00000000000E+00 0. -1.
         -1    1    3    3    0  502  0.89837329153E+02 -0.21228007935E+03  0.13478741174E+02  0.23090096202E+03  0.00000000000E+00 0.  1.
         11    1    5    5    0    0 -0.42321362421E+03  0.42567820218E+03 -0.11915516419E+03  0.61197194109E+03  0.00000000000E+00 0. -1.
        -11    1    5    5    0    0 -0.57943423034E+02  0.51441217538E+02  0.16018353818E+02  0.79121594990E+02  0.00000000000E+00 0.  1.
          3    1    6    6  503    0  0.19661456240E+03 -0.17828770726E+02 -0.16887937550E+03  0.25979875804E+03  0.00000000000E+00 0. -1.
         -3    1    6    6    0  503  0.88974650438E+02 -0.75475317084E+02 -0.97149381259E+02  0.15182560452E+03  0.00000000000E+00 0.  1.
<mgrwt>
<rscale>  0 0.14868246E+04</rscale>
<asrwt>0</asrwt>
<pdfrwt beam="1">  1        2 0.15054205E+00 0.14868246E+04</pdfrwt>
<pdfrwt beam="2">  1       -1 0.86891033E-01 0.14868246E+04</pdfrwt>
<totfact> 0.37462060E+01</totfact>
</mgrwt>
</event>
<event>
12    6  0.1457317E-007  0.2148435E+04  0.7818608E-02  0.8540203E-01
         -1   -1    0    0    0  501 -0.00000000000E+00  0.00000000000E+00  0.45803372599E+03  0.45803372599E+03  0.00000000000E+00 0.  1.
          2   -1    0    0  501    0  0.00000000000E+00 -0.00000000000E+00 -0.25193406164E+04  0.25193406164E+04  0.00000000000E+00 0. -1.
         24    2    1    2    0    0 -0.10361194758E+03 -0.83297597145E+03 -0.92048130570E+03  0.12484143510E+04  0.81658758478E+02 0.  0.
        254    2    1    2    0    0  0.10361194758E+03  0.83297597145E+03 -0.11408255847E+04  0.17289599914E+04  0.99158218646E+03 0.  0.
         23    2    4    4    0    0 -0.35013262965E+03  0.36080380105E+02 -0.44183971285E+03  0.57223926128E+03  0.91327915332E+02 0.  0.
         23    2    4    4    0    0  0.45374457723E+03  0.79689559134E+03 -0.69898587182E+03  0.11567207301E+04  0.92167638597E+02 0.  0.
          2    1    3    3  502    0 -0.10864165441E+03 -0.57134774200E+03 -0.64352639628E+03  0.86739118861E+03  0.00000000000E+00 0. -1.
         -1    1    3    3    0  502  0.50297068300E+01 -0.26162822945E+03 -0.27695490942E+03  0.38102316235E+03  0.00000000000E+00 0.  1.
         11    1    5    5    0    0 -0.10052575795E+03  0.40222257905E+02 -0.18298839929E+03  0.21262175881E+03  0.00000000000E+00 0. -1.
        -11    1    5    5    0    0 -0.24960687170E+03 -0.41418778004E+01 -0.25885131356E+03  0.35961750247E+03  0.00000000000E+00 0.  1.
          3    1    6    6  503    0  0.77156416344E+02  0.76938068189E+02 -0.75402730561E+02  0.13250717224E+03  0.00000000000E+00 0. -1.
         -3    1    6    6    0  503  0.37658816089E+03  0.71995752315E+03 -0.62358314126E+03  0.10242135579E+04  0.00000000000E+00 0.  1.
<mgrwt>
<rscale>  0 0.21484348E+04</rscale>
<asrwt>0</asrwt>
<pdfrwt beam="1">  1        2 0.38759087E+00 0.21484348E+04</pdfrwt>
<pdfrwt beam="2">  1       -1 0.70466727E-01 0.21484348E+04</pdfrwt>
<totfact> 0.72137128E+00</totfact>
</mgrwt>
</event>
<event>
12    6  0.1457317E-007  0.1688434E+04  0.7818608E-02  0.8767989E-01
          2   -1    0    0  501    0  0.00000000000E+00  0.00000000000E+00  0.99518516571E+03  0.99518516571E+03  0.00000000000E+00 0. -1.
         -1   -1    0    0    0  501 -0.00000000000E+00 -0.00000000000E+00 -0.71615042571E+03  0.71615042571E+03  0.00000000000E+00 0.  1.
         24    2    1    2    0    0  0.39107066798E+03  0.24255081521E+03  0.45640833492E+03  0.65303341819E+03  0.79855568250E+02 0.  0.
        254    2    1    2    0    0 -0.39107066798E+03 -0.24255081521E+03 -0.17737359491E+03  0.10583021732E+04  0.93636260730E+03 0.  0.
         23    2    4    4    0    0 -0.45618216077E+03 -0.16180426935E+03  0.28985724722E+03  0.57134454364E+03  0.90191897684E+02 0.  0.
         23    2    4    4    0    0  0.65111492784E+02 -0.80746545864E+02 -0.46723084213E+03  0.48695762958E+03  0.89797338520E+02 0.  0.
          2    1    3    3  502    0  0.33636297499E+03  0.17204560701E+03  0.37079415078E+03  0.52936569977E+03  0.00000000000E+00 0. -1.
         -1    1    3    3    0  502  0.54707692992E+02  0.70505208197E+02  0.85614184133E+02  0.12366771842E+03  0.00000000000E+00 0.  1.
         11    1    5    5    0    0 -0.25895551238E+03 -0.13852593822E+03  0.17809773042E+03  0.34346207147E+03  0.00000000000E+00 0. -1.
        -11    1    5    5    0    0 -0.19722664838E+03 -0.23278331127E+02  0.11175951679E+03  0.22788247218E+03  0.00000000000E+00 0.  1.
          1    1    6    6  503    0  0.62157623860E+02 -0.61460413191E+02 -0.45629189424E+03  0.46458932977E+03  0.00000000000E+00 0. -1.
         -1    1    6    6    0  503  0.29538689241E+01 -0.19286132673E+02 -0.10938947892E+02  0.22368299803E+02  0.00000000000E+00 0.  1.
<mgrwt>
<rscale>  0 0.16884339E+04</rscale>
<asrwt>0</asrwt>
<pdfrwt beam="1">  1        2 0.15310541E+00 0.16884339E+04</pdfrwt>
<pdfrwt beam="2">  1       -1 0.11017699E+00 0.16884339E+04</pdfrwt>
<totfact> 0.20962405E+01</totfact>
</mgrwt>
</event>
<event>
12    6  0.1457317E-007  0.3091402E+04  0.7818608E-02  0.8218102E-01
          2   -1    0    0  501    0  0.00000000000E+00  0.00000000000E+00  0.19659850222E+04  0.19659850222E+04  0.00000000000E+00 0. -1.
         -1   -1    0    0    0  501 -0.00000000000E+00 -0.00000000000E+00 -0.12152643428E+04  0.12152643428E+04  0.00000000000E+00 0.  1.
         24    2    1    2    0    0  0.10775573726E+04 -0.83896442643E+02  0.12832539570E+04  0.16796744987E+04  0.79982492771E+02 0.  0.
        254    2    1    2    0    0 -0.10775573726E+04  0.83896442643E+02 -0.53253327762E+03  0.15015748663E+04  0.89608419413E+03 0.  0.
         23    2    4    4    0    0  0.58732989472E+02  0.10048261179E+03 -0.30676219321E+03  0.34006460611E+03  0.89412380678E+02 0.  0.
         23    2    4    4    0    0 -0.11362903620E+04 -0.16586169148E+02 -0.22577108440E+03  0.11615102601E+04  0.81869493932E+02 0.  0.
          2    1    3    3  502    0  0.54466106905E+03 -0.16636500325E+02  0.69372747380E+03  0.88215092880E+03  0.00000000000E+00 0. -1.
         -1    1    3    3    0  502  0.53289630350E+03 -0.67259942318E+02  0.58952648323E+03  0.79752356991E+03  0.00000000000E+00 0.  1.
         11    1    5    5    0    0  0.73608508091E+01  0.81086897125E+02 -0.11717891139E+03  0.14268904753E+03  0.00000000000E+00 0. -1.
        -11    1    5    5    0    0  0.51372138663E+02  0.19395714667E+02 -0.18958328183E+03  0.19737555858E+03  0.00000000000E+00 0.  1.
          2    1    6    6  503    0 -0.38197817828E+03  0.72527777897E+01 -0.38846713671E+02  0.38401692493E+03  0.00000000000E+00 0. -1.
         -2    1    6    6    0  503 -0.75431218375E+03 -0.23838946938E+02 -0.18692437073E+03  0.77749333522E+03  0.00000000000E+00 0.  1.
<mgrwt>
<rscale>  0 0.30914019E+04</rscale>
<asrwt>0</asrwt>
<pdfrwt beam="1">  1        2 0.30245923E+00 0.30914019E+04</pdfrwt>
<pdfrwt beam="2">  1       -1 0.18696375E+00 0.30914019E+04</pdfrwt>
<totfact> 0.12520575E+00</totfact>
</mgrwt>
</event>
<event>
12    6  0.1457317E-007  0.2963374E+04  0.7818608E-02  0.8254268E-01
          2   -1    0    0  501    0  0.00000000000E+00  0.00000000000E+00  0.16125578847E+04  0.16125578847E+04  0.00000000000E+00 0. -1.
         -1   -1    0    0    0  501 -0.00000000000E+00 -0.00000000000E+00 -0.13614375049E+04  0.13614375049E+04  0.00000000000E+00 0.  1.
         24    2    1    2    0    0  0.49608807664E+03 -0.76924989682E+03  0.11013442298E+04  0.14342996239E+04  0.80046955966E+02 0.  0.
        254    2    1    2    0    0 -0.49608807664E+03  0.76924989682E+03 -0.85022384999E+03  0.15396957657E+04  0.89996315049E+03 0.  0.
         23    2    4    4    0    0 -0.16611227876E+03  0.19307083698E+02 -0.66972707923E+03  0.69617600086E+03  0.90336099525E+02 0.  0.
         23    2    4    4    0    0 -0.32997579788E+03  0.74994281312E+03 -0.18049677075E+03  0.84351976483E+03  0.87454326710E+02 0.  0.
          4    1    3    3  502    0  0.30072999534E+03 -0.40120693046E+03  0.63030884636E+03  0.80541590061E+03  0.00000000000E+00 0. -1.
         -3    1    3    3    0  502  0.19535808130E+03 -0.36804296636E+03  0.47103538344E+03  0.62888372333E+03  0.00000000000E+00 0.  1.
         11    1    5    5    0    0 -0.16573978162E+03 -0.49320193606E+01 -0.58134047421E+03  0.60452522444E+03  0.00000000000E+00 0.  1.
        -11    1    5    5    0    0 -0.37249714315E+00  0.24239103059E+02 -0.88386605024E+02  0.91650776423E+02  0.00000000000E+00 0. -1.
          2    1    6    6  503    0 -0.82130511547E+02  0.14442966916E+03 -0.68569412062E+02  0.17974179962E+03  0.00000000000E+00 0. -1.
         -2    1    6    6    0  503 -0.24784528634E+03  0.60551314396E+03 -0.11192735869E+03  0.66377796520E+03  0.00000000000E+00 0.  1.
<mgrwt>
<rscale>  0 0.29633743E+04</rscale>
<asrwt>0</asrwt>
<pdfrwt beam="1">  1        2 0.24808583E+00 0.29633743E+04</pdfrwt>
<pdfrwt beam="2">  1       -1 0.20945192E+00 0.29633743E+04</pdfrwt>
<totfact> 0.13907586E+00</totfact>
</mgrwt>
</event>
<event>
12    6  0.1457317E-007  0.1495726E+04  0.7818608E-02  0.8887300E-01
          2   -1    0    0  501    0  0.00000000000E+00  0.00000000000E+00  0.92731400049E+03  0.92731400049E+03  0.00000000000E+00 0. -1.
         -1   -1    0    0    0  501 -0.00000000000E+00 -0.00000000000E+00 -0.60313874158E+03  0.60313874158E+03  0.00000000000E+00 0.  1.
         24    2    1    2    0    0 -0.32479853078E+03 -0.14495565700E+03  0.40553671454E+03  0.54531235178E+03  0.79995662828E+02 0.  0.
        254    2    1    2    0    0  0.32479853078E+03  0.14495565700E+03 -0.81361455621E+02  0.98514039029E+03  0.91508233183E+03 0.  0.
         23    2    4    4    0    0  0.54236063935E+03  0.15984407774E+03 -0.31308087410E+03  0.65295726264E+03  0.92888970306E+02 0.  0.
         23    2    4    4    0    0 -0.21756210856E+03 -0.14888420741E+02  0.23171941848E+03  0.33218312765E+03  0.95377173595E+02 0.  0.
          4    1    3    3  502    0 -0.30402343161E+03 -0.15229877902E+03  0.36287431355E+03  0.49729561882E+03  0.00000000000E+00 0. -1.
         -3    1    3    3    0  502 -0.20775099171E+02  0.73431220182E+01  0.42662400986E+02  0.48016732963E+02  0.00000000000E+00 0.  1.
         11    1    5    5    0    0  0.49678260463E+03  0.11748488429E+03 -0.27240786397E+03  0.57862051351E+03  0.00000000000E+00 0. -1.
        -11    1    5    5    0    0  0.45578034713E+02  0.42359193446E+02 -0.40673010130E+02  0.74336749127E+02  0.00000000000E+00 0.  1.
          3    1    6    6  503    0 -0.14173562172E+03  0.12834048534E+01  0.82445565142E+02  0.16397531767E+03  0.00000000000E+00 0. -1.
         -3    1    6    6    0  503 -0.75826486839E+02 -0.16171825595E+02  0.14927385334E+03  0.16820780999E+03  0.00000000000E+00 0.  1.
<mgrwt>
<rscale>  0 0.14957259E+04</rscale>
<asrwt>0</asrwt>
<pdfrwt beam="1">  1        2 0.14266369E+00 0.14957259E+04</pdfrwt>
<pdfrwt beam="2">  1       -1 0.92790576E-01 0.14957259E+04</pdfrwt>
<totfact> 0.35002537E+01</totfact>
</mgrwt>
</event>
<event>
12    6  0.1457317E-007  0.1208126E+04  0.7818608E-02  0.9105773E-01
         -1   -1    0    0    0  501 -0.00000000000E+00  0.00000000000E+00  0.20980961946E+03  0.20980961946E+03  0.00000000000E+00 0.  1.
          2   -1    0    0  501    0  0.00000000000E+00 -0.00000000000E+00 -0.17391593472E+04  0.17391593472E+04  0.00000000000E+00 0. -1.
         24    2    1    2    0    0 -0.18399821783E+03 -0.83032081014E+02 -0.58930988676E+03  0.63054252579E+03  0.97714193206E+02 0.  0.
        254    2    1    2    0    0  0.18399821783E+03  0.83032081014E+02 -0.94003984096E+03  0.13184264408E+04  0.90212178041E+03 0.  0.
         23    2    4    4    0    0 -0.33196879699E+03 -0.11411760541E+03 -0.40370301754E+03  0.54286806601E+03  0.92214427787E+02 0.  0.
         23    2    4    4    0    0  0.51596701482E+03  0.19714968642E+03 -0.53633682342E+03  0.77555837483E+03  0.93507461590E+02 0.  0.
          2    1    3    3  502    0 -0.10634687858E+03 -0.29045908984E+02 -0.44158175233E+03  0.45513488924E+03  0.00000000000E+00 0. -1.
         -1    1    3    3    0  502 -0.77651339248E+02 -0.53986172030E+02 -0.14772813442E+03  0.17540763654E+03  0.00000000000E+00 0.  1.
         11    1    5    5    0    0 -0.25452939488E+03 -0.62775042996E+02 -0.24418222520E+03  0.35826090769E+03  0.00000000000E+00 0.  1.
        -11    1    5    5    0    0 -0.77439402110E+02 -0.51342562410E+02 -0.15952079234E+03  0.18460715832E+03  0.00000000000E+00 0. -1.
          2    1    6    6  503    0  0.42263689043E+03  0.18237641187E+03 -0.40087899667E+03  0.61039910446E+03  0.00000000000E+00 0.  1.
         -2    1    6    6    0  503  0.93330124393E+02  0.14773274547E+02 -0.13545782675E+03  0.16515927037E+03  0.00000000000E+00 0. -1.
<mgrwt>
<rscale>  0 0.12081264E+04</rscale>
<asrwt>0</asrwt>
<pdfrwt beam="1">  1        2 0.26756297E+00 0.12081264E+04</pdfrwt>
<pdfrwt beam="2">  1       -1 0.32278404E-01 0.12081264E+04</pdfrwt>
<totfact> 0.93962599E+01</totfact>
</mgrwt>
</event>
<event>
12    6  0.1457317E-007  0.2999290E+04  0.7818608E-02  0.8243934E-01
          2   -1    0    0  501    0  0.00000000000E+00  0.00000000000E+00  0.32586468115E+04  0.32586468115E+04  0.00000000000E+00 0. -1.
         -1   -1    0    0    0  501 -0.00000000000E+00 -0.00000000000E+00 -0.69014365792E+03  0.69014365792E+03  0.00000000000E+00 0.  1.
         24    2    1    2    0    0  0.57380796755E+03  0.23096824657E+03  0.27602737962E+04  0.28299510568E+04  0.83124240438E+02 0.  0.
        254    2    1    2    0    0 -0.57380796755E+03 -0.23096824657E+03 -0.19177064258E+03  0.11188394127E+04  0.91237258695E+03 0.  0.
         23    2    4    4    0    0  0.15838901864E+03  0.45214203660E+02  0.16761490664E+03  0.25279162334E+03  0.93152790953E+02 0.  0.
         23    2    4    4    0    0 -0.73219698618E+03 -0.27618245023E+03 -0.35938554922E+03  0.86604778932E+03  0.92150029883E+02 0.  0.
          2    1    3    3  502    0  0.28289647829E+03  0.12454256641E+03  0.11956330665E+04  0.12349411718E+04  0.00000000000E+00 0. -1.
         -3    1    3    3    0  502  0.29091148926E+03  0.10642568016E+03  0.15646407297E+04  0.15950098849E+04  0.00000000000E+00 0.  1.
         11    1    5    5    0    0  0.38203064917E+02  0.49924224627E+02  0.28889809877E+02  0.69184705596E+02  0.00000000000E+00 0.  1.
        -11    1    5    5    0    0  0.12018595372E+03 -0.47100209670E+01  0.13872509677E+03  0.18360691774E+03  0.00000000000E+00 0. -1.
          2    1    6    6  503    0 -0.35973847849E+03 -0.11881863380E+03 -0.22146342442E+03  0.43883446651E+03  0.00000000000E+00 0. -1.
         -2    1    6    6    0  503 -0.37245850769E+03 -0.15736381643E+03 -0.13792212480E+03  0.42721332281E+03  0.00000000000E+00 0.  1.
<mgrwt>
<rscale>  0 0.29992895E+04</rscale>
<asrwt>0</asrwt>
<pdfrwt beam="1">  1        2 0.50133027E+00 0.29992895E+04</pdfrwt>
<pdfrwt beam="2">  1       -1 0.10617595E+00 0.29992895E+04</pdfrwt>
<totfact> 0.95656206E-01</totfact>
</mgrwt>
</event>
<event>
12    6  0.1457317E-007  0.1656086E+04  0.7818608E-02  0.8786814E-01
         -1   -1    0    0    0  501 -0.00000000000E+00  0.00000000000E+00  0.32824992657E+03  0.32824992657E+03  0.00000000000E+00 0.  1.
          2   -1    0    0  501    0  0.00000000000E+00 -0.00000000000E+00 -0.20888215590E+04  0.20888215590E+04  0.00000000000E+00 0. -1.
         24    2    1    2    0    0 -0.17468398752E+03 -0.12110815408E+03  0.16416403958E+03  0.28176535295E+03  0.85206817507E+02 0.  0.
        254    2    1    2    0    0  0.17468398752E+03  0.12110815408E+03 -0.19247356720E+04  0.21353061326E+04  0.89985731781E+03 0.  0.
         23    2    4    4    0    0  0.14270607889E+03 -0.36585590725E+03 -0.61967012517E+03  0.73904592051E+03  0.89343375599E+02 0.  0.
         23    2    4    4    0    0  0.31977908627E+02  0.48696406133E+03 -0.13050655469E+04  0.13962602121E+04  0.90498147627E+02 0.  0.
          2    1    3    3  502    0 -0.26888132337E+02 -0.16536512811E+02  0.71982581308E+02  0.78599745091E+02  0.00000000000E+00 0. -1.
         -1    1    3    3    0  502 -0.14779585518E+03 -0.10457164127E+03  0.92181458275E+02  0.20316560785E+03  0.00000000000E+00 0.  1.
         11    1    5    5    0    0  0.55647353240E+02 -0.24843548782E+03 -0.35765435108E+03  0.43901418471E+03  0.00000000000E+00 0. -1.
        -11    1    5    5    0    0  0.87058725649E+02 -0.11742041943E+03 -0.26201577409E+03  0.30003173580E+03  0.00000000000E+00 0.  1.
          1    1    6    6  503    0  0.61103342310E+02  0.25284631493E+03 -0.66067113593E+03  0.71003607463E+03  0.00000000000E+00 0. -1.
         -1    1    6    6    0  503 -0.29125433683E+02  0.23411774639E+03 -0.64439441092E+03  0.68622413750E+03  0.00000000000E+00 0.  1.
<mgrwt>
<rscale>  0 0.16560864E+04</rscale>
<asrwt>0</asrwt>
<pdfrwt beam="1">  1        2 0.32135717E+00 0.16560864E+04</pdfrwt>
<pdfrwt beam="2">  1       -1 0.50499988E-01 0.16560864E+04</pdfrwt>
<totfact> 0.25538545E+01</totfact>
</mgrwt>
</event>
<event>
12    6  0.1457317E-007  0.1605501E+04  0.7818608E-02  0.8817176E-01
         -1   -1    0    0    0  501 -0.00000000000E+00  0.00000000000E+00  0.83703628602E+03  0.83703628602E+03  0.00000000000E+00 0.  1.
          2   -1    0    0  501    0  0.00000000000E+00 -0.00000000000E+00 -0.76986898576E+03  0.76986898576E+03  0.00000000000E+00 0. -1.
         24    2    1    2    0    0  0.78189107181E+02  0.14940066840E+03  0.54806829470E+03  0.57909476303E+03  0.80856618289E+02 0.  0.
        254    2    1    2    0    0 -0.78189107181E+02 -0.14940066840E+03 -0.48090099444E+03  0.10278105087E+04  0.89257749201E+03 0.  0.
         23    2    4    4    0    0  0.24297816305E+03  0.67284316543E+02 -0.56231579391E+03  0.62298636670E+03  0.91364074132E+02 0.  0.
         23    2    4    4    0    0 -0.32116727023E+03 -0.21668498495E+03  0.81414799470E+02  0.40482414205E+03  0.84577882714E+02 0.  0.
          2    1    3    3  502    0  0.46509926424E+02  0.20030221789E+02  0.10744427976E+03  0.11877986485E+03  0.00000000000E+00 0. -1.
         -1    1    3    3    0  502  0.31679180757E+02  0.12937044661E+03  0.44062401494E+03  0.46031489819E+03  0.00000000000E+00 0.  1.
         11    1    5    5    0    0  0.41232874441E+02 -0.12356374777E+02 -0.46184846489E+02  0.63133746741E+02  0.00000000000E+00 0. -1.
        -11    1    5    5    0    0  0.20174528861E+03  0.79640691321E+02 -0.51613094742E+03  0.55985261996E+03  0.00000000000E+00 0.  1.
          4    1    6    6  503    0 -0.35568898906E+02  0.37635690622E+01  0.77937603702E+01  0.36606744218E+02  0.00000000000E+00 0. -1.
         -4    1    6    6    0  503 -0.28559837132E+03 -0.22044855401E+03  0.73621039099E+02  0.36821739783E+03  0.00000000000E+00 0.  1.
<mgrwt>
<rscale>  0 0.16055009E+04</rscale>
<asrwt>0</asrwt>
<pdfrwt beam="1">  1        2 0.11844138E+00 0.16055009E+04</pdfrwt>
<pdfrwt beam="2">  1       -1 0.12877481E+00 0.16055009E+04</pdfrwt>
<totfact> 0.20606086E+01</totfact>
</mgrwt>
</event>
<event>
12    6  0.1457317E-007  0.1928965E+04  0.7818608E-02  0.8640572E-01
          2   -1    0    0  501    0  0.00000000000E+00  0.00000000000E+00  0.25818541452E+04  0.25818541452E+04  0.00000000000E+00 0. -1.
         -1   -1    0    0    0  501 -0.00000000000E+00 -0.00000000000E+00 -0.36029387510E+03  0.36029387510E+03  0.00000000000E+00 0.  1.
         24    2    1    2    0    0 -0.68567028082E+03  0.14676248820E+03  0.12431631770E+04  0.14295478567E+04  0.80432754446E+02 0.  0.
        254    2    1    2    0    0  0.68567028082E+03 -0.14676248820E+03  0.97839709318E+03  0.15126001637E+04  0.91597784978E+03 0.  0.
         23    2    4    4    0    0  0.29502919810E+03  0.49902091926E+02 -0.11382152039E+03  0.33262404351E+03  0.90282718786E+02 0.  0.
         23    2    4    4    0    0  0.39064108272E+03 -0.19666458012E+03  0.10922186136E+04  0.11799761202E+04  0.90137293922E+02 0.  0.
          4    1    3    3  502    0 -0.61702354689E+03  0.10634967942E+03  0.11060920619E+04  0.12710106062E+04  0.00000000000E+00 0. -1.
         -1    1    3    3    0  502 -0.68646733929E+02  0.40412808777E+02  0.13707111506E+03  0.15853725044E+03  0.00000000000E+00 0.  1.
         11    1    5    5    0    0  0.38101975504E+02  0.35278332314E+02 -0.18022166795E+01  0.51957379198E+02  0.00000000000E+00 0. -1.
        -11    1    5    5    0    0  0.25692722259E+03  0.14623759611E+02 -0.11201930371E+03  0.28066666432E+03  0.00000000000E+00 0.  1.
          3    1    6    6  503    0  0.31660964423E+03 -0.11751099998E+03  0.84907419375E+03  0.91377102626E+03  0.00000000000E+00 0.  1.
         -3    1    6    6    0  503  0.74031438493E+02 -0.79153580146E+02  0.24314441981E+03  0.26620509391E+03  0.00000000000E+00 0. -1.
<mgrwt>
<rscale>  0 0.19289647E+04</rscale>
<asrwt>0</asrwt>
<pdfrwt beam="1">  1        2 0.39720832E+00 0.19289647E+04</pdfrwt>
<pdfrwt beam="2">  1       -1 0.55429828E-01 0.19289647E+04</pdfrwt>
<totfact> 0.10928443E+01</totfact>
</mgrwt>
</event>
<event>
12    6  0.1457317E-007  0.2557897E+04  0.7818608E-02  0.8382645E-01
         -1   -1    0    0    0  501 -0.00000000000E+00  0.00000000000E+00  0.15826218653E+04  0.15826218653E+04  0.00000000000E+00 0.  1.
          2   -1    0    0  501    0  0.00000000000E+00 -0.00000000000E+00 -0.10335437431E+04  0.10335437431E+04  0.00000000000E+00 0. -1.
         24    2    1    2    0    0 -0.70998706473E+03 -0.53244818056E+03 -0.45735195333E+03  0.10022744856E+04  0.88321221295E+02 0.  0.
        254    2    1    2    0    0  0.70998706473E+03  0.53244818056E+03  0.10064300755E+04  0.16138911229E+04  0.89674988851E+03 0.  0.
         23    2    4    4    0    0  0.76274533370E+03  0.57760474326E+02  0.68510168532E+03  0.10310837889E+04  0.93020126961E+02 0.  0.
         23    2    4    4    0    0 -0.52758268974E+02  0.47468770623E+03  0.32132839016E+03  0.58280733396E+03  0.91107633042E+02 0.  0.
          4    1    3    3  502    0 -0.50062176512E+03 -0.42363315825E+03 -0.33048145134E+03  0.73437401517E+03  0.00000000000E+00 0. -1.
         -3    1    3    3    0  502 -0.20936529960E+03 -0.10881502231E+03 -0.12687050199E+03  0.26790047039E+03  0.00000000000E+00 0.  1.
         11    1    5    5    0    0  0.52550199779E+03  0.37751981525E+02  0.41235116677E+03  0.66903740294E+03  0.00000000000E+00 0. -1.
        -11    1    5    5    0    0  0.23724333591E+03  0.20008492801E+02  0.27275051855E+03  0.36204638596E+03  0.00000000000E+00 0.  1.
          1    1    6    6  503    0 -0.96341176812E+01  0.39719090766E+03  0.25570658819E+03  0.47248205532E+03  0.00000000000E+00 0. -1.
         -1    1    6    6    0  503 -0.43124151292E+02  0.77496798572E+02  0.65621801972E+02  0.11032527864E+03  0.00000000000E+00 0.  1.
<mgrwt>
<rscale>  0 0.25578967E+04</rscale>
<asrwt>0</asrwt>
<pdfrwt beam="1">  1        2 0.15900673E+00 0.25578967E+04</pdfrwt>
<pdfrwt beam="2">  1       -1 0.24348029E+00 0.25578967E+04</pdfrwt>
<totfact> 0.18660088E+00</totfact>
</mgrwt>
</event>
<event>
12    6  0.1457317E-007  0.2362260E+04  0.7818608E-02  0.8453770E-01
          2   -1    0    0  501    0  0.00000000000E+00  0.00000000000E+00  0.17535543317E+04  0.17535543317E+04  0.00000000000E+00 0. -1.
         -1   -1    0    0    0  501 -0.00000000000E+00 -0.00000000000E+00 -0.79556580367E+03  0.79556580367E+03  0.00000000000E+00 0.  1.
         24    2    1    2    0    0 -0.95830091928E+02  0.96080505633E+02  0.14435084546E+04  0.14521565461E+04  0.81407037234E+02 0.  0.
        254    2    1    2    0    0  0.95830091928E+02 -0.96080505633E+02 -0.48551992660E+03  0.10969635893E+04  0.97426107741E+03 0.  0.
         23    2    4    4    0    0  0.34582833767E+03 -0.40373096618E+03 -0.12551185332E+03  0.55395281532E+03  0.92274395615E+02 0.  0.
         23    2    4    4    0    0 -0.24999824574E+03  0.30765046054E+03 -0.36000807328E+03  0.54301077395E+03  0.90038653074E+02 0.  0.
          2    1    3    3  502    0 -0.11029992194E+03  0.78080285815E+02  0.12391240590E+04  0.12464714347E+04  0.00000000000E+00 0. -1.
         -1    1    3    3    0  502  0.14469830011E+02  0.18000219818E+02  0.20438439564E+03  0.20568511145E+03  0.00000000000E+00 0.  1.
         11    1    5    5    0    0  0.32413438694E+03 -0.37661835626E+03 -0.14013264415E+03  0.51627671362E+03  0.00000000000E+00 0.  1.
        -11    1    5    5    0    0  0.21693950728E+02 -0.27112609914E+02  0.14620790824E+02  0.37676101694E+02  0.00000000000E+00 0. -1.
          4    1    6    6  503    0 -0.78924211220E+02  0.43198513666E+02 -0.60846500108E+02  0.10861601758E+03  0.00000000000E+00 0. -1.
         -4    1    6    6    0  503 -0.17107403453E+03  0.26445194688E+03 -0.29916157317E+03  0.43439475637E+03  0.00000000000E+00 0.  1.
<mgrwt>
<rscale>  0 0.23622598E+04</rscale>
<asrwt>0</asrwt>
<pdfrwt beam="1">  1        2 0.26977759E+00 0.23622598E+04</pdfrwt>
<pdfrwt beam="2">  1       -1 0.12239474E+00 0.23622598E+04</pdfrwt>
<totfact> 0.55449856E+00</totfact>
</mgrwt>
</event>
<event>
12    6  0.1457317E-007  0.2105209E+04  0.7818608E-02  0.8558952E-01
          2   -1    0    0  501    0  0.00000000000E+00  0.00000000000E+00  0.73535099818E+03  0.73535099818E+03  0.00000000000E+00 0. -1.
         -1   -1    0    0    0  501 -0.00000000000E+00 -0.00000000000E+00 -0.15067308136E+04  0.15067308136E+04  0.00000000000E+00 0.  1.
         24    2    1    2    0    0  0.72203424040E+03 -0.15150453209E+03 -0.81261051531E+03  0.11004187592E+04  0.79363268722E+02 0.  0.
        254    2    1    2    0    0 -0.72203424040E+03  0.15150453209E+03  0.41230699887E+02  0.11416630526E+04  0.87029161061E+03 0.  0.
         23    2    4    4    0    0 -0.25254713508E+03  0.18780005911E+03 -0.38027117686E+03  0.50291012785E+03  0.96247135565E+02 0.  0.
         23    2    4    4    0    0 -0.46948710532E+03 -0.36295527018E+02  0.42150187675E+03  0.63875292474E+03  0.92768310428E+02 0.  0.
          2    1    3    3  502    0  0.72269965400E+02  0.13720775028E+01 -0.55932757130E+02  0.91396410300E+02  0.00000000000E+00 0. -1.
         -1    1    3    3    0  502  0.64976427500E+03 -0.15287660959E+03 -0.75667775818E+03  0.10090223489E+04  0.00000000000E+00 0.  1.
         11    1    5    5    0    0 -0.23261215630E+03  0.17645363054E+03 -0.29676022046E+03  0.41630629041E+03  0.00000000000E+00 0. -1.
        -11    1    5    5    0    0 -0.19934978785E+02  0.11346428569E+02 -0.83510956400E+02  0.86603837440E+02  0.00000000000E+00 0.  1.
          4    1    6    6  503    0 -0.38889021529E+03 -0.55887299936E+02  0.31384441224E+03  0.50284918706E+03  0.00000000000E+00 0.  1.
         -4    1    6    6    0  503 -0.80596890034E+02  0.19591772918E+02  0.10765746451E+03  0.13590373768E+03  0.00000000000E+00 0. -1.
<mgrwt>
<rscale>  0 0.21052088E+04</rscale>
<asrwt>0</asrwt>
<pdfrwt beam="1">  1        2 0.11313092E+00 0.21052088E+04</pdfrwt>
<pdfrwt beam="2">  1       -1 0.23180474E+00 0.21052088E+04</pdfrwt>
<totfact> 0.37135227E+00</totfact>
</mgrwt>
</event>
<event>
12    6  0.1457317E-007  0.1475489E+04  0.7818608E-02  0.8900918E-01
          2   -1    0    0  501    0  0.00000000000E+00  0.00000000000E+00  0.13938427964E+04  0.13938427964E+04  0.00000000000E+00 0. -1.
         -1   -1    0    0    0  501 -0.00000000000E+00 -0.00000000000E+00 -0.39047934968E+03  0.39047934968E+03  0.00000000000E+00 0.  1.
         24    2    1    2    0    0  0.94757772379E+02  0.38698575725E+03  0.59008219741E+03  0.71640930291E+03  0.79424667782E+02 0.  0.
        254    2    1    2    0    0 -0.94757772379E+02 -0.38698575725E+03  0.41328124935E+03  0.10679128432E+04  0.90049954908E+03 0.  0.
         23    2    4    4    0    0  0.24603625042E+03 -0.37143990127E+03  0.52752085780E+03  0.69624253228E+03  0.89297097210E+02 0.  0.
         23    2    4    4    0    0 -0.34079402280E+03 -0.15545855978E+02 -0.11423960845E+03  0.37167031093E+03  0.93305371063E+02 0.  0.
          4    1    3    3  502    0  0.10242464800E+03  0.34131123093E+03  0.54893815873E+03  0.65445952280E+03  0.00000000000E+00 0. -1.
         -3    1    3    3    0  502 -0.76668756189E+01  0.45674526319E+02  0.41144038682E+02  0.61949780107E+02  0.00000000000E+00 0.  1.
         11    1    5    5    0    0  0.10505816150E+03 -0.88077277094E+02  0.14076460290E+03  0.19649299598E+03  0.00000000000E+00 0. -1.
        -11    1    5    5    0    0  0.14097808892E+03 -0.28336262417E+03  0.38675625489E+03  0.49974953630E+03  0.00000000000E+00 0.  1.
          1    1    6    6  503    0 -0.20904857172E+03 -0.54845857597E+02 -0.66154727136E+02  0.22602172762E+03  0.00000000000E+00 0. -1.
         -1    1    6    6    0  503 -0.13174545108E+03  0.39300001620E+02 -0.48084881315E+02  0.14564858330E+03  0.00000000000E+00 0.  1.
<mgrwt>
<rscale>  0 0.14754888E+04</rscale>
<asrwt>0</asrwt>
<pdfrwt beam="1">  1        2 0.21443735E+00 0.14754888E+04</pdfrwt>
<pdfrwt beam="2">  1       -1 0.60073747E-01 0.14754888E+04</pdfrwt>
<totfact> 0.45217613E+01</totfact>
</mgrwt>
</event>
<event>
12    6  0.1457317E-007  0.2679958E+04  0.7818608E-02  0.8341537E-01
         -1   -1    0    0    0  501 -0.00000000000E+00  0.00000000000E+00  0.20931320222E+04  0.20931320222E+04  0.00000000000E+00 0.  1.
          2   -1    0    0  501    0  0.00000000000E+00 -0.00000000000E+00 -0.85782600718E+03  0.85782600718E+03  0.00000000000E+00 0. -1.
         24    2    1    2    0    0 -0.90234749289E+02  0.72503320694E+03 -0.48039221899E+03  0.87805678162E+03  0.79947273464E+02 0.  0.
        254    2    1    2    0    0  0.90234749289E+02 -0.72503320694E+03  0.17156982340E+04  0.20729012477E+04  0.90525338531E+03 0.  0.
         23    2    4    4    0    0  0.36507661025E+03 -0.41489764142E+03  0.39456054695E+03  0.68547006165E+03  0.93649324626E+02 0.  0.
         23    2    4    4    0    0 -0.27484186096E+03 -0.31013556552E+03  0.13211376871E+04  0.13874311861E+04  0.88534685133E+02 0.  0.
          4    1    3    3  502    0 -0.41769227423E+02  0.25239141077E+03 -0.12503144386E+03  0.28474366462E+03  0.00000000000E+00 0. -1.
         -3    1    3    3    0  502 -0.48465521866E+02  0.47264179618E+03 -0.35536077513E+03  0.59331311700E+03  0.00000000000E+00 0.  1.
         11    1    5    5    0    0  0.54979087332E+02 -0.47866716962E+02  0.18221208897E+02  0.75139437650E+02  0.00000000000E+00 0. -1.
        -11    1    5    5    0    0  0.31009752292E+03 -0.36703092446E+03  0.37633933805E+03  0.61033062400E+03  0.00000000000E+00 0.  1.
          3    1    6    6  503    0  0.16106980950E+01 -0.11048507205E+02  0.11949884656E+02  0.16354314511E+02  0.00000000000E+00 0. -1.
         -3    1    6    6    0  503 -0.27645255906E+03 -0.29908705832E+03  0.13091878024E+04  0.13710768716E+04  0.00000000000E+00 0.  1.
<mgrwt>
<rscale>  0 0.26799575E+04</rscale>
<asrwt>0</asrwt>
<pdfrwt beam="1">  1        2 0.13197323E+00 0.26799575E+04</pdfrwt>
<pdfrwt beam="2">  1       -1 0.32202031E+00 0.26799575E+04</pdfrwt>
<totfact> 0.74560434E-01</totfact>
</mgrwt>
</event>
<event>
12    6  0.1457317E-007  0.1446587E+04  0.7818608E-02  0.8920770E-01
         -1   -1    0    0    0  501 -0.00000000000E+00  0.00000000000E+00  0.41043929024E+03  0.41043929024E+03  0.00000000000E+00 0.  1.
          2   -1    0    0  501    0  0.00000000000E+00 -0.00000000000E+00 -0.12746184151E+04  0.12746184151E+04  0.00000000000E+00 0. -1.
         24    2    1    2    0    0 -0.11063757294E+03  0.12516643376E+03 -0.74226369390E+03  0.76516448748E+03  0.81326459017E+02 0.  0.
        254    2    1    2    0    0  0.11063757294E+03 -0.12516643376E+03 -0.12191543091E+03  0.91989321781E+03  0.89634415890E+03 0.  0.
         23    2    4    4    0    0  0.23865655623E+03  0.25762823855E+03  0.18228459568E+03  0.40656624251E+03  0.93483552548E+02 0.  0.
         23    2    4    4    0    0 -0.12801898330E+03 -0.38279467231E+03 -0.30420002659E+03  0.51332697530E+03  0.89701204879E+02 0.  0.
          2    1    3    3  502    0 -0.75128974802E+02  0.12966494931E+03 -0.61088051216E+03  0.62899313357E+03  0.00000000000E+00 0. -1.
         -1    1    3    3    0  502 -0.35508598134E+02 -0.44985155496E+01 -0.13138318174E+03  0.13617135391E+03  0.00000000000E+00 0.  1.
         11    1    5    5    0    0  0.16767833516E+03  0.11920239335E+03  0.81940760352E+02  0.22144869128E+03  0.00000000000E+00 0. -1.
        -11    1    5    5    0    0  0.70978221075E+02  0.13842584520E+03  0.10034383533E+03  0.18511755124E+03  0.00000000000E+00 0.  1.
          3    1    6    6  503    0 -0.84581453209E+02 -0.21506160303E+03 -0.11982462430E+03  0.26031414850E+03  0.00000000000E+00 0. -1.
         -3    1    6    6    0  503 -0.43437530090E+02 -0.16773306929E+03 -0.18437540229E+03  0.25301282680E+03  0.00000000000E+00 0.  1.
<mgrwt>
<rscale>  0 0.14465870E+04</rscale>
<asrwt>0</asrwt>
<pdfrwt beam="1">  1        2 0.19609514E+00 0.14465870E+04</pdfrwt>
<pdfrwt beam="2">  1       -1 0.63144507E-01 0.14465870E+04</pdfrwt>
<totfact> 0.48121012E+01</totfact>
</mgrwt>
</event>
<event>
12    6  0.1457317E-007  0.1671545E+04  0.7818608E-02  0.8777762E-01
          2   -1    0    0  501    0  0.00000000000E+00  0.00000000000E+00  0.68271356966E+03  0.68271356966E+03  0.00000000000E+00 0. -1.
         -1   -1    0    0    0  501 -0.00000000000E+00 -0.00000000000E+00 -0.10231460734E+04  0.10231460734E+04  0.00000000000E+00 0.  1.
         24    2    1    2    0    0  0.32497736425E+02  0.58447806660E+03  0.75246050827E+01  0.59084451143E+03  0.79811677110E+02 0.  0.
        254    2    1    2    0    0 -0.32497736425E+02 -0.58447806660E+03 -0.34795710883E+03  0.11150151316E+04  0.88290083305E+03 0.  0.
         23    2    4    4    0    0 -0.44053203195E+03 -0.39546525243E+03 -0.16568069488E+03  0.62142287603E+03  0.90857366978E+02 0.  0.
         23    2    4    4    0    0  0.40803429553E+03 -0.18901281416E+03 -0.18227641395E+03  0.49359225561E+03  0.90503002575E+02 0.  0.
          4    1    3    3  502    0  0.34319129652E+02  0.33832696351E+03  0.40585399892E+02  0.34247643946E+03  0.00000000000E+00 0. -1.
         -3    1    3    3    0  502 -0.18213932272E+01  0.24615110308E+03 -0.33060794809E+02  0.24836807197E+03  0.00000000000E+00 0.  1.
         11    1    5    5    0    0 -0.41378049835E+03 -0.39048672025E+03 -0.17016795320E+03  0.59384451821E+03  0.00000000000E+00 0.  1.
        -11    1    5    5    0    0 -0.26751533600E+02 -0.49785321808E+01  0.44872583212E+01  0.27578357817E+02  0.00000000000E+00 0. -1.
          3    1    6    6  503    0  0.81199157697E+02 -0.74206537537E+02 -0.23289474574E+02  0.11243804094E+03  0.00000000000E+00 0. -1.
         -3    1    6    6    0  503  0.32683513783E+03 -0.11480627663E+03 -0.15898693938E+03  0.38115421468E+03  0.00000000000E+00 0.  1.
<mgrwt>
<rscale>  0 0.16715450E+04</rscale>
<asrwt>0</asrwt>
<pdfrwt beam="1">  1        2 0.10503286E+00 0.16715450E+04</pdfrwt>
<pdfrwt beam="2">  1       -1 0.15740709E+00 0.16715450E+04</pdfrwt>
<totfact> 0.14086529E+01</totfact>
</mgrwt>
</event>
<event>
12    6  0.1457317E-007  0.2225259E+04  0.7818608E-02  0.8507988E-01
          2   -1    0    0  501    0  0.00000000000E+00  0.00000000000E+00  0.26962283901E+04  0.26962283901E+04  0.00000000000E+00 0. -1.
         -1   -1    0    0    0  501 -0.00000000000E+00 -0.00000000000E+00 -0.45913948876E+03  0.45913948876E+03  0.00000000000E+00 0.  1.
         24    2    1    2    0    0  0.25639259123E+03  0.76129667285E+03  0.15892393031E+04  0.17824297828E+04  0.77875433593E+02 0.  0.
        254    2    1    2    0    0 -0.25639259123E+03 -0.76129667285E+03  0.64784959827E+03  0.13729380961E+04  0.90550545486E+03 0.  0.
         23    2    4    4    0    0  0.11736870511E+03 -0.80848965743E+03  0.41360863399E+03  0.92021600718E+03  0.91073918571E+02 0.  0.
         23    2    4    4    0    0 -0.37376129634E+03  0.47192984578E+02  0.23424096427E+03  0.45272208891E+03  0.90353616455E+02 0.  0.
          4    1    3    3  502    0  0.21370486125E+03  0.69958327269E+03  0.14595245641E+04  0.16325741871E+04  0.00000000000E+00 0. -1.
         -3    1    3    3    0  502  0.42687729980E+02  0.61713400161E+02  0.12971473897E+03  0.14985559568E+03  0.00000000000E+00 0.  1.
         11    1    5    5    0    0  0.10469695945E+03 -0.40435833921E+03  0.20900174039E+03  0.46706407193E+03  0.00000000000E+00 0. -1.
        -11    1    5    5    0    0  0.12671745656E+02 -0.40413131822E+03  0.20460689361E+03  0.45315193525E+03  0.00000000000E+00 0.  1.
          1    1    6    6  503    0 -0.19842599550E+03  0.66064771653E+02  0.10449986403E+03  0.23378975881E+03  0.00000000000E+00 0. -1.
         -1    1    6    6    0  503 -0.17533530084E+03 -0.18871787075E+02  0.12974110025E+03  0.21893233010E+03  0.00000000000E+00 0.  1.
<mgrwt>
<rscale>  0 0.22252595E+04</rscale>
<asrwt>0</asrwt>
<pdfrwt beam="1">  1        2 0.41480436E+00 0.22252595E+04</pdfrwt>
<pdfrwt beam="2">  1       -1 0.70636846E-01 0.22252595E+04</pdfrwt>
<totfact> 0.56124113E+00</totfact>
</mgrwt>
</event>
<event>
12    6  0.1457317E-007  0.1578558E+04  0.7818608E-02  0.8833830E-01
          2   -1    0    0  501    0  0.00000000000E+00  0.00000000000E+00  0.14762550257E+04  0.14762550257E+04  0.00000000000E+00 0. -1.
         -1   -1    0    0    0  501 -0.00000000000E+00 -0.00000000000E+00 -0.42198736854E+03  0.42198736854E+03  0.00000000000E+00 0.  1.
         24    2    1    2    0    0  0.42963872675E+03  0.23719726255E+03  0.12301468838E+03  0.51203070117E+03  0.78681945201E+02 0.  0.
        254    2    1    2    0    0 -0.42963872675E+03 -0.23719726255E+03  0.93125296877E+03  0.13862116931E+04  0.90194167729E+03 0.  0.
         23    2    4    4    0    0 -0.60584908448E+03 -0.36160630118E+03  0.42534285972E+03  0.82895351273E+03  0.91843060345E+02 0.  0.
         23    2    4    4    0    0  0.17621035773E+03  0.12440903863E+03  0.50591010905E+03  0.55725818032E+03  0.89799454514E+02 0.  0.
          2    1    3    3  502    0  0.31582771293E+03  0.16830414569E+03  0.12471380059E+03  0.37898147946E+03  0.00000000000E+00 0. -1.
         -1    1    3    3    0  502  0.11381101382E+03  0.68893116859E+02 -0.16991122120E+01  0.13304922172E+03  0.00000000000E+00 0.  1.
         11    1    5    5    0    0 -0.58997301129E+02 -0.82201338012E+01  0.47296885599E+02  0.76060814665E+02  0.00000000000E+00 0. -1.
        -11    1    5    5    0    0 -0.54685178335E+03 -0.35338616738E+03  0.37804597412E+03  0.75289269807E+03  0.00000000000E+00 0.  1.
          3    1    6    6  503    0  0.87548890690E+02  0.92405424205E+02  0.19927144701E+03  0.23645862275E+03  0.00000000000E+00 0. -1.
         -3    1    6    6    0  503  0.88661467039E+02  0.32003614428E+02  0.30663866205E+03  0.32079955757E+03  0.00000000000E+00 0.  1.
<mgrwt>
<rscale>  0 0.15785575E+04</rscale>
<asrwt>0</asrwt>
<pdfrwt beam="1">  1        2 0.22711616E+00 0.15785575E+04</pdfrwt>
<pdfrwt beam="2">  1       -1 0.64921134E-01 0.15785575E+04</pdfrwt>
<totfact> 0.34472605E+01</totfact>
</mgrwt>
</event>
<event>
12    6  0.1457317E-007  0.2247407E+04  0.7818608E-02  0.8498951E-01
         -1   -1    0    0    0  501 -0.00000000000E+00  0.00000000000E+00  0.15089264823E+04  0.15089264823E+04  0.00000000000E+00 0.  1.
          2   -1    0    0  501    0  0.00000000000E+00 -0.00000000000E+00 -0.83682662242E+03  0.83682662242E+03  0.00000000000E+00 0. -1.
         24    2    1    2    0    0  0.71866549164E+03 -0.41701572083E+03 -0.17618308664E+03  0.85311121837E+03  0.79850301135E+02 0.  0.
        254    2    1    2    0    0 -0.71866549164E+03  0.41701572083E+03  0.84828294655E+03  0.14926418864E+04  0.90444106678E+03 0.  0.
         23    2    4    4    0    0 -0.34622591033E+03  0.67371375926E+03  0.46746665763E+03  0.89452327162E+03  0.88793001277E+02 0.  0.
         23    2    4    4    0    0 -0.37243958131E+03 -0.25669803843E+03  0.38081628892E+03  0.59811861476E+03  0.90109415487E+02 0.  0.
          4    1    3    3  502    0  0.62320701263E+03 -0.39123682049E+03 -0.15415498590E+03  0.75180914465E+03  0.00000000000E+00 0. -1.
         -3    1    3    3    0  502  0.95458479009E+02 -0.25778900343E+02 -0.22028100741E+02  0.10130207372E+03  0.00000000000E+00 0.  1.
         11    1    5    5    0    0  0.15969327697E+01  0.13535446867E+02  0.20753144229E+02  0.24828441585E+02  0.00000000000E+00 0. -1.
        -11    1    5    5    0    0 -0.34782284310E+03  0.66017831239E+03  0.44671351340E+03  0.86969483004E+03  0.00000000000E+00 0.  1.
          2    1    6    6  503    0  0.24280861348E+01 -0.22318968873E+01  0.16245825860E+02  0.16577207963E+02  0.00000000000E+00 0. -1.
         -2    1    6    6    0  503 -0.37486766744E+03 -0.25446614154E+03  0.36457046306E+03  0.58154140680E+03  0.00000000000E+00 0.  1.
<mgrwt>
<rscale>  0 0.22474073E+04</rscale>
<asrwt>0</asrwt>
<pdfrwt beam="1">  1        2 0.12874256E+00 0.22474073E+04</pdfrwt>
<pdfrwt beam="2">  1       -1 0.23214254E+00 0.22474073E+04</pdfrwt>
<totfact> 0.30762892E+00</totfact>
</mgrwt>
</event>
<event>
12    6  0.1457317E-007  0.1712609E+04  0.7818608E-02  0.8754206E-01
          2   -1    0    0  501    0  0.00000000000E+00  0.00000000000E+00  0.44753043677E+04  0.44753043677E+04  0.00000000000E+00 0. -1.
         -1   -1    0    0    0  501 -0.00000000000E+00 -0.00000000000E+00 -0.16384524813E+03  0.16384524813E+03  0.00000000000E+00 0.  1.
         24    2    1    2    0    0  0.21947385911E+03 -0.41360424233E+03  0.47848458119E+03  0.67432348565E+03  0.80792479574E+02 0.  0.
        254    2    1    2    0    0 -0.21947385911E+03  0.41360424233E+03  0.38329745384E+04  0.39648261302E+04  0.89939712395E+03 0.  0.
         23    2    4    4    0    0  0.32420785284E+03  0.12302264242E+03  0.19066370195E+04  0.19401559099E+04  0.93246599286E+02 0.  0.
         23    2    4    4    0    0 -0.54368171195E+03  0.29058159991E+03  0.19263375189E+04  0.20246702203E+04  0.92118369796E+02 0.  0.
          4    1    3    3  502    0  0.31316371433E+01 -0.10484449377E+02  0.36840630842E+02  0.38431275165E+02  0.00000000000E+00 0. -1.
         -3    1    3    3    0  502  0.21634222196E+03 -0.40311979296E+03  0.44164395035E+03  0.63589221049E+03  0.00000000000E+00 0.  1.
         11    1    5    5    0    0  0.38367900429E+02  0.24395397702E+01  0.10115935147E+03  0.10821858217E+03  0.00000000000E+00 0. -1.
        -11    1    5    5    0    0  0.28583995241E+03  0.12058310265E+03  0.18054776680E+04  0.18319373277E+04  0.00000000000E+00 0.  1.
          2    1    6    6  503    0 -0.13626500506E+03  0.66185047253E+02  0.61159636549E+03  0.63007834938E+03  0.00000000000E+00 0. -1.
         -2    1    6    6    0  503 -0.40741670688E+03  0.22439655266E+03  0.13147411534E+04  0.13945918709E+04  0.00000000000E+00 0.  1.
<mgrwt>
<rscale>  0 0.17126090E+04</rscale>
<asrwt>0</asrwt>
<pdfrwt beam="1">  1        2 0.68850827E+00 0.17126090E+04</pdfrwt>
<pdfrwt beam="2">  1       -1 0.25206965E-01 0.17126090E+04</pdfrwt>
<totfact> 0.19944181E+00</totfact>
</mgrwt>
</event>
<event>
12    6  0.1457317E-007  0.2289170E+04  0.7818608E-02  0.8482203E-01
         -1   -1    0    0    0  501 -0.00000000000E+00  0.00000000000E+00  0.81751231055E+03  0.81751231055E+03  0.00000000000E+00 0.  1.
          2   -1    0    0  501    0  0.00000000000E+00 -0.00000000000E+00 -0.16025140421E+04  0.16025140421E+04  0.00000000000E+00 0. -1.
         24    2    1    2    0    0 -0.64022820094E+03 -0.66173349140E+03 -0.64305249355E+03  0.11259644333E+04  0.80597969806E+02 0.  0.
        254    2    1    2    0    0  0.64022820094E+03  0.66173349140E+03 -0.14194923798E+03  0.12940619193E+04  0.89814436586E+03 0.  0.
         23    2    4    4    0    0  0.42952820284E+03  0.79700881252E+02  0.29132468088E+03  0.53303838965E+03  0.91723212130E+02 0.  0.
         23    2    4    4    0    0  0.21069999810E+03  0.58203261014E+03 -0.43327391886E+03  0.76102352966E+03  0.90961945081E+02 0.  0.
          4    1    3    3  502    0 -0.42562375664E+03 -0.40116231196E+03 -0.44143451114E+03  0.73276954793E+03  0.00000000000E+00 0. -1.
         -3    1    3    3    0  502 -0.21460444429E+03 -0.26057117944E+03 -0.20161798241E+03  0.39319488539E+03  0.00000000000E+00 0.  1.
         11    1    5    5    0    0  0.88106949331E+01  0.65178385996E+01 -0.61863214863E+01  0.12584956843E+02  0.00000000000E+00 0. -1.
        -11    1    5    5    0    0  0.42071750790E+03  0.73183042653E+02  0.29751100237E+03  0.52045343281E+03  0.00000000000E+00 0.  1.
          1    1    6    6  503    0  0.16555825905E+02  0.13591129847E+03 -0.69602221063E+02  0.15359181489E+03  0.00000000000E+00 0. -1.
         -1    1    6    6    0  503  0.19414417219E+03  0.44612131167E+03 -0.36367169780E+03  0.60743171477E+03  0.00000000000E+00 0.  1.
<mgrwt>
<rscale>  0 0.22891701E+04</rscale>
<asrwt>0</asrwt>
<pdfrwt beam="1">  1        2 0.24654062E+00 0.22891701E+04</pdfrwt>
<pdfrwt beam="2">  1       -1 0.12577113E+00 0.22891701E+04</pdfrwt>
<totfact> 0.63310858E+00</totfact>
</mgrwt>
</event>
<event>
12    6  0.1457317E-007  0.1216810E+04  0.7818608E-02  0.9098269E-01
         -1   -1    0    0    0  501 -0.00000000000E+00  0.00000000000E+00  0.22113637471E+03  0.22113637471E+03  0.00000000000E+00 0.  1.
          2   -1    0    0  501    0  0.00000000000E+00 -0.00000000000E+00 -0.16738840714E+04  0.16738840714E+04  0.00000000000E+00 0. -1.
         24    2    1    2    0    0  0.15146686183E+03  0.17216898987E+03 -0.52378867009E+03  0.57696282119E+03  0.77117798335E+02 0.  0.
        254    2    1    2    0    0 -0.15146686183E+03 -0.17216898987E+03 -0.92895902659E+03  0.13180576249E+04  0.90649139994E+03 0.  0.
         23    2    4    4    0    0 -0.18611849546E+03 -0.31838825664E+03 -0.10390250158E+04  0.11060012964E+04  0.87491186373E+02 0.  0.
         23    2    4    4    0    0  0.34651633626E+02  0.14621926677E+03  0.11006598924E+03  0.21205632855E+03  0.10135361267E+03 0.  0.
          4    1    3    3  502    0  0.14019692979E+03  0.16159835799E+03 -0.41319404910E+03  0.46529402601E+03  0.00000000000E+00 0. -1.
         -3    1    3    3    0  502  0.11269932044E+02  0.10570631881E+02 -0.11059462099E+03  0.11166879519E+03  0.00000000000E+00 0.  1.
         11    1    5    5    0    0 -0.13665331302E+03 -0.15334640041E+03 -0.51848924572E+03  0.55769197986E+03  0.00000000000E+00 0. -1.
        -11    1    5    5    0    0 -0.49465182433E+02 -0.16504185623E+03 -0.52053577012E+03  0.54830931649E+03  0.00000000000E+00 0.  1.
          1    1    6    6  503    0  0.69796955386E+02  0.11338029418E+03  0.81993740582E+02  0.15636393313E+03  0.00000000000E+00 0. -1.
         -1    1    6    6    0  503 -0.35145321759E+02  0.32838972596E+02  0.28072248660E+02  0.55692395419E+02  0.00000000000E+00 0.  1.
<mgrwt>
<rscale>  0 0.12168100E+04</rscale>
<asrwt>0</asrwt>
<pdfrwt beam="1">  1        2 0.25752064E+00 0.12168100E+04</pdfrwt>
<pdfrwt beam="2">  1       -1 0.34020979E-01 0.12168100E+04</pdfrwt>
<totfact> 0.92958577E+01</totfact>
</mgrwt>
</event>
<event>
12    6  0.1457317E-007  0.1682017E+04  0.7818608E-02  0.8771688E-01
          4   -1    0    0  501    0  0.00000000000E+00  0.00000000000E+00  0.92350461681E+03  0.92350461681E+03  0.00000000000E+00 0. -1.
         -3   -1    0    0    0  501 -0.00000000000E+00 -0.00000000000E+00 -0.76588195395E+03  0.76588195395E+03  0.00000000000E+00 0.  1.
         24    2    1    2    0    0  0.16247640294E+03 -0.44342293194E+03 -0.29634448303E+03  0.56289583423E+03  0.77518962154E+02 0.  0.
        254    2    1    2    0    0 -0.16247640294E+03  0.44342293194E+03  0.45396714589E+03  0.11264907365E+04  0.91644570589E+03 0.  0.
         23    2    4    4    0    0 -0.38548308250E+03 -0.11895160108E+03  0.24176347987E+03  0.47893264214E+03  0.90444486909E+02 0.  0.
         23    2    4    4    0    0  0.22300667956E+03  0.56237453302E+03  0.21220366601E+03  0.64755809438E+03  0.91126259752E+02 0.  0.
          4    1    3    3  502    0  0.35129646915E+02 -0.19216764904E+03 -0.14368513769E+03  0.24250343549E+03  0.00000000000E+00 0. -1.
         -3    1    3    3    0  502  0.12734675602E+03 -0.25125528290E+03 -0.15265934534E+03  0.32039239874E+03  0.00000000000E+00 0.  1.
         11    1    5    5    0    0 -0.31331885379E+03 -0.62346222176E+02  0.20795477675E+03  0.38118361026E+03  0.00000000000E+00 0.  1.
        -11    1    5    5    0    0 -0.72164228715E+02 -0.56605378900E+02  0.33808703126E+02  0.97749031880E+02  0.00000000000E+00 0. -1.
          2    1    6    6  503    0  0.29782724053E+02  0.18956071381E+03  0.65477740027E+02  0.20275011544E+03  0.00000000000E+00 0. -1.
         -2    1    6    6    0  503  0.19322395551E+03  0.37281381921E+03  0.14672592599E+03  0.44480797894E+03  0.00000000000E+00 0.  1.
<mgrwt>
<rscale>  0 0.16820173E+04</rscale>
<asrwt>0</asrwt>
<pdfrwt beam="1">  1        4 0.14207763E+00 0.16820173E+04</pdfrwt>
<pdfrwt beam="2">  1       -3 0.11782799E+00 0.16820173E+04</pdfrwt>
<totfact> 0.44294173E-01</totfact>
</mgrwt>
</event>
<event>
12    6  0.1457317E-007  0.2909342E+04  0.7818608E-02  0.8270103E-01
          2   -1    0    0  501    0  0.00000000000E+00  0.00000000000E+00  0.24120562142E+04  0.24120562142E+04  0.00000000000E+00 0. -1.
         -1   -1    0    0    0  501 -0.00000000000E+00 -0.00000000000E+00 -0.87728781913E+03  0.87728781913E+03  0.00000000000E+00 0.  1.
         24    2    1    2    0    0  0.59427703727E+03 -0.32101390757E+03  0.19546602672E+04  0.20695892397E+04  0.79295238112E+02 0.  0.
        254    2    1    2    0    0 -0.59427703727E+03  0.32101390757E+03 -0.41989187220E+03  0.12197547936E+04  0.92481211408E+03 0.  0.
         23    2    4    4    0    0 -0.19750686696E+03 -0.22191614532E+03  0.13908160220E+03  0.34055377882E+03  0.91528389848E+02 0.  0.
         23    2    4    4    0    0 -0.39677017031E+03  0.54293005288E+03 -0.55897347440E+03  0.87920101480E+03  0.91342591275E+02 0.  0.
          2    1    3    3  502    0  0.42270800499E+03 -0.24091069830E+03  0.12986380417E+04  0.13867879382E+04  0.00000000000E+00 0. -1.
         -1    1    3    3    0  502  0.17156903228E+03 -0.80103209270E+02  0.65602222550E+03  0.68280130150E+03  0.00000000000E+00 0.  1.
         11    1    5    5    0    0 -0.14980990770E+03 -0.10055352197E+03  0.83161730258E+02  0.19867031133E+03  0.00000000000E+00 0.  1.
        -11    1    5    5    0    0 -0.47696959265E+02 -0.12136262334E+03  0.55919871943E+02  0.14188346749E+03  0.00000000000E+00 0. -1.
          3    1    6    6  503    0 -0.32127932830E+02  0.23409580290E+02 -0.12571327632E+02  0.41692334976E+02  0.00000000000E+00 0. -1.
         -3    1    6    6    0  503 -0.36464223748E+03  0.51952047259E+03 -0.54640214677E+03  0.83750867983E+03  0.00000000000E+00 0.  1.
<mgrwt>
<rscale>  0 0.29093419E+04</rscale>
<asrwt>0</asrwt>
<pdfrwt beam="1">  1        2 0.37108557E+00 0.29093419E+04</pdfrwt>
<pdfrwt beam="2">  1       -1 0.13496736E+00 0.29093419E+04</pdfrwt>
<totfact> 0.17677940E+00</totfact>
</mgrwt>
</event>
<event>
12    6  0.1457317E-007  0.1551755E+04  0.7818608E-02  0.8850747E-01
         -1   -1    0    0    0  501 -0.00000000000E+00  0.00000000000E+00  0.39146574591E+03  0.39146574591E+03  0.00000000000E+00 0.  1.
          2   -1    0    0  501    0  0.00000000000E+00 -0.00000000000E+00 -0.15377742593E+04  0.15377742593E+04  0.00000000000E+00 0. -1.
         24    2    1    2    0    0 -0.13395465833E+03 -0.48170458402E+03 -0.53675789229E+03  0.73782152772E+03  0.79299527576E+02 0.  0.
        254    2    1    2    0    0  0.13395465833E+03  0.48170458402E+03 -0.60955062114E+03  0.11914184775E+04  0.89327648134E+03 0.  0.
         23    2    4    4    0    0 -0.31618086336E+03  0.19256549284E+03 -0.51706755622E+03  0.64147647123E+03  0.84151043135E+02 0.  0.
         23    2    4    4    0    0  0.45013552169E+03  0.28913909118E+03 -0.92483064920E+02  0.54994200630E+03  0.87519661004E+02 0.  0.
          4    1    3    3  502    0 -0.12453839688E+03 -0.36069828750E+03 -0.36954722397E+03  0.53120449702E+03  0.00000000000E+00 0. -1.
         -3    1    3    3    0  502 -0.94162614502E+01 -0.12100629652E+03 -0.16721066832E+03  0.20661703070E+03  0.00000000000E+00 0.  1.
         11    1    5    5    0    0 -0.28736159144E+03  0.14413424357E+03 -0.41583824893E+03  0.52561660332E+03  0.00000000000E+00 0.  1.
        -11    1    5    5    0    0 -0.28819271916E+02  0.48431249267E+02 -0.10122930728E+03  0.11585986791E+03  0.00000000000E+00 0. -1.
          2    1    6    6  503    0  0.14371594997E+03  0.95887627392E+02  0.11190986657E+02  0.17312986324E+03  0.00000000000E+00 0. -1.
         -2    1    6    6    0  503  0.30641957172E+03  0.19325146379E+03 -0.10367405158E+03  0.37681214306E+03  0.00000000000E+00 0.  1.
<mgrwt>
<rscale>  0 0.15517551E+04</rscale>
<asrwt>0</asrwt>
<pdfrwt beam="1">  1        2 0.23658066E+00 0.15517551E+04</pdfrwt>
<pdfrwt beam="2">  1       -1 0.60225499E-01 0.15517551E+04</pdfrwt>
<totfact> 0.37052149E+01</totfact>
</mgrwt>
</event>
<event>
12    6  0.1457317E-007  0.1413363E+04  0.7818608E-02  0.8944202E-01
         -1   -1    0    0    0  501 -0.00000000000E+00  0.00000000000E+00  0.80475127909E+03  0.80475127909E+03  0.00000000000E+00 0.  1.
          2   -1    0    0  501    0  0.00000000000E+00 -0.00000000000E+00 -0.62056306342E+03  0.62056306342E+03  0.00000000000E+00 0. -1.
         24    2    1    2    0    0  0.22416331649E+02 -0.40203770467E+02  0.46431670127E+03  0.47309447235E+03  0.78163582381E+02 0.  0.
        254    2    1    2    0    0 -0.22416331649E+02  0.40203770467E+02 -0.28012848560E+03  0.95221987016E+03  0.90891797078E+03 0.  0.
         23    2    4    4    0    0 -0.16388371975E+03  0.25739470467E+03 -0.50454446451E+03  0.59705271486E+03  0.93791897655E+02 0.  0.
         23    2    4    4    0    0  0.14146738810E+03 -0.21719093420E+03  0.22441597892E+03  0.35516715530E+03  0.92715979317E+02 0.  0.
          4    1    3    3  502    0  0.68628920570E+01  0.17179383377E+02  0.34151495985E+02  0.38840123309E+02  0.00000000000E+00 0. -1.
         -3    1    3    3    0  502  0.15553439592E+02 -0.57383153844E+02  0.43016520528E+03  0.43425434904E+03  0.00000000000E+00 0.  1.
         11    1    5    5    0    0  0.46614649445E+01  0.53577015240E+02 -0.68801235125E+02  0.87326031469E+02  0.00000000000E+00 0. -1.
        -11    1    5    5    0    0 -0.16854518469E+03  0.20381768943E+03 -0.43574322939E+03  0.50972668339E+03  0.00000000000E+00 0.  1.
          3    1    6    6  503    0  0.15335125330E+02 -0.55316718102E+02  0.99653764931E+02  0.11500425312E+03  0.00000000000E+00 0. -1.
         -3    1    6    6    0  503  0.12613226277E+03 -0.16187421610E+03  0.12476221398E+03  0.24016290219E+03  0.00000000000E+00 0.  1.
<mgrwt>
<rscale>  0 0.14133632E+04</rscale>
<asrwt>0</asrwt>
<pdfrwt beam="1">  1        2 0.95471240E-01 0.14133632E+04</pdfrwt>
<pdfrwt beam="2">  1       -1 0.12380789E+00 0.14133632E+04</pdfrwt>
<totfact> 0.30322492E+01</totfact>
</mgrwt>
</event>
<event>
12    6  0.1457317E-007  0.1424028E+04  0.7818608E-02  0.8936607E-01
         -1   -1    0    0    0  501 -0.00000000000E+00  0.00000000000E+00  0.22634164315E+03  0.22634164315E+03  0.00000000000E+00 0.  1.
          2   -1    0    0  501    0  0.00000000000E+00 -0.00000000000E+00 -0.22398167000E+04  0.22398167000E+04  0.00000000000E+00 0. -1.
         24    2    1    2    0    0 -0.84155244496E+02  0.24058531620E+03 -0.27538772350E+02  0.26746155007E+03  0.76248916278E+02 0.  0.
        254    2    1    2    0    0  0.84155244496E+02 -0.24058531620E+03 -0.19859362845E+04  0.21986967931E+04  0.90849395281E+03 0.  0.
         23    2    4    4    0    0 -0.16803123281E+03 -0.41494689333E+03 -0.17268959415E+04  0.17862843098E+04  0.90700734971E+02 0.  0.
         23    2    4    4    0    0  0.25218647731E+03  0.17436157713E+03 -0.25904034297E+03  0.41241248322E+03  0.94774353677E+02 0.  0.
          2    1    3    3  502    0 -0.14378769858E+02  0.15903514824E+02  0.17799450892E+02  0.27865592735E+02  0.00000000000E+00 0. -1.
         -1    1    3    3    0  502 -0.69776474637E+02  0.22468180138E+03 -0.45338223242E+02  0.23959595733E+03  0.00000000000E+00 0.  1.
         11    1    5    5    0    0  0.65483505759E+01 -0.57592006316E+02 -0.18149538912E+03  0.19052636657E+03  0.00000000000E+00 0. -1.
        -11    1    5    5    0    0 -0.17457958339E+03 -0.35735488701E+03 -0.15454005524E+04  0.15957579433E+04  0.00000000000E+00 0.  1.
          1    1    6    6  503    0 -0.22688609762E+01 -0.53030762383E+01  0.18936472313E+01  0.60709346526E+01  0.00000000000E+00 0. -1.
         -1    1    6    6    0  503  0.25445533828E+03  0.17966465337E+03 -0.26093399021E+03  0.40634154857E+03  0.00000000000E+00 0.  1.
<mgrwt>
<rscale>  0 0.14240278E+04</rscale>
<asrwt>0</asrwt>
<pdfrwt beam="1">  1        2 0.34458717E+00 0.14240278E+04</pdfrwt>
<pdfrwt beam="2">  1       -1 0.34821793E-01 0.14240278E+04</pdfrwt>
<totfact> 0.42567635E+01</totfact>
</mgrwt>
</event>
<event>
12    6  0.1457317E-007  0.2764771E+04  0.7818608E-02  0.8314290E-01
         -1   -1    0    0    0  501 -0.00000000000E+00  0.00000000000E+00  0.15817710231E+04  0.15817710231E+04  0.00000000000E+00 0.  1.
          2   -1    0    0  501    0  0.00000000000E+00 -0.00000000000E+00 -0.12081326010E+04  0.12081326010E+04  0.00000000000E+00 0. -1.
         24    2    1    2    0    0 -0.60558557722E+03  0.27954457212E+03 -0.87880705976E+03  0.11061273197E+04  0.79603643048E+02 0.  0.
        254    2    1    2    0    0  0.60558557722E+03 -0.27954457212E+03  0.12524454818E+04  0.16837763044E+04  0.90642368636E+03 0.  0.
         23    2    4    4    0    0  0.50397836849E+03  0.15468436341E+03  0.26591476073E+03  0.59733275549E+03  0.90411905297E+02 0.  0.
         23    2    4    4    0    0  0.10160720873E+03 -0.43422893553E+03  0.98653072106E+03  0.10864435489E+04  0.90763032171E+02 0.  0.
          2    1    3    3  502    0 -0.33720977865E+03  0.11496214334E+03 -0.44247137015E+03  0.56807362430E+03  0.00000000000E+00 0. -1.
         -1    1    3    3    0  502 -0.26837579856E+03  0.16458242878E+03 -0.43633568961E+03  0.53805369541E+03  0.00000000000E+00 0.  1.
         11    1    5    5    0    0  0.10259493377E+03  0.40468149453E+01  0.79422557827E+02  0.12980770331E+03  0.00000000000E+00 0. -1.
        -11    1    5    5    0    0  0.40138343472E+03  0.15063754846E+03  0.18649220290E+03  0.46752505218E+03  0.00000000000E+00 0.  1.
          1    1    6    6  503    0 -0.71736772661E+01 -0.45684208069E+02  0.16219094745E+03  0.16865471220E+03  0.00000000000E+00 0. -1.
         -1    1    6    6    0  503  0.10878088599E+03 -0.38854472746E+03  0.82433977361E+03  0.91778883669E+03  0.00000000000E+00 0.  1.
<mgrwt>
<rscale>  0 0.27647706E+04</rscale>
<asrwt>0</asrwt>
<pdfrwt beam="1">  1        2 0.18586655E+00 0.27647706E+04</pdfrwt>
<pdfrwt beam="2">  1       -1 0.24334939E+00 0.27647706E+04</pdfrwt>
<totfact> 0.14353113E+00</totfact>
</mgrwt>
</event>
<event>
12    6  0.1457317E-007  0.2859943E+04  0.7818608E-02  0.8284896E-01
          2   -1    0    0  501    0  0.00000000000E+00  0.00000000000E+00  0.16545505374E+04  0.16545505374E+04  0.00000000000E+00 0. -1.
         -1   -1    0    0    0  501 -0.00000000000E+00 -0.00000000000E+00 -0.12358757657E+04  0.12358757657E+04  0.00000000000E+00 0.  1.
         24    2    1    2    0    0 -0.91469262961E+02  0.52517726834E+02  0.14907889867E+04  0.14967570149E+04  0.81884192653E+02 0.  0.
        254    2    1    2    0    0  0.91469262961E+02 -0.52517726834E+02 -0.10721142150E+04  0.13936692882E+04  0.88417218754E+03 0.  0.
         23    2    4    4    0    0  0.21775970725E+03  0.28222211373E+03 -0.14391291933E+03  0.39466410799E+03  0.89332067094E+02 0.  0.
         23    2    4    4    0    0 -0.12629044428E+03 -0.33473984056E+03 -0.92820129568E+03  0.99900518023E+03  0.91943828838E+02 0.  0.
          4    1    3    3  502    0 -0.10670262603E+03  0.50785994048E+02  0.13102440291E+04  0.13155622690E+04  0.00000000000E+00 0. -1.
         -3    1    3    3    0  502  0.15233363071E+02  0.17317327859E+01  0.18054495757E+03  0.18119474593E+03  0.00000000000E+00 0.  1.
         11    1    5    5    0    0  0.19834652384E+03  0.22856654885E+03 -0.14910893664E+03  0.33736847179E+03  0.00000000000E+00 0. -1.
        -11    1    5    5    0    0  0.19413183411E+02  0.53655564873E+02  0.51960173085E+01  0.57295636203E+02  0.00000000000E+00 0.  1.
          1    1    6    6  503    0 -0.98813998870E+02 -0.13910232988E+03 -0.47069218074E+03  0.50066435220E+03  0.00000000000E+00 0. -1.
         -1    1    6    6    0  503 -0.27476445415E+02 -0.19563751068E+03 -0.45750911494E+03  0.49834082804E+03  0.00000000000E+00 0.  1.
<mgrwt>
<rscale>  0 0.28599433E+04</rscale>
<asrwt>0</asrwt>
<pdfrwt beam="1">  1        2 0.25454624E+00 0.28599433E+04</pdfrwt>
<pdfrwt beam="2">  1       -1 0.19013473E+00 0.28599433E+04</pdfrwt>
<totfact> 0.18068510E+00</totfact>
</mgrwt>
</event>
<event>
12    6  0.1457317E-007  0.1365647E+04  0.7818608E-02  0.8979067E-01
          2   -1    0    0  501    0  0.00000000000E+00  0.00000000000E+00  0.23390908787E+04  0.23390908787E+04  0.00000000000E+00 0. -1.
         -1   -1    0    0    0  501 -0.00000000000E+00 -0.00000000000E+00 -0.19932863303E+03  0.19932863303E+03  0.00000000000E+00 0.  1.
         24    2    1    2    0    0  0.10236274262E+03  0.23044207160E+03  0.84247947269E+02  0.27724179950E+03  0.78635992608E+02 0.  0.
        254    2    1    2    0    0 -0.10236274262E+03 -0.23044207160E+03  0.20555142984E+04  0.22611777122E+04  0.90785678159E+03 0.  0.
         23    2    4    4    0    0 -0.43910919620E+03 -0.30032141623E+03  0.15587944212E+04  0.16498510404E+04  0.95700410900E+02 0.  0.
         23    2    4    4    0    0  0.33674645358E+03  0.69879344637E+02  0.49671987715E+03  0.61132667179E+03  0.93318628801E+02 0.  0.
          4    1    3    3  502    0  0.20696604199E+02  0.12215629848E+03  0.66032853548E+02  0.14039532909E+03  0.00000000000E+00 0. -1.
         -3    1    3    3    0  502  0.81666138417E+02  0.10828577312E+03  0.18215093721E+02  0.13684647041E+03  0.00000000000E+00 0.  1.
         11    1    5    5    0    0 -0.71646915405E+02 -0.92219166662E+02  0.38982847123E+03  0.40694458120E+03  0.00000000000E+00 0. -1.
        -11    1    5    5    0    0 -0.36746228080E+03 -0.20810224957E+03  0.11689659500E+04  0.12429064592E+04  0.00000000000E+00 0.  1.
          3    1    6    6  503    0  0.19360924379E+03  0.82594928674E+02  0.32766606521E+03  0.38945026873E+03  0.00000000000E+00 0. -1.
         -3    1    6    6    0  503  0.14313720979E+03 -0.12715584037E+02  0.16905381194E+03  0.22187640306E+03  0.00000000000E+00 0.  1.
<mgrwt>
<rscale>  0 0.13656468E+04</rscale>
<asrwt>0</asrwt>
<pdfrwt beam="1">  1        2 0.35986011E+00 0.13656468E+04</pdfrwt>
<pdfrwt beam="2">  1       -1 0.30665945E-01 0.13656468E+04</pdfrwt>
<totfact> 0.47117118E+01</totfact>
</mgrwt>
</event>
<event>
12    6  0.1457317E-007  0.1470297E+04  0.7818608E-02  0.8904449E-01
         -1   -1    0    0    0  501 -0.00000000000E+00  0.00000000000E+00  0.19734092146E+03  0.19734092146E+03  0.00000000000E+00 0.  1.
          2   -1    0    0  501    0  0.00000000000E+00 -0.00000000000E+00 -0.27386264041E+04  0.27386264041E+04  0.00000000000E+00 0. -1.
         24    2    1    2    0    0  0.42610576344E+03 -0.42092609047E+02 -0.49418615308E+03  0.65876225929E+03  0.80061545080E+02 0.  0.
        254    2    1    2    0    0 -0.42610576344E+03  0.42092609047E+02 -0.20470993296E+04  0.22772050663E+04  0.90094913253E+03 0.  0.
         23    2    4    4    0    0  0.19966928426E+03  0.12299347551E+03 -0.11468982750E+04  0.11740933655E+04  0.90135228975E+02 0.  0.
         23    2    4    4    0    0 -0.62577504770E+03 -0.80900866467E+02 -0.90020105457E+03  0.11031117008E+04  0.91400904470E+02 0.  0.
          2    1    3    3  502    0  0.67807553030E+02  0.30122412293E+01 -0.41029969492E+02  0.79312018267E+02  0.00000000000E+00 0. -1.
         -1    1    3    3    0  502  0.35829821041E+03 -0.45104850276E+02 -0.45315618359E+03  0.57945024103E+03  0.00000000000E+00 0.  1.
         11    1    5    5    0    0  0.10940221584E+03  0.58583320817E+02 -0.39426902894E+03  0.41333874424E+03  0.00000000000E+00 0.  1.
        -11    1    5    5    0    0  0.90267068423E+02  0.64410154697E+02 -0.75262924608E+03  0.76075462123E+03  0.00000000000E+00 0. -1.
          3    1    6    6  503    0 -0.45061145936E+03 -0.16513828997E+02 -0.63164888459E+03  0.77608228124E+03  0.00000000000E+00 0. -1.
         -3    1    6    6    0  503 -0.17516358834E+03 -0.64387037470E+02 -0.26855216997E+03  0.32702941958E+03  0.00000000000E+00 0.  1.
<mgrwt>
<rscale>  0 0.14702966E+04</rscale>
<asrwt>0</asrwt>
<pdfrwt beam="1">  1        2 0.42132712E+00 0.14702966E+04</pdfrwt>
<pdfrwt beam="2">  1       -1 0.30360143E-01 0.14702966E+04</pdfrwt>
<totfact> 0.27884931E+01</totfact>
</mgrwt>
</event>
<event>
12    6  0.1457317E-007  0.2815766E+04  0.7818608E-02  0.8298390E-01
          2   -1    0    0  501    0  0.00000000000E+00  0.00000000000E+00  0.24404548481E+04  0.24404548481E+04  0.00000000000E+00 0. -1.
         -1   -1    0    0    0  501 -0.00000000000E+00 -0.00000000000E+00 -0.81219853237E+03  0.81219853237E+03  0.00000000000E+00 0.  1.
         24    2    1    2    0    0  0.49893189159E+03 -0.36915804341E+03 -0.55586504606E+03  0.83691849943E+03  0.78967916299E+02 0.  0.
        254    2    1    2    0    0 -0.49893189159E+03  0.36915804341E+03  0.21841213618E+04  0.24157348810E+04  0.82472916706E+03 0.  0.
         23    2    4    4    0    0 -0.35247501501E+03 -0.21502305152E+03  0.89518722920E+03  0.99006826790E+03  0.91659428725E+02 0.  0.
         23    2    4    4    0    0 -0.14645687658E+03  0.58418109494E+03  0.12889341326E+04  0.14256666131E+04  0.91961542594E+02 0.  0.
          4    1    3    3  502    0  0.13493767943E+03 -0.13955034815E+03 -0.14944684968E+03  0.24498334204E+03  0.00000000000E+00 0. -1.
         -3    1    3    3    0  502  0.36399421216E+03 -0.22960769526E+03 -0.40641819637E+03  0.59193515739E+03  0.00000000000E+00 0.  1.
         11    1    5    5    0    0  0.33186215783E+01  0.32391028614E+01  0.46748400588E+01  0.65847677334E+01  0.00000000000E+00 0. -1.
        -11    1    5    5    0    0 -0.35579363658E+03 -0.21826215438E+03  0.89051238915E+03  0.98348350016E+03  0.00000000000E+00 0.  1.
          3    1    6    6  503    0 -0.41347173966E+00  0.15835037253E+03  0.30589642627E+03  0.34445266009E+03  0.00000000000E+00 0. -1.
         -3    1    6    6    0  503 -0.14604340484E+03  0.42583072241E+03  0.98303770628E+03  0.10812139530E+04  0.00000000000E+00 0.  1.
<mgrwt>
<rscale>  0 0.28157655E+04</rscale>
<asrwt>0</asrwt>
<pdfrwt beam="1">  1        2 0.37545459E+00 0.28157655E+04</pdfrwt>
<pdfrwt beam="2">  1       -1 0.12495362E+00 0.28157655E+04</pdfrwt>
<totfact> 0.20850085E+00</totfact>
</mgrwt>
</event>
<event>
12    6  0.1457317E-007  0.1726083E+04  0.7818608E-02  0.8746626E-01
         -1   -1    0    0    0  501 -0.00000000000E+00  0.00000000000E+00  0.11587342854E+04  0.11587342854E+04  0.00000000000E+00 0.  1.
          2   -1    0    0  501    0  0.00000000000E+00 -0.00000000000E+00 -0.64280548938E+03  0.64280548938E+03  0.00000000000E+00 0. -1.
         24    2    1    2    0    0  0.46104473428E+03  0.23762682682E+03  0.55788759357E+03  0.76586422770E+03  0.79250819501E+02 0.  0.
        254    2    1    2    0    0 -0.46104473428E+03 -0.23762682682E+03 -0.41958797582E+02  0.10356755470E+04  0.89545214401E+03 0.  0.
         23    2    4    4    0    0 -0.11477046395E+03  0.21058997906E+03  0.27863178400E+03  0.37855527679E+03  0.90266427057E+02 0.  0.
         23    2    4    4    0    0 -0.34627427033E+03 -0.44821680588E+03 -0.32059058158E+03  0.65712027025E+03  0.90689322447E+02 0.  0.
          2    1    3    3  502    0 -0.22658674009E+01  0.22152399056E+01 -0.32680368657E+00  0.31856307958E+01  0.00000000000E+00 0. -1.
         -1    1    3    3    0  502  0.46331060168E+03  0.23541158691E+03  0.55821439725E+03  0.76267859691E+03  0.00000000000E+00 0.  1.
         11    1    5    5    0    0 -0.95422765896E+02  0.21110953563E+03  0.23108514897E+03  0.32722024137E+03  0.00000000000E+00 0. -1.
        -11    1    5    5    0    0 -0.19347698058E+02 -0.51955657067E+00  0.47546635031E+02  0.51335035424E+02  0.00000000000E+00 0.  1.
          4    1    6    6  503    0 -0.25847702658E+03 -0.38522845342E+03 -0.27896378868E+03  0.54132442212E+03  0.00000000000E+00 0. -1.
         -4    1    6    6    0  503 -0.87797243746E+02 -0.62988352462E+02 -0.41626792906E+02  0.11579584812E+03  0.00000000000E+00 0.  1.
<mgrwt>
<rscale>  0 0.17260831E+04</rscale>
<asrwt>0</asrwt>
<pdfrwt beam="1">  1        2 0.98893153E-01 0.17260831E+04</pdfrwt>
<pdfrwt beam="2">  1       -1 0.17826681E+00 0.17260831E+04</pdfrwt>
<totfact> 0.10588838E+01</totfact>
</mgrwt>
</event>
<event>
12    6  0.1457317E-007  0.1963106E+04  0.7818608E-02  0.8624067E-01
          2   -1    0    0  501    0  0.00000000000E+00  0.00000000000E+00  0.18232627600E+04  0.18232627600E+04  0.00000000000E+00 0. -1.
         -1   -1    0    0    0  501 -0.00000000000E+00 -0.00000000000E+00 -0.52841856313E+03  0.52841856313E+03  0.00000000000E+00 0.  1.
         24    2    1    2    0    0 -0.72974925529E+03  0.95138079632E+02  0.22406699956E+03  0.77332530497E+03  0.78998590056E+02 0.  0.
        254    2    1    2    0    0  0.72974925529E+03 -0.95138079632E+02  0.10707771973E+04  0.15783560181E+04  0.89613541609E+03 0.  0.
         23    2    4    4    0    0  0.43217007987E+03 -0.77539210221E+02  0.11681876048E+04  0.12512543304E+04  0.90508631566E+02 0.  0.
         23    2    4    4    0    0  0.29757917541E+03 -0.17598869411E+02 -0.97410407487E+02  0.32710168772E+03  0.92971182501E+02 0.  0.
          4    1    3    3  502    0 -0.35472974238E+03  0.71558552459E+01  0.99684542463E+02  0.36853955608E+03  0.00000000000E+00 0. -1.
         -1    1    3    3    0  502 -0.37501951291E+03  0.87982224386E+02  0.12438245709E+03  0.40478574889E+03  0.00000000000E+00 0.  1.
         11    1    5    5    0    0  0.63523885730E+02 -0.35356464069E+02  0.26567928527E+03  0.27544663046E+03  0.00000000000E+00 0. -1.
        -11    1    5    5    0    0  0.36864619414E+03 -0.42182746152E+02  0.90250831952E+03  0.97580769997E+03  0.00000000000E+00 0.  1.
          2    1    6    6  503    0  0.87357820392E+02 -0.11400977493E+02  0.13836827321E+02  0.89178634559E+02  0.00000000000E+00 0. -1.
         -2    1    6    6    0  503  0.21022135502E+03 -0.61978919181E+01 -0.11124723481E+03  0.23792305316E+03  0.00000000000E+00 0.  1.
<mgrwt>
<rscale>  0 0.19631056E+04</rscale>
<asrwt>0</asrwt>
<pdfrwt beam="1">  1        2 0.28050196E+00 0.19631056E+04</pdfrwt>
<pdfrwt beam="2">  1       -1 0.81295164E-01 0.19631056E+04</pdfrwt>
<totfact> 0.13396114E+01</totfact>
</mgrwt>
</event>
<event>
12    6  0.1457317E-007  0.2681076E+04  0.7818608E-02  0.8341171E-01
         -1   -1    0    0    0  501 -0.00000000000E+00  0.00000000000E+00  0.52419644148E+03  0.52419644148E+03  0.00000000000E+00 0.  1.
          2   -1    0    0  501    0  0.00000000000E+00 -0.00000000000E+00 -0.34281854238E+04  0.34281854238E+04  0.00000000000E+00 0. -1.
         24    2    1    2    0    0  0.52805461296E+03  0.96193007410E+03 -0.70431797723E+03  0.13063329672E+04  0.79314982145E+02 0.  0.
        254    2    1    2    0    0 -0.52805461296E+03 -0.96193007410E+03 -0.21996710051E+04  0.26460488981E+04  0.97921963765E+03 0.  0.
         23    2    4    4    0    0 -0.71183595623E+03 -0.52470237213E+03 -0.92508471641E+03  0.12829690379E+04  0.90580416424E+02 0.  0.
         23    2    4    4    0    0  0.18378134328E+03 -0.43722770197E+03 -0.12745862887E+04  0.13630798602E+04  0.92048098262E+02 0.  0.
          2    1    3    3  502    0  0.11028494479E+03  0.24715698530E+03 -0.20485368120E+03  0.33943243088E+03  0.00000000000E+00 0. -1.
         -1    1    3    3    0  502  0.41776966816E+03  0.71477308880E+03 -0.49946429604E+03  0.96690053631E+03  0.00000000000E+00 0.  1.
         11    1    5    5    0    0 -0.62295877211E+03 -0.48991526200E+03 -0.80615764111E+03  0.11304798707E+04  0.00000000000E+00 0. -1.
        -11    1    5    5    0    0 -0.88877184120E+02 -0.34787110132E+02 -0.11892707530E+03  0.15248916725E+03  0.00000000000E+00 0.  1.
          2    1    6    6  503    0  0.78192562415E+02 -0.13459265706E+03 -0.53120378298E+03  0.55354016946E+03  0.00000000000E+00 0. -1.
         -2    1    6    6    0  503  0.10558878086E+03 -0.30263504491E+03 -0.74338250572E+03  0.80953969072E+03  0.00000000000E+00 0.  1.
<mgrwt>
<rscale>  0 0.26810764E+04</rscale>
<asrwt>0</asrwt>
<pdfrwt beam="1">  1        2 0.52741315E+00 0.26810764E+04</pdfrwt>
<pdfrwt beam="2">  1       -1 0.80645605E-01 0.26810764E+04</pdfrwt>
<totfact> 0.13968733E+00</totfact>
</mgrwt>
</event>
<event>
12    6  0.1457317E-007  0.2683518E+04  0.7818608E-02  0.8340373E-01
          2   -1    0    0  501    0  0.00000000000E+00  0.00000000000E+00  0.17681948761E+04  0.17681948761E+04  0.00000000000E+00 0. -1.
         -1   -1    0    0    0  501 -0.00000000000E+00 -0.00000000000E+00 -0.10181670450E+04  0.10181670450E+04  0.00000000000E+00 0.  1.
         24    2    1    2    0    0  0.69845114647E+02 -0.63625232425E+03 -0.70864743453E+03  0.95826527013E+03  0.79973628875E+02 0.  0.
        254    2    1    2    0    0 -0.69845114647E+02  0.63625232425E+03  0.14586752656E+04  0.18280966510E+04  0.89694396417E+03 0.  0.
         23    2    4    4    0    0 -0.29611501063E+03  0.10524424909E+03  0.10867363767E+04  0.11355583968E+04  0.98673546137E+02 0.  0.
         23    2    4    4    0    0  0.22626989598E+03  0.53100807516E+03  0.37193888889E+03  0.69253825418E+03  0.90016969069E+02 0.  0.
          4    1    3    3  502    0  0.43346780795E+02 -0.14462564463E+03 -0.19706707626E+03  0.24825582175E+03  0.00000000000E+00 0. -1.
         -3    1    3    3    0  502  0.26498333852E+02 -0.49162667962E+03 -0.51158035827E+03  0.71000944838E+03  0.00000000000E+00 0.  1.
         11    1    5    5    0    0 -0.10015699335E+03  0.34336488423E+02  0.54360827163E+03  0.55382341115E+03  0.00000000000E+00 0. -1.
        -11    1    5    5    0    0 -0.19595801728E+03  0.70907760669E+02  0.54312810506E+03  0.58173498568E+03  0.00000000000E+00 0.  1.
          1    1    6    6  503    0  0.17559146586E+01  0.81082448036E+02  0.58792980817E+02  0.10017016127E+03  0.00000000000E+00 0. -1.
         -1    1    6    6    0  503  0.22451398132E+03  0.44992562712E+03  0.31314590807E+03  0.59236809291E+03  0.00000000000E+00 0.  1.
<mgrwt>
<rscale>  0 0.26835184E+04</rscale>
<asrwt>0</asrwt>
<pdfrwt beam="1">  1        2 0.27202998E+00 0.26835184E+04</pdfrwt>
<pdfrwt beam="2">  1       -1 0.15664108E+00 0.26835184E+04</pdfrwt>
<totfact> 0.27856971E+00</totfact>
</mgrwt>
</event>
<event>
12    6  0.1457317E-007  0.2553816E+04  0.7818608E-02  0.8384060E-01
          2   -1    0    0  501    0  0.00000000000E+00  0.00000000000E+00  0.21816892154E+04  0.21816892154E+04  0.00000000000E+00 0. -1.
         -1   -1    0    0    0  501 -0.00000000000E+00 -0.00000000000E+00 -0.74735392899E+03  0.74735392899E+03  0.00000000000E+00 0.  1.
         24    2    1    2    0    0  0.62920324801E+03  0.75661327270E+03  0.20729474280E+02  0.98771205971E+03  0.82371293869E+02 0.  0.
        254    2    1    2    0    0 -0.62920324801E+03 -0.75661327270E+03  0.14136058122E+04  0.19413310847E+04  0.89561410024E+03 0.  0.
         23    2    4    4    0    0 -0.64117980986E+03 -0.10360709046E+03  0.55562404957E+03  0.85940991712E+03  0.89561952964E+02 0.  0.
         23    2    4    4    0    0  0.11976561854E+02 -0.65300618224E+03  0.85798176259E+03  0.10819211676E+04  0.88657745581E+02 0.  0.
          4    1    3    3  502    0  0.52176787254E+02  0.75248935583E+02  0.24668651683E+02  0.94833337020E+02  0.00000000000E+00 0. -1.
         -3    1    3    3    0  502  0.57702646076E+03  0.68136433712E+03 -0.39391774029E+01  0.89287872269E+03  0.00000000000E+00 0.  1.
         11    1    5    5    0    0 -0.35235801448E+03 -0.11712835278E+02  0.29972764272E+03  0.46274185102E+03  0.00000000000E+00 0. -1.
        -11    1    5    5    0    0 -0.28882179538E+03 -0.91894255182E+02  0.25589640685E+03  0.39666806610E+03  0.00000000000E+00 0.  1.
          3    1    6    6  503    0  0.54905954904E+01 -0.95774878775E+01  0.38223326497E+02  0.39785645670E+02  0.00000000000E+00 0. -1.
         -3    1    6    6    0  503  0.64859663635E+01 -0.64342869436E+03  0.81975843609E+03  0.10421355219E+04  0.00000000000E+00 0.  1.
<mgrwt>
<rscale>  0 0.25538160E+04</rscale>
<asrwt>0</asrwt>
<pdfrwt beam="1">  1        2 0.33564449E+00 0.25538160E+04</pdfrwt>
<pdfrwt beam="2">  1       -1 0.11497753E+00 0.25538160E+04</pdfrwt>
<totfact> 0.36673639E+00</totfact>
</mgrwt>
</event>
<event>
12    6  0.1457317E-007  0.1771875E+04  0.7818608E-02  0.8721401E-01
          2   -1    0    0  501    0  0.00000000000E+00  0.00000000000E+00  0.11978953569E+04  0.11978953569E+04  0.00000000000E+00 0. -1.
         -1   -1    0    0    0  501 -0.00000000000E+00 -0.00000000000E+00 -0.65522039257E+03  0.65522039257E+03  0.00000000000E+00 0.  1.
         24    2    1    2    0    0  0.35463380045E+03  0.53635461667E+03  0.31576245007E+03  0.72084441416E+03  0.80432190714E+02 0.  0.
        254    2    1    2    0    0 -0.35463380045E+03 -0.53635461667E+03  0.22691251430E+03  0.11322713353E+04  0.90394008676E+03 0.  0.
         23    2    4    4    0    0 -0.28097281831E+03 -0.46089714394E+03  0.55235706121E+03  0.77756902510E+03  0.90240588529E+02 0.  0.
         23    2    4    4    0    0 -0.73660982149E+02 -0.75457472738E+02 -0.32544454691E+03  0.35470231024E+03  0.93700615243E+02 0.  0.
          4    1    3    3  502    0  0.21453540256E+02  0.11498899443E+02  0.23724479873E+02  0.33990145971E+02  0.00000000000E+00 0. -1.
         -3    1    3    3    0  502  0.33318026020E+03  0.52485571723E+03  0.29203797020E+03  0.68685426819E+03  0.00000000000E+00 0.  1.
         11    1    5    5    0    0 -0.23058629142E+03 -0.42325350756E+03  0.46337708586E+03  0.66860443698E+03  0.00000000000E+00 0. -1.
        -11    1    5    5    0    0 -0.50386526890E+02 -0.37643636375E+02  0.88979975347E+02  0.10896458812E+03  0.00000000000E+00 0.  1.
          2    1    6    6  503    0 -0.76340158368E+01 -0.26871548518E+02 -0.21684064666E+03  0.21863262420E+03  0.00000000000E+00 0. -1.
         -2    1    6    6    0  503 -0.66026966312E+02 -0.48585924219E+02 -0.10860390024E+03  0.13606968605E+03  0.00000000000E+00 0.  1.
<mgrwt>
<rscale>  0 0.17718752E+04</rscale>
<asrwt>0</asrwt>
<pdfrwt beam="1">  1        2 0.18429159E+00 0.17718752E+04</pdfrwt>
<pdfrwt beam="2">  1       -1 0.10080314E+00 0.17718752E+04</pdfrwt>
<totfact> 0.19180344E+01</totfact>
</mgrwt>
</event>
<event>
12    6  0.1457317E-007  0.2625325E+04  0.7818608E-02  0.8359650E-01
          2   -1    0    0  501    0  0.00000000000E+00  0.00000000000E+00  0.13201161692E+04  0.13201161692E+04  0.00000000000E+00 0. -1.
         -1   -1    0    0    0  501 -0.00000000000E+00 -0.00000000000E+00 -0.13052504333E+04  0.13052504333E+04  0.00000000000E+00 0.  1.
         24    2    1    2    0    0  0.17633196463E+03  0.81011316990E+03 -0.79655764488E+03  0.11524807096E+04  0.79570060162E+02 0.  0.
        254    2    1    2    0    0 -0.17633196463E+03 -0.81011316990E+03  0.81142338079E+03  0.14728858929E+04  0.90752886504E+03 0.  0.
         23    2    4    4    0    0  0.57158162658E+01 -0.57156528776E+03 -0.25015048303E+02  0.57965104696E+03  0.93005563682E+02 0.  0.
         23    2    4    4    0    0 -0.18204778090E+03 -0.23854788214E+03  0.83643842909E+03  0.89323484596E+03  0.90513853995E+02 0.  0.
          4    1    3    3  502    0  0.47075997373E+01  0.16462690005E+03 -0.16972246342E+03  0.23649501539E+03  0.00000000000E+00 0. -1.
         -3    1    3    3    0  502  0.17162436489E+03  0.64548626985E+03 -0.62683518146E+03  0.91598569416E+03  0.00000000000E+00 0.  1.
         11    1    5    5    0    0  0.43676399245E+02 -0.20895888426E+03  0.75774880321E+01  0.21360913250E+03  0.00000000000E+00 0.  1.
        -11    1    5    5    0    0 -0.37960582980E+02 -0.36260640351E+03 -0.32592536335E+02  0.36604191447E+03  0.00000000000E+00 0. -1.
          2    1    6    6  503    0 -0.17477784692E+03 -0.18690749941E+03  0.74806369421E+03  0.79062064210E+03  0.00000000000E+00 0. -1.
         -2    1    6    6    0  503 -0.72699339733E+01 -0.51640382732E+02  0.88374734878E+02  0.10261420386E+03  0.00000000000E+00 0.  1.
<mgrwt>
<rscale>  0 0.26253245E+04</rscale>
<asrwt>0</asrwt>
<pdfrwt beam="1">  1        2 0.20309480E+00 0.26253245E+04</pdfrwt>
<pdfrwt beam="2">  1       -1 0.20080776E+00 0.26253245E+04</pdfrwt>
<totfact> 0.24045470E+00</totfact>
</mgrwt>
</event>
<event>
12    6  0.1457317E-007  0.1236056E+04  0.7818608E-02  0.9081869E-01
          2   -1    0    0  501    0  0.00000000000E+00  0.00000000000E+00  0.16603135319E+04  0.16603135319E+04  0.00000000000E+00 0. -1.
         -1   -1    0    0    0  501 -0.00000000000E+00 -0.00000000000E+00 -0.23005226182E+03  0.23005226182E+03  0.00000000000E+00 0.  1.
         24    2    1    2    0    0 -0.20516566320E+03 -0.19139340506E+03  0.28562829069E+03  0.40811087427E+03  0.79035311055E+02 0.  0.
        254    2    1    2    0    0  0.20516566320E+03  0.19139340506E+03  0.11446329794E+04  0.14822549195E+04  0.89898309433E+03 0.  0.
         23    2    4    4    0    0  0.23643120653E+03 -0.16083298004E+03  0.10674852089E+04  0.11087202959E+04  0.89269594338E+02 0.  0.
         23    2    4    4    0    0 -0.31265543328E+02  0.35222638510E+03  0.77147770525E+02  0.37353462357E+03  0.92387098355E+02 0.  0.
          4    1    3    3  502    0 -0.69357494206E+02 -0.77983254474E+02  0.56682285777E+02  0.11876334242E+03  0.00000000000E+00 0. -1.
         -3    1    3    3    0  502 -0.13580816900E+03 -0.11341015059E+03  0.22894600491E+03  0.28934753185E+03  0.00000000000E+00 0.  1.
         11    1    5    5    0    0  0.37257704681E+02 -0.47845374088E+02  0.12665053555E+03  0.14041963729E+03  0.00000000000E+00 0. -1.
        -11    1    5    5    0    0  0.19917350185E+03 -0.11298760595E+03  0.94083467333E+03  0.96830065862E+03  0.00000000000E+00 0.  1.
          3    1    6    6  503    0  0.30504859045E+02  0.71537118988E+02  0.22722638301E+02  0.81021133723E+02  0.00000000000E+00 0. -1.
         -3    1    6    6    0  503 -0.61770402373E+02  0.28068926612E+03  0.54425132224E+02  0.29251348984E+03  0.00000000000E+00 0.  1.
<mgrwt>
<rscale>  0 0.12360564E+04</rscale>
<asrwt>0</asrwt>
<pdfrwt beam="1">  1        2 0.25543284E+00 0.12360564E+04</pdfrwt>
<pdfrwt beam="2">  1       -1 0.35392657E-01 0.12360564E+04</pdfrwt>
<totfact> 0.88006875E+01</totfact>
</mgrwt>
</event>
<event>
12    6  0.1457317E-007  0.1153415E+04  0.7818608E-02  0.9154639E-01
         -1   -1    0    0    0  501 -0.00000000000E+00  0.00000000000E+00  0.14743087940E+04  0.14743087940E+04  0.00000000000E+00 0.  1.
          2   -1    0    0  501    0  0.00000000000E+00 -0.00000000000E+00 -0.22559131784E+03  0.22559131784E+03  0.00000000000E+00 0. -1.
         24    2    1    2    0    0  0.15528066195E+03 -0.12769934936E+02  0.30683422879E+02  0.17751906673E+03  0.79349804013E+02 0.  0.
        254    2    1    2    0    0 -0.15528066195E+03  0.12769934936E+02  0.12180340533E+04  0.15223810451E+04  0.89986773270E+03 0.  0.
         23    2    4    4    0    0  0.52629746951E+01  0.32062946461E+03  0.99893284813E+02  0.34808920305E+03  0.91413743224E+02 0.  0.
         23    2    4    4    0    0 -0.16054363665E+03 -0.30785952968E+03  0.11181407684E+04  0.11742918420E+04  0.90392493855E+02 0.  0.
          2    1    3    3  502    0  0.15681639892E+03 -0.26348306654E+02  0.35681668464E+02  0.16296870159E+03  0.00000000000E+00 0. -1.
         -1    1    3    3    0  502 -0.15357369703E+01  0.13578371718E+02 -0.49982455848E+01  0.14550365132E+02  0.00000000000E+00 0.  1.
         11    1    5    5    0    0  0.43617358498E+01  0.95379547343E+02  0.75103182815E+02  0.12147745001E+03  0.00000000000E+00 0. -1.
        -11    1    5    5    0    0  0.90123884529E+00  0.22524991727E+03  0.24790101998E+02  0.22661175305E+03  0.00000000000E+00 0.  1.
          4    1    6    6  503    0 -0.25595741669E+02 -0.55841527289E+02  0.33544628102E+03  0.34102437686E+03  0.00000000000E+00 0.  1.
         -4    1    6    6    0  503 -0.13494789498E+03 -0.25201800239E+03  0.78269448742E+03  0.83326746518E+03  0.00000000000E+00 0. -1.
<mgrwt>
<rscale>  0 0.11534145E+04</rscale>
<asrwt>0</asrwt>
<pdfrwt beam="1">  1        2 0.34706358E-01 0.11534145E+04</pdfrwt>
<pdfrwt beam="2">  1       -1 0.22681673E+00 0.11534145E+04</pdfrwt>
<totfact> 0.17020786E+01</totfact>
</mgrwt>
</event>
<event>
12    6  0.1457317E-007  0.2282106E+04  0.7818608E-02  0.8485010E-01
          2   -1    0    0  501    0  0.00000000000E+00  0.00000000000E+00  0.68073981495E+03  0.68073981495E+03  0.00000000000E+00 0. -1.
         -1   -1    0    0    0  501 -0.00000000000E+00 -0.00000000000E+00 -0.19126275956E+04  0.19126275956E+04  0.00000000000E+00 0.  1.
         24    2    1    2    0    0  0.70355259795E+03  0.46404286497E+03 -0.96471867655E+03  0.12834452161E+04  0.78914251991E+02 0.  0.
        254    2    1    2    0    0 -0.70355259795E+03 -0.46404286497E+03 -0.26716910415E+03  0.13099221945E+04  0.96653752482E+03 0.  0.
         23    2    4    4    0    0 -0.26646621945E+03  0.14057371072E+03 -0.43673785038E+03  0.53937427715E+03  0.97053833747E+02 0.  0.
         23    2    4    4    0    0 -0.43708637850E+03 -0.60461657569E+03  0.16956874623E+03  0.77054791737E+03  0.91568703146E+02 0.  0.
          2    1    3    3  502    0  0.48090328176E+03  0.28499190960E+03 -0.67705209840E+03  0.87800222033E+03  0.00000000000E+00 0. -1.
         -1    1    3    3    0  502  0.22264931618E+03  0.17905095537E+03 -0.28766657815E+03  0.40544299574E+03  0.00000000000E+00 0.  1.
         11    1    5    5    0    0 -0.26450045656E+03  0.13069182561E+03 -0.37661852209E+03  0.47841650889E+03  0.00000000000E+00 0. -1.
        -11    1    5    5    0    0 -0.19657628927E+01  0.98818851154E+01 -0.60119328291E+02  0.60957768261E+02  0.00000000000E+00 0.  1.
          4    1    6    6  503    0 -0.43655916007E+03 -0.58982146999E+03  0.17565980779E+03  0.75453935270E+03  0.00000000000E+00 0. -1.
         -4    1    6    6    0  503 -0.52721843329E+00 -0.14795105696E+02 -0.60910615573E+01  0.16008564668E+02  0.00000000000E+00 0.  1.
<mgrwt>
<rscale>  0 0.22821058E+04</rscale>
<asrwt>0</asrwt>
<pdfrwt beam="1">  1        2 0.10472920E+00 0.22821058E+04</pdfrwt>
<pdfrwt beam="2">  1       -1 0.29425039E+00 0.22821058E+04</pdfrwt>
<totfact> 0.15827831E+00</totfact>
</mgrwt>
</event>
<event>
12    6  0.1457317E-007  0.1052548E+04  0.7818608E-02  0.9252717E-01
         -1   -1    0    0    0  501 -0.00000000000E+00  0.00000000000E+00  0.93814833912E+03  0.93814833912E+03  0.00000000000E+00 0.  1.
          2   -1    0    0  501    0  0.00000000000E+00 -0.00000000000E+00 -0.29522464000E+03  0.29522464000E+03  0.00000000000E+00 0. -1.
         24    2    1    2    0    0 -0.96043824670E+02 -0.42672831799E+02  0.64399887523E+02  0.15503575779E+03  0.94039108077E+02 0.  0.
        254    2    1    2    0    0  0.96043824670E+02  0.42672831799E+02  0.57852381160E+03  0.10783372213E+04  0.90392254951E+03 0.  0.
         23    2    4    4    0    0 -0.15569605650E+03 -0.32438126927E+03  0.38066808923E+02  0.37257800254E+03  0.88886535377E+02 0.  0.
         23    2    4    4    0    0  0.25173988117E+03  0.36705410107E+03  0.54045700268E+03  0.70575921881E+03  0.88885444861E+02 0.  0.
          2    1    3    3  502    0 -0.71119550886E+02  0.19747866991E+02  0.33103673119E+02  0.80893893112E+02  0.00000000000E+00 0. -1.
         -1    1    3    3    0  502 -0.24924273785E+02 -0.62420698790E+02  0.31296214404E+02  0.74141864673E+02  0.00000000000E+00 0.  1.
         11    1    5    5    0    0 -0.11916888827E+03 -0.30459608341E+03  0.45966462907E+02  0.33029216411E+03  0.00000000000E+00 0. -1.
        -11    1    5    5    0    0 -0.36527168231E+02 -0.19785185858E+02 -0.78996539840E+01  0.42285838427E+02  0.00000000000E+00 0.  1.
          4    1    6    6  503    0  0.20031852056E+03  0.28368789836E+03  0.35858798047E+03  0.49919101864E+03  0.00000000000E+00 0. -1.
         -4    1    6    6    0  503  0.51421360605E+02  0.83366202704E+02  0.18186902221E+03  0.20656820016E+03  0.00000000000E+00 0.  1.
<mgrwt>
<rscale>  0 0.10525483E+04</rscale>
<asrwt>0</asrwt>
<pdfrwt beam="1">  1        2 0.45419176E-01 0.10525483E+04</pdfrwt>
<pdfrwt beam="2">  1       -1 0.14433051E+00 0.10525483E+04</pdfrwt>
<totfact> 0.49342642E+01</totfact>
</mgrwt>
</event>
<event>
12    6  0.1457317E-007  0.1419184E+04  0.7818608E-02  0.8940048E-01
          2   -1    0    0  501    0  0.00000000000E+00  0.00000000000E+00  0.77026373817E+03  0.77026373817E+03  0.00000000000E+00 0. -1.
         -1   -1    0    0    0  501 -0.00000000000E+00 -0.00000000000E+00 -0.65369887141E+03  0.65369887141E+03  0.00000000000E+00 0.  1.
         24    2    1    2    0    0 -0.27596376338E+03  0.92663924997E+02  0.33447142218E+03  0.44961819455E+03  0.74449895392E+02 0.  0.
        254    2    1    2    0    0  0.27596376338E+03 -0.92663924997E+02 -0.21790655543E+03  0.97434441503E+03  0.90394754854E+03 0.  0.
         23    2    4    4    0    0 -0.11344611274E+03  0.30665369542E+03 -0.22814362380E+03  0.40904028251E+03  0.91421716369E+02 0.  0.
         23    2    4    4    0    0  0.38940987611E+03 -0.39931762042E+03  0.10237068375E+02  0.56530413252E+03  0.91484157515E+02 0.  0.
          2    1    3    3  502    0 -0.13452708659E+03  0.80683872788E+02  0.19909768815E+03  0.25347053829E+03  0.00000000000E+00 0. -1.
         -1    1    3    3    0  502 -0.14143667679E+03  0.11980052209E+02  0.13537373403E+03  0.19614765626E+03  0.00000000000E+00 0.  1.
         11    1    5    5    0    0 -0.21336583558E+02  0.68685211542E+02 -0.86268287705E+01  0.72438458412E+02  0.00000000000E+00 0.  1.
        -11    1    5    5    0    0 -0.92109529180E+02  0.23796848388E+03 -0.21951679503E+03  0.33660182410E+03  0.00000000000E+00 0. -1.
          3    1    6    6  503    0  0.35544418571E+03 -0.36801416484E+03  0.35109251157E+02  0.51284271877E+03  0.00000000000E+00 0. -1.
         -3    1    6    6    0  503  0.33965690407E+02 -0.31303455584E+02 -0.24872182782E+02  0.52461413750E+02  0.00000000000E+00 0.  1.
<mgrwt>
<rscale>  0 0.14191836E+04</rscale>
<asrwt>0</asrwt>
<pdfrwt beam="1">  1        2 0.11850211E+00 0.14191836E+04</pdfrwt>
<pdfrwt beam="2">  1       -1 0.10056906E+00 0.14191836E+04</pdfrwt>
<totfact> 0.37830070E+01</totfact>
</mgrwt>
</event>
<event>
12    6  0.1457317E-007  0.1949125E+04  0.7818608E-02  0.8630783E-01
          2   -1    0    0  501    0  0.00000000000E+00  0.00000000000E+00  0.13582030587E+04  0.13582030587E+04  0.00000000000E+00 0. -1.
         -3   -1    0    0    0  501 -0.00000000000E+00 -0.00000000000E+00 -0.69928596047E+03  0.69928596047E+03  0.00000000000E+00 0.  1.
         24    2    1    2    0    0 -0.24283343735E+03  0.38387293180E+03 -0.39409299435E+03  0.60644772088E+03  0.78377572729E+02 0.  0.
        254    2    1    2    0    0  0.24283343735E+03 -0.38387293180E+03  0.10530100926E+04  0.14510412983E+04  0.88902423374E+03 0.  0.
         23    2    4    4    0    0  0.18665043691E+03 -0.60585889477E+03  0.40383835641E+03  0.75727828254E+03  0.92095565173E+02 0.  0.
         23    2    4    4    0    0  0.56183000442E+02  0.22198596297E+03  0.64917173615E+03  0.69376301573E+03  0.86306904030E+02 0.  0.
          2    1    3    3  502    0 -0.11813067573E+03  0.12766125838E+03 -0.17762568705E+03  0.24860236954E+03  0.00000000000E+00 0. -1.
         -1    1    3    3    0  502 -0.12470276162E+03  0.25621167341E+03 -0.21646730730E+03  0.35784535135E+03  0.00000000000E+00 0.  1.
         11    1    5    5    0    0  0.12675323775E+03 -0.50955560718E+03  0.35482003043E+03  0.63372750775E+03  0.00000000000E+00 0. -1.
        -11    1    5    5    0    0  0.59897199164E+02 -0.96303287585E+02  0.49018325985E+02  0.12355077478E+03  0.00000000000E+00 0.  1.
          2    1    6    6  503    0  0.16990678916E+02  0.16660213373E+03  0.53859898747E+03  0.56403353042E+03  0.00000000000E+00 0. -1.
         -2    1    6    6    0  503  0.39192321527E+02  0.55383829244E+02  0.11057274868E+03  0.12972948531E+03  0.00000000000E+00 0.  1.
<mgrwt>
<rscale>  0 0.19491253E+04</rscale>
<asrwt>0</asrwt>
<pdfrwt beam="1">  1        2 0.20895432E+00 0.19491253E+04</pdfrwt>
<pdfrwt beam="2">  1       -3 0.10758246E+00 0.19491253E+04</pdfrwt>
<totfact> 0.66640346E+00</totfact>
</mgrwt>
</event>
<event>
12    6  0.1457317E-007  0.2556664E+04  0.7818608E-02  0.8383072E-01
          2   -1    0    0  501    0  0.00000000000E+00  0.00000000000E+00  0.15356596131E+04  0.15356596131E+04  0.00000000000E+00 0. -1.
         -1   -1    0    0    0  501 -0.00000000000E+00 -0.00000000000E+00 -0.10641244825E+04  0.10641244825E+04  0.00000000000E+00 0.  1.
         24    2    1    2    0    0  0.56199706538E+03  0.58405129509E+03  0.99946851710E+03  0.12892604659E+04  0.79363817033E+02 0.  0.
        254    2    1    2    0    0 -0.56199706538E+03 -0.58405129509E+03 -0.52793338644E+03  0.13105236297E+04  0.88419562699E+03 0.  0.
         23    2    4    4    0    0  0.10059879927E+03 -0.33993434207E+03 -0.47035619940E+03  0.59601049899E+03  0.91203537560E+02 0.  0.
         23    2    4    4    0    0 -0.66259586465E+03 -0.24411695301E+03 -0.57577187048E+02  0.71451313074E+03  0.92668845520E+02 0.  0.
          4    1    3    3  502    0  0.44414911319E+03  0.44077566697E+03  0.81646195148E+03  0.10286698895E+04  0.00000000000E+00 0. -1.
         -3    1    3    3    0  502  0.11784795219E+03  0.14327562811E+03  0.18300656562E+03  0.26059057640E+03  0.00000000000E+00 0.  1.
         11    1    5    5    0    0  0.99563802913E+02 -0.28113403157E+03 -0.43489928924E+03  0.52733925166E+03  0.00000000000E+00 0. -1.
        -11    1    5    5    0    0  0.10349963604E+01 -0.58800310503E+02 -0.35456910155E+02  0.68671247334E+02  0.00000000000E+00 0.  1.
          2    1    6    6  503    0 -0.28332793658E+03 -0.59062800501E+02 -0.39696778723E+02  0.29212834215E+03  0.00000000000E+00 0. -1.
         -2    1    6    6    0  503 -0.37926792808E+03 -0.18505415251E+03 -0.17880408324E+02  0.42238478859E+03  0.00000000000E+00 0.  1.
<mgrwt>
<rscale>  0 0.25566642E+04</rscale>
<asrwt>0</asrwt>
<pdfrwt beam="1">  1        2 0.23625532E+00 0.25566642E+04</pdfrwt>
<pdfrwt beam="2">  1       -1 0.16371146E+00 0.25566642E+04</pdfrwt>
<totfact> 0.33573691E+00</totfact>
</mgrwt>
</event>
<event>
12    6  0.1457317E-007  0.3481709E+04  0.7818608E-02  0.8118138E-01
          2   -1    0    0  501    0  0.00000000000E+00  0.00000000000E+00  0.29069755262E+04  0.29069755262E+04  0.00000000000E+00 0. -1.
         -1   -1    0    0    0  501 -0.00000000000E+00 -0.00000000000E+00 -0.10425178456E+04  0.10425178456E+04  0.00000000000E+00 0.  1.
         24    2    1    2    0    0 -0.67802368554E+03  0.70042429307E+03  0.23421480887E+04  0.25383273572E+04  0.84485469534E+02 0.  0.
        254    2    1    2    0    0  0.67802368554E+03 -0.70042429307E+03 -0.47769040805E+03  0.14111660146E+04  0.90160472837E+03 0.  0.
         23    2    4    4    0    0  0.88299070689E+03 -0.55484243165E+03 -0.29226083288E+03  0.10870177803E+04  0.93105037137E+02 0.  0.
         23    2    4    4    0    0 -0.20496702134E+03 -0.14558186141E+03 -0.18542957517E+03  0.32414823421E+03  0.86500821865E+02 0.  0.
          2    1    3    3  502    0 -0.66875316227E+03  0.67548140227E+03  0.22533296138E+04  0.24456083631E+04  0.00000000000E+00 0. -1.
         -1    1    3    3    0  502 -0.92705232785E+01  0.24942890793E+02  0.88818474825E+02  0.92718994134E+02  0.00000000000E+00 0.  1.
         11    1    5    5    0    0  0.18616495050E+03 -0.15691971697E+03 -0.47374094182E+02  0.24804332518E+03  0.00000000000E+00 0.  1.
        -11    1    5    5    0    0  0.69682575639E+03 -0.39792271469E+03 -0.24488673870E+03  0.83897445516E+03  0.00000000000E+00 0. -1.
          2    1    6    6  503    0 -0.19375013431E+03 -0.15609975694E+03 -0.18232358621E+03  0.30846091933E+03  0.00000000000E+00 0. -1.
         -2    1    6    6    0  503 -0.11216887031E+02  0.10517895524E+02 -0.31059889589E+01  0.15687314886E+02  0.00000000000E+00 0.  1.
<mgrwt>
<rscale>  0 0.34817087E+04</rscale>
<asrwt>0</asrwt>
<pdfrwt beam="1">  1        2 0.44722700E+00 0.34817087E+04</pdfrwt>
<pdfrwt beam="2">  1       -1 0.16038736E+00 0.34817087E+04</pdfrwt>
<totfact> 0.53938690E-01</totfact>
</mgrwt>
</event>
<event>
12    6  0.1457317E-007  0.2809076E+04  0.7818608E-02  0.8300456E-01
         -1   -1    0    0    0  501 -0.00000000000E+00  0.00000000000E+00  0.15236754650E+04  0.15236754650E+04  0.00000000000E+00 0.  1.
          2   -1    0    0  501    0  0.00000000000E+00 -0.00000000000E+00 -0.12947155904E+04  0.12947155904E+04  0.00000000000E+00 0. -1.
         24    2    1    2    0    0 -0.34577932966E+03  0.91378864582E+03 -0.69592079527E+03  0.12020166171E+04  0.77234450917E+02 0.  0.
        254    2    1    2    0    0  0.34577932966E+03 -0.91378864582E+03  0.92488066979E+03  0.16163744383E+04  0.89592914752E+03 0.  0.
         23    2    4    4    0    0  0.35815389481E+03 -0.15541777334E+03 -0.19553300865E+02  0.40178775687E+03  0.92855658710E+02 0.  0.
         23    2    4    4    0    0 -0.12374565149E+02 -0.75837087248E+03  0.94443397066E+03  0.12145866814E+04  0.89363145020E+02 0.  0.
          2    1    3    3  502    0 -0.16132447747E+03  0.49676804282E+03 -0.33543157898E+03  0.62074021907E+03  0.00000000000E+00 0. -1.
         -1    1    3    3    0  502 -0.18445485220E+03  0.41702060300E+03 -0.36048921630E+03  0.58127639802E+03  0.00000000000E+00 0.  1.
         11    1    5    5    0    0  0.97093750789E+02 -0.18569776750E+02 -0.39286579535E+02  0.10637419040E+03  0.00000000000E+00 0. -1.
        -11    1    5    5    0    0  0.26106014402E+03 -0.13684799659E+03  0.19733278671E+02  0.29541356647E+03  0.00000000000E+00 0.  1.
          3    1    6    6  503    0  0.32331402958E+01 -0.62430673847E+03  0.72286380137E+03  0.95514471795E+03  0.00000000000E+00 0. -1.
         -3    1    6    6    0  503 -0.15607705445E+02 -0.13406413401E+03  0.22157016928E+03  0.25944196348E+03  0.00000000000E+00 0.  1.
<mgrwt>
<rscale>  0 0.28090756E+04</rscale>
<asrwt>0</asrwt>
<pdfrwt beam="1">  1        2 0.19918702E+00 0.28090756E+04</pdfrwt>
<pdfrwt beam="2">  1       -1 0.23441161E+00 0.28090756E+04</pdfrwt>
<totfact> 0.14554254E+00</totfact>
</mgrwt>
</event>
<event>
12    6  0.1457317E-007  0.3002955E+04  0.7818608E-02  0.8242888E-01
          2   -1    0    0  501    0  0.00000000000E+00  0.00000000000E+00  0.11705329821E+04  0.11705329821E+04  0.00000000000E+00 0. -1.
         -1   -1    0    0    0  501 -0.00000000000E+00 -0.00000000000E+00 -0.19259894084E+04  0.19259894084E+04  0.00000000000E+00 0.  1.
         24    2    1    2    0    0 -0.39157535576E+03 -0.84646884770E+02  0.10010944053E+04  0.10815563809E+04  0.84129913827E+02 0.  0.
        254    2    1    2    0    0  0.39157535576E+03  0.84646884770E+02 -0.17565508316E+04  0.20149660095E+04  0.90228645182E+03 0.  0.
         23    2    4    4    0    0  0.95852488613E+02  0.28450130301E+03 -0.15735721068E+04  0.16040789826E+04  0.82531910107E+02 0.  0.
         23    2    4    4    0    0  0.29572286715E+03 -0.19985441824E+03 -0.18297872481E+03  0.41088702690E+03  0.89180336930E+02 0.  0.
          4    1    3    3  502    0 -0.21018541920E+03 -0.36808495450E+02  0.64009588405E+03  0.67472625305E+03  0.00000000000E+00 0. -1.
         -1    1    3    3    0  502 -0.18138993657E+03 -0.47838389321E+02  0.36099852126E+03  0.40683012786E+03  0.00000000000E+00 0.  1.
         11    1    5    5    0    0  0.72691287939E+02  0.26820672047E+03 -0.14938688810E+04  0.15194943573E+04  0.00000000000E+00 0.  1.
        -11    1    5    5    0    0  0.23161200674E+02  0.16294582543E+02 -0.79703225779E+02  0.84584625296E+02  0.00000000000E+00 0. -1.
          4    1    6    6  503    0 -0.51670016043E+01 -0.12216810268E+02 -0.75686556159E+01  0.15271964724E+02  0.00000000000E+00 0. -1.
         -4    1    6    6    0  503  0.30088986876E+03 -0.18763760797E+03 -0.17541006919E+03  0.39561506217E+03  0.00000000000E+00 0.  1.
<mgrwt>
<rscale>  0 0.30029546E+04</rscale>
<asrwt>0</asrwt>
<pdfrwt beam="1">  1        2 0.18008200E+00 0.30029546E+04</pdfrwt>
<pdfrwt beam="2">  1       -1 0.29630606E+00 0.30029546E+04</pdfrwt>
<totfact> 0.67124656E-01</totfact>
</mgrwt>
</event>
<event>
12    6  0.1457317E-007  0.1914498E+04  0.7818608E-02  0.8647674E-01
         -1   -1    0    0    0  501 -0.00000000000E+00  0.00000000000E+00  0.10052881118E+04  0.10052881118E+04  0.00000000000E+00 0.  1.
          2   -1    0    0  501    0  0.00000000000E+00 -0.00000000000E+00 -0.91150504231E+03  0.91150504231E+03  0.00000000000E+00 0. -1.
         24    2    1    2    0    0 -0.69576161936E+03  0.25461050550E+03 -0.47750356607E+02  0.74657146078E+03  0.78600947827E+02 0.  0.
        254    2    1    2    0    0  0.69576161936E+03 -0.25461050550E+03  0.14153342606E+03  0.11702216933E+04  0.89469344486E+03 0.  0.
         23    2    4    4    0    0  0.60857101591E+03 -0.35737118599E+03  0.43532277637E+03  0.83453682731E+03  0.94196340320E+02 0.  0.
         23    2    4    4    0    0  0.87190603449E+02  0.10276068048E+03 -0.29378935031E+03  0.33568486598E+03  0.90610088337E+02 0.  0.
          4    1    3    3  502    0 -0.12723093585E+03  0.34207130449E+02  0.19232189610E+02  0.13314546904E+03  0.00000000000E+00 0. -1.
         -3    1    3    3    0  502 -0.56853068352E+03  0.22040337505E+03 -0.66982546217E+02  0.61342599173E+03  0.00000000000E+00 0.  1.
         11    1    5    5    0    0  0.54748595621E+03 -0.34964325846E+03  0.40851228996E+03  0.76738098196E+03  0.00000000000E+00 0. -1.
        -11    1    5    5    0    0  0.61085059703E+02 -0.77279275273E+01  0.26810486417E+02  0.67155845350E+02  0.00000000000E+00 0.  1.
          3    1    6    6  503    0  0.40679461360E+02  0.99423508675E+02 -0.24829806238E+03  0.27053979455E+03  0.00000000000E+00 0. -1.
         -3    1    6    6    0  503  0.46511142089E+02  0.33371718098E+01 -0.45491287938E+02  0.65145071436E+02  0.00000000000E+00 0.  1.
<mgrwt>
<rscale>  0 0.19144975E+04</rscale>
<asrwt>0</asrwt>
<pdfrwt beam="1">  1        2 0.14023154E+00 0.19144975E+04</pdfrwt>
<pdfrwt beam="2">  1       -1 0.15465971E+00 0.19144975E+04</pdfrwt>
<totfact> 0.98705750E+00</totfact>
</mgrwt>
</event>
<event>
12    6  0.1457317E-007  0.1219976E+04  0.7818608E-02  0.9095549E-01
          2   -1    0    0  501    0  0.00000000000E+00  0.00000000000E+00  0.13751406367E+04  0.13751406367E+04  0.00000000000E+00 0. -1.
         -1   -1    0    0    0  501 -0.00000000000E+00 -0.00000000000E+00 -0.27057978715E+03  0.27057978715E+03  0.00000000000E+00 0.  1.
         24    2    1    2    0    0 -0.95642549747E+00 -0.20087929544E+03  0.47147761316E+02  0.22862909115E+03  0.98462905895E+02 0.  0.
        254    2    1    2    0    0  0.95642549747E+00  0.20087929544E+03  0.10574130883E+04  0.14170913327E+04  0.92177654557E+03 0.  0.
         23    2    4    4    0    0  0.16718018389E+03  0.51944939803E+03  0.48914409782E+03  0.73875295609E+03  0.93365361315E+02 0.  0.
         23    2    4    4    0    0 -0.16622375839E+03 -0.31857010259E+03  0.56826899044E+03  0.67833837663E+03  0.89978106217E+02 0.  0.
          2    1    3    3  502    0  0.37616199255E+02 -0.15104216558E+03  0.55074895185E+02  0.16511195689E+03  0.00000000000E+00 0. -1.
         -3    1    3    3    0  502 -0.38572624753E+02 -0.49837129861E+02 -0.79271338686E+01  0.63517134259E+02  0.00000000000E+00 0.  1.
         11    1    5    5    0    0  0.10033202815E+03  0.42933606853E+03  0.37683951420E+03  0.58000344402E+03  0.00000000000E+00 0.  1.
        -11    1    5    5    0    0  0.66848155734E+02  0.90113329509E+02  0.11230458362E+03  0.15874951207E+03  0.00000000000E+00 0. -1.
          3    1    6    6  503    0  0.38469051451E-01  0.56231248885E+01  0.13528669394E+02  0.14650798919E+02  0.00000000000E+00 0. -1.
         -3    1    6    6    0  503 -0.16626222744E+03 -0.32419322748E+03  0.55474032104E+03  0.66368757771E+03  0.00000000000E+00 0.  1.
<mgrwt>
<rscale>  0 0.12199758E+04</rscale>
<asrwt>0</asrwt>
<pdfrwt beam="1">  1        2 0.21156009E+00 0.12199758E+04</pdfrwt>
<pdfrwt beam="2">  1       -1 0.41627660E-01 0.12199758E+04</pdfrwt>
<totfact> 0.95010368E+01</totfact>
</mgrwt>
</event>
<event>
12    6  0.1457317E-007  0.1351237E+04  0.7818608E-02  0.8989892E-01
         -1   -1    0    0    0  501 -0.00000000000E+00  0.00000000000E+00  0.11078072565E+04  0.11078072565E+04  0.00000000000E+00 0.  1.
          2   -1    0    0  501    0  0.00000000000E+00 -0.00000000000E+00 -0.41203952683E+03  0.41203952683E+03  0.00000000000E+00 0. -1.
         24    2    1    2    0    0  0.52731737423E+02  0.36962448514E+03  0.22823474294E+03  0.44485071187E+03  0.79988510515E+02 0.  0.
        254    2    1    2    0    0 -0.52731737423E+02 -0.36962448514E+03  0.46753298676E+03  0.10749960715E+04  0.89309941432E+03 0.  0.
         23    2    4    4    0    0  0.38367295335E+02  0.25673098911E+03  0.31379424326E+03  0.41736225408E+03  0.91332217229E+02 0.  0.
         23    2    4    4    0    0 -0.91099032758E+02 -0.62635547426E+03  0.15373874350E+03  0.65763381741E+03  0.90699628696E+02 0.  0.
          4    1    3    3  502    0  0.22654857967E+02  0.29511562795E+03  0.14657623105E+03  0.33028937003E+03  0.00000000000E+00 0. -1.
         -3    1    3    3    0  502  0.30076879456E+02  0.74508857198E+02  0.81658511894E+02  0.11456134184E+03  0.00000000000E+00 0.  1.
         11    1    5    5    0    0  0.49730972495E+02  0.20047488304E+03  0.18886631808E+03  0.27988182231E+03  0.00000000000E+00 0.  1.
        -11    1    5    5    0    0 -0.11363677160E+02  0.56256106072E+02  0.12492792518E+03  0.13748043176E+03  0.00000000000E+00 0. -1.
          1    1    6    6  503    0  0.13276764112E+02 -0.13250686696E+03  0.50513694717E+02  0.14242884403E+03  0.00000000000E+00 0. -1.
         -1    1    6    6    0  503 -0.10437579687E+03 -0.49384860730E+03  0.10322504878E+03  0.51520497338E+03  0.00000000000E+00 0.  1.
<mgrwt>
<rscale>  0 0.13512370E+04</rscale>
<asrwt>0</asrwt>
<pdfrwt beam="1">  1        2 0.63390697E-01 0.13512370E+04</pdfrwt>
<pdfrwt beam="2">  1       -1 0.17043188E+00 0.13512370E+04</pdfrwt>
<totfact> 0.20989304E+01</totfact>
</mgrwt>
</event>
<event>
12    6  0.1457317E-007  0.1319923E+04  0.7818608E-02  0.9013914E-01
         -1   -1    0    0    0  501 -0.00000000000E+00  0.00000000000E+00  0.70555771489E+03  0.70555771489E+03  0.00000000000E+00 0.  1.
          2   -1    0    0  501    0  0.00000000000E+00 -0.00000000000E+00 -0.61731182433E+03  0.61731182433E+03  0.00000000000E+00 0. -1.
         24    2    1    2    0    0 -0.27365019872E+03 -0.58282285533E+02 -0.31253110095E+03  0.42727328630E+03  0.81274325967E+02 0.  0.
        254    2    1    2    0    0  0.27365019872E+03  0.58282285533E+02  0.40077699152E+03  0.89559625292E+03  0.75045932284E+03 0.  0.
         23    2    4    4    0    0  0.33222416974E+03  0.28123903099E+02  0.58468616335E+03  0.68008983564E+03  0.97470108478E+02 0.  0.
         23    2    4    4    0    0 -0.58573971021E+02  0.30158382434E+02 -0.18390917183E+03  0.21550641728E+03  0.90994473969E+02 0.  0.
          2    1    3    3  502    0 -0.18804084417E+03 -0.76895655878E+02 -0.20565930629E+03  0.28908139205E+03  0.00000000000E+00 0. -1.
         -1    1    3    3    0  502 -0.85609354547E+02  0.18613370345E+02 -0.10687179466E+03  0.13819189425E+03  0.00000000000E+00 0.  1.
         11    1    5    5    0    0  0.25866629798E+03  0.53629043008E+02  0.49688813114E+03  0.56274518464E+03  0.00000000000E+00 0.  1.
        -11    1    5    5    0    0  0.73557871753E+02 -0.25505139909E+02  0.87798032201E+02  0.11734465099E+03  0.00000000000E+00 0. -1.
          4    1    6    6  503    0 -0.17215737900E+02 -0.22432982575E+02 -0.11890958429E+03  0.12222565023E+03  0.00000000000E+00 0.  1.
         -4    1    6    6    0  503 -0.41358233121E+02  0.52591365009E+02 -0.64999587539E+02  0.93280767046E+02  0.00000000000E+00 0. -1.
<mgrwt>
<rscale>  0 0.13199229E+04</rscale>
<asrwt>0</asrwt>
<pdfrwt beam="1">  1        2 0.94971050E-01 0.13199229E+04</pdfrwt>
<pdfrwt beam="2">  1       -1 0.10854734E+00 0.13199229E+04</pdfrwt>
<totfact> 0.42221800E+01</totfact>
</mgrwt>
</event>
<event>
12    6  0.1457317E-007  0.1265263E+04  0.7818608E-02  0.9057575E-01
          2   -1    0    0  501    0  0.00000000000E+00  0.00000000000E+00  0.31104860240E+04  0.31104860240E+04  0.00000000000E+00 0. -1.
         -1   -1    0    0    0  501 -0.00000000000E+00 -0.00000000000E+00 -0.12866880326E+03  0.12866880326E+03  0.00000000000E+00 0.  1.
         24    2    1    2    0    0  0.21603802753E+03 -0.58931864145E+02  0.12064951005E+04  0.12296791774E+04  0.79593077689E+02 0.  0.
        254    2    1    2    0    0 -0.21603802753E+03  0.58931864145E+02  0.17753221203E+04  0.20094756498E+04  0.91437320746E+03 0.  0.
         23    2    4    4    0    0  0.68837225234E+02  0.15523251107E+03 -0.16191434488E+02  0.19064231961E+03  0.85127171967E+02 0.  0.
         23    2    4    4    0    0 -0.28487525276E+03 -0.96300646921E+02  0.17915135548E+04  0.18188333302E+04  0.90587758191E+02 0.  0.
          4    1    3    3  502    0  0.20908975271E+03 -0.42442819847E+02  0.10053357244E+04  0.10277255648E+04  0.00000000000E+00 0. -1.
         -3    1    3    3    0  502  0.69482748163E+01 -0.16489044298E+02  0.20115937605E+03  0.20195361269E+03  0.00000000000E+00 0.  1.
         11    1    5    5    0    0  0.39763041433E+02  0.57889459902E+02 -0.46970725995E+02  0.84489869998E+02  0.00000000000E+00 0.  1.
        -11    1    5    5    0    0  0.29074183800E+02  0.97343051164E+02  0.30779291508E+02  0.10615244962E+03  0.00000000000E+00 0. -1.
          4    1    6    6  503    0 -0.21707381063E+03 -0.51539321338E+02  0.14880398399E+04  0.15046726907E+04  0.00000000000E+00 0. -1.
         -4    1    6    6    0  503 -0.67801442129E+02 -0.44761325583E+02  0.30347371483E+03  0.31416063951E+03  0.00000000000E+00 0.  1.
<mgrwt>
<rscale>  0 0.12652628E+04</rscale>
<asrwt>0</asrwt>
<pdfrwt beam="1">  1        2 0.47853626E+00 0.12652628E+04</pdfrwt>
<pdfrwt beam="2">  1       -1 0.19795203E-01 0.12652628E+04</pdfrwt>
<totfact> 0.35002745E+01</totfact>
</mgrwt>
</event>
<event>
12    6  0.1457317E-007  0.1316884E+04  0.7818608E-02  0.9016282E-01
          2   -1    0    0  501    0  0.00000000000E+00  0.00000000000E+00  0.19276777300E+03  0.19276777300E+03  0.00000000000E+00 0. -1.
         -1   -1    0    0    0  501 -0.00000000000E+00 -0.00000000000E+00 -0.22490578190E+04  0.22490578190E+04  0.00000000000E+00 0.  1.
         24    2    1    2    0    0 -0.67217015062E+02  0.80543459733E+02 -0.11729903611E+04  0.11809451705E+04  0.87862007632E+02 0.  0.
        254    2    1    2    0    0  0.67217015062E+02 -0.80543459733E+02 -0.88329968487E+03  0.12608804215E+04  0.89364183432E+03 0.  0.
         23    2    4    4    0    0  0.43646506517E+03 -0.20441214802E+03 -0.56633228013E+03  0.74990517057E+03  0.96640746877E+02 0.  0.
         23    2    4    4    0    0 -0.36924805011E+03  0.12386868829E+03 -0.31696740474E+03  0.51097525094E+03  0.94550499542E+02 0.  0.
          2    1    3    3  502    0  0.16826570966E+02  0.42276531529E+01 -0.31496186877E+03  0.31543935284E+03  0.00000000000E+00 0. -1.
         -3    1    3    3    0  502 -0.84043586027E+02  0.76315806581E+02 -0.85802849234E+03  0.86550581763E+03  0.00000000000E+00 0.  1.
         11    1    5    5    0    0  0.14607593500E+03 -0.71648654110E+02 -0.26444106850E+03  0.31048476152E+03  0.00000000000E+00 0.  1.
        -11    1    5    5    0    0  0.29038913017E+03 -0.13276349391E+03 -0.30189121163E+03  0.43942040905E+03  0.00000000000E+00 0. -1.
          2    1    6    6  503    0 -0.95542027936E+02  0.46740962416E+02 -0.14081522831E+03  0.17647074883E+03  0.00000000000E+00 0. -1.
         -2    1    6    6    0  503 -0.27370602217E+03  0.77127725871E+02 -0.17615217643E+03  0.33450450211E+03  0.00000000000E+00 0.  1.
<mgrwt>
<rscale>  0 0.13168840E+04</rscale>
<asrwt>0</asrwt>
<pdfrwt beam="1">  1        2 0.29656582E-01 0.13168840E+04</pdfrwt>
<pdfrwt beam="2">  1       -1 0.34600888E+00 0.13168840E+04</pdfrwt>
<totfact> 0.33728672E+00</totfact>
</mgrwt>
</event>
<event>
12    6  0.1457317E-007  0.1312214E+04  0.7818608E-02  0.9019935E-01
         -1   -1    0    0    0  501 -0.00000000000E+00  0.00000000000E+00  0.16870254097E+04  0.16870254097E+04  0.00000000000E+00 0.  1.
          2   -1    0    0  501    0  0.00000000000E+00 -0.00000000000E+00 -0.25516894120E+03  0.25516894120E+03  0.00000000000E+00 0. -1.
         24    2    1    2    0    0 -0.11728697676E+03  0.28332451142E+03  0.54626117684E+03  0.63152436831E+03  0.79954616859E+02 0.  0.
        254    2    1    2    0    0  0.11728697676E+03 -0.28332451142E+03  0.88559529163E+03  0.13106699826E+04  0.91626839351E+03 0.  0.
         23    2    4    4    0    0  0.57141515328E+02  0.30896759865E+03  0.14903786256E+03  0.35940122290E+03  0.90723892999E+02 0.  0.
         23    2    4    4    0    0  0.60145461434E+02 -0.59229211006E+03  0.73655742906E+03  0.95126875966E+03  0.89263579448E+02 0.  0.
          4    1    3    3  502    0 -0.60366822094E+02  0.22605538373E+03  0.37198649133E+03  0.43945322783E+03  0.00000000000E+00 0. -1.
         -3    1    3    3    0  502 -0.56920154668E+02  0.57269127694E+02  0.17427468551E+03  0.19207114048E+03  0.00000000000E+00 0.  1.
         11    1    5    5    0    0  0.80243837838E+02  0.25212509280E+03  0.10914244437E+03  0.28621357252E+03  0.00000000000E+00 0. -1.
        -11    1    5    5    0    0 -0.23102322511E+02  0.56842505842E+02  0.39895418194E+02  0.73187650383E+02  0.00000000000E+00 0.  1.
          2    1    6    6  503    0  0.53630008552E+02 -0.56179394134E+03  0.72321365552E+03  0.91734759054E+03  0.00000000000E+00 0. -1.
         -2    1    6    6    0  503  0.65154528821E+01 -0.30498168722E+02  0.13343773544E+02  0.33921169114E+02  0.00000000000E+00 0.  1.
<mgrwt>
<rscale>  0 0.13122141E+04</rscale>
<asrwt>0</asrwt>
<pdfrwt beam="1">  1        2 0.39256761E-01 0.13122141E+04</pdfrwt>
<pdfrwt beam="2">  1       -1 0.25954236E+00 0.13122141E+04</pdfrwt>
<totfact> 0.89380963E+00</totfact>
</mgrwt>
</event>
<event>
12    6  0.1457317E-007  0.1245960E+04  0.7818608E-02  0.9073553E-01
         -1   -1    0    0    0  501 -0.00000000000E+00  0.00000000000E+00  0.93003173994E+02  0.93003173994E+02  0.00000000000E+00 0.  1.
          2   -1    0    0  501    0  0.00000000000E+00 -0.00000000000E+00 -0.41730180179E+04  0.41730180179E+04  0.00000000000E+00 0. -1.
         24    2    1    2    0    0  0.55205645342E+02 -0.69726555053E+02 -0.41749765580E+02  0.12691061304E+03  0.80335577544E+02 0.  0.
        254    2    1    2    0    0 -0.55205645342E+02  0.69726555053E+02 -0.40382650783E+04  0.41391105788E+04  0.90373784107E+03 0.  0.
         23    2    4    4    0    0 -0.43984584340E+03  0.12616066094E+03 -0.27801731751E+04  0.28190707999E+04  0.91741011785E+02 0.  0.
         23    2    4    4    0    0  0.38464019806E+03 -0.56434105882E+02 -0.12580919032E+04  0.13200397789E+04  0.92611503933E+02 0.  0.
          2    1    3    3  502    0  0.10274533672E+02 -0.40631955598E+02 -0.57463184424E+02  0.71123409803E+02  0.00000000000E+00 0. -1.
         -1    1    3    3    0  502  0.44931111670E+02 -0.29094599455E+02  0.15713418844E+02  0.55787203238E+02  0.00000000000E+00 0.  1.
         11    1    5    5    0    0 -0.39013077389E+03  0.81837707331E+02 -0.22976131199E+04  0.23319359939E+04  0.00000000000E+00 0. -1.
        -11    1    5    5    0    0 -0.49715069506E+02  0.44322953604E+02 -0.48256005516E+03  0.48713480597E+03  0.00000000000E+00 0.  1.
          1    1    6    6  503    0  0.29157781332E+03 -0.20275957381E+01 -0.93899902853E+03  0.98322983475E+03  0.00000000000E+00 0. -1.
         -1    1    6    6    0  503  0.93062384735E+02 -0.54406510144E+02 -0.31909287471E+03  0.33680994416E+03  0.00000000000E+00 0.  1.
<mgrwt>
<rscale>  0 0.12459597E+04</rscale>
<asrwt>0</asrwt>
<pdfrwt beam="1">  1        2 0.64200275E+00 0.12459597E+04</pdfrwt>
<pdfrwt beam="2">  1       -1 0.14308181E-01 0.12459597E+04</pdfrwt>
<totfact> 0.10189425E+01</totfact>
</mgrwt>
</event>
<event>
12    6  0.1457317E-007  0.1323501E+04  0.7818608E-02  0.9011134E-01
         -1   -1    0    0    0  501 -0.00000000000E+00  0.00000000000E+00  0.10017900427E+04  0.10017900427E+04  0.00000000000E+00 0.  1.
          2   -1    0    0  501    0  0.00000000000E+00 -0.00000000000E+00 -0.43713108968E+03  0.43713108968E+03  0.00000000000E+00 0. -1.
         24    2    1    2    0    0  0.22587462577E+02  0.23840171579E+02 -0.22649224288E+03  0.24308257041E+03  0.81925897647E+02 0.  0.
        254    2    1    2    0    0 -0.22587462577E+02 -0.23840171579E+02  0.79115119592E+03  0.11958385620E+04  0.89612002785E+03 0.  0.
         23    2    4    4    0    0 -0.80625499481E+01 -0.28758748055E+03 -0.54958691198E+02  0.30481778874E+03  0.84391130530E+02 0.  0.
         23    2    4    4    0    0 -0.14524912629E+02  0.26374730897E+03  0.84610988712E+03  0.89102077326E+03  0.90788001507E+02 0.  0.
          4    1    3    3  502    0 -0.86286533007E+00  0.39819812436E+02 -0.20109045098E+03  0.20499690601E+03  0.00000000000E+00 0. -1.
         -3    1    3    3    0  502  0.23450327907E+02 -0.15979640857E+02 -0.25401791900E+02  0.38085664398E+02  0.00000000000E+00 0.  1.
         11    1    5    5    0    0 -0.11226518465E+02 -0.64091023743E+02  0.21588704026E+02  0.68554840695E+02  0.00000000000E+00 0. -1.
        -11    1    5    5    0    0  0.31639685164E+01 -0.22349645681E+03 -0.76547395224E+02  0.23626294805E+03  0.00000000000E+00 0.  1.
          1    1    6    6  503    0 -0.26935713297E+02  0.16315384982E+03  0.38687440910E+03  0.42073331194E+03  0.00000000000E+00 0. -1.
         -1    1    6    6    0  503  0.12410800669E+02  0.10059345915E+03  0.45923547802E+03  0.47028746132E+03  0.00000000000E+00 0.  1.
<mgrwt>
<rscale>  0 0.13235008E+04</rscale>
<asrwt>0</asrwt>
<pdfrwt beam="1">  1        2 0.67250937E-01 0.13235008E+04</pdfrwt>
<pdfrwt beam="2">  1       -1 0.15412154E+00 0.13235008E+04</pdfrwt>
<totfact> 0.26089547E+01</totfact>
</mgrwt>
</event>
<event>
12    6  0.1457317E-007  0.1229473E+04  0.7818608E-02  0.9087443E-01
          2   -1    0    0  501    0  0.00000000000E+00  0.00000000000E+00  0.72779321721E+03  0.72779321721E+03  0.00000000000E+00 0. -1.
         -1   -1    0    0    0  501 -0.00000000000E+00 -0.00000000000E+00 -0.51924218758E+03  0.51924218758E+03  0.00000000000E+00 0.  1.
         24    2    1    2    0    0  0.31455848700E+02  0.79846347758E+02 -0.20785829872E+03  0.23808290742E+03  0.78188802195E+02 0.  0.
        254    2    1    2    0    0 -0.31455848700E+02 -0.79846347758E+02  0.41640932835E+03  0.10089524974E+04  0.91499918228E+03 0.  0.
         23    2    4    4    0    0  0.13983677318E+03  0.21249355130E+03 -0.17355003418E+03  0.32264371587E+03  0.96288735333E+02 0.  0.
         23    2    4    4    0    0 -0.17129262188E+03 -0.29233989905E+03  0.58995936253E+03  0.68630878151E+03  0.90354387042E+02 0.  0.
          4    1    3    3  502    0 -0.84713675389E+01  0.74309393847E+02 -0.11967067845E+03  0.14111952864E+03  0.00000000000E+00 0. -1.
         -3    1    3    3    0  502  0.39927216239E+02  0.55369539105E+01 -0.88187620271E+02  0.96963378780E+02  0.00000000000E+00 0.  1.
         11    1    5    5    0    0  0.10283148328E+03  0.13487161738E+03 -0.59344924824E+02  0.17968441009E+03  0.00000000000E+00 0. -1.
        -11    1    5    5    0    0  0.37005289892E+02  0.77621933920E+02 -0.11420510935E+03  0.14295930578E+03  0.00000000000E+00 0.  1.
          3    1    6    6  503    0 -0.15847147548E+03 -0.26928031183E+03  0.47637362004E+03  0.56969897380E+03  0.00000000000E+00 0. -1.
         -3    1    6    6    0  503 -0.12821146397E+02 -0.23059587224E+02  0.11358574249E+03  0.11660980771E+03  0.00000000000E+00 0.  1.
<mgrwt>
<rscale>  0 0.12294730E+04</rscale>
<asrwt>0</asrwt>
<pdfrwt beam="1">  1        2 0.11196819E+00 0.12294730E+04</pdfrwt>
<pdfrwt beam="2">  1       -1 0.79883413E-01 0.12294730E+04</pdfrwt>
<totfact> 0.68643932E+01</totfact>
</mgrwt>
</event>
<event>
12    6  0.1457317E-007  0.1804047E+04  0.7818608E-02  0.8704150E-01
          2   -1    0    0  501    0  0.00000000000E+00  0.00000000000E+00  0.25655499168E+04  0.25655499168E+04  0.00000000000E+00 0. -1.
         -1   -1    0    0    0  501 -0.00000000000E+00 -0.00000000000E+00 -0.31714309339E+03  0.31714309339E+03  0.00000000000E+00 0.  1.
         24    2    1    2    0    0 -0.63973067335E+03  0.22058837622E+03  0.90365797253E+03  0.11318779708E+04  0.81458230547E+02 0.  0.
        254    2    1    2    0    0  0.63973067335E+03 -0.22058837622E+03  0.13447488509E+04  0.17508150394E+04  0.89391792915E+03 0.  0.
         23    2    4    4    0    0  0.64045021537E+03  0.11992205503E+03  0.12042847701E+04  0.13719381493E+04  0.85759548946E+02 0.  0.
         23    2    4    4    0    0 -0.71954202190E+00 -0.34051043125E+03  0.14046408079E+03  0.37887689014E+03  0.88711151273E+02 0.  0.
          4    1    3    3  502    0 -0.21330594933E+02 -0.67518804539E+01  0.36503136512E+02  0.42814263337E+02  0.00000000000E+00 0. -1.
         -3    1    3    3    0  502 -0.61840007842E+03  0.22734025667E+03  0.86715483602E+03  0.10890637075E+04  0.00000000000E+00 0.  1.
         11    1    5    5    0    0  0.38015338564E+02  0.27036219987E+02  0.10668273755E+03  0.11643594655E+03  0.00000000000E+00 0. -1.
        -11    1    5    5    0    0  0.60243487681E+03  0.92885835040E+02  0.10976020326E+04  0.12555022027E+04  0.00000000000E+00 0.  1.
          2    1    6    6  503    0 -0.13297784612E+02 -0.19118665692E+02  0.31724775086E+02  0.39354997239E+02  0.00000000000E+00 0. -1.
         -2    1    6    6    0  503  0.12578242590E+02 -0.32139176555E+03  0.10873930570E+03  0.33952189290E+03  0.00000000000E+00 0.  1.
<mgrwt>
<rscale>  0 0.18040470E+04</rscale>
<asrwt>0</asrwt>
<pdfrwt beam="1">  1        2 0.39469997E+00 0.18040470E+04</pdfrwt>
<pdfrwt beam="2">  1       -1 0.48791247E-01 0.18040470E+04</pdfrwt>
<totfact> 0.14426522E+01</totfact>
</mgrwt>
</event>
<event>
12    6  0.1457317E-007  0.1617895E+04  0.7818608E-02  0.8809629E-01
          2   -1    0    0  501    0  0.00000000000E+00  0.00000000000E+00  0.17358616569E+04  0.17358616569E+04  0.00000000000E+00 0. -1.
         -1   -1    0    0    0  501 -0.00000000000E+00 -0.00000000000E+00 -0.37698634290E+03  0.37698634290E+03  0.00000000000E+00 0.  1.
         24    2    1    2    0    0  0.56329748324E+02  0.24647963336E+03 -0.17752680112E+03  0.31909945474E+03  0.79896474847E+02 0.  0.
        254    2    1    2    0    0 -0.56329748324E+02 -0.24647963336E+03  0.15364021152E+04  0.17937485451E+04  0.89054878213E+03 0.  0.
         23    2    4    4    0    0  0.39073633692E+03 -0.27785442163E-01  0.78613883930E+03  0.88241912203E+03  0.89299196610E+02 0.  0.
         23    2    4    4    0    0 -0.44706608525E+03 -0.24645184791E+03  0.75026327587E+03  0.91132942307E+03  0.83783866655E+02 0.  0.
          2    1    3    3  502    0  0.69543269835E+01  0.86046048232E+01 -0.36606544700E+02  0.38241874991E+02  0.00000000000E+00 0. -1.
         -1    1    3    3    0  502  0.49375421341E+02  0.23787502853E+03 -0.14092025642E+03  0.28085757975E+03  0.00000000000E+00 0.  1.
         11    1    5    5    0    0  0.39038454728E+03 -0.85592189941E+01  0.75331322094E+03  0.84850112776E+03  0.00000000000E+00 0.  1.
        -11    1    5    5    0    0  0.35178964720E+00  0.85314335520E+01  0.32825618363E+02  0.33917994270E+02  0.00000000000E+00 0. -1.
          3    1    6    6  503    0 -0.57909178801E+02 -0.25958568903E+02  0.51765650094E+02  0.81896293070E+02  0.00000000000E+00 0. -1.
         -3    1    6    6    0  503 -0.38915690645E+03 -0.22049327901E+03  0.69849762578E+03  0.82943313000E+03  0.00000000000E+00 0.  1.
<mgrwt>
<rscale>  0 0.16178951E+04</rscale>
<asrwt>0</asrwt>
<pdfrwt beam="1">  1        2 0.26705563E+00 0.16178951E+04</pdfrwt>
<pdfrwt beam="2">  1       -1 0.57997900E-01 0.16178951E+04</pdfrwt>
<totfact> 0.30773424E+01</totfact>
</mgrwt>
</event>
<event>
12    6  0.1457317E-007  0.2237179E+04  0.7818608E-02  0.8503111E-01
         -1   -1    0    0    0  501 -0.00000000000E+00  0.00000000000E+00  0.50459191682E+03  0.50459191682E+03  0.00000000000E+00 0.  1.
          2   -1    0    0  501    0  0.00000000000E+00 -0.00000000000E+00 -0.24797114773E+04  0.24797114773E+04  0.00000000000E+00 0. -1.
         24    2    1    2    0    0 -0.78089685862E+03 -0.41599749533E+03 -0.41023466361E+03  0.97827294453E+03  0.76626724123E+02 0.  0.
        254    2    1    2    0    0  0.78089685862E+03  0.41599749533E+03 -0.15648848969E+04  0.20060304496E+04  0.89019076850E+03 0.  0.
         23    2    4    4    0    0  0.44099214392E+03  0.25765757876E+03 -0.15325845518E+04  0.16182305957E+04  0.94833293259E+02 0.  0.
         23    2    4    4    0    0  0.33990471469E+03  0.15833991656E+03 -0.32300345089E+02  0.38779985392E+03  0.93480854491E+02 0.  0.
          4    1    3    3  502    0 -0.18436898183E+03 -0.13288177821E+03 -0.90355964480E+02  0.24456837236E+03  0.00000000000E+00 0. -1.
         -3    1    3    3    0  502 -0.59652787679E+03 -0.28311571712E+03 -0.31987869913E+03  0.73370457217E+03  0.00000000000E+00 0.  1.
         11    1    5    5    0    0  0.14571852624E+03  0.13467950026E+03 -0.53432852337E+03  0.56998195372E+03  0.00000000000E+00 0.  1.
        -11    1    5    5    0    0  0.29527361768E+03  0.12297807851E+03 -0.99825602845E+03  0.10482486420E+04  0.00000000000E+00 0. -1.
          3    1    6    6  503    0  0.32229672225E+03  0.16325780089E+03 -0.47013160884E+02  0.36433298508E+03  0.00000000000E+00 0. -1.
         -3    1    6    6    0  503  0.17607992447E+02 -0.49178843267E+01  0.14712815795E+02  0.23466868835E+02  0.00000000000E+00 0.  1.
<mgrwt>
<rscale>  0 0.22371789E+04</rscale>
<asrwt>0</asrwt>
<pdfrwt beam="1">  1        2 0.38149407E+00 0.22371789E+04</pdfrwt>
<pdfrwt beam="2">  1       -1 0.77629526E-01 0.22371789E+04</pdfrwt>
<totfact> 0.61670125E+00</totfact>
</mgrwt>
</event>
<event>
12    6  0.1457317E-007  0.1389259E+04  0.7818608E-02  0.8961630E-01
         -1   -1    0    0    0  501 -0.00000000000E+00  0.00000000000E+00  0.26651024749E+03  0.26651024749E+03  0.00000000000E+00 0.  1.
          2   -1    0    0  501    0  0.00000000000E+00 -0.00000000000E+00 -0.18104745010E+04  0.18104745010E+04  0.00000000000E+00 0. -1.
         24    2    1    2    0    0 -0.14609313498E+03 -0.12825089440E+03 -0.95547583588E+03  0.97825774289E+03  0.79136859664E+02 0.  0.
        254    2    1    2    0    0  0.14609313498E+03  0.12825089440E+03 -0.58848841764E+03  0.10987270056E+04  0.90724358316E+03 0.  0.
         23    2    4    4    0    0 -0.13795528000E+03 -0.87812863175E+02  0.17150067131E+03  0.25325175491E+03  0.89337634207E+02 0.  0.
         23    2    4    4    0    0  0.28404841498E+03  0.21606375758E+03 -0.75998908894E+03  0.84547525071E+03  0.99387800337E+02 0.  0.
          4    1    3    3  502    0 -0.13004733061E+03 -0.10490114235E+03 -0.90570941203E+03  0.92099190925E+03  0.00000000000E+00 0. -1.
         -3    1    3    3    0  502 -0.16045804372E+02 -0.23349752054E+02 -0.49766423851E+02  0.57265833634E+02  0.00000000000E+00 0.  1.
         11    1    5    5    0    0 -0.97575489622E+01  0.13886294729E+02  0.11075221669E+01  0.17007808454E+02  0.00000000000E+00 0. -1.
        -11    1    5    5    0    0 -0.12819773104E+03 -0.10169915790E+03  0.17039314914E+03  0.23624394645E+03  0.00000000000E+00 0.  1.
          2    1    6    6  503    0  0.14060671296E+02  0.43273984583E+01 -0.39665381080E+01  0.15236872359E+02  0.00000000000E+00 0. -1.
         -2    1    6    6    0  503  0.26998774369E+03  0.21173635912E+03 -0.75602255084E+03  0.83023837835E+03  0.00000000000E+00 0.  1.
<mgrwt>
<rscale>  0 0.13892588E+04</rscale>
<asrwt>0</asrwt>
<pdfrwt beam="1">  1        2 0.27853454E+00 0.13892588E+04</pdfrwt>
<pdfrwt beam="2">  1       -1 0.41001576E-01 0.13892588E+04</pdfrwt>
<totfact> 0.54994463E+01</totfact>
</mgrwt>
</event>
<event>
12    6  0.1457317E-007  0.1762362E+04  0.7818608E-02  0.8726575E-01
         -1   -1    0    0    0  501 -0.00000000000E+00  0.00000000000E+00  0.38894591853E+03  0.38894591853E+03  0.00000000000E+00 0.  1.
          2   -1    0    0  501    0  0.00000000000E+00 -0.00000000000E+00 -0.19963695332E+04  0.19963695332E+04  0.00000000000E+00 0. -1.
         24    2    1    2    0    0  0.19411413602E+03  0.48290620021E+03 -0.11123388012E+04  0.12307230183E+04  0.80640208439E+02 0.  0.
        254    2    1    2    0    0 -0.19411413602E+03 -0.48290620021E+03 -0.49508481353E+03  0.11545924334E+04  0.90393363625E+03 0.  0.
         23    2    4    4    0    0  0.94259206221E+02  0.19647848894E+03 -0.30730234427E+03  0.38724711660E+03  0.89649338831E+02 0.  0.
         23    2    4    4    0    0 -0.28837334224E+03 -0.67938468915E+03 -0.18778246927E+03  0.76734531683E+03  0.93988505301E+02 0.  0.
          4    1    3    3  502    0  0.15900445608E+03  0.31465115256E+03 -0.69281089519E+03  0.77735107986E+03  0.00000000000E+00 0. -1.
         -3    1    3    3    0  502  0.35109679940E+02  0.16825504766E+03 -0.41952790597E+03  0.45337193845E+03  0.00000000000E+00 0.  1.
         11    1    5    5    0    0  0.32419995763E+01  0.17795840448E+01 -0.57890469629E+02  0.58008481746E+02  0.00000000000E+00 0.  1.
        -11    1    5    5    0    0  0.91017206645E+02  0.19469890490E+03 -0.24941187464E+03  0.32923863486E+03  0.00000000000E+00 0. -1.
          2    1    6    6  503    0 -0.24128186554E+03 -0.57864537594E+03 -0.19314792139E+03  0.65601336059E+03  0.00000000000E+00 0. -1.
         -2    1    6    6    0  503 -0.47091476700E+02 -0.10073931321E+03  0.53654521185E+01  0.11133195624E+03  0.00000000000E+00 0.  1.
<mgrwt>
<rscale>  0 0.17623618E+04</rscale>
<asrwt>0</asrwt>
<pdfrwt beam="1">  1        2 0.30713377E+00 0.17623618E+04</pdfrwt>
<pdfrwt beam="2">  1       -1 0.59837834E-01 0.17623618E+04</pdfrwt>
<totfact> 0.20498463E+01</totfact>
</mgrwt>
</event>
<event>
12    6  0.1457317E-007  0.1363751E+04  0.7818608E-02  0.8980484E-01
          2   -1    0    0  501    0  0.00000000000E+00  0.00000000000E+00  0.24583427171E+04  0.24583427171E+04  0.00000000000E+00 0. -1.
         -1   -1    0    0    0  501 -0.00000000000E+00 -0.00000000000E+00 -0.18913316237E+03  0.18913316237E+03  0.00000000000E+00 0.  1.
         24    2    1    2    0    0  0.85626849460E+01  0.34901244790E+03  0.67429730641E+03  0.76365084127E+03  0.81257255505E+02 0.  0.
        254    2    1    2    0    0 -0.85626849460E+01 -0.34901244790E+03  0.15949122483E+04  0.18838250382E+04  0.93977054983E+03 0.  0.
         23    2    4    4    0    0  0.20391624015E+00 -0.59372779764E+03  0.58249742165E+03  0.83811455404E+03  0.10305348221E+03 0.  0.
         23    2    4    4    0    0 -0.87666011862E+01  0.24471534973E+03  0.10124148267E+04  0.10457104841E+04  0.92542853506E+02 0.  0.
          2    1    3    3  502    0 -0.71162592518E+01  0.10111965435E+02  0.65939849983E+02  0.67089170561E+02  0.00000000000E+00 0. -1.
         -1    1    3    3    0  502  0.15678944198E+02  0.33890048247E+03  0.60835745643E+03  0.69656167071E+03  0.00000000000E+00 0.  1.
         11    1    5    5    0    0  0.22347884156E+02 -0.55803441174E+03  0.55808147380E+03  0.78952945734E+03  0.00000000000E+00 0. -1.
        -11    1    5    5    0    0 -0.22143967916E+02 -0.35693385899E+02  0.24415947857E+02  0.48585096705E+02  0.00000000000E+00 0.  1.
          3    1    6    6  503    0 -0.20875099496E+00  0.23087389333E+03  0.99669176404E+03  0.10230822404E+04  0.00000000000E+00 0. -1.
         -3    1    6    6    0  503 -0.85578501912E+01  0.13841456405E+02  0.15723062612E+02  0.22628243705E+02  0.00000000000E+00 0.  1.
<mgrwt>
<rscale>  0 0.13637509E+04</rscale>
<asrwt>0</asrwt>
<pdfrwt beam="1">  1        2 0.37820655E+00 0.13637509E+04</pdfrwt>
<pdfrwt beam="2">  1       -1 0.29097411E-01 0.13637509E+04</pdfrwt>
<totfact> 0.44191024E+01</totfact>
</mgrwt>
</event>
<event>
12    6  0.1457317E-007  0.2337176E+04  0.7818608E-02  0.8463406E-01
         -1   -1    0    0    0  501 -0.00000000000E+00  0.00000000000E+00  0.89719906824E+03  0.89719906824E+03  0.00000000000E+00 0.  1.
          2   -1    0    0  501    0  0.00000000000E+00 -0.00000000000E+00 -0.15220680758E+04  0.15220680758E+04  0.00000000000E+00 0. -1.
         24    2    1    2    0    0  0.80747841317E+03  0.57243140983E+03 -0.28772891893E+03  0.10338462603E+04  0.79693490686E+02 0.  0.
        254    2    1    2    0    0 -0.80747841317E+03 -0.57243140983E+03 -0.33714008865E+03  0.13854208838E+04  0.90886108899E+03 0.  0.
         23    2    4    4    0    0 -0.48643419563E+03 -0.74352799047E+03 -0.44127447690E+03  0.99620004110E+03  0.90770362076E+02 0.  0.
         23    2    4    4    0    0 -0.32104421754E+03  0.17109658064E+03  0.10413438825E+03  0.38922084266E+03  0.91134318556E+02 0.  0.
          2    1    3    3  502    0  0.63568818251E+02  0.62037470115E+02 -0.45130668656E+02  0.99631418766E+02  0.00000000000E+00 0. -1.
         -3    1    3    3    0  502  0.74390959492E+03  0.51039393972E+03 -0.24259825027E+03  0.93421484154E+03  0.00000000000E+00 0.  1.
         11    1    5    5    0    0 -0.21171697548E+02 -0.63388081603E+02 -0.15291840524E+02  0.68557494506E+02  0.00000000000E+00 0. -1.
        -11    1    5    5    0    0 -0.46526249808E+03 -0.68013990887E+03 -0.42598263638E+03  0.92764254660E+03  0.00000000000E+00 0.  1.
          3    1    6    6  503    0 -0.21131877140E+03  0.63228043576E+02  0.50586010199E+02  0.22630146501E+03  0.00000000000E+00 0. -1.
         -3    1    6    6    0  503 -0.10972544614E+03  0.10786853706E+03  0.53548378053E+02  0.16291937764E+03  0.00000000000E+00 0.  1.
<mgrwt>
<rscale>  0 0.23371761E+04</rscale>
<asrwt>0</asrwt>
<pdfrwt beam="1">  1        2 0.23416432E+00 0.23371761E+04</pdfrwt>
<pdfrwt beam="2">  1       -1 0.13803063E+00 0.23371761E+04</pdfrwt>
<totfact> 0.55239377E+00</totfact>
</mgrwt>
</event>
<event>
12    6  0.1457317E-007  0.2468236E+04  0.7818608E-02  0.8414390E-01
         -1   -1    0    0    0  501 -0.00000000000E+00  0.00000000000E+00  0.10223587133E+04  0.10223587133E+04  0.00000000000E+00 0.  1.
          2   -1    0    0  501    0  0.00000000000E+00 -0.00000000000E+00 -0.14897387665E+04  0.14897387665E+04  0.00000000000E+00 0. -1.
         24    2    1    2    0    0  0.74624446886E+03 -0.61789198810E+03 -0.66005329380E+03  0.11749799109E+04  0.78969133693E+02 0.  0.
        254    2    1    2    0    0 -0.74624446886E+03  0.61789198810E+03  0.19267324055E+03  0.13371175689E+04  0.90115986325E+03 0.  0.
         23    2    4    4    0    0 -0.88280730701E+03  0.25969881068E+03  0.18623245058E+03  0.94323022172E+03  0.90600838536E+02 0.  0.
         23    2    4    4    0    0  0.13656283815E+03  0.35819317742E+03  0.64407899783E+01  0.39388734716E+03  0.90299487062E+02 0.  0.
          2    1    3    3  502    0  0.43802758488E+02 -0.25462597935E+02 -0.54886496912E+02  0.74696406125E+02  0.00000000000E+00 0. -1.
         -1    1    3    3    0  502  0.70244171038E+03 -0.59242939016E+03 -0.60516679688E+03  0.11002835048E+04  0.00000000000E+00 0.  1.
         11    1    5    5    0    0 -0.11292835749E+03  0.41137628272E+02  0.55257746867E+02  0.13228203572E+03  0.00000000000E+00 0.  1.
        -11    1    5    5    0    0 -0.76987894952E+03  0.21856118240E+03  0.13097470371E+03  0.81094818600E+03  0.00000000000E+00 0. -1.
          2    1    6    6  503    0  0.13949774386E+03  0.28350507880E+03  0.24742344278E+02  0.31693364265E+03  0.00000000000E+00 0. -1.
         -2    1    6    6    0  503 -0.29349057097E+01  0.74688098626E+02 -0.18301554300E+02  0.76953704509E+02  0.00000000000E+00 0.  1.
<mgrwt>
<rscale>  0 0.24682361E+04</rscale>
<asrwt>0</asrwt>
<pdfrwt beam="1">  1        2 0.22919058E+00 0.24682361E+04</pdfrwt>
<pdfrwt beam="2">  1       -1 0.15728596E+00 0.24682361E+04</pdfrwt>
<totfact> 0.40161385E+00</totfact>
</mgrwt>
</event>
<event>
12    6  0.1457317E-007  0.3615622E+04  0.7818608E-02  0.8086923E-01
         -1   -1    0    0    0  501 -0.00000000000E+00  0.00000000000E+00  0.99341536741E+03  0.99341536741E+03  0.00000000000E+00 0.  1.
          2   -1    0    0  501    0  0.00000000000E+00 -0.00000000000E+00 -0.32898430043E+04  0.32898430043E+04  0.00000000000E+00 0. -1.
         24    2    1    2    0    0 -0.10434268002E+04 -0.12307057986E+04 -0.46793765212E+03  0.16821634669E+04  0.85627291554E+02 0.  0.
        254    2    1    2    0    0  0.10434268002E+04  0.12307057986E+04 -0.18284899848E+04  0.26010949048E+04  0.90495460051E+03 0.  0.
         23    2    4    4    0    0  0.59574716305E+03  0.10926463707E+04 -0.84197594963E+03  0.15052643793E+04  0.90036537502E+02 0.  0.
         23    2    4    4    0    0  0.44767963718E+03  0.13805942796E+03 -0.98651403514E+03  0.10958305255E+04  0.90316863952E+02 0.  0.
          4    1    3    3  502    0 -0.67469707065E+02 -0.11248379915E+03 -0.48063792935E+02  0.13969572160E+03  0.00000000000E+00 0. -1.
         -3    1    3    3    0  502 -0.97595709316E+03 -0.11182219995E+04 -0.41987385919E+03  0.15424677453E+04  0.00000000000E+00 0.  1.
         11    1    5    5    0    0  0.63370987448E+02  0.79519895200E+02 -0.48753817785E+02  0.11276626504E+03  0.00000000000E+00 0. -1.
        -11    1    5    5    0    0  0.53237617561E+03  0.10131264755E+04 -0.79322213185E+03  0.13924981142E+04  0.00000000000E+00 0.  1.
          4    1    6    6  503    0  0.33332978506E+03  0.13821063045E+03 -0.70510452789E+03  0.79207532421E+03  0.00000000000E+00 0. -1.
         -4    1    6    6    0  503  0.11434985211E+03 -0.15120249803E+00 -0.28140950725E+03  0.30375520130E+03  0.00000000000E+00 0.  1.
<mgrwt>
<rscale>  0 0.36156220E+04</rscale>
<asrwt>0</asrwt>
<pdfrwt beam="1">  1        2 0.50612970E+00 0.36156220E+04</pdfrwt>
<pdfrwt beam="2">  1       -1 0.15283313E+00 0.36156220E+04</pdfrwt>
<totfact> 0.34629469E-01</totfact>
</mgrwt>
</event>
<event>
12    6  0.1457317E-007  0.1319773E+04  0.7818608E-02  0.9014030E-01
         -1   -1    0    0    0  501 -0.00000000000E+00  0.00000000000E+00  0.14112640933E+03  0.14112640933E+03  0.00000000000E+00 0.  1.
          2   -1    0    0  501    0  0.00000000000E+00 -0.00000000000E+00 -0.30855344406E+04  0.30855344406E+04  0.00000000000E+00 0. -1.
         24    2    1    2    0    0 -0.15576406198E+03  0.11105893291E+03 -0.97066429308E+02  0.22882803774E+03  0.79648286693E+02 0.  0.
        254    2    1    2    0    0  0.15576406198E+03 -0.11105893291E+03 -0.28473416019E+04  0.29978328122E+04  0.91817800127E+03 0.  0.
         23    2    4    4    0    0 -0.44758416445E+02  0.36691703742E+03 -0.82989718284E+03  0.91288758749E+03  0.89459404855E+02 0.  0.
         23    2    4    4    0    0  0.20052247842E+03 -0.47797597033E+03 -0.20174444191E+04  0.20849452247E+04  0.90798200444E+02 0.  0.
          4    1    3    3  502    0 -0.13066069230E+03  0.54515591735E+02 -0.86936252009E+02  0.16613873169E+03  0.00000000000E+00 0. -1.
         -3    1    3    3    0  502 -0.25103369680E+02  0.56543341178E+02 -0.10130177298E+02  0.62689306050E+02  0.00000000000E+00 0.  1.
         11    1    5    5    0    0  0.24287589907E+02  0.16459627273E+03 -0.35046000159E+03  0.38794849237E+03  0.00000000000E+00 0.  1.
        -11    1    5    5    0    0 -0.69046006352E+02  0.20232076469E+03 -0.47943718125E+03  0.52493909512E+03  0.00000000000E+00 0. -1.
          4    1    6    6  503    0  0.18172570236E+03 -0.32768583685E+03 -0.14511943435E+04  0.14987885979E+04  0.00000000000E+00 0. -1.
         -4    1    6    6    0  503  0.18796776065E+02 -0.15029013348E+03 -0.56625007557E+03  0.58615662676E+03  0.00000000000E+00 0.  1.
<mgrwt>
<rscale>  0 0.13197733E+04</rscale>
<asrwt>0</asrwt>
<pdfrwt beam="1">  1        2 0.47469763E+00 0.13197733E+04</pdfrwt>
<pdfrwt beam="2">  1       -1 0.21711754E-01 0.13197733E+04</pdfrwt>
<totfact> 0.30903382E+01</totfact>
</mgrwt>
</event>
<event>
12    6  0.1457317E-007  0.1969708E+04  0.7818608E-02  0.8620915E-01
         -1   -1    0    0    0  501 -0.00000000000E+00  0.00000000000E+00  0.41818851348E+03  0.41818851348E+03  0.00000000000E+00 0.  1.
          2   -1    0    0  501    0  0.00000000000E+00 -0.00000000000E+00 -0.23193792888E+04  0.23193792888E+04  0.00000000000E+00 0. -1.
         24    2    1    2    0    0 -0.47686816894E+03  0.52494549433E+03 -0.32364041832E+03  0.78369301592E+03  0.80377859289E+02 0.  0.
        254    2    1    2    0    0  0.47686816894E+03 -0.52494549433E+03 -0.15775503570E+04  0.19538747863E+04  0.90884021108E+03 0.  0.
         23    2    4    4    0    0 -0.89914835340E+02 -0.74581935615E+02 -0.10337797642E+04  0.10440814551E+04  0.88081447248E+02 0.  0.
         23    2    4    4    0    0  0.56678300428E+03 -0.45036355872E+03 -0.54377059281E+03  0.90979333123E+03  0.89258831412E+02 0.  0.
          2    1    3    3  502    0 -0.15476162430E+03  0.14629585461E+03 -0.13408711517E+03  0.25166046946E+03  0.00000000000E+00 0. -1.
         -1    1    3    3    0  502 -0.32210654464E+03  0.37864963972E+03 -0.18955330314E+03  0.53203254646E+03  0.00000000000E+00 0.  1.
         11    1    5    5    0    0 -0.40263337977E+02  0.12297287364E+02 -0.43111505398E+03  0.43316572975E+03  0.00000000000E+00 0.  1.
        -11    1    5    5    0    0 -0.49651497363E+02 -0.86879222979E+02 -0.60266471018E+03  0.61091572534E+03  0.00000000000E+00 0. -1.
          3    1    6    6  503    0  0.52653719050E+03 -0.38389407100E+03 -0.48992736614E+03  0.81525756349E+03  0.00000000000E+00 0. -1.
         -3    1    6    6    0  503  0.40245813772E+02 -0.66469487722E+02 -0.53843226672E+02  0.94535767743E+02  0.00000000000E+00 0.  1.
<mgrwt>
<rscale>  0 0.19697084E+04</rscale>
<asrwt>0</asrwt>
<pdfrwt beam="1">  1        2 0.35682757E+00 0.19697084E+04</pdfrwt>
<pdfrwt beam="2">  1       -1 0.64336696E-01 0.19697084E+04</pdfrwt>
<totfact> 0.11483952E+01</totfact>
</mgrwt>
</event>
<event>
12    6  0.1457317E-007  0.1479257E+04  0.7818608E-02  0.8898365E-01
         -1   -1    0    0    0  501 -0.00000000000E+00  0.00000000000E+00  0.93501242886E+03  0.93501242886E+03  0.00000000000E+00 0.  1.
          2   -1    0    0  501    0  0.00000000000E+00 -0.00000000000E+00 -0.58507311822E+03  0.58507311822E+03  0.00000000000E+00 0. -1.
         24    2    1    2    0    0  0.86413598671E+02 -0.10678503056E+03 -0.34303979332E+03  0.37813294065E+03  0.80236327296E+02 0.  0.
        254    2    1    2    0    0 -0.86413598671E+02  0.10678503056E+03  0.69297910396E+03  0.11419526064E+04  0.89719862017E+03 0.  0.
         23    2    4    4    0    0  0.32368472892E+03  0.29455482602E+03  0.33817889288E+03  0.56087939828E+03  0.93200786184E+02 0.  0.
         23    2    4    4    0    0 -0.41009832759E+03 -0.18776979546E+03  0.35480021107E+03  0.58107320816E+03  0.91240062891E+02 0.  0.
          4    1    3    3  502    0  0.96899680600E+02 -0.97249137694E+02 -0.26125421552E+03  0.29512829077E+03  0.00000000000E+00 0. -1.
         -3    1    3    3    0  502 -0.10486081929E+02 -0.95358928675E+01 -0.81785577794E+02  0.83004649882E+02  0.00000000000E+00 0.  1.
         11    1    5    5    0    0  0.24459712180E+03  0.17635653135E+03  0.19517661217E+03  0.35919811814E+03  0.00000000000E+00 0. -1.
        -11    1    5    5    0    0  0.79087607125E+02  0.11819829468E+03  0.14300228072E+03  0.20168128013E+03  0.00000000000E+00 0.  1.
          4    1    6    6  503    0 -0.44517410144E+02  0.83681113232E+01  0.33968925321E+02  0.56619016068E+02  0.00000000000E+00 0. -1.
         -4    1    6    6    0  503 -0.36558091745E+03 -0.19613790679E+03  0.32083128575E+03  0.52445419209E+03  0.00000000000E+00 0.  1.
<mgrwt>
<rscale>  0 0.14792574E+04</rscale>
<asrwt>0</asrwt>
<pdfrwt beam="1">  1        2 0.90011249E-01 0.14792574E+04</pdfrwt>
<pdfrwt beam="2">  1       -1 0.14384807E+00 0.14792574E+04</pdfrwt>
<totfact> 0.22068652E+01</totfact>
</mgrwt>
</event>
<event>
12    6  0.1457317E-007  0.1691185E+04  0.7818608E-02  0.8766408E-01
         -1   -1    0    0    0  501 -0.00000000000E+00  0.00000000000E+00  0.50601137472E+03  0.50601137472E+03  0.00000000000E+00 0.  1.
          2   -1    0    0  501    0  0.00000000000E+00 -0.00000000000E+00 -0.14130643846E+04  0.14130643846E+04  0.00000000000E+00 0. -1.
         24    2    1    2    0    0  0.47869294898E+03 -0.22596587841E+03 -0.65992689704E+03  0.84864747587E+03  0.67018738135E+02 0.  0.
        254    2    1    2    0    0 -0.47869294898E+03  0.22596587841E+03 -0.24712611280E+03  0.10704282834E+04  0.89696035401E+03 0.  0.
         23    2    4    4    0    0 -0.60508984181E+03  0.45465905703E+03 -0.15652170035E+03  0.77829640135E+03  0.91638806515E+02 0.  0.
         23    2    4    4    0    0  0.12639689283E+03 -0.22869317862E+03 -0.90604412455E+02  0.29213188205E+03  0.94101713521E+02 0.  0.
          4    1    3    3  502    0  0.45361220108E+03 -0.22806073222E+03 -0.61879846061E+03  0.80042942312E+03  0.00000000000E+00 0. -1.
         -3    1    3    3    0  502  0.25080747899E+02  0.20948538131E+01 -0.41128436428E+02  0.48218052746E+02  0.00000000000E+00 0.  1.
         11    1    5    5    0    0 -0.47509899066E+03  0.31368064095E+03 -0.13685624456E+03  0.58552901475E+03  0.00000000000E+00 0. -1.
        -11    1    5    5    0    0 -0.12999085115E+03  0.14097841609E+03 -0.19665455782E+02  0.19276738660E+03  0.00000000000E+00 0.  1.
          2    1    6    6  503    0  0.97131474705E+02 -0.21733646987E+03 -0.10165745079E+03  0.25885111901E+03  0.00000000000E+00 0. -1.
         -2    1    6    6    0  503  0.29265418130E+02 -0.11356708753E+02  0.11053038332E+02  0.33280763038E+02  0.00000000000E+00 0.  1.
<mgrwt>
<rscale>  0 0.16911850E+04</rscale>
<asrwt>0</asrwt>
<pdfrwt beam="1">  1        2 0.21739452E+00 0.16911850E+04</pdfrwt>
<pdfrwt beam="2">  1       -1 0.77847904E-01 0.16911850E+04</pdfrwt>
<totfact> 0.25515172E+01</totfact>
</mgrwt>
</event>
<event>
12    6  0.1457317E-007  0.1386452E+04  0.7818608E-02  0.8963684E-01
          2   -1    0    0  501    0  0.00000000000E+00  0.00000000000E+00  0.21705755933E+04  0.21705755933E+04  0.00000000000E+00 0. -1.
         -1   -1    0    0    0  501 -0.00000000000E+00 -0.00000000000E+00 -0.22139855672E+03  0.22139855672E+03  0.00000000000E+00 0.  1.
         24    2    1    2    0    0 -0.33980063318E+03 -0.11265878916E+03  0.82636468634E+03  0.90411978706E+03  0.79984507528E+02 0.  0.
        254    2    1    2    0    0  0.33980063318E+03  0.11265878916E+03  0.11228123503E+04  0.14878543630E+04  0.90821063551E+03 0.  0.
         23    2    4    4    0    0 -0.22055625696E+03  0.29084560927E+03  0.37257776773E+03  0.53013564549E+03  0.94833426068E+02 0.  0.
         23    2    4    4    0    0  0.56035689014E+03 -0.17818682010E+03  0.75023458256E+03  0.95771871751E+03  0.92859171910E+02 0.  0.
          4    1    3    3  502    0 -0.62403977117E+01 -0.19029423504E+02  0.36988496006E+02  0.42061982351E+02  0.00000000000E+00 0. -1.
         -3    1    3    3    0  502 -0.33356023547E+03 -0.93629365658E+02  0.78937619033E+03  0.86205780471E+03  0.00000000000E+00 0.  1.
         11    1    5    5    0    0 -0.22861814921E+03  0.27568034944E+03  0.34279950914E+03  0.49575943428E+03  0.00000000000E+00 0. -1.
        -11    1    5    5    0    0  0.80618922498E+01  0.15165259830E+02  0.29778258595E+02  0.34376211212E+02  0.00000000000E+00 0.  1.
          4    1    6    6  503    0  0.23339800867E+02  0.11066321961E+02  0.29585775505E+02  0.39275028943E+02  0.00000000000E+00 0.  1.
         -4    1    6    6    0  503  0.53701708927E+03 -0.18925314207E+03  0.72064880705E+03  0.91844368856E+03  0.00000000000E+00 0. -1.
<mgrwt>
<rscale>  0 0.13864520E+04</rscale>
<asrwt>0</asrwt>
<pdfrwt beam="1">  1        2 0.33393469E+00 0.13864520E+04</pdfrwt>
<pdfrwt beam="2">  1       -1 0.34061318E-01 0.13864520E+04</pdfrwt>
<totfact> 0.48569101E+01</totfact>
</mgrwt>
</event>
<event>
12    6  0.1457317E-007  0.1756193E+04  0.7818608E-02  0.8729949E-01
          2   -1    0    0  501    0  0.00000000000E+00  0.00000000000E+00  0.28027908277E+04  0.28027908277E+04  0.00000000000E+00 0. -1.
         -1   -1    0    0    0  501 -0.00000000000E+00 -0.00000000000E+00 -0.27510190531E+03  0.27510190531E+03  0.00000000000E+00 0.  1.
         24    2    1    2    0    0 -0.33139919123E+02 -0.36555896529E+03  0.18485399148E+04  0.18863848896E+04  0.81342016826E+02 0.  0.
        254    2    1    2    0    0  0.33139919123E+02  0.36555896529E+03  0.67914900760E+03  0.11915078434E+04  0.90758798752E+03 0.  0.
         23    2    4    4    0    0 -0.30204228445E+03  0.35857970790E+03  0.61190083996E+02  0.48250152051E+03  0.96200532220E+02 0.  0.
         23    2    4    4    0    0  0.33518220358E+03  0.69792573900E+01  0.61795892360E+03  0.70900632292E+03  0.91765543908E+02 0.  0.
          4    1    3    3  502    0 -0.22984663702E+02 -0.35768821850E+03  0.18217282950E+04  0.18566537473E+04  0.00000000000E+00 0. -1.
         -3    1    3    3    0  502 -0.10155255422E+02 -0.78707467960E+01  0.26811619850E+02  0.29731142373E+02  0.00000000000E+00 0.  1.
         11    1    5    5    0    0 -0.30777157438E+03  0.34332425027E+03  0.65336863189E+02  0.46568636281E+03  0.00000000000E+00 0. -1.
        -11    1    5    5    0    0  0.57292899289E+01  0.15255457634E+02 -0.41467791926E+01  0.16815157697E+02  0.00000000000E+00 0.  1.
          4    1    6    6  503    0  0.33958167290E+03  0.95853742416E+01  0.61612331520E+03  0.70357340164E+03  0.00000000000E+00 0. -1.
         -4    1    6    6    0  503 -0.43994693206E+01 -0.26061168516E+01  0.18356083998E+01  0.54329212717E+01  0.00000000000E+00 0.  1.
<mgrwt>
<rscale>  0 0.17561926E+04</rscale>
<asrwt>0</asrwt>
<pdfrwt beam="1">  1        2 0.43119857E+00 0.17561926E+04</pdfrwt>
<pdfrwt beam="2">  1       -1 0.42323372E-01 0.17561926E+04</pdfrwt>
<totfact> 0.13678497E+01</totfact>
</mgrwt>
</event>
<event>
12    6  0.1457317E-007  0.1668929E+04  0.7818608E-02  0.8779287E-01
         -1   -1    0    0    0  501 -0.00000000000E+00  0.00000000000E+00  0.33696363993E+03  0.33696363993E+03  0.00000000000E+00 0.  1.
          2   -1    0    0  501    0  0.00000000000E+00 -0.00000000000E+00 -0.20664865794E+04  0.20664865794E+04  0.00000000000E+00 0. -1.
         24    2    1    2    0    0  0.49987587892E+03  0.27876360660E+03 -0.50256542906E+03  0.76578478785E+03  0.79178836312E+02 0.  0.
        254    2    1    2    0    0 -0.49987587892E+03 -0.27876360660E+03 -0.12269575104E+04  0.16376654315E+04  0.92137847295E+03 0.  0.
         23    2    4    4    0    0  0.77464891541E+02  0.26203757739E+03 -0.30750614356E+03  0.42131509096E+03  0.91004813923E+02 0.  0.
         23    2    4    4    0    0 -0.57734077046E+03 -0.54080118399E+03 -0.91945136682E+03  0.12163503405E+04  0.91263623818E+02 0.  0.
          2    1    3    3  502    0  0.53107568681E+01  0.17541470854E+02 -0.19240275028E+02  0.26572457948E+02  0.00000000000E+00 0. -1.
         -1    1    3    3    0  502  0.49456512205E+03  0.26122213575E+03 -0.48332515403E+03  0.73921232990E+03  0.00000000000E+00 0.  1.
         11    1    5    5    0    0  0.56433936574E+01  0.15128644081E+03 -0.20140231961E+03  0.25195699913E+03  0.00000000000E+00 0. -1.
        -11    1    5    5    0    0  0.71821497884E+02  0.11075113658E+03 -0.10610382395E+03  0.16935809183E+03  0.00000000000E+00 0.  1.
          3    1    6    6  503    0 -0.40394979609E+03 -0.38717021804E+03 -0.58503626251E+03  0.80953297891E+03  0.00000000000E+00 0. -1.
         -3    1    6    6    0  503 -0.17339097436E+03 -0.15363096595E+03 -0.33441510431E+03  0.40681736158E+03  0.00000000000E+00 0.  1.
<mgrwt>
<rscale>  0 0.16689288E+04</rscale>
<asrwt>0</asrwt>
<pdfrwt beam="1">  1        2 0.31792101E+00 0.16689288E+04</pdfrwt>
<pdfrwt beam="2">  1       -1 0.51840560E-01 0.16689288E+04</pdfrwt>
<totfact> 0.24969860E+01</totfact>
</mgrwt>
</event>
<event>
12    6  0.1457317E-007  0.1318728E+04  0.7818608E-02  0.9014844E-01
         -1   -1    0    0    0  501 -0.00000000000E+00  0.00000000000E+00  0.22136217420E+03  0.22136217420E+03  0.00000000000E+00 0.  1.
          2   -1    0    0  501    0  0.00000000000E+00 -0.00000000000E+00 -0.19640244121E+04  0.19640244121E+04  0.00000000000E+00 0. -1.
         24    2    1    2    0    0  0.14587682011E+03 -0.82731422426E+02  0.26005470991E+02  0.18728646475E+03  0.79217425191E+02 0.  0.
        254    2    1    2    0    0 -0.14587682011E+03  0.82731422426E+02 -0.17686677089E+04  0.19981001215E+04  0.91438181102E+03 0.  0.
         23    2    4    4    0    0 -0.24205085682E+03 -0.34223382205E+03 -0.12142958978E+04  0.12875269656E+04  0.86594189556E+02 0.  0.
         23    2    4    4    0    0  0.96174036704E+02  0.42496524448E+03 -0.55437181109E+03  0.71057315587E+03  0.87984092669E+02 0.  0.
          2    1    3    3  502    0  0.78602318624E+02 -0.86043651002E+02  0.46795634573E+01  0.11663504055E+03  0.00000000000E+00 0. -1.
         -1    1    3    3    0  502  0.67274501489E+02  0.33122285759E+01  0.21325907534E+02  0.70651424195E+02  0.00000000000E+00 0.  1.
         11    1    5    5    0    0 -0.33566513391E+02 -0.91507614340E+02 -0.20772537644E+03  0.22945628412E+03  0.00000000000E+00 0. -1.
        -11    1    5    5    0    0 -0.20848434343E+03 -0.25072620771E+03 -0.10065705213E+04  0.10580706815E+04  0.00000000000E+00 0.  1.
          4    1    6    6  503    0 -0.67341079768E+01  0.54653513945E+02 -0.11024035267E+03  0.12322860931E+03  0.00000000000E+00 0. -1.
         -4    1    6    6    0  503  0.10290814468E+03  0.37031173053E+03 -0.44413145843E+03  0.58734454656E+03  0.00000000000E+00 0.  1.
<mgrwt>
<rscale>  0 0.13187277E+04</rscale>
<asrwt>0</asrwt>
<pdfrwt beam="1">  1        2 0.30215759E+00 0.13187277E+04</pdfrwt>
<pdfrwt beam="2">  1       -1 0.34055721E-01 0.13187277E+04</pdfrwt>
<totfact> 0.63623368E+01</totfact>
</mgrwt>
</event>
<event>
12    6  0.1457317E-007  0.3567515E+04  0.7818608E-02  0.8097974E-01
          2   -1    0    0  501    0  0.00000000000E+00  0.00000000000E+00  0.24075896738E+04  0.24075896738E+04  0.00000000000E+00 0. -1.
         -1   -1    0    0    0  501 -0.00000000000E+00 -0.00000000000E+00 -0.13215665332E+04  0.13215665332E+04  0.00000000000E+00 0.  1.
         24    2    1    2    0    0  0.17768734042E+03  0.16317465110E+04  0.18515303880E+03  0.16525184377E+04  0.48642284680E+02 0.  0.
        254    2    1    2    0    0 -0.17768734042E+03 -0.16317465110E+04  0.90087010183E+03  0.20766377694E+04  0.89815812507E+03 0.  0.
         23    2    4    4    0    0  0.16284498372E+03 -0.14672512332E+04  0.66427608717E+03  0.16212127415E+04  0.87882666623E+02 0.  0.
         23    2    4    4    0    0 -0.34053232414E+03 -0.16449527781E+03  0.23659401467E+03  0.45542502789E+03  0.91729319420E+02 0.  0.
          4    1    3    3  502    0  0.47894354128E+00  0.11792364038E+03  0.10767382205E+02  0.11841516316E+03  0.00000000000E+00 0. -1.
         -3    1    3    3    0  502  0.17720839688E+03  0.15138228706E+04  0.17438565660E+03  0.15341032745E+04  0.00000000000E+00 0.  1.
         11    1    5    5    0    0  0.46222118060E+02 -0.22488584460E+03  0.77564614462E+02  0.24233529813E+03  0.00000000000E+00 0. -1.
        -11    1    5    5    0    0  0.11662286566E+03 -0.12423653886E+04  0.58671147270E+03  0.13788774434E+04  0.00000000000E+00 0.  1.
          3    1    6    6  503    0 -0.21749704493E+02 -0.27671647429E+02  0.51079165682E+02  0.62031047740E+02  0.00000000000E+00 0. -1.
         -3    1    6    6    0  503 -0.31878261965E+03 -0.13682363038E+03  0.18551484898E+03  0.39339398015E+03  0.00000000000E+00 0.  1.
<mgrwt>
<rscale>  0 0.35675145E+04</rscale>
<asrwt>0</asrwt>
<pdfrwt beam="1">  1        2 0.37039841E+00 0.35675145E+04</pdfrwt>
<pdfrwt beam="2">  1       -1 0.20331793E+00 0.35675145E+04</pdfrwt>
<totfact> 0.52198529E-01</totfact>
</mgrwt>
</event>
<event>
12    6  0.1457317E-007  0.1426928E+04  0.7818608E-02  0.8934554E-01
         -1   -1    0    0    0  501 -0.00000000000E+00  0.00000000000E+00  0.15809573130E+03  0.15809573130E+03  0.00000000000E+00 0.  1.
          2   -1    0    0  501    0  0.00000000000E+00 -0.00000000000E+00 -0.32197648415E+04  0.32197648415E+04  0.00000000000E+00 0. -1.
         24    2    1    2    0    0  0.29231392170E+03 -0.15215452666E+03 -0.15632332833E+04  0.15995740341E+04  0.79626399531E+02 0.  0.
        254    2    1    2    0    0 -0.29231392170E+03  0.15215452666E+03 -0.14984358269E+04  0.17782865388E+04  0.89910770092E+03 0.  0.
         23    2    4    4    0    0 -0.36165256178E+03  0.23368223915E+03 -0.21992454534E+03  0.49199901749E+03  0.91083825322E+02 0.  0.
         23    2    4    4    0    0  0.69338640086E+02 -0.81527712485E+02 -0.12785112816E+04  0.12862875213E+04  0.92140519961E+02 0.  0.
          4    1    3    3  502    0  0.19883384020E+03 -0.12617682842E+03 -0.95229762921E+03  0.98098229476E+03  0.00000000000E+00 0. -1.
         -3    1    3    3    0  502  0.93480081498E+02 -0.25977698242E+02 -0.61093565412E+03  0.61859173929E+03  0.00000000000E+00 0.  1.
         11    1    5    5    0    0 -0.13286081723E+03  0.10567169752E+03 -0.13346066604E+03  0.21594039407E+03  0.00000000000E+00 0.  1.
        -11    1    5    5    0    0 -0.22879174455E+03  0.12801054163E+03 -0.86463879301E+02  0.27605862342E+03  0.00000000000E+00 0. -1.
          3    1    6    6  503    0  0.26952224324E+02 -0.65298048978E+02 -0.10939074550E+04  0.10961860142E+04  0.00000000000E+00 0. -1.
         -3    1    6    6    0  503  0.42386415761E+02 -0.16229663507E+02 -0.18460382652E+03  0.19010150706E+03  0.00000000000E+00 0.  1.
<mgrwt>
<rscale>  0 0.14269283E+04</rscale>
<asrwt>0</asrwt>
<pdfrwt beam="1">  1        2 0.49534844E+00 0.14269283E+04</pdfrwt>
<pdfrwt beam="2">  1       -1 0.24322420E-01 0.14269283E+04</pdfrwt>
<totfact> 0.20686046E+01</totfact>
</mgrwt>
</event>
<event>
12    6  0.1457317E-007  0.1760589E+04  0.7818608E-02  0.8727543E-01
          2   -1    0    0  501    0  0.00000000000E+00  0.00000000000E+00  0.82160695203E+03  0.82160695203E+03  0.00000000000E+00 0. -1.
         -1   -1    0    0    0  501 -0.00000000000E+00 -0.00000000000E+00 -0.94317422428E+03  0.94317422428E+03  0.00000000000E+00 0.  1.
         24    2    1    2    0    0 -0.97703778762E+01  0.41127305870E+03  0.45392961374E+03  0.61809482914E+03  0.82147029687E+02 0.  0.
        254    2    1    2    0    0  0.97703778762E+01 -0.41127305870E+03 -0.57549688600E+03  0.11466863472E+04  0.90246990193E+03 0.  0.
         23    2    4    4    0    0  0.10757655970E+03 -0.14170676868E+03  0.21975779931E+03  0.29688518267E+03  0.90519593695E+02 0.  0.
         23    2    4    4    0    0 -0.97806181820E+02 -0.26956629002E+03 -0.79525468531E+03  0.84980116450E+03  0.86602371545E+02 0.  0.
          2    1    3    3  502    0 -0.20945770834E+02  0.27314757968E+03  0.35213917715E+03  0.44615056392E+03  0.00000000000E+00 0. -1.
         -1    1    3    3    0  502  0.11175392958E+02  0.13812547902E+03  0.10179043659E+03  0.17194426522E+03  0.00000000000E+00 0.  1.
         11    1    5    5    0    0  0.49031857480E+02 -0.12198750245E+03  0.18187513906E+03  0.22441844846E+03  0.00000000000E+00 0.  1.
        -11    1    5    5    0    0  0.58544702217E+02 -0.19719266225E+02  0.37882660251E+02  0.72466734201E+02  0.00000000000E+00 0. -1.
          4    1    6    6  503    0 -0.77792913025E+02 -0.20116087057E+03 -0.68808600208E+03  0.72109623451E+03  0.00000000000E+00 0.  1.
         -4    1    6    6    0  503 -0.20013268795E+02 -0.68405419454E+02 -0.10716868323E+03  0.12870492999E+03  0.00000000000E+00 0. -1.
<mgrwt>
<rscale>  0 0.17605891E+04</rscale>
<asrwt>0</asrwt>
<pdfrwt beam="1">  1        2 0.12640107E+00 0.17605891E+04</pdfrwt>
<pdfrwt beam="2">  1       -1 0.14510373E+00 0.17605891E+04</pdfrwt>
<totfact> 0.13703034E+01</totfact>
</mgrwt>
</event>
<event>
12    6  0.1457317E-007  0.1388362E+04  0.7818608E-02  0.8962286E-01
         -3   -1    0    0    0  501 -0.00000000000E+00  0.00000000000E+00  0.76009482241E+03  0.76009482241E+03  0.00000000000E+00 0.  1.
          4   -1    0    0  501    0  0.00000000000E+00 -0.00000000000E+00 -0.63398350964E+03  0.63398350964E+03  0.00000000000E+00 0. -1.
         24    2    1    2    0    0 -0.82064841011E+02  0.17844521915E+03  0.39710935562E+03  0.44981217987E+03  0.77832014415E+02 0.  0.
        254    2    1    2    0    0  0.82064841011E+02 -0.17844521915E+03 -0.27099804286E+03  0.94426615218E+03  0.88296165973E+03 0.  0.
         23    2    4    4    0    0  0.18332701945E+03  0.48931577137E+02 -0.53198702432E+03  0.57209331014E+03  0.90980581251E+02 0.  0.
         23    2    4    4    0    0 -0.10126217844E+03 -0.22737679628E+03  0.26098898146E+03  0.37217284204E+03  0.91886558515E+02 0.  0.
          4    1    3    3  502    0  0.11582547128E+02  0.40295526724E+02  0.54957969960E+02  0.69124983429E+02  0.00000000000E+00 0. -1.
         -3    1    3    3    0  502 -0.93647388139E+02  0.13814969242E+03  0.34215138566E+03  0.38068719644E+03  0.00000000000E+00 0.  1.
         11    1    5    5    0    0  0.22178815046E+02  0.40744598667E+02 -0.84383697655E+02  0.96294499258E+02  0.00000000000E+00 0. -1.
        -11    1    5    5    0    0  0.16114820440E+03  0.81869784708E+01 -0.44760332667E+03  0.47579881089E+03  0.00000000000E+00 0.  1.
          3    1    6    6  503    0  0.35906096328E+00 -0.11021943757E+03  0.10643811468E+03  0.15322377622E+03  0.00000000000E+00 0. -1.
         -3    1    6    6    0  503 -0.10162123940E+03 -0.11715735871E+03  0.15455086678E+03  0.21894906581E+03  0.00000000000E+00 0.  1.
<mgrwt>
<rscale>  0 0.13883625E+04</rscale>
<asrwt>0</asrwt>
<pdfrwt beam="1">  1        4 0.97535925E-01 0.13883625E+04</pdfrwt>
<pdfrwt beam="2">  1       -3 0.11693766E+00 0.13883625E+04</pdfrwt>
<totfact> 0.11754582E+00</totfact>
</mgrwt>
</event>
<event>
12    6  0.1457317E-007  0.1968555E+04  0.7818608E-02  0.8621465E-01
         -1   -1    0    0    0  501 -0.00000000000E+00  0.00000000000E+00  0.13800194066E+04  0.13800194066E+04  0.00000000000E+00 0.  1.
          2   -1    0    0  501    0  0.00000000000E+00 -0.00000000000E+00 -0.70202048462E+03  0.70202048462E+03  0.00000000000E+00 0. -1.
         24    2    1    2    0    0  0.65658434614E+02  0.32047308968E+03  0.10125344446E+04  0.10670211765E+04  0.79335731655E+02 0.  0.
        254    2    1    2    0    0 -0.65658434614E+02 -0.32047308968E+03 -0.33453552268E+03  0.10150187147E+04  0.90074133023E+03 0.  0.
         23    2    4    4    0    0 -0.30767789498E+03  0.83511961212E+02 -0.41266719328E+03  0.52890277586E+03  0.88340246647E+02 0.  0.
         23    2    4    4    0    0  0.24201946036E+03 -0.40398505089E+03  0.78131670601E+02  0.48611593882E+03  0.91797644226E+02 0.  0.
          4    1    3    3  502    0  0.78571749300E+01  0.17470772348E+02  0.14537397475E+03  0.14663067762E+03  0.00000000000E+00 0. -1.
         -3    1    3    3    0  502  0.57801259684E+02  0.30300231733E+03  0.86716046986E+03  0.92039049888E+03  0.00000000000E+00 0.  1.
         11    1    5    5    0    0 -0.24480365427E+03  0.73316123458E+02 -0.26529736281E+03  0.36835685661E+03  0.00000000000E+00 0.  1.
        -11    1    5    5    0    0 -0.62874240710E+02  0.10195837754E+02 -0.14736983048E+03  0.16054591925E+03  0.00000000000E+00 0. -1.
          1    1    6    6  503    0  0.43456451628E+02 -0.14659017731E+03  0.44821221670E+02  0.15933011387E+03  0.00000000000E+00 0. -1.
         -1    1    6    6    0  503  0.19856300874E+03 -0.25739487358E+03  0.33310448931E+02  0.32678582496E+03  0.00000000000E+00 0.  1.
<mgrwt>
<rscale>  0 0.19685547E+04</rscale>
<asrwt>0</asrwt>
<pdfrwt beam="1">  1        2 0.10800315E+00 0.19685547E+04</pdfrwt>
<pdfrwt beam="2">  1       -1 0.21231068E+00 0.19685547E+04</pdfrwt>
<totfact> 0.53819083E+00</totfact>
</mgrwt>
</event>
<event>
12    6  0.1457317E-007  0.1661443E+04  0.7818608E-02  0.8783665E-01
         -1   -1    0    0    0  501 -0.00000000000E+00  0.00000000000E+00  0.44534166663E+03  0.44534166663E+03  0.00000000000E+00 0.  1.
          2   -1    0    0  501    0  0.00000000000E+00 -0.00000000000E+00 -0.15495934073E+04  0.15495934073E+04  0.00000000000E+00 0. -1.
         24    2    1    2    0    0 -0.39724006351E+03 -0.37325908653E+03 -0.64565795821E+03  0.84868357515E+03  0.79168162770E+02 0.  0.
        254    2    1    2    0    0  0.39724006351E+03  0.37325908653E+03 -0.45859378249E+03  0.11462514988E+04  0.89803242005E+03 0.  0.
         23    2    4    4    0    0 -0.11429483515E+03  0.42534573112E+01 -0.48687521983E+03  0.50851724794E+03  0.91983207852E+02 0.  0.
         23    2    4    4    0    0  0.51153489866E+03  0.36900562922E+03  0.28281437337E+02  0.63773425087E+03  0.89844466110E+02 0.  0.
          4    1    3    3  502    0 -0.15969351391E+03 -0.12241065848E+03 -0.18891055608E+03  0.27599562658E+03  0.00000000000E+00 0. -1.
         -3    1    3    3    0  502 -0.23754654960E+03 -0.25084842806E+03 -0.45674740213E+03  0.57268794857E+03  0.00000000000E+00 0.  1.
         11    1    5    5    0    0 -0.10030088408E+02 -0.79668625630E+00 -0.24340356378E+03  0.24361143701E+03  0.00000000000E+00 0. -1.
        -11    1    5    5    0    0 -0.10426474675E+03  0.50501435675E+01 -0.24347165606E+03  0.26490581093E+03  0.00000000000E+00 0.  1.
          3    1    6    6  503    0  0.24804086545E+03  0.22902547660E+03  0.33990447243E+02  0.33931149460E+03  0.00000000000E+00 0. -1.
         -3    1    6    6    0  503  0.26349403321E+03  0.13998015262E+03 -0.57090099052E+01  0.29842275627E+03  0.00000000000E+00 0.  1.
<mgrwt>
<rscale>  0 0.16614434E+04</rscale>
<asrwt>0</asrwt>
<pdfrwt beam="1">  1        2 0.23839898E+00 0.16614434E+04</pdfrwt>
<pdfrwt beam="2">  1       -1 0.68514104E-01 0.16614434E+04</pdfrwt>
<totfact> 0.27906446E+01</totfact>
</mgrwt>
</event>
<event>
12    6  0.1457317E-007  0.1660361E+04  0.7818608E-02  0.8784301E-01
          2   -1    0    0  501    0  0.00000000000E+00  0.00000000000E+00  0.82177985328E+03  0.82177985328E+03  0.00000000000E+00 0. -1.
         -1   -1    0    0    0  501 -0.00000000000E+00 -0.00000000000E+00 -0.83866696082E+03  0.83866696082E+03  0.00000000000E+00 0.  1.
         24    2    1    2    0    0 -0.37524972952E+03 -0.24821863835E+03 -0.36639676950E+03  0.58666137589E+03  0.86603263965E+02 0.  0.
        254    2    1    2    0    0  0.37524972952E+03  0.24821863835E+03  0.34950966196E+03  0.10737854382E+04  0.91018311982E+03 0.  0.
         23    2    4    4    0    0 -0.28772980268E+03  0.99418547320E+02  0.34326577100E+02  0.31947627944E+03  0.90632733210E+02 0.  0.
         23    2    4    4    0    0  0.66297953220E+03  0.14880009103E+03  0.31518308486E+03  0.75430915878E+03  0.89211001752E+02 0.  0.
          4    1    3    3  502    0 -0.12231927426E+03 -0.43995567881E+02 -0.74901912370E+02  0.15002636877E+03  0.00000000000E+00 0. -1.
         -1    1    3    3    0  502 -0.25293045526E+03 -0.20422307047E+03 -0.29149485713E+03  0.43663500712E+03  0.00000000000E+00 0.  1.
         11    1    5    5    0    0 -0.12745412836E+03  0.36645099934E+02 -0.29561077767E+02  0.13587227643E+03  0.00000000000E+00 0. -1.
        -11    1    5    5    0    0 -0.16027567432E+03  0.62773447386E+02  0.63887654867E+02  0.18360400301E+03  0.00000000000E+00 0.  1.
          1    1    6    6  503    0  0.33485909047E+03  0.11324805272E+03  0.19006357382E+03  0.40134759748E+03  0.00000000000E+00 0. -1.
         -1    1    6    6    0  503  0.32812044173E+03  0.35552038311E+02  0.12511951104E+03  0.35296156130E+03  0.00000000000E+00 0.  1.
<mgrwt>
<rscale>  0 0.16603609E+04</rscale>
<asrwt>0</asrwt>
<pdfrwt beam="1">  1        2 0.12642767E+00 0.16603609E+04</pdfrwt>
<pdfrwt beam="2">  1       -1 0.12902568E+00 0.16603609E+04</pdfrwt>
<totfact> 0.18716777E+01</totfact>
</mgrwt>
</event>
<event>
12    6  0.1457317E-007  0.2542753E+04  0.7818608E-02  0.8387911E-01
          2   -1    0    0  501    0  0.00000000000E+00  0.00000000000E+00  0.12174592815E+04  0.12174592815E+04  0.00000000000E+00 0. -1.
         -1   -1    0    0    0  501 -0.00000000000E+00 -0.00000000000E+00 -0.13276820416E+04  0.13276820416E+04  0.00000000000E+00 0.  1.
         24    2    1    2    0    0  0.10115205399E+03  0.60260456135E+03 -0.97789067438E+03  0.11558715754E+04  0.80030820847E+02 0.  0.
        254    2    1    2    0    0 -0.10115205399E+03 -0.60260456135E+03  0.86766791430E+03  0.13892697478E+04  0.89658174593E+03 0.  0.
         23    2    4    4    0    0 -0.81777775539E+02 -0.56504145198E+03  0.66930328743E+02  0.58227324179E+03  0.92752424088E+02 0.  0.
         23    2    4    4    0    0 -0.19374278456E+02 -0.37563109368E+02  0.80073758556E+03  0.80699650596E+03  0.90974336249E+02 0.  0.
          4    1    3    3  502    0  0.11350277680E+02  0.11291992445E+03 -0.12948195352E+03  0.17217814737E+03  0.00000000000E+00 0. -1.
         -3    1    3    3    0  502  0.89801776315E+02  0.48968463689E+03 -0.84840872086E+03  0.98369342799E+03  0.00000000000E+00 0.  1.
         11    1    5    5    0    0 -0.13920831291E+02 -0.33579570621E+03  0.69437508996E+02  0.34318233274E+03  0.00000000000E+00 0. -1.
        -11    1    5    5    0    0 -0.67856944249E+02 -0.22924574577E+03 -0.25071802522E+01  0.23909090905E+03  0.00000000000E+00 0.  1.
          1    1    6    6  503    0 -0.49105455214E+02 -0.47762825912E+01  0.56424944041E+03  0.56640232133E+03  0.00000000000E+00 0. -1.
         -1    1    6    6    0  503  0.29731176759E+02 -0.32786826776E+02  0.23648814515E+03  0.24059418463E+03  0.00000000000E+00 0.  1.
<mgrwt>
<rscale>  0 0.25427535E+04</rscale>
<asrwt>0</asrwt>
<pdfrwt beam="1">  1        2 0.18730143E+00 0.25427535E+04</pdfrwt>
<pdfrwt beam="2">  1       -1 0.20425878E+00 0.25427535E+04</pdfrwt>
<totfact> 0.26349061E+00</totfact>
</mgrwt>
</event>
<event>
12    6  0.1457317E-007  0.1757904E+04  0.7818608E-02  0.8729011E-01
          2   -1    0    0  501    0  0.00000000000E+00  0.00000000000E+00  0.99101175420E+03  0.99101175420E+03  0.00000000000E+00 0. -1.
         -1   -1    0    0    0  501 -0.00000000000E+00 -0.00000000000E+00 -0.77956368539E+03  0.77956368539E+03  0.00000000000E+00 0.  1.
         24    2    1    2    0    0 -0.45876852039E+03  0.85473567939E+02 -0.37035341571E+03  0.60068256852E+03  0.76704690077E+02 0.  0.
        254    2    1    2    0    0  0.45876852039E+03 -0.85473567939E+02  0.58180148452E+03  0.11698928711E+04  0.90132240418E+03 0.  0.
         23    2    4    4    0    0  0.69908722036E+03 -0.45471657257E+02  0.56907946576E+03  0.90812936892E+03  0.10028409183E+03 0.  0.
         23    2    4    4    0    0 -0.24031869997E+03 -0.40001910682E+02  0.12722018764E+02  0.26176350215E+03  0.94894946566E+02 0.  0.
          4    1    3    3  502    0 -0.39648961243E+02  0.58024900849E+01 -0.78222430829E+01  0.40827643891E+02  0.00000000000E+00 0. -1.
         -3    1    3    3    0  502 -0.41911955915E+03  0.79671077854E+02 -0.36253117263E+03  0.55985492463E+03  0.00000000000E+00 0.  1.
         11    1    5    5    0    0  0.66300673835E+03 -0.29043986369E+02  0.55775872842E+03  0.86690039068E+03  0.00000000000E+00 0. -1.
        -11    1    5    5    0    0  0.36080482009E+02 -0.16427670888E+02  0.11320737337E+02  0.41228978239E+02  0.00000000000E+00 0.  1.
          2    1    6    6  503    0 -0.24587773458E+03 -0.32704685284E+02  0.21619849819E+02  0.24898368361E+03  0.00000000000E+00 0. -1.
         -2    1    6    6    0  503  0.55590346097E+01 -0.72972253979E+01 -0.88978310545E+01  0.12779818534E+02  0.00000000000E+00 0.  1.
<mgrwt>
<rscale>  0 0.17579042E+04</rscale>
<asrwt>0</asrwt>
<pdfrwt beam="1">  1        2 0.15246335E+00 0.17579042E+04</pdfrwt>
<pdfrwt beam="2">  1       -1 0.11993288E+00 0.17579042E+04</pdfrwt>
<totfact> 0.17104721E+01</totfact>
</mgrwt>
</event>
<event>
12    6  0.1457317E-007  0.3372411E+04  0.7818608E-02  0.8144711E-01
         -1   -1    0    0    0  501 -0.00000000000E+00  0.00000000000E+00  0.15679307936E+04  0.15679307936E+04  0.00000000000E+00 0.  1.
          2   -1    0    0  501    0  0.00000000000E+00 -0.00000000000E+00 -0.18134017919E+04  0.18134017919E+04  0.00000000000E+00 0. -1.
         24    2    1    2    0    0  0.41543990858E+02 -0.14095244275E+04  0.56622808405E+03  0.15215300106E+04  0.77164208584E+02 0.  0.
        254    2    1    2    0    0 -0.41543990858E+02  0.14095244275E+04 -0.81169908231E+03  0.18598025749E+04  0.90084693628E+03 0.  0.
         23    2    4    4    0    0  0.40105784159E+03  0.45218614724E+03 -0.23152764619E+03  0.65251693034E+03  0.82786408172E+02 0.  0.
         23    2    4    4    0    0 -0.44260183245E+03  0.95733828022E+03 -0.58017143612E+03  0.12072856446E+04  0.92448728492E+02 0.  0.
          4    1    3    3  502    0  0.34613300866E+02 -0.22086010964E+03  0.88054859548E+02  0.24027260959E+03  0.00000000000E+00 0. -1.
         -3    1    3    3    0  502  0.69306899913E+01 -0.11886643178E+04  0.47817322450E+03  0.12812574010E+04  0.00000000000E+00 0.  1.
         11    1    5    5    0    0  0.25829223544E+03  0.28511113691E+03 -0.18918103447E+03  0.42871051198E+03  0.00000000000E+00 0.  1.
        -11    1    5    5    0    0  0.14276560616E+03  0.16707501033E+03 -0.42346611715E+02  0.22380641836E+03  0.00000000000E+00 0. -1.
          4    1    6    6  503    0 -0.25927899115E+03  0.61310833027E+03 -0.40971008888E+03  0.78165835045E+03  0.00000000000E+00 0. -1.
         -4    1    6    6    0  503 -0.18332284130E+03  0.34422994995E+03 -0.17046134723E+03  0.42562729411E+03  0.00000000000E+00 0.  1.
<mgrwt>
<rscale>  0 0.33724107E+04</rscale>
<asrwt>0</asrwt>
<pdfrwt beam="1">  1        2 0.27898489E+00 0.33724107E+04</pdfrwt>
<pdfrwt beam="2">  1       -1 0.24122012E+00 0.33724107E+04</pdfrwt>
<totfact> 0.63783033E-01</totfact>
</mgrwt>
</event>
<event>
12    6  0.1457317E-007  0.1858720E+04  0.7818608E-02  0.8675681E-01
         -1   -1    0    0    0  501 -0.00000000000E+00  0.00000000000E+00  0.36784634092E+03  0.36784634092E+03  0.00000000000E+00 0.  1.
          2   -1    0    0  501    0  0.00000000000E+00 -0.00000000000E+00 -0.23480179522E+04  0.23480179522E+04  0.00000000000E+00 0. -1.
         24    2    1    2    0    0  0.18994268083E+03  0.37759051438E+03  0.68878282122E+02  0.43556798974E+03  0.79513755939E+02 0.  0.
        254    2    1    2    0    0 -0.18994268083E+03 -0.37759051438E+03 -0.20490498934E+04  0.22802963034E+04  0.90691396891E+03 0.  0.
         23    2    4    4    0    0 -0.33490546793E+03 -0.22794045318E+03 -0.28829459780E+03  0.50528111233E+03  0.89870488549E+02 0.  0.
         23    2    4    4    0    0  0.14496278710E+03 -0.14965006120E+03 -0.17607552956E+04  0.17750151911E+04  0.83727934344E+02 0.  0.
          4    1    3    3  502    0  0.12836561018E+02  0.29009249209E+02 -0.15908060833E+02  0.35487747715E+02  0.00000000000E+00 0. -1.
         -3    1    3    3    0  502  0.17710611982E+03  0.34858126517E+03  0.84786342955E+02  0.40008024202E+03  0.00000000000E+00 0.  1.
         11    1    5    5    0    0 -0.20746121444E+03 -0.19165821625E+03 -0.19424680025E+03  0.34278979967E+03  0.00000000000E+00 0.  1.
        -11    1    5    5    0    0 -0.12744425349E+03 -0.36282236927E+02 -0.94047797549E+02  0.16249131266E+03  0.00000000000E+00 0. -1.
          1    1    6    6  503    0  0.11170062797E+02 -0.65532824537E+02 -0.53394625989E+03  0.53806870364E+03  0.00000000000E+00 0. -1.
         -1    1    6    6    0  503  0.13379272430E+03 -0.84117236663E+02 -0.12268090358E+04  0.12369464874E+04  0.00000000000E+00 0.  1.
<mgrwt>
<rscale>  0 0.18587198E+04</rscale>
<asrwt>0</asrwt>
<pdfrwt beam="1">  1        2 0.36123353E+00 0.18587198E+04</pdfrwt>
<pdfrwt beam="2">  1       -1 0.56591745E-01 0.18587198E+04</pdfrwt>
<totfact> 0.14401379E+01</totfact>
</mgrwt>
</event>
<event>
12    6  0.1457317E-007  0.1417038E+04  0.7818608E-02  0.8941577E-01
          2   -1    0    0  501    0  0.00000000000E+00  0.00000000000E+00  0.78602433865E+03  0.78602433865E+03  0.00000000000E+00 0. -1.
         -1   -1    0    0    0  501 -0.00000000000E+00 -0.00000000000E+00 -0.63865634387E+03  0.63865634387E+03  0.00000000000E+00 0.  1.
         24    2    1    2    0    0 -0.24107307770E+03 -0.14002685511E+03  0.33771309232E+03  0.44542889823E+03  0.81443365044E+02 0.  0.
        254    2    1    2    0    0  0.24107307770E+03  0.14002685511E+03 -0.19034509754E+03  0.97925178429E+03  0.91922742122E+03 0.  0.
         23    2    4    4    0    0  0.82600007465E+02  0.48516934244E+03  0.76032091140E+02  0.50627052797E+03  0.91197130072E+02 0.  0.
         23    2    4    4    0    0  0.15847307024E+03 -0.34514248733E+03 -0.26637718869E+03  0.47298125632E+03  0.92289824050E+02 0.  0.
          2    1    3    3  502    0 -0.68595472860E+02 -0.48509029255E+02  0.16318887052E+03  0.18354583155E+03  0.00000000000E+00 0. -1.
         -1    1    3    3    0  502 -0.17247760484E+03 -0.91517825853E+02  0.17452422180E+03  0.26188306668E+03  0.00000000000E+00 0.  1.
         11    1    5    5    0    0 -0.87006039783E+01  0.14617711679E+03 -0.27750409620E+01  0.14646211399E+03  0.00000000000E+00 0. -1.
        -11    1    5    5    0    0  0.91300611443E+02  0.33899222565E+03  0.78807132102E+02  0.35980841398E+03  0.00000000000E+00 0.  1.
          2    1    6    6  503    0  0.39048486660E+02 -0.23458517436E+02 -0.48389091427E+02  0.66457433894E+02  0.00000000000E+00 0. -1.
         -2    1    6    6    0  503  0.11942458358E+03 -0.32168396989E+03 -0.21798809726E+03  0.40652382242E+03  0.00000000000E+00 0.  1.
<mgrwt>
<rscale>  0 0.14170384E+04</rscale>
<asrwt>0</asrwt>
<pdfrwt beam="1">  1        2 0.12092682E+00 0.14170384E+04</pdfrwt>
<pdfrwt beam="2">  1       -1 0.98254822E-01 0.14170384E+04</pdfrwt>
<totfact> 0.38849557E+01</totfact>
</mgrwt>
</event>
<event>
12    6  0.1457317E-007  0.9467248E+03  0.7818608E-02  0.9368987E-01
          2   -1    0    0  501    0  0.00000000000E+00  0.00000000000E+00  0.67064339630E+03  0.67064339630E+03  0.00000000000E+00 0. -1.
         -3   -1    0    0    0  501 -0.00000000000E+00 -0.00000000000E+00 -0.33411491240E+03  0.33411491240E+03  0.00000000000E+00 0.  1.
         24    2    1    2    0    0 -0.10395003638E+02  0.31688385355E+01  0.23565169723E+03  0.24937443110E+03  0.80856581938E+02 0.  0.
        254    2    1    2    0    0  0.10395003638E+02 -0.31688385355E+01  0.10087678667E+03  0.75538387760E+03  0.74853896279E+03 0.  0.
         23    2    4    4    0    0 -0.29122332883E+03 -0.19432140072E+03  0.13273362864E+03  0.38554961359E+03  0.91969855558E+02 0.  0.
         23    2    4    4    0    0  0.30161833247E+03  0.19115256219E+03 -0.31856841971E+02  0.36983426401E+03  0.90827330378E+02 0.  0.
          4    1    3    3  502    0  0.11706491010E+02  0.10997534946E+02  0.22130348509E+03  0.22188560165E+03  0.00000000000E+00 0. -1.
         -3    1    3    3    0  502 -0.22101494648E+02 -0.78286964104E+01  0.14348212141E+02  0.27488829455E+02  0.00000000000E+00 0.  1.
         11    1    5    5    0    0 -0.20243052660E+03 -0.82024686628E+02  0.71244260029E+02  0.22974314332E+03  0.00000000000E+00 0.  1.
        -11    1    5    5    0    0 -0.88792802228E+02 -0.11229671409E+03  0.61489368608E+02  0.15580647026E+03  0.00000000000E+00 0. -1.
          4    1    6    6  503    0  0.49957091799E+01  0.30928620973E+02 -0.26339932101E+01  0.31440016313E+02  0.00000000000E+00 0. -1.
         -4    1    6    6    0  503  0.29662262329E+03  0.16022394121E+03 -0.29222848761E+02  0.33839424770E+03  0.00000000000E+00 0.  1.
<mgrwt>
<rscale>  0 0.94672480E+03</rscale>
<asrwt>0</asrwt>
<pdfrwt beam="1">  1        2 0.10317591E+00 0.94672480E+03</pdfrwt>
<pdfrwt beam="2">  1       -3 0.51402294E-01 0.94672480E+03</pdfrwt>
<totfact> 0.10294553E+02</totfact>
</mgrwt>
</event>
<event>
12    6  0.1457317E-007  0.1440019E+04  0.7818608E-02  0.8925350E-01
          2   -1    0    0  501    0  0.00000000000E+00  0.00000000000E+00  0.36384272119E+03  0.36384272119E+03  0.00000000000E+00 0. -1.
         -1   -1    0    0    0  501 -0.00000000000E+00 -0.00000000000E+00 -0.14248283216E+04  0.14248283216E+04  0.00000000000E+00 0.  1.
         24    2    1    2    0    0 -0.54012471526E+02  0.31808365882E+03  0.28794002727E+02  0.33354515212E+03  0.79553207471E+02 0.  0.
        254    2    1    2    0    0  0.54012471526E+02 -0.31808365882E+03 -0.10897796031E+04  0.14551258906E+04  0.90866782335E+03 0.  0.
         23    2    4    4    0    0 -0.32047532029E+02  0.28494617616E+03 -0.58924044375E+03  0.66163461939E+03  0.91294585847E+02 0.  0.
         23    2    4    4    0    0  0.86060003554E+02 -0.60302983499E+03 -0.50053915934E+03  0.79349127124E+03  0.89652894041E+02 0.  0.
          4    1    3    3  502    0 -0.44652571488E+02  0.25746506664E+03 -0.90641188444E+01  0.26146562093E+03  0.00000000000E+00 0. -1.
         -3    1    3    3    0  502 -0.93599000379E+01  0.60618592186E+02  0.37858121571E+02  0.72079531187E+02  0.00000000000E+00 0.  1.
         11    1    5    5    0    0 -0.14643808081E+02  0.14542238066E+03 -0.19952441167E+03  0.24732994312E+03  0.00000000000E+00 0. -1.
        -11    1    5    5    0    0 -0.17403723948E+02  0.13952379551E+03 -0.38971603208E+03  0.41430467627E+03  0.00000000000E+00 0.  1.
          2    1    6    6  503    0  0.94551450821E+02 -0.51050847066E+03 -0.45344730930E+03  0.68932817857E+03  0.00000000000E+00 0.  1.
         -2    1    6    6    0  503 -0.84914472662E+01 -0.92521364329E+02 -0.47091850038E+02  0.10416309267E+03  0.00000000000E+00 0. -1.
<mgrwt>
<rscale>  0 0.14400186E+04</rscale>
<asrwt>0</asrwt>
<pdfrwt beam="1">  1        2 0.55975802E-01 0.14400186E+04</pdfrwt>
<pdfrwt beam="2">  1       -1 0.21920436E+00 0.14400186E+04</pdfrwt>
<totfact> 0.10949541E+01</totfact>
</mgrwt>
</event>
<event>
12    6  0.1457317E-007  0.1762837E+04  0.7818608E-02  0.8726316E-01
          2   -1    0    0  501    0  0.00000000000E+00  0.00000000000E+00  0.14914050215E+04  0.14914050215E+04  0.00000000000E+00 0. -1.
         -3   -1    0    0    0  501 -0.00000000000E+00 -0.00000000000E+00 -0.52091712577E+03  0.52091712577E+03  0.00000000000E+00 0.  1.
         24    2    1    2    0    0 -0.51597988794E+03 -0.37907848313E+03  0.49200450242E+03  0.81210582616E+03  0.86670071853E+02 0.  0.
        254    2    1    2    0    0  0.51597988794E+03  0.37907848313E+03  0.47848339336E+03  0.12002163211E+04  0.89534190044E+03 0.  0.
         23    2    4    4    0    0  0.46304537522E+02 -0.17060243283E+03 -0.13971094059E+03  0.24464663198E+03  0.95307540818E+02 0.  0.
         23    2    4    4    0    0  0.46967535042E+03  0.54968091596E+03  0.61819433395E+03  0.95556968917E+03  0.90582294974E+02 0.  0.
          4    1    3    3  502    0 -0.37250788299E+03 -0.28738348828E+03  0.31318081649E+03  0.56518458582E+03  0.00000000000E+00 0. -1.
         -3    1    3    3    0  502 -0.14347200495E+03 -0.91694994850E+02  0.17882368593E+03  0.24692124035E+03  0.00000000000E+00 0.  1.
         11    1    5    5    0    0  0.30708698312E+02 -0.15751326658E+03 -0.15185652305E+03  0.22093858172E+03  0.00000000000E+00 0. -1.
        -11    1    5    5    0    0  0.15595839209E+02 -0.13089166249E+02  0.12145582460E+02  0.23708050258E+02  0.00000000000E+00 0.  1.
          3    1    6    6  503    0  0.20019960305E+03  0.16793083155E+03  0.21505868842E+03  0.33842411958E+03  0.00000000000E+00 0. -1.
         -3    1    6    6    0  503  0.26947574737E+03  0.38175008441E+03  0.40313564553E+03  0.61714556959E+03  0.00000000000E+00 0.  1.
<mgrwt>
<rscale>  0 0.17628368E+04</rscale>
<asrwt>0</asrwt>
<pdfrwt beam="1">  1        2 0.22944692E+00 0.17628368E+04</pdfrwt>
<pdfrwt beam="2">  1       -3 0.80141097E-01 0.17628368E+04</pdfrwt>
<totfact> 0.11223902E+01</totfact>
</mgrwt>
</event>
<event>
12    6  0.1457317E-007  0.1447762E+04  0.7818608E-02  0.8919954E-01
          2   -1    0    0  501    0  0.00000000000E+00  0.00000000000E+00  0.14171044647E+04  0.14171044647E+04  0.00000000000E+00 0. -1.
         -3   -1    0    0    0  501 -0.00000000000E+00 -0.00000000000E+00 -0.36977044885E+03  0.36977044885E+03  0.00000000000E+00 0.  1.
         24    2    1    2    0    0 -0.11030917144E+03 -0.34182488262E+03  0.13949320734E+02  0.36733912508E+03  0.75703933718E+02 0.  0.
        254    2    1    2    0    0  0.11030917144E+03  0.34182488262E+03  0.10333846951E+04  0.14195357884E+04  0.90453610373E+03 0.  0.
         23    2    4    4    0    0 -0.26672416841E+03  0.99705442891E+01  0.20542780086E+02  0.28532713482E+03  0.98733855817E+02 0.  0.
         23    2    4    4    0    0  0.37703333985E+03  0.33185433833E+03  0.10128419150E+04  0.11342086536E+04  0.91099308157E+02 0.  0.
          4    1    3    3  502    0 -0.12502638738E+01 -0.26804515582E+02 -0.18207269032E+02  0.32427609547E+02  0.00000000000E+00 0. -1.
         -3    1    3    3    0  502 -0.10905890757E+03 -0.31502036704E+03  0.32156589766E+02  0.33491151553E+03  0.00000000000E+00 0.  1.
         11    1    5    5    0    0 -0.51755280184E+02  0.42175875096E+02 -0.19970690552E+01  0.66793725393E+02  0.00000000000E+00 0. -1.
        -11    1    5    5    0    0 -0.21496888822E+03 -0.32205330806E+02  0.22539849141E+02  0.21853340943E+03  0.00000000000E+00 0.  1.
          4    1    6    6  503    0  0.22574565779E+03  0.14175242789E+03  0.56444388446E+03  0.62422091565E+03  0.00000000000E+00 0. -1.
         -4    1    6    6    0  503  0.15128768206E+03  0.19010191045E+03  0.44839803054E+03  0.50998773798E+03  0.00000000000E+00 0.  1.
<mgrwt>
<rscale>  0 0.14477615E+04</rscale>
<asrwt>0</asrwt>
<pdfrwt beam="1">  1        2 0.21801607E+00 0.14477615E+04</pdfrwt>
<pdfrwt beam="2">  1       -3 0.56887762E-01 0.14477615E+04</pdfrwt>
<totfact> 0.26639590E+01</totfact>
</mgrwt>
</event>
<event>
12    6  0.1457317E-007  0.2567794E+04  0.7818608E-02  0.8379224E-01
          2   -1    0    0  501    0  0.00000000000E+00  0.00000000000E+00  0.21682385064E+04  0.21682385064E+04  0.00000000000E+00 0. -1.
         -1   -1    0    0    0  501 -0.00000000000E+00 -0.00000000000E+00 -0.76024462066E+03  0.76024462066E+03  0.00000000000E+00 0.  1.
         24    2    1    2    0    0  0.81812860436E+02 -0.43447728083E+03  0.17911492793E+04  0.18468325491E+04  0.84325986458E+02 0.  0.
        254    2    1    2    0    0 -0.81812860436E+02  0.43447728083E+03 -0.38315539353E+03  0.10816505780E+04  0.90977803096E+03 0.  0.
         23    2    4    4    0    0 -0.22267980043E+03 -0.20466312906E+03 -0.26462402984E+03  0.41025052508E+03  0.82500462051E+02 0.  0.
         23    2    4    4    0    0  0.14086693999E+03  0.63914040989E+03 -0.11853136368E+03  0.67140005292E+03  0.91566306889E+02 0.  0.
          4    1    3    3  502    0  0.52741276340E+02 -0.30304070772E+03  0.10749938668E+04  0.11181355582E+04  0.00000000000E+00 0. -1.
         -3    1    3    3    0  502  0.29071584096E+02 -0.13143657310E+03  0.71615541248E+03  0.72869699092E+03  0.00000000000E+00 0.  1.
         11    1    5    5    0    0 -0.14670888658E+03 -0.11287506056E+03 -0.20765694106E+03  0.27818282095E+03  0.00000000000E+00 0. -1.
        -11    1    5    5    0    0 -0.75970913853E+02 -0.91788068495E+02 -0.56967088778E+02  0.13206770413E+03  0.00000000000E+00 0.  1.
          1    1    6    6  503    0  0.94583250355E+02  0.28102953289E+03 -0.20432172248E+02  0.29722224557E+03  0.00000000000E+00 0. -1.
         -1    1    6    6    0  503  0.46283689639E+02  0.35811087700E+03 -0.98099191435E+02  0.37417780735E+03  0.00000000000E+00 0.  1.
<mgrwt>
<rscale>  0 0.25677941E+04</rscale>
<asrwt>0</asrwt>
<pdfrwt beam="1">  1        2 0.33357515E+00 0.25677941E+04</pdfrwt>
<pdfrwt beam="2">  1       -1 0.11696071E+00 0.25677941E+04</pdfrwt>
<totfact> 0.35770031E+00</totfact>
</mgrwt>
</event>
<event>
12    6  0.1457317E-007  0.1388684E+04  0.7818608E-02  0.8962051E-01
          2   -1    0    0  501    0  0.00000000000E+00  0.00000000000E+00  0.54912885307E+03  0.54912885307E+03  0.00000000000E+00 0. -1.
         -1   -1    0    0    0  501 -0.00000000000E+00 -0.00000000000E+00 -0.87795559561E+03  0.87795559561E+03  0.00000000000E+00 0.  1.
         24    2    1    2    0    0  0.66743320424E+02  0.26128521745E+03  0.21287634068E+03  0.35260539653E+03  0.79306957868E+02 0.  0.
        254    2    1    2    0    0 -0.66743320424E+02 -0.26128521745E+03 -0.54170308322E+03  0.10744790521E+04  0.88788420836E+03 0.  0.
         23    2    4    4    0    0  0.31860235608E+03  0.11049654949E+03 -0.36016231688E+03  0.50190745836E+03  0.92072001807E+02 0.  0.
         23    2    4    4    0    0 -0.38534567650E+03 -0.37178176693E+03 -0.18154076635E+03  0.57257159378E+03  0.90378136398E+02 0.  0.
          4    1    3    3  502    0  0.44035194530E+02  0.24242402906E+03  0.20848552016E+03  0.32276108864E+03  0.00000000000E+00 0. -1.
         -1    1    3    3    0  502  0.22708125894E+02  0.18861188385E+02  0.43908205230E+01  0.29844307896E+02  0.00000000000E+00 0.  1.
         11    1    5    5    0    0  0.25303040659E+03  0.76950279101E+02 -0.32850892396E+03  0.42173907246E+03  0.00000000000E+00 0.  1.
        -11    1    5    5    0    0  0.65571949483E+02  0.33546270387E+02 -0.31653392916E+02  0.80168385907E+02  0.00000000000E+00 0. -1.
          1    1    6    6  503    0 -0.27367431643E+03 -0.29409568476E+03 -0.16942237516E+03  0.43599752806E+03  0.00000000000E+00 0. -1.
         -1    1    6    6    0  503 -0.11167136007E+03 -0.77686082170E+02 -0.12118391185E+02  0.13657406572E+03  0.00000000000E+00 0.  1.
<mgrwt>
<rscale>  0 0.13886839E+04</rscale>
<asrwt>0</asrwt>
<pdfrwt beam="1">  1        2 0.84481363E-01 0.13886839E+04</pdfrwt>
<pdfrwt beam="2">  1       -1 0.13507009E+00 0.13886839E+04</pdfrwt>
<totfact> 0.28258900E+01</totfact>
</mgrwt>
</event>
<event>
12    6  0.1457317E-007  0.1706972E+04  0.7818608E-02  0.8757398E-01
          2   -1    0    0  501    0  0.00000000000E+00  0.00000000000E+00  0.17507584901E+04  0.17507584901E+04  0.00000000000E+00 0. -1.
         -1   -1    0    0    0  501 -0.00000000000E+00 -0.00000000000E+00 -0.41607011225E+03  0.41607011225E+03  0.00000000000E+00 0.  1.
         24    2    1    2    0    0  0.41997373953E+03  0.24250366873E+03  0.29210227848E+01  0.49179826102E+03  0.81676348639E+02 0.  0.
        254    2    1    2    0    0 -0.41997373953E+03 -0.24250366873E+03  0.13317673551E+04  0.16750303414E+04  0.89271293545E+03 0.  0.
         23    2    4    4    0    0  0.61428097672E+02 -0.43688771344E+03  0.84459298641E+03  0.95747227131E+03  0.93656565638E+02 0.  0.
         23    2    4    4    0    0 -0.48140183720E+03  0.19438404471E+03  0.48717436869E+03  0.71755807005E+03  0.89542351380E+02 0.  0.
          4    1    3    3  502    0  0.19581905044E+02  0.24948943736E+02  0.16833891696E+02  0.35906555228E+02  0.00000000000E+00 0. -1.
         -3    1    3    3    0  502  0.40039183448E+03  0.21755472499E+03 -0.13912868911E+02  0.45589170579E+03  0.00000000000E+00 0.  1.
         11    1    5    5    0    0  0.36885715516E+02 -0.41819371871E+03  0.79573091891E+03  0.89968563270E+03  0.00000000000E+00 0. -1.
        -11    1    5    5    0    0  0.24542382157E+02 -0.18693994728E+02  0.48862067503E+02  0.57786638607E+02  0.00000000000E+00 0.  1.
          1    1    6    6  503    0 -0.46393223338E+03  0.17064146186E+03  0.43917910310E+03  0.66123362760E+03  0.00000000000E+00 0. -1.
         -1    1    6    6    0  503 -0.17469603825E+02  0.23742582854E+02  0.47995265596E+02  0.56324442456E+02  0.00000000000E+00 0.  1.
<mgrwt>
<rscale>  0 0.17069719E+04</rscale>
<asrwt>0</asrwt>
<pdfrwt beam="1">  1        2 0.26934746E+00 0.17069719E+04</pdfrwt>
<pdfrwt beam="2">  1       -1 0.64010787E-01 0.17069719E+04</pdfrwt>
<totfact> 0.24639206E+01</totfact>
</mgrwt>
</event>
<event>
12    6  0.1457317E-007  0.1330798E+04  0.7818608E-02  0.9005492E-01
          2   -1    0    0  501    0  0.00000000000E+00  0.00000000000E+00  0.10812331935E+04  0.10812331935E+04  0.00000000000E+00 0. -1.
         -1   -1    0    0    0  501 -0.00000000000E+00 -0.00000000000E+00 -0.40949144819E+03  0.40949144819E+03  0.00000000000E+00 0.  1.
         24    2    1    2    0    0  0.36277082523E+03 -0.66448443701E+02  0.18775009239E+03  0.42300929497E+03  0.87571108991E+02 0.  0.
        254    2    1    2    0    0 -0.36277082523E+03  0.66448443701E+02  0.48399165291E+03  0.10677153467E+04  0.87735401875E+03 0.  0.
         23    2    4    4    0    0 -0.41308926401E+03 -0.30252274879E+02 -0.12539712496E+03  0.44235427831E+03  0.91623841996E+02 0.  0.
         23    2    4    4    0    0  0.50318438780E+02  0.96700718581E+02  0.60938877787E+03  0.62536106840E+03  0.88537048849E+02 0.  0.
          2    1    3    3  502    0  0.95341803988E+02 -0.53820483992E+02  0.73839851131E+02  0.13205691084E+03  0.00000000000E+00 0. -1.
         -1    1    3    3    0  502  0.26742902124E+03 -0.12627959710E+02  0.11391024126E+03  0.29095238413E+03  0.00000000000E+00 0.  1.
         11    1    5    5    0    0 -0.22664944862E+03  0.26858180810E+02 -0.82598822416E+02  0.24272185707E+03  0.00000000000E+00 0. -1.
        -11    1    5    5    0    0 -0.18643981539E+03 -0.57110455689E+02 -0.42798302544E+02  0.19963242124E+03  0.00000000000E+00 0.  1.
          3    1    6    6  503    0 -0.38209499223E+01  0.33733518343E+02  0.37801475962E+03  0.37953617537E+03  0.00000000000E+00 0. -1.
         -3    1    6    6    0  503  0.54139388702E+02  0.62967200238E+02  0.23137401824E+03  0.24582489303E+03  0.00000000000E+00 0.  1.
<mgrwt>
<rscale>  0 0.13307979E+04</rscale>
<asrwt>0</asrwt>
<pdfrwt beam="1">  1        2 0.16634357E+00 0.13307979E+04</pdfrwt>
<pdfrwt beam="2">  1       -1 0.62998685E-01 0.13307979E+04</pdfrwt>
<totfact> 0.63799086E+01</totfact>
</mgrwt>
</event>
<event>
12    6  0.1457317E-007  0.1713852E+04  0.7818608E-02  0.8753503E-01
         -3   -1    0    0    0  501 -0.00000000000E+00  0.00000000000E+00  0.55725882908E+03  0.55725882908E+03  0.00000000000E+00 0.  1.
          2   -1    0    0  501    0  0.00000000000E+00 -0.00000000000E+00 -0.13177399321E+04  0.13177399321E+04  0.00000000000E+00 0. -1.
         24    2    1    2    0    0 -0.38551135881E+03 -0.46707509574E+03 -0.15282085917E+03  0.62917958800E+03  0.75727050171E+02 0.  0.
        254    2    1    2    0    0  0.38551135881E+03  0.46707509574E+03 -0.60766024383E+03  0.12458191732E+04  0.90334726847E+03 0.  0.
         23    2    4    4    0    0  0.38985710049E+03  0.37789581098E+03  0.71379602931E+02  0.55495830252E+03  0.89943688252E+02 0.  0.
         23    2    4    4    0    0 -0.43457416804E+01  0.89179284762E+02 -0.67903984676E+03  0.69086087065E+03  0.90674135235E+02 0.  0.
          2    1    3    3  502    0 -0.46283135021E+02 -0.10119376684E+03 -0.23096804647E+02  0.11364756671E+03  0.00000000000E+00 0. -1.
         -3    1    3    3    0  502 -0.33922822379E+03 -0.36588132890E+03 -0.12972405452E+03  0.51553202129E+03  0.00000000000E+00 0.  1.
         11    1    5    5    0    0  0.30467664024E+03  0.23905270567E+03  0.56961295451E+02  0.39143152705E+03  0.00000000000E+00 0.  1.
        -11    1    5    5    0    0  0.85180460256E+02  0.13884310531E+03  0.14418307479E+02  0.16352677546E+03  0.00000000000E+00 0. -1.
          4    1    6    6  503    0  0.33177167317E+02  0.16673785053E+02 -0.34486475380E+03  0.34685795068E+03  0.00000000000E+00 0. -1.
         -4    1    6    6    0  503 -0.37522908997E+02  0.72505499709E+02 -0.33417509296E+03  0.34400291996E+03  0.00000000000E+00 0.  1.
<mgrwt>
<rscale>  0 0.17138520E+04</rscale>
<asrwt>0</asrwt>
<pdfrwt beam="1">  1        2 0.20272922E+00 0.17138520E+04</pdfrwt>
<pdfrwt beam="2">  1       -3 0.85732128E-01 0.17138520E+04</pdfrwt>
<totfact> 0.12155895E+01</totfact>
</mgrwt>
</event>
<event>
12    6  0.1457317E-007  0.1269162E+04  0.7818608E-02  0.9054384E-01
         -1   -1    0    0    0  501 -0.00000000000E+00  0.00000000000E+00  0.69931191862E+03  0.69931191862E+03  0.00000000000E+00 0.  1.
          2   -1    0    0  501    0  0.00000000000E+00 -0.00000000000E+00 -0.57584161352E+03  0.57584161352E+03  0.00000000000E+00 0. -1.
         24    2    1    2    0    0 -0.19479254552E+03  0.93124286860E+02 -0.17864233411E+03  0.29176773416E+03  0.81234589714E+02 0.  0.
        254    2    1    2    0    0  0.19479254552E+03 -0.93124286860E+02  0.30211263921E+03  0.98338579799E+03  0.91058185372E+03 0.  0.
         23    2    4    4    0    0  0.64145606971E+02 -0.49387864582E+03  0.15462096789E+03  0.52948005487E+03  0.91709918264E+02 0.  0.
         23    2    4    4    0    0  0.13064693855E+03  0.40075435896E+03  0.14749167132E+03  0.45390574312E+03  0.81264701744E+02 0.  0.
          4    1    3    3  502    0 -0.87683814501E+02 -0.21288173978E+00 -0.81062260758E+02  0.11941351164E+03  0.00000000000E+00 0. -1.
         -3    1    3    3    0  502 -0.10710873102E+03  0.93337168600E+02 -0.97580073351E+02  0.17235422251E+03  0.00000000000E+00 0.  1.
         11    1    5    5    0    0  0.38661110098E+02 -0.15600172347E+03  0.91088746525E+02  0.18473867734E+03  0.00000000000E+00 0.  1.
        -11    1    5    5    0    0  0.25484496873E+02 -0.33787692235E+03  0.63532221369E+02  0.34474137754E+03  0.00000000000E+00 0. -1.
          4    1    6    6  503    0  0.82563307109E+01  0.49426531760E+02 -0.78844057683E+01  0.50727831542E+02  0.00000000000E+00 0.  1.
         -4    1    6    6    0  503  0.12239060783E+03  0.35132782720E+03  0.15537607708E+03  0.40317791157E+03  0.00000000000E+00 0. -1.
<mgrwt>
<rscale>  0 0.12691618E+04</rscale>
<asrwt>0</asrwt>
<pdfrwt beam="1">  1        2 0.88591018E-01 0.12691618E+04</pdfrwt>
<pdfrwt beam="2">  1       -1 0.10758645E+00 0.12691618E+04</pdfrwt>
<totfact> 0.47077307E+01</totfact>
</mgrwt>
</event>
<event>
12    6  0.1457317E-007  0.1578164E+04  0.7818608E-02  0.8834076E-01
          2   -1    0    0  501    0  0.00000000000E+00  0.00000000000E+00  0.89627250880E+03  0.89627250880E+03  0.00000000000E+00 0. -1.
         -1   -1    0    0    0  501 -0.00000000000E+00 -0.00000000000E+00 -0.69471108607E+03  0.69471108607E+03  0.00000000000E+00 0.  1.
         24    2    1    2    0    0 -0.14644560135E+03 -0.24448085208E+03 -0.39031052336E+03  0.48926800081E+03  0.76312979133E+02 0.  0.
        254    2    1    2    0    0  0.14644560135E+03  0.24448085208E+03  0.59187194609E+03  0.11017155941E+04  0.88444765160E+03 0.  0.
         23    2    4    4    0    0  0.40977923039E+03  0.39512865826E+03  0.22986991117E+03  0.62045471551E+03  0.89878827880E+02 0.  0.
         23    2    4    4    0    0 -0.26333362903E+03 -0.15064780618E+03  0.36200203491E+03  0.48126087854E+03  0.92342829985E+02 0.  0.
          4    1    3    3  502    0  0.23884296260E+00  0.49804798170E+01 -0.11754350473E+02  0.12768201918E+02  0.00000000000E+00 0. -1.
         -3    1    3    3    0  502 -0.14668444432E+03 -0.24946133190E+03 -0.37855617289E+03  0.47649979889E+03  0.00000000000E+00 0.  1.
         11    1    5    5    0    0  0.34721967133E+03  0.28467859883E+03  0.18825001079E+03  0.48686904949E+03  0.00000000000E+00 0. -1.
        -11    1    5    5    0    0  0.62559559052E+02  0.11045005943E+03  0.41619900384E+02  0.13358566601E+03  0.00000000000E+00 0.  1.
          2    1    6    6  503    0 -0.20089035446E+03 -0.14658295522E+03  0.32255296197E+03  0.40728848566E+03  0.00000000000E+00 0. -1.
         -2    1    6    6    0  503 -0.62443274571E+02 -0.40648509545E+01  0.39449072943E+02  0.73972392881E+02  0.00000000000E+00 0.  1.
<mgrwt>
<rscale>  0 0.15781641E+04</rscale>
<asrwt>0</asrwt>
<pdfrwt beam="1">  1        2 0.13788808E+00 0.15781641E+04</pdfrwt>
<pdfrwt beam="2">  1       -1 0.10687863E+00 0.15781641E+04</pdfrwt>
<totfact> 0.26414387E+01</totfact>
</mgrwt>
</event>
<event>
12    6  0.1457317E-007  0.3292601E+04  0.7818608E-02  0.8164781E-01
          2   -1    0    0  501    0  0.00000000000E+00  0.00000000000E+00  0.13022763620E+04  0.13022763620E+04  0.00000000000E+00 0. -1.
         -1   -1    0    0    0  501 -0.00000000000E+00 -0.00000000000E+00 -0.20812065210E+04  0.20812065210E+04  0.00000000000E+00 0.  1.
         24    2    1    2    0    0  0.94493478565E+03  0.22193632423E+03 -0.15628810210E+04  0.18413699803E+04  0.76738759197E+02 0.  0.
        254    2    1    2    0    0 -0.94493478565E+03 -0.22193632423E+03  0.78395086204E+03  0.15421129027E+04  0.90629783707E+03 0.  0.
         23    2    4    4    0    0 -0.57379351240E+03  0.28585045096E+03  0.59281807785E+03  0.87797570454E+03  0.91970588558E+02 0.  0.
         23    2    4    4    0    0 -0.37114127325E+03 -0.50778677519E+03  0.19113278419E+03  0.66413719817E+03  0.94621472336E+02 0.  0.
          2    1    3    3  502    0  0.43906920747E+02  0.49158654512E+01 -0.46114578706E+02  0.63863430787E+02  0.00000000000E+00 0. -1.
         -1    1    3    3    0  502  0.90102786490E+03  0.21702045878E+03 -0.15167664423E+04  0.17775065495E+04  0.00000000000E+00 0.  1.
         11    1    5    5    0    0 -0.45115226590E+02  0.13188786750E+02  0.16730191244E+02  0.49892154345E+02  0.00000000000E+00 0. -1.
        -11    1    5    5    0    0 -0.52867828581E+03  0.27266166421E+03  0.57608788661E+03  0.82808355020E+03  0.00000000000E+00 0.  1.
          2    1    6    6  503    0  0.47768122192E+01 -0.83516831980E+00  0.62440121360E+00  0.48893064922E+01  0.00000000000E+00 0. -1.
         -2    1    6    6    0  503 -0.37591808547E+03 -0.50695160687E+03  0.19050838297E+03  0.65924789167E+03  0.00000000000E+00 0.  1.
<mgrwt>
<rscale>  0 0.32926014E+04</rscale>
<asrwt>0</asrwt>
<pdfrwt beam="1">  1        2 0.20035021E+00 0.32926014E+04</pdfrwt>
<pdfrwt beam="2">  1       -1 0.32018562E+00 0.32926014E+04</pdfrwt>
<totfact> 0.38278758E-01</totfact>
</mgrwt>
</event>
<event>
12    6  0.1457317E-007  0.2257316E+04  0.7818608E-02  0.8494943E-01
          2   -1    0    0  501    0  0.00000000000E+00  0.00000000000E+00  0.19634021091E+04  0.19634021091E+04  0.00000000000E+00 0. -1.
         -1   -1    0    0    0  501 -0.00000000000E+00 -0.00000000000E+00 -0.64880708548E+03  0.64880708548E+03  0.00000000000E+00 0.  1.
         24    2    1    2    0    0 -0.63607662043E+03  0.46067166534E+03 -0.60411893394E+02  0.79526974713E+03  0.10951038095E+03 0.  0.
        254    2    1    2    0    0  0.63607662043E+03 -0.46067166534E+03  0.13750069170E+04  0.18169394474E+04  0.89096188669E+03 0.  0.
         23    2    4    4    0    0  0.18563095430E+03 -0.28465029220E+03 -0.52435565673E+01  0.35151324397E+03  0.89718592017E+02 0.  0.
         23    2    4    4    0    0  0.45044566613E+03 -0.17602137314E+03  0.13802504736E+04  0.14654262035E+04  0.92183328686E+02 0.  0.
          4    1    3    3  502    0 -0.29211908826E+03  0.20136460166E+03 -0.81369583110E+02  0.36400861746E+03  0.00000000000E+00 0. -1.
         -3    1    3    3    0  502 -0.34395753217E+03  0.25930706368E+03  0.20957689716E+02  0.43126112967E+03  0.00000000000E+00 0.  1.
         11    1    5    5    0    0  0.80521087224E+02 -0.19565339185E+03 -0.22247423832E+02  0.21274125857E+03  0.00000000000E+00 0. -1.
        -11    1    5    5    0    0  0.10510986708E+03 -0.88996900348E+02  0.17003867265E+02  0.13877198539E+03  0.00000000000E+00 0.  1.
          3    1    6    6  503    0  0.12484435038E+03 -0.47971608347E+02  0.26926809957E+03  0.30065378174E+03  0.00000000000E+00 0. -1.
         -3    1    6    6    0  503  0.32560131575E+03 -0.12804976479E+03  0.11109823740E+04  0.11647724217E+04  0.00000000000E+00 0.  1.
<mgrwt>
<rscale>  0 0.22573163E+04</rscale>
<asrwt>0</asrwt>
<pdfrwt beam="1">  1        2 0.30206186E+00 0.22573163E+04</pdfrwt>
<pdfrwt beam="2">  1       -1 0.99816476E-01 0.22573163E+04</pdfrwt>
<totfact> 0.69394034E+00</totfact>
</mgrwt>
</event>
<event>
12    6  0.1457317E-007  0.1982348E+04  0.7818608E-02  0.8614918E-01
          2   -1    0    0  501    0  0.00000000000E+00  0.00000000000E+00  0.87012286670E+03  0.87012286670E+03  0.00000000000E+00 0. -1.
         -1   -1    0    0    0  501 -0.00000000000E+00 -0.00000000000E+00 -0.11290661149E+04  0.11290661149E+04  0.00000000000E+00 0.  1.
         24    2    1    2    0    0  0.71111265898E+03  0.11375677793E+03 -0.41844112190E+03  0.83675649562E+03  0.80290984454E+02 0.  0.
        254    2    1    2    0    0 -0.71111265898E+03 -0.11375677793E+03  0.15949787371E+03  0.11624324860E+04  0.89843636081E+03 0.  0.
         23    2    4    4    0    0 -0.56867233674E+03  0.33883257064E+03  0.10938179852E+03  0.67686488328E+03  0.89364169940E+02 0.  0.
         23    2    4    4    0    0 -0.14244032224E+03 -0.45258934858E+03  0.50116075185E+02  0.48556760269E+03  0.90210376037E+02 0.  0.
          4    1    3    3  502    0  0.41070939564E+03  0.45994520446E+02 -0.19950664824E+03  0.45891241677E+03  0.00000000000E+00 0. -1.
         -3    1    3    3    0  502  0.30040326334E+03  0.67762257488E+02 -0.21893447365E+03  0.37784407884E+03  0.00000000000E+00 0.  1.
         11    1    5    5    0    0 -0.30518371921E+03  0.17950226454E+03  0.13311810620E+02  0.35430970880E+03  0.00000000000E+00 0.  1.
        -11    1    5    5    0    0 -0.26348861752E+03  0.15933030611E+03  0.96069987902E+02  0.32255517448E+03  0.00000000000E+00 0. -1.
          3    1    6    6  503    0 -0.49131051607E+02 -0.29759088178E+03  0.21309764258E+02  0.30237112825E+03  0.00000000000E+00 0. -1.
         -3    1    6    6    0  503 -0.93309270633E+02 -0.15499846680E+03  0.28806310927E+02  0.18319647443E+03  0.00000000000E+00 0.  1.
<mgrwt>
<rscale>  0 0.19823483E+04</rscale>
<asrwt>0</asrwt>
<pdfrwt beam="1">  1        2 0.13386506E+00 0.19823483E+04</pdfrwt>
<pdfrwt beam="2">  1       -1 0.17370248E+00 0.19823483E+04</pdfrwt>
<totfact> 0.75425156E+00</totfact>
</mgrwt>
</event>
<event>
12    6  0.1457317E-007  0.1280367E+04  0.7818608E-02  0.9045281E-01
          2   -1    0    0  501    0  0.00000000000E+00  0.00000000000E+00  0.81717939730E+03  0.81717939730E+03  0.00000000000E+00 0. -1.
         -1   -1    0    0    0  501 -0.00000000000E+00 -0.00000000000E+00 -0.50152407050E+03  0.50152407050E+03  0.00000000000E+00 0.  1.
         24    2    1    2    0    0  0.10098721851E+03 -0.25657810127E+03  0.25059284915E+03  0.38086362236E+03  0.78927703852E+02 0.  0.
        254    2    1    2    0    0 -0.10098721851E+03  0.25657810127E+03  0.65062477654E+02  0.93783984544E+03  0.89402444561E+03 0.  0.
         23    2    4    4    0    0  0.10824868836E+03  0.49394080768E+03 -0.16147655085E+03  0.53804964356E+03  0.87905872640E+02 0.  0.
         23    2    4    4    0    0 -0.20923590686E+03 -0.23736270640E+03  0.22653902851E+03  0.39979020188E+03  0.91605430901E+02 0.  0.
          2    1    3    3  502    0  0.10798911436E+03 -0.25790051259E+03  0.24281726062E+03  0.37031681743E+03  0.00000000000E+00 0. -1.
         -1    1    3    3    0  502 -0.70018958516E+01  0.13224113197E+01  0.77755885283E+01  0.10546804927E+02  0.00000000000E+00 0.  1.
         11    1    5    5    0    0  0.69565704280E+02  0.38052129945E+03 -0.85514594536E+02  0.39616737930E+03  0.00000000000E+00 0.  1.
        -11    1    5    5    0    0  0.38682984076E+02  0.11341950823E+03 -0.75961956319E+02  0.14188226426E+03  0.00000000000E+00 0. -1.
          1    1    6    6  503    0 -0.47474660153E+02 -0.13680609109E+02  0.13847017837E+02  0.51310255556E+02  0.00000000000E+00 0. -1.
         -1    1    6    6    0  503 -0.16176124671E+03 -0.22368209729E+03  0.21269201067E+03  0.34847994632E+03  0.00000000000E+00 0.  1.
<mgrwt>
<rscale>  0 0.12803673E+04</rscale>
<asrwt>0</asrwt>
<pdfrwt beam="1">  1        2 0.12571991E+00 0.12803673E+04</pdfrwt>
<pdfrwt beam="2">  1       -1 0.77157549E-01 0.12803673E+04</pdfrwt>
<totfact> 0.63210191E+01</totfact>
</mgrwt>
</event>
<event>
12    6  0.1457317E-007  0.2340494E+04  0.7818608E-02  0.8462124E-01
         -1   -1    0    0    0  501 -0.00000000000E+00  0.00000000000E+00  0.84460771386E+03  0.84460771386E+03  0.00000000000E+00 0.  1.
          2   -1    0    0  501    0  0.00000000000E+00 -0.00000000000E+00 -0.16214374056E+04  0.16214374056E+04  0.00000000000E+00 0. -1.
         24    2    1    2    0    0  0.83642548787E+02 -0.61051369063E+03 -0.11109884269E+04  0.12726531636E+04  0.75018316494E+02 0.  0.
        254    2    1    2    0    0 -0.83642548787E+02  0.61051369063E+03  0.33415873515E+03  0.11933919558E+04  0.96581533303E+03 0.  0.
         23    2    4    4    0    0 -0.44885526943E+02 -0.37781920403E+02 -0.27700965838E+03  0.29701669965E+03  0.89679345415E+02 0.  0.
         23    2    4    4    0    0 -0.38757021844E+02  0.64829561103E+03  0.61116839354E+03  0.89637525617E+03  0.90401817385E+02 0.  0.
          2    1    3    3  502    0  0.52686977008E+02 -0.23914371159E+03 -0.37830943197E+03  0.45064804299E+03  0.00000000000E+00 0. -1.
         -1    1    3    3    0  502  0.30955571780E+02 -0.37136997904E+03 -0.73267899494E+03  0.82200512065E+03  0.00000000000E+00 0.  1.
         11    1    5    5    0    0 -0.69660314740E+02 -0.15813522300E+02 -0.15633224785E+03  0.17187902331E+03  0.00000000000E+00 0. -1.
        -11    1    5    5    0    0  0.24774787797E+02 -0.21968398103E+02 -0.12067741053E+03  0.12513767633E+03  0.00000000000E+00 0.  1.
          1    1    6    6  503    0  0.21208946762E+02  0.84810020973E+02  0.61267893438E+02  0.10675351913E+03  0.00000000000E+00 0. -1.
         -1    1    6    6    0  503 -0.59965968606E+02  0.56348559006E+03  0.54990050010E+03  0.78962173704E+03  0.00000000000E+00 0.  1.
<mgrwt>
<rscale>  0 0.23404944E+04</rscale>
<asrwt>0</asrwt>
<pdfrwt beam="1">  1        2 0.24945191E+00 0.23404944E+04</pdfrwt>
<pdfrwt beam="2">  1       -1 0.12993965E+00 0.23404944E+04</pdfrwt>
<totfact> 0.56682120E+00</totfact>
</mgrwt>
</event>
<event>
12    6  0.1457317E-007  0.1200066E+04  0.7818608E-02  0.9112798E-01
          2   -1    0    0  501    0  0.00000000000E+00  0.00000000000E+00  0.12806188461E+04  0.12806188461E+04  0.00000000000E+00 0. -1.
         -1   -1    0    0    0  501 -0.00000000000E+00 -0.00000000000E+00 -0.28114520867E+03  0.28114520867E+03  0.00000000000E+00 0.  1.
         24    2    1    2    0    0  0.54501144750E+02  0.24045032905E+03  0.18520870467E+03  0.31963769181E+03  0.84138304124E+02 0.  0.
        254    2    1    2    0    0 -0.54501144750E+02 -0.24045032905E+03  0.81426493276E+03  0.12421263630E+04  0.90502142809E+03 0.  0.
         23    2    4    4    0    0  0.16820328601E+03 -0.51060569238E+03  0.32922623949E+03  0.63698315496E+03  0.91362489159E+02 0.  0.
         23    2    4    4    0    0 -0.22270443076E+03  0.27015536333E+03  0.48503869327E+03  0.60514320799E+03  0.91403415651E+02 0.  0.
          4    1    3    3  502    0 -0.11680927028E+02  0.71504486184E+00  0.65040214110E+01  0.13388713153E+02  0.00000000000E+00 0. -1.
         -3    1    3    3    0  502  0.66182071778E+02  0.23973528419E+03  0.17870468326E+03  0.30624897866E+03  0.00000000000E+00 0.  1.
         11    1    5    5    0    0  0.16523271285E+03 -0.38234121874E+03  0.24009418205E+03  0.48076176346E+03  0.00000000000E+00 0.  1.
        -11    1    5    5    0    0  0.29705731618E+01 -0.12826447364E+03  0.89132057438E+02  0.15622139151E+03  0.00000000000E+00 0. -1.
          1    1    6    6  503    0 -0.75806556501E+02  0.15756948340E+03  0.26677192157E+03  0.31897027173E+03  0.00000000000E+00 0. -1.
         -1    1    6    6    0  503 -0.14689787426E+03  0.11258587993E+03  0.21826677169E+03  0.28617293626E+03  0.00000000000E+00 0.  1.
<mgrwt>
<rscale>  0 0.12000664E+04</rscale>
<asrwt>0</asrwt>
<pdfrwt beam="1">  1        2 0.19701828E+00 0.12000664E+04</pdfrwt>
<pdfrwt beam="2">  1       -1 0.43253110E-01 0.12000664E+04</pdfrwt>
<totfact> 0.10057276E+02</totfact>
</mgrwt>
</event>
<event>
12    6  0.1457317E-007  0.1558864E+04  0.7818608E-02  0.8846226E-01
          2   -1    0    0  501    0  0.00000000000E+00  0.00000000000E+00  0.10934393824E+04  0.10934393824E+04  0.00000000000E+00 0. -1.
         -1   -1    0    0    0  501 -0.00000000000E+00 -0.00000000000E+00 -0.55559947744E+03  0.55559947744E+03  0.00000000000E+00 0.  1.
         24    2    1    2    0    0  0.22875619485E+03  0.15933969637E+03  0.61849571079E+03  0.68328052157E+03  0.81343662130E+02 0.  0.
        254    2    1    2    0    0 -0.22875619485E+03 -0.15933969637E+03 -0.80655805860E+02  0.96575833824E+03  0.92112174730E+03 0.  0.
         23    2    4    4    0    0 -0.56193102329E+03  0.13690398570E+02 -0.10492589389E+03  0.57880516521E+03  0.89733350055E+02 0.  0.
         23    2    4    4    0    0  0.33317482843E+03 -0.17303009494E+03  0.24270088031E+02  0.38695317304E+03  0.90547451056E+02 0.  0.
          2    1    3    3  502    0  0.11924414627E+03  0.83597145504E+02  0.41760139003E+03  0.44226527120E+03  0.00000000000E+00 0. -1.
         -1    1    3    3    0  502  0.10951204858E+03  0.75742550870E+02  0.20089432076E+03  0.24101525037E+03  0.00000000000E+00 0.  1.
         11    1    5    5    0    0 -0.55389356507E+03  0.63206638069E+01 -0.11287200577E+03  0.56531241089E+03  0.00000000000E+00 0.  1.
        -11    1    5    5    0    0 -0.80374582136E+01  0.73697347626E+01  0.79461118762E+01  0.13492754313E+02  0.00000000000E+00 0. -1.
          1    1    6    6  503    0  0.27409041014E+02 -0.38372888124E+02  0.23860144607E+02  0.52849224904E+02  0.00000000000E+00 0. -1.
         -1    1    6    6    0  503  0.30576578742E+03 -0.13465720682E+03  0.40994342444E+00  0.33410394813E+03  0.00000000000E+00 0.  1.
<mgrwt>
<rscale>  0 0.15588641E+04</rscale>
<asrwt>0</asrwt>
<pdfrwt beam="1">  1        2 0.16822144E+00 0.15588641E+04</pdfrwt>
<pdfrwt beam="2">  1       -1 0.85476843E-01 0.15588641E+04</pdfrwt>
<totfact> 0.32639873E+01</totfact>
</mgrwt>
</event>
<event>
12    6  0.1457317E-007  0.2336493E+04  0.7818608E-02  0.8463670E-01
         -1   -1    0    0    0  501 -0.00000000000E+00  0.00000000000E+00  0.17731482564E+04  0.17731482564E+04  0.00000000000E+00 0.  1.
          2   -1    0    0  501    0  0.00000000000E+00 -0.00000000000E+00 -0.76970404988E+03  0.76970404988E+03  0.00000000000E+00 0. -1.
         24    2    1    2    0    0  0.92840263887E+03 -0.35500780674E+03  0.36039771263E+03  0.10601530328E+04  0.77948309872E+02 0.  0.
        254    2    1    2    0    0 -0.92840263887E+03  0.35500780674E+03  0.64304649384E+03  0.14826992734E+04  0.89270730894E+03 0.  0.
         23    2    4    4    0    0 -0.78316758489E+01  0.39161194307E+03  0.12056480683E+03  0.41970540156E+03  0.90529013871E+02 0.  0.
         23    2    4    4    0    0 -0.92057096303E+03 -0.36604136333E+02  0.52248168701E+03  0.10629938719E+04  0.90432834618E+02 0.  0.
          2    1    3    3  502    0  0.66409438117E+03 -0.27449394484E+03  0.22894865565E+03  0.75417886458E+03  0.00000000000E+00 0. -1.
         -1    1    3    3    0  502  0.26430825770E+03 -0.80513861899E+02  0.13144905698E+03  0.30597416824E+03  0.00000000000E+00 0.  1.
         11    1    5    5    0    0 -0.40163912484E+02  0.27556141759E+03  0.59982368559E+02  0.28485982389E+03  0.00000000000E+00 0.  1.
        -11    1    5    5    0    0  0.32332236635E+02  0.11605052548E+03  0.60582438270E+02  0.13484557767E+03  0.00000000000E+00 0. -1.
          4    1    6    6  503    0 -0.17342419095E+03  0.27281749854E+02  0.10976139496E+03  0.20704542426E+03  0.00000000000E+00 0. -1.
         -4    1    6    6    0  503 -0.74714677207E+03 -0.63885886187E+02  0.41272029205E+03  0.85594844760E+03  0.00000000000E+00 0.  1.
<mgrwt>
<rscale>  0 0.23364926E+04</rscale>
<asrwt>0</asrwt>
<pdfrwt beam="1">  1        2 0.11841601E+00 0.23364926E+04</pdfrwt>
<pdfrwt beam="2">  1       -1 0.27279204E+00 0.23364926E+04</pdfrwt>
<totfact> 0.18527687E+00</totfact>
</mgrwt>
</event>
<event>
12    6  0.1457317E-007  0.1224179E+04  0.7818608E-02  0.9091952E-01
          2   -1    0    0  501    0  0.00000000000E+00  0.00000000000E+00  0.12013491569E+04  0.12013491569E+04  0.00000000000E+00 0. -1.
         -1   -1    0    0    0  501 -0.00000000000E+00 -0.00000000000E+00 -0.31186053111E+03  0.31186053111E+03  0.00000000000E+00 0.  1.
         24    2    1    2    0    0 -0.14009117787E+03  0.98837458677E+02  0.48450932427E+03  0.51950620631E+03  0.75782793097E+02 0.  0.
        254    2    1    2    0    0  0.14009117787E+03 -0.98837458677E+02  0.40497930148E+03  0.99370348167E+03  0.89109146192E+03 0.  0.
         23    2    4    4    0    0  0.33132728008E+03 -0.25797529102E+03  0.54703904510E+03  0.69554682734E+03  0.90579549840E+02 0.  0.
         23    2    4    4    0    0 -0.19123610221E+03  0.15913783235E+03 -0.14205974362E+03  0.29815665434E+03  0.82585248666E+02 0.  0.
          2    1    3    3  502    0 -0.91704034991E+02  0.10210072241E+03  0.32501191372E+03  0.35279871259E+03  0.00000000000E+00 0. -1.
         -1    1    3    3    0  502 -0.48387142880E+02 -0.32632637311E+01  0.15949741056E+03  0.16670749371E+03  0.00000000000E+00 0.  1.
         11    1    5    5    0    0  0.29710838898E+02  0.10334376638E+01  0.59034983256E+02  0.66097890961E+02  0.00000000000E+00 0. -1.
        -11    1    5    5    0    0  0.30161644118E+03 -0.25900872869E+03  0.48800406184E+03  0.62944893637E+03  0.00000000000E+00 0.  1.
          1    1    6    6  503    0  0.22985784643E+01  0.28331854766E+02 -0.12656809413E+02  0.31115466925E+02  0.00000000000E+00 0. -1.
         -1    1    6    6    0  503 -0.19353468067E+03  0.13080597758E+03 -0.12940293420E+03  0.26704118741E+03  0.00000000000E+00 0.  1.
<mgrwt>
<rscale>  0 0.12241787E+04</rscale>
<asrwt>0</asrwt>
<pdfrwt beam="1">  1        2 0.18482295E+00 0.12241787E+04</pdfrwt>
<pdfrwt beam="2">  1       -1 0.47978544E-01 0.12241787E+04</pdfrwt>
<totfact> 0.92147420E+01</totfact>
</mgrwt>
</event>
<event>
12    6  0.1457317E-007  0.1294374E+04  0.7818608E-02  0.9034038E-01
          2   -1    0    0  501    0  0.00000000000E+00  0.00000000000E+00  0.19053706052E+03  0.19053706052E+03  0.00000000000E+00 0. -1.
         -1   -1    0    0    0  501 -0.00000000000E+00 -0.00000000000E+00 -0.21982661021E+04  0.21982661021E+04  0.00000000000E+00 0.  1.
         24    2    1    2    0    0  0.20599617740E+03  0.46684219568E+02 -0.64984244441E+02  0.23704570927E+03  0.85754736302E+02 0.  0.
        254    2    1    2    0    0 -0.20599617740E+03 -0.46684219568E+02 -0.19427447972E+04  0.21517574534E+04  0.90066028547E+03 0.  0.
         23    2    4    4    0    0  0.13912181367E+03 -0.30973178297E+03 -0.14368238621E+04  0.14791575782E+04  0.90308769584E+02 0.  0.
         23    2    4    4    0    0 -0.34511799107E+03  0.26304756340E+03 -0.50592093508E+03  0.67259987525E+03  0.90189529655E+02 0.  0.
          2    1    3    3  502    0  0.16570952345E+03  0.13321282212E+02 -0.18867137454E+02  0.16731130146E+03  0.00000000000E+00 0. -1.
         -3    1    3    3    0  502  0.40286653951E+02  0.33362937356E+02 -0.46117106986E+02  0.69734407808E+02  0.00000000000E+00 0.  1.
         11    1    5    5    0    0  0.37589393894E+02 -0.25217913557E+02 -0.12336329774E+03  0.13140551330E+03  0.00000000000E+00 0.  1.
        -11    1    5    5    0    0  0.10153241978E+03 -0.28451386941E+03 -0.13134605644E+04  0.13477520648E+04  0.00000000000E+00 0. -1.
          2    1    6    6  503    0 -0.24760747209E+02  0.41805729572E+02 -0.93942803838E+02  0.10576419063E+03  0.00000000000E+00 0.  1.
         -2    1    6    6    0  503 -0.32035724386E+03  0.22124183383E+03 -0.41197813124E+03  0.56683568461E+03  0.00000000000E+00 0. -1.
<mgrwt>
<rscale>  0 0.12943742E+04</rscale>
<asrwt>0</asrwt>
<pdfrwt beam="1">  1        2 0.29313393E-01 0.12943742E+04</pdfrwt>
<pdfrwt beam="2">  1       -1 0.33819479E+00 0.12943742E+04</pdfrwt>
<totfact> 0.38548426E+00</totfact>
</mgrwt>
</event>
<event>
12    6  0.1457317E-007  0.1636207E+04  0.7818608E-02  0.8798608E-01
          2   -1    0    0  501    0  0.00000000000E+00  0.00000000000E+00  0.11222084525E+04  0.11222084525E+04  0.00000000000E+00 0. -1.
         -1   -1    0    0    0  501 -0.00000000000E+00 -0.00000000000E+00 -0.59640763854E+03  0.59640763854E+03  0.00000000000E+00 0.  1.
         24    2    1    2    0    0  0.28430297832E+03  0.46648696201E+03  0.34083384715E+03  0.64906863570E+03  0.81756426516E+02 0.  0.
        254    2    1    2    0    0 -0.28430297832E+03 -0.46648696201E+03  0.18496696681E+03  0.10695474554E+04  0.90071122522E+03 0.  0.
         23    2    4    4    0    0  0.31138108874E+03 -0.73420369504E+02  0.74917146031E+02  0.34145277917E+03  0.92890734474E+02 0.  0.
         23    2    4    4    0    0 -0.59568406705E+03 -0.39306659250E+03  0.11004982078E+03  0.72809467618E+03  0.93113052524E+02 0.  0.
          2    1    3    3  502    0  0.27463596637E+03  0.45818450263E+03  0.34470447651E+03  0.63575083846E+03  0.00000000000E+00 0. -1.
         -1    1    3    3    0  502  0.96670119428E+01  0.83024593721E+01 -0.38706293559E+01  0.13317797233E+02  0.00000000000E+00 0.  1.
         11    1    5    5    0    0  0.30793693402E+03 -0.86199689937E+02  0.70096153386E+02  0.32736678604E+03  0.00000000000E+00 0.  1.
        -11    1    5    5    0    0  0.34441547150E+01  0.12779320433E+02  0.48209926449E+01  0.14085993132E+02  0.00000000000E+00 0. -1.
          1    1    6    6  503    0 -0.20406586129E+03 -0.83731790196E+02  0.28099385005E+02  0.22235886281E+03  0.00000000000E+00 0. -1.
         -1    1    6    6    0  503 -0.39161820577E+03 -0.30933480231E+03  0.81950435777E+02  0.50573581338E+03  0.00000000000E+00 0.  1.
<mgrwt>
<rscale>  0 0.16362074E+04</rscale>
<asrwt>0</asrwt>
<pdfrwt beam="1">  1        2 0.17264745E+00 0.16362074E+04</pdfrwt>
<pdfrwt beam="2">  1       -1 0.91755022E-01 0.16362074E+04</pdfrwt>
<totfact> 0.26651029E+01</totfact>
</mgrwt>
</event>
<event>
12    6  0.1457317E-007  0.1252457E+04  0.7818608E-02  0.9068141E-01
          2   -1    0    0  501    0  0.00000000000E+00  0.00000000000E+00  0.21929301213E+04  0.21929301213E+04  0.00000000000E+00 0. -1.
         -1   -1    0    0    0  501 -0.00000000000E+00 -0.00000000000E+00 -0.17883008637E+03  0.17883008637E+03  0.00000000000E+00 0.  1.
         24    2    1    2    0    0  0.15816433089E+02 -0.20145323711E+03  0.96991724708E+02  0.23831870215E+03  0.80961983895E+02 0.  0.
        254    2    1    2    0    0 -0.15816433089E+02  0.20145323711E+03  0.19171083102E+04  0.21334415055E+04  0.91402123502E+03 0.  0.
         23    2    4    4    0    0 -0.22653958035E+03 -0.23532226391E+03  0.12984266437E+04  0.13420549461E+04  0.92211603144E+02 0.  0.
         23    2    4    4    0    0  0.21072314726E+03  0.43677550102E+03  0.61868166648E+03  0.79138655944E+03  0.91370667873E+02 0.  0.
          4    1    3    3  502    0 -0.27524376772E+02 -0.40891854705E+02  0.36562243548E+02  0.61372084462E+02  0.00000000000E+00 0. -1.
         -3    1    3    3    0  502  0.43340809861E+02 -0.16056138240E+03  0.60429481159E+02  0.17694661769E+03  0.00000000000E+00 0.  1.
         11    1    5    5    0    0 -0.13044213733E+03 -0.14501016005E+03  0.94280483247E+03  0.96276894935E+03  0.00000000000E+00 0. -1.
        -11    1    5    5    0    0 -0.96097443021E+02 -0.90312103861E+02  0.35562181126E+03  0.37928599672E+03  0.00000000000E+00 0.  1.
          2    1    6    6  503    0  0.12511611816E+03  0.31528984737E+03  0.37233237546E+03  0.50367958932E+03  0.00000000000E+00 0. -1.
         -2    1    6    6    0  503  0.85607029097E+02  0.12148565365E+03  0.24634929102E+03  0.28770697013E+03  0.00000000000E+00 0.  1.
<mgrwt>
<rscale>  0 0.12524566E+04</rscale>
<asrwt>0</asrwt>
<pdfrwt beam="1">  1        2 0.33737385E+00 0.12524566E+04</pdfrwt>
<pdfrwt beam="2">  1       -1 0.27512323E-01 0.12524566E+04</pdfrwt>
<totfact> 0.69460106E+01</totfact>
</mgrwt>
</event>
<event>
12    6  0.2625776E-007  0.2086170E+04  0.7818608E-02  0.8567360E-01
         -1   -1    0    0    0  501 -0.00000000000E+00  0.00000000000E+00  0.49550079575E+03  0.49550079575E+03  0.00000000000E+00 0.  1.
          2   -1    0    0  501    0  0.00000000000E+00 -0.00000000000E+00 -0.21958121475E+04  0.21958121475E+04  0.00000000000E+00 0. -1.
         24    2    1    2    0    0 -0.24360928797E+03 -0.51553692997E+03  0.11247806298E+03  0.58670888747E+03  0.80325541647E+02 0.  0.
        254    2    1    2    0    0  0.24360928797E+03  0.51553692997E+03 -0.18127894148E+04  0.21046040558E+04  0.90444953318E+03 0.  0.
         23    2    4    4    0    0  0.48447547914E+03  0.59675771177E+03 -0.11242158878E+04  0.13648060532E+04  0.89431225269E+02 0.  0.
         23    2    4    4    0    0 -0.24086619117E+03 -0.81220781804E+02 -0.68857352692E+03  0.73979800255E+03  0.92489162395E+02 0.  0.
          4    1    3    3  502    0 -0.35978417759E+01 -0.20541991957E+02  0.19963736086E+02  0.28869857248E+02  0.00000000000E+00 0. -1.
         -3    1    3    3    0  502 -0.24001144620E+03 -0.49499493801E+03  0.92514326895E+02  0.55783903023E+03  0.00000000000E+00 0.  1.
         11    1    5    5    0    0  0.37938877377E+02  0.37190791755E+02 -0.12292780822E+03  0.13391698713E+03  0.00000000000E+00 0. -1.
        -11    1    5    5    0    0  0.44653660177E+03  0.55956692002E+03 -0.10012880796E+04  0.12308890661E+04  0.00000000000E+00 0.  1.
          3    1    6    6  503    0 -0.63229707781E+02  0.80126886098E+01 -0.10022842248E+03  0.11877683191E+03  0.00000000000E+00 0. -1.
         -3    1    6    6    0  503 -0.17763648339E+03 -0.89233470414E+02 -0.58834510444E+03  0.62102117064E+03  0.00000000000E+00 0.  1.
<mgrwt>
<rscale>  0 0.20861703E+04</rscale>
<asrwt>0</asrwt>
<pdfrwt beam="1">  1        2 0.33781725E+00 0.20861703E+04</pdfrwt>
<pdfrwt beam="2">  1       -1 0.76230892E-01 0.20861703E+04</pdfrwt>
<totfact> 0.94206147E+00</totfact>
</mgrwt>
</event>
<event>
12    6  0.1457317E-007  0.3883246E+04  0.7818608E-02  0.8028523E-01
          2   -1    0    0  501    0  0.00000000000E+00  0.00000000000E+00  0.43945025468E+04  0.43945025468E+04  0.00000000000E+00 0. -1.
         -1   -1    0    0    0  501 -0.00000000000E+00 -0.00000000000E+00 -0.85786734943E+03  0.85786734943E+03  0.00000000000E+00 0.  1.
         24    2    1    2    0    0  0.69466820813E+03  0.85139902503E+03 -0.31947875775E+03  0.11471806723E+04  0.80700675032E+02 0.  0.
        254    2    1    2    0    0 -0.69466820813E+03 -0.85139902503E+03  0.38561139551E+04  0.41051892239E+04  0.88063585584E+03 0.  0.
         23    2    4    4    0    0 -0.77615725822E+03 -0.94742790810E+03  0.36177843588E+04  0.38205738632E+04  0.91549151822E+02 0.  0.
         23    2    4    4    0    0  0.81489050087E+02  0.96028883074E+02  0.23832959631E+03  0.28461536072E+03  0.91339451574E+02 0.  0.
          2    1    3    3  502    0  0.20930466276E+03  0.31711677596E+03 -0.10825242518E+03  0.39508236989E+03  0.00000000000E+00 0. -1.
         -1    1    3    3    0  502  0.48536354537E+03  0.53428224907E+03 -0.21122633257E+03  0.75209830237E+03  0.00000000000E+00 0.  1.
         11    1    5    5    0    0 -0.40011680534E+03 -0.45065583730E+03  0.16575331837E+04  0.17636894275E+04  0.00000000000E+00 0.  1.
        -11    1    5    5    0    0 -0.37604045288E+03 -0.49677207080E+03  0.19602511751E+04  0.20568844357E+04  0.00000000000E+00 0. -1.
          1    1    6    6  503    0  0.53746954112E+02  0.77191826800E+02  0.82172683136E+02  0.12489861110E+03  0.00000000000E+00 0. -1.
         -1    1    6    6    0  503  0.27742095975E+02  0.18837056274E+02  0.15615691317E+03  0.15971674962E+03  0.00000000000E+00 0.  1.
<mgrwt>
<rscale>  0 0.38832462E+04</rscale>
<asrwt>0</asrwt>
<pdfrwt beam="1">  1        2 0.67607730E+00 0.38832462E+04</pdfrwt>
<pdfrwt beam="2">  1       -1 0.13197959E+00 0.38832462E+04</pdfrwt>
<totfact> 0.68063777E-02</totfact>
</mgrwt>
</event>
<event>
12    6  0.1457317E-007  0.2541396E+04  0.7818608E-02  0.8388385E-01
          2   -1    0    0  501    0  0.00000000000E+00  0.00000000000E+00  0.14473565005E+04  0.14473565005E+04  0.00000000000E+00 0. -1.
         -1   -1    0    0    0  501 -0.00000000000E+00 -0.00000000000E+00 -0.11156016834E+04  0.11156016834E+04  0.00000000000E+00 0.  1.
         24    2    1    2    0    0  0.31625253925E+03 -0.62322587836E+03  0.10029607624E+04  0.12254715723E+04  0.86163329907E+02 0.  0.
        254    2    1    2    0    0 -0.31625253925E+03  0.62322587836E+03 -0.67120594533E+03  0.13374866117E+04  0.92191477450E+03 0.  0.
         23    2    4    4    0    0 -0.22198890170E+03  0.83654807516E+03 -0.63925610089E+03  0.10806276283E+04  0.10007973823E+03 0.  0.
         23    2    4    4    0    0 -0.94263637548E+02 -0.21332219680E+03 -0.31949844435E+02  0.25685898341E+03  0.10278011377E+03 0.  0.
          4    1    3    3  502    0  0.21953375287E+03 -0.41215016999E+03  0.59868199614E+03  0.75926475210E+03  0.00000000000E+00 0. -1.
         -3    1    3    3    0  502  0.96718786383E+02 -0.21107570837E+03  0.40427876627E+03  0.46620682016E+03  0.00000000000E+00 0.  1.
         11    1    5    5    0    0 -0.20602390779E+03  0.76384988207E+03 -0.61589787905E+03  0.10026179184E+04  0.00000000000E+00 0. -1.
        -11    1    5    5    0    0 -0.15964993913E+02  0.72698193091E+02 -0.23358221841E+02  0.78009709889E+02  0.00000000000E+00 0.  1.
          2    1    6    6  503    0 -0.66045469489E+02 -0.20673499720E+03 -0.50008563394E+02  0.22271555743E+03  0.00000000000E+00 0. -1.
         -2    1    6    6    0  503 -0.28218168059E+02 -0.65871995965E+01  0.18058718959E+02  0.34143425979E+02  0.00000000000E+00 0.  1.
<mgrwt>
<rscale>  0 0.25413960E+04</rscale>
<asrwt>0</asrwt>
<pdfrwt beam="1">  1        2 0.22267023E+00 0.25413960E+04</pdfrwt>
<pdfrwt beam="2">  1       -1 0.17163103E+00 0.25413960E+04</pdfrwt>
<totfact> 0.32954904E+00</totfact>
</mgrwt>
</event>
<event>
12    6  0.1457317E-007  0.1435554E+04  0.7818608E-02  0.8928478E-01
          2   -1    0    0  501    0  0.00000000000E+00  0.00000000000E+00  0.28852489333E+04  0.28852489333E+04  0.00000000000E+00 0. -1.
         -1   -1    0    0    0  501 -0.00000000000E+00 -0.00000000000E+00 -0.17856468511E+03  0.17856468511E+03  0.00000000000E+00 0.  1.
         24    2    1    2    0    0  0.37304299364E+03  0.17461368385E+03  0.10817443790E+04  0.11603079128E+04  0.80576282245E+02 0.  0.
        254    2    1    2    0    0 -0.37304299364E+03 -0.17461368385E+03  0.16249398692E+04  0.19035057056E+04  0.90180562164E+03 0.  0.
         23    2    4    4    0    0 -0.26335754521E+03 -0.53335579894E+03  0.90507043773E+03  0.10863243741E+04  0.84395163521E+02 0.  0.
         23    2    4    4    0    0 -0.10968544843E+03  0.35874211509E+03  0.71986943146E+03  0.81718133154E+03  0.94055980821E+02 0.  0.
          4    1    3    3  502    0  0.10876367808E+03  0.65218464889E+02  0.43563244076E+03  0.45371644149E+03  0.00000000000E+00 0. -1.
         -3    1    3    3    0  502  0.26427931556E+03  0.10939521896E+03  0.64611193826E+03  0.70659147131E+03  0.00000000000E+00 0.  1.
         11    1    5    5    0    0 -0.37452318732E+02 -0.16065068682E+03  0.24610732735E+03  0.29627712690E+03  0.00000000000E+00 0. -1.
        -11    1    5    5    0    0 -0.22590522648E+03 -0.37270511213E+03  0.65896311038E+03  0.79004724719E+03  0.00000000000E+00 0.  1.
          3    1    6    6  503    0 -0.11108288976E+03  0.20712085375E+03  0.44617968084E+03  0.50429630580E+03  0.00000000000E+00 0. -1.
         -3    1    6    6    0  503  0.13974413341E+01  0.15162126134E+03  0.27368975062E+03  0.31288502574E+03  0.00000000000E+00 0.  1.
<mgrwt>
<rscale>  0 0.14355536E+04</rscale>
<asrwt>0</asrwt>
<pdfrwt beam="1">  1        2 0.44388442E+00 0.14355536E+04</pdfrwt>
<pdfrwt beam="2">  1       -1 0.27471492E-01 0.14355536E+04</pdfrwt>
<totfact> 0.27185766E+01</totfact>
</mgrwt>
</event>
<event>
12    6  0.1457317E-007  0.2215749E+04  0.7818608E-02  0.8511902E-01
         -1   -1    0    0    0  501 -0.00000000000E+00  0.00000000000E+00  0.21082757887E+04  0.21082757887E+04  0.00000000000E+00 0.  1.
          2   -1    0    0  501    0  0.00000000000E+00 -0.00000000000E+00 -0.58217509359E+03  0.58217509359E+03  0.00000000000E+00 0. -1.
         24    2    1    2    0    0  0.52735299707E+03 -0.75671413283E+03  0.69595876318E+03  0.11581949090E+04  0.79620254154E+02 0.  0.
        254    2    1    2    0    0 -0.52735299707E+03  0.75671413283E+03  0.83014193194E+03  0.15322559733E+04  0.89886332562E+03 0.  0.
         23    2    4    4    0    0 -0.69790998785E+03  0.78838545718E+03  0.55297936394E+03  0.11929997786E+04  0.93980395018E+02 0.  0.
         23    2    4    4    0    0  0.17055699077E+03 -0.31671324351E+02  0.27716256800E+03  0.33925619464E+03  0.90459475005E+02 0.  0.
          4    1    3    3  502    0  0.50896507420E+03 -0.71390696393E+03  0.64067210604E+03  0.10858956429E+04  0.00000000000E+00 0. -1.
         -3    1    3    3    0  502  0.18387922878E+02 -0.42807168908E+02  0.55286657146E+02  0.72299266083E+02  0.00000000000E+00 0.  1.
         11    1    5    5    0    0 -0.58025629739E+03  0.61289655554E+03  0.41366860500E+03  0.93992620626E+03  0.00000000000E+00 0.  1.
        -11    1    5    5    0    0 -0.11765369046E+03  0.17548890165E+03  0.13931075894E+03  0.25307357238E+03  0.00000000000E+00 0. -1.
          2    1    6    6  503    0  0.96131351297E+01  0.37540836291E+01 -0.57737910199E+01  0.11825488305E+02  0.00000000000E+00 0. -1.
         -2    1    6    6    0  503  0.16094385564E+03 -0.35425407980E+02  0.28293635902E+03  0.32743070634E+03  0.00000000000E+00 0.  1.
<mgrwt>
<rscale>  0 0.22157488E+04</rscale>
<asrwt>0</asrwt>
<pdfrwt beam="1">  1        2 0.89565400E-01 0.22157488E+04</pdfrwt>
<pdfrwt beam="2">  1       -1 0.32435012E+00 0.22157488E+04</pdfrwt>
<totfact> 0.12295402E+00</totfact>
</mgrwt>
</event>
<event>
12    6  0.1457317E-007  0.1380902E+04  0.7818608E-02  0.8967760E-01
          2   -1    0    0  501    0  0.00000000000E+00  0.00000000000E+00  0.73604205050E+03  0.73604205050E+03  0.00000000000E+00 0. -1.
         -1   -1    0    0    0  501 -0.00000000000E+00 -0.00000000000E+00 -0.64768420887E+03  0.64768420887E+03  0.00000000000E+00 0.  1.
         24    2    1    2    0    0  0.25603454062E+03  0.22810841635E+03  0.19492877745E+03  0.40260712846E+03  0.80673019109E+02 0.  0.
        254    2    1    2    0    0 -0.25603454062E+03 -0.22810841635E+03 -0.10657093581E+03  0.98111913091E+03  0.91304449458E+03 0.  0.
         23    2    4    4    0    0 -0.45737082502E+03 -0.38140387201E+03  0.13746900936E+03  0.61802198870E+03  0.91632225881E+02 0.  0.
         23    2    4    4    0    0  0.20133628440E+03  0.15329545566E+03 -0.24403994517E+03  0.36309714221E+03  0.90819842006E+02 0.  0.
          2    1    3    3  502    0  0.15696087713E+03  0.12458293466E+03  0.15646193486E+03  0.25423996857E+03  0.00000000000E+00 0. -1.
         -1    1    3    3    0  502  0.99073663489E+02  0.10352548169E+03  0.38466842588E+02  0.14836715989E+03  0.00000000000E+00 0.  1.
         11    1    5    5    0    0 -0.44357213163E+03 -0.38588287413E+03  0.13587933475E+03  0.60342772734E+03  0.00000000000E+00 0.  1.
        -11    1    5    5    0    0 -0.13798693391E+02  0.44790021254E+01  0.15896746051E+01  0.14594261362E+02  0.00000000000E+00 0. -1.
          3    1    6    6  503    0  0.10541755347E+03  0.24444548264E+02 -0.99714457850E+02  0.14715083970E+03  0.00000000000E+00 0. -1.
         -3    1    6    6    0  503  0.95918730933E+02  0.12885090739E+03 -0.14432548732E+03  0.21594630251E+03  0.00000000000E+00 0.  1.
<mgrwt>
<rscale>  0 0.13809023E+04</rscale>
<asrwt>0</asrwt>
<pdfrwt beam="1">  1        2 0.11323724E+00 0.13809023E+04</pdfrwt>
<pdfrwt beam="2">  1       -1 0.99643724E-01 0.13809023E+04</pdfrwt>
<totfact> 0.41116034E+01</totfact>
</mgrwt>
</event>
<event>
12    6  0.1457317E-007  0.1621043E+04  0.7818608E-02  0.8807724E-01
         -1   -1    0    0    0  501 -0.00000000000E+00  0.00000000000E+00  0.22218433556E+03  0.22218433556E+03  0.00000000000E+00 0.  1.
          2   -1    0    0  501    0  0.00000000000E+00 -0.00000000000E+00 -0.29567565749E+04  0.29567565749E+04  0.00000000000E+00 0. -1.
         24    2    1    2    0    0  0.40209217178E+03  0.37307407396E+03 -0.11730665087E+04  0.12973889970E+04  0.79188361030E+02 0.  0.
        254    2    1    2    0    0 -0.40209217178E+03 -0.37307407396E+03 -0.15615057306E+04  0.18815519134E+04  0.89502797543E+03 0.  0.
         23    2    4    4    0    0  0.21308789949E+02 -0.55664336675E+03 -0.69635178086E+03  0.89652920431E+03  0.92481939800E+02 0.  0.
         23    2    4    4    0    0 -0.42340096173E+03  0.18356929279E+03 -0.86515394972E+03  0.98502270906E+03  0.93873963391E+02 0.  0.
          2    1    3    3  502    0  0.74056954568E+02  0.90178941937E+02 -0.32068101236E+03  0.34125208538E+03  0.00000000000E+00 0. -1.
         -1    1    3    3    0  502  0.32803521721E+03  0.28289513202E+03 -0.85238549635E+03  0.95613691166E+03  0.00000000000E+00 0.  1.
         11    1    5    5    0    0  0.29133540238E+02 -0.56159234894E+02 -0.63278860846E+02  0.89480931268E+02  0.00000000000E+00 0.  1.
        -11    1    5    5    0    0 -0.78247502882E+01 -0.50048413186E+03 -0.63307292002E+03  0.80704827304E+03  0.00000000000E+00 0. -1.
          3    1    6    6  503    0 -0.35378119726E+03  0.17767989801E+03 -0.78128696551E+03  0.87586563135E+03  0.00000000000E+00 0. -1.
         -3    1    6    6    0  503 -0.69619764469E+02  0.58893947797E+01 -0.83866984207E+02  0.10915707772E+03  0.00000000000E+00 0.  1.
<mgrwt>
<rscale>  0 0.16210429E+04</rscale>
<asrwt>0</asrwt>
<pdfrwt beam="1">  1        2 0.45488561E+00 0.16210429E+04</pdfrwt>
<pdfrwt beam="2">  1       -1 0.34182207E-01 0.16210429E+04</pdfrwt>
<totfact> 0.16440242E+01</totfact>
</mgrwt>
</event>
<event>
12    6  0.1457317E-007  0.3175165E+04  0.7818608E-02  0.8195407E-01
         -1   -1    0    0    0  501 -0.00000000000E+00  0.00000000000E+00  0.92032433338E+03  0.92032433338E+03  0.00000000000E+00 0.  1.
          2   -1    0    0  501    0  0.00000000000E+00 -0.00000000000E+00 -0.27386200049E+04  0.27386200049E+04  0.00000000000E+00 0. -1.
         24    2    1    2    0    0  0.49687824821E+03 -0.11203282794E+04 -0.17423932506E+04  0.21318279736E+04  0.82053775291E+02 0.  0.
        254    2    1    2    0    0 -0.49687824821E+03  0.11203282794E+04 -0.75902420905E+02  0.15271163647E+04  0.90790955861E+03 0.  0.
         23    2    4    4    0    0 -0.49825983933E+03  0.55877364492E+03 -0.41866649212E+03  0.86351652554E+03  0.99439954295E+02 0.  0.
         23    2    4    4    0    0  0.13815911196E+01  0.56155463448E+03  0.34276407122E+03  0.66359983915E+03  0.86787220794E+02 0.  0.
          2    1    3    3  502    0  0.33113195764E+03 -0.66296414512E+03 -0.10144076140E+04  0.12562613734E+04  0.00000000000E+00 0. -1.
         -1    1    3    3    0  502  0.16574629057E+03 -0.45736413428E+03 -0.72798563669E+03  0.87556660020E+03  0.00000000000E+00 0.  1.
         11    1    5    5    0    0 -0.21750421988E+03  0.19352578264E+03 -0.12258933799E+03  0.31589311483E+03  0.00000000000E+00 0.  1.
        -11    1    5    5    0    0 -0.28075561945E+03  0.36524786228E+03 -0.29607715413E+03  0.54762341070E+03  0.00000000000E+00 0. -1.
          1    1    6    6  503    0 -0.17518474889E+02  0.17130505245E+03  0.14789907664E+03  0.22699439382E+03  0.00000000000E+00 0. -1.
         -1    1    6    6    0  503  0.18900066008E+02  0.39024958204E+03  0.19486499458E+03  0.43660544533E+03  0.00000000000E+00 0.  1.
<mgrwt>
<rscale>  0 0.31751653E+04</rscale>
<asrwt>0</asrwt>
<pdfrwt beam="1">  1        2 0.42132615E+00 0.31751653E+04</pdfrwt>
<pdfrwt beam="2">  1       -1 0.14158836E+00 0.31751653E+04</pdfrwt>
<totfact> 0.98187976E-01</totfact>
</mgrwt>
</event>
<event>
12    6  0.1457317E-007  0.1673779E+04  0.7818608E-02  0.8776462E-01
          2   -1    0    0  501    0  0.00000000000E+00  0.00000000000E+00  0.83801118320E+03  0.83801118320E+03  0.00000000000E+00 0. -1.
         -1   -1    0    0    0  501 -0.00000000000E+00 -0.00000000000E+00 -0.83576903533E+03  0.83576903533E+03  0.00000000000E+00 0.  1.
         24    2    1    2    0    0  0.65977070022E+02  0.45853023204E+03 -0.38037250539E+03  0.60453268574E+03  0.78572118517E+02 0.  0.
        254    2    1    2    0    0 -0.65977070022E+02 -0.45853023204E+03  0.38261465326E+03  0.10692475328E+04  0.88447349650E+03 0.  0.
         23    2    4    4    0    0 -0.38416312927E+03 -0.51639624928E+03  0.33054809650E+03  0.72923692474E+03  0.90983801541E+02 0.  0.
         23    2    4    4    0    0  0.31818605925E+03  0.57866017233E+02  0.52066556760E+02  0.34001060805E+03  0.91134203239E+02 0.  0.
          4    1    3    3  502    0  0.30789623176E+02  0.24809718868E+03 -0.15481137219E+03  0.29405233698E+03  0.00000000000E+00 0. -1.
         -3    1    3    3    0  502  0.35187446847E+02  0.21043304336E+03 -0.22556113320E+03  0.31048034876E+03  0.00000000000E+00 0.  1.
         11    1    5    5    0    0 -0.36300371975E+03 -0.50472498280E+03  0.30004845219E+03  0.69032462108E+03  0.00000000000E+00 0.  1.
        -11    1    5    5    0    0 -0.21159409527E+02 -0.11671266474E+02  0.30499644309E+02  0.38912303653E+02  0.00000000000E+00 0. -1.
          4    1    6    6  503    0  0.17544482128E+03 -0.71275890706E+01  0.27943992629E+01  0.17561177781E+03  0.00000000000E+00 0.  1.
         -4    1    6    6    0  503  0.14274123798E+03  0.64993606303E+02  0.49272157498E+02  0.16439883024E+03  0.00000000000E+00 0. -1.
<mgrwt>
<rscale>  0 0.16737787E+04</rscale>
<asrwt>0</asrwt>
<pdfrwt beam="1">  1        2 0.12892480E+00 0.16737787E+04</pdfrwt>
<pdfrwt beam="2">  1       -1 0.12857985E+00 0.16737787E+04</pdfrwt>
<totfact> 0.18367109E+01</totfact>
</mgrwt>
</event>
<event>
12    6  0.1457317E-007  0.1237129E+04  0.7818608E-02  0.9080965E-01
          2   -1    0    0  501    0  0.00000000000E+00  0.00000000000E+00  0.11386295242E+04  0.11386295242E+04  0.00000000000E+00 0. -1.
         -1   -1    0    0    0  501 -0.00000000000E+00 -0.00000000000E+00 -0.33603715210E+03  0.33603715210E+03  0.00000000000E+00 0.  1.
         24    2    1    2    0    0  0.20975829952E+03 -0.19196463569E+03  0.16875848505E+03  0.33838779785E+03  0.71957695130E+02 0.  0.
        254    2    1    2    0    0 -0.20975829952E+03  0.19196463569E+03  0.63383388701E+03  0.11362788784E+04  0.89918592493E+03 0.  0.
         23    2    4    4    0    0 -0.55277509430E+03  0.12000103332E+03  0.30836340962E+03  0.65052242433E+03  0.90171388423E+02 0.  0.
         23    2    4    4    0    0  0.34301679478E+03  0.71963602373E+02  0.32547047739E+03  0.48575645406E+03  0.84788085456E+02 0.  0.
          2    1    3    3  502    0  0.12543043664E+02 -0.92997235497E+01  0.34592649427E+02  0.37953447760E+02  0.00000000000E+00 0. -1.
         -1    1    3    3    0  502  0.19721525586E+03 -0.18266491214E+03  0.13416583562E+03  0.30043435009E+03  0.00000000000E+00 0.  1.
         11    1    5    5    0    0 -0.22309675244E+03  0.82504696698E+02  0.95562841748E+02  0.25634243240E+03  0.00000000000E+00 0.  1.
        -11    1    5    5    0    0 -0.32967834186E+03  0.37496336619E+02  0.21280056787E+03  0.39417999193E+03  0.00000000000E+00 0. -1.
          1    1    6    6  503    0  0.23921916707E+03  0.82620714919E+02  0.20001730952E+03  0.32258164321E+03  0.00000000000E+00 0. -1.
         -1    1    6    6    0  503  0.10379762771E+03 -0.10657112546E+02  0.12545316787E+03  0.16317481085E+03  0.00000000000E+00 0.  1.
<mgrwt>
<rscale>  0 0.12371286E+04</rscale>
<asrwt>0</asrwt>
<pdfrwt beam="1">  1        2 0.17517377E+00 0.12371286E+04</pdfrwt>
<pdfrwt beam="2">  1       -1 0.51698024E-01 0.12371286E+04</pdfrwt>
<totfact> 0.87161944E+01</totfact>
</mgrwt>
</event>
<event>
12    6  0.1457317E-007  0.1455327E+04  0.7818608E-02  0.8914716E-01
         -3   -1    0    0    0  501 -0.00000000000E+00  0.00000000000E+00  0.57092599785E+03  0.57092599785E+03  0.00000000000E+00 0.  1.
          4   -1    0    0  501    0  0.00000000000E+00 -0.00000000000E+00 -0.92742995178E+03  0.92742995178E+03  0.00000000000E+00 0. -1.
         24    2    1    2    0    0 -0.21783895065E+03 -0.14697533673E+03  0.25306095816E+03  0.37311803570E+03  0.78241050535E+02 0.  0.
        254    2    1    2    0    0  0.21783895065E+03  0.14697533673E+03 -0.60956491210E+03  0.11252379139E+04  0.90858979901E+03 0.  0.
         23    2    4    4    0    0  0.11051488626E+03  0.26715596255E+03 -0.80262801544E+03  0.85755115754E+03  0.87157376165E+02 0.  0.
         23    2    4    4    0    0  0.10732406438E+03 -0.12018062581E+03  0.19306310334E+03  0.26768675640E+03  0.91766007122E+02 0.  0.
          2    1    3    3  502    0 -0.13604593355E+03 -0.64894939383E+02  0.98968038603E+02  0.18031783566E+03  0.00000000000E+00 0. -1.
         -1    1    3    3    0  502 -0.81793017099E+02 -0.82080397349E+02  0.15409291956E+03  0.19280020003E+03  0.00000000000E+00 0.  1.
         11    1    5    5    0    0  0.56417381460E+02  0.12408418440E+03 -0.25726861822E+03  0.29114763896E+03  0.00000000000E+00 0. -1.
        -11    1    5    5    0    0  0.54097504805E+02  0.14307177814E+03 -0.54535939721E+03  0.56640351858E+03  0.00000000000E+00 0.  1.
          4    1    6    6  503    0  0.75691005192E+02 -0.17183096933E+02  0.84306562669E+02  0.11459486723E+03  0.00000000000E+00 0.  1.
         -4    1    6    6    0  503  0.31633059191E+02 -0.10299752888E+03  0.10875654067E+03  0.15309188916E+03  0.00000000000E+00 0. -1.
<mgrwt>
<rscale>  0 0.14553266E+04</rscale>
<asrwt>0</asrwt>
<pdfrwt beam="1">  1        4 0.14268153E+00 0.14553266E+04</pdfrwt>
<pdfrwt beam="2">  1       -3 0.87834770E-01 0.14553266E+04</pdfrwt>
<totfact> 0.88806454E-01</totfact>
</mgrwt>
</event>
<event>
12    6  0.1457317E-007  0.1352274E+04  0.7818608E-02  0.8989109E-01
          2   -1    0    0  501    0  0.00000000000E+00  0.00000000000E+00  0.88070671062E+03  0.88070671062E+03  0.00000000000E+00 0. -1.
         -1   -1    0    0    0  501 -0.00000000000E+00 -0.00000000000E+00 -0.51908418464E+03  0.51908418464E+03  0.00000000000E+00 0.  1.
         24    2    1    2    0    0 -0.11084156316E+03 -0.31001808221E+03 -0.73179644621E+02  0.34657759407E+03  0.79772833100E+02 0.  0.
        254    2    1    2    0    0  0.11084156316E+03  0.31001808221E+03  0.43480217061E+03  0.10532133012E+04  0.90100403263E+03 0.  0.
         23    2    4    4    0    0 -0.23819823353E+03 -0.28758611265E+02 -0.14149642874E+03  0.29402291846E+03  0.94142344655E+02 0.  0.
         23    2    4    4    0    0  0.34903979669E+03  0.33877669348E+03  0.57629859935E+03  0.75919038273E+03  0.87473046697E+02 0.  0.
          2    1    3    3  502    0 -0.46930608149E+02 -0.18403622267E+03 -0.56724924322E+01  0.19001050078E+03  0.00000000000E+00 0. -1.
         -1    1    3    3    0  502 -0.63910955013E+02 -0.12598185954E+03 -0.67507152189E+02  0.15656709329E+03  0.00000000000E+00 0.  1.
         11    1    5    5    0    0 -0.70164374087E+02 -0.32963079659E+02 -0.53331292528E+01  0.77704866510E+02  0.00000000000E+00 0. -1.
        -11    1    5    5    0    0 -0.16803385944E+03  0.42044683946E+01 -0.13616329949E+03  0.21631805195E+03  0.00000000000E+00 0.  1.
          2    1    6    6  503    0  0.30261314369E+02  0.22195776460E+02  0.15449901421E+02  0.40584468629E+02  0.00000000000E+00 0. -1.
         -2    1    6    6    0  503  0.31877848232E+03  0.31658091702E+03  0.56084869793E+03  0.71860591410E+03  0.00000000000E+00 0.  1.
<mgrwt>
<rscale>  0 0.13522735E+04</rscale>
<asrwt>0</asrwt>
<pdfrwt beam="1">  1        2 0.13549334E+00 0.13522735E+04</pdfrwt>
<pdfrwt beam="2">  1       -1 0.79859105E-01 0.13522735E+04</pdfrwt>
<totfact> 0.52766312E+01</totfact>
</mgrwt>
</event>
<event>
12    6  0.1457317E-007  0.2125433E+04  0.7818608E-02  0.8550122E-01
         -1   -1    0    0    0  501 -0.00000000000E+00  0.00000000000E+00  0.85668574539E+03  0.85668574539E+03  0.00000000000E+00 0.  1.
          2   -1    0    0  501    0  0.00000000000E+00 -0.00000000000E+00 -0.13182968857E+04  0.13182968857E+04  0.00000000000E+00 0. -1.
         24    2    1    2    0    0 -0.98387607103E+02 -0.28683235057E+03 -0.10283443898E+04  0.10752388575E+04  0.81813800951E+02 0.  0.
        254    2    1    2    0    0  0.98387607103E+02  0.28683235057E+03  0.56673324945E+03  0.10997437737E+04  0.89235467898E+03 0.  0.
         23    2    4    4    0    0 -0.16288734930E+03  0.53700840825E+03  0.36359097260E+03  0.67492867165E+03  0.91760543643E+02 0.  0.
         23    2    4    4    0    0  0.26127495641E+03 -0.25017605769E+03  0.20314227686E+03  0.42481510201E+03  0.91369708117E+02 0.  0.
          2    1    3    3  502    0 -0.10013835188E+03 -0.26867496005E+03 -0.10076569081E+04  0.10476575624E+04  0.00000000000E+00 0. -1.
         -1    1    3    3    0  502  0.17507447775E+01 -0.18157390519E+02 -0.20687481741E+02  0.27581295084E+02  0.00000000000E+00 0.  1.
         11    1    5    5    0    0 -0.13898376192E+02  0.11895490397E+03  0.42244484136E+02  0.12699618293E+03  0.00000000000E+00 0. -1.
        -11    1    5    5    0    0 -0.14898897311E+03  0.41805350428E+03  0.32134648846E+03  0.54793248872E+03  0.00000000000E+00 0.  1.
          2    1    6    6  503    0  0.25311347996E+02 -0.61648161970E+02  0.63557262277E+02  0.92090639046E+02  0.00000000000E+00 0. -1.
         -2    1    6    6    0  503  0.23596360841E+03 -0.18852789572E+03  0.13958501458E+03  0.33272446296E+03  0.00000000000E+00 0.  1.
<mgrwt>
<rscale>  0 0.21254328E+04</rscale>
<asrwt>0</asrwt>
<pdfrwt beam="1">  1        2 0.20281491E+00 0.21254328E+04</pdfrwt>
<pdfrwt beam="2">  1       -1 0.13179781E+00 0.21254328E+04</pdfrwt>
<totfact> 0.82814007E+00</totfact>
</mgrwt>
</event>
<event>
12    6  0.1457317E-007  0.2117416E+04  0.7818608E-02  0.8553610E-01
         -1   -1    0    0    0  501 -0.00000000000E+00  0.00000000000E+00  0.39227687875E+03  0.39227687875E+03  0.00000000000E+00 0.  1.
          2   -1    0    0  501    0  0.00000000000E+00 -0.00000000000E+00 -0.28573242793E+04  0.28573242793E+04  0.00000000000E+00 0. -1.
         24    2    1    2    0    0  0.33149511642E+03  0.64640610616E+03 -0.17476123213E+04  0.18942864028E+04  0.80263840268E+02 0.  0.
        254    2    1    2    0    0 -0.33149511642E+03 -0.64640610616E+03 -0.71743507921E+03  0.13553147552E+04  0.89131090336E+03 0.  0.
         23    2    4    4    0    0 -0.26933645496E+03 -0.86043452519E+03 -0.53068797576E+03  0.10504680600E+04  0.94676921370E+02 0.  0.
         23    2    4    4    0    0 -0.62158661463E+02  0.21402841902E+03 -0.18674710346E+03  0.30484669516E+03  0.91570538672E+02 0.  0.
          4    1    3    3  502    0  0.30178838273E+03  0.57557549473E+03 -0.14923771387E+04  0.16277447288E+04  0.00000000000E+00 0. -1.
         -3    1    3    3    0  502  0.29706733687E+02  0.70830611430E+02 -0.25523518258E+03  0.26654167398E+03  0.00000000000E+00 0.  1.
         11    1    5    5    0    0 -0.23109741668E+03 -0.74679858455E+03 -0.42063936780E+03  0.88772271551E+03  0.00000000000E+00 0. -1.
        -11    1    5    5    0    0 -0.38239038275E+02 -0.11363594064E+03 -0.11004860796E+03  0.16274534453E+03  0.00000000000E+00 0.  1.
          3    1    6    6  503    0 -0.75981112203E+02  0.20173994899E+03 -0.14675701275E+03  0.26078680416E+03  0.00000000000E+00 0. -1.
         -3    1    6    6    0  503  0.13822450740E+02  0.12288470033E+02 -0.39990090704E+02  0.44059890997E+02  0.00000000000E+00 0.  1.
<mgrwt>
<rscale>  0 0.21174156E+04</rscale>
<asrwt>0</asrwt>
<pdfrwt beam="1">  1        2 0.43958833E+00 0.21174156E+04</pdfrwt>
<pdfrwt beam="2">  1       -1 0.60350291E-01 0.21174156E+04</pdfrwt>
<totfact> 0.62294197E+00</totfact>
</mgrwt>
</event>
<event>
12    6  0.1457317E-007  0.2755793E+04  0.7818608E-02  0.8317126E-01
         -1   -1    0    0    0  501 -0.00000000000E+00  0.00000000000E+00  0.79678442470E+03  0.79678442470E+03  0.00000000000E+00 0.  1.
          2   -1    0    0  501    0  0.00000000000E+00 -0.00000000000E+00 -0.23828256082E+04  0.23828256082E+04  0.00000000000E+00 0. -1.
         24    2    1    2    0    0 -0.11575736187E+04  0.37024645859E+03 -0.49127596391E+03  0.13133107778E+04  0.79837357723E+02 0.  0.
        254    2    1    2    0    0  0.11575736187E+04 -0.37024645859E+03 -0.10947652195E+04  0.18662992550E+04  0.89861165170E+03 0.  0.
         23    2    4    4    0    0  0.76248071477E+03  0.20688272002E+03 -0.68596239528E+03  0.10508710784E+04  0.98022015371E+02 0.  0.
         23    2    4    4    0    0  0.39509290393E+03 -0.57712917861E+03 -0.40880282427E+03  0.81542817660E+03  0.92880948091E+02 0.  0.
          2    1    3    3  502    0 -0.25385857256E+03  0.11350671386E+03 -0.12654796121E+03  0.30551977913E+03  0.00000000000E+00 0. -1.
         -1    1    3    3    0  502 -0.90371504614E+03  0.25673974474E+03 -0.36472800270E+03  0.10077909987E+04  0.00000000000E+00 0.  1.
         11    1    5    5    0    0  0.39293866575E+03  0.15728975938E+03 -0.36375796892E+03  0.55808666299E+03  0.00000000000E+00 0. -1.
        -11    1    5    5    0    0  0.36954204901E+03  0.49592960643E+02 -0.32220442636E+03  0.49278441544E+03  0.00000000000E+00 0.  1.
          3    1    6    6  503    0  0.31260217135E+03 -0.50130097417E+03 -0.36884414489E+03  0.69646879862E+03  0.00000000000E+00 0. -1.
         -3    1    6    6    0  503  0.82490732578E+02 -0.75828204444E+02 -0.39958679380E+02  0.11895937798E+03  0.00000000000E+00 0.  1.
<mgrwt>
<rscale>  0 0.27557927E+04</rscale>
<asrwt>0</asrwt>
<pdfrwt beam="1">  1        2 0.36658856E+00 0.27557927E+04</pdfrwt>
<pdfrwt beam="2">  1       -1 0.12258222E+00 0.27557927E+04</pdfrwt>
<totfact> 0.23716775E+00</totfact>
</mgrwt>
</event>
<event>
12    6  0.1457317E-007  0.1383531E+04  0.7818608E-02  0.8965827E-01
          2   -1    0    0  501    0  0.00000000000E+00  0.00000000000E+00  0.33885979837E+04  0.33885979837E+04  0.00000000000E+00 0. -1.
         -1   -1    0    0    0  501 -0.00000000000E+00 -0.00000000000E+00 -0.14122053005E+03  0.14122053005E+03  0.00000000000E+00 0.  1.
         24    2    1    2    0    0 -0.68406805573E+02  0.22985797687E+03  0.15774420651E+03  0.29814502238E+03  0.80579396278E+02 0.  0.
        254    2    1    2    0    0  0.68406805573E+02 -0.22985797687E+03  0.30896332471E+04  0.32316734913E+04  0.91671466247E+03 0.  0.
         23    2    4    4    0    0 -0.21782145267E+03 -0.29259802678E+03  0.50892098324E+03  0.63275896877E+03  0.91233518331E+02 0.  0.
         23    2    4    4    0    0  0.28622825824E+03  0.62740049911E+02  0.25807122639E+04  0.25989145226E+04  0.91749534056E+02 0.  0.
          2    1    3    3  502    0 -0.25986742471E+02  0.81323841530E+01  0.15827294779E+02  0.31495233231E+02  0.00000000000E+00 0. -1.
         -1    1    3    3    0  502 -0.42420063102E+02  0.22172559271E+03  0.14191691173E+03  0.26664978915E+03  0.00000000000E+00 0.  1.
         11    1    5    5    0    0 -0.63716970802E+02 -0.27573104691E+02  0.95824001745E+02  0.11833160094E+03  0.00000000000E+00 0.  1.
        -11    1    5    5    0    0 -0.15410448187E+03 -0.26502492209E+03  0.41309698149E+03  0.51442736783E+03  0.00000000000E+00 0. -1.
          3    1    6    6  503    0  0.14328843981E+03  0.36605931121E+02  0.16866025869E+04  0.16930740850E+04  0.00000000000E+00 0. -1.
         -3    1    6    6    0  503  0.14293981843E+03  0.26134118791E+02  0.89410967701E+03  0.90584043760E+03  0.00000000000E+00 0.  1.
<mgrwt>
<rscale>  0 0.13835311E+04</rscale>
<asrwt>0</asrwt>
<pdfrwt beam="1">  1        2 0.52132270E+00 0.13835311E+04</pdfrwt>
<pdfrwt beam="2">  1       -1 0.21726238E-01 0.13835311E+04</pdfrwt>
<totfact> 0.19469048E+01</totfact>
</mgrwt>
</event>
<event>
12    6  0.1457317E-007  0.3419246E+04  0.7818608E-02  0.8133199E-01
          2   -1    0    0  501    0  0.00000000000E+00  0.00000000000E+00  0.16894434601E+04  0.16894434601E+04  0.00000000000E+00 0. -1.
         -1   -1    0    0    0  501 -0.00000000000E+00 -0.00000000000E+00 -0.17300431030E+04  0.17300431030E+04  0.00000000000E+00 0.  1.
         24    2    1    2    0    0 -0.55838493929E+03 -0.79830031597E+02  0.14682583258E+04  0.15751129713E+04  0.83855749185E+02 0.  0.
        254    2    1    2    0    0  0.55838493929E+03  0.79830031597E+02 -0.15088579688E+04  0.18443735918E+04  0.89827334468E+03 0.  0.
         23    2    4    4    0    0  0.58050426835E+03  0.40780098339E+03 -0.10945457654E+04  0.13075272157E+04  0.91159968288E+02 0.  0.
         23    2    4    4    0    0 -0.22119329063E+02 -0.32797095179E+03 -0.41431220341E+03  0.53684637603E+03  0.92169515704E+02 0.  0.
          2    1    3    3  502    0 -0.52510239547E+03 -0.94517050418E+02  0.13604189607E+04  0.14613027568E+04  0.00000000000E+00 0. -1.
         -1    1    3    3    0  502 -0.33282543812E+02  0.14687018820E+02  0.10783936516E+03  0.11381021449E+03  0.00000000000E+00 0.  1.
         11    1    5    5    0    0  0.12849979857E+03  0.12738990076E+03 -0.23302595772E+03  0.29502793430E+03  0.00000000000E+00 0. -1.
        -11    1    5    5    0    0  0.45200446978E+03  0.28041108264E+03 -0.86151980764E+03  0.10124992814E+04  0.00000000000E+00 0.  1.
          1    1    6    6  503    0  0.15416154512E+02 -0.22329909997E+03 -0.32292609418E+03  0.39291399589E+03  0.00000000000E+00 0. -1.
         -1    1    6    6    0  503 -0.37535483575E+02 -0.10467185183E+03 -0.91386109227E+02  0.14393238014E+03  0.00000000000E+00 0.  1.
<mgrwt>
<rscale>  0 0.34192455E+04</rscale>
<asrwt>0</asrwt>
<pdfrwt beam="1">  1        2 0.25991438E+00 0.34192455E+04</pdfrwt>
<pdfrwt beam="2">  1       -1 0.26616048E+00 0.34192455E+04</pdfrwt>
<totfact> 0.51206307E-01</totfact>
</mgrwt>
</event>
<event>
12    6  0.1457317E-007  0.1886347E+04  0.7818608E-02  0.8661682E-01
          2   -1    0    0  501    0  0.00000000000E+00  0.00000000000E+00  0.26963284509E+04  0.26963284509E+04  0.00000000000E+00 0. -1.
         -1   -1    0    0    0  501 -0.00000000000E+00 -0.00000000000E+00 -0.32992140767E+03  0.32992140767E+03  0.00000000000E+00 0.  1.
         24    2    1    2    0    0 -0.25409920499E+03 -0.25246900591E+03 -0.10171108114E+03  0.38129414277E+03  0.82055312813E+02 0.  0.
        254    2    1    2    0    0  0.25409920499E+03  0.25246900591E+03  0.24681181243E+04  0.26449557158E+04  0.88083861054E+03 0.  0.
         23    2    4    4    0    0 -0.19875949109E+03  0.25300154616E+03  0.37793445187E+03  0.50435852635E+03  0.89598859021E+02 0.  0.
         23    2    4    4    0    0  0.45285869607E+03 -0.53254024797E+00  0.20901836725E+04  0.21405971894E+04  0.90593932025E+02 0.  0.
          2    1    3    3  502    0 -0.11192617541E+03 -0.94069096660E+02 -0.19297552767E+01  0.14621965547E+03  0.00000000000E+00 0. -1.
         -3    1    3    3    0  502 -0.14217302957E+03 -0.15839990925E+03 -0.99781325862E+02  0.23507448730E+03  0.00000000000E+00 0.  1.
         11    1    5    5    0    0 -0.24755748254E+02 -0.23073163143E+01  0.24298302941E+02  0.34764612841E+02  0.00000000000E+00 0.  1.
        -11    1    5    5    0    0 -0.17400374283E+03  0.25530886247E+03  0.35363614893E+03  0.46959391351E+03  0.00000000000E+00 0. -1.
          4    1    6    6  503    0  0.43778416024E+03  0.13512007463E+01  0.20671884399E+04  0.21130368768E+04  0.00000000000E+00 0. -1.
         -4    1    6    6    0  503  0.15074535832E+02 -0.18837409943E+01  0.22995232571E+02  0.27560312619E+02  0.00000000000E+00 0.  1.
<mgrwt>
<rscale>  0 0.18863472E+04</rscale>
<asrwt>0</asrwt>
<pdfrwt beam="1">  1        2 0.41481975E+00 0.18863472E+04</pdfrwt>
<pdfrwt beam="2">  1       -1 0.50757141E-01 0.18863472E+04</pdfrwt>
<totfact> 0.11128858E+01</totfact>
</mgrwt>
</event>
<event>
12    6  0.2497169E-007  0.2116010E+04  0.7818608E-02  0.8554224E-01
          2   -1    0    0  501    0  0.00000000000E+00  0.00000000000E+00  0.23421345713E+04  0.23421345713E+04  0.00000000000E+00 0. -1.
         -1   -1    0    0    0  501 -0.00000000000E+00 -0.00000000000E+00 -0.47792905745E+03  0.47792905745E+03  0.00000000000E+00 0.  1.
         24    2    1    2    0    0 -0.16222219608E+03  0.48925913793E+03 -0.15924515142E+03  0.54548445356E+03  0.80645681078E+02 0.  0.
        254    2    1    2    0    0  0.16222219608E+03 -0.48925913793E+03  0.20234506652E+04  0.22745791751E+04  0.90203507938E+03 0.  0.
         23    2    4    4    0    0  0.25294918178E+03  0.15665319205E+03  0.31286680450E+03  0.44160277150E+03  0.92756990556E+02 0.  0.
         23    2    4    4    0    0 -0.90726985698E+02 -0.64591232998E+03  0.17105838607E+04  0.18329764036E+04  0.90946290509E+02 0.  0.
          4    1    3    3  502    0 -0.54054887808E+01  0.17439536807E+01 -0.10940582104E+02  0.12327084821E+02  0.00000000000E+00 0. -1.
         -3    1    3    3    0  502 -0.15681670730E+03  0.48751518425E+03 -0.14830456931E+03  0.53315736874E+03  0.00000000000E+00 0.  1.
         11    1    5    5    0    0  0.51796285527E+01 -0.88613197920E+01  0.10643382622E+01  0.10319125754E+02  0.00000000000E+00 0. -1.
        -11    1    5    5    0    0  0.24776955323E+03  0.16551451184E+03  0.31180246624E+03  0.43128364575E+03  0.00000000000E+00 0.  1.
          3    1    6    6  503    0  0.98696789242E+01 -0.42520906244E+02  0.75507578361E+02  0.87217156682E+02  0.00000000000E+00 0. -1.
         -3    1    6    6    0  503 -0.10059666462E+03 -0.60339142374E+03  0.16350762824E+04  0.17457592470E+04  0.00000000000E+00 0.  1.
<mgrwt>
<rscale>  0 0.21160096E+04</rscale>
<asrwt>0</asrwt>
<pdfrwt beam="1">  1        2 0.36032839E+00 0.21160096E+04</pdfrwt>
<pdfrwt beam="2">  1       -1 0.73527548E-01 0.21160096E+04</pdfrwt>
<totfact> 0.83752591E+00</totfact>
</mgrwt>
</event>
<event>
12    6  0.1457317E-007  0.2542178E+04  0.7818608E-02  0.8388112E-01
          2   -1    0    0  501    0  0.00000000000E+00  0.00000000000E+00  0.17877181701E+04  0.17877181701E+04  0.00000000000E+00 0. -1.
         -1   -1    0    0    0  501 -0.00000000000E+00 -0.00000000000E+00 -0.90375972859E+03  0.90375972859E+03  0.00000000000E+00 0.  1.
         24    2    1    2    0    0 -0.85432276511E+03 -0.68725463314E+03  0.57310387780E+03  0.12397762655E+04  0.80067570745E+02 0.  0.
        254    2    1    2    0    0  0.85432276511E+03  0.68725463314E+03  0.31085456374E+03  0.14517016333E+04  0.89923342602E+03 0.  0.
         23    2    4    4    0    0  0.53951536193E+03  0.83228083397E+03  0.41589112969E+03  0.10791174614E+04  0.88095694267E+02 0.  0.
         23    2    4    4    0    0  0.31480740319E+03 -0.14502620083E+03 -0.10503656595E+03  0.37258417189E+03  0.87464192254E+02 0.  0.
          4    1    3    3  502    0 -0.27855113333E+03 -0.19081982950E+03  0.14684793916E+03  0.36819459318E+03  0.00000000000E+00 0. -1.
         -3    1    3    3    0  502 -0.57577163178E+03 -0.49643480364E+03  0.42625593865E+03  0.87158167228E+03  0.00000000000E+00 0.  1.
         11    1    5    5    0    0  0.53491624050E+03  0.79583818277E+03  0.39732196959E+03  0.10379588359E+04  0.00000000000E+00 0.  1.
        -11    1    5    5    0    0  0.45991214261E+01  0.36442651202E+02  0.18569160097E+02  0.41158625478E+02  0.00000000000E+00 0. -1.
          2    1    6    6  503    0  0.68718207318E+02 -0.69277204722E+02 -0.98688791867E+01  0.98076082137E+02  0.00000000000E+00 0. -1.
         -2    1    6    6    0  503  0.24608919587E+03 -0.75748996111E+02 -0.95167686765E+02  0.27450808975E+03  0.00000000000E+00 0.  1.
<mgrwt>
<rscale>  0 0.25421783E+04</rscale>
<asrwt>0</asrwt>
<pdfrwt beam="1">  1        2 0.27503356E+00 0.25421783E+04</pdfrwt>
<pdfrwt beam="2">  1       -1 0.13903996E+00 0.25421783E+04</pdfrwt>
<totfact> 0.37845758E+00</totfact>
</mgrwt>
</event>
<event>
12    6  0.1457317E-007  0.1561752E+04  0.7818608E-02  0.8844396E-01
          2   -1    0    0  501    0  0.00000000000E+00  0.00000000000E+00  0.26419514520E+04  0.26419514520E+04  0.00000000000E+00 0. -1.
         -1   -1    0    0    0  501 -0.00000000000E+00 -0.00000000000E+00 -0.23080189254E+03  0.23080189254E+03  0.00000000000E+00 0.  1.
         24    2    1    2    0    0  0.93009907798E+02  0.44647504316E+03  0.13184950252E+04  0.13975790238E+04  0.82505691748E+02 0.  0.
        254    2    1    2    0    0 -0.93009907798E+02 -0.44647504316E+03  0.10926545343E+04  0.14751743208E+04  0.87991734741E+03 0.  0.
         23    2    4    4    0    0  0.21225769059E+03 -0.24903929698E+03  0.21348520493E+02  0.34017136961E+03  0.90481504861E+02 0.  0.
         23    2    4    4    0    0 -0.30526759839E+03 -0.19743574618E+03  0.10713060138E+04  0.11350029512E+04  0.91465531507E+02 0.  0.
          2    1    3    3  502    0  0.29498889101E+02  0.27224836903E+03  0.87577378716E+03  0.91758873422E+03  0.00000000000E+00 0. -1.
         -1    1    3    3    0  502  0.63511018696E+02  0.17422667413E+03  0.44272123803E+03  0.47999028956E+03  0.00000000000E+00 0.  1.
         11    1    5    5    0    0  0.16224351424E+03 -0.16896420627E+03  0.53786546945E+02  0.24034319950E+03  0.00000000000E+00 0. -1.
        -11    1    5    5    0    0  0.50014176356E+02 -0.80075090710E+02 -0.32438026452E+02  0.99828170117E+02  0.00000000000E+00 0.  1.
          1    1    6    6  503    0 -0.21592761069E+03 -0.16876429400E+03  0.69267127854E+03  0.74491584767E+03  0.00000000000E+00 0. -1.
         -1    1    6    6    0  503 -0.89339987702E+02 -0.28671452181E+02  0.37863473527E+03  0.39008710351E+03  0.00000000000E+00 0.  1.
<mgrwt>
<rscale>  0 0.15617521E+04</rscale>
<asrwt>0</asrwt>
<pdfrwt beam="1">  1        2 0.40645405E+00 0.15617521E+04</pdfrwt>
<pdfrwt beam="2">  1       -1 0.35507985E-01 0.15617521E+04</pdfrwt>
<totfact> 0.23886096E+01</totfact>
</mgrwt>
</event>
<event>
12    6  0.1457317E-007  0.1567824E+04  0.7818608E-02  0.8840562E-01
         -1   -1    0    0    0  501 -0.00000000000E+00  0.00000000000E+00  0.31588083624E+03  0.31588083624E+03  0.00000000000E+00 0.  1.
          2   -1    0    0  501    0  0.00000000000E+00 -0.00000000000E+00 -0.19454116863E+04  0.19454116863E+04  0.00000000000E+00 0. -1.
         24    2    1    2    0    0 -0.49983854166E+03 -0.69150464386E+02 -0.73957681915E+03  0.89878640334E+03  0.78884554541E+02 0.  0.
        254    2    1    2    0    0  0.49983854166E+03  0.69150464386E+02 -0.88995403091E+03  0.13625061192E+04  0.89988021052E+03 0.  0.
         23    2    4    4    0    0 -0.11621934577E+02  0.34566480300E+03 -0.61878732494E+03  0.71439815493E+03  0.88587498360E+02 0.  0.
         23    2    4    4    0    0  0.51146047624E+03 -0.27651433861E+03 -0.27116670596E+03  0.64810796427E+03  0.91981262866E+02 0.  0.
          4    1    3    3  502    0 -0.27401373480E+03 -0.76598864662E+02 -0.42646383800E+03  0.51266199201E+03  0.00000000000E+00 0. -1.
         -3    1    3    3    0  502 -0.22582480686E+03  0.74484002763E+01 -0.31311298115E+03  0.38612441133E+03  0.00000000000E+00 0.  1.
         11    1    5    5    0    0 -0.12943200206E+01  0.51746434143E+01  0.24698208826E+01  0.58781131303E+01  0.00000000000E+00 0.  1.
        -11    1    5    5    0    0 -0.10327614556E+02  0.34049015958E+03 -0.62125714583E+03  0.70852004180E+03  0.00000000000E+00 0. -1.
          1    1    6    6  503    0  0.41245543093E+03 -0.26170881554E+03 -0.22875367910E+03  0.53938783110E+03  0.00000000000E+00 0. -1.
         -1    1    6    6    0  503  0.99005045304E+02 -0.14805523073E+02 -0.42413026863E+02  0.10872013317E+03  0.00000000000E+00 0.  1.
<mgrwt>
<rscale>  0 0.15678243E+04</rscale>
<asrwt>0</asrwt>
<pdfrwt beam="1">  1        2 0.29929410E+00 0.15678243E+04</pdfrwt>
<pdfrwt beam="2">  1       -1 0.48597052E-01 0.15678243E+04</pdfrwt>
<totfact> 0.33247621E+01</totfact>
</mgrwt>
</event>
<event>
12    6  0.1457317E-007  0.1169338E+04  0.7818608E-02  0.9140127E-01
         -1   -1    0    0    0  501 -0.00000000000E+00  0.00000000000E+00  0.11103214285E+03  0.11103214285E+03  0.00000000000E+00 0.  1.
          2   -1    0    0  501    0  0.00000000000E+00 -0.00000000000E+00 -0.30787274324E+04  0.30787274324E+04  0.00000000000E+00 0. -1.
         24    2    1    2    0    0 -0.18037453865E+03  0.12888155594E+03 -0.51410384740E+03  0.56599011601E+03  0.83045865955E+02 0.  0.
        254    2    1    2    0    0  0.18037453865E+03 -0.12888155594E+03 -0.24535914421E+04  0.26237694592E+04  0.90272353500E+03 0.  0.
         23    2    4    4    0    0 -0.15304255229E+02 -0.61262771440E+02 -0.23840076461E+04  0.23865892372E+04  0.91259973945E+02 0.  0.
         23    2    4    4    0    0  0.19567879388E+03 -0.67618784500E+02 -0.69583796017E+02  0.23718022206E+03  0.92466548964E+02 0.  0.
          4    1    3    3  502    0 -0.26630345084E+02  0.28641263505E+02 -0.33364516600E+02  0.51407083388E+02  0.00000000000E+00 0. -1.
         -3    1    3    3    0  502 -0.15374419357E+03  0.10024029243E+03 -0.48073933080E+03  0.51458303262E+03  0.00000000000E+00 0.  1.
         11    1    5    5    0    0 -0.30336051821E+01 -0.80662177659E+02 -0.14081302697E+04  0.14104419330E+04  0.00000000000E+00 0. -1.
        -11    1    5    5    0    0 -0.12270650047E+02  0.19399406219E+02 -0.97587737639E+03  0.97614730423E+03  0.00000000000E+00 0.  1.
          3    1    6    6  503    0  0.17208883767E+03 -0.79831604105E+02 -0.33923463944E+02  0.19271339982E+03  0.00000000000E+00 0. -1.
         -3    1    6    6    0  503  0.23589956213E+02  0.12212819605E+02 -0.35660332073E+02  0.44466822243E+02  0.00000000000E+00 0.  1.
<mgrwt>
<rscale>  0 0.11693378E+04</rscale>
<asrwt>0</asrwt>
<pdfrwt beam="1">  1        2 0.47365037E+00 0.11693378E+04</pdfrwt>
<pdfrwt beam="2">  1       -1 0.17081868E-01 0.11693378E+04</pdfrwt>
<totfact> 0.47301362E+01</totfact>
</mgrwt>
</event>
<event>
12    6  0.1457317E-007  0.1072484E+04  0.7818608E-02  0.9232434E-01
          2   -1    0    0  501    0  0.00000000000E+00  0.00000000000E+00  0.34783431916E+03  0.34783431916E+03  0.00000000000E+00 0. -1.
         -1   -1    0    0    0  501 -0.00000000000E+00 -0.00000000000E+00 -0.82670186067E+03  0.82670186067E+03  0.00000000000E+00 0.  1.
         24    2    1    2    0    0 -0.13641948319E+03  0.16069370378E+02 -0.76796976553E+02  0.18015082936E+03  0.87681501213E+02 0.  0.
        254    2    1    2    0    0  0.13641948319E+03 -0.16069370378E+02 -0.40207056496E+03  0.99438535046E+03  0.89904003579E+03 0.  0.
         23    2    4    4    0    0  0.22794325341E+03 -0.41259320579E+03 -0.29660195669E+03  0.56415895432E+03  0.90062893472E+02 0.  0.
         23    2    4    4    0    0 -0.91523770221E+02  0.39652383541E+03 -0.10546860826E+03  0.43022639615E+03  0.91451473738E+02 0.  0.
          4    1    3    3  502    0 -0.11662672010E+03 -0.21223547486E+02 -0.43106795388E+02  0.12613653958E+03  0.00000000000E+00 0. -1.
         -3    1    3    3    0  502 -0.19792763087E+02  0.37292917865E+02 -0.33690181165E+02  0.54014289779E+02  0.00000000000E+00 0.  1.
         11    1    5    5    0    0  0.10625927396E+03 -0.27819544351E+03 -0.20003781271E+03  0.35874623985E+03  0.00000000000E+00 0.  1.
        -11    1    5    5    0    0  0.12168397945E+03 -0.13439776228E+03 -0.96564143981E+02  0.20541271446E+03  0.00000000000E+00 0. -1.
          4    1    6    6  503    0  0.82411108869E+01  0.15987134722E+03 -0.46874935054E+02  0.16680534495E+03  0.00000000000E+00 0. -1.
         -4    1    6    6    0  503 -0.99764881108E+02  0.23665248820E+03 -0.58593673209E+02  0.26342105119E+03  0.00000000000E+00 0.  1.
<mgrwt>
<rscale>  0 0.10724836E+04</rscale>
<asrwt>0</asrwt>
<pdfrwt beam="1">  1        2 0.53512972E-01 0.10724836E+04</pdfrwt>
<pdfrwt beam="2">  1       -1 0.12718490E+00 0.10724836E+04</pdfrwt>
<totfact> 0.56814865E+01</totfact>
</mgrwt>
</event>
<event>
12    6  0.1457317E-007  0.1366201E+04  0.7818608E-02  0.8978654E-01
          2   -1    0    0  501    0  0.00000000000E+00  0.00000000000E+00  0.73294840975E+03  0.73294840975E+03  0.00000000000E+00 0. -1.
         -1   -1    0    0    0  501 -0.00000000000E+00 -0.00000000000E+00 -0.63664234994E+03  0.63664234994E+03  0.00000000000E+00 0.  1.
         24    2    1    2    0    0  0.52546696922E+02  0.13164701437E+03 -0.32675523927E+03  0.36508006657E+03  0.80139733407E+02 0.  0.
        254    2    1    2    0    0 -0.52546696922E+02 -0.13164701437E+03  0.42306129908E+03  0.10045106931E+04  0.89998265431E+03 0.  0.
         23    2    4    4    0    0 -0.18186792489E+03  0.23739808913E+03 -0.11506862898E+03  0.33339105998E+03  0.92059842877E+02 0.  0.
         23    2    4    4    0    0  0.12932122796E+03 -0.36904510351E+03  0.53812992806E+03  0.67111963314E+03  0.88878985621E+02 0.  0.
          2    1    3    3  502    0  0.73966064826E+01  0.43584538813E+00 -0.92608196519E+02  0.92904132368E+02  0.00000000000E+00 0. -1.
         -3    1    3    3    0  502  0.45150090440E+02  0.13121116898E+03 -0.23414704275E+03  0.27217593420E+03  0.00000000000E+00 0.  1.
         11    1    5    5    0    0 -0.31442381004E+02  0.45412358541E+02 -0.63388885739E+02  0.84077681145E+02  0.00000000000E+00 0. -1.
        -11    1    5    5    0    0 -0.15042554388E+03  0.19198573059E+03 -0.51679743243E+02  0.24931337883E+03  0.00000000000E+00 0.  1.
          2    1    6    6  503    0 -0.30898305962E+01 -0.10249198889E+03  0.15755826157E+03  0.18798606499E+03  0.00000000000E+00 0. -1.
         -2    1    6    6    0  503  0.13241105856E+03 -0.26655311461E+03  0.38057166649E+03  0.48313356815E+03  0.00000000000E+00 0.  1.
<mgrwt>
<rscale>  0 0.13662006E+04</rscale>
<asrwt>0</asrwt>
<pdfrwt beam="1">  1        2 0.11276129E+00 0.13662006E+04</pdfrwt>
<pdfrwt beam="2">  1       -1 0.97944977E-01 0.13662006E+04</pdfrwt>
<totfact> 0.43038346E+01</totfact>
</mgrwt>
</event>
<event>
12    6  0.1457317E-007  0.1480532E+04  0.7818608E-02  0.8897503E-01
         -1   -1    0    0    0  501 -0.00000000000E+00  0.00000000000E+00  0.50502884819E+03  0.50502884819E+03  0.00000000000E+00 0.  1.
          2   -1    0    0  501    0  0.00000000000E+00 -0.00000000000E+00 -0.10850743365E+04  0.10850743365E+04  0.00000000000E+00 0. -1.
         24    2    1    2    0    0  0.60706176514E+02 -0.39173662232E+03  0.78135831799E+02  0.41195755339E+03  0.80380323815E+02 0.  0.
        254    2    1    2    0    0 -0.60706176514E+02  0.39173662232E+03 -0.65818132015E+03  0.11781456313E+04  0.89313025776E+03 0.  0.
         23    2    4    4    0    0 -0.31640735362E+03  0.37194671946E+03 -0.74409201521E+03  0.89478718029E+03  0.92266978785E+02 0.  0.
         23    2    4    4    0    0  0.25570117711E+03  0.19789902854E+02  0.85910695059E+02  0.28335845105E+03  0.84478589172E+02 0.  0.
          2    1    3    3  502    0  0.19979408674E+02 -0.27483562248E+03  0.23239057460E+02  0.27653905682E+03  0.00000000000E+00 0. -1.
         -1    1    3    3    0  502  0.40726767841E+02 -0.11690099983E+03  0.54896774339E+02  0.13541849657E+03  0.00000000000E+00 0.  1.
         11    1    5    5    0    0 -0.27978660577E+03  0.34909488330E+03 -0.62905690414E+03  0.77191992522E+03  0.00000000000E+00 0.  1.
        -11    1    5    5    0    0 -0.36620747855E+02  0.22851836163E+02 -0.11503511107E+03  0.12286725507E+03  0.00000000000E+00 0. -1.
          4    1    6    6  503    0  0.76561112339E+02  0.42498866652E+02  0.12587678794E+02  0.88465853563E+02  0.00000000000E+00 0. -1.
         -4    1    6    6    0  503  0.17914006477E+03 -0.22708963798E+02  0.73323016265E+02  0.19489259749E+03  0.00000000000E+00 0.  1.
<mgrwt>
<rscale>  0 0.14805321E+04</rscale>
<asrwt>0</asrwt>
<pdfrwt beam="1">  1        2 0.16693451E+00 0.14805321E+04</pdfrwt>
<pdfrwt beam="2">  1       -1 0.77696747E-01 0.14805321E+04</pdfrwt>
<totfact> 0.40774068E+01</totfact>
</mgrwt>
</event>
<event>
12    6  0.1457317E-007  0.1351698E+04  0.7818608E-02  0.8989543E-01
          2   -1    0    0  501    0  0.00000000000E+00  0.00000000000E+00  0.89414840411E+03  0.89414840411E+03  0.00000000000E+00 0. -1.
         -1   -1    0    0    0  501 -0.00000000000E+00 -0.00000000000E+00 -0.51084604175E+03  0.51084604175E+03  0.00000000000E+00 0.  1.
         24    2    1    2    0    0  0.27664617585E+03  0.21886647628E+03 -0.18027666884E+02  0.36230056014E+03  0.80629138965E+02 0.  0.
        254    2    1    2    0    0 -0.27664617585E+03 -0.21886647628E+03  0.40133002924E+03  0.10426938857E+04  0.89538210050E+03 0.  0.
         23    2    4    4    0    0 -0.56090281112E+03 -0.30256467283E+03  0.33396645957E+03  0.72531666461E+03  0.91615081048E+02 0.  0.
         23    2    4    4    0    0  0.28425663526E+03  0.83698196549E+02  0.67363569664E+02  0.31737722111E+03  0.91559964854E+02 0.  0.
          4    1    3    3  502    0  0.17950625222E+02  0.45389038757E+01 -0.18753569703E+02  0.26353803726E+02  0.00000000000E+00 0. -1.
         -3    1    3    3    0  502  0.25869555063E+03  0.21432757241E+03  0.72590281897E+00  0.33594675641E+03  0.00000000000E+00 0.  1.
         11    1    5    5    0    0 -0.53676289490E+03 -0.28644768527E+03  0.29347258860E+03  0.67549451663E+03  0.00000000000E+00 0.  1.
        -11    1    5    5    0    0 -0.24139916218E+02 -0.16116987566E+02  0.40493870971E+02  0.49822147981E+02  0.00000000000E+00 0. -1.
          4    1    6    6  503    0  0.14619228952E+02  0.27385742795E+02 -0.74870694014E+01  0.31933633865E+02  0.00000000000E+00 0. -1.
         -4    1    6    6    0  503  0.26963740631E+03  0.56312453754E+02  0.74850639066E+02  0.28544358724E+03  0.00000000000E+00 0.  1.
<mgrwt>
<rscale>  0 0.13516984E+04</rscale>
<asrwt>0</asrwt>
<pdfrwt beam="1">  1        2 0.13756129E+00 0.13516984E+04</pdfrwt>
<pdfrwt beam="2">  1       -1 0.78591698E-01 0.13516984E+04</pdfrwt>
<totfact> 0.53449777E+01</totfact>
</mgrwt>
</event>
<event>
12    6  0.1457317E-007  0.1979885E+04  0.7818608E-02  0.8616083E-01
          2   -1    0    0  501    0  0.00000000000E+00  0.00000000000E+00  0.38653311640E+04  0.38653311640E+04  0.00000000000E+00 0. -1.
         -1   -1    0    0    0  501 -0.00000000000E+00 -0.00000000000E+00 -0.25353235049E+03  0.25353235049E+03  0.00000000000E+00 0.  1.
         24    2    1    2    0    0 -0.15213884429E+03  0.76597306059E+03  0.17370387269E+04  0.19062203814E+04  0.80694773269E+02 0.  0.
        254    2    1    2    0    0  0.15213884429E+03 -0.76597306059E+03  0.18747600866E+04  0.22126431330E+04  0.87818181165E+03 0.  0.
         23    2    4    4    0    0 -0.22245882198E+03 -0.13172649709E+03  0.10403561648E+03  0.29285627344E+03  0.90008832239E+02 0.  0.
         23    2    4    4    0    0  0.37459766627E+03 -0.63424656350E+03  0.17707244701E+04  0.19197868596E+04  0.86742851454E+02 0.  0.
          4    1    3    3  502    0 -0.16115565737E+03  0.74392482045E+03  0.16790958519E+04  0.18435721207E+04  0.00000000000E+00 0. -1.
         -3    1    3    3    0  502  0.90168130836E+01  0.22048240144E+02  0.57942874947E+02  0.62648260700E+02  0.00000000000E+00 0.  1.
         11    1    5    5    0    0 -0.19168536989E+03 -0.12750738986E+03  0.58158033530E+02  0.23745267394E+03  0.00000000000E+00 0. -1.
        -11    1    5    5    0    0 -0.30773452092E+02 -0.42191072350E+01  0.45877582952E+02  0.55403599495E+02  0.00000000000E+00 0.  1.
          3    1    6    6  503    0  0.11902203769E+03 -0.28115999823E+03  0.76451876056E+03  0.82322908434E+03  0.00000000000E+00 0. -1.
         -3    1    6    6    0  503  0.25557562858E+03 -0.35308656527E+03  0.10062057095E+04  0.10965577752E+04  0.00000000000E+00 0.  1.
<mgrwt>
<rscale>  0 0.19798853E+04</rscale>
<asrwt>0</asrwt>
<pdfrwt beam="1">  1        2 0.59466629E+00 0.19798853E+04</pdfrwt>
<pdfrwt beam="2">  1       -1 0.39004980E-01 0.19798853E+04</pdfrwt>
<totfact> 0.29834773E+00</totfact>
</mgrwt>
</event>
<event>
12    6  0.1457317E-007  0.1486225E+04  0.7818608E-02  0.8893665E-01
          2   -1    0    0  501    0  0.00000000000E+00  0.00000000000E+00  0.10690284757E+04  0.10690284757E+04  0.00000000000E+00 0. -1.
         -1   -1    0    0    0  501 -0.00000000000E+00 -0.00000000000E+00 -0.51655860268E+03  0.51655860268E+03  0.00000000000E+00 0.  1.
         24    2    1    2    0    0 -0.33726362598E+02 -0.35907707078E+03  0.48881277368E+03  0.61264270704E+03  0.79494329902E+02 0.  0.
        254    2    1    2    0    0  0.33726362598E+02  0.35907707078E+03  0.63657099315E+02  0.97294437132E+03  0.90138488621E+03 0.  0.
         23    2    4    4    0    0 -0.31907317179E+03  0.40404315767E+03  0.22817902757E+03  0.57080650202E+03  0.93251444574E+02 0.  0.
         23    2    4    4    0    0  0.35279953439E+03 -0.44966086897E+02 -0.16452192825E+03  0.40213786929E+03  0.90321318680E+02 0.  0.
          2    1    3    3  502    0 -0.55406410930E+01 -0.27884980767E+03  0.41515981654E+03  0.50014556603E+03  0.00000000000E+00 0. -1.
         -1    1    3    3    0  502 -0.28185721505E+02 -0.80227263102E+02  0.73652957140E+02  0.11249714102E+03  0.00000000000E+00 0.  1.
         11    1    5    5    0    0 -0.11195851045E+03  0.76273366115E+02  0.61334616876E+02  0.14870867382E+03  0.00000000000E+00 0.  1.
        -11    1    5    5    0    0 -0.20711466133E+03  0.32776979156E+03  0.16684441069E+03  0.42209782821E+03  0.00000000000E+00 0. -1.
          4    1    6    6  503    0  0.27069848323E+03  0.46414118830E+01 -0.11450742569E+03  0.29395775558E+03  0.00000000000E+00 0. -1.
         -4    1    6    6    0  503  0.82101051157E+02 -0.49607498780E+02 -0.50014502558E+02  0.10818011371E+03  0.00000000000E+00 0.  1.
<mgrwt>
<rscale>  0 0.14862246E+04</rscale>
<asrwt>0</asrwt>
<pdfrwt beam="1">  1        2 0.16446592E+00 0.14862246E+04</pdfrwt>
<pdfrwt beam="2">  1       -1 0.79470554E-01 0.14862246E+04</pdfrwt>
<totfact> 0.39757983E+01</totfact>
</mgrwt>
</event>
<event>
12    6  0.1457317E-007  0.9798246E+03  0.7818608E-02  0.9330954E-01
          2   -1    0    0  501    0  0.00000000000E+00  0.00000000000E+00  0.37884185536E+03  0.37884185536E+03  0.00000000000E+00 0. -1.
         -1   -1    0    0    0  501 -0.00000000000E+00 -0.00000000000E+00 -0.63354683755E+03  0.63354683755E+03  0.00000000000E+00 0.  1.
         24    2    1    2    0    0  0.56910157450E+02  0.37689837603E+02 -0.11344191285E+03  0.15127277263E+03  0.73178509607E+02 0.  0.
        254    2    1    2    0    0 -0.56910157450E+02 -0.37689837603E+02 -0.14126306934E+03  0.86111592028E+03  0.84670306691E+03 0.  0.
         23    2    4    4    0    0  0.38882885840E+01  0.25415405832E+02  0.34597819672E+03  0.35747285788E+03  0.86167684619E+02 0.  0.
         23    2    4    4    0    0 -0.60798446034E+02 -0.63105243435E+02 -0.48724126606E+03  0.50364306240E+03  0.92593521161E+02 0.  0.
          2    1    3    3  502    0  0.49108499110E+02 -0.62169712217E+01 -0.33618499123E+02  0.59837270152E+02  0.00000000000E+00 0. -1.
         -1    1    3    3    0  502  0.78016583399E+01  0.43906808825E+02 -0.79823413729E+02  0.91435502477E+02  0.00000000000E+00 0.  1.
         11    1    5    5    0    0 -0.28939703214E+02  0.27682416976E+02  0.28829902850E+03  0.29106726450E+03  0.00000000000E+00 0. -1.
        -11    1    5    5    0    0  0.32827991798E+02 -0.22670111436E+01  0.57679168225E+02  0.66405593380E+02  0.00000000000E+00 0.  1.
          4    1    6    6  503    0  0.10913422050E+02 -0.53405018774E+02 -0.18528300167E+03  0.19313464091E+03  0.00000000000E+00 0. -1.
         -4    1    6    6    0  503 -0.71711868084E+02 -0.97002246613E+01 -0.30195826439E+03  0.31050842149E+03  0.00000000000E+00 0.  1.
<mgrwt>
<rscale>  0 0.97982460E+03</rscale>
<asrwt>0</asrwt>
<pdfrwt beam="1">  1        2 0.58283362E-01 0.97982460E+03</pdfrwt>
<pdfrwt beam="2">  1       -1 0.97468744E-01 0.97982460E+03</pdfrwt>
<totfact> 0.97809084E+01</totfact>
</mgrwt>
</event>
<event>
12    6  0.1457317E-007  0.2226046E+04  0.7818608E-02  0.8507665E-01
          2   -1    0    0  501    0  0.00000000000E+00  0.00000000000E+00  0.20262178146E+04  0.20262178146E+04  0.00000000000E+00 0. -1.
         -1   -1    0    0    0  501 -0.00000000000E+00 -0.00000000000E+00 -0.61139545976E+03  0.61139545976E+03  0.00000000000E+00 0.  1.
         24    2    1    2    0    0 -0.15158440522E+03  0.20252680638E+03  0.16710511780E+04  0.16919610673E+04  0.79531594684E+02 0.  0.
        254    2    1    2    0    0  0.15158440522E+03 -0.20252680638E+03 -0.25622882321E+03  0.94565220702E+03  0.87441977767E+03 0.  0.
         23    2    4    4    0    0 -0.22120000547E+03 -0.31521953114E+03  0.10138275585E+03  0.40878306841E+03  0.92370658778E+02 0.  0.
         23    2    4    4    0    0  0.37278441068E+03  0.11269272476E+03 -0.35761157905E+03  0.53686913861E+03  0.93137336527E+02 0.  0.
          2    1    3    3  502    0 -0.13611504244E+03  0.20792997182E+03  0.15847559954E+04  0.16041239799E+04  0.00000000000E+00 0. -1.
         -1    1    3    3    0  502 -0.15469362783E+02 -0.54031654346E+01  0.86295182647E+02  0.87837087439E+02  0.00000000000E+00 0.  1.
         11    1    5    5    0    0 -0.22270852423E+03 -0.26784014788E+03  0.84253871262E+02  0.35837989118E+03  0.00000000000E+00 0.  1.
        -11    1    5    5    0    0  0.15085187675E+01 -0.47379383264E+02  0.17128884587E+02  0.50403177226E+02  0.00000000000E+00 0. -1.
          1    1    6    6  503    0  0.36145080360E+02 -0.88132522920E+01 -0.63644308123E+02  0.73720676927E+02  0.00000000000E+00 0. -1.
         -1    1    6    6    0  503  0.33663933032E+03  0.12150597705E+03 -0.29396727093E+03  0.46314846168E+03  0.00000000000E+00 0.  1.
<mgrwt>
<rscale>  0 0.22260462E+04</rscale>
<asrwt>0</asrwt>
<pdfrwt beam="1">  1        2 0.31172581E+00 0.22260462E+04</pdfrwt>
<pdfrwt beam="2">  1       -1 0.94060841E-01 0.22260462E+04</pdfrwt>
<totfact> 0.73425881E+00</totfact>
</mgrwt>
</event>
<event>
12    6  0.1457317E-007  0.1974713E+04  0.7818608E-02  0.8618535E-01
         -1   -1    0    0    0  501 -0.00000000000E+00  0.00000000000E+00  0.10882906100E+04  0.10882906100E+04  0.00000000000E+00 0.  1.
          2   -1    0    0  501    0  0.00000000000E+00 -0.00000000000E+00 -0.89578359363E+03  0.89578359363E+03  0.00000000000E+00 0. -1.
         24    2    1    2    0    0  0.39782740353E+03  0.58601349426E+03  0.42140551599E+03  0.82803018184E+03  0.79830537215E+02 0.  0.
        254    2    1    2    0    0 -0.39782740353E+03 -0.58601349426E+03 -0.22889849960E+03  0.11560440218E+04  0.88451387710E+03 0.  0.
         23    2    4    4    0    0  0.23371175156E+03  0.22194130082E+02 -0.37913880833E+02  0.25480078651E+03  0.91499815407E+02 0.  0.
         23    2    4    4    0    0 -0.63153915509E+03 -0.60820762435E+03 -0.19098461877E+03  0.90124323530E+03  0.83702006237E+02 0.  0.
          2    1    3    3  502    0  0.24887381486E+03  0.32408721937E+03  0.20580326460E+03  0.45752124017E+03  0.00000000000E+00 0. -1.
         -1    1    3    3    0  502  0.14895358868E+03  0.26192627489E+03  0.21560225138E+03  0.37050894167E+03  0.00000000000E+00 0.  1.
         11    1    5    5    0    0  0.16066224599E+03  0.57193926311E+02 -0.32588115842E+02  0.17362455987E+03  0.00000000000E+00 0.  1.
        -11    1    5    5    0    0  0.73049505562E+02 -0.34999796229E+02 -0.53257649907E+01  0.81176226641E+02  0.00000000000E+00 0. -1.
          3    1    6    6  503    0 -0.10467841355E+03 -0.91982351687E+02 -0.61652789018E+02  0.15237909856E+03  0.00000000000E+00 0. -1.
         -3    1    6    6    0  503 -0.52686074154E+03 -0.51622527266E+03 -0.12933182975E+03  0.74886413674E+03  0.00000000000E+00 0.  1.
<mgrwt>
<rscale>  0 0.19747130E+04</rscale>
<asrwt>0</asrwt>
<pdfrwt beam="1">  1        2 0.13781286E+00 0.19747130E+04</pdfrwt>
<pdfrwt beam="2">  1       -1 0.16742932E+00 0.19747130E+04</pdfrwt>
<totfact> 0.80594631E+00</totfact>
</mgrwt>
</event>
<event>
12    6  0.1457317E-007  0.3172404E+04  0.7818608E-02  0.8196144E-01
         -1   -1    0    0    0  501 -0.00000000000E+00  0.00000000000E+00  0.16613992020E+04  0.16613992020E+04  0.00000000000E+00 0.  1.
          2   -1    0    0  501    0  0.00000000000E+00 -0.00000000000E+00 -0.15144081004E+04  0.15144081004E+04  0.00000000000E+00 0. -1.
         24    2    1    2    0    0  0.74128622304E+03  0.48513924698E+03  0.12270199348E+04  0.15155315975E+04  0.79954670168E+02 0.  0.
        254    2    1    2    0    0 -0.74128622304E+03 -0.48513924698E+03 -0.10800288332E+04  0.16602757048E+04  0.89732256297E+03 0.  0.
         23    2    4    4    0    0 -0.28245754710E+03  0.21844035155E+03 -0.55343064645E+03  0.66482949433E+03  0.90632902410E+02 0.  0.
         23    2    4    4    0    0 -0.45882867594E+03 -0.70357959853E+03 -0.52659818680E+03  0.99544621051E+03  0.89774731168E+02 0.  0.
          2    1    3    3  502    0 -0.20608834857E+01  0.86207170451E+00  0.20151235077E+01  0.30085097833E+01  0.00000000000E+00 0. -1.
         -1    1    3    3    0  502  0.74334710652E+03  0.48427717528E+03  0.12250048113E+04  0.15125230877E+04  0.00000000000E+00 0.  1.
         11    1    5    5    0    0 -0.28157130044E+03  0.18973989544E+03 -0.50511345988E+03  0.60862404857E+03  0.00000000000E+00 0. -1.
        -11    1    5    5    0    0 -0.88624665954E+00  0.28700456112E+02 -0.48317186571E+02  0.56205445753E+02  0.00000000000E+00 0.  1.
          1    1    6    6  503    0 -0.30418709568E+03 -0.41907483269E+03 -0.28207994727E+03  0.58968008379E+03  0.00000000000E+00 0. -1.
         -1    1    6    6    0  503 -0.15464158026E+03 -0.28450476584E+03 -0.24451823953E+03  0.40576612672E+03  0.00000000000E+00 0.  1.
<mgrwt>
<rscale>  0 0.31724038E+04</rscale>
<asrwt>0</asrwt>
<pdfrwt beam="1">  1        2 0.23298586E+00 0.31724038E+04</pdfrwt>
<pdfrwt beam="2">  1       -1 0.25559988E+00 0.31724038E+04</pdfrwt>
<totfact> 0.76722507E-01</totfact>
</mgrwt>
</event>
<event>
12    6  0.1457317E-007  0.1630372E+04  0.7818608E-02  0.8802104E-01
          2   -1    0    0  501    0  0.00000000000E+00  0.00000000000E+00  0.17880484543E+04  0.17880484543E+04  0.00000000000E+00 0. -1.
         -1   -1    0    0    0  501 -0.00000000000E+00 -0.00000000000E+00 -0.37164997511E+03  0.37164997511E+03  0.00000000000E+00 0.  1.
         24    2    1    2    0    0  0.44296131794E+03  0.34556788758E+03  0.40890204505E+03  0.69946686286E+03  0.80131864329E+02 0.  0.
        254    2    1    2    0    0 -0.44296131794E+03 -0.34556788758E+03  0.10074964342E+04  0.14602315666E+04  0.89531852935E+03 0.  0.
         23    2    4    4    0    0 -0.70178847069E+03 -0.32499782480E+03  0.69714088234E+03  0.10453692307E+04  0.93063284703E+02 0.  0.
         23    2    4    4    0    0  0.25882715275E+03 -0.20570062781E+02  0.31035555182E+03  0.41486233585E+03  0.91518122142E+02 0.  0.
          4    1    3    3  502    0  0.35317726210E+03  0.26235191358E+03  0.35667359913E+03  0.56637334095E+03  0.00000000000E+00 0. -1.
         -3    1    3    3    0  502  0.89784055840E+02  0.83215974000E+02  0.52228445918E+02  0.13309352191E+03  0.00000000000E+00 0.  1.
         11    1    5    5    0    0 -0.15474399028E+03 -0.11576969475E+03  0.17619876039E+03  0.26152309251E+03  0.00000000000E+00 0. -1.
        -11    1    5    5    0    0 -0.54704448041E+03 -0.20922813004E+03  0.52094212195E+03  0.78384613820E+03  0.00000000000E+00 0.  1.
          1    1    6    6  503    0  0.16559786895E+03  0.23550005946E+02  0.15281076520E+03  0.22655769009E+03  0.00000000000E+00 0. -1.
         -1    1    6    6    0  503  0.93229283800E+02 -0.44120068726E+02  0.15754478663E+03  0.18830464576E+03  0.00000000000E+00 0.  1.
<mgrwt>
<rscale>  0 0.16303719E+04</rscale>
<asrwt>0</asrwt>
<pdfrwt beam="1">  1        2 0.27508437E+00 0.16303719E+04</pdfrwt>
<pdfrwt beam="2">  1       -1 0.57176920E-01 0.16303719E+04</pdfrwt>
<totfact> 0.29574398E+01</totfact>
</mgrwt>
</event>
