<event>
12    3  0.4192740E-008  0.1851052E+04  0.7818608E-02  0.8679612E-01
         -2   -1    0    0    0  501 -0.00000000000E+00  0.00000000000E+00  0.84577460707E+03  0.84577460707E+03  0.00000000000E+00 0.  1.
          2   -1    0    0  501    0  0.00000000000E+00 -0.00000000000E+00 -0.10127969375E+04  0.10127969375E+04  0.00000000000E+00 0. -1.
         23    2    1    2    0    0  0.63824432001E+03 -0.26329182539E+03 -0.19582071815E+03  0.72352341777E+03  0.91989048628E+02 0.  0.
        254    2    1    2    0    0 -0.63824432001E+03  0.26329182539E+03  0.28798387670E+02  0.11350481268E+04  0.90045905281E+03 0.  0.
         23    2    4    4    0    0 -0.49376741296E+03  0.57874110748E+03 -0.46928569014E+02  0.76762373394E+03  0.91084459316E+02 0.  0.
         23    2    4    4    0    0 -0.14447690705E+03 -0.31544928210E+03  0.75726956684E+02  0.36742439290E+03  0.94256492015E+02 0.  0.
          1    1    3    3  502    0  0.43224237785E+03 -0.17169537186E+03 -0.86900992671E+02  0.47314327265E+03  0.00000000000E+00 0.  1.
         -1    1    3    3    0  502  0.20600194215E+03 -0.91596453527E+02 -0.10891972548E+03  0.25038014512E+03  0.00000000000E+00 0. -1.
         13    1    5    5    0    0 -0.18796171894E+03  0.21295398989E+03 -0.61503483022E+02  0.29062293099E+03  0.00000000000E+00 0. -1.
        -13    1    5    5    0    0 -0.30580569402E+03  0.36578711760E+03  0.14574914009E+02  0.47700080295E+03  0.00000000000E+00 0.  1.
          4    1    6    6  503    0 -0.64426448222E+02 -0.73169849201E+02  0.53728308962E+02  0.11131632965E+03  0.00000000000E+00 0. -1.
         -4    1    6    6    0  503 -0.80050458824E+02 -0.24227943290E+03  0.21998647722E+02  0.25610806326E+03  0.00000000000E+00 0.  1.
<mgrwt>
<rscale>  0 0.18510515E+04</rscale>
<asrwt>0</asrwt>
<pdfrwt beam="1">  1        2 0.15581491E+00 0.18510515E+04</pdfrwt>
<pdfrwt beam="2">  1       -2 0.13011917E+00 0.18510515E+04</pdfrwt>
<totfact> 0.10069605E+01</totfact>
</mgrwt>
</event>
<event>
12    3  0.4192740E-008  0.1208400E+04  0.7818608E-02  0.9105536E-01
          2   -1    0    0  501    0  0.00000000000E+00  0.00000000000E+00  0.44195769139E+03  0.44195769139E+03  0.00000000000E+00 0. -1.
         -2   -1    0    0    0  501 -0.00000000000E+00 -0.00000000000E+00 -0.82600108678E+03  0.82600108678E+03  0.00000000000E+00 0.  1.
         23    2    1    2    0    0 -0.22333119679E+03  0.69715734347E+02 -0.97602263234E+01  0.25242262064E+03  0.94259271781E+02 0.  0.
        254    2    1    2    0    0  0.22333119679E+03 -0.69715734347E+02 -0.37428316907E+03  0.10155361575E+04  0.91459755605E+03 0.  0.
         23    2    4    4    0    0 -0.24125183985E+03 -0.22594924872E+00  0.15643129972E+03  0.30099865461E+03  0.89033349160E+02 0.  0.
         23    2    4    4    0    0  0.46458303664E+03 -0.69489785098E+02 -0.53071446879E+03  0.71453750292E+03  0.90773165306E+02 0.  0.
          1    1    3    3  502    0 -0.22861356562E+03  0.75284982080E+02 -0.89002382082E+00  0.24069229954E+03  0.00000000000E+00 0. -1.
         -1    1    3    3    0  502  0.52823688302E+01 -0.55692477330E+01 -0.88702025026E+01  0.11730321104E+02  0.00000000000E+00 0.  1.
         13    1    5    5    0    0 -0.19029857300E+03 -0.29360657609E+02  0.14538765776E+03  0.24127404778E+03  0.00000000000E+00 0.  1.
        -13    1    5    5    0    0 -0.50953266845E+02  0.29134708360E+02  0.11043641954E+02  0.59724606830E+02  0.00000000000E+00 0. -1.
          3    1    6    6  503    0  0.43042624190E+01 -0.45375457978E+01  0.28636691665E+01  0.68787061235E+01  0.00000000000E+00 0. -1.
         -3    1    6    6    0  503  0.46027877422E+03 -0.64952239301E+02 -0.53357813795E+03  0.70765879680E+03  0.00000000000E+00 0.  1.
<mgrwt>
<rscale>  0 0.12083998E+04</rscale>
<asrwt>0</asrwt>
<pdfrwt beam="1">  1        2 0.67993492E-01 0.12083998E+04</pdfrwt>
<pdfrwt beam="2">  1       -2 0.12707709E+00 0.12083998E+04</pdfrwt>
<totfact> 0.32191568E+01</totfact>
</mgrwt>
</event>
<event>
12    3  0.4192740E-008  0.1061213E+04  0.7818608E-02  0.9243843E-01
         -2   -1    0    0    0  501 -0.00000000000E+00  0.00000000000E+00  0.17681996777E+03  0.17681996777E+03  0.00000000000E+00 0.  1.
          2   -1    0    0  501    0  0.00000000000E+00 -0.00000000000E+00 -0.15922596788E+04  0.15922596788E+04  0.00000000000E+00 0. -1.
         23    2    1    2    0    0 -0.52381812164E+02 -0.98905354807E+02 -0.19085942052E+03  0.23974752958E+03  0.92333288051E+02 0.  0.
        254    2    1    2    0    0  0.52381812164E+02  0.98905354807E+02 -0.12245802905E+04  0.15293321169E+04  0.90924898276E+03 0.  0.
         23    2    4    4    0    0 -0.27698642206E+03  0.20194011947E+03 -0.10929859695E+04  0.11489743359E+04  0.89567880480E+02 0.  0.
         23    2    4    4    0    0  0.32936823423E+03 -0.10303476466E+03 -0.13159432097E+03  0.38035778103E+03  0.90859120793E+02 0.  0.
          1    1    3    3  502    0 -0.23449542834E+02  0.14710553584E+02 -0.32056295649E+02  0.42354309540E+02  0.00000000000E+00 0. -1.
         -1    1    3    3    0  502 -0.28932269329E+02 -0.11361590839E+03 -0.15880312487E+03  0.19739322004E+03  0.00000000000E+00 0.  1.
         13    1    5    5    0    0 -0.22321638564E+03  0.18663172487E+03 -0.81389942612E+03  0.86434323702E+03  0.00000000000E+00 0. -1.
        -13    1    5    5    0    0 -0.53770036423E+02  0.15308394593E+02 -0.27908654338E+03  0.28463109890E+03  0.00000000000E+00 0.  1.
          3    1    6    6  503    0  0.26229510316E+03 -0.11298273164E+03 -0.84609760231E+02  0.29786344240E+03  0.00000000000E+00 0. -1.
         -3    1    6    6    0  503  0.67073131069E+02  0.99479669824E+01 -0.46984560741E+02  0.82494338633E+02  0.00000000000E+00 0.  1.
<mgrwt>
<rscale>  0 0.10612131E+04</rscale>
<asrwt>0</asrwt>
<pdfrwt beam="1">  1        2 0.24496303E+00 0.10612131E+04</pdfrwt>
<pdfrwt beam="2">  1       -2 0.27203072E-01 0.10612131E+04</pdfrwt>
<totfact> 0.13773559E+02</totfact>
</mgrwt>
</event>
<event>
12    3  0.4192740E-008  0.1448211E+04  0.7818608E-02  0.8919642E-01
          2   -1    0    0  501    0  0.00000000000E+00  0.00000000000E+00  0.23090055630E+04  0.23090055630E+04  0.00000000000E+00 0. -1.
         -2   -1    0    0    0  501 -0.00000000000E+00 -0.00000000000E+00 -0.22707981006E+03  0.22707981006E+03  0.00000000000E+00 0.  1.
         23    2    1    2    0    0 -0.16397008070E+03 -0.29428657871E+01 -0.36841251052E+02  0.19174220111E+03  0.92265627868E+02 0.  0.
        254    2    1    2    0    0  0.16397008070E+03  0.29428657871E+01  0.21187670040E+04  0.23443431719E+04  0.98988708591E+03 0.  0.
         23    2    4    4    0    0 -0.10674912440E+03  0.23169027361E+03  0.96676112267E+02  0.28898458864E+03  0.95341823682E+02 0.  0.
         23    2    4    4    0    0  0.27071920510E+03 -0.22874740782E+03  0.20220908917E+04  0.20553585833E+04  0.10016519855E+03 0.  0.
          4    1    3    3  502    0 -0.85507289306E+01 -0.51486416719E+00  0.23492220501E+02  0.25005288929E+02  0.00000000000E+00 0. -1.
         -4    1    3    3    0  502 -0.15541935177E+03 -0.24280016199E+01 -0.60333471553E+02  0.16673691219E+03  0.00000000000E+00 0.  1.
         13    1    5    5    0    0 -0.11170157934E+03  0.13418678357E+03  0.65933780967E+02  0.18662957746E+03  0.00000000000E+00 0. -1.
        -13    1    5    5    0    0  0.49524549345E+01  0.97503490038E+02  0.30742331300E+02  0.10235501118E+03  0.00000000000E+00 0.  1.
          4    1    6    6  503    0  0.20925915795E+03 -0.20754573394E+03  0.14547937656E+04  0.14843481826E+04  0.00000000000E+00 0. -1.
         -4    1    6    6    0  503  0.61460047143E+02 -0.21201673887E+02  0.56729712616E+03  0.57101040071E+03  0.00000000000E+00 0.  1.
<mgrwt>
<rscale>  0 0.14482107E+04</rscale>
<asrwt>0</asrwt>
<pdfrwt beam="1">  1        2 0.35523161E+00 0.14482107E+04</pdfrwt>
<pdfrwt beam="2">  1       -2 0.34935357E-01 0.14482107E+04</pdfrwt>
<totfact> 0.33473515E+01</totfact>
</mgrwt>
</event>
<event>
12    3  0.4192740E-008  0.2040910E+04  0.7818608E-02  0.8587729E-01
          2   -1    0    0  501    0  0.00000000000E+00  0.00000000000E+00  0.79124201188E+03  0.79124201188E+03  0.00000000000E+00 0. -1.
         -2   -1    0    0    0  501 -0.00000000000E+00 -0.00000000000E+00 -0.13160676650E+04  0.13160676650E+04  0.00000000000E+00 0.  1.
         23    2    1    2    0    0 -0.66565534370E+02  0.52019794974E+02 -0.10423344710E+04  0.10500027647E+04  0.94380225082E+02 0.  0.
        254    2    1    2    0    0  0.66565534370E+02 -0.52019794974E+02  0.51750881796E+03  0.10573069122E+04  0.91812063499E+03 0.  0.
         23    2    4    4    0    0 -0.17901228225E+03  0.30669021054E+03  0.49112262620E+03  0.61266494183E+03  0.89736361406E+02 0.  0.
         23    2    4    4    0    0  0.24557781662E+03 -0.35871000551E+03  0.26386191769E+02  0.44464197033E+03  0.89604233134E+02 0.  0.
          1    1    3    3  502    0 -0.60565541548E+02 -0.12442964803E+02 -0.48881125026E+03  0.49270625182E+03  0.00000000000E+00 0. -1.
         -1    1    3    3    0  502 -0.59999928223E+01  0.64462759777E+02 -0.55352322078E+03  0.55729651286E+03  0.00000000000E+00 0.  1.
         13    1    5    5    0    0 -0.11956991424E+03  0.24294220702E+03  0.42209707436E+03  0.50148162531E+03  0.00000000000E+00 0. -1.
        -13    1    5    5    0    0 -0.59442368009E+02  0.63748003519E+02  0.69025551837E+02  0.11118331653E+03  0.00000000000E+00 0.  1.
          4    1    6    6  503    0  0.14836085891E+03 -0.27407852575E+03 -0.61028042320E+01  0.31171658114E+03  0.00000000000E+00 0. -1.
         -4    1    6    6    0  503  0.97216957703E+02 -0.84631479758E+02  0.32488996001E+02  0.13292538919E+03  0.00000000000E+00 0.  1.
<mgrwt>
<rscale>  0 0.20409096E+04</rscale>
<asrwt>0</asrwt>
<pdfrwt beam="1">  1        2 0.12172954E+00 0.20409096E+04</pdfrwt>
<pdfrwt beam="2">  1       -2 0.20247195E+00 0.20409096E+04</pdfrwt>
<totfact> 0.41450864E+00</totfact>
</mgrwt>
</event>
<event>
12    3  0.4192740E-008  0.1650926E+04  0.7818608E-02  0.8789859E-01
          2   -1    0    0  501    0  0.00000000000E+00  0.00000000000E+00  0.23175546999E+04  0.23175546999E+04  0.00000000000E+00 0. -1.
         -2   -1    0    0    0  501 -0.00000000000E+00 -0.00000000000E+00 -0.29401201514E+03  0.29401201514E+03  0.00000000000E+00 0.  1.
         23    2    1    2    0    0  0.59039178387E+02 -0.26780356393E+03  0.15229713652E+04  0.15501571113E+04  0.91328621177E+02 0.  0.
        254    2    1    2    0    0 -0.59039178387E+02  0.26780356393E+03  0.50057131957E+03  0.10614096037E+04  0.89488229813E+03 0.  0.
         23    2    4    4    0    0  0.34345979108E+03  0.18608639045E+03 -0.87335522914E+01  0.40114538258E+03  0.90821639671E+02 0.  0.
         23    2    4    4    0    0 -0.40249896946E+03  0.81717173474E+02  0.50930487186E+03  0.66026422116E+03  0.88737097009E+02 0.  0.
          1    1    3    3  502    0  0.57806592770E+02 -0.27124911318E+03  0.15208424943E+04  0.15459235350E+04  0.00000000000E+00 0. -1.
         -1    1    3    3    0  502  0.12325856170E+01  0.34455492493E+01  0.21288708754E+01  0.42335762822E+01  0.00000000000E+00 0.  1.
         13    1    5    5    0    0  0.26492327276E+03  0.15194055955E+03  0.30551745823E+02  0.30692618536E+03  0.00000000000E+00 0.  1.
        -13    1    5    5    0    0  0.78536518317E+02  0.34145830907E+02 -0.39285298115E+02  0.94219197225E+02  0.00000000000E+00 0. -1.
          1    1    6    6  503    0 -0.21423090052E+03  0.31533537413E+02  0.33467167520E+03  0.39861557032E+03  0.00000000000E+00 0. -1.
         -1    1    6    6    0  503 -0.18826806894E+03  0.50183636061E+02  0.17463319665E+03  0.26164865083E+03  0.00000000000E+00 0.  1.
<mgrwt>
<rscale>  0 0.16509257E+04</rscale>
<asrwt>0</asrwt>
<pdfrwt beam="1">  1        2 0.35654687E+00 0.16509257E+04</pdfrwt>
<pdfrwt beam="2">  1       -2 0.45232619E-01 0.16509257E+04</pdfrwt>
<totfact> 0.19636576E+01</totfact>
</mgrwt>
</event>
<event>
12    3  0.4192740E-008  0.2113376E+04  0.7818608E-02  0.8555374E-01
          1   -1    0    0  501    0  0.00000000000E+00  0.00000000000E+00  0.75897529887E+03  0.75897529887E+03  0.00000000000E+00 0.  1.
         -1   -1    0    0    0  501 -0.00000000000E+00 -0.00000000000E+00 -0.14711799355E+04  0.14711799355E+04  0.00000000000E+00 0. -1.
         23    2    1    2    0    0 -0.51349545007E+03  0.59679269547E+03  0.67456980427E+02  0.79548061993E+03  0.91650825752E+02 0.  0.
        254    2    1    2    0    0  0.51349545007E+03 -0.59679269547E+03 -0.77966161709E+03  0.14346746145E+04  0.91136157129E+03 0.  0.
         23    2    4    4    0    0  0.23743109967E+03 -0.63585489669E+03 -0.88844690548E+03  0.11218048110E+04  0.91777739383E+02 0.  0.
         23    2    4    4    0    0  0.27606435039E+03  0.39062201217E+02  0.10878528839E+03  0.31286980344E+03  0.91191522711E+02 0.  0.
          1    1    3    3  502    0 -0.18249809538E+02  0.56911044084E+02  0.10101485581E+02  0.60613220487E+02  0.00000000000E+00 0. -1.
         -1    1    3    3    0  502 -0.49524564053E+03  0.53988165139E+03  0.57355494846E+02  0.73486739944E+03  0.00000000000E+00 0.  1.
         13    1    5    5    0    0 -0.86661359027E+00 -0.69072021110E+02 -0.72488432943E+02  0.10013125401E+03  0.00000000000E+00 0.  1.
        -13    1    5    5    0    0  0.23829771326E+03 -0.56678287558E+03 -0.81595847253E+03  0.10216735570E+04  0.00000000000E+00 0. -1.
          4    1    6    6  503    0  0.20254064718E+03  0.63534812126E+02  0.10073985920E+03  0.23496362557E+03  0.00000000000E+00 0. -1.
         -4    1    6    6    0  503  0.73523703219E+02 -0.24472610910E+02  0.80454291899E+01  0.77906177872E+02  0.00000000000E+00 0.  1.
<mgrwt>
<rscale>  0 0.21133757E+04</rscale>
<asrwt>0</asrwt>
<pdfrwt beam="1">  1        1 0.11676543E+00 0.21133757E+04</pdfrwt>
<pdfrwt beam="2">  1       -1 0.22633537E+00 0.21133757E+04</pdfrwt>
<totfact> 0.22044671E+00</totfact>
</mgrwt>
</event>
<event>
12    3  0.4192740E-008  0.1198265E+04  0.7818608E-02  0.9114376E-01
         -2   -1    0    0    0  501 -0.00000000000E+00  0.00000000000E+00  0.18912171762E+03  0.18912171762E+03  0.00000000000E+00 0.  1.
          2   -1    0    0  501    0  0.00000000000E+00 -0.00000000000E+00 -0.18980358838E+04  0.18980358838E+04  0.00000000000E+00 0. -1.
         23    2    1    2    0    0  0.15074053293E+03 -0.75684961464E+02 -0.57406151062E+02  0.20099876504E+03  0.93027499743E+02 0.  0.
        254    2    1    2    0    0 -0.15074053293E+03  0.75684961464E+02 -0.16515080151E+04  0.18861588364E+04  0.89535775551E+03 0.  0.
         23    2    4    4    0    0 -0.27370663331E+02 -0.30118001762E+03 -0.18977207945E+03  0.36883018855E+03  0.92540313500E+02 0.  0.
         23    2    4    4    0    0 -0.12336986960E+03  0.37686497908E+03 -0.14617359357E+04  0.15173286478E+04  0.91470993699E+02 0.  0.
          2    1    3    3  502    0  0.13275348286E+03 -0.81341144420E+02 -0.77097979636E+02  0.17373533737E+03  0.00000000000E+00 0. -1.
         -2    1    3    3    0  502  0.17987050072E+02  0.56561829553E+01  0.19691828574E+02  0.27263427673E+02  0.00000000000E+00 0.  1.
         13    1    5    5    0    0  0.10172596683E+01 -0.25344658347E+03 -0.18357769432E+03  0.31294883822E+03  0.00000000000E+00 0. -1.
        -13    1    5    5    0    0 -0.28387922999E+02 -0.47733434148E+02 -0.61943851305E+01  0.55881350332E+02  0.00000000000E+00 0.  1.
          4    1    6    6  503    0 -0.13584417007E+03  0.30342200679E+03 -0.11884019180E+04  0.12340249881E+04  0.00000000000E+00 0. -1.
         -4    1    6    6    0  503  0.12474300465E+02  0.73442972290E+02 -0.27333401771E+03  0.28330365968E+03  0.00000000000E+00 0.  1.
<mgrwt>
<rscale>  0 0.11982651E+04</rscale>
<asrwt>0</asrwt>
<pdfrwt beam="1">  1        2 0.29200554E+00 0.11982651E+04</pdfrwt>
<pdfrwt beam="2">  1       -2 0.29095647E-01 0.11982651E+04</pdfrwt>
<totfact> 0.81618383E+01</totfact>
</mgrwt>
</event>
<event>
12    3  0.4192740E-008  0.3518696E+04  0.7818608E-02  0.8109374E-01
          1   -1    0    0  501    0  0.00000000000E+00  0.00000000000E+00  0.13243609557E+04  0.13243609557E+04  0.00000000000E+00 0. -1.
         -1   -1    0    0    0  501 -0.00000000000E+00 -0.00000000000E+00 -0.23372065802E+04  0.23372065802E+04  0.00000000000E+00 0.  1.
         23    2    1    2    0    0  0.79924717238E+03 -0.92690928983E+02 -0.19615829241E+04  0.21220768864E+04  0.89527050366E+02 0.  0.
        254    2    1    2    0    0 -0.79924717238E+03  0.92690928983E+02  0.94873729959E+03  0.15394906495E+04  0.90694065151E+03 0.  0.
         23    2    4    4    0    0 -0.27432654242E+01 -0.63617347800E+02  0.66645095447E+03  0.67543105348E+03  0.89417788211E+02 0.  0.
         23    2    4    4    0    0 -0.79650390695E+03  0.15630827678E+03  0.28228634511E+03  0.86405959600E+03  0.89792280403E+02 0.  0.
          4    1    3    3  502    0  0.46581850057E+03 -0.46408056613E+02 -0.10250866804E+04  0.11269176037E+04  0.00000000000E+00 0.  1.
         -4    1    3    3    0  502  0.33342867180E+03 -0.46282872370E+02 -0.93649624367E+03  0.99515928266E+03  0.00000000000E+00 0. -1.
         13    1    5    5    0    0  0.26866693874E+02 -0.17704960097E+02  0.76979994801E+02  0.83433832774E+02  0.00000000000E+00 0. -1.
        -13    1    5    5    0    0 -0.29609959298E+02 -0.45912387704E+02  0.58947095967E+03  0.59199722071E+03  0.00000000000E+00 0.  1.
          2    1    6    6  503    0 -0.18871152653E+03  0.49609609788E+02  0.30103335171E+02  0.19743192350E+03  0.00000000000E+00 0. -1.
         -2    1    6    6    0  503 -0.60779238042E+03  0.10669866700E+03  0.25218300994E+03  0.66662767250E+03  0.00000000000E+00 0.  1.
<mgrwt>
<rscale>  0 0.35186959E+04</rscale>
<asrwt>0</asrwt>
<pdfrwt beam="1">  1        1 0.20374784E+00 0.35186959E+04</pdfrwt>
<pdfrwt beam="2">  1       -1 0.35957024E+00 0.35186959E+04</pdfrwt>
<totfact> 0.94944104E-02</totfact>
</mgrwt>
</event>
<event>
12    3  0.4192740E-008  0.1444733E+04  0.7818608E-02  0.8922060E-01
         -1   -1    0    0    0  501 -0.00000000000E+00  0.00000000000E+00  0.71854524261E+03  0.71854524261E+03  0.00000000000E+00 0.  1.
          1   -1    0    0  501    0  0.00000000000E+00 -0.00000000000E+00 -0.72620840329E+03  0.72620840329E+03  0.00000000000E+00 0. -1.
         23    2    1    2    0    0  0.40911446265E+03 -0.47555561086E+02  0.44387543276E+02  0.42338564844E+03  0.87458437964E+02 0.  0.
        254    2    1    2    0    0 -0.40911446265E+03  0.47555561086E+02 -0.52050703960E+02  0.10213679975E+04  0.93319190711E+03 0.  0.
         23    2    4    4    0    0 -0.44907109005E+03 -0.24474804141E+03  0.26158158161E+03  0.58153898960E+03  0.90533004444E+02 0.  0.
         23    2    4    4    0    0  0.39956627407E+02  0.29230360249E+03 -0.31363228557E+03  0.43982900785E+03  0.89701825482E+02 0.  0.
          2    1    3    3  502    0  0.33066515912E+03 -0.27581834629E+02  0.15913423417E+01  0.33181732539E+03  0.00000000000E+00 0. -1.
         -2    1    3    3    0  502  0.78449303529E+02 -0.19973726457E+02  0.42796200934E+02  0.91568323055E+02  0.00000000000E+00 0.  1.
         13    1    5    5    0    0 -0.14627790579E+03 -0.44381289199E+02  0.10875304837E+03  0.18760103966E+03  0.00000000000E+00 0.  1.
        -13    1    5    5    0    0 -0.30279318427E+03 -0.20036675221E+03  0.15282853323E+03  0.39393794994E+03  0.00000000000E+00 0. -1.
          3    1    6    6  503    0  0.32594121817E+02  0.25755588401E+03 -0.22211746345E+03  0.34166295927E+03  0.00000000000E+00 0. -1.
         -3    1    6    6    0  503  0.73625055901E+01  0.34747718486E+02 -0.91514822115E+02  0.98166048587E+02  0.00000000000E+00 0.  1.
<mgrwt>
<rscale>  0 0.14447333E+04</rscale>
<asrwt>0</asrwt>
<pdfrwt beam="1">  1        1 0.11172437E+00 0.14447333E+04</pdfrwt>
<pdfrwt beam="2">  1       -1 0.11054542E+00 0.14447333E+04</pdfrwt>
<totfact> 0.18879888E+01</totfact>
</mgrwt>
</event>
<event>
12    3  0.4192740E-008  0.2540391E+04  0.7818608E-02  0.8388736E-01
         -2   -1    0    0    0  501 -0.00000000000E+00  0.00000000000E+00  0.10215788592E+04  0.10215788592E+04  0.00000000000E+00 0.  1.
          2   -1    0    0  501    0  0.00000000000E+00 -0.00000000000E+00 -0.15793170374E+04  0.15793170374E+04  0.00000000000E+00 0. -1.
         23    2    1    2    0    0 -0.28037736940E+03  0.24496240581E+02 -0.13446869072E+04  0.13770396595E+04  0.94041534611E+02 0.  0.
        254    2    1    2    0    0  0.28037736940E+03 -0.24496240581E+02  0.78694872906E+03  0.12238562372E+04  0.89404935657E+03 0.  0.
         23    2    4    4    0    0  0.34646547189E+03  0.24706547212E+03  0.61400121052E+02  0.43968400280E+03  0.92045514430E+02 0.  0.
         23    2    4    4    0    0 -0.66088102486E+02 -0.27156171270E+03  0.72554860801E+03  0.78417223436E+03  0.10194071544E+03 0.  0.
          1    1    3    3  502    0 -0.21318244520E+03 -0.20688034893E+02 -0.10360269137E+04  0.10579350243E+04  0.00000000000E+00 0. -1.
         -1    1    3    3    0  502 -0.67194924200E+02  0.45184275474E+02 -0.30865999359E+03  0.31910463524E+03  0.00000000000E+00 0.  1.
         13    1    5    5    0    0  0.13151984154E+03  0.14583034815E+03  0.10227441387E+02  0.19664322952E+03  0.00000000000E+00 0. -1.
        -13    1    5    5    0    0  0.21494563034E+03  0.10123512398E+03  0.51172679665E+02  0.24304077327E+03  0.00000000000E+00 0.  1.
          4    1    6    6  503    0  0.50811378123E+01 -0.17293048792E+03  0.37134374972E+03  0.40966687939E+03  0.00000000000E+00 0. -1.
         -4    1    6    6    0  503 -0.71169240299E+02 -0.98631224782E+02  0.35420485829E+03  0.37450535497E+03  0.00000000000E+00 0.  1.
<mgrwt>
<rscale>  0 0.25403912E+04</rscale>
<asrwt>0</asrwt>
<pdfrwt beam="1">  1        2 0.24297185E+00 0.25403912E+04</pdfrwt>
<pdfrwt beam="2">  1       -2 0.15716598E+00 0.25403912E+04</pdfrwt>
<totfact> 0.26926389E+00</totfact>
</mgrwt>
</event>
<event>
12    3  0.4192740E-008  0.1737310E+04  0.7818608E-02  0.8740366E-01
          2   -1    0    0  501    0  0.00000000000E+00  0.00000000000E+00  0.16211363385E+04  0.16211363385E+04  0.00000000000E+00 0.  1.
         -2   -1    0    0    0  501 -0.00000000000E+00 -0.00000000000E+00 -0.46545232256E+03  0.46545232256E+03  0.00000000000E+00 0. -1.
         23    2    1    2    0    0 -0.43618191327E+03 -0.10649896187E+03  0.95664243749E+03  0.10631213738E+04  0.11604142306E+03 0.  0.
        254    2    1    2    0    0  0.43618191327E+03  0.10649896187E+03  0.19904157844E+03  0.10234672873E+04  0.89792597012E+03 0.  0.
         23    2    4    4    0    0  0.42126234590E+03 -0.27669770981E+02 -0.28297205090E+03  0.51479067698E+03  0.81906527283E+02 0.  0.
         23    2    4    4    0    0  0.14919567368E+02  0.13416873285E+03  0.48201362934E+03  0.50867661029E+03  0.90503660821E+02 0.  0.
          2    1    3    3  502    0 -0.16075815320E+03 -0.78789112648E+02  0.47471957596E+03  0.50735548080E+03  0.00000000000E+00 0. -1.
         -2    1    3    3    0  502 -0.27542376007E+03 -0.27709849220E+02  0.48192286152E+03  0.55576589299E+03  0.00000000000E+00 0.  1.
         13    1    5    5    0    0  0.32123009016E+03 -0.27319443189E+02 -0.25463606230E+03  0.41082191643E+03  0.00000000000E+00 0.  1.
        -13    1    5    5    0    0  0.10003225575E+03 -0.35032779106E+00 -0.28335988598E+02  0.10396876054E+03  0.00000000000E+00 0. -1.
          1    1    6    6  503    0 -0.22170188531E+02  0.91125521030E+01  0.15097341244E+03  0.15286440766E+03  0.00000000000E+00 0. -1.
         -1    1    6    6    0  503  0.37089755900E+02  0.12505618075E+03  0.33104021690E+03  0.35581220263E+03  0.00000000000E+00 0.  1.
<mgrwt>
<rscale>  0 0.17373102E+04</rscale>
<asrwt>0</asrwt>
<pdfrwt beam="1">  1        2 0.24940559E+00 0.17373102E+04</pdfrwt>
<pdfrwt beam="2">  1       -2 0.71608050E-01 0.17373102E+04</pdfrwt>
<totfact> 0.18208936E+01</totfact>
</mgrwt>
</event>
<event>
12    3  0.4192740E-008  0.2408210E+04  0.7818608E-02  0.8436436E-01
         -2   -1    0    0    0  501 -0.00000000000E+00  0.00000000000E+00  0.57664425860E+03  0.57664425860E+03  0.00000000000E+00 0.  1.
          2   -1    0    0  501    0  0.00000000000E+00 -0.00000000000E+00 -0.25143204002E+04  0.25143204002E+04  0.00000000000E+00 0. -1.
         23    2    1    2    0    0 -0.20852614787E+03  0.96547402411E+03 -0.44864678477E+03  0.10888031874E+04  0.92656342190E+02 0.  0.
        254    2    1    2    0    0  0.20852614787E+03 -0.96547402411E+03 -0.14890293568E+04  0.20021614714E+04  0.90322692974E+03 0.  0.
         23    2    4    4    0    0  0.63352122464E+02 -0.37799327395E+02  0.99783530430E+02  0.15440535729E+03  0.91880252742E+02 0.  0.
         23    2    4    4    0    0  0.14517402541E+03 -0.92767469672E+03 -0.15888128872E+04  0.18477561141E+04  0.90666565159E+02 0.  0.
          3    1    3    3  502    0 -0.12465969826E+03  0.64018028688E+03 -0.34147968278E+03  0.73619237556E+03  0.00000000000E+00 0. -1.
         -3    1    3    3    0  502 -0.83866449607E+02  0.32529373723E+03 -0.10716710199E+03  0.35261081181E+03  0.00000000000E+00 0.  1.
         13    1    5    5    0    0  0.14910928264E+02 -0.27867016851E+02  0.10008369869E+03  0.10495548177E+03  0.00000000000E+00 0.  1.
        -13    1    5    5    0    0  0.48441194200E+02 -0.99323105440E+01 -0.30016826202E+00  0.49449875524E+02  0.00000000000E+00 0. -1.
          4    1    6    6  503    0  0.21405242899E+02 -0.57501027476E+02 -0.14512558734E+03  0.15756265003E+03  0.00000000000E+00 0. -1.
         -4    1    6    6    0  503  0.12376878251E+03 -0.87017366924E+03 -0.14436872999E+04  0.16901934641E+04  0.00000000000E+00 0.  1.
<mgrwt>
<rscale>  0 0.24082096E+04</rscale>
<asrwt>0</asrwt>
<pdfrwt beam="1">  1        2 0.38681853E+00 0.24082096E+04</pdfrwt>
<pdfrwt beam="2">  1       -2 0.88714501E-01 0.24082096E+04</pdfrwt>
<totfact> 0.33522602E+00</totfact>
</mgrwt>
</event>
<event>
12    3  0.4192740E-008  0.1513397E+04  0.7818608E-02  0.8875593E-01
          2   -1    0    0  501    0  0.00000000000E+00  0.00000000000E+00  0.23467148429E+03  0.23467148429E+03  0.00000000000E+00 0. -1.
         -2   -1    0    0    0  501 -0.00000000000E+00 -0.00000000000E+00 -0.24399737344E+04  0.24399737344E+04  0.00000000000E+00 0.  1.
         23    2    1    2    0    0 -0.43564908503E+02  0.47221509278E+03 -0.90875972911E+03  0.10288214157E+04  0.88001506196E+02 0.  0.
        254    2    1    2    0    0  0.43564908503E+02 -0.47221509278E+03 -0.12965425210E+04  0.16458238030E+04  0.89600696795E+03 0.  0.
         23    2    4    4    0    0 -0.12017155854E+03  0.23411119276E+03 -0.42401311620E+03  0.50765257174E+03  0.93138374608E+02 0.  0.
         23    2    4    4    0    0  0.16373646704E+03 -0.70632628554E+03 -0.87252940483E+03  0.11381712313E+04  0.91759125527E+02 0.  0.
          1    1    3    3  502    0  0.22735917860E+01  0.65597776793E+02 -0.72380129059E+02  0.97709368140E+02  0.00000000000E+00 0. -1.
         -1    1    3    3    0  502 -0.45838500289E+02  0.40661731599E+03 -0.83637960005E+03  0.93111204758E+03  0.00000000000E+00 0.  1.
         13    1    5    5    0    0 -0.40764906695E+02  0.34702839223E+02 -0.15202000693E+03  0.16117117353E+03  0.00000000000E+00 0.  1.
        -13    1    5    5    0    0 -0.79406651840E+02  0.19940835354E+03 -0.27199310927E+03  0.34648139821E+03  0.00000000000E+00 0. -1.
          4    1    6    6  503    0  0.11038590608E+03 -0.58350733503E+03 -0.75020825074E+03  0.95680629062E+03  0.00000000000E+00 0. -1.
         -4    1    6    6    0  503  0.53350560960E+02 -0.12281895051E+03 -0.12232115410E+03  0.18136494066E+03  0.00000000000E+00 0.  1.
<mgrwt>
<rscale>  0 0.15133965E+04</rscale>
<asrwt>0</asrwt>
<pdfrwt beam="1">  1        2 0.36103304E-01 0.15133965E+04</pdfrwt>
<pdfrwt beam="2">  1       -2 0.37538058E+00 0.15133965E+04</pdfrwt>
<totfact> 0.15079358E+00</totfact>
</mgrwt>
</event>
<event>
12    3  0.4192740E-008  0.2210717E+04  0.7818608E-02  0.8513981E-01
         -1   -1    0    0    0  501 -0.00000000000E+00  0.00000000000E+00  0.11961378965E+04  0.11961378965E+04  0.00000000000E+00 0.  1.
          1   -1    0    0  501    0  0.00000000000E+00 -0.00000000000E+00 -0.10214685980E+04  0.10214685980E+04  0.00000000000E+00 0. -1.
         23    2    1    2    0    0  0.16869841791E+03  0.61733432665E+03  0.73041916508E+03  0.97538835927E+03  0.91156281242E+02 0.  0.
        254    2    1    2    0    0 -0.16869841791E+03 -0.61733432665E+03 -0.55574986657E+03  0.12422181352E+04  0.90812287397E+03 0.  0.
         23    2    4    4    0    0  0.75160734630E+00  0.21754814053E+03 -0.26069718797E+02  0.23557575560E+03  0.86536397125E+02 0.  0.
         23    2    4    4    0    0 -0.16945002525E+03 -0.83488246718E+03 -0.52968014778E+03  0.10066423796E+04  0.83819904909E+02 0.  0.
          2    1    3    3  502    0  0.10918169936E+03  0.35611930008E+03  0.48936755254E+03  0.61499772426E+03  0.00000000000E+00 0.  1.
         -2    1    3    3    0  502  0.59516718547E+02  0.26121502657E+03  0.24105161254E+03  0.36039063501E+03  0.00000000000E+00 0. -1.
         13    1    5    5    0    0 -0.22059052321E+02  0.16414417124E+03  0.12135095817E+02  0.16606375671E+03  0.00000000000E+00 0.  1.
        -13    1    5    5    0    0  0.22810659667E+02  0.53403969283E+02 -0.38204814614E+02  0.69511998887E+02  0.00000000000E+00 0. -1.
          1    1    6    6  503    0 -0.81987463434E+02 -0.24899310777E+03 -0.13543506708E+03  0.29506299204E+03  0.00000000000E+00 0. -1.
         -1    1    6    6    0  503 -0.87462561818E+02 -0.58588935941E+03 -0.39424508070E+03  0.71157938759E+03  0.00000000000E+00 0.  1.
<mgrwt>
<rscale>  0 0.22107169E+04</rscale>
<asrwt>0</asrwt>
<pdfrwt beam="1">  1        1 0.15714901E+00 0.22107169E+04</pdfrwt>
<pdfrwt beam="2">  1       -1 0.18402122E+00 0.22107169E+04</pdfrwt>
<totfact> 0.25829439E+00</totfact>
</mgrwt>
</event>
<event>
12    3  0.4192740E-008  0.1745356E+04  0.7818608E-02  0.8735911E-01
          2   -1    0    0  501    0  0.00000000000E+00  0.00000000000E+00  0.11345910515E+04  0.11345910515E+04  0.00000000000E+00 0. -1.
         -2   -1    0    0    0  501 -0.00000000000E+00 -0.00000000000E+00 -0.67122606513E+03  0.67122606513E+03  0.00000000000E+00 0.  1.
         23    2    1    2    0    0  0.45536370249E+03 -0.32571933563E+03 -0.11778382419E+03  0.57864533969E+03  0.86649943785E+02 0.  0.
        254    2    1    2    0    0 -0.45536370249E+03  0.32571933563E+03  0.58114881056E+03  0.12271717769E+04  0.92453633944E+03 0.  0.
         23    2    4    4    0    0 -0.42132519138E+03  0.53956997058E+02 -0.13476169092E+03  0.45507167603E+03  0.92213028147E+02 0.  0.
         23    2    4    4    0    0 -0.34038511114E+02  0.27176233857E+03  0.71591050148E+03  0.77210010091E+03  0.92721792448E+02 0.  0.
          3    1    3    3  502    0  0.19714690991E+03 -0.17059305491E+03 -0.18046777189E+02  0.26133231840E+03  0.00000000000E+00 0. -1.
         -3    1    3    3    0  502  0.25821679258E+03 -0.15512628071E+03 -0.99737046997E+02  0.31731302129E+03  0.00000000000E+00 0.  1.
         13    1    5    5    0    0 -0.30718204566E+03  0.10802553803E+02 -0.12768614267E+03  0.33283818197E+03  0.00000000000E+00 0. -1.
        -13    1    5    5    0    0 -0.11414314571E+03  0.43154443255E+02 -0.70755482499E+01  0.12223349406E+03  0.00000000000E+00 0.  1.
          2    1    6    6  503    0  0.44475138458E+01  0.15621876189E+03  0.29389653855E+03  0.33286522395E+03  0.00000000000E+00 0.  1.
         -2    1    6    6    0  503 -0.38486024960E+02  0.11554357668E+03  0.42201396293E+03  0.43923487696E+03  0.00000000000E+00 0. -1.
<mgrwt>
<rscale>  0 0.17453562E+04</rscale>
<asrwt>0</asrwt>
<pdfrwt beam="1">  1        2 0.17455247E+00 0.17453562E+04</pdfrwt>
<pdfrwt beam="2">  1       -2 0.10326555E+00 0.17453562E+04</pdfrwt>
<totfact> 0.15051606E+01</totfact>
</mgrwt>
</event>
<event>
12    3  0.4192740E-008  0.2501703E+04  0.7818608E-02  0.8402379E-01
         -2   -1    0    0    0  501 -0.00000000000E+00  0.00000000000E+00  0.23424303013E+04  0.23424303013E+04  0.00000000000E+00 0.  1.
          2   -1    0    0  501    0  0.00000000000E+00 -0.00000000000E+00 -0.66795110274E+03  0.66795110274E+03  0.00000000000E+00 0. -1.
         23    2    1    2    0    0 -0.99062646264E+03 -0.38123206110E+03  0.10259236695E+04  0.14790964535E+04  0.92348634290E+02 0.  0.
        254    2    1    2    0    0  0.99062646264E+03  0.38123206110E+03  0.64855552902E+03  0.15312849505E+04  0.89304571690E+03 0.  0.
         23    2    4    4    0    0  0.34760012410E+03 -0.17070072521E+03 -0.85007876601E+02  0.40673653732E+03  0.90794756712E+02 0.  0.
         23    2    4    4    0    0  0.64302633855E+03  0.55193278631E+03  0.73356340562E+03  0.11245484132E+04  0.91548843963E+02 0.  0.
          4    1    3    3  502    0 -0.89583389262E+03 -0.35494138023E+03  0.89318442597E+03  0.13138798139E+04  0.00000000000E+00 0. -1.
         -4    1    3    3    0  502 -0.94792570026E+02 -0.26290680869E+02  0.13273924357E+03  0.16521663965E+03  0.00000000000E+00 0.  1.
         13    1    5    5    0    0  0.34011897539E+03 -0.16932595303E+03 -0.97375529701E+02  0.39221701846E+03  0.00000000000E+00 0. -1.
        -13    1    5    5    0    0  0.74811487078E+01 -0.13747721827E+01  0.12367653101E+02  0.14519518854E+02  0.00000000000E+00 0.  1.
          4    1    6    6  503    0  0.59905343367E+03  0.50403315911E+03  0.70496869656E+03  0.10535156881E+04  0.00000000000E+00 0. -1.
         -4    1    6    6    0  503  0.43972904874E+02  0.47899627201E+02  0.28594709054E+02  0.71032725098E+02  0.00000000000E+00 0.  1.
<mgrwt>
<rscale>  0 0.25017025E+04</rscale>
<asrwt>0</asrwt>
<pdfrwt beam="1">  1        2 0.10276171E+00 0.25017025E+04</pdfrwt>
<pdfrwt beam="2">  1       -2 0.36037389E+00 0.25017025E+04</pdfrwt>
<totfact> 0.51863181E-01</totfact>
</mgrwt>
</event>
<event>
12    3  0.4192740E-008  0.1451853E+04  0.7818608E-02  0.8917117E-01
          2   -1    0    0  501    0  0.00000000000E+00  0.00000000000E+00  0.67336609294E+03  0.67336609294E+03  0.00000000000E+00 0. -1.
         -2   -1    0    0    0  501 -0.00000000000E+00 -0.00000000000E+00 -0.78259006649E+03  0.78259006649E+03  0.00000000000E+00 0.  1.
         23    2    1    2    0    0 -0.39981715542E+03 -0.40262716530E+02 -0.19888147685E+03  0.45740693752E+03  0.90511991163E+02 0.  0.
        254    2    1    2    0    0  0.39981715542E+03  0.40262716530E+02  0.89657503300E+02  0.99854922191E+03  0.90971821823E+03 0.  0.
         23    2    4    4    0    0  0.29884593541E+03 -0.26808953320E+02  0.48382693022E+03  0.57638251803E+03  0.90003864302E+02 0.  0.
         23    2    4    4    0    0  0.10097122001E+03  0.67071669851E+02 -0.39416942692E+03  0.42216670388E+03  0.90340426047E+02 0.  0.
          3    1    3    3  502    0 -0.11343102125E+03 -0.50928776109E+02 -0.74876843929E+02  0.14514433704E+03  0.00000000000E+00 0. -1.
         -3    1    3    3    0  502 -0.28638613417E+03  0.10666059578E+02 -0.12400463292E+03  0.31226260048E+03  0.00000000000E+00 0.  1.
         13    1    5    5    0    0  0.16595782441E+03 -0.58662993136E+02  0.28966359246E+03  0.33895182997E+03  0.00000000000E+00 0. -1.
        -13    1    5    5    0    0  0.13288811100E+03  0.31854039816E+02  0.19416333777E+03  0.23743068806E+03  0.00000000000E+00 0.  1.
          2    1    6    6  503    0  0.55007373949E+02  0.15137480404E+02 -0.29907942206E+03  0.30447242108E+03  0.00000000000E+00 0. -1.
         -2    1    6    6    0  503  0.45963846059E+02  0.51934189447E+02 -0.95090004865E+02  0.11769428280E+03  0.00000000000E+00 0.  1.
<mgrwt>
<rscale>  0 0.14518535E+04</rscale>
<asrwt>0</asrwt>
<pdfrwt beam="1">  1        2 0.10359478E+00 0.14518535E+04</pdfrwt>
<pdfrwt beam="2">  1       -2 0.12039847E+00 0.14518535E+04</pdfrwt>
<totfact> 0.21968144E+01</totfact>
</mgrwt>
</event>
<event>
12    3  0.4192740E-008  0.1994339E+04  0.7818608E-02  0.8609272E-01
          1   -1    0    0  501    0  0.00000000000E+00  0.00000000000E+00  0.16812486520E+04  0.16812486520E+04  0.00000000000E+00 0. -1.
         -1   -1    0    0    0  501 -0.00000000000E+00 -0.00000000000E+00 -0.59143378285E+03  0.59143378285E+03  0.00000000000E+00 0.  1.
         23    2    1    2    0    0 -0.21739983348E+03 -0.19106236159E+03  0.12703093903E+04  0.13058813092E+04  0.88727295459E+02 0.  0.
        254    2    1    2    0    0  0.21739983348E+03  0.19106236159E+03 -0.18049452110E+03  0.96680112571E+03  0.90463176537E+03 0.  0.
         23    2    4    4    0    0 -0.21154198122E+03 -0.20676720653E+02  0.23291054662E+03  0.32835537143E+03  0.91609991944E+02 0.  0.
         23    2    4    4    0    0  0.42894181470E+03  0.21173908224E+03 -0.41340506773E+03  0.63844575428E+03  0.88795899588E+02 0.  0.
          2    1    3    3  502    0 -0.10004842539E+03 -0.13010866430E+03  0.83301628108E+03  0.84903125767E+03  0.00000000000E+00 0. -1.
         -2    1    3    3    0  502 -0.11735140809E+03 -0.60953697288E+02  0.43729310921E+03  0.45685005150E+03  0.00000000000E+00 0.  1.
         13    1    5    5    0    0 -0.71011656393E+02 -0.30286129759E+02  0.13919412541E+03  0.15916943660E+03  0.00000000000E+00 0. -1.
        -13    1    5    5    0    0 -0.14053032483E+03  0.96094091059E+01  0.93716421216E+02  0.16918593483E+03  0.00000000000E+00 0.  1.
          1    1    6    6  503    0  0.33001194789E+03  0.19824225871E+03 -0.30579007314E+03  0.49164565260E+03  0.00000000000E+00 0. -1.
         -1    1    6    6    0  503  0.98929866813E+02  0.13496823534E+02 -0.10761499459E+03  0.14680010168E+03  0.00000000000E+00 0.  1.
<mgrwt>
<rscale>  0 0.19943392E+04</rscale>
<asrwt>0</asrwt>
<pdfrwt beam="1">  1        1 0.25865364E+00 0.19943392E+04</pdfrwt>
<pdfrwt beam="2">  1       -1 0.90989813E-01 0.19943392E+04</pdfrwt>
<totfact> 0.53708744E+00</totfact>
</mgrwt>
</event>
<event>
12    3  0.4192740E-008  0.2273097E+04  0.7818608E-02  0.8488605E-01
         -1   -1    0    0    0  501 -0.00000000000E+00  0.00000000000E+00  0.14501761699E+04  0.14501761699E+04  0.00000000000E+00 0.  1.
          1   -1    0    0  501    0  0.00000000000E+00 -0.00000000000E+00 -0.89074866577E+03  0.89074866577E+03  0.00000000000E+00 0. -1.
         23    2    1    2    0    0 -0.85680448590E+03  0.33931626951E+03  0.49934780253E+03  0.10522714371E+04  0.93153054533E+02 0.  0.
        254    2    1    2    0    0  0.85680448590E+03 -0.33931626951E+03  0.60079701605E+02  0.12886533986E+04  0.89875945247E+03 0.  0.
         23    2    4    4    0    0  0.12592684855E+03  0.22263740761E+03  0.21835219974E+03  0.34880184271E+03  0.92520570128E+02 0.  0.
         23    2    4    4    0    0  0.73087763734E+03 -0.56195367712E+03 -0.15827249813E+03  0.93985155590E+03  0.91086263860E+02 0.  0.
          3    1    3    3  502    0 -0.18377620834E+03  0.89276224440E+02  0.15222570112E+03  0.25478736837E+03  0.00000000000E+00 0. -1.
         -3    1    3    3    0  502 -0.67302827756E+03  0.25004004507E+03  0.34712210141E+03  0.79748406869E+03  0.00000000000E+00 0.  1.
         13    1    5    5    0    0  0.10812279776E+03  0.22399917058E+03  0.18168773642E+03  0.30802045611E+03  0.00000000000E+00 0. -1.
        -13    1    5    5    0    0  0.17804050790E+02 -0.13617629706E+01  0.36664463320E+02  0.40781386606E+02  0.00000000000E+00 0.  1.
          3    1    6    6  503    0  0.66675347026E+03 -0.50556435289E+03 -0.11661165568E+03  0.84483950148E+03  0.00000000000E+00 0. -1.
         -3    1    6    6    0  503  0.64124167080E+02 -0.56389324234E+02 -0.41660842456E+02  0.95012054422E+02  0.00000000000E+00 0.  1.
<mgrwt>
<rscale>  0 0.22730970E+04</rscale>
<asrwt>0</asrwt>
<pdfrwt beam="1">  1        1 0.13703826E+00 0.22730970E+04</pdfrwt>
<pdfrwt beam="2">  1       -1 0.22310403E+00 0.22730970E+04</pdfrwt>
<totfact> 0.17600239E+00</totfact>
</mgrwt>
</event>
<event>
12    3  0.4192740E-008  0.1388963E+04  0.7818608E-02  0.8961846E-01
         -2   -1    0    0    0  501 -0.00000000000E+00  0.00000000000E+00  0.37627770558E+03  0.37627770558E+03  0.00000000000E+00 0.  1.
          2   -1    0    0  501    0  0.00000000000E+00 -0.00000000000E+00 -0.12817788949E+04  0.12817788949E+04  0.00000000000E+00 0. -1.
         23    2    1    2    0    0  0.20887794594E+03 -0.33057412295E+03 -0.21066183563E+03  0.45332175325E+03  0.90625360214E+02 0.  0.
        254    2    1    2    0    0 -0.20887794594E+03  0.33057412295E+03 -0.69483935372E+03  0.12047348473E+04  0.90314731781E+03 0.  0.
         23    2    4    4    0    0 -0.29504597011E+03  0.60466828808E+03 -0.52022051773E+03  0.85579089610E+03  0.95251287079E+02 0.  0.
         23    2    4    4    0    0  0.86168024165E+02 -0.27409416513E+03 -0.17461883598E+03  0.34894395116E+03  0.93368107099E+02 0.  0.
          3    1    3    3  502    0  0.15899872122E+03 -0.18751449672E+03 -0.98642547010E+02  0.26490117386E+03  0.00000000000E+00 0. -1.
         -3    1    3    3    0  502  0.49879224720E+02 -0.14305962623E+03 -0.11201928862E+03  0.18842057939E+03  0.00000000000E+00 0.  1.
         13    1    5    5    0    0 -0.17201436435E+03  0.44343468993E+03 -0.38644781046E+03  0.61283372622E+03  0.00000000000E+00 0.  1.
        -13    1    5    5    0    0 -0.12303160576E+03  0.16123359815E+03 -0.13377270728E+03  0.24295716989E+03  0.00000000000E+00 0. -1.
          1    1    6    6  503    0  0.89028844531E+02 -0.16710107514E+03 -0.14321258529E+03  0.23739997695E+03  0.00000000000E+00 0. -1.
         -1    1    6    6    0  503 -0.28608203661E+01 -0.10699309000E+03 -0.31406250692E+02  0.11154397421E+03  0.00000000000E+00 0.  1.
<mgrwt>
<rscale>  0 0.13889634E+04</rscale>
<asrwt>0</asrwt>
<pdfrwt beam="1">  1        2 0.19719676E+00 0.13889634E+04</pdfrwt>
<pdfrwt beam="2">  1       -2 0.57888877E-01 0.13889634E+04</pdfrwt>
<totfact> 0.46092790E+01</totfact>
</mgrwt>
</event>
<event>
12    3  0.4192740E-008  0.1451160E+04  0.7818608E-02  0.8917597E-01
         -1   -1    0    0    0  501 -0.00000000000E+00  0.00000000000E+00  0.45023122013E+03  0.45023122013E+03  0.00000000000E+00 0.  1.
          1   -1    0    0  501    0  0.00000000000E+00 -0.00000000000E+00 -0.11693246059E+04  0.11693246059E+04  0.00000000000E+00 0. -1.
         23    2    1    2    0    0  0.56662604987E+01  0.29754416243E+03  0.13816345158E+03  0.33929018242E+03  0.86394753493E+02 0.  0.
        254    2    1    2    0    0 -0.56662604987E+01 -0.29754416243E+03 -0.85725683732E+03  0.12802656436E+04  0.90312025662E+03 0.  0.
         23    2    4    4    0    0  0.23768672049E+03 -0.52465933717E+03 -0.40334941207E+03  0.70961024872E+03  0.95360157799E+02 0.  0.
         23    2    4    4    0    0 -0.24335298099E+03  0.22711517474E+03 -0.45390742525E+03  0.57065539487E+03  0.93881057924E+02 0.  0.
          3    1    3    3  502    0  0.30353913175E+02  0.15271771448E+03  0.34492942717E+02  0.15947985283E+03  0.00000000000E+00 0. -1.
         -3    1    3    3    0  502 -0.24687652676E+02  0.14482644794E+03  0.10367050886E+03  0.17981032959E+03  0.00000000000E+00 0.  1.
         13    1    5    5    0    0  0.78009278276E+01 -0.26927509211E+02  0.15034567525E+01  0.28074999724E+02  0.00000000000E+00 0. -1.
        -13    1    5    5    0    0  0.22988579267E+03 -0.49773182796E+03 -0.40485286883E+03  0.68153524900E+03  0.00000000000E+00 0.  1.
          3    1    6    6  503    0 -0.43724553150E+02  0.33702197874E+00 -0.56533176754E+02  0.71469925185E+02  0.00000000000E+00 0. -1.
         -3    1    6    6    0  503 -0.19962842784E+03  0.22677815276E+03 -0.39737424850E+03  0.49918546968E+03  0.00000000000E+00 0.  1.
<mgrwt>
<rscale>  0 0.14511601E+04</rscale>
<asrwt>0</asrwt>
<pdfrwt beam="1">  1        1 0.17989609E+00 0.14511601E+04</pdfrwt>
<pdfrwt beam="2">  1       -1 0.69266341E-01 0.14511601E+04</pdfrwt>
<totfact> 0.23047160E+01</totfact>
</mgrwt>
</event>
<event>
12    3  0.4192740E-008  0.2057663E+04  0.7818608E-02  0.8580126E-01
         -2   -1    0    0    0  501 -0.00000000000E+00  0.00000000000E+00  0.99808216421E+03  0.99808216421E+03  0.00000000000E+00 0.  1.
          2   -1    0    0  501    0  0.00000000000E+00 -0.00000000000E+00 -0.10605281295E+04  0.10605281295E+04  0.00000000000E+00 0. -1.
         23    2    1    2    0    0  0.17059369325E+03  0.79369687293E+03  0.14381745679E+03  0.82955854635E+03  0.91798620131E+02 0.  0.
        254    2    1    2    0    0 -0.17059369325E+03 -0.79369687293E+03 -0.20626342211E+03  0.12290517474E+04  0.89942574135E+03 0.  0.
         23    2    4    4    0    0 -0.50132698881E+03 -0.26600060558E+03 -0.16678050444E+03  0.59880369678E+03  0.93086297256E+02 0.  0.
         23    2    4    4    0    0  0.33073329556E+03 -0.52769626735E+03 -0.39482917661E+02  0.63024805061E+03  0.88350671443E+02 0.  0.
          4    1    3    3  502    0  0.18104332654E+03  0.72840544281E+03  0.12591669291E+03  0.76105596953E+03  0.00000000000E+00 0. -1.
         -4    1    3    3    0  502 -0.10449633290E+02  0.65291430120E+02  0.17900763876E+02  0.68502576815E+02  0.00000000000E+00 0.  1.
         13    1    5    5    0    0 -0.94186132605E+02 -0.90592218931E+02 -0.22560851450E+02  0.13261587282E+03  0.00000000000E+00 0. -1.
        -13    1    5    5    0    0 -0.40714085621E+03 -0.17540838665E+03 -0.14421965299E+03  0.46618782396E+03  0.00000000000E+00 0.  1.
          4    1    6    6  503    0  0.44590585355E+02 -0.14149769880E+03 -0.93952189644E+01  0.14865459699E+03  0.00000000000E+00 0. -1.
         -4    1    6    6    0  503  0.28614271021E+03 -0.38619856855E+03 -0.30087698697E+02  0.48159345362E+03  0.00000000000E+00 0.  1.
<mgrwt>
<rscale>  0 0.20576630E+04</rscale>
<asrwt>0</asrwt>
<pdfrwt beam="1">  1        2 0.16315817E+00 0.20576630E+04</pdfrwt>
<pdfrwt beam="2">  1       -2 0.15355110E+00 0.20576630E+04</pdfrwt>
<totfact> 0.60013193E+00</totfact>
</mgrwt>
</event>
<event>
12    3  0.4192740E-008  0.1307173E+04  0.7818608E-02  0.9023896E-01
         -1   -1    0    0    0  501 -0.00000000000E+00  0.00000000000E+00  0.36889306269E+03  0.36889306269E+03  0.00000000000E+00 0.  1.
          1   -1    0    0  501    0  0.00000000000E+00 -0.00000000000E+00 -0.11579924571E+04  0.11579924571E+04  0.00000000000E+00 0. -1.
         23    2    1    2    0    0  0.85329818620E+02  0.65788707670E+01  0.16871236652E+03  0.21130515570E+03  0.94135788752E+02 0.  0.
        254    2    1    2    0    0 -0.85329818620E+02 -0.65788707670E+01 -0.95781176092E+03  0.13155803641E+04  0.89778831889E+03 0.  0.
         23    2    4    4    0    0  0.25570416020E+03 -0.32564654386E+03 -0.40340657646E+03  0.58499599093E+03  0.89739369287E+02 0.  0.
         23    2    4    4    0    0 -0.34103397882E+03  0.31906767309E+03 -0.55440518446E+03  0.73058437316E+03  0.90994851684E+02 0.  0.
          1    1    3    3  502    0  0.10818037246E+02 -0.32526199425E+02  0.18061540013E+02  0.38745358516E+02  0.00000000000E+00 0. -1.
         -1    1    3    3    0  502  0.74511781374E+02  0.39105070192E+02  0.15065082650E+03  0.17255979718E+03  0.00000000000E+00 0.  1.
         13    1    5    5    0    0  0.14622129176E+03 -0.19283403511E+03 -0.29507332421E+03  0.38162009633E+03  0.00000000000E+00 0. -1.
        -13    1    5    5    0    0  0.10948286843E+03 -0.13281250875E+03 -0.10833325225E+03  0.20337589460E+03  0.00000000000E+00 0.  1.
          1    1    6    6  503    0 -0.17197712394E+03  0.19831489206E+03 -0.25345228362E+03  0.36488763701E+03  0.00000000000E+00 0. -1.
         -1    1    6    6    0  503 -0.16905685488E+03  0.12075278103E+03 -0.30095290084E+03  0.36569673615E+03  0.00000000000E+00 0.  1.
<mgrwt>
<rscale>  0 0.13071731E+04</rscale>
<asrwt>0</asrwt>
<pdfrwt beam="1">  1        1 0.17815268E+00 0.13071731E+04</pdfrwt>
<pdfrwt beam="2">  1       -1 0.56752779E-01 0.13071731E+04</pdfrwt>
<totfact> 0.35410221E+01</totfact>
</mgrwt>
</event>
<event>
12    3  0.4192740E-008  0.1665263E+04  0.7818608E-02  0.8781428E-01
         -2   -1    0    0    0  501 -0.00000000000E+00  0.00000000000E+00  0.52909063902E+03  0.52909063902E+03  0.00000000000E+00 0.  1.
          2   -1    0    0  501    0  0.00000000000E+00 -0.00000000000E+00 -0.13103148549E+04  0.13103148549E+04  0.00000000000E+00 0. -1.
         23    2    1    2    0    0 -0.57846646222E+02 -0.76827365089E+02 -0.92663296955E+03  0.93582691605E+03  0.88739382689E+02 0.  0.
        254    2    1    2    0    0  0.57846646222E+02  0.76827365089E+02  0.14540875371E+03  0.90357857783E+03  0.88660129831E+03 0.  0.
         23    2    4    4    0    0  0.38656142400E+03  0.22970999288E+03  0.23946122941E+03  0.51772587093E+03  0.92206191150E+02 0.  0.
         23    2    4    4    0    0 -0.32871477778E+03 -0.15288262779E+03 -0.94052475706E+02  0.38585270690E+03  0.92789763584E+02 0.  0.
          3    1    3    3  502    0 -0.23553352912E+02 -0.86286925322E+02 -0.51958788671E+03  0.52723027789E+03  0.00000000000E+00 0. -1.
         -3    1    3    3    0  502 -0.34293293310E+02  0.94595602326E+01 -0.40704508284E+03  0.40859663816E+03  0.00000000000E+00 0.  1.
         13    1    5    5    0    0  0.35257465918E+03  0.23614836134E+03  0.22385672606E+03  0.47977783677E+03  0.00000000000E+00 0. -1.
        -13    1    5    5    0    0  0.33986764824E+02 -0.64383684594E+01  0.15604503350E+02  0.37948034158E+02  0.00000000000E+00 0.  1.
          2    1    6    6  503    0 -0.23474341524E+03 -0.15035224125E+03 -0.84876207097E+02  0.29140047697E+03  0.00000000000E+00 0. -1.
         -2    1    6    6    0  503 -0.93971362539E+02 -0.25303865429E+01 -0.91762686090E+01  0.94452229932E+02  0.00000000000E+00 0.  1.
<mgrwt>
<rscale>  0 0.16652631E+04</rscale>
<asrwt>0</asrwt>
<pdfrwt beam="1">  1        2 0.20158690E+00 0.16652631E+04</pdfrwt>
<pdfrwt beam="2">  1       -2 0.81398561E-01 0.16652631E+04</pdfrwt>
<totfact> 0.20680456E+01</totfact>
</mgrwt>
</event>
<event>
12    3  0.4192740E-008  0.2353965E+04  0.7818608E-02  0.8456942E-01
          1   -1    0    0  501    0  0.00000000000E+00  0.00000000000E+00  0.27839300642E+04  0.27839300642E+04  0.00000000000E+00 0. -1.
         -1   -1    0    0    0  501 -0.00000000000E+00 -0.00000000000E+00 -0.49760157706E+03  0.49760157706E+03  0.00000000000E+00 0.  1.
         23    2    1    2    0    0  0.92217289709E+03 -0.25139136972E+03  0.13668686383E+04  0.16705305967E+04  0.93499343569E+02 0.  0.
        254    2    1    2    0    0 -0.92217289709E+03  0.25139136972E+03  0.91945984882E+03  0.16110010445E+04  0.91450395244E+03 0.  0.
         23    2    4    4    0    0 -0.87442353804E+01 -0.15151779892E+03  0.48908089103E+03  0.51999820961E+03  0.90354385565E+02 0.  0.
         23    2    4    4    0    0 -0.91342866171E+03  0.40290916864E+03  0.43037895779E+03  0.10910028349E+04  0.91506394938E+02 0.  0.
          3    1    3    3  502    0  0.16081796997E+03 -0.22079049658E+02  0.28345026793E+03  0.32664041129E+03  0.00000000000E+00 0. -1.
         -3    1    3    3    0  502  0.76135492712E+03 -0.22931232006E+03  0.10834183704E+04  0.13438901854E+04  0.00000000000E+00 0.  1.
         13    1    5    5    0    0 -0.17207518317E+02 -0.16177419434E+03  0.46245956849E+03  0.49024059515E+03  0.00000000000E+00 0.  1.
        -13    1    5    5    0    0  0.84632829371E+01  0.10256395422E+02  0.26621322539E+02  0.29757614468E+02  0.00000000000E+00 0. -1.
          1    1    6    6  503    0 -0.35684016570E+03  0.11532994186E+03  0.13744438997E+03  0.39940813672E+03  0.00000000000E+00 0. -1.
         -1    1    6    6    0  503 -0.55658849601E+03  0.28757922678E+03  0.29293456783E+03  0.69159469821E+03  0.00000000000E+00 0.  1.
<mgrwt>
<rscale>  0 0.23539652E+04</rscale>
<asrwt>0</asrwt>
<pdfrwt beam="1">  1        1 0.42829692E+00 0.23539652E+04</pdfrwt>
<pdfrwt beam="2">  1       -1 0.76554091E-01 0.23539652E+04</pdfrwt>
<totfact> 0.13184321E+00</totfact>
</mgrwt>
</event>
<event>
12    3  0.4192740E-008  0.1571972E+04  0.7818608E-02  0.8837954E-01
          2   -1    0    0  501    0  0.00000000000E+00  0.00000000000E+00  0.23568366337E+04  0.23568366337E+04  0.00000000000E+00 0.  1.
         -2   -1    0    0    0  501 -0.00000000000E+00 -0.00000000000E+00 -0.26211999213E+03  0.26211999213E+03  0.00000000000E+00 0. -1.
         23    2    1    2    0    0  0.40091472558E+03  0.16132072641E+03  0.10111049859E+04  0.11034822225E+04  0.92643018051E+02 0.  0.
        254    2    1    2    0    0 -0.40091472558E+03 -0.16132072641E+03  0.10836116556E+04  0.15154744033E+04  0.96731145605E+03 0.  0.
         23    2    4    4    0    0 -0.39791581641E+03 -0.52542707495E+03  0.55134093679E+03  0.86411389290E+03  0.91133875582E+02 0.  0.
         23    2    4    4    0    0 -0.29989091648E+01  0.36410634854E+03  0.53227071879E+03  0.65136051041E+03  0.91520325230E+02 0.  0.
          1    1    3    3  502    0  0.23854719305E+03  0.59509889120E+02  0.48927816046E+03  0.54757584727E+03  0.00000000000E+00 0. -1.
         -1    1    3    3    0  502  0.16236753252E+03  0.10181083729E+03  0.52182682548E+03  0.55590637521E+03  0.00000000000E+00 0.  1.
         13    1    5    5    0    0 -0.14629242251E+03 -0.18396294419E+03  0.25431690748E+03  0.34629601088E+03  0.00000000000E+00 0. -1.
        -13    1    5    5    0    0 -0.25162339390E+03 -0.34146413076E+03  0.29702402931E+03  0.51781788202E+03  0.00000000000E+00 0.  1.
          2    1    6    6  503    0  0.28794747631E+02  0.25918267120E+03  0.32319075358E+03  0.41527949352E+03  0.00000000000E+00 0. -1.
         -2    1    6    6    0  503 -0.31793656795E+02  0.10492367734E+03  0.20907996522E+03  0.23608101688E+03  0.00000000000E+00 0.  1.
<mgrwt>
<rscale>  0 0.15719720E+04</rscale>
<asrwt>0</asrwt>
<pdfrwt beam="1">  1        2 0.36259024E+00 0.15719720E+04</pdfrwt>
<pdfrwt beam="2">  1       -2 0.40326154E-01 0.15719720E+04</pdfrwt>
<totfact> 0.23574626E+01</totfact>
</mgrwt>
</event>
<event>
12    3  0.4192740E-008  0.1292378E+04  0.7818608E-02  0.9035632E-01
         -2   -1    0    0    0  501 -0.00000000000E+00  0.00000000000E+00  0.34118324366E+03  0.34118324366E+03  0.00000000000E+00 0.  1.
          2   -1    0    0  501    0  0.00000000000E+00 -0.00000000000E+00 -0.12238586178E+04  0.12238586178E+04  0.00000000000E+00 0. -1.
         23    2    1    2    0    0 -0.71925908862E+02 -0.52932558517E+02  0.14677256856E+03  0.19472458034E+03  0.91653058816E+02 0.  0.
        254    2    1    2    0    0  0.71925908862E+02  0.52932558517E+02 -0.10294479427E+04  0.13703172811E+04  0.90001732877E+03 0.  0.
         23    2    4    4    0    0 -0.27144285475E+02  0.45915659965E+03 -0.45291308191E+03  0.65219766916E+03  0.93112537612E+02 0.  0.
         23    2    4    4    0    0  0.99070194337E+02 -0.40622404113E+03 -0.57653486080E+03  0.71811961197E+03  0.92035082293E+02 0.  0.
          3    1    3    3  502    0  0.58670828500E-03  0.22814081560E+02  0.34636013136E+02  0.41474518969E+02  0.00000000000E+00 0. -1.
         -3    1    3    3    0  502 -0.71926495570E+02 -0.75746640077E+02  0.11213655542E+03  0.15325006137E+03  0.00000000000E+00 0.  1.
         13    1    5    5    0    0 -0.96704886066E+01  0.22846215263E+02 -0.26096335136E+01  0.24945502377E+02  0.00000000000E+00 0. -1.
        -13    1    5    5    0    0 -0.17473796868E+02  0.43631038438E+03 -0.45030344839E+03  0.62725216678E+03  0.00000000000E+00 0.  1.
          1    1    6    6  503    0  0.14001006174E+01 -0.19917701704E+03 -0.27245911741E+03  0.33750172601E+03  0.00000000000E+00 0. -1.
         -1    1    6    6    0  503  0.97670093720E+02 -0.20704702409E+03 -0.30407574339E+03  0.38061788596E+03  0.00000000000E+00 0.  1.
<mgrwt>
<rscale>  0 0.12923777E+04</rscale>
<asrwt>0</asrwt>
<pdfrwt beam="1">  1        2 0.18828594E+00 0.12923777E+04</pdfrwt>
<pdfrwt beam="2">  1       -2 0.52489730E-01 0.12923777E+04</pdfrwt>
<totfact> 0.61555980E+01</totfact>
</mgrwt>
</event>
<event>
12    3  0.4192740E-008  0.1357746E+04  0.7818608E-02  0.8984985E-01
          1   -1    0    0  501    0  0.00000000000E+00  0.00000000000E+00  0.89731051388E+03  0.89731051388E+03  0.00000000000E+00 0. -1.
         -1   -1    0    0    0  501 -0.00000000000E+00 -0.00000000000E+00 -0.51361103258E+03  0.51361103258E+03  0.00000000000E+00 0.  1.
         23    2    1    2    0    0 -0.25428871217E+03  0.16639511453E+03 -0.11926234470E+03  0.33823167644E+03  0.88470768098E+02 0.  0.
        254    2    1    2    0    0  0.25428871217E+03 -0.16639511453E+03  0.50296182600E+03  0.10726898700E+04  0.89740897898E+03 0.  0.
         23    2    4    4    0    0  0.44638405633E+03  0.15034306894E+03  0.49695053266E+03  0.69069751556E+03  0.90782498096E+02 0.  0.
         23    2    4    4    0    0 -0.19209534416E+03 -0.31673818347E+03  0.60112933417E+01  0.38199235447E+03  0.93050121470E+02 0.  0.
          4    1    3    3  502    0 -0.31398780827E+02  0.62419639716E+02 -0.35783506306E+02  0.78501937449E+02  0.00000000000E+00 0. -1.
         -4    1    3    3    0  502 -0.22288993135E+03  0.10397547482E+03 -0.83478838397E+02  0.25972973900E+03  0.00000000000E+00 0.  1.
         13    1    5    5    0    0  0.22153729465E+03  0.57451728631E+02  0.18014022813E+03  0.29125585974E+03  0.00000000000E+00 0.  1.
        -13    1    5    5    0    0  0.22484676168E+03  0.92891340311E+02  0.31681030453E+03  0.39944165581E+03  0.00000000000E+00 0. -1.
          4    1    6    6  503    0 -0.53436138034E+02 -0.62019077465E+02 -0.35113021308E+02  0.89076995251E+02  0.00000000000E+00 0. -1.
         -4    1    6    6    0  503 -0.13865920612E+03 -0.25471910601E+03  0.41124314649E+02  0.29291535922E+03  0.00000000000E+00 0.  1.
<mgrwt>
<rscale>  0 0.13577460E+04</rscale>
<asrwt>0</asrwt>
<pdfrwt beam="1">  1        1 0.13804777E+00 0.13577460E+04</pdfrwt>
<pdfrwt beam="2">  1       -1 0.79017082E-01 0.13577460E+04</pdfrwt>
<totfact> 0.28662639E+01</totfact>
</mgrwt>
</event>
<event>
12    3  0.4192740E-008  0.1451494E+04  0.7818608E-02  0.8917366E-01
          2   -1    0    0  501    0  0.00000000000E+00  0.00000000000E+00  0.11349234629E+04  0.11349234629E+04  0.00000000000E+00 0. -1.
         -2   -1    0    0    0  501 -0.00000000000E+00 -0.00000000000E+00 -0.46409153776E+03  0.46409153776E+03  0.00000000000E+00 0.  1.
         23    2    1    2    0    0  0.12410102960E+03 -0.10738189558E+02 -0.26389824507E+03  0.30113078119E+03  0.74304033315E+02 0.  0.
        254    2    1    2    0    0 -0.12410102960E+03  0.10738189558E+02  0.93473017019E+03  0.12978842195E+04  0.89177720413E+03 0.  0.
         23    2    4    4    0    0  0.25023218796E+03 -0.27695453109E+03  0.59563231877E+03  0.70934147943E+03  0.95223500698E+02 0.  0.
         23    2    4    4    0    0 -0.37433321756E+03  0.28769272065E+03  0.33909785142E+03  0.58854274004E+03  0.92210328792E+02 0.  0.
          2    1    3    3  502    0  0.12933465691E+02 -0.22973408486E+02 -0.20942014024E+02  0.33669273583E+02  0.00000000000E+00 0. -1.
         -2    1    3    3    0  502  0.11116756391E+03  0.12235218928E+02 -0.24295623104E+03  0.26746150760E+03  0.00000000000E+00 0.  1.
         13    1    5    5    0    0  0.19911052715E+03 -0.26382514060E+03  0.53588222215E+03  0.62961771167E+03  0.00000000000E+00 0.  1.
        -13    1    5    5    0    0  0.51121660808E+02 -0.13129390490E+02  0.59750096626E+02  0.79723767756E+02  0.00000000000E+00 0. -1.
          1    1    6    6  503    0 -0.15594352516E+03  0.11933440326E+03  0.86453242856E+02  0.21455359713E+03  0.00000000000E+00 0. -1.
         -1    1    6    6    0  503 -0.21838969240E+03  0.16835831739E+03  0.25264460856E+03  0.37398914291E+03  0.00000000000E+00 0.  1.
<mgrwt>
<rscale>  0 0.14514935E+04</rscale>
<asrwt>0</asrwt>
<pdfrwt beam="1">  1        2 0.17460361E+00 0.14514935E+04</pdfrwt>
<pdfrwt beam="2">  1       -2 0.71398698E-01 0.14514935E+04</pdfrwt>
<totfact> 0.35797110E+01</totfact>
</mgrwt>
</event>
<event>
12    3  0.4192740E-008  0.2093908E+04  0.7818608E-02  0.8563932E-01
         -2   -1    0    0    0  501 -0.00000000000E+00  0.00000000000E+00  0.89870917586E+03  0.89870917586E+03  0.00000000000E+00 0.  1.
          2   -1    0    0  501    0  0.00000000000E+00 -0.00000000000E+00 -0.12196527532E+04  0.12196527532E+04  0.00000000000E+00 0. -1.
         23    2    1    2    0    0  0.54252585624E+03  0.18078742528E+03 -0.76540816048E+03  0.95987298873E+03  0.92130909776E+02 0.  0.
        254    2    1    2    0    0 -0.54252585624E+03 -0.18078742528E+03  0.44446458314E+03  0.11584889403E+04  0.90417335803E+03 0.  0.
         23    2    4    4    0    0  0.18925982823E+03  0.80524453071E+02 -0.53016862855E+02  0.23125371620E+03  0.91455034779E+02 0.  0.
         23    2    4    4    0    0 -0.73178568447E+03 -0.26131187835E+03  0.49748144600E+03  0.92723522413E+03  0.92104212686E+02 0.  0.
          3    1    3    3  502    0  0.48660404980E+03  0.18532198004E+03 -0.66218467996E+03  0.84238725533E+03  0.00000000000E+00 0. -1.
         -3    1    3    3    0  502  0.55921806440E+02 -0.45345547548E+01 -0.10322348052E+03  0.11748573340E+03  0.00000000000E+00 0.  1.
         13    1    5    5    0    0  0.24016059809E+02  0.19234284741E+02 -0.45401101112E+02  0.54845134884E+02  0.00000000000E+00 0. -1.
        -13    1    5    5    0    0  0.16524376842E+03  0.61290168330E+02 -0.76157617428E+01  0.17640858132E+03  0.00000000000E+00 0.  1.
          2    1    6    6  503    0 -0.26030245244E+03 -0.54641630473E+02  0.14072837055E+03  0.30091119754E+03  0.00000000000E+00 0. -1.
         -2    1    6    6    0  503 -0.47148323203E+03 -0.20667024788E+03  0.35675307545E+03  0.62632402659E+03  0.00000000000E+00 0.  1.
<mgrwt>
<rscale>  0 0.20939084E+04</rscale>
<asrwt>0</asrwt>
<pdfrwt beam="1">  1        2 0.18763889E+00 0.20939084E+04</pdfrwt>
<pdfrwt beam="2">  1       -2 0.13826295E+00 0.20939084E+04</pdfrwt>
<totfact> 0.63069991E+00</totfact>
</mgrwt>
</event>
<event>
12    3  0.4192740E-008  0.2199210E+04  0.7818608E-02  0.8518757E-01
          2   -1    0    0  501    0  0.00000000000E+00  0.00000000000E+00  0.19808956240E+04  0.19808956240E+04  0.00000000000E+00 0. -1.
         -2   -1    0    0    0  501 -0.00000000000E+00 -0.00000000000E+00 -0.61039602714E+03  0.61039602714E+03  0.00000000000E+00 0.  1.
         23    2    1    2    0    0 -0.29658250793E+03  0.63399904170E+02  0.15856835103E+04  0.16169620635E+04  0.90517334939E+02 0.  0.
        254    2    1    2    0    0  0.29658250793E+03 -0.63399904170E+02 -0.21518391351E+03  0.97432958764E+03  0.90057387085E+03 0.  0.
         23    2    4    4    0    0 -0.11124488486E+03 -0.14426516361E+03  0.26382548950E+03  0.33342405207E+03  0.91541508319E+02 0.  0.
         23    2    4    4    0    0  0.40782739279E+03  0.80865259439E+02 -0.47900940301E+03  0.64090553557E+03  0.91910417563E+02 0.  0.
          3    1    3    3  502    0 -0.16026472276E+03 -0.10781809090E+02  0.75341871565E+03  0.77035108221E+03  0.00000000000E+00 0. -1.
         -3    1    3    3    0  502 -0.13631778517E+03  0.74181713260E+02  0.83226479467E+03  0.84661098126E+03  0.00000000000E+00 0.  1.
         13    1    5    5    0    0 -0.27719108486E+02  0.18356062340E+01  0.11368810746E+02  0.30016133716E+02  0.00000000000E+00 0.  1.
        -13    1    5    5    0    0 -0.83525776376E+02 -0.14610076984E+03  0.25245667876E+03  0.30340791835E+03  0.00000000000E+00 0. -1.
          1    1    6    6  503    0  0.38960406762E+03  0.73914240016E+02 -0.47840743551E+03  0.62139224225E+03  0.00000000000E+00 0. -1.
         -1    1    6    6    0  503  0.18223325171E+02  0.69510194225E+01 -0.60196750703E+00  0.19513293320E+02  0.00000000000E+00 0.  1.
<mgrwt>
<rscale>  0 0.21992097E+04</rscale>
<asrwt>0</asrwt>
<pdfrwt beam="1">  1        2 0.30475317E+00 0.21992097E+04</pdfrwt>
<pdfrwt beam="2">  1       -2 0.93907082E-01 0.21992097E+04</pdfrwt>
<totfact> 0.59924457E+00</totfact>
</mgrwt>
</event>
<event>
12    3  0.4192740E-008  0.3244398E+04  0.7818608E-02  0.8177189E-01
         -2   -1    0    0    0  501 -0.00000000000E+00  0.00000000000E+00  0.13495676933E+04  0.13495676933E+04  0.00000000000E+00 0.  1.
          2   -1    0    0  501    0  0.00000000000E+00 -0.00000000000E+00 -0.19499061125E+04  0.19499061125E+04  0.00000000000E+00 0. -1.
         23    2    1    2    0    0 -0.13082795620E+04 -0.56502955726E+03 -0.75340481192E+03  0.16146940234E+04  0.93617122780E+02 0.  0.
        254    2    1    2    0    0  0.13082795620E+04  0.56502955726E+03  0.15306639268E+03  0.16847797824E+04  0.88555055291E+03 0.  0.
         23    2    4    4    0    0  0.29364732712E+03  0.58228019235E+03  0.80916216054E+02  0.66359007629E+03  0.92332985456E+02 0.  0.
         23    2    4    4    0    0  0.10146322348E+04 -0.17250635089E+02  0.72150176621E+02  0.10211897061E+04  0.88581101105E+02 0.  0.
          4    1    3    3  502    0 -0.19656793414E+03 -0.57478311714E+02 -0.13240455435E+03  0.24387225152E+03  0.00000000000E+00 0. -1.
         -4    1    3    3    0  502 -0.11117116278E+04 -0.50755124554E+03 -0.62100025757E+03  0.13708217719E+04  0.00000000000E+00 0.  1.
         13    1    5    5    0    0  0.19556930932E+03  0.45997754932E+03  0.83742311369E+02  0.50679332606E+03  0.00000000000E+00 0. -1.
        -13    1    5    5    0    0  0.98078017801E+02  0.12230264303E+03 -0.28260953149E+01  0.15679675023E+03  0.00000000000E+00 0.  1.
          2    1    6    6  503    0  0.60056257698E+03  0.60931507426E+01  0.21550761066E+01  0.60059735240E+03  0.00000000000E+00 0. -1.
         -2    1    6    6    0  503  0.41406965786E+03 -0.23343785832E+02  0.69995100515E+02  0.42059235371E+03  0.00000000000E+00 0.  1.
<mgrwt>
<rscale>  0 0.32443984E+04</rscale>
<asrwt>0</asrwt>
<pdfrwt beam="1">  1        2 0.29998556E+00 0.32443984E+04</pdfrwt>
<pdfrwt beam="2">  1       -2 0.20762580E+00 0.32443984E+04</pdfrwt>
<totfact> 0.70903057E-01</totfact>
</mgrwt>
</event>
<event>
12    3  0.4192740E-008  0.1682006E+04  0.7818608E-02  0.8771694E-01
          1   -1    0    0  501    0  0.00000000000E+00  0.00000000000E+00  0.14829053856E+04  0.14829053856E+04  0.00000000000E+00 0. -1.
         -1   -1    0    0    0  501 -0.00000000000E+00 -0.00000000000E+00 -0.47695939101E+03  0.47695939101E+03  0.00000000000E+00 0.  1.
         23    2    1    2    0    0  0.29162689129E+03 -0.48482500074E+03  0.56222760125E+03  0.80310335184E+03  0.93667460011E+02 0.  0.
        254    2    1    2    0    0 -0.29162689129E+03  0.48482500074E+03  0.44371839332E+03  0.11567614247E+04  0.90615090142E+03 0.  0.
         23    2    4    4    0    0  0.83665617896E+02  0.63725841275E+03  0.31868834796E+03  0.72310791492E+03  0.90689433002E+02 0.  0.
         23    2    4    4    0    0 -0.37529250919E+03 -0.15243341201E+03  0.12503004536E+03  0.43365350983E+03  0.91336968396E+02 0.  0.
          3    1    3    3  502    0  0.16541993260E+02 -0.37183355130E+01  0.31460745655E+02  0.35738523713E+02  0.00000000000E+00 0.  1.
         -3    1    3    3    0  502  0.27508489803E+03 -0.48110666523E+03  0.53076685559E+03  0.76736482813E+03  0.00000000000E+00 0. -1.
         13    1    5    5    0    0  0.77189789981E+02  0.57249995286E+03  0.31485911286E+03  0.65791391584E+03  0.00000000000E+00 0. -1.
        -13    1    5    5    0    0  0.64758279147E+01  0.64758459895E+02  0.38292350903E+01  0.65193999083E+02  0.00000000000E+00 0.  1.
          1    1    6    6  503    0 -0.32831299133E+03 -0.14090373188E+03  0.13891214357E+03  0.38332736084E+03  0.00000000000E+00 0. -1.
         -1    1    6    6    0  503 -0.46979517853E+02 -0.11529680134E+02 -0.13882098209E+02  0.50326148992E+02  0.00000000000E+00 0.  1.
<mgrwt>
<rscale>  0 0.16820055E+04</rscale>
<asrwt>0</asrwt>
<pdfrwt beam="1">  1        1 0.22813929E+00 0.16820055E+04</pdfrwt>
<pdfrwt beam="2">  1       -1 0.73378368E-01 0.16820055E+04</pdfrwt>
<totfact> 0.11990426E+01</totfact>
</mgrwt>
</event>
<event>
12    3  0.4192740E-008  0.2027867E+04  0.7818608E-02  0.8593702E-01
          2   -1    0    0  501    0  0.00000000000E+00  0.00000000000E+00  0.23291867856E+04  0.23291867856E+04  0.00000000000E+00 0. -1.
         -2   -1    0    0    0  501 -0.00000000000E+00 -0.00000000000E+00 -0.44138191544E+03  0.44138191544E+03  0.00000000000E+00 0.  1.
         23    2    1    2    0    0 -0.67010797965E+03  0.14732267387E+03  0.13579835282E+04  0.15243352170E+04  0.93434019930E+02 0.  0.
        254    2    1    2    0    0  0.67010797965E+03 -0.14732267387E+03  0.52982134194E+03  0.12462334841E+04  0.89534270972E+03 0.  0.
         23    2    4    4    0    0  0.35026759413E+02 -0.70926632228E+02  0.58546376340E+03  0.59766376663E+03  0.90425099637E+02 0.  0.
         23    2    4    4    0    0  0.63508122024E+03 -0.76396041639E+02 -0.55642421469E+02  0.64856971746E+03  0.91553742995E+02 0.  0.
          1    1    3    3  502    0 -0.42439030734E+03  0.84916876202E+02  0.95092160649E+03  0.10447822311E+04  0.00000000000E+00 0. -1.
         -1    1    3    3    0  502 -0.24571767232E+03  0.62405797665E+02  0.40706192174E+03  0.47955298581E+03  0.00000000000E+00 0.  1.
         13    1    5    5    0    0 -0.26630109513E+02 -0.11899735489E+02  0.82402148263E+02  0.87412130026E+02  0.00000000000E+00 0.  1.
        -13    1    5    5    0    0  0.61656868926E+02 -0.59026896739E+02  0.50306161514E+03  0.51025163660E+03  0.00000000000E+00 0. -1.
          3    1    6    6  503    0  0.55091833584E+03 -0.95110401832E+02 -0.59761130753E+02  0.56225296269E+03  0.00000000000E+00 0. -1.
         -3    1    6    6    0  503  0.84162884396E+02  0.18714360193E+02  0.41187092837E+01  0.86316754767E+02  0.00000000000E+00 0.  1.
<mgrwt>
<rscale>  0 0.20278668E+04</rscale>
<asrwt>0</asrwt>
<pdfrwt beam="1">  1        2 0.35833642E+00 0.20278668E+04</pdfrwt>
<pdfrwt beam="2">  1       -2 0.67904912E-01 0.20278668E+04</pdfrwt>
<totfact> 0.80353623E+00</totfact>
</mgrwt>
</event>
<event>
12    3  0.7066604E-008  0.2207511E+04  0.7818608E-02  0.8515308E-01
          1   -1    0    0  501    0  0.00000000000E+00  0.00000000000E+00  0.24412634931E+04  0.24412634931E+04  0.00000000000E+00 0. -1.
         -1   -1    0    0    0  501 -0.00000000000E+00 -0.00000000000E+00 -0.49903530982E+03  0.49903530982E+03  0.00000000000E+00 0.  1.
         23    2    1    2    0    0 -0.14796065411E+03 -0.54786273636E+03  0.17946154132E+04  0.18845022051E+04  0.93049161611E+02 0.  0.
        254    2    1    2    0    0  0.14796065411E+03  0.54786273636E+03  0.14761277003E+03  0.10557965978E+04  0.87799259281E+03 0.  0.
         23    2    4    4    0    0  0.42519923349E+03  0.59900916887E+03  0.16533464274E+03  0.75852288531E+03  0.91733586531E+02 0.  0.
         23    2    4    4    0    0 -0.27723857938E+03 -0.51146432510E+02 -0.17721872717E+02  0.29727371250E+03  0.92630491284E+02 0.  0.
          2    1    3    3  502    0 -0.14557863112E+03 -0.52678260750E+03  0.16455356740E+04  0.17339206175E+04  0.00000000000E+00 0. -1.
         -2    1    3    3    0  502 -0.23820229909E+01 -0.21080128863E+02  0.14907973925E+03  0.15058158759E+03  0.00000000000E+00 0.  1.
         13    1    5    5    0    0  0.42092085733E+03  0.60016197195E+03  0.16955036156E+03  0.75240686188E+03  0.00000000000E+00 0. -1.
        -13    1    5    5    0    0  0.42783761587E+01 -0.11528030719E+01 -0.42157188131E+01  0.61160234294E+01  0.00000000000E+00 0.  1.
          2    1    6    6  503    0 -0.26656817989E+03 -0.27608328264E+02 -0.40240506729E+01  0.26802426626E+03  0.00000000000E+00 0. -1.
         -2    1    6    6    0  503 -0.10670399493E+02 -0.23538104247E+02 -0.13697822044E+02  0.29249446245E+02  0.00000000000E+00 0.  1.
<mgrwt>
<rscale>  0 0.22075114E+04</rscale>
<asrwt>0</asrwt>
<pdfrwt beam="1">  1        1 0.37557899E+00 0.22075114E+04</pdfrwt>
<pdfrwt beam="2">  1       -1 0.76774664E-01 0.22075114E+04</pdfrwt>
<totfact> 0.23073391E+00</totfact>
</mgrwt>
</event>
<event>
12    3  0.4192740E-008  0.3009455E+04  0.7818608E-02  0.8241036E-01
          1   -1    0    0  501    0  0.00000000000E+00  0.00000000000E+00  0.93261615562E+03  0.93261615562E+03  0.00000000000E+00 0. -1.
         -1   -1    0    0    0  501 -0.00000000000E+00 -0.00000000000E+00 -0.24277996794E+04  0.24277996794E+04  0.00000000000E+00 0.  1.
         23    2    1    2    0    0  0.33774438850E+03  0.28613887130E+03 -0.21005693664E+04  0.21486671401E+04  0.91826412959E+02 0.  0.
        254    2    1    2    0    0 -0.33774438850E+03 -0.28613887130E+03  0.60538584258E+03  0.12117486950E+04  0.95178577200E+03 0.  0.
         23    2    4    4    0    0 -0.53668776694E+03 -0.39588933561E+03  0.14123255729E+03  0.68688688120E+03  0.84290136395E+02 0.  0.
         23    2    4    4    0    0  0.19894337845E+03  0.10975046431E+03  0.46415328529E+03  0.52486181379E+03  0.91749763393E+02 0.  0.
          3    1    3    3  502    0  0.83761737362E+02  0.11187426679E+03 -0.80042918933E+03  0.81253847130E+03  0.00000000000E+00 0. -1.
         -3    1    3    3    0  502  0.25398265113E+03  0.17426460451E+03 -0.13001401771E+04  0.13361286688E+04  0.00000000000E+00 0.  1.
         13    1    5    5    0    0 -0.40377101252E+03 -0.27958320259E+03  0.68475284728E+02  0.49586960215E+03  0.00000000000E+00 0. -1.
        -13    1    5    5    0    0 -0.13291675442E+03 -0.11630613302E+03  0.72757272561E+02  0.19101727905E+03  0.00000000000E+00 0.  1.
          3    1    6    6  503    0  0.29490557526E+01 -0.77727646423E+01  0.97030803261E+00  0.83698445442E+01  0.00000000000E+00 0.  1.
         -3    1    6    6    0  503  0.19599432269E+03  0.11752322895E+03  0.46318297726E+03  0.51649196925E+03  0.00000000000E+00 0. -1.
<mgrwt>
<rscale>  0 0.30094552E+04</rscale>
<asrwt>0</asrwt>
<pdfrwt beam="1">  1        1 0.14347941E+00 0.30094552E+04</pdfrwt>
<pdfrwt beam="2">  1       -1 0.37350764E+00 0.30094552E+04</pdfrwt>
<totfact> 0.15745541E-01</totfact>
</mgrwt>
</event>
<event>
12    3  0.4192740E-008  0.1971093E+04  0.7818608E-02  0.8620256E-01
          1   -1    0    0  501    0  0.00000000000E+00  0.00000000000E+00  0.15183526658E+04  0.15183526658E+04  0.00000000000E+00 0. -1.
         -1   -1    0    0    0  501 -0.00000000000E+00 -0.00000000000E+00 -0.63970790342E+03  0.63970790342E+03  0.00000000000E+00 0.  1.
         23    2    1    2    0    0 -0.38160651306E+03 -0.26479409086E+03  0.10350384528E+04  0.11382912822E+04  0.93075253990E+02 0.  0.
        254    2    1    2    0    0  0.38160651306E+03  0.26479409086E+03 -0.15639369043E+03  0.10197692871E+04  0.89427678660E+03 0.  0.
         23    2    4    4    0    0  0.46127082165E+03 -0.63640425631E+02 -0.37701789317E+03  0.60623503371E+03  0.92507024816E+02 0.  0.
         23    2    4    4    0    0 -0.79664308587E+02  0.32843451649E+03  0.22062420274E+03  0.41353425335E+03  0.90110521993E+02 0.  0.
          4    1    3    3  502    0 -0.35910423330E+03 -0.22947695010E+03  0.88097752796E+03  0.97864034547E+03  0.00000000000E+00 0. -1.
         -4    1    3    3    0  502 -0.22502279769E+02 -0.35317140751E+02  0.15406092485E+03  0.15965093671E+03  0.00000000000E+00 0.  1.
         13    1    5    5    0    0  0.38561687740E+03 -0.51199137285E+02 -0.35456708363E+03  0.52634546127E+03  0.00000000000E+00 0.  1.
        -13    1    5    5    0    0  0.75653944248E+02 -0.12441288345E+02 -0.22450809536E+02  0.79889572441E+02  0.00000000000E+00 0. -1.
          1    1    6    6  503    0 -0.40465816167E+02  0.43253709136E+02  0.19452632235E+02  0.62343969499E+02  0.00000000000E+00 0. -1.
         -1    1    6    6    0  503 -0.39198492421E+02  0.28518080735E+03  0.20117157051E+03  0.35119028385E+03  0.00000000000E+00 0.  1.
<mgrwt>
<rscale>  0 0.19710933E+04</rscale>
<asrwt>0</asrwt>
<pdfrwt beam="1">  1        1 0.23359272E+00 0.19710933E+04</pdfrwt>
<pdfrwt beam="2">  1       -1 0.98416601E-01 0.19710933E+04</pdfrwt>
<totfact> 0.58395619E+00</totfact>
</mgrwt>
</event>
<event>
12    3  0.4192740E-008  0.1334256E+04  0.7818608E-02  0.9002833E-01
         -2   -1    0    0    0  501 -0.00000000000E+00  0.00000000000E+00  0.10107764883E+04  0.10107764883E+04  0.00000000000E+00 0. -1.
          2   -1    0    0  501    0  0.00000000000E+00 -0.00000000000E+00 -0.44031449696E+03  0.44031449696E+03  0.00000000000E+00 0.  1.
         23    2    1    2    0    0  0.11474465263E+03 -0.34864430759E+02  0.49176878615E+03  0.51411665944E+03  0.89986313633E+02 0.  0.
        254    2    1    2    0    0 -0.11474465263E+03  0.34864430759E+02  0.78693205222E+02  0.93697432586E+03  0.92593002054E+03 0.  0.
         23    2    4    4    0    0  0.93828251031E+02  0.52772658892E+02 -0.39057397989E+03  0.41515184513E+03  0.90632921912E+02 0.  0.
         23    2    4    4    0    0 -0.20857290366E+03 -0.17908228133E+02  0.46926718511E+03  0.52182248073E+03  0.90904618163E+02 0.  0.
          1    1    3    3  502    0  0.36953518044E+02  0.10399600458E+02  0.29804036470E+03  0.30050253439E+03  0.00000000000E+00 0. -1.
         -1    1    3    3    0  502  0.77791134582E+02 -0.45264031217E+02  0.19372842145E+03  0.21361412505E+03  0.00000000000E+00 0.  1.
         13    1    5    5    0    0 -0.83511803536E+01  0.84763350827E+01 -0.35414810942E+01  0.12415013414E+02  0.00000000000E+00 0.  1.
        -13    1    5    5    0    0  0.10217943138E+03  0.44296323810E+02 -0.38703249879E+03  0.40273683172E+03  0.00000000000E+00 0. -1.
          1    1    6    6  503    0 -0.17929111044E+03 -0.48069308729E+02  0.36761674064E+03  0.41182281229E+03  0.00000000000E+00 0. -1.
         -1    1    6    6    0  503 -0.29281793220E+02  0.30161080595E+02  0.10165044447E+03  0.10999966845E+03  0.00000000000E+00 0.  1.
<mgrwt>
<rscale>  0 0.13342557E+04</rscale>
<asrwt>0</asrwt>
<pdfrwt beam="1">  1        2 0.67740692E-01 0.13342557E+04</pdfrwt>
<pdfrwt beam="2">  1       -2 0.15550407E+00 0.13342557E+04</pdfrwt>
<totfact> 0.18953706E+01</totfact>
</mgrwt>
</event>
<event>
12    3  0.4192740E-008  0.1158603E+04  0.7818608E-02  0.9149883E-01
          2   -1    0    0  501    0  0.00000000000E+00  0.00000000000E+00  0.24349337981E+04  0.24349337981E+04  0.00000000000E+00 0. -1.
         -2   -1    0    0    0  501 -0.00000000000E+00 -0.00000000000E+00 -0.13782311770E+03  0.13782311770E+03  0.00000000000E+00 0.  1.
         23    2    1    2    0    0  0.91563463844E+02 -0.15316936691E+03  0.14238669300E+03  0.24879525272E+03  0.98895826816E+02 0.  0.
        254    2    1    2    0    0 -0.91563463844E+02  0.15316936691E+03  0.21547239874E+04  0.23239616631E+04  0.85212535855E+03 0.  0.
         23    2    4    4    0    0 -0.27878088582E+03  0.31348084420E+03  0.19341199720E+04  0.19811869360E+04  0.91063644712E+02 0.  0.
         23    2    4    4    0    0  0.18721742197E+03 -0.16031147729E+03  0.22060401539E+03  0.34277472704E+03  0.89879080164E+02 0.  0.
          2    1    3    3  502    0 -0.10271018917E+02 -0.74600043955E+02  0.56306713254E+02  0.94027157487E+02  0.00000000000E+00 0.  1.
         -2    1    3    3    0  502  0.10183448276E+03 -0.78569322955E+02  0.86079979749E+02  0.15476809523E+03  0.00000000000E+00 0. -1.
         13    1    5    5    0    0 -0.20189027594E+03  0.16400204546E+03  0.12423031538E+04  0.12692413011E+04  0.00000000000E+00 0. -1.
        -13    1    5    5    0    0 -0.76890609875E+02  0.14947879874E+03  0.69181681818E+03  0.71194563492E+03  0.00000000000E+00 0.  1.
          2    1    6    6  503    0  0.40468155762E+02 -0.21990396608E+01  0.10999117160E+02  0.41993904135E+02  0.00000000000E+00 0. -1.
         -2    1    6    6    0  503  0.14674926621E+03 -0.15811243763E+03  0.20960489823E+03  0.30078082291E+03  0.00000000000E+00 0.  1.
<mgrwt>
<rscale>  0 0.11586029E+04</rscale>
<asrwt>0</asrwt>
<pdfrwt beam="1">  1        2 0.37460517E+00 0.11586029E+04</pdfrwt>
<pdfrwt beam="2">  1       -2 0.21203558E-01 0.11586029E+04</pdfrwt>
<totfact> 0.72863966E+01</totfact>
</mgrwt>
</event>
<event>
12    3  0.4192740E-008  0.1730015E+04  0.7818608E-02  0.8744428E-01
         -1   -1    0    0    0  501 -0.00000000000E+00  0.00000000000E+00  0.14914265328E+04  0.14914265328E+04  0.00000000000E+00 0.  1.
          1   -1    0    0  501    0  0.00000000000E+00 -0.00000000000E+00 -0.50169292903E+03  0.50169292903E+03  0.00000000000E+00 0. -1.
         23    2    1    2    0    0  0.22958311421E+03 -0.27011954036E+03 -0.23655934592E+03  0.43520412097E+03  0.88143804954E+02 0.  0.
        254    2    1    2    0    0 -0.22958311421E+03  0.27011954036E+03  0.12262929497E+04  0.15579153409E+04  0.89310292710E+03 0.  0.
         23    2    4    4    0    0 -0.17979257208E+03 -0.31084023925E+03  0.48616073445E+03  0.61125519409E+03  0.91288713762E+02 0.  0.
         23    2    4    4    0    0 -0.49790542135E+02  0.58095977961E+03  0.74013221524E+03  0.94666014677E+03  0.91522531823E+02 0.  0.
          1    1    3    3  502    0  0.17648261020E+03 -0.23222374377E+03 -0.15353546373E+03  0.32961662200E+03  0.00000000000E+00 0. -1.
         -1    1    3    3    0  502  0.53100504017E+02 -0.37895796584E+02 -0.83023882186E+02  0.10558749897E+03  0.00000000000E+00 0.  1.
         13    1    5    5    0    0 -0.17643876271E+03 -0.25777066428E+03  0.44648840752E+03  0.54491123167E+03  0.00000000000E+00 0.  1.
        -13    1    5    5    0    0 -0.33538093664E+01 -0.53069574970E+02  0.39672326938E+02  0.66343962419E+02  0.00000000000E+00 0. -1.
          2    1    6    6  503    0 -0.46748683526E+02  0.11708106521E+03  0.14659911988E+03  0.19335127926E+03  0.00000000000E+00 0. -1.
         -2    1    6    6    0  503 -0.30418586092E+01  0.46387871440E+03  0.59353309536E+03  0.75330886751E+03  0.00000000000E+00 0.  1.
<mgrwt>
<rscale>  0 0.17300152E+04</rscale>
<asrwt>0</asrwt>
<pdfrwt beam="1">  1        1 0.77183528E-01 0.17300152E+04</pdfrwt>
<pdfrwt beam="2">  1       -1 0.22945023E+00 0.17300152E+04</pdfrwt>
<totfact> 0.39857817E+00</totfact>
</mgrwt>
</event>
<event>
12    3  0.4192740E-008  0.1219431E+04  0.7818608E-02  0.9096016E-01
          2   -1    0    0  501    0  0.00000000000E+00  0.00000000000E+00  0.13302152983E+04  0.13302152983E+04  0.00000000000E+00 0. -1.
         -2   -1    0    0    0  501 -0.00000000000E+00 -0.00000000000E+00 -0.27946846116E+03  0.27946846116E+03  0.00000000000E+00 0.  1.
         23    2    1    2    0    0  0.18546482919E+02 -0.88087927501E+02 -0.86971810945E+02  0.16175715623E+03  0.10245890246E+03 0.  0.
        254    2    1    2    0    0 -0.18546482919E+02  0.88087927501E+02  0.11377186481E+04  0.14479266032E+04  0.89105795050E+03 0.  0.
         23    2    4    4    0    0  0.33467244813E+03  0.28410882940E+03  0.78511188506E+03  0.90427840604E+03  0.92710781943E+02 0.  0.
         23    2    4    4    0    0 -0.35321893105E+03 -0.19602090190E+03  0.35260676304E+03  0.54364819721E+03  0.89632727031E+02 0.  0.
          3    1    3    3  502    0  0.11044086815E+02  0.14849356683E+02  0.92160673085E+01  0.20673924255E+02  0.00000000000E+00 0. -1.
         -3    1    3    3    0  502  0.75023961034E+01 -0.10293728418E+03 -0.96187878254E+02  0.14108323198E+03  0.00000000000E+00 0.  1.
         13    1    5    5    0    0  0.11387862172E+03  0.10892619722E+03  0.37384564435E+03  0.40570164250E+03  0.00000000000E+00 0. -1.
        -13    1    5    5    0    0  0.22079382640E+03  0.17518263218E+03  0.41126624071E+03  0.49857676354E+03  0.00000000000E+00 0.  1.
          1    1    6    6  503    0 -0.14471753717E+03 -0.11466342886E+03  0.20316231762E+03  0.27452831326E+03  0.00000000000E+00 0. -1.
         -1    1    6    6    0  503 -0.20850139388E+03 -0.81357473038E+02  0.14944444543E+03  0.26911988395E+03  0.00000000000E+00 0.  1.
<mgrwt>
<rscale>  0 0.12194314E+04</rscale>
<asrwt>0</asrwt>
<pdfrwt beam="1">  1        2 0.20464850E+00 0.12194314E+04</pdfrwt>
<pdfrwt beam="2">  1       -2 0.42995149E-01 0.12194314E+04</pdfrwt>
<totfact> 0.80199141E+01</totfact>
</mgrwt>
</event>
<event>
12    3  0.4192740E-008  0.1685494E+04  0.7818608E-02  0.8769681E-01
          3   -1    0    0  501    0  0.00000000000E+00  0.00000000000E+00  0.74898472163E+03  0.74898472163E+03  0.00000000000E+00 0. -1.
         -3   -1    0    0    0  501 -0.00000000000E+00 -0.00000000000E+00 -0.94824647739E+03  0.94824647739E+03  0.00000000000E+00 0.  1.
         23    2    1    2    0    0  0.17911742573E+03  0.13850532246E+03  0.48634380943E+03  0.54525584290E+03  0.97503111176E+02 0.  0.
        254    2    1    2    0    0 -0.17911742573E+03 -0.13850532246E+03 -0.68560556520E+03  0.11519753561E+04  0.89762211065E+03 0.  0.
         23    2    4    4    0    0 -0.17696448749E+03  0.10065648551E+03 -0.82986496649E+03  0.85975193822E+03  0.95128201771E+02 0.  0.
         23    2    4    4    0    0 -0.21529382422E+01 -0.23916180797E+03  0.14425940129E+03  0.29222341789E+03  0.85911265677E+02 0.  0.
          1    1    3    3  502    0  0.14089404676E+03  0.13355598706E+03  0.45790122654E+03  0.49735487065E+03  0.00000000000E+00 0. -1.
         -1    1    3    3    0  502  0.38223378968E+02  0.49493354088E+01  0.28442582893E+02  0.47900972248E+02  0.00000000000E+00 0.  1.
         13    1    5    5    0    0 -0.39519472765E+01  0.35912599541E+02 -0.85764576220E+02  0.93063930860E+02  0.00000000000E+00 0. -1.
        -13    1    5    5    0    0 -0.17301254021E+03  0.64743885968E+02 -0.74410039027E+03  0.76668800736E+03  0.00000000000E+00 0.  1.
          3    1    6    6  503    0  0.48043441211E+01 -0.10835393261E+03  0.17355838939E+02  0.10984025483E+03  0.00000000000E+00 0. -1.
         -3    1    6    6    0  503 -0.69572823633E+01 -0.13080787536E+03  0.12690356235E+03  0.18238316307E+03  0.00000000000E+00 0.  1.
<mgrwt>
<rscale>  0 0.16854935E+04</rscale>
<asrwt>0</asrwt>
<pdfrwt beam="1">  1        3 0.11522842E+00 0.16854935E+04</pdfrwt>
<pdfrwt beam="2">  1       -3 0.14588407E+00 0.16854935E+04</pdfrwt>
<totfact> 0.53997372E-01</totfact>
</mgrwt>
</event>
<event>
12    3  0.4192740E-008  0.2126843E+04  0.7818608E-02  0.8549510E-01
         -2   -1    0    0    0  501 -0.00000000000E+00  0.00000000000E+00  0.68750924164E+03  0.68750924164E+03  0.00000000000E+00 0.  1.
          2   -1    0    0  501    0  0.00000000000E+00 -0.00000000000E+00 -0.16448731915E+04  0.16448731915E+04  0.00000000000E+00 0. -1.
         23    2    1    2    0    0 -0.84901788658E+02  0.40751117907E+01  0.54243193676E+03  0.55664028668E+03  0.91602851904E+02 0.  0.
        254    2    1    2    0    0  0.84901788658E+02 -0.40751117907E+01 -0.14997958866E+04  0.17757421464E+04  0.94691475271E+03 0.  0.
         23    2    4    4    0    0  0.13754862054E+03 -0.24162778354E+03 -0.14863237914E+04  0.15149097949E+04  0.92139378172E+02 0.  0.
         23    2    4    4    0    0 -0.52646831886E+02  0.23755267175E+03 -0.13472095152E+02  0.26083235149E+03  0.93000308981E+02 0.  0.
          3    1    3    3  502    0 -0.11093886432E+02 -0.29994888071E+02  0.28221080040E+03  0.28401708309E+03  0.00000000000E+00 0. -1.
         -3    1    3    3    0  502 -0.73807902226E+02  0.34069999862E+02  0.26022113636E+03  0.27262320358E+03  0.00000000000E+00 0.  1.
         13    1    5    5    0    0  0.13760621669E+03 -0.24955401033E+03 -0.14459238459E+04  0.14737396117E+04  0.00000000000E+00 0. -1.
        -13    1    5    5    0    0 -0.57596145609E-01  0.79262267930E+01 -0.40399945579E+02  0.41170183280E+02  0.00000000000E+00 0.  1.
          4    1    6    6  503    0 -0.14628021253E+02  0.15840388840E+03  0.31519269429E+02  0.16217038944E+03  0.00000000000E+00 0. -1.
         -4    1    6    6    0  503 -0.38018810633E+02  0.79148783351E+02 -0.44991364581E+02  0.98661962046E+02  0.00000000000E+00 0.  1.
<mgrwt>
<rscale>  0 0.21268432E+04</rscale>
<asrwt>0</asrwt>
<pdfrwt beam="1">  1        2 0.25305741E+00 0.21268432E+04</pdfrwt>
<pdfrwt beam="2">  1       -2 0.10577065E+00 0.21268432E+04</pdfrwt>
<totfact> 0.69914416E+00</totfact>
</mgrwt>
</event>
<event>
12    3  0.4192740E-008  0.1798381E+04  0.7818608E-02  0.8707161E-01
          2   -1    0    0  501    0  0.00000000000E+00  0.00000000000E+00  0.17592869727E+04  0.17592869727E+04  0.00000000000E+00 0.  1.
         -2   -1    0    0    0  501 -0.00000000000E+00 -0.00000000000E+00 -0.45958594652E+03  0.45958594652E+03  0.00000000000E+00 0. -1.
         23    2    1    2    0    0  0.25954441813E+03 -0.10621256652E+03 -0.20247258743E+03  0.35794235305E+03  0.92104099678E+02 0.  0.
        254    2    1    2    0    0 -0.25954441813E+03  0.10621256652E+03  0.15021736136E+04  0.18609305662E+04  0.10620228775E+04 0.  0.
         23    2    4    4    0    0 -0.19687507289E+03  0.51952839742E+03  0.43449972613E+03  0.71053712016E+03  0.86043227928E+02 0.  0.
         23    2    4    4    0    0 -0.62669345239E+02 -0.41331583091E+03  0.10676738875E+04  0.11503934460E+04  0.93381623820E+02 0.  0.
          1    1    3    3  502    0  0.62481410897E+02 -0.16135689630E+02 -0.98145500349E+02  0.11745989284E+03  0.00000000000E+00 0. -1.
         -1    1    3    3    0  502  0.19706300723E+03 -0.90076876887E+02 -0.10432708708E+03  0.24048246021E+03  0.00000000000E+00 0.  1.
         13    1    5    5    0    0 -0.73953193770E+02  0.28389098676E+03  0.19084411127E+03  0.34997805937E+03  0.00000000000E+00 0. -1.
        -13    1    5    5    0    0 -0.12292187912E+03  0.23563741066E+03  0.24365561486E+03  0.36055906080E+03  0.00000000000E+00 0.  1.
          4    1    6    6  503    0 -0.21361779868E+02 -0.34842486061E+03  0.91753832491E+03  0.98169892880E+03  0.00000000000E+00 0. -1.
         -4    1    6    6    0  503 -0.41307565371E+02 -0.64890970297E+02  0.15013556259E+03  0.16869451721E+03  0.00000000000E+00 0.  1.
<mgrwt>
<rscale>  0 0.17983810E+04</rscale>
<asrwt>0</asrwt>
<pdfrwt beam="1">  1        2 0.27065953E+00 0.17983810E+04</pdfrwt>
<pdfrwt beam="2">  1       -2 0.70705531E-01 0.17983810E+04</pdfrwt>
<totfact> 0.15606385E+01</totfact>
</mgrwt>
</event>
<event>
12    3  0.4192740E-008  0.1433658E+04  0.7818608E-02  0.8929809E-01
          1   -1    0    0  501    0  0.00000000000E+00  0.00000000000E+00  0.53522947373E+03  0.53522947373E+03  0.00000000000E+00 0. -1.
         -1   -1    0    0    0  501 -0.00000000000E+00 -0.00000000000E+00 -0.96004329294E+03  0.96004329294E+03  0.00000000000E+00 0.  1.
         23    2    1    2    0    0  0.36559281336E+03  0.16733230222E+03 -0.29435908496E+03  0.50649856975E+03  0.90748695365E+02 0.  0.
        254    2    1    2    0    0 -0.36559281336E+03 -0.16733230222E+03 -0.13045473425E+03  0.98877419692E+03  0.89386675195E+03 0.  0.
         23    2    4    4    0    0 -0.32767329775E+03 -0.21290763127E+03 -0.47758189798E+03  0.62414729146E+03  0.93679894611E+02 0.  0.
         23    2    4    4    0    0 -0.37919515614E+02  0.45575329052E+02  0.34712716372E+03  0.36462690545E+03  0.94554281250E+02 0.  0.
          1    1    3    3  502    0  0.17036203741E+03  0.84546751567E+02 -0.19475071128E+03  0.27221171271E+03  0.00000000000E+00 0. -1.
         -1    1    3    3    0  502  0.19523077595E+03  0.82785550650E+02 -0.99608373685E+02  0.23428685704E+03  0.00000000000E+00 0.  1.
         13    1    5    5    0    0 -0.25119281528E+03 -0.11263842358E+03 -0.34091662929E+03  0.43818876417E+03  0.00000000000E+00 0. -1.
        -13    1    5    5    0    0 -0.76480482467E+02 -0.10026920769E+03 -0.13666526869E+03  0.18595852730E+03  0.00000000000E+00 0.  1.
          1    1    6    6  503    0  0.26350308859E+01 -0.14280214162E+02  0.20166737315E+03  0.20218950838E+03  0.00000000000E+00 0. -1.
         -1    1    6    6    0  503 -0.40554546500E+02  0.59855543214E+02  0.14545979057E+03  0.16243739708E+03  0.00000000000E+00 0.  1.
<mgrwt>
<rscale>  0 0.14336575E+04</rscale>
<asrwt>0</asrwt>
<pdfrwt beam="1">  1        1 0.82342996E-01 0.14336575E+04</pdfrwt>
<pdfrwt beam="2">  1       -1 0.14769897E+00 0.14336575E+04</pdfrwt>
<totfact> 0.14259182E+01</totfact>
</mgrwt>
</event>
<event>
12    3  0.4192740E-008  0.1159991E+04  0.7818608E-02  0.9148615E-01
          1   -1    0    0  501    0  0.00000000000E+00  0.00000000000E+00  0.91176011162E+03  0.91176011162E+03  0.00000000000E+00 0. -1.
         -1   -1    0    0    0  501 -0.00000000000E+00 -0.00000000000E+00 -0.36895117891E+03  0.36895117891E+03  0.00000000000E+00 0.  1.
         23    2    1    2    0    0 -0.19726207517E+03 -0.81030054673E+02  0.25751842455E+02  0.23398100374E+03  0.92767217594E+02 0.  0.
        254    2    1    2    0    0  0.19726207517E+03  0.81030054673E+02  0.51705709025E+03  0.10467302868E+04  0.88477006202E+03 0.  0.
         23    2    4    4    0    0  0.20423594638E+03  0.23295433885E+02  0.75311010177E+03  0.78635985537E+03  0.94509246751E+02 0.  0.
         23    2    4    4    0    0 -0.69738712102E+01  0.57734620788E+02 -0.23605301152E+03  0.26037043142E+03  0.93219182555E+02 0.  0.
          3    1    3    3  502    0  0.10937348210E+01  0.24228916537E+01 -0.14766161053E+02  0.15003538652E+02  0.00000000000E+00 0. -1.
         -3    1    3    3    0  502 -0.19835580999E+03 -0.83452946327E+02  0.40518003508E+02  0.21897746508E+03  0.00000000000E+00 0.  1.
         13    1    5    5    0    0  0.16996502791E+03  0.18642835219E+02  0.45181743876E+03  0.48308867093E+03  0.00000000000E+00 0.  1.
        -13    1    5    5    0    0  0.34270918466E+02  0.46525986662E+01  0.30129266301E+03  0.30327118444E+03  0.00000000000E+00 0. -1.
          4    1    6    6  503    0 -0.12390703726E+02  0.25864108338E+02 -0.22406309923E+03  0.22589102257E+03  0.00000000000E+00 0. -1.
         -4    1    6    6    0  503  0.54168325156E+01  0.31870512451E+02 -0.11989912282E+02  0.34479408854E+02  0.00000000000E+00 0.  1.
<mgrwt>
<rscale>  0 0.11599913E+04</rscale>
<asrwt>0</asrwt>
<pdfrwt beam="1">  1        1 0.14027079E+00 0.11599913E+04</pdfrwt>
<pdfrwt beam="2">  1       -1 0.56761720E-01 0.11599913E+04</pdfrwt>
<totfact> 0.55493708E+01</totfact>
</mgrwt>
</event>
<event>
12    3  0.4192740E-008  0.1292576E+04  0.7818608E-02  0.9035473E-01
          1   -1    0    0  501    0  0.00000000000E+00  0.00000000000E+00  0.62558877174E+03  0.62558877174E+03  0.00000000000E+00 0. -1.
         -1   -1    0    0    0  501 -0.00000000000E+00 -0.00000000000E+00 -0.66767249715E+03  0.66767249715E+03  0.00000000000E+00 0.  1.
         23    2    1    2    0    0  0.28258489781E+03 -0.59917300803E+02 -0.15068698155E+03  0.33862322478E+03  0.92275752733E+02 0.  0.
        254    2    1    2    0    0 -0.28258489781E+03  0.59917300803E+02  0.10860325614E+03  0.95463804412E+03  0.90337966582E+03 0.  0.
         23    2    4    4    0    0  0.31149891130E+02  0.19788885931E+03  0.42553123851E+03  0.47897834982E+03  0.90626200912E+02 0.  0.
         23    2    4    4    0    0 -0.31373478894E+03 -0.13797155850E+03 -0.31692798237E+03  0.47565969430E+03  0.91340735825E+02 0.  0.
          4    1    3    3  502    0  0.49687305240E+02 -0.46829179959E+02 -0.19538016084E+02  0.71017846139E+02  0.00000000000E+00 0. -1.
         -4    1    3    3    0  502  0.23289759257E+03 -0.13088120844E+02 -0.13114896547E+03  0.26760537864E+03  0.00000000000E+00 0.  1.
         13    1    5    5    0    0  0.38374650824E+01  0.14907604427E+02  0.47120708338E+00  0.15400806606E+02  0.00000000000E+00 0. -1.
        -13    1    5    5    0    0  0.27312426047E+02  0.18298125488E+03  0.42506003143E+03  0.46357754321E+03  0.00000000000E+00 0.  1.
          1    1    6    6  503    0 -0.74220618704E+02 -0.78130748898E+02 -0.92478363897E+02  0.14200479553E+03  0.00000000000E+00 0. -1.
         -1    1    6    6    0  503 -0.23951417024E+03 -0.59840809605E+02 -0.22444961847E+03  0.33365489877E+03  0.00000000000E+00 0.  1.
<mgrwt>
<rscale>  0 0.12925764E+04</rscale>
<asrwt>0</asrwt>
<pdfrwt beam="1">  1        1 0.96244426E-01 0.12925764E+04</pdfrwt>
<pdfrwt beam="2">  1       -1 0.10271885E+00 0.12925764E+04</pdfrwt>
<totfact> 0.28398906E+01</totfact>
</mgrwt>
</event>
<event>
12    3  0.4192740E-008  0.3071556E+04  0.7818608E-02  0.8223588E-01
          2   -1    0    0  501    0  0.00000000000E+00  0.00000000000E+00  0.47509503126E+04  0.47509503126E+04  0.00000000000E+00 0. -1.
         -2   -1    0    0    0  501 -0.00000000000E+00 -0.00000000000E+00 -0.49645115415E+03  0.49645115415E+03  0.00000000000E+00 0.  1.
         23    2    1    2    0    0  0.13655230256E+04  0.21037158655E+03  0.15501442292E+04  0.20785537836E+04  0.92354546835E+02 0.  0.
        254    2    1    2    0    0 -0.13655230256E+04 -0.21037158655E+03  0.27043549293E+04  0.31688476831E+04  0.90506945438E+03 0.  0.
         23    2    4    4    0    0 -0.13400449051E+04 -0.27214911948E+03  0.18255643413E+04  0.22828881595E+04  0.95434236394E+02 0.  0.
         23    2    4    4    0    0 -0.25478120510E+02  0.61777532934E+02  0.87879058793E+03  0.88595952359E+03  0.90475310477E+02 0.  0.
          4    1    3    3  502    0  0.13616331419E+04  0.21348694047E+03  0.15368035346E+04  0.20643126194E+04  0.00000000000E+00 0. -1.
         -4    1    3    3    0  502  0.38898837104E+01 -0.31153539195E+01  0.13340694615E+02  0.14241164213E+02  0.00000000000E+00 0.  1.
         13    1    5    5    0    0 -0.13735992442E+03  0.10262473588E+01  0.17747859671E+03  0.22442694649E+03  0.00000000000E+00 0.  1.
        -13    1    5    5    0    0 -0.12026849807E+04 -0.27317536684E+03  0.16480857446E+04  0.20584612130E+04  0.00000000000E+00 0. -1.
          1    1    6    6  503    0 -0.31870997518E+02  0.82809107904E+02  0.75898930378E+03  0.76415827686E+03  0.00000000000E+00 0. -1.
         -1    1    6    6    0  503  0.63928770082E+01 -0.21031574969E+02  0.11980128414E+03  0.12180124673E+03  0.00000000000E+00 0.  1.
<mgrwt>
<rscale>  0 0.30715565E+04</rscale>
<asrwt>0</asrwt>
<pdfrwt beam="1">  1        2 0.73091540E+00 0.30715565E+04</pdfrwt>
<pdfrwt beam="2">  1       -2 0.76377104E-01 0.30715565E+04</pdfrwt>
<totfact> 0.87981191E-02</totfact>
</mgrwt>
</event>
<event>
12    3  0.4192740E-008  0.2211945E+04  0.7818608E-02  0.8513473E-01
         -1   -1    0    0    0  501 -0.00000000000E+00  0.00000000000E+00  0.68845586918E+03  0.68845586918E+03  0.00000000000E+00 0.  1.
          1   -1    0    0  501    0  0.00000000000E+00 -0.00000000000E+00 -0.17766943392E+04  0.17766943392E+04  0.00000000000E+00 0. -1.
         23    2    1    2    0    0  0.51395818845E+03 -0.67189506268E+03 -0.84606213803E+03  0.11997062400E+04  0.88757681551E+02 0.  0.
        254    2    1    2    0    0 -0.51395818845E+03  0.67189506268E+03 -0.24217633199E+03  0.12654439684E+04  0.90945206951E+03 0.  0.
         23    2    4    4    0    0 -0.40694011530E+03  0.23974938768E+03 -0.53930307699E+03  0.72269183439E+03  0.91409257204E+02 0.  0.
         23    2    4    4    0    0 -0.10701807315E+03  0.43214567500E+03  0.29712674500E+03  0.54275213404E+03  0.89960124568E+02 0.  0.
          1    1    3    3  502    0  0.47277225020E+02 -0.67631226647E+02 -0.48997571342E+02  0.95968123983E+02  0.00000000000E+00 0. -1.
         -1    1    3    3    0  502  0.46668096343E+03 -0.60426383603E+03 -0.79706456669E+03  0.11037381160E+04  0.00000000000E+00 0.  1.
         13    1    5    5    0    0 -0.22469204489E+03  0.85433900189E+02 -0.30250752044E+03  0.38638875018E+03  0.00000000000E+00 0. -1.
        -13    1    5    5    0    0 -0.18224807042E+03  0.15431548749E+03 -0.23679555655E+03  0.33630308422E+03  0.00000000000E+00 0.  1.
          4    1    6    6  503    0 -0.18561891915E+02  0.17160273583E+02  0.94617476966E+00  0.25296522836E+02  0.00000000000E+00 0. -1.
         -4    1    6    6    0  503 -0.88456181234E+02  0.41498540142E+03  0.29618057023E+03  0.51745561121E+03  0.00000000000E+00 0.  1.
<mgrwt>
<rscale>  0 0.22119454E+04</rscale>
<asrwt>0</asrwt>
<pdfrwt beam="1">  1        1 0.27333759E+00 0.22119454E+04</pdfrwt>
<pdfrwt beam="2">  1       -1 0.10591629E+00 0.22119454E+04</pdfrwt>
<totfact> 0.32102045E+00</totfact>
</mgrwt>
</event>
<event>
12    3  0.4192740E-008  0.1042597E+04  0.7818608E-02  0.9263020E-01
         -2   -1    0    0    0  501 -0.00000000000E+00  0.00000000000E+00  0.21581690099E+03  0.21581690099E+03  0.00000000000E+00 0.  1.
          2   -1    0    0  501    0  0.00000000000E+00 -0.00000000000E+00 -0.12591801291E+04  0.12591801291E+04  0.00000000000E+00 0. -1.
         23    2    1    2    0    0 -0.19653189277E+02 -0.21346560979E+02  0.72371109340E+01  0.96290513670E+02  0.91529032191E+02 0.  0.
        254    2    1    2    0    0  0.19653189277E+02  0.21346560979E+02 -0.10506003391E+04  0.13787065164E+04  0.89231645873E+03 0.  0.
         23    2    4    4    0    0  0.22459411918E+03 -0.35129685829E+02 -0.11127114835E+04  0.11393874718E+04  0.91653434500E+02 0.  0.
         23    2    4    4    0    0 -0.20494092991E+03  0.56476246809E+02  0.62111144481E+02  0.23931904465E+03  0.90694319890E+02 0.  0.
          2    1    3    3  502    0 -0.12553957247E+02  0.17745764347E+02 -0.33146582746E+02  0.39638490670E+02  0.00000000000E+00 0. -1.
         -2    1    3    3    0  502 -0.70992320304E+01 -0.39092325326E+02  0.40383693680E+02  0.56652023001E+02  0.00000000000E+00 0.  1.
         13    1    5    5    0    0  0.18706815966E+02  0.23315254960E+02 -0.10340293660E+03  0.10763695171E+03  0.00000000000E+00 0.  1.
        -13    1    5    5    0    0  0.20588730322E+03 -0.58444940789E+02 -0.10093085469E+04  0.10317505201E+04  0.00000000000E+00 0. -1.
          3    1    6    6  503    0 -0.21112026632E+03  0.55419931769E+02  0.70018131632E+02  0.22922843289E+03  0.00000000000E+00 0. -1.
         -3    1    6    6    0  503  0.61793364123E+01  0.10563150396E+01 -0.79069871506E+01  0.10090611763E+02  0.00000000000E+00 0.  1.
<mgrwt>
<rscale>  0 0.10425974E+04</rscale>
<asrwt>0</asrwt>
<pdfrwt beam="1">  1        2 0.19372002E+00 0.10425974E+04</pdfrwt>
<pdfrwt beam="2">  1       -2 0.33202600E-01 0.10425974E+04</pdfrwt>
<totfact> 0.14722615E+02</totfact>
</mgrwt>
</event>
<event>
12    3  0.4192740E-008  0.2089216E+04  0.7818608E-02  0.8566009E-01
          1   -1    0    0  501    0  0.00000000000E+00  0.00000000000E+00  0.69212788069E+03  0.69212788069E+03  0.00000000000E+00 0. -1.
         -1   -1    0    0    0  501 -0.00000000000E+00 -0.00000000000E+00 -0.15765950138E+04  0.15765950138E+04  0.00000000000E+00 0.  1.
         23    2    1    2    0    0  0.77508046915E+03  0.33397409147E+03 -0.26227301397E+03  0.88967303578E+03  0.10218879241E+03 0.  0.
        254    2    1    2    0    0 -0.77508046915E+03 -0.33397409147E+03 -0.62219411912E+03  0.13790498587E+04  0.89574804686E+03 0.  0.
         23    2    4    4    0    0  0.48253767047E+02 -0.37377591884E+03 -0.29691561418E+03  0.48844041143E+03  0.91532999697E+02 0.  0.
         23    2    4    4    0    0 -0.82333423620E+03  0.39801827368E+02 -0.32527850494E+03  0.89060944726E+03  0.88969836550E+02 0.  0.
          4    1    3    3  502    0  0.75372152399E+03  0.30906141342E+03 -0.26525225898E+03  0.85672274038E+03  0.00000000000E+00 0. -1.
         -4    1    3    3    0  502  0.21358945162E+02  0.24912678049E+02  0.29792450011E+01  0.32950295397E+02  0.00000000000E+00 0.  1.
         13    1    5    5    0    0  0.49473266867E+02 -0.10902984392E+03 -0.12315824244E+03  0.17176455886E+03  0.00000000000E+00 0. -1.
        -13    1    5    5    0    0 -0.12194998207E+01 -0.26474607492E+03 -0.17375737174E+03  0.31667585257E+03  0.00000000000E+00 0.  1.
          3    1    6    6  503    0 -0.36605773091E+03  0.59688080183E+02 -0.16072497293E+03  0.40421955198E+03  0.00000000000E+00 0. -1.
         -3    1    6    6    0  503 -0.45727650529E+03 -0.19886252815E+02 -0.16455353201E+03  0.48638989528E+03  0.00000000000E+00 0.  1.
<mgrwt>
<rscale>  0 0.20892155E+04</rscale>
<asrwt>0</asrwt>
<pdfrwt beam="1">  1        1 0.10648121E+00 0.20892155E+04</pdfrwt>
<pdfrwt beam="2">  1       -1 0.24255308E+00 0.20892155E+04</pdfrwt>
<totfact> 0.19900502E+00</totfact>
</mgrwt>
</event>
<event>
12    3  0.4192740E-008  0.1316237E+04  0.7818608E-02  0.9016787E-01
         -2   -1    0    0    0  501 -0.00000000000E+00  0.00000000000E+00  0.36188326459E+03  0.36188326459E+03  0.00000000000E+00 0. -1.
          2   -1    0    0  501    0  0.00000000000E+00 -0.00000000000E+00 -0.11968498940E+04  0.11968498940E+04  0.00000000000E+00 0.  1.
         23    2    1    2    0    0 -0.28134585525E+03 -0.17895148670E+03 -0.13448436052E+03  0.37076105100E+03  0.90546059287E+02 0.  0.
        254    2    1    2    0    0  0.28134585525E+03  0.17895148670E+03 -0.70048226888E+03  0.11879721076E+04  0.89967949544E+03 0.  0.
         23    2    4    4    0    0 -0.20725804495E+03  0.30978075006E+03 -0.97692068133E+02  0.39586260123E+03  0.90793439033E+02 0.  0.
         23    2    4    4    0    0  0.48860390020E+03 -0.13082926336E+03 -0.60279020074E+03  0.79210950635E+03  0.90726933641E+02 0.  0.
          2    1    3    3  502    0 -0.17200891512E+03 -0.10847320972E+03 -0.33534844851E+02  0.20610213470E+03  0.00000000000E+00 0. -1.
         -2    1    3    3    0  502 -0.10933694013E+03 -0.70478276987E+02 -0.10094951567E+03  0.16465891630E+03  0.00000000000E+00 0.  1.
         13    1    5    5    0    0 -0.11240709555E+03  0.11297459265E+03 -0.75251952480E+02  0.17624264543E+03  0.00000000000E+00 0. -1.
        -13    1    5    5    0    0 -0.94850949400E+02  0.19680615741E+03 -0.22440115653E+02  0.21961995580E+03  0.00000000000E+00 0.  1.
          1    1    6    6  503    0  0.43304353786E+03 -0.96697308526E+02 -0.48405804880E+03  0.65665003599E+03  0.00000000000E+00 0. -1.
         -1    1    6    6    0  503  0.55560362346E+02 -0.34131954832E+02 -0.11873215194E+03  0.13545947035E+03  0.00000000000E+00 0.  1.
<mgrwt>
<rscale>  0 0.13162370E+04</rscale>
<asrwt>0</asrwt>
<pdfrwt beam="1">  1        2 0.18413075E+00 0.13162370E+04</pdfrwt>
<pdfrwt beam="2">  1       -2 0.55674348E-01 0.13162370E+04</pdfrwt>
<totfact> 0.56448074E+01</totfact>
</mgrwt>
</event>
<event>
12    3  0.4192740E-008  0.1221074E+04  0.7818608E-02  0.9094608E-01
         -2   -1    0    0    0  501 -0.00000000000E+00  0.00000000000E+00  0.27084659583E+03  0.27084659583E+03  0.00000000000E+00 0.  1.
          2   -1    0    0  501    0  0.00000000000E+00 -0.00000000000E+00 -0.13762599770E+04  0.13762599770E+04  0.00000000000E+00 0. -1.
         23    2    1    2    0    0 -0.17017709798E+02  0.22051613314E+03 -0.75233233849E+02  0.25156733121E+03  0.93322640537E+02 0.  0.
        254    2    1    2    0    0  0.17017709798E+02 -0.22051613314E+03 -0.10301801473E+04  0.13955392416E+04  0.91506375274E+03 0.  0.
         23    2    4    4    0    0  0.89769175773E+01 -0.48527328190E+03 -0.22445438840E+03  0.54251620975E+03  0.91505858761E+02 0.  0.
         23    2    4    4    0    0  0.80407922203E+01  0.26475714877E+03 -0.80572575893E+03  0.85302303189E+03  0.91067514348E+02 0.  0.
          1    1    3    3  502    0 -0.21527301618E+02  0.80932472626E+02 -0.74227599851E+02  0.11190722238E+03  0.00000000000E+00 0. -1.
         -1    1    3    3    0  502  0.45095918209E+01  0.13958366051E+03 -0.10056339980E+01  0.13966010883E+03  0.00000000000E+00 0.  1.
         13    1    5    5    0    0  0.20871791352E+02 -0.21809452837E+02 -0.16418832620E+02  0.34363672270E+02  0.00000000000E+00 0. -1.
        -13    1    5    5    0    0 -0.11894873775E+02 -0.46346382906E+03 -0.20803555578E+03  0.50815253747E+03  0.00000000000E+00 0.  1.
          1    1    6    6  503    0  0.41845562125E+02  0.92135284429E+02 -0.23652648361E+03  0.25726394842E+03  0.00000000000E+00 0. -1.
         -1    1    6    6    0  503 -0.33804769905E+02  0.17262186434E+03 -0.56919927532E+03  0.59575908348E+03  0.00000000000E+00 0.  1.
<mgrwt>
<rscale>  0 0.12210738E+04</rscale>
<asrwt>0</asrwt>
<pdfrwt beam="1">  1        2 0.21173230E+00 0.12210738E+04</pdfrwt>
<pdfrwt beam="2">  1       -2 0.41668707E-01 0.12210738E+04</pdfrwt>
<totfact> 0.80253403E+01</totfact>
</mgrwt>
</event>
<event>
12    3  0.4192740E-008  0.1791001E+04  0.7818608E-02  0.8711100E-01
         -1   -1    0    0    0  501 -0.00000000000E+00  0.00000000000E+00  0.91313742413E+03  0.91313742413E+03  0.00000000000E+00 0.  1.
          1   -1    0    0  501    0  0.00000000000E+00 -0.00000000000E+00 -0.87820460028E+03  0.87820460028E+03  0.00000000000E+00 0. -1.
         23    2    1    2    0    0 -0.33435962735E+03  0.13101791142E+03  0.57475486313E+03  0.68382343951E+03  0.91155308201E+02 0.  0.
        254    2    1    2    0    0  0.33435962735E+03 -0.13101791142E+03 -0.53982203928E+03  0.11075185849E+04  0.89790173643E+03 0.  0.
         23    2    4    4    0    0  0.28932490219E+03 -0.33927274202E+03 -0.69174497817E+03  0.82837710379E+03  0.94247645853E+02 0.  0.
         23    2    4    4    0    0  0.45034725154E+02  0.20825483060E+03  0.15192293889E+03  0.27914148111E+03  0.97165766476E+02 0.  0.
          2    1    3    3  502    0 -0.11620986883E+03  0.75402603293E+01  0.22714526764E+03  0.25525783386E+03  0.00000000000E+00 0. -1.
         -2    1    3    3    0  502 -0.21814975852E+03  0.12347765109E+03  0.34760959550E+03  0.42856560564E+03  0.00000000000E+00 0.  1.
         13    1    5    5    0    0  0.55908139571E+02 -0.42933196049E+02 -0.17439436989E+03  0.18810203519E+03  0.00000000000E+00 0.  1.
        -13    1    5    5    0    0  0.23341676262E+03 -0.29633954597E+03 -0.51735060828E+03  0.64027506860E+03  0.00000000000E+00 0. -1.
          3    1    6    6  503    0  0.17433675816E+02  0.18650098990E+03  0.89709081273E+02  0.20768791864E+03  0.00000000000E+00 0. -1.
         -3    1    6    6    0  503  0.27601049338E+02  0.21753840704E+02  0.62213857617E+02  0.71453562469E+02  0.00000000000E+00 0.  1.
<mgrwt>
<rscale>  0 0.17910014E+04</rscale>
<asrwt>0</asrwt>
<pdfrwt beam="1">  1        1 0.13510840E+00 0.17910014E+04</pdfrwt>
<pdfrwt beam="2">  1       -1 0.14048268E+00 0.17910014E+04</pdfrwt>
<totfact> 0.74411509E+00</totfact>
</mgrwt>
</event>
<event>
12    3  0.4192740E-008  0.1097737E+04  0.7818608E-02  0.9207400E-01
          1   -1    0    0  501    0  0.00000000000E+00  0.00000000000E+00  0.53436811653E+03  0.53436811653E+03  0.00000000000E+00 0. -1.
         -1   -1    0    0    0  501 -0.00000000000E+00 -0.00000000000E+00 -0.56376241034E+03  0.56376241034E+03  0.00000000000E+00 0.  1.
         23    2    1    2    0    0  0.70414723454E+00 -0.10835081550E+03 -0.45814626415E+02  0.14793059245E+03  0.89688823980E+02 0.  0.
        254    2    1    2    0    0 -0.70414723454E+00  0.10835081550E+03  0.16420332606E+02  0.95019993442E+03  0.94385904297E+03 0.  0.
         23    2    4    4    0    0  0.45670443387E+03  0.12391902955E+03  0.31082481358E+02  0.48336222156E+03  0.93477541580E+02 0.  0.
         23    2    4    4    0    0 -0.45740858110E+03 -0.15568214050E+02 -0.14662148753E+02  0.46683771286E+03  0.90870744378E+02 0.  0.
          1    1    3    3  502    0 -0.25498947398E+01 -0.11474541176E+03 -0.14360654240E+02  0.11566866418E+03  0.00000000000E+00 0. -1.
         -1    1    3    3    0  502  0.32540419743E+01  0.63945962554E+01 -0.31453972176E+02  0.32261928276E+02  0.00000000000E+00 0.  1.
         13    1    5    5    0    0  0.91423082520E+02 -0.22985219563E+00  0.34022361594E+02  0.97548725968E+02  0.00000000000E+00 0.  1.
        -13    1    5    5    0    0  0.36528135135E+03  0.12414888175E+03 -0.29398802360E+01  0.38581349559E+03  0.00000000000E+00 0. -1.
          1    1    6    6  503    0 -0.44332192033E+03 -0.18855900611E+02  0.33510205652E+01  0.44373539342E+03  0.00000000000E+00 0. -1.
         -1    1    6    6    0  503 -0.14086660777E+02  0.32876865607E+01 -0.18013169318E+02  0.23102319443E+02  0.00000000000E+00 0.  1.
<mgrwt>
<rscale>  0 0.10977370E+04</rscale>
<asrwt>0</asrwt>
<pdfrwt beam="1">  1        1 0.82210480E-01 0.10977370E+04</pdfrwt>
<pdfrwt beam="2">  1       -1 0.86732678E-01 0.10977370E+04</pdfrwt>
<totfact> 0.52785786E+01</totfact>
</mgrwt>
</event>
<event>
12    3  0.4192740E-008  0.1543056E+04  0.7818608E-02  0.8856316E-01
          2   -1    0    0  501    0  0.00000000000E+00  0.00000000000E+00  0.21469571787E+04  0.21469571787E+04  0.00000000000E+00 0. -1.
         -2   -1    0    0    0  501 -0.00000000000E+00 -0.00000000000E+00 -0.27725528661E+03  0.27725528661E+03  0.00000000000E+00 0.  1.
         23    2    1    2    0    0 -0.20744514361E+02 -0.28404149041E+03 -0.38832964135E+02  0.30178239073E+03  0.91949492099E+02 0.  0.
        254    2    1    2    0    0  0.20744514361E+02  0.28404149041E+03  0.19085348562E+04  0.21224300746E+04  0.88379535012E+03 0.  0.
         23    2    4    4    0    0  0.32312579055E+03  0.41354395868E+03  0.14835304380E+04  0.15763996867E+04  0.93512188901E+02 0.  0.
         23    2    4    4    0    0 -0.30238127619E+03 -0.12950246827E+03  0.42500441821E+03  0.54603038787E+03  0.96514783807E+02 0.  0.
          3    1    3    3  502    0 -0.39320142161E+02 -0.83581736854E+02  0.14546824102E+02  0.93507167675E+02  0.00000000000E+00 0. -1.
         -3    1    3    3    0  502  0.18575627800E+02 -0.20045975356E+03 -0.53379788238E+02  0.20827522305E+03  0.00000000000E+00 0.  1.
         13    1    5    5    0    0  0.89845925372E+02  0.18849586538E+03  0.56454490959E+03  0.60192519180E+03  0.00000000000E+00 0. -1.
        -13    1    5    5    0    0  0.23327986518E+03  0.22504809331E+03  0.91898552839E+03  0.97447449489E+03  0.00000000000E+00 0.  1.
          1    1    6    6  503    0 -0.29871294183E+01 -0.11531855610E+01 -0.53856496468E+01  0.62656205772E+01  0.00000000000E+00 0. -1.
         -1    1    6    6    0  503 -0.29939414678E+03 -0.12834928271E+03  0.43039006786E+03  0.53976476729E+03  0.00000000000E+00 0.  1.
<mgrwt>
<rscale>  0 0.15430557E+04</rscale>
<asrwt>0</asrwt>
<pdfrwt beam="1">  1        2 0.33030109E+00 0.15430557E+04</pdfrwt>
<pdfrwt beam="2">  1       -2 0.42654661E-01 0.15430557E+04</pdfrwt>
<totfact> 0.27773274E+01</totfact>
</mgrwt>
</event>
<event>
12    3  0.4192740E-008  0.1228774E+04  0.7818608E-02  0.9088037E-01
         -2   -1    0    0    0  501 -0.00000000000E+00  0.00000000000E+00  0.21228372800E+03  0.21228372800E+03  0.00000000000E+00 0. -1.
          2   -1    0    0  501    0  0.00000000000E+00 -0.00000000000E+00 -0.17781442857E+04  0.17781442857E+04  0.00000000000E+00 0.  1.
         23    2    1    2    0    0  0.46903516967E+02  0.26517830912E+03 -0.32744316164E+03  0.43408559279E+03  0.93229835534E+02 0.  0.
        254    2    1    2    0    0 -0.46903516967E+02 -0.26517830912E+03 -0.12384173961E+04  0.15563424209E+04  0.90332973423E+03 0.  0.
         23    2    4    4    0    0 -0.45348390976E+03 -0.23500355834E+03 -0.77402126840E+03  0.93179490823E+03  0.90876279689E+02 0.  0.
         23    2    4    4    0    0  0.40658039279E+03 -0.30174750778E+02 -0.46439612766E+03  0.62454751269E+03  0.90430640996E+02 0.  0.
          4    1    3    3  502    0  0.62208954986E+00  0.97848752773E+02 -0.58593909344E+02  0.11405267041E+03  0.00000000000E+00 0. -1.
         -4    1    3    3    0  502  0.46281427417E+02  0.16732955635E+03 -0.26884925230E+03  0.32003292239E+03  0.00000000000E+00 0.  1.
         13    1    5    5    0    0 -0.25050282176E+03 -0.17938459689E+03 -0.47280907114E+03  0.56433936161E+03  0.00000000000E+00 0. -1.
        -13    1    5    5    0    0 -0.20298108800E+03 -0.55618961458E+02 -0.30121219726E+03  0.36745554661E+03  0.00000000000E+00 0.  1.
          1    1    6    6  503    0  0.16454200508E+03  0.30537897126E+02 -0.16862613245E+03  0.23757400351E+03  0.00000000000E+00 0. -1.
         -1    1    6    6    0  503  0.24203838771E+03 -0.60712647905E+02 -0.29576999521E+03  0.38697350918E+03  0.00000000000E+00 0.  1.
<mgrwt>
<rscale>  0 0.12287735E+04</rscale>
<asrwt>0</asrwt>
<pdfrwt beam="1">  1        2 0.27356066E+00 0.12287735E+04</pdfrwt>
<pdfrwt beam="2">  1       -2 0.32659035E-01 0.12287735E+04</pdfrwt>
<totfact> 0.76393017E+01</totfact>
</mgrwt>
</event>
<event>
12    3  0.4192740E-008  0.2546313E+04  0.7818608E-02  0.8386669E-01
         -2   -1    0    0    0  501 -0.00000000000E+00  0.00000000000E+00  0.82754596680E+03  0.82754596680E+03  0.00000000000E+00 0.  1.
          2   -1    0    0  501    0  0.00000000000E+00 -0.00000000000E+00 -0.19587163503E+04  0.19587163503E+04  0.00000000000E+00 0. -1.
         23    2    1    2    0    0  0.88534185454E+03 -0.66928713094E+03 -0.52002133325E+03  0.12289790382E+04  0.90508708302E+02 0.  0.
        254    2    1    2    0    0 -0.88534185454E+03  0.66928713094E+03 -0.61114905023E+03  0.15572832789E+04  0.90545711441E+03 0.  0.
         23    2    4    4    0    0  0.35600714423E+02  0.33924077346E+03 -0.43303051013E+03  0.55871051316E+03  0.91051093208E+02 0.  0.
         23    2    4    4    0    0 -0.92094256896E+03  0.33004635749E+03 -0.17811854010E+03  0.99857276571E+03  0.91408646653E+02 0.  0.
          4    1    3    3  502    0  0.27812816320E+03 -0.25067557676E+03 -0.20636272171E+03  0.42752671596E+03  0.00000000000E+00 0. -1.
         -4    1    3    3    0  502  0.60721369134E+03 -0.41861155419E+03 -0.31365861155E+03  0.80145232225E+03  0.00000000000E+00 0.  1.
         13    1    5    5    0    0  0.42668620997E+02  0.31013108614E+03 -0.42471598724E+03  0.52762256550E+03  0.00000000000E+00 0.  1.
        -13    1    5    5    0    0 -0.70679065737E+01  0.29109687317E+02 -0.83145228882E+01  0.31087947663E+02  0.00000000000E+00 0. -1.
          4    1    6    6  503    0 -0.36969946753E+03  0.95744602960E+02 -0.40858098377E+02  0.38407565595E+03  0.00000000000E+00 0.  1.
         -4    1    6    6    0  503 -0.55124310143E+03  0.23430175453E+03 -0.13726044172E+03  0.61449710976E+03  0.00000000000E+00 0. -1.
<mgrwt>
<rscale>  0 0.25463133E+04</rscale>
<asrwt>0</asrwt>
<pdfrwt beam="1">  1        2 0.30134098E+00 0.25463133E+04</pdfrwt>
<pdfrwt beam="2">  1       -2 0.12731476E+00 0.25463133E+04</pdfrwt>
<totfact> 0.28654872E+00</totfact>
</mgrwt>
</event>
<event>
12    3  0.4192740E-008  0.1224664E+04  0.7818608E-02  0.9091538E-01
         -1   -1    0    0    0  501 -0.00000000000E+00  0.00000000000E+00  0.76073373786E+03  0.76073373786E+03  0.00000000000E+00 0.  1.
          1   -1    0    0  501    0  0.00000000000E+00 -0.00000000000E+00 -0.49288007917E+03  0.49288007917E+03  0.00000000000E+00 0. -1.
         23    2    1    2    0    0 -0.34627248173E+02  0.58944166250E+01  0.33244201988E+03  0.34863409669E+03  0.98965884673E+02 0.  0.
        254    2    1    2    0    0  0.34627248173E+02 -0.58944166250E+01 -0.64588361189E+02  0.90497972034E+03  0.90198827452E+03 0.  0.
         23    2    4    4    0    0  0.45251162376E+03  0.46904331156E+02 -0.92446226038E+02  0.47317364581E+03  0.91543478506E+02 0.  0.
         23    2    4    4    0    0 -0.41788437559E+03 -0.52798747781E+02  0.27857864849E+02  0.43180607454E+03  0.90914059672E+02 0.  0.
          1    1    3    3  502    0 -0.78736313988E+01  0.93789327807E+01 -0.25907230836E+01  0.12516800614E+02  0.00000000000E+00 0. -1.
         -1    1    3    3    0  502 -0.26753616774E+02 -0.34845161557E+01  0.33503274296E+03  0.33611729608E+03  0.00000000000E+00 0.  1.
         13    1    5    5    0    0  0.26898956465E+03 -0.47354606180E+00 -0.89907697998E+02  0.28361770801E+03  0.00000000000E+00 0. -1.
        -13    1    5    5    0    0  0.18352205911E+03  0.47377877217E+02 -0.25385280403E+01  0.18955593780E+03  0.00000000000E+00 0.  1.
          1    1    6    6  503    0 -0.39465086394E+03 -0.39333983756E+02  0.51514297802E+01  0.39663963987E+03  0.00000000000E+00 0. -1.
         -1    1    6    6    0  503 -0.23233511646E+02 -0.13464764025E+02  0.22706435069E+02  0.35166434667E+02  0.00000000000E+00 0.  1.
<mgrwt>
<rscale>  0 0.12246640E+04</rscale>
<asrwt>0</asrwt>
<pdfrwt beam="1">  1        1 0.75827705E-01 0.12246640E+04</pdfrwt>
<pdfrwt beam="2">  1       -1 0.11703596E+00 0.12246640E+04</pdfrwt>
<totfact> 0.29401506E+01</totfact>
</mgrwt>
</event>
<event>
12    3  0.4192740E-008  0.1674926E+04  0.7818608E-02  0.8775796E-01
          2   -1    0    0  501    0  0.00000000000E+00  0.00000000000E+00  0.14992136733E+04  0.14992136733E+04  0.00000000000E+00 0.  1.
         -2   -1    0    0    0  501 -0.00000000000E+00 -0.00000000000E+00 -0.46780802891E+03  0.46780802891E+03  0.00000000000E+00 0. -1.
         23    2    1    2    0    0 -0.20322882155E+03  0.13654572857E+03 -0.26248819083E+03  0.37023880255E+03  0.90719516561E+02 0.  0.
        254    2    1    2    0    0  0.20322882155E+03 -0.13654572857E+03  0.12938938352E+04  0.15967828997E+04  0.90311000544E+03 0.  0.
         23    2    4    4    0    0 -0.20042519027E+03 -0.20404342136E+03  0.10903416414E+04  0.11307153777E+04  0.88703979114E+02 0.  0.
         23    2    4    4    0    0  0.40365401182E+03  0.67497692794E+02  0.20355219385E+03  0.46606752190E+03  0.91065578348E+02 0.  0.
          4    1    3    3  502    0 -0.20747601087E+03  0.11300140362E+03 -0.22850962688E+03  0.32868261573E+03  0.00000000000E+00 0. -1.
         -4    1    3    3    0  502  0.42471893200E+01  0.23544324944E+02 -0.33978563954E+02  0.41556186814E+02  0.00000000000E+00 0.  1.
         13    1    5    5    0    0 -0.19466614626E+03 -0.15350908004E+03  0.93178526876E+03  0.96420108547E+03  0.00000000000E+00 0. -1.
        -13    1    5    5    0    0 -0.57590440070E+01 -0.50534341324E+02  0.15855637260E+03  0.16651429227E+03  0.00000000000E+00 0.  1.
          2    1    6    6  503    0  0.21003496258E+02 -0.33574862693E+01  0.37192019394E+02  0.42844671497E+02  0.00000000000E+00 0.  1.
         -2    1    6    6    0  503  0.38265051556E+03  0.70855179063E+02  0.16636017446E+03  0.42322285041E+03  0.00000000000E+00 0. -1.
<mgrwt>
<rscale>  0 0.16749259E+04</rscale>
<asrwt>0</asrwt>
<pdfrwt beam="1">  1        2 0.23064826E+00 0.16749259E+04</pdfrwt>
<pdfrwt beam="2">  1       -2 0.71970467E-01 0.16749259E+04</pdfrwt>
<totfact> 0.21189116E+01</totfact>
</mgrwt>
</event>
<event>
12    3  0.4192740E-008  0.1900026E+04  0.7818608E-02  0.8654843E-01
          1   -1    0    0  501    0  0.00000000000E+00  0.00000000000E+00  0.11408110028E+04  0.11408110028E+04  0.00000000000E+00 0. -1.
         -1   -1    0    0    0  501 -0.00000000000E+00 -0.00000000000E+00 -0.79112585645E+03  0.79112585645E+03  0.00000000000E+00 0.  1.
         23    2    1    2    0    0  0.90375785036E+02 -0.37920361351E+03  0.75539733028E+03  0.85476112444E+03  0.89600726770E+02 0.  0.
        254    2    1    2    0    0 -0.90375785036E+02  0.37920361351E+03 -0.40571218393E+03  0.10771757348E+04  0.91855431219E+03 0.  0.
         23    2    4    4    0    0 -0.13008359550E+03  0.17795827548E+03 -0.68098333512E+03  0.72212445680E+03  0.95574781073E+02 0.  0.
         23    2    4    4    0    0  0.39707810462E+02  0.20124533803E+03  0.27527115119E+03  0.35505127800E+03  0.90613503652E+02 0.  0.
          2    1    3    3  502    0 -0.74865794176E+01 -0.11826437708E+03  0.27376652295E+03  0.29831295789E+03  0.00000000000E+00 0. -1.
         -2    1    3    3    0  502  0.97862364454E+02 -0.26093923643E+03  0.48163080732E+03  0.55644816654E+03  0.00000000000E+00 0.  1.
         13    1    5    5    0    0 -0.14260370940E+03  0.16103801642E+03 -0.57158596275E+03  0.61072053631E+03  0.00000000000E+00 0.  1.
        -13    1    5    5    0    0  0.12520113903E+02  0.16920259065E+02 -0.10939737237E+03  0.11140392049E+03  0.00000000000E+00 0. -1.
          1    1    6    6  503    0 -0.74038485116E+01  0.12233229972E+03  0.10424336398E+03  0.16089340404E+03  0.00000000000E+00 0. -1.
         -1    1    6    6    0  503  0.47111658974E+02  0.78913038305E+02  0.17102778721E+03  0.19415787396E+03  0.00000000000E+00 0.  1.
<mgrwt>
<rscale>  0 0.19000264E+04</rscale>
<asrwt>0</asrwt>
<pdfrwt beam="1">  1        1 0.17550938E+00 0.19000264E+04</pdfrwt>
<pdfrwt beam="2">  1       -1 0.12171167E+00 0.19000264E+04</pdfrwt>
<totfact> 0.66108804E+00</totfact>
</mgrwt>
</event>
<event>
12    3  0.4192740E-008  0.2825544E+04  0.7818608E-02  0.8295382E-01
          2   -1    0    0  501    0  0.00000000000E+00  0.00000000000E+00  0.17014093777E+04  0.17014093777E+04  0.00000000000E+00 0. -1.
         -2   -1    0    0    0  501 -0.00000000000E+00 -0.00000000000E+00 -0.11731009547E+04  0.11731009547E+04  0.00000000000E+00 0.  1.
         23    2    1    2    0    0  0.56770736262E+03  0.60871368316E+03  0.12093576004E+04  0.14709589817E+04  0.91381193096E+02 0.  0.
        254    2    1    2    0    0 -0.56770736262E+03 -0.60871368316E+03 -0.68104917740E+03  0.14035513508E+04  0.90183391749E+03 0.  0.
         23    2    4    4    0    0  0.13697136799E+03  0.81430144151E+02  0.25203473879E+02  0.18743962896E+03  0.95427330381E+02 0.  0.
         23    2    4    4    0    0 -0.70467873060E+03 -0.69014382731E+03 -0.70625265128E+03  0.12161117219E+04  0.85230844629E+02 0.  0.
          1    1    3    3  502    0  0.54416669232E+03  0.58915227053E+03  0.11889873611E+04  0.14341927108E+04  0.00000000000E+00 0. -1.
         -1    1    3    3    0  502  0.23540670301E+02  0.19561412628E+02  0.20370239268E+02  0.36766270821E+02  0.00000000000E+00 0.  1.
         13    1    5    5    0    0  0.36488935905E+02  0.76939677916E+02  0.11247623621E+02  0.85893338033E+02  0.00000000000E+00 0. -1.
        -13    1    5    5    0    0  0.10048243208E+03  0.44904662348E+01  0.13955850258E+02  0.10154629093E+03  0.00000000000E+00 0.  1.
          3    1    6    6  503    0 -0.66823162740E+03 -0.67276170669E+03 -0.66355897187E+03  0.11573471091E+04  0.00000000000E+00 0. -1.
         -3    1    6    6    0  503 -0.36447103207E+02 -0.17382120625E+02 -0.42693679412E+02  0.58764612747E+02  0.00000000000E+00 0.  1.
<mgrwt>
<rscale>  0 0.28255442E+04</rscale>
<asrwt>0</asrwt>
<pdfrwt beam="1">  1        2 0.26175529E+00 0.28255442E+04</pdfrwt>
<pdfrwt beam="2">  1       -2 0.18047707E+00 0.28255442E+04</pdfrwt>
<totfact> 0.15299186E+00</totfact>
</mgrwt>
</event>
<event>
12    3  0.4192740E-008  0.1536190E+04  0.7818608E-02  0.8860737E-01
          2   -1    0    0  501    0  0.00000000000E+00  0.00000000000E+00  0.12099482552E+04  0.12099482552E+04  0.00000000000E+00 0. -1.
         -2   -1    0    0    0  501 -0.00000000000E+00 -0.00000000000E+00 -0.48759944494E+03  0.48759944494E+03  0.00000000000E+00 0.  1.
         23    2    1    2    0    0  0.77179833920E+00  0.46812676837E+03  0.41155916287E+03  0.63015895814E+03  0.92607240780E+02 0.  0.
        254    2    1    2    0    0 -0.77179833920E+00 -0.46812676837E+03  0.31078964737E+03  0.10673887420E+04  0.90751598039E+03 0.  0.
         23    2    4    4    0    0 -0.23108188319E+03  0.47855817494E+02  0.41391657194E+03  0.48501715060E+03  0.90695599965E+02 0.  0.
         23    2    4    4    0    0  0.23031008485E+03 -0.51598258587E+03 -0.10312692456E+03  0.58237159138E+03  0.96128787436E+02 0.  0.
          3    1    3    3  502    0  0.42470793504E+02  0.24686763183E+03  0.24201825752E+03  0.34831054092E+03  0.00000000000E+00 0. -1.
         -3    1    3    3    0  502 -0.41698995165E+02  0.22125913654E+03  0.16954090535E+03  0.28184841722E+03  0.00000000000E+00 0.  1.
         13    1    5    5    0    0 -0.53490197226E+02 -0.73833716846E+01  0.16945363132E+03  0.17784894867E+03  0.00000000000E+00 0. -1.
        -13    1    5    5    0    0 -0.17759168596E+03  0.55239189178E+02  0.24446294062E+03  0.30716820193E+03  0.00000000000E+00 0.  1.
          3    1    6    6  503    0  0.17405465392E+03 -0.41041481221E+03 -0.11975001783E+03  0.46160091789E+03  0.00000000000E+00 0. -1.
         -3    1    6    6    0  503  0.56255430932E+02 -0.10556777366E+03  0.16623093262E+02  0.12077067348E+03  0.00000000000E+00 0.  1.
<mgrwt>
<rscale>  0 0.15361902E+04</rscale>
<asrwt>0</asrwt>
<pdfrwt beam="1">  1        2 0.18614588E+00 0.15361902E+04</pdfrwt>
<pdfrwt beam="2">  1       -2 0.75015299E-01 0.15361902E+04</pdfrwt>
<totfact> 0.28736916E+01</totfact>
</mgrwt>
</event>
<event>
12    3  0.4192740E-008  0.1694785E+04  0.7818608E-02  0.8764344E-01
          2   -1    0    0  501    0  0.00000000000E+00  0.00000000000E+00  0.65165668113E+03  0.65165668113E+03  0.00000000000E+00 0. -1.
         -2   -1    0    0    0  501 -0.00000000000E+00 -0.00000000000E+00 -0.11019213613E+04  0.11019213613E+04  0.00000000000E+00 0.  1.
         23    2    1    2    0    0  0.28056447793E+03  0.51615514782E+03 -0.22734427267E+02  0.59485102383E+03  0.90544593832E+02 0.  0.
        254    2    1    2    0    0 -0.28056447793E+03 -0.51615514782E+03 -0.42753025295E+03  0.11587270186E+04  0.90262596000E+03 0.  0.
         23    2    4    4    0    0 -0.80031860651E+02 -0.58068655981E+03  0.82618634733E+02  0.59875290250E+03  0.89873355250E+02 0.  0.
         23    2    4    4    0    0 -0.20053261727E+03  0.64531411991E+02 -0.51014888768E+03  0.55997411615E+03  0.94559449221E+02 0.  0.
          1    1    3    3  502    0  0.51986516645E+02  0.11745673092E+03  0.31031831671E+02  0.13214255987E+03  0.00000000000E+00 0. -1.
         -1    1    3    3    0  502  0.22857796128E+03  0.39869841690E+03 -0.53766258939E+02  0.46270846396E+03  0.00000000000E+00 0.  1.
         13    1    5    5    0    0 -0.35068010745E+02 -0.79619263787E+02 -0.87627472929E+01  0.87440141147E+02  0.00000000000E+00 0.  1.
        -13    1    5    5    0    0 -0.44963849906E+02 -0.50106729602E+03  0.91381382026E+02  0.51131276135E+03  0.00000000000E+00 0. -1.
          4    1    6    6  503    0 -0.14759826322E+03  0.87945798056E+02 -0.35531981548E+03  0.39467946738E+03  0.00000000000E+00 0. -1.
         -4    1    6    6    0  503 -0.52934354054E+02 -0.23414386065E+02 -0.15482907220E+03  0.16529464877E+03  0.00000000000E+00 0.  1.
<mgrwt>
<rscale>  0 0.16947854E+04</rscale>
<asrwt>0</asrwt>
<pdfrwt beam="1">  1        2 0.10025488E+00 0.16947854E+04</pdfrwt>
<pdfrwt beam="2">  1       -2 0.16952636E+00 0.16947854E+04</pdfrwt>
<totfact> 0.91573792E+00</totfact>
</mgrwt>
</event>
<event>
12    3  0.4192740E-008  0.2375175E+04  0.7818608E-02  0.8448857E-01
          2   -1    0    0  501    0  0.00000000000E+00  0.00000000000E+00  0.98346449093E+03  0.98346449093E+03  0.00000000000E+00 0. -1.
         -2   -1    0    0    0  501 -0.00000000000E+00 -0.00000000000E+00 -0.14340771221E+04  0.14340771221E+04  0.00000000000E+00 0.  1.
         23    2    1    2    0    0  0.22367488005E+03 -0.31986240063E+03 -0.11423584293E+04  0.12107344920E+04  0.92481468559E+02 0.  0.
        254    2    1    2    0    0 -0.22367488005E+03  0.31986240063E+03  0.69174579808E+03  0.12068071210E+04  0.90858613837E+03 0.  0.
         23    2    4    4    0    0 -0.44189324100E+03  0.21583100065E+03  0.78651308256E+03  0.93128278040E+03  0.82656704196E+02 0.  0.
         23    2    4    4    0    0  0.21821836094E+03  0.10403139998E+03 -0.94767284485E+02  0.27552434060E+03  0.92146832927E+02 0.  0.
          2    1    3    3  502    0  0.42645866619E+02 -0.14996574221E+02 -0.10056910876E+03  0.11026201891E+03  0.00000000000E+00 0. -1.
         -2    1    3    3    0  502  0.18102901344E+03 -0.30486582641E+03 -0.10417893205E+04  0.11004724731E+04  0.00000000000E+00 0.  1.
         13    1    5    5    0    0 -0.21392079983E+02  0.34689398022E+02  0.60089660523E+02  0.72606767749E+02  0.00000000000E+00 0.  1.
        -13    1    5    5    0    0 -0.42050116102E+03  0.18114160263E+03  0.72642342204E+03  0.85867601265E+03  0.00000000000E+00 0. -1.
          1    1    6    6  503    0  0.14720929368E+03  0.78602892910E+02 -0.10823512259E+03  0.19890659286E+03  0.00000000000E+00 0. -1.
         -1    1    6    6    0  503  0.71009067265E+02  0.25428507068E+02  0.13467838107E+02  0.76617747741E+02  0.00000000000E+00 0.  1.
<mgrwt>
<rscale>  0 0.23751749E+04</rscale>
<asrwt>0</asrwt>
<pdfrwt beam="1">  1        2 0.15130223E+00 0.23751749E+04</pdfrwt>
<pdfrwt beam="2">  1       -2 0.22062725E+00 0.23751749E+04</pdfrwt>
<totfact> 0.22776277E+00</totfact>
</mgrwt>
</event>
<event>
12    3  0.4192740E-008  0.2180993E+04  0.7818608E-02  0.8526381E-01
         -2   -1    0    0    0  501 -0.00000000000E+00  0.00000000000E+00  0.85930179571E+03  0.85930179571E+03  0.00000000000E+00 0.  1.
          2   -1    0    0  501    0  0.00000000000E+00 -0.00000000000E+00 -0.13838934412E+04  0.13838934412E+04  0.00000000000E+00 0. -1.
         23    2    1    2    0    0 -0.62420699868E+03 -0.57821499665E+03 -0.51993082002E+03  0.10012899550E+04  0.91030526349E+02 0.  0.
        254    2    1    2    0    0  0.62420699868E+03  0.57821499665E+03 -0.46608255146E+01  0.12419052820E+04  0.90462149356E+03 0.  0.
         23    2    4    4    0    0  0.69445014039E+02  0.19815546380E+03  0.39333313768E+03  0.45531483803E+03  0.92262921718E+02 0.  0.
         23    2    4    4    0    0  0.55476198464E+03  0.38005953285E+03 -0.39799396319E+03  0.78659044398E+03  0.90106735072E+02 0.  0.
          4    1    3    3  502    0 -0.17538230184E+03 -0.11126997410E+03 -0.11420336482E+03  0.23702819974E+03  0.00000000000E+00 0.  1.
         -4    1    3    3    0  502 -0.44882469684E+03 -0.46694502255E+03 -0.40572745520E+03  0.76426175521E+03  0.00000000000E+00 0. -1.
         13    1    5    5    0    0  0.56835019608E+02  0.10867096918E+03  0.13880314750E+03  0.18521855401E+03  0.00000000000E+00 0.  1.
        -13    1    5    5    0    0  0.12609994431E+02  0.89484494627E+02  0.25452999018E+03  0.27009628401E+03  0.00000000000E+00 0. -1.
          4    1    6    6  503    0  0.50456750348E+03  0.31569235096E+03 -0.36721914716E+03  0.69935679596E+03  0.00000000000E+00 0.  1.
         -4    1    6    6    0  503  0.50194481164E+02  0.64367181893E+02 -0.30774816034E+02  0.87233648016E+02  0.00000000000E+00 0. -1.
<mgrwt>
<rscale>  0 0.21809925E+04</rscale>
<asrwt>0</asrwt>
<pdfrwt beam="1">  1        2 0.21290668E+00 0.21809925E+04</pdfrwt>
<pdfrwt beam="2">  1       -2 0.13220028E+00 0.21809925E+04</pdfrwt>
<totfact> 0.56328954E+00</totfact>
</mgrwt>
</event>
<event>
12    3  0.4192740E-008  0.1493408E+04  0.7818608E-02  0.8888848E-01
          2   -1    0    0  501    0  0.00000000000E+00  0.00000000000E+00  0.18674886907E+04  0.18674886907E+04  0.00000000000E+00 0. -1.
         -2   -1    0    0    0  501 -0.00000000000E+00 -0.00000000000E+00 -0.29856505262E+03  0.29856505262E+03  0.00000000000E+00 0.  1.
         23    2    1    2    0    0 -0.33984359274E+03  0.25244799135E+03  0.22280736785E+03  0.48694257416E+03  0.90809093703E+02 0.  0.
        254    2    1    2    0    0  0.33984359274E+03 -0.25244799135E+03  0.13461162703E+04  0.16791111692E+04  0.91003387275E+03 0.  0.
         23    2    4    4    0    0  0.52622345896E+03  0.11305056865E+03  0.97955507983E+03  0.11212349423E+04  0.89152013253E+02 0.  0.
         23    2    4    4    0    0 -0.18637986622E+03 -0.36549856000E+03  0.36656119045E+03  0.55787622695E+03  0.92369509917E+02 0.  0.
          2    1    3    3  502    0 -0.65746000214E+02  0.88675547813E+02  0.31818388967E+02  0.11488385091E+03  0.00000000000E+00 0.  1.
         -2    1    3    3    0  502 -0.27409759253E+03  0.16377244354E+03  0.19098897888E+03  0.37205872325E+03  0.00000000000E+00 0. -1.
         13    1    5    5    0    0  0.19182128449E+03  0.59445173200E+02  0.28670423185E+03  0.35004064101E+03  0.00000000000E+00 0. -1.
        -13    1    5    5    0    0  0.33440217447E+03  0.53605395447E+02  0.69285084799E+03  0.77119430124E+03  0.00000000000E+00 0.  1.
          1    1    6    6  503    0 -0.18616622286E+03 -0.36944859800E+03  0.36797560628E+03  0.55367515378E+03  0.00000000000E+00 0. -1.
         -1    1    6    6    0  503 -0.21364335548E+00  0.39500379946E+01 -0.14144158342E+01  0.42010731717E+01  0.00000000000E+00 0.  1.
<mgrwt>
<rscale>  0 0.14934080E+04</rscale>
<asrwt>0</asrwt>
<pdfrwt beam="1">  1        2 0.28730595E+00 0.14934080E+04</pdfrwt>
<pdfrwt beam="2">  1       -2 0.45933086E-01 0.14934080E+04</pdfrwt>
<totfact> 0.34391971E+01</totfact>
</mgrwt>
</event>
<event>
12    3  0.4192740E-008  0.1407748E+04  0.7818608E-02  0.8948229E-01
          2   -1    0    0  501    0  0.00000000000E+00  0.00000000000E+00  0.12694149111E+04  0.12694149111E+04  0.00000000000E+00 0. -1.
         -2   -1    0    0    0  501 -0.00000000000E+00 -0.00000000000E+00 -0.39028901519E+03  0.39028901519E+03  0.00000000000E+00 0.  1.
         23    2    1    2    0    0 -0.18759336071E+03 -0.11566342607E+03  0.67876828986E+03  0.71946691070E+03  0.91306884475E+02 0.  0.
        254    2    1    2    0    0  0.18759336071E+03  0.11566342607E+03  0.20035760604E+03  0.94023701558E+03  0.89181454241E+03 0.  0.
         23    2    4    4    0    0 -0.13850661623E+03 -0.19287973411E+03  0.37118847360E+03  0.45038432290E+03  0.93158364126E+02 0.  0.
         23    2    4    4    0    0  0.32609997694E+03  0.30854316019E+03 -0.17083086757E+03  0.48985269268E+03  0.96085371170E+02 0.  0.
          2    1    3    3  502    0 -0.15337943653E+02 -0.34937483984E+01  0.74937534905E+01  0.17424555511E+02  0.00000000000E+00 0. -1.
         -2    1    3    3    0  502 -0.17225541706E+03 -0.11216967768E+03  0.67127453637E+03  0.70204235518E+03  0.00000000000E+00 0.  1.
         13    1    5    5    0    0 -0.10864757338E+03 -0.19652862319E+03  0.31833707099E+03  0.38957192622E+03  0.00000000000E+00 0. -1.
        -13    1    5    5    0    0 -0.29859042850E+02  0.36488890770E+01  0.52851402611E+02  0.60812396675E+02  0.00000000000E+00 0.  1.
          1    1    6    6  503    0  0.21603013071E+03  0.13910704750E+03 -0.90374920179E+02  0.27237366656E+03  0.00000000000E+00 0. -1.
         -1    1    6    6    0  503  0.11006984624E+03  0.16943611269E+03 -0.80455947386E+02  0.21747902612E+03  0.00000000000E+00 0.  1.
<mgrwt>
<rscale>  0 0.14077481E+04</rscale>
<asrwt>0</asrwt>
<pdfrwt beam="1">  1        2 0.19529460E+00 0.14077481E+04</pdfrwt>
<pdfrwt beam="2">  1       -2 0.60044464E-01 0.14077481E+04</pdfrwt>
<totfact> 0.43333611E+01</totfact>
</mgrwt>
</event>
<event>
12    3  0.4192740E-008  0.2913101E+04  0.7818608E-02  0.8268990E-01
          1   -1    0    0  501    0  0.00000000000E+00  0.00000000000E+00  0.11860288455E+04  0.11860288455E+04  0.00000000000E+00 0. -1.
         -1   -1    0    0    0  501 -0.00000000000E+00 -0.00000000000E+00 -0.17887750640E+04  0.17887750640E+04  0.00000000000E+00 0.  1.
         23    2    1    2    0    0 -0.60021984556E+03  0.10389440354E+04  0.27646914111E+03  0.12350304955E+04  0.95898734336E+02 0.  0.
        254    2    1    2    0    0  0.60021984556E+03 -0.10389440354E+04 -0.87921535965E+03  0.17397734140E+04  0.90228782085E+03 0.  0.
         23    2    4    4    0    0  0.73831942278E+03 -0.68023723304E+03 -0.89009191536E+03  0.13442508991E+04  0.83117980859E+02 0.  0.
         23    2    4    4    0    0 -0.13809957722E+03 -0.35870680235E+03  0.10876555708E+02  0.39552251485E+03  0.92615857226E+02 0.  0.
          2    1    3    3  502    0 -0.53502411998E+03  0.85657696122E+03  0.23719146014E+03  0.10374173163E+04  0.00000000000E+00 0. -1.
         -2    1    3    3    0  502 -0.65195725580E+02  0.18236707417E+03  0.39277680973E+02  0.19761317921E+03  0.00000000000E+00 0.  1.
         13    1    5    5    0    0  0.36244422961E+03 -0.38904853430E+03 -0.45806097768E+03  0.70181510449E+03  0.00000000000E+00 0. -1.
        -13    1    5    5    0    0  0.37587519317E+03 -0.29118869874E+03 -0.43203093768E+03  0.64243579463E+03  0.00000000000E+00 0.  1.
          2    1    6    6  503    0 -0.90537502344E+01 -0.17714729137E+02  0.23400152748E+02  0.30713989815E+02  0.00000000000E+00 0. -1.
         -2    1    6    6    0  503 -0.12904582698E+03 -0.34099207322E+03 -0.12523597040E+02  0.36480852504E+03  0.00000000000E+00 0.  1.
<mgrwt>
<rscale>  0 0.29131006E+04</rscale>
<asrwt>0</asrwt>
<pdfrwt beam="1">  1        1 0.18246598E+00 0.29131006E+04</pdfrwt>
<pdfrwt beam="2">  1       -1 0.27519616E+00 0.29131006E+04</pdfrwt>
<totfact> 0.44848204E-01</totfact>
</mgrwt>
</event>
<event>
12    3  0.4192740E-008  0.1356082E+04  0.7818608E-02  0.8986237E-01
         -1   -1    0    0    0  501 -0.00000000000E+00  0.00000000000E+00  0.12276655238E+04  0.12276655238E+04  0.00000000000E+00 0.  1.
          1   -1    0    0  501    0  0.00000000000E+00 -0.00000000000E+00 -0.37448279723E+03  0.37448279723E+03  0.00000000000E+00 0. -1.
         23    2    1    2    0    0  0.27723595292E+03 -0.20778860403E+03  0.41861327806E+03  0.55158539870E+03  0.94728548711E+02 0.  0.
        254    2    1    2    0    0 -0.27723595292E+03  0.20778860403E+03  0.43456944853E+03  0.10505629223E+04  0.89151330369E+03 0.  0.
         23    2    4    4    0    0  0.14262617989E+03  0.14578165289E+02 -0.19849111696E+03  0.26120869540E+03  0.90975320541E+02 0.  0.
         23    2    4    4    0    0 -0.41986213281E+03  0.19321043874E+03  0.63306056549E+03  0.78935422694E+03  0.93273424972E+02 0.  0.
          1    1    3    3  502    0  0.25832757222E+02 -0.15609127550E+01  0.65863546961E+01  0.26704828449E+02  0.00000000000E+00 0. -1.
         -1    1    3    3    0  502  0.25140319570E+03 -0.20622769128E+03  0.41202692336E+03  0.52488057025E+03  0.00000000000E+00 0.  1.
         13    1    5    5    0    0  0.62918886313E+02 -0.28755258018E+02 -0.43809072916E+02  0.81883368203E+02  0.00000000000E+00 0. -1.
        -13    1    5    5    0    0  0.79707293578E+02  0.43333423306E+02 -0.15468204405E+03  0.17932532720E+03  0.00000000000E+00 0.  1.
          3    1    6    6  503    0 -0.84785210866E+02  0.41651383479E+02  0.73178209672E+02  0.11949234326E+03  0.00000000000E+00 0. -1.
         -3    1    6    6    0  503 -0.33507692194E+03  0.15155905526E+03  0.55988235582E+03  0.66986188368E+03  0.00000000000E+00 0.  1.
<mgrwt>
<rscale>  0 0.13560820E+04</rscale>
<asrwt>0</asrwt>
<pdfrwt beam="1">  1        1 0.57612738E-01 0.13560820E+04</pdfrwt>
<pdfrwt beam="2">  1       -1 0.18887162E+00 0.13560820E+04</pdfrwt>
<totfact> 0.11530297E+01</totfact>
</mgrwt>
</event>
<event>
12    3  0.4192740E-008  0.3373739E+04  0.7818608E-02  0.8144382E-01
         -2   -1    0    0    0  501 -0.00000000000E+00  0.00000000000E+00  0.18443709490E+04  0.18443709490E+04  0.00000000000E+00 0.  1.
          2   -1    0    0  501    0  0.00000000000E+00 -0.00000000000E+00 -0.15428181825E+04  0.15428181825E+04  0.00000000000E+00 0. -1.
         23    2    1    2    0    0 -0.54946960952E+03 -0.13411484009E+04 -0.46486777011E+03  0.15232419757E+04  0.59734310168E+02 0.  0.
        254    2    1    2    0    0  0.54946960952E+03  0.13411484009E+04  0.76642053654E+03  0.18639471558E+04  0.88673709496E+03 0.  0.
         23    2    4    4    0    0  0.21737044924E+03  0.68758739058E+02  0.44324952106E+03  0.50654338011E+03  0.90212979202E+02 0.  0.
         23    2    4    4    0    0  0.33209916028E+03  0.12723896619E+04  0.32317101548E+03  0.13574037757E+04  0.94022343339E+02 0.  0.
          4    1    3    3  502    0 -0.40316547746E+03 -0.10332588152E+04 -0.33749533706E+03  0.11593400209E+04  0.00000000000E+00 0. -1.
         -4    1    3    3    0  502 -0.14630413206E+03 -0.30788958571E+03 -0.12737243306E+03  0.36390195486E+03  0.00000000000E+00 0.  1.
         13    1    5    5    0    0  0.68875332046E+01  0.30072680367E+02  0.64966058421E+02  0.71919350420E+02  0.00000000000E+00 0. -1.
        -13    1    5    5    0    0  0.21048291604E+03  0.38686058691E+02  0.37828346264E+03  0.43462402969E+03  0.00000000000E+00 0.  1.
          4    1    6    6  503    0  0.50849162613E+02  0.20774236335E+03  0.88750391051E+02  0.23155811103E+03  0.00000000000E+00 0. -1.
         -4    1    6    6    0  503  0.28124999767E+03  0.10646472985E+04  0.23442062443E+03  0.11258456646E+04  0.00000000000E+00 0.  1.
<mgrwt>
<rscale>  0 0.33737392E+04</rscale>
<asrwt>0</asrwt>
<pdfrwt beam="1">  1        2 0.23735664E+00 0.33737392E+04</pdfrwt>
<pdfrwt beam="2">  1       -2 0.28374938E+00 0.33737392E+04</pdfrwt>
<totfact> 0.39824708E-01</totfact>
</mgrwt>
</event>
<event>
12    3  0.4192740E-008  0.1395139E+04  0.7818608E-02  0.8957345E-01
          2   -1    0    0  501    0  0.00000000000E+00  0.00000000000E+00  0.27381548340E+03  0.27381548340E+03  0.00000000000E+00 0. -1.
         -2   -1    0    0    0  501 -0.00000000000E+00 -0.00000000000E+00 -0.17771207475E+04  0.17771207475E+04  0.00000000000E+00 0.  1.
         23    2    1    2    0    0 -0.22388481329E+03 -0.10675039328E+03  0.15260199488E+02  0.26462288174E+03  0.90952403833E+02 0.  0.
        254    2    1    2    0    0  0.22388481329E+03  0.10675039328E+03 -0.15185654636E+04  0.17863133491E+04  0.90738870285E+03 0.  0.
         23    2    4    4    0    0  0.42715320337E+03 -0.94257161209E+02 -0.13891683422E+04  0.14592469360E+04  0.90932203082E+02 0.  0.
         23    2    4    4    0    0 -0.20326839007E+03  0.20100755449E+03 -0.12939712136E+03  0.32706641317E+03  0.92232034799E+02 0.  0.
          3    1    3    3  502    0 -0.14369370440E+03 -0.11254603556E+03  0.22467634588E+02  0.18390020503E+03  0.00000000000E+00 0. -1.
         -3    1    3    3    0  502 -0.80191108890E+02  0.57956422838E+01 -0.72074351007E+01  0.80722676710E+02  0.00000000000E+00 0.  1.
         13    1    5    5    0    0  0.30714525000E+03 -0.41050943961E+02 -0.10745895427E+04  0.11183765331E+04  0.00000000000E+00 0. -1.
        -13    1    5    5    0    0  0.12000795337E+03 -0.53206217248E+02 -0.31457879951E+03  0.34087040283E+03  0.00000000000E+00 0.  1.
          3    1    6    6  503    0 -0.15423986626E+02  0.60576166185E+02 -0.81292022331E+01  0.63035348829E+02  0.00000000000E+00 0. -1.
         -3    1    6    6    0  503 -0.18784440345E+03  0.14043138830E+03 -0.12126791913E+03  0.26403106434E+03  0.00000000000E+00 0.  1.
<mgrwt>
<rscale>  0 0.13951390E+04</rscale>
<asrwt>0</asrwt>
<pdfrwt beam="1">  1        2 0.42125460E-01 0.13951390E+04</pdfrwt>
<pdfrwt beam="2">  1       -2 0.27340319E+00 0.13951390E+04</pdfrwt>
<totfact> 0.54841177E+00</totfact>
</mgrwt>
</event>
<event>
12    3  0.4192740E-008  0.4321409E+04  0.7818608E-02  0.7942671E-01
         -2   -1    0    0    0  501 -0.00000000000E+00  0.00000000000E+00  0.20944951124E+04  0.20944951124E+04  0.00000000000E+00 0.  1.
          2   -1    0    0  501    0  0.00000000000E+00 -0.00000000000E+00 -0.22290072535E+04  0.22290072535E+04  0.00000000000E+00 0. -1.
         23    2    1    2    0    0  0.72502226692E+03 -0.14866145957E+04  0.11659152778E+04  0.20262093626E+04  0.10239971952E+03 0.  0.
        254    2    1    2    0    0 -0.72502226692E+03  0.14866145957E+04 -0.13004274189E+04  0.22972930033E+04  0.92236837961E+03 0.  0.
         23    2    4    4    0    0  0.15716018898E+03  0.56954682631E+03 -0.25970478069E+03  0.65094569776E+03  0.84857621678E+02 0.  0.
         23    2    4    4    0    0 -0.88218245590E+03  0.91706776935E+03 -0.10407226382E+04  0.16463473056E+04  0.89981452198E+02 0.  0.
          1    1    3    3  502    0  0.24974599436E+03 -0.40647919643E+03  0.33299457100E+03  0.58179359153E+03  0.00000000000E+00 0. -1.
         -1    1    3    3    0  502  0.47527627256E+03 -0.10801353992E+04  0.83292070680E+03  0.14444157711E+04  0.00000000000E+00 0.  1.
         13    1    5    5    0    0  0.11948169806E+03  0.51713245682E+03 -0.21619084351E+03  0.57309714262E+03  0.00000000000E+00 0. -1.
        -13    1    5    5    0    0  0.37678490928E+02  0.52414369496E+02 -0.43513937187E+02  0.77848555142E+02  0.00000000000E+00 0.  1.
          3    1    6    6  503    0 -0.65327671680E+03  0.62707770675E+03 -0.76354342491E+03  0.11844811019E+04  0.00000000000E+00 0. -1.
         -3    1    6    6    0  503 -0.22890573910E+03  0.28999006259E+03 -0.27717921333E+03  0.46186620367E+03  0.00000000000E+00 0.  1.
<mgrwt>
<rscale>  0 0.43214094E+04</rscale>
<asrwt>0</asrwt>
<pdfrwt beam="1">  1        2 0.34292419E+00 0.43214094E+04</pdfrwt>
<pdfrwt beam="2">  1       -2 0.32223002E+00 0.43214094E+04</pdfrwt>
<totfact> 0.88671759E-02</totfact>
</mgrwt>
</event>
<event>
12    3  0.4192740E-008  0.2237547E+04  0.7818608E-02  0.8502961E-01
         -2   -1    0    0    0  501 -0.00000000000E+00  0.00000000000E+00  0.10166753389E+04  0.10166753389E+04  0.00000000000E+00 0.  1.
          2   -1    0    0  501    0  0.00000000000E+00 -0.00000000000E+00 -0.12311249264E+04  0.12311249264E+04  0.00000000000E+00 0. -1.
         23    2    1    2    0    0 -0.81093150853E+02  0.89355696197E+03  0.17511890907E+03  0.91889745683E+03  0.93197427233E+02 0.  0.
        254    2    1    2    0    0  0.81093150853E+02 -0.89355696197E+03 -0.38956849659E+03  0.13289028086E+04  0.89955484415E+03 0.  0.
         23    2    4    4    0    0 -0.57442791724E+01 -0.64774837032E+03 -0.66898909461E+03  0.93576787876E+03  0.92218036279E+02 0.  0.
         23    2    4    4    0    0  0.86837430025E+02 -0.24580859165E+03  0.27942059802E+03  0.39313492979E+03  0.92285423794E+02 0.  0.
          3    1    3    3  502    0 -0.21361888121E+02  0.60852482658E+03  0.90190731435E+02  0.61554298214E+03  0.00000000000E+00 0. -1.
         -3    1    3    3    0  502 -0.59731262732E+02  0.28503213540E+03  0.84928177639E+02  0.30335447469E+03  0.00000000000E+00 0.  1.
         13    1    5    5    0    0 -0.44464731714E+02 -0.43103544173E+03 -0.46570861243E+03  0.63612355410E+03  0.00000000000E+00 0. -1.
        -13    1    5    5    0    0  0.38720452542E+02 -0.21671292859E+03 -0.20328048218E+03  0.29964432466E+03  0.00000000000E+00 0.  1.
          2    1    6    6  503    0  0.42546323877E+02 -0.10429535528E+03  0.58124517718E+02  0.12675239788E+03  0.00000000000E+00 0. -1.
         -2    1    6    6    0  503  0.44291106148E+02 -0.14151323636E+03  0.22129608030E+03  0.26638253191E+03  0.00000000000E+00 0.  1.
<mgrwt>
<rscale>  0 0.22375472E+04</rscale>
<asrwt>0</asrwt>
<pdfrwt beam="1">  1        2 0.18940384E+00 0.22375472E+04</pdfrwt>
<pdfrwt beam="2">  1       -2 0.15641159E+00 0.22375472E+04</pdfrwt>
<totfact> 0.44307100E+00</totfact>
</mgrwt>
</event>
<event>
12    3  0.4192740E-008  0.2373741E+04  0.7818608E-02  0.8449400E-01
          2   -1    0    0  501    0  0.00000000000E+00  0.00000000000E+00  0.22484588206E+04  0.22484588206E+04  0.00000000000E+00 0. -1.
         -2   -1    0    0    0  501 -0.00000000000E+00 -0.00000000000E+00 -0.62650107981E+03  0.62650107981E+03  0.00000000000E+00 0.  1.
         23    2    1    2    0    0  0.10011282047E+03  0.10087218588E+04  0.68016076872E+03  0.12241228664E+04  0.91190764986E+02 0.  0.
        254    2    1    2    0    0 -0.10011282047E+03 -0.10087218588E+04  0.94179697203E+03  0.16508370339E+04  0.90041046797E+03 0.  0.
         23    2    4    4    0    0 -0.42349010298E+03 -0.89058842663E+03  0.60420640717E+03  0.11600917487E+04  0.90861817946E+02 0.  0.
         23    2    4    4    0    0  0.32337728252E+03 -0.11813343216E+03  0.33759056486E+03  0.49074528522E+03  0.91297156830E+02 0.  0.
          4    1    3    3  502    0  0.77053052999E+02  0.88183119522E+03  0.62634561720E+03  0.10843764393E+04  0.00000000000E+00 0. -1.
         -4    1    3    3    0  502  0.23059767467E+02  0.12689066357E+03  0.53815151522E+02  0.13974642718E+03  0.00000000000E+00 0.  1.
         13    1    5    5    0    0 -0.34607245913E+03 -0.66206633086E+03  0.42450248780E+03  0.85924404890E+03  0.00000000000E+00 0. -1.
        -13    1    5    5    0    0 -0.77417643851E+02 -0.22852209578E+03  0.17970391937E+03  0.30084769980E+03  0.00000000000E+00 0.  1.
          1    1    6    6  503    0  0.83594678957E+02 -0.75430451430E+02  0.10959025676E+03  0.15712367018E+03  0.00000000000E+00 0. -1.
         -1    1    6    6    0  503  0.23978260356E+03 -0.42702980728E+02  0.22800030810E+03  0.33362161505E+03  0.00000000000E+00 0.  1.
<mgrwt>
<rscale>  0 0.23737412E+04</rscale>
<asrwt>0</asrwt>
<pdfrwt beam="1">  1        2 0.34591674E+00 0.23737412E+04</pdfrwt>
<pdfrwt beam="2">  1       -2 0.96384782E-01 0.23737412E+04</pdfrwt>
<totfact> 0.39361948E+00</totfact>
</mgrwt>
</event>
<event>
12    3  0.4192740E-008  0.3140872E+04  0.7818608E-02  0.8204610E-01
          1   -1    0    0  501    0  0.00000000000E+00  0.00000000000E+00  0.90394682413E+03  0.90394682413E+03  0.00000000000E+00 0. -1.
         -1   -1    0    0    0  501 -0.00000000000E+00 -0.00000000000E+00 -0.27283348394E+04  0.27283348394E+04  0.00000000000E+00 0.  1.
         23    2    1    2    0    0 -0.34334094677E+03  0.86296408906E+03  0.44070265896E+03  0.10315771104E+04  0.85688251269E+02 0.  0.
        254    2    1    2    0    0  0.34334094677E+03 -0.86296408906E+03 -0.22650906742E+04  0.26007045531E+04  0.87774619636E+03 0.  0.
         23    2    4    4    0    0  0.44263576862E+02 -0.34208149292E+03 -0.12811253414E+03  0.37910614132E+03  0.91266822813E+02 0.  0.
         23    2    4    4    0    0  0.29907736991E+03 -0.52088259614E+03 -0.21369781401E+04  0.22215984117E+04  0.89766250839E+02 0.  0.
          3    1    3    3  502    0 -0.23517108190E+03  0.49892490908E+03  0.28824652689E+03  0.62234842567E+03  0.00000000000E+00 0. -1.
         -3    1    3    3    0  502 -0.10816986487E+03  0.36403917998E+03  0.15245613207E+03  0.40922868476E+03  0.00000000000E+00 0.  1.
         13    1    5    5    0    0  0.61543273729E+02 -0.14476275893E+03 -0.73595183724E+02  0.17366658280E+03  0.00000000000E+00 0. -1.
        -13    1    5    5    0    0 -0.17279696868E+02 -0.19731873399E+03 -0.54517350412E+02  0.20543955852E+03  0.00000000000E+00 0.  1.
          2    1    6    6  503    0  0.10515246882E+02 -0.77546359327E+02 -0.26373243323E+03  0.27509780915E+03  0.00000000000E+00 0. -1.
         -2    1    6    6    0  503  0.28856212303E+03 -0.44333623681E+03 -0.18732457068E+04  0.19465006026E+04  0.00000000000E+00 0.  1.
<mgrwt>
<rscale>  0 0.31408722E+04</rscale>
<asrwt>0</asrwt>
<pdfrwt beam="1">  1        1 0.13906874E+00 0.31408722E+04</pdfrwt>
<pdfrwt beam="2">  1       -1 0.41974383E+00 0.31408722E+04</pdfrwt>
<totfact> 0.79432747E-02</totfact>
</mgrwt>
</event>
<event>
12    3  0.4192740E-008  0.1743551E+04  0.7818608E-02  0.8736908E-01
          2   -1    0    0  501    0  0.00000000000E+00  0.00000000000E+00  0.11522306107E+04  0.11522306107E+04  0.00000000000E+00 0. -1.
         -2   -1    0    0    0  501 -0.00000000000E+00 -0.00000000000E+00 -0.65958384571E+03  0.65958384571E+03  0.00000000000E+00 0.  1.
         23    2    1    2    0    0 -0.14273229919E+03 -0.32536895528E+02 -0.46621581268E+03  0.49688810133E+03  0.90052442730E+02 0.  0.
        254    2    1    2    0    0  0.14273229919E+03  0.32536895528E+02  0.95886257770E+03  0.13149263551E+04  0.88779655194E+03 0.  0.
         23    2    4    4    0    0  0.35729529896E+03  0.79364627839E+02  0.10050976056E+04  0.10736550407E+04  0.92494728650E+02 0.  0.
         23    2    4    4    0    0 -0.21456299977E+03 -0.46827732311E+02 -0.46235027882E+02  0.24127131442E+03  0.88566652744E+02 0.  0.
          4    1    3    3  502    0 -0.70860058385E+02  0.22445691382E+02 -0.14196285209E+03  0.16024483864E+03  0.00000000000E+00 0. -1.
         -4    1    3    3    0  502 -0.71872240803E+02 -0.54982586910E+02 -0.32425296059E+03  0.33664326269E+03  0.00000000000E+00 0.  1.
         13    1    5    5    0    0  0.20862952690E+02  0.43695504150E+01  0.17323714993E+02  0.27467560266E+02  0.00000000000E+00 0.  1.
        -13    1    5    5    0    0  0.33643234627E+03  0.74995077424E+02  0.98777389059E+03  0.10461874804E+04  0.00000000000E+00 0. -1.
          2    1    6    6  503    0 -0.21525507723E+03 -0.57053165952E+02 -0.53105961593E+02  0.22893242491E+03  0.00000000000E+00 0. -1.
         -2    1    6    6    0  503  0.69207746370E+00  0.10225433641E+02  0.68709337110E+01  0.12338889513E+02  0.00000000000E+00 0.  1.
<mgrwt>
<rscale>  0 0.17435512E+04</rscale>
<asrwt>0</asrwt>
<pdfrwt beam="1">  1        2 0.17726625E+00 0.17435512E+04</pdfrwt>
<pdfrwt beam="2">  1       -2 0.10147444E+00 0.17435512E+04</pdfrwt>
<totfact> 0.15313233E+01</totfact>
</mgrwt>
</event>
<event>
12    3  0.4192740E-008  0.1439438E+04  0.7818608E-02  0.8925756E-01
          2   -1    0    0  501    0  0.00000000000E+00  0.00000000000E+00  0.42939670179E+03  0.42939670179E+03  0.00000000000E+00 0. -1.
         -2   -1    0    0    0  501 -0.00000000000E+00 -0.00000000000E+00 -0.12063337052E+04  0.12063337052E+04  0.00000000000E+00 0.  1.
         23    2    1    2    0    0 -0.18790074026E+03  0.58557912640E+02 -0.68133601832E+03  0.71500946838E+03  0.91016771473E+02 0.  0.
        254    2    1    2    0    0  0.18790074026E+03 -0.58557912640E+02 -0.95600985073E+02  0.92072093859E+03  0.89434433027E+03 0.  0.
         23    2    4    4    0    0 -0.28551540480E+03 -0.13474645556E+03  0.16461594272E+03  0.36769206788E+03  0.91779052755E+02 0.  0.
         23    2    4    4    0    0  0.47341614506E+03  0.76188542921E+02 -0.26021692779E+03  0.55302887070E+03  0.90556843167E+02 0.  0.
          1    1    3    3  502    0 -0.96106438901E+01  0.20355489211E+02 -0.24221568575E+02  0.33066520852E+02  0.00000000000E+00 0. -1.
         -1    1    3    3    0  502 -0.17829009637E+03  0.38202423429E+02 -0.65711444974E+03  0.68194294753E+03  0.00000000000E+00 0.  1.
         13    1    5    5    0    0 -0.13529015913E+03 -0.14968452497E+02  0.78660653717E+02  0.15720998751E+03  0.00000000000E+00 0. -1.
        -13    1    5    5    0    0 -0.15022524567E+03 -0.11977800306E+03  0.85955289000E+02  0.21048208038E+03  0.00000000000E+00 0.  1.
          1    1    6    6  503    0  0.27992106304E+03  0.21155001372E+02 -0.19403836083E+03  0.34125389534E+03  0.00000000000E+00 0. -1.
         -1    1    6    6    0  503  0.19349508202E+03  0.55033541550E+02 -0.66178566965E+02  0.21177497536E+03  0.00000000000E+00 0.  1.
<mgrwt>
<rscale>  0 0.14394384E+04</rscale>
<asrwt>0</asrwt>
<pdfrwt beam="1">  1        2 0.66061032E-01 0.14394384E+04</pdfrwt>
<pdfrwt beam="2">  1       -2 0.18558980E+00 0.14394384E+04</pdfrwt>
<totfact> 0.11808152E+01</totfact>
</mgrwt>
</event>
<event>
12    3  0.4192740E-008  0.1783310E+04  0.7818608E-02  0.8715226E-01
          1   -1    0    0  501    0  0.00000000000E+00  0.00000000000E+00  0.53084441714E+03  0.53084441714E+03  0.00000000000E+00 0. -1.
         -1   -1    0    0    0  501 -0.00000000000E+00 -0.00000000000E+00 -0.14977053425E+04  0.14977053425E+04  0.00000000000E+00 0.  1.
         23    2    1    2    0    0 -0.59645326075E+03  0.33892869384E+02 -0.66865744544E+03  0.90187812124E+03  0.96830508478E+02 0.  0.
        254    2    1    2    0    0  0.59645326075E+03 -0.33892869384E+02 -0.29820347993E+03  0.11266716384E+04  0.90750121018E+03 0.  0.
         23    2    4    4    0    0  0.10156283425E+03 -0.22999677383E+03  0.24375309057E+03  0.36153453009E+03  0.89878373428E+02 0.  0.
         23    2    4    4    0    0  0.49489042650E+03  0.19610390445E+03 -0.54195657049E+03  0.76513710831E+03  0.91348752780E+02 0.  0.
          3    1    3    3  502    0 -0.15692099580E+03 -0.31521208941E+02 -0.15722754350E+03  0.22436195304E+03  0.00000000000E+00 0. -1.
         -3    1    3    3    0  502 -0.43953226495E+03  0.65414078325E+02 -0.51142990194E+03  0.67751616820E+03  0.00000000000E+00 0.  1.
         13    1    5    5    0    0  0.26378124356E+01  0.82573554837E+01  0.48667197924E+01  0.99411737520E+01  0.00000000000E+00 0. -1.
        -13    1    5    5    0    0  0.98925021817E+02 -0.23825412932E+03  0.23888637077E+03  0.35159335633E+03  0.00000000000E+00 0.  1.
          4    1    6    6  503    0 -0.42852682877E+00  0.10957558836E+02 -0.74231676604E+01  0.13242173122E+02  0.00000000000E+00 0. -1.
         -4    1    6    6    0  503  0.49531895333E+03  0.18514634561E+03 -0.53453340283E+03  0.75189493519E+03  0.00000000000E+00 0.  1.
<mgrwt>
<rscale>  0 0.17833099E+04</rscale>
<asrwt>0</asrwt>
<pdfrwt beam="1">  1        1 0.81668371E-01 0.17833099E+04</pdfrwt>
<pdfrwt beam="2">  1       -1 0.23041621E+00 0.17833099E+04</pdfrwt>
<totfact> 0.36137906E+00</totfact>
</mgrwt>
</event>
<event>
12    3  0.4192740E-008  0.1758870E+04  0.7818608E-02  0.8728483E-01
          1   -1    0    0  501    0  0.00000000000E+00  0.00000000000E+00  0.28901956752E+04  0.28901956752E+04  0.00000000000E+00 0. -1.
         -1   -1    0    0    0  501 -0.00000000000E+00 -0.00000000000E+00 -0.26759632415E+03  0.26759632415E+03  0.00000000000E+00 0.  1.
         23    2    1    2    0    0 -0.59436155202E+03  0.13305506949E+03  0.60127614962E+03  0.86048913218E+03  0.89102370608E+02 0.  0.
        254    2    1    2    0    0  0.59436155202E+03 -0.13305506949E+03  0.20213232014E+04  0.22973028672E+04  0.90602630915E+03 0.  0.
         23    2    4    4    0    0 -0.97873391795E+02  0.24311520524E+03  0.73938307768E+03  0.78966478989E+03  0.90548003775E+02 0.  0.
         23    2    4    4    0    0  0.69223494382E+03 -0.37617027474E+03  0.12819401238E+04  0.15076380773E+04  0.94386430069E+02 0.  0.
          2    1    3    3  502    0 -0.48438283421E+03  0.94153589621E+02  0.52821040383E+03  0.72284013394E+03  0.00000000000E+00 0.  1.
         -2    1    3    3    0  502 -0.10997871782E+03  0.38901479873E+02  0.73065745794E+02  0.13764899824E+03  0.00000000000E+00 0. -1.
         13    1    5    5    0    0  0.76780651346E+01 -0.34229279180E+01  0.33917498867E+02  0.34943752648E+02  0.00000000000E+00 0. -1.
        -13    1    5    5    0    0 -0.10555145693E+03  0.24653813316E+03  0.70546557881E+03  0.75472103724E+03  0.00000000000E+00 0.  1.
          1    1    6    6  503    0  0.55508772160E+03 -0.31941346048E+03  0.97236811080E+03  0.11643225843E+04  0.00000000000E+00 0. -1.
         -1    1    6    6    0  503  0.13714722222E+03 -0.56756814261E+02  0.30957201297E+03  0.34331549301E+03  0.00000000000E+00 0.  1.
<mgrwt>
<rscale>  0 0.17588698E+04</rscale>
<asrwt>0</asrwt>
<pdfrwt beam="1">  1        1 0.44464547E+00 0.17588698E+04</pdfrwt>
<pdfrwt beam="2">  1       -1 0.41168667E-01 0.17588698E+04</pdfrwt>
<totfact> 0.39394462E+00</totfact>
</mgrwt>
</event>
<event>
12    3  0.4192740E-008  0.2023919E+04  0.7818608E-02  0.8595519E-01
         -2   -1    0    0    0  501 -0.00000000000E+00  0.00000000000E+00  0.71996974072E+03  0.71996974072E+03  0.00000000000E+00 0.  1.
          2   -1    0    0  501    0  0.00000000000E+00 -0.00000000000E+00 -0.14223678721E+04  0.14223678721E+04  0.00000000000E+00 0. -1.
         23    2    1    2    0    0 -0.23731958158E+02  0.54843038059E+03  0.34578577270E+03  0.65525110275E+03  0.91908208891E+02 0.  0.
        254    2    1    2    0    0  0.23731958158E+02 -0.54843038059E+03 -0.10481839041E+04  0.14870865101E+04  0.90077616725E+03 0.  0.
         23    2    4    4    0    0 -0.11727921728E+03  0.10465579207E+03  0.58403672707E+02  0.19075211067E+03  0.90929253391E+02 0.  0.
         23    2    4    4    0    0  0.14101117544E+03 -0.65308617266E+03 -0.11065875768E+04  0.12963343994E+04  0.97678602797E+02 0.  0.
          4    1    3    3  502    0 -0.65674688817E+01  0.32846328415E+03  0.15365518824E+03  0.36268605922E+03  0.00000000000E+00 0. -1.
         -4    1    3    3    0  502 -0.17164489277E+02  0.21996709644E+03  0.19213058446E+03  0.29256504353E+03  0.00000000000E+00 0.  1.
         13    1    5    5    0    0 -0.11563265792E+03  0.72458426513E+02  0.73675894656E+02  0.15507827896E+03  0.00000000000E+00 0.  1.
        -13    1    5    5    0    0 -0.16465593596E+01  0.32197365552E+02 -0.15272221949E+02  0.35673831718E+02  0.00000000000E+00 0. -1.
          4    1    6    6  503    0 -0.30768551376E+01 -0.10381742836E+03 -0.12704770275E+03  0.16409949496E+03  0.00000000000E+00 0. -1.
         -4    1    6    6    0  503  0.14408803058E+03 -0.54926874430E+03 -0.97953987406E+03  0.11322349045E+04  0.00000000000E+00 0.  1.
<mgrwt>
<rscale>  0 0.20239188E+04</rscale>
<asrwt>0</asrwt>
<pdfrwt beam="1">  1        2 0.21882583E+00 0.20239188E+04</pdfrwt>
<pdfrwt beam="2">  1       -2 0.11076458E+00 0.20239188E+04</pdfrwt>
<totfact> 0.84187441E+00</totfact>
</mgrwt>
</event>
<event>
12    3  0.4192740E-008  0.1386445E+04  0.7818608E-02  0.8963689E-01
         -1   -1    0    0    0  501 -0.00000000000E+00  0.00000000000E+00  0.54807326065E+03  0.54807326065E+03  0.00000000000E+00 0.  1.
          1   -1    0    0  501    0  0.00000000000E+00 -0.00000000000E+00 -0.87681283681E+03  0.87681283681E+03  0.00000000000E+00 0. -1.
         23    2    1    2    0    0  0.23829279181E+03 -0.86060403250E+02  0.21162824025E+03  0.34313543307E+03  0.93624599983E+02 0.  0.
        254    2    1    2    0    0 -0.23829279181E+03  0.86060403250E+02 -0.54036781641E+03  0.10817506644E+04  0.90221797548E+03 0.  0.
         23    2    4    4    0    0 -0.31273888225E+03  0.39686012630E+03 -0.89778084739E+02  0.52132325838E+03  0.91729313249E+02 0.  0.
         23    2    4    4    0    0  0.74446090445E+02 -0.31079972305E+03 -0.45058973167E+03  0.56042740602E+03  0.94387938298E+02 0.  0.
          1    1    3    3  502    0  0.10378060559E+03 -0.12613424596E+02  0.13794518734E+03  0.17308491352E+03  0.00000000000E+00 0. -1.
         -1    1    3    3    0  502  0.13451218622E+03 -0.73446978654E+02  0.73683052910E+02  0.17005051955E+03  0.00000000000E+00 0.  1.
         13    1    5    5    0    0 -0.31628626269E+03  0.37553811010E+03 -0.92221519685E+02  0.49957049632E+03  0.00000000000E+00 0.  1.
        -13    1    5    5    0    0  0.35473804358E+01  0.21322016200E+02  0.24434349464E+01  0.21752762058E+02  0.00000000000E+00 0. -1.
          1    1    6    6  503    0  0.20553763358E+02 -0.51186978933E+01 -0.16856304613E+02  0.27070154441E+02  0.00000000000E+00 0. -1.
         -1    1    6    6    0  503  0.53892327087E+02 -0.30568102516E+03 -0.43373342706E+03  0.53335725157E+03  0.00000000000E+00 0.  1.
<mgrwt>
<rscale>  0 0.13864453E+04</rscale>
<asrwt>0</asrwt>
<pdfrwt beam="1">  1        1 0.13489428E+00 0.13864453E+04</pdfrwt>
<pdfrwt beam="2">  1       -1 0.84318964E-01 0.13864453E+04</pdfrwt>
<totfact> 0.25870620E+01</totfact>
</mgrwt>
</event>
<event>
12    3  0.4192740E-008  0.1191125E+04  0.7818608E-02  0.9120660E-01
          2   -1    0    0  501    0  0.00000000000E+00  0.00000000000E+00  0.16169939177E+04  0.16169939177E+04  0.00000000000E+00 0. -1.
         -2   -1    0    0    0  501 -0.00000000000E+00 -0.00000000000E+00 -0.21935444733E+03  0.21935444733E+03  0.00000000000E+00 0.  1.
         23    2    1    2    0    0  0.23509539050E+03 -0.63219859881E+02  0.26717954422E+03  0.37361385373E+03  0.94529410933E+02 0.  0.
        254    2    1    2    0    0 -0.23509539050E+03  0.63219859881E+02  0.11304599262E+04  0.14627345113E+04  0.89576001954E+03 0.  0.
         23    2    4    4    0    0 -0.42300655643E+03  0.29764170159E+03  0.37754528843E+03  0.64676899352E+03  0.90799542144E+02 0.  0.
         23    2    4    4    0    0  0.18791116592E+03 -0.23442184171E+03  0.75291463774E+03  0.81596551781E+03  0.93032619943E+02 0.  0.
          2    1    3    3  502    0  0.35941575279E+02  0.23138708909E+02  0.30808007270E+02  0.52690891010E+02  0.00000000000E+00 0. -1.
         -2    1    3    3    0  502  0.19915381522E+03 -0.86358568790E+02  0.23637153695E+03  0.32092296272E+03  0.00000000000E+00 0.  1.
         13    1    5    5    0    0 -0.67432977390E+01  0.19846950463E+02  0.33330741973E+02  0.39373999893E+02  0.00000000000E+00 0.  1.
        -13    1    5    5    0    0 -0.41626325869E+03  0.27779475113E+03  0.34421454646E+03  0.60739499362E+03  0.00000000000E+00 0. -1.
          2    1    6    6  503    0  0.76401605506E+02 -0.11370685054E+03  0.22864185394E+03  0.26653996052E+03  0.00000000000E+00 0.  1.
         -2    1    6    6    0  503  0.11150956042E+03 -0.12071499117E+03  0.52427278381E+03  0.54942555728E+03  0.00000000000E+00 0. -1.
<mgrwt>
<rscale>  0 0.11911252E+04</rscale>
<asrwt>0</asrwt>
<pdfrwt beam="1">  1        2 0.24876829E+00 0.11911252E+04</pdfrwt>
<pdfrwt beam="2">  1       -2 0.33746839E-01 0.11911252E+04</pdfrwt>
<totfact> 0.88438588E+01</totfact>
</mgrwt>
</event>
<event>
12    3  0.4192740E-008  0.2161330E+04  0.7818608E-02  0.8534698E-01
          2   -1    0    0  501    0  0.00000000000E+00  0.00000000000E+00  0.20202581952E+04  0.20202581952E+04  0.00000000000E+00 0. -1.
         -2   -1    0    0    0  501 -0.00000000000E+00 -0.00000000000E+00 -0.57806337512E+03  0.57806337512E+03  0.00000000000E+00 0.  1.
         23    2    1    2    0    0 -0.14336886175E+03  0.74522731415E+03  0.11573569121E+04  0.13870008580E+04  0.91531294487E+02 0.  0.
        254    2    1    2    0    0  0.14336886175E+03 -0.74522731415E+03  0.28483790794E+03  0.12113207123E+04  0.90013713063E+03 0.  0.
         23    2    4    4    0    0  0.48194081653E+03 -0.47797726878E+03  0.34360360303E+03  0.76637396796E+03  0.92392654709E+02 0.  0.
         23    2    4    4    0    0 -0.33857195478E+03 -0.26725004537E+03 -0.58765695083E+02  0.44494674433E+03  0.92036096466E+02 0.  0.
          3    1    3    3  502    0 -0.11546805334E+03  0.41550525539E+03  0.70703450892E+03  0.82817587831E+03  0.00000000000E+00 0. -1.
         -3    1    3    3    0  502 -0.27900808401E+02  0.32972205876E+03  0.45032240319E+03  0.55882497971E+03  0.00000000000E+00 0.  1.
         13    1    5    5    0    0  0.20522041052E+02 -0.31940529167E+02 -0.93465130922E+00  0.37976639470E+02  0.00000000000E+00 0.  1.
        -13    1    5    5    0    0  0.46141877547E+03 -0.44603673961E+03  0.34453825434E+03  0.72839732849E+03  0.00000000000E+00 0. -1.
          3    1    6    6  503    0 -0.33715218976E+03 -0.25383665401E+03 -0.43016697350E+02  0.42421112931E+03  0.00000000000E+00 0. -1.
         -3    1    6    6    0  503 -0.14197650204E+01 -0.13413391358E+02 -0.15748997733E+02  0.20735615015E+02  0.00000000000E+00 0.  1.
<mgrwt>
<rscale>  0 0.21613304E+04</rscale>
<asrwt>0</asrwt>
<pdfrwt beam="1">  1        2 0.31080895E+00 0.21613304E+04</pdfrwt>
<pdfrwt beam="2">  1       -2 0.88932828E-01 0.21613304E+04</pdfrwt>
<totfact> 0.64836793E+00</totfact>
</mgrwt>
</event>
<event>
12    3  0.4192740E-008  0.1330646E+04  0.7818608E-02  0.9005609E-01
          2   -1    0    0  501    0  0.00000000000E+00  0.00000000000E+00  0.51726087688E+04  0.51726087688E+04  0.00000000000E+00 0. -1.
         -2   -1    0    0    0  501 -0.00000000000E+00 -0.00000000000E+00 -0.85576710460E+02  0.85576710460E+02  0.00000000000E+00 0.  1.
         23    2    1    2    0    0 -0.31924505325E+03 -0.48122940798E+02  0.81867031446E+03  0.88483525521E+03  0.92082156963E+02 0.  0.
        254    2    1    2    0    0  0.31924505325E+03  0.48122940798E+02  0.42683617439E+04  0.43733502241E+04  0.89612888813E+03 0.  0.
         23    2    4    4    0    0  0.12790455777E+03 -0.24788520763E+03  0.44536980361E+03  0.53305382803E+03  0.89361454489E+02 0.  0.
         23    2    4    4    0    0  0.19134049547E+03  0.29600814843E+03  0.38229919403E+04  0.38402963961E+04  0.91526087859E+02 0.  0.
          1    1    3    3  502    0 -0.86657151401E+02 -0.46134543804E+01  0.33963101827E+03  0.35054240032E+03  0.00000000000E+00 0. -1.
         -1    1    3    3    0  502 -0.23258790185E+03 -0.43509486418E+02  0.47903929619E+03  0.53429285489E+03  0.00000000000E+00 0.  1.
         13    1    5    5    0    0  0.68706027654E+02 -0.14457147897E+03  0.33233466435E+03  0.36887363676E+03  0.00000000000E+00 0. -1.
        -13    1    5    5    0    0  0.59198530121E+02 -0.10331372866E+03  0.11303513926E+03  0.16418019127E+03  0.00000000000E+00 0.  1.
          4    1    6    6  503    0  0.64073619282E+02  0.13186371829E+03  0.11622583506E+04  0.11714682849E+04  0.00000000000E+00 0. -1.
         -4    1    6    6    0  503  0.12726687619E+03  0.16414443014E+03  0.26607335897E+04  0.26688281112E+04  0.00000000000E+00 0.  1.
<mgrwt>
<rscale>  0 0.13306462E+04</rscale>
<asrwt>0</asrwt>
<pdfrwt beam="1">  1        2 0.79578572E+00 0.13306462E+04</pdfrwt>
<pdfrwt beam="2">  1       -2 0.13165652E-01 0.13306462E+04</pdfrwt>
<totfact> 0.93021623E-01</totfact>
</mgrwt>
</event>
<event>
12    3  0.4192740E-008  0.2195946E+04  0.7818608E-02  0.8520117E-01
         -2   -1    0    0    0  501 -0.00000000000E+00  0.00000000000E+00  0.34916301012E+03  0.34916301012E+03  0.00000000000E+00 0.  1.
          2   -1    0    0  501    0  0.00000000000E+00 -0.00000000000E+00 -0.34526704557E+04  0.34526704557E+04  0.00000000000E+00 0. -1.
         23    2    1    2    0    0 -0.47315395546E+03  0.34717712302E+03 -0.89467075740E+02  0.60098802610E+03  0.93678330280E+02 0.  0.
        254    2    1    2    0    0  0.47315395546E+03 -0.34717712302E+03 -0.30140403699E+04  0.32008454397E+04  0.90364017040E+03 0.  0.
         23    2    4    4    0    0 -0.18075023717E+03 -0.76043636392E+02 -0.16213156870E+04  0.16358720821E+04  0.94655318688E+02 0.  0.
         23    2    4    4    0    0  0.65390419263E+03 -0.27113348662E+03 -0.13927246829E+04  0.15649733576E+04  0.91408462369E+02 0.  0.
          3    1    3    3  502    0 -0.28054630372E+03  0.15042271305E+03 -0.61723499061E+02  0.32425763132E+03  0.00000000000E+00 0. -1.
         -3    1    3    3    0  502 -0.19260765174E+03  0.19675440997E+03 -0.27743576679E+02  0.27673039478E+03  0.00000000000E+00 0.  1.
         13    1    5    5    0    0 -0.38786077629E+02  0.21707509518E+02 -0.39772720682E+03  0.40020308199E+03  0.00000000000E+00 0.  1.
        -13    1    5    5    0    0 -0.14196415954E+03 -0.97751145910E+02 -0.12235884802E+04  0.12356690001E+04  0.00000000000E+00 0. -1.
          3    1    6    6  503    0  0.37223142529E+03 -0.10701553097E+03 -0.78405444797E+03  0.87449982003E+03  0.00000000000E+00 0. -1.
         -3    1    6    6    0  503  0.28167276734E+03 -0.16411795565E+03 -0.60867023490E+03  0.69047353757E+03  0.00000000000E+00 0.  1.
<mgrwt>
<rscale>  0 0.21959461E+04</rscale>
<asrwt>0</asrwt>
<pdfrwt beam="1">  1        2 0.53118009E+00 0.21959461E+04</pdfrwt>
<pdfrwt beam="2">  1       -2 0.53717384E-01 0.21959461E+04</pdfrwt>
<totfact> 0.26271222E+00</totfact>
</mgrwt>
</event>
<event>
12    3  0.4192740E-008  0.1295677E+04  0.7818608E-02  0.9033001E-01
         -2   -1    0    0    0  501 -0.00000000000E+00  0.00000000000E+00  0.17825769366E+03  0.17825769366E+03  0.00000000000E+00 0.  1.
          2   -1    0    0  501    0  0.00000000000E+00 -0.00000000000E+00 -0.23544258514E+04  0.23544258514E+04  0.00000000000E+00 0. -1.
         23    2    1    2    0    0  0.14641737582E+03 -0.19046567102E+03 -0.10037734685E+04  0.10363779512E+04  0.93823568386E+02 0.  0.
        254    2    1    2    0    0 -0.14641737582E+03  0.19046567102E+03 -0.11723946893E+04  0.14963055938E+04  0.89816808168E+03 0.  0.
         23    2    4    4    0    0 -0.38327715631E+03 -0.19936670708E+03 -0.73684178393E+03  0.85897018509E+03  0.90804745908E+02 0.  0.
         23    2    4    4    0    0  0.23685978049E+03  0.38983237809E+03 -0.43555290534E+03  0.63733540875E+03  0.91751028713E+02 0.  0.
          4    1    3    3  502    0  0.44352436894E+02 -0.52019790306E+02 -0.14188720152E+03  0.15749658789E+03  0.00000000000E+00 0. -1.
         -4    1    3    3    0  502  0.10206493893E+03 -0.13844588071E+03 -0.86188626698E+03  0.87888136335E+03  0.00000000000E+00 0.  1.
         13    1    5    5    0    0 -0.37663407108E+03 -0.20490487321E+03 -0.69796081163E+03  0.81913889246E+03  0.00000000000E+00 0.  1.
        -13    1    5    5    0    0 -0.66430852359E+01  0.55381661370E+01 -0.38880972297E+02  0.39831292627E+02  0.00000000000E+00 0. -1.
          1    1    6    6  503    0 -0.80210767762E+01  0.89340427963E+01 -0.16155866464E+02  0.20128755911E+02  0.00000000000E+00 0. -1.
         -1    1    6    6    0  503  0.24488085727E+03  0.38089833530E+03 -0.41939703888E+03  0.61720665284E+03  0.00000000000E+00 0.  1.
<mgrwt>
<rscale>  0 0.12956767E+04</rscale>
<asrwt>0</asrwt>
<pdfrwt beam="1">  1        2 0.36221931E+00 0.12956767E+04</pdfrwt>
<pdfrwt beam="2">  1       -2 0.27424264E-01 0.12956767E+04</pdfrwt>
<totfact> 0.50305088E+01</totfact>
</mgrwt>
</event>
<event>
12    3  0.4192740E-008  0.1343439E+04  0.7818608E-02  0.8995810E-01
          2   -1    0    0  501    0  0.00000000000E+00  0.00000000000E+00  0.77532472505E+03  0.77532472505E+03  0.00000000000E+00 0. -1.
         -2   -1    0    0    0  501 -0.00000000000E+00 -0.00000000000E+00 -0.58195856987E+03  0.58195856987E+03  0.00000000000E+00 0.  1.
         23    2    1    2    0    0 -0.67012149535E+01 -0.35918303039E+03  0.20147307849E+02  0.37116180870E+03  0.91092363129E+02 0.  0.
        254    2    1    2    0    0  0.67012149535E+01  0.35918303039E+03  0.17321884733E+03  0.98612148622E+03  0.90187219766E+03 0.  0.
         23    2    4    4    0    0  0.15639808539E+03 -0.24041045628E+03 -0.82438505731E+02  0.31213274244E+03  0.91505153262E+02 0.  0.
         23    2    4    4    0    0 -0.14969687044E+03  0.59959348667E+03  0.25565735306E+03  0.67398874378E+03  0.83538268409E+02 0.  0.
          1    1    3    3  502    0 -0.22822539783E+02 -0.43814352936E+02 -0.19070922305E+02  0.52955320063E+02  0.00000000000E+00 0. -1.
         -1    1    3    3    0  502  0.16121324830E+02 -0.31536867746E+03  0.39218230154E+02  0.31820648864E+03  0.00000000000E+00 0.  1.
         13    1    5    5    0    0  0.26726013516E+02 -0.48578192422E+02  0.19993648405E+02  0.58939516065E+02  0.00000000000E+00 0.  1.
        -13    1    5    5    0    0  0.12967207188E+03 -0.19183226386E+03 -0.10243215414E+03  0.25319322638E+03  0.00000000000E+00 0. -1.
          2    1    6    6  503    0 -0.15408456977E+03  0.58769934252E+03  0.25961738068E+03  0.66070701236E+03  0.00000000000E+00 0. -1.
         -2    1    6    6    0  503  0.43876993295E+01  0.11894144157E+02 -0.39600276229E+01  0.13281731416E+02  0.00000000000E+00 0.  1.
<mgrwt>
<rscale>  0 0.13434387E+04</rscale>
<asrwt>0</asrwt>
<pdfrwt beam="1">  1        2 0.11928073E+00 0.13434387E+04</pdfrwt>
<pdfrwt beam="2">  1       -2 0.89532087E-01 0.13434387E+04</pdfrwt>
<totfact> 0.37543925E+01</totfact>
</mgrwt>
</event>
<event>
12    3  0.4192740E-008  0.1783934E+04  0.7818608E-02  0.8714890E-01
         -4   -1    0    0    0  501 -0.00000000000E+00  0.00000000000E+00  0.17138852543E+04  0.17138852543E+04  0.00000000000E+00 0.  1.
          4   -1    0    0  501    0  0.00000000000E+00 -0.00000000000E+00 -0.46421122603E+03  0.46421122603E+03  0.00000000000E+00 0. -1.
         23    2    1    2    0    0  0.60270903648E+02  0.62454005513E+03  0.73613959670E+03  0.97160053923E+03  0.91778209417E+02 0.  0.
        254    2    1    2    0    0 -0.60270903648E+02 -0.62454005513E+03  0.51353443156E+03  0.12064959411E+04  0.89343829177E+03 0.  0.
         23    2    4    4    0    0 -0.37087317327E+03 -0.21849931446E+03 -0.47124452396E+02  0.44224503500E+03  0.89839278139E+02 0.  0.
         23    2    4    4    0    0  0.31060226962E+03 -0.40604074067E+03  0.56065888395E+03  0.76425090610E+03  0.91641749948E+02 0.  0.
          3    1    3    3  502    0  0.37970564300E+02  0.58717312382E+03  0.66254822738E+03  0.88610619831E+03  0.00000000000E+00 0. -1.
         -3    1    3    3    0  502  0.22300339348E+02  0.37366931307E+02  0.73591369325E+02  0.85494340920E+02  0.00000000000E+00 0.  1.
         13    1    5    5    0    0 -0.18641109897E+03 -0.14154434890E+03  0.10307623229E+02  0.23428646487E+03  0.00000000000E+00 0. -1.
        -13    1    5    5    0    0 -0.18446207430E+03 -0.76954965559E+02 -0.57432075624E+02  0.20795857013E+03  0.00000000000E+00 0.  1.
          1    1    6    6  503    0  0.22320520149E+02 -0.84698627173E+02  0.99422566924E+02  0.13250249008E+03  0.00000000000E+00 0.  1.
         -1    1    6    6    0  503  0.28828174947E+03 -0.32134211350E+03  0.46123631703E+03  0.63174841601E+03  0.00000000000E+00 0. -1.
<mgrwt>
<rscale>  0 0.17839336E+04</rscale>
<asrwt>0</asrwt>
<pdfrwt beam="1">  1        4 0.71417112E-01 0.17839336E+04</pdfrwt>
<pdfrwt beam="2">  1       -4 0.26367465E+00 0.17839336E+04</pdfrwt>
<totfact> 0.17616896E-01</totfact>
</mgrwt>
</event>
<event>
12    3  0.4192740E-008  0.1280546E+04  0.7818608E-02  0.9045136E-01
         -2   -1    0    0    0  501 -0.00000000000E+00  0.00000000000E+00  0.24868063849E+03  0.24868063849E+03  0.00000000000E+00 0.  1.
          2   -1    0    0  501    0  0.00000000000E+00 -0.00000000000E+00 -0.16484987010E+04  0.16484987010E+04  0.00000000000E+00 0. -1.
         23    2    1    2    0    0  0.30117460511E+03  0.10031801818E+03 -0.58047568230E+03  0.66796261153E+03  0.91935766319E+02 0.  0.
        254    2    1    2    0    0 -0.30117460511E+03 -0.10031801818E+03 -0.81934238025E+03  0.12292167280E+04  0.85958244560E+03 0.  0.
         23    2    4    4    0    0 -0.21795338691E+03  0.34982699715E+03 -0.53393146846E+03  0.68210380182E+03  0.10148978592E+03 0.  0.
         23    2    4    4    0    0 -0.83221218195E+02 -0.45014501533E+03 -0.28541091180E+03  0.54711292618E+03  0.91196817029E+02 0.  0.
          4    1    3    3  502    0  0.29962944031E+03  0.10850818369E+03 -0.54328563702E+03  0.62985007011E+03  0.00000000000E+00 0. -1.
         -4    1    3    3    0  502  0.15451647964E+01 -0.81901655139E+01 -0.37190045279E+02  0.38112541417E+02  0.00000000000E+00 0.  1.
         13    1    5    5    0    0 -0.11517036107E+03  0.14507475273E+03 -0.31375569054E+03  0.36435357730E+03  0.00000000000E+00 0.  1.
        -13    1    5    5    0    0 -0.10278302584E+03  0.20475224443E+03 -0.22017577791E+03  0.31775022451E+03  0.00000000000E+00 0. -1.
          3    1    6    6  503    0 -0.61023326727E+02 -0.11926435833E+03 -0.10000076253E+03  0.16717651175E+03  0.00000000000E+00 0. -1.
         -3    1    6    6    0  503 -0.22197891468E+02 -0.33088065700E+03 -0.18541014926E+03  0.37993641443E+03  0.00000000000E+00 0.  1.
<mgrwt>
<rscale>  0 0.12805463E+04</rscale>
<asrwt>0</asrwt>
<pdfrwt beam="1">  1        2 0.25361518E+00 0.12805463E+04</pdfrwt>
<pdfrwt beam="2">  1       -2 0.38258561E-01 0.12805463E+04</pdfrwt>
<totfact> 0.66321251E+01</totfact>
</mgrwt>
</event>
<event>
12    3  0.4192740E-008  0.1331680E+04  0.7818608E-02  0.9004813E-01
          2   -1    0    0  501    0  0.00000000000E+00  0.00000000000E+00  0.10707889733E+04  0.10707889733E+04  0.00000000000E+00 0. -1.
         -2   -1    0    0    0  501 -0.00000000000E+00 -0.00000000000E+00 -0.41403359189E+03  0.41403359189E+03  0.00000000000E+00 0.  1.
         23    2    1    2    0    0  0.30042904775E+02 -0.22714022003E+03 -0.12103289818E+03  0.27401698707E+03  0.89112799726E+02 0.  0.
        254    2    1    2    0    0 -0.30042904775E+02  0.22714022003E+03  0.77778827959E+03  0.12108055781E+04  0.89922204403E+03 0.  0.
         23    2    4    4    0    0  0.17064346704E+03  0.45389204601E+03  0.16596142624E+03  0.52046521155E+03  0.90574053461E+02 0.  0.
         23    2    4    4    0    0 -0.20068637181E+03 -0.22675182597E+03  0.61182685335E+03  0.69034036658E+03  0.10269524250E+03 0.  0.
          4    1    3    3  502    0  0.38728781609E+02 -0.10650710499E+03 -0.10023406034E+03  0.15129622861E+03  0.00000000000E+00 0. -1.
         -4    1    3    3    0  502 -0.86858768342E+01 -0.12063311504E+03 -0.20798837840E+02  0.12272075846E+03  0.00000000000E+00 0.  1.
         13    1    5    5    0    0  0.29344939324E+02  0.17337114927E+03  0.30769600093E+02  0.17850896099E+03  0.00000000000E+00 0. -1.
        -13    1    5    5    0    0  0.14129852771E+03  0.28052089674E+03  0.13519182614E+03  0.34195625056E+03  0.00000000000E+00 0.  1.
          1    1    6    6  503    0  0.95900623597E+01 -0.30770711903E+02  0.66162245730E+02  0.73595168096E+02  0.00000000000E+00 0. -1.
         -1    1    6    6    0  503 -0.21027643417E+03 -0.19598111407E+03  0.54566460762E+03  0.61674519848E+03  0.00000000000E+00 0.  1.
<mgrwt>
<rscale>  0 0.13316795E+04</rscale>
<asrwt>0</asrwt>
<pdfrwt beam="1">  1        2 0.16473676E+00 0.13316795E+04</pdfrwt>
<pdfrwt beam="2">  1       -2 0.63697476E-01 0.13316795E+04</pdfrwt>
<totfact> 0.50664327E+01</totfact>
</mgrwt>
</event>
<event>
12    3  0.4192740E-008  0.2064090E+04  0.7818608E-02  0.8577229E-01
          2   -1    0    0  501    0  0.00000000000E+00  0.00000000000E+00  0.12845687417E+04  0.12845687417E+04  0.00000000000E+00 0. -1.
         -2   -1    0    0    0  501 -0.00000000000E+00 -0.00000000000E+00 -0.82916300516E+03  0.82916300516E+03  0.00000000000E+00 0.  1.
         23    2    1    2    0    0 -0.30971979246E+03  0.11957971500E+03  0.98156560897E+03  0.10402454662E+04  0.91727460950E+02 0.  0.
        254    2    1    2    0    0  0.30971979246E+03 -0.11957971500E+03 -0.52615987239E+03  0.10734862807E+04  0.87481593809E+03 0.  0.
         23    2    4    4    0    0 -0.14613573597E+03  0.27679683037E+03 -0.17648607555E+03  0.36956116324E+03  0.86348016093E+02 0.  0.
         23    2    4    4    0    0  0.45585552842E+03 -0.39637654537E+03 -0.34967379684E+03  0.70392511749E+03  0.91215011527E+02 0.  0.
          2    1    3    3  502    0 -0.28374675405E+03  0.12867552294E+03  0.94091078667E+03  0.99115221794E+03  0.00000000000E+00 0. -1.
         -2    1    3    3    0  502 -0.25973038405E+02 -0.90958079425E+01  0.40654822295E+02  0.49093248231E+02  0.00000000000E+00 0.  1.
         13    1    5    5    0    0 -0.12869325577E+03  0.25137336313E+03 -0.12342997387E+03  0.30819714506E+03  0.00000000000E+00 0.  1.
        -13    1    5    5    0    0 -0.17442480199E+02  0.25423467239E+02 -0.53056101683E+02  0.61364018184E+02  0.00000000000E+00 0. -1.
          2    1    6    6  503    0  0.78726115103E+02 -0.28602905063E+02 -0.56954359784E+02  0.10129030791E+03  0.00000000000E+00 0. -1.
         -2    1    6    6    0  503  0.37712941332E+03 -0.36777364031E+03 -0.29271943705E+03  0.60263480958E+03  0.00000000000E+00 0.  1.
<mgrwt>
<rscale>  0 0.20640900E+04</rscale>
<asrwt>0</asrwt>
<pdfrwt beam="1">  1        2 0.19762596E+00 0.20640900E+04</pdfrwt>
<pdfrwt beam="2">  1       -2 0.12756354E+00 0.20640900E+04</pdfrwt>
<totfact> 0.71083722E+00</totfact>
</mgrwt>
</event>
<event>
12    3  0.4192740E-008  0.2577250E+04  0.7818608E-02  0.8375970E-01
          2   -1    0    0  501    0  0.00000000000E+00  0.00000000000E+00  0.19868118942E+04  0.19868118942E+04  0.00000000000E+00 0. -1.
         -2   -1    0    0    0  501 -0.00000000000E+00 -0.00000000000E+00 -0.83578871251E+03  0.83578871251E+03  0.00000000000E+00 0.  1.
         23    2    1    2    0    0 -0.92733492089E+03 -0.45086315560E+03  0.72510576503E+01  0.10351577831E+04  0.90947334069E+02 0.  0.
        254    2    1    2    0    0  0.92733492089E+03  0.45086315560E+03  0.11437721240E+04  0.17874428236E+04  0.90747426147E+03 0.  0.
         23    2    4    4    0    0  0.68307286714E+03  0.50973439372E+03  0.12364336854E+04  0.15044474144E+04  0.90421625721E+02 0.  0.
         23    2    4    4    0    0  0.24426205375E+03 -0.58871238122E+02 -0.92661561318E+02  0.28299540918E+03  0.91490234970E+02 0.  0.
          3    1    3    3  502    0 -0.34197751050E+03 -0.16694326519E+03  0.46579436905E+02  0.38339055208E+03  0.00000000000E+00 0. -1.
         -3    1    3    3    0  502 -0.58535741039E+03 -0.28391989041E+03 -0.39328379255E+02  0.65176723106E+03  0.00000000000E+00 0.  1.
         13    1    5    5    0    0  0.63194628354E+02  0.66471385468E+02  0.95409495063E+02  0.13234416454E+03  0.00000000000E+00 0.  1.
        -13    1    5    5    0    0  0.61987823879E+03  0.44326300825E+03  0.11410241903E+04  0.13721032498E+04  0.00000000000E+00 0. -1.
          3    1    6    6  503    0  0.16901453941E+03 -0.68256171180E+01 -0.89677831941E+02  0.19145395562E+03  0.00000000000E+00 0. -1.
         -3    1    6    6    0  503  0.75247514334E+02 -0.52045621004E+02 -0.29837293770E+01  0.91541453562E+02  0.00000000000E+00 0.  1.
<mgrwt>
<rscale>  0 0.25772504E+04</rscale>
<asrwt>0</asrwt>
<pdfrwt beam="1">  1        2 0.30566337E+00 0.25772504E+04</pdfrwt>
<pdfrwt beam="2">  1       -2 0.12858288E+00 0.25772504E+04</pdfrwt>
<totfact> 0.26890110E+00</totfact>
</mgrwt>
</event>
<event>
12    3  0.4192740E-008  0.1851557E+04  0.7818608E-02  0.8679353E-01
         -2   -1    0    0    0  501 -0.00000000000E+00  0.00000000000E+00  0.95939150086E+03  0.95939150086E+03  0.00000000000E+00 0.  1.
          2   -1    0    0  501    0  0.00000000000E+00 -0.00000000000E+00 -0.89334315371E+03  0.89334315371E+03  0.00000000000E+00 0. -1.
         23    2    1    2    0    0 -0.63463578390E+03  0.12010084152E+03  0.28887204069E+03  0.71306606918E+03  0.88483743043E+02 0.  0.
        254    2    1    2    0    0  0.63463578390E+03 -0.12010084152E+03 -0.22282369355E+03  0.11396685854E+04  0.91214433933E+03 0.  0.
         23    2    4    4    0    0  0.73137650178E+03  0.10293894138E+03  0.70942728178E+02  0.74753434005E+03  0.90921426877E+02 0.  0.
         23    2    4    4    0    0 -0.96740717882E+02 -0.22303978290E+03 -0.29376642172E+03  0.39213424534E+03  0.91460617638E+02 0.  0.
          1    1    3    3  502    0 -0.21839662608E+03  0.59724170828E+02  0.59997952525E+02  0.23423026527E+03  0.00000000000E+00 0. -1.
         -1    1    3    3    0  502 -0.41623915782E+03  0.60376670692E+02  0.22887408817E+03  0.47883580391E+03  0.00000000000E+00 0.  1.
         13    1    5    5    0    0  0.23275749664E+03  0.55516771904E+02 -0.13182749212E+02  0.23964963818E+03  0.00000000000E+00 0. -1.
        -13    1    5    5    0    0  0.49861900514E+03  0.47422169480E+02  0.84125477390E+02  0.50788470187E+03  0.00000000000E+00 0.  1.
          4    1    6    6  503    0 -0.77353711674E+02 -0.20745150215E+03 -0.21150229014E+03  0.30619102075E+03  0.00000000000E+00 0.  1.
         -4    1    6    6    0  503 -0.19387006208E+02 -0.15588280753E+02 -0.82264131588E+02  0.85943224588E+02  0.00000000000E+00 0. -1.
<mgrwt>
<rscale>  0 0.18515570E+04</rscale>
<asrwt>0</asrwt>
<pdfrwt beam="1">  1        2 0.13743741E+00 0.18515570E+04</pdfrwt>
<pdfrwt beam="2">  1       -2 0.14759869E+00 0.18515570E+04</pdfrwt>
<totfact> 0.87085897E+00</totfact>
</mgrwt>
</event>
<event>
12    3  0.4192740E-008  0.3253964E+04  0.7818608E-02  0.8174709E-01
         -2   -1    0    0    0  501 -0.00000000000E+00  0.00000000000E+00  0.14002456039E+04  0.14002456039E+04  0.00000000000E+00 0.  1.
          2   -1    0    0  501    0  0.00000000000E+00 -0.00000000000E+00 -0.18904335229E+04  0.18904335229E+04  0.00000000000E+00 0. -1.
         23    2    1    2    0    0  0.37286472277E+02  0.23465881154E+03  0.12743591136E+04  0.13001625993E+04  0.99882907814E+02 0.  0.
        254    2    1    2    0    0 -0.37286472277E+02 -0.23465881154E+03 -0.17645470326E+04  0.19905165275E+04  0.88998582983E+03 0.  0.
         23    2    4    4    0    0  0.22227332619E+03  0.20745068029E+03 -0.11072996514E+04  0.11521274832E+04  0.94042560311E+02 0.  0.
         23    2    4    4    0    0 -0.25955979846E+03 -0.44210949183E+03 -0.65724738113E+03  0.83838904432E+03  0.89944304398E+02 0.  0.
          2    1    3    3  502    0  0.52217441160E+02  0.57155056043E+02  0.46826722297E+03  0.47462359160E+03  0.00000000000E+00 0. -1.
         -2    1    3    3    0  502 -0.14930968883E+02  0.17750375550E+03  0.80609189064E+03  0.82553900768E+03  0.00000000000E+00 0.  1.
         13    1    5    5    0    0 -0.36822528120E+01 -0.41256262062E+01 -0.60366136740E+01  0.81866038144E+01  0.00000000000E+00 0. -1.
        -13    1    5    5    0    0  0.22595557900E+03  0.21157630649E+03 -0.11012630378E+04  0.11439408794E+04  0.00000000000E+00 0.  1.
          1    1    6    6  503    0 -0.47807163218E+02 -0.90444182965E+02 -0.19482366902E+03  0.22004985139E+03  0.00000000000E+00 0. -1.
         -1    1    6    6    0  503 -0.21175263525E+03 -0.35166530887E+03 -0.46242371211E+03  0.61833919293E+03  0.00000000000E+00 0.  1.
<mgrwt>
<rscale>  0 0.32539645E+04</rscale>
<asrwt>0</asrwt>
<pdfrwt beam="1">  1        2 0.29083592E+00 0.32539645E+04</pdfrwt>
<pdfrwt beam="2">  1       -2 0.21542240E+00 0.32539645E+04</pdfrwt>
<totfact> 0.68116077E-01</totfact>
</mgrwt>
</event>
<event>
12    3  0.4192740E-008  0.1555686E+04  0.7818608E-02  0.8848244E-01
         -2   -1    0    0    0  501 -0.00000000000E+00  0.00000000000E+00  0.72396380404E+03  0.72396380404E+03  0.00000000000E+00 0.  1.
          2   -1    0    0  501    0  0.00000000000E+00 -0.00000000000E+00 -0.83573171888E+03  0.83573171888E+03  0.00000000000E+00 0. -1.
         23    2    1    2    0    0 -0.43865886717E+03 -0.21873855701E+03 -0.18879148791E+03  0.53257005720E+03  0.87866272499E+02 0.  0.
        254    2    1    2    0    0  0.43865886717E+03  0.21873855701E+03  0.77023573067E+02  0.10271254657E+04  0.89932526566E+03 0.  0.
         23    2    4    4    0    0  0.63206434985E+03  0.38196151163E+02 -0.16195350193E+03  0.65930986663E+03  0.86581032198E+02 0.  0.
         23    2    4    4    0    0 -0.19340548268E+03  0.18054240585E+03  0.23897707500E+03  0.36781559909E+03  0.90426940259E+02 0.  0.
          2    1    3    3  502    0 -0.27223367078E+03 -0.14330685855E+03 -0.72812458794E+02  0.31614819527E+03  0.00000000000E+00 0. -1.
         -2    1    3    3    0  502 -0.16642519639E+03 -0.75431698464E+02 -0.11597902912E+03  0.21642186193E+03  0.00000000000E+00 0.  1.
         13    1    5    5    0    0  0.89668518636E+02  0.29763834891E+02 -0.43760798290E+02  0.10412173917E+03  0.00000000000E+00 0.  1.
        -13    1    5    5    0    0  0.54239583121E+03  0.84323162713E+01 -0.11819270364E+03  0.55518812746E+03  0.00000000000E+00 0. -1.
          4    1    6    6  503    0 -0.20114692629E+03  0.16125297597E+03  0.21210330023E+03  0.33384190597E+03  0.00000000000E+00 0. -1.
         -4    1    6    6    0  503  0.77414436121E+01  0.19289429878E+02  0.26873774763E+02  0.33973693120E+02  0.00000000000E+00 0.  1.
<mgrwt>
<rscale>  0 0.15556857E+04</rscale>
<asrwt>0</asrwt>
<pdfrwt beam="1">  1        2 0.12857411E+00 0.15556857E+04</pdfrwt>
<pdfrwt beam="2">  1       -2 0.11137905E+00 0.15556857E+04</pdfrwt>
<totfact> 0.19922380E+01</totfact>
</mgrwt>
</event>
<event>
12    3  0.4192740E-008  0.1390988E+04  0.7818608E-02  0.8960368E-01
          1   -1    0    0  501    0  0.00000000000E+00  0.00000000000E+00  0.36377889792E+03  0.36377889792E+03  0.00000000000E+00 0. -1.
         -1   -1    0    0    0  501 -0.00000000000E+00 -0.00000000000E+00 -0.13296867089E+04  0.13296867089E+04  0.00000000000E+00 0.  1.
         23    2    1    2    0    0  0.37705190631E+03 -0.11204045095E+03 -0.34902217058E+03  0.53526576964E+03  0.99858729639E+02 0.  0.
        254    2    1    2    0    0 -0.37705190631E+03  0.11204045095E+03 -0.61688564040E+03  0.11581998372E+04  0.89786288864E+03 0.  0.
         23    2    4    4    0    0 -0.39042944060E+03  0.43294972797E+03 -0.19578204465E+03  0.62152408509E+03  0.89894183916E+02 0.  0.
         23    2    4    4    0    0  0.13377534286E+02 -0.32090927701E+03 -0.42110359575E+03  0.53667575209E+03  0.86780769918E+02 0.  0.
          1    1    3    3  502    0  0.30072686482E+03 -0.11062666439E+03 -0.23221433353E+03  0.39572516068E+03  0.00000000000E+00 0. -1.
         -1    1    3    3    0  502  0.76325041493E+02 -0.14137865599E+01 -0.11680783705E+03  0.13954060896E+03  0.00000000000E+00 0.  1.
         13    1    5    5    0    0 -0.28666786501E+03  0.25813674322E+03 -0.11244304801E+03  0.40181647810E+03  0.00000000000E+00 0.  1.
        -13    1    5    5    0    0 -0.10376157559E+03  0.17481298475E+03 -0.83338996641E+02  0.21970760698E+03  0.00000000000E+00 0. -1.
          1    1    6    6  503    0  0.32393749381E+02 -0.41788116547E+02 -0.63158783524E+02  0.82368887450E+02  0.00000000000E+00 0. -1.
         -1    1    6    6    0  503 -0.19016215095E+02 -0.27912116047E+03 -0.35794481223E+03  0.45430686464E+03  0.00000000000E+00 0.  1.
<mgrwt>
<rscale>  0 0.13909881E+04</rscale>
<asrwt>0</asrwt>
<pdfrwt beam="1">  1        1 0.55965985E-01 0.13909881E+04</pdfrwt>
<pdfrwt beam="2">  1       -1 0.20456718E+00 0.13909881E+04</pdfrwt>
<totfact> 0.92972322E+00</totfact>
</mgrwt>
</event>
<event>
12    3  0.4192740E-008  0.1222241E+04  0.7818608E-02  0.9093609E-01
         -2   -1    0    0    0  501 -0.00000000000E+00  0.00000000000E+00  0.14042684273E+03  0.14042684273E+03  0.00000000000E+00 0.  1.
          2   -1    0    0  501    0  0.00000000000E+00 -0.00000000000E+00 -0.26595203241E+04  0.26595203241E+04  0.00000000000E+00 0. -1.
         23    2    1    2    0    0  0.12330347037E+03 -0.24400032860E+03 -0.54522705374E+03  0.61676947586E+03  0.91608624365E+02 0.  0.
        254    2    1    2    0    0 -0.12330347037E+03  0.24400032860E+03 -0.19738664277E+04  0.21831776910E+04  0.89183869062E+03 0.  0.
         23    2    4    4    0    0 -0.33323530799E+03  0.30450287183E+03 -0.46015190292E+03  0.65105217857E+03  0.91440669362E+02 0.  0.
         23    2    4    4    0    0  0.20993183762E+03 -0.60502543230E+02 -0.15137145247E+04  0.15321255124E+04  0.91350912814E+02 0.  0.
          1    1    3    3  502    0  0.96514375492E+02 -0.23604212418E+03 -0.44680340292E+03  0.51445523608E+03  0.00000000000E+00 0. -1.
         -1    1    3    3    0  502  0.26789094874E+02 -0.79582044213E+01 -0.98423650813E+02  0.10231423978E+03  0.00000000000E+00 0.  1.
         13    1    5    5    0    0 -0.59294843839E+02  0.23163687468E+02 -0.36395289920E+02  0.73328385031E+02  0.00000000000E+00 0. -1.
        -13    1    5    5    0    0 -0.27394046415E+03  0.28133918436E+03 -0.42375661300E+03  0.57772379353E+03  0.00000000000E+00 0.  1.
          4    1    6    6  503    0  0.68858869526E+02 -0.58940677677E+02 -0.44483257360E+03  0.45397308944E+03  0.00000000000E+00 0. -1.
         -4    1    6    6    0  503  0.14107296809E+03 -0.15618655528E+01 -0.10688819511E+04  0.10781524230E+04  0.00000000000E+00 0.  1.
<mgrwt>
<rscale>  0 0.12222406E+04</rscale>
<asrwt>0</asrwt>
<pdfrwt beam="1">  1        2 0.40915698E+00 0.12222406E+04</pdfrwt>
<pdfrwt beam="2">  1       -2 0.21604129E-01 0.12222406E+04</pdfrwt>
<totfact> 0.51995901E+01</totfact>
</mgrwt>
</event>
<event>
12    3  0.4192740E-008  0.1929604E+04  0.7818608E-02  0.8640259E-01
          1   -1    0    0  501    0  0.00000000000E+00  0.00000000000E+00  0.73875218634E+03  0.73875218634E+03  0.00000000000E+00 0. -1.
         -1   -1    0    0    0  501 -0.00000000000E+00 -0.00000000000E+00 -0.12600209711E+04  0.12600209711E+04  0.00000000000E+00 0.  1.
         23    2    1    2    0    0 -0.73806608574E+03 -0.93501152627E+02 -0.93291183228E+02  0.75583745288E+03  0.95409631807E+02 0.  0.
        254    2    1    2    0    0  0.73806608574E+03  0.93501152627E+02 -0.42797760150E+03  0.12429357045E+04  0.89902187167E+03 0.  0.
         23    2    4    4    0    0  0.87579463183E+03 -0.91675710512E+02 -0.20305789629E+03  0.90827334225E+03  0.91144291959E+02 0.  0.
         23    2    4    4    0    0 -0.13772854609E+03  0.18517686314E+03 -0.22491970522E+03  0.33466236228E+03  0.90279565143E+02 0.  0.
          2    1    3    3  502    0 -0.60834020515E+03 -0.40514425299E+02 -0.68379066232E+02  0.61351032636E+03  0.00000000000E+00 0. -1.
         -2    1    3    3    0  502 -0.12972588060E+03 -0.52986727328E+02 -0.24912116996E+02  0.14232712652E+03  0.00000000000E+00 0.  1.
         13    1    5    5    0    0  0.83195194572E+03 -0.10075366816E+03 -0.20733210211E+03  0.86329713436E+03  0.00000000000E+00 0. -1.
        -13    1    5    5    0    0  0.43842686115E+02  0.90779576468E+01  0.42742058238E+01  0.44976207891E+02  0.00000000000E+00 0.  1.
          1    1    6    6  503    0 -0.11795006493E+03  0.17899853115E+03 -0.16279893449E+03  0.26917686573E+03  0.00000000000E+00 0. -1.
         -1    1    6    6    0  503 -0.19778481160E+02  0.61783319850E+01 -0.62120770725E+02  0.65485496551E+02  0.00000000000E+00 0.  1.
<mgrwt>
<rscale>  0 0.19296044E+04</rscale>
<asrwt>0</asrwt>
<pdfrwt beam="1">  1        1 0.11365418E+00 0.19296044E+04</pdfrwt>
<pdfrwt beam="2">  1       -1 0.19384938E+00 0.19296044E+04</pdfrwt>
<totfact> 0.38857876E+00</totfact>
</mgrwt>
</event>
<event>
12    3  0.4192740E-008  0.2067820E+04  0.7818608E-02  0.8575553E-01
          2   -1    0    0  501    0  0.00000000000E+00  0.00000000000E+00  0.47353202852E+04  0.47353202852E+04  0.00000000000E+00 0. -1.
         -2   -1    0    0    0  501 -0.00000000000E+00 -0.00000000000E+00 -0.22574402640E+03  0.22574402640E+03  0.00000000000E+00 0.  1.
         23    2    1    2    0    0  0.74252692405E+03  0.12930058809E+03  0.97631615019E+03  0.12364905919E+04  0.87469330205E+02 0.  0.
        254    2    1    2    0    0 -0.74252692405E+03 -0.12930058809E+03  0.35332601086E+04  0.37245737196E+04  0.90579110357E+03 0.  0.
         23    2    4    4    0    0 -0.24041129944E+03  0.67170517170E+02  0.16634368171E+03  0.31364483156E+03  0.91615438908E+02 0.  0.
         23    2    4    4    0    0 -0.50211562460E+03 -0.19647110526E+03  0.33669164269E+04  0.34109288881E+04  0.87112906389E+02 0.  0.
          4    1    3    3  502    0  0.63799298924E+03  0.10327173562E+03  0.78390933995E+03  0.10159793103E+04  0.00000000000E+00 0.  1.
         -4    1    3    3    0  502  0.10453393481E+03  0.26028852471E+02  0.19240681024E+03  0.22051128160E+03  0.00000000000E+00 0. -1.
         13    1    5    5    0    0 -0.67513659906E+02  0.62679154110E+02  0.69693410493E+02  0.11551598201E+03  0.00000000000E+00 0.  1.
        -13    1    5    5    0    0 -0.17289763954E+03  0.44913630607E+01  0.96650271215E+02  0.19812884955E+03  0.00000000000E+00 0. -1.
          4    1    6    6  503    0 -0.10751409879E+03 -0.16328482550E+02  0.84661911955E+03  0.85357473860E+03  0.00000000000E+00 0. -1.
         -4    1    6    6    0  503 -0.39460152581E+03 -0.18014262271E+03  0.25202973073E+04  0.25573541495E+04  0.00000000000E+00 0.  1.
<mgrwt>
<rscale>  0 0.20678204E+04</rscale>
<asrwt>0</asrwt>
<pdfrwt beam="1">  1        2 0.72851074E+00 0.20678204E+04</pdfrwt>
<pdfrwt beam="2">  1       -2 0.34729854E-01 0.20678204E+04</pdfrwt>
<totfact> 0.51400860E-01</totfact>
</mgrwt>
</event>
<event>
12    3  0.4192740E-008  0.2770163E+04  0.7818608E-02  0.8312592E-01
         -1   -1    0    0    0  501 -0.00000000000E+00  0.00000000000E+00  0.57591872533E+03  0.57591872533E+03  0.00000000000E+00 0.  1.
          1   -1    0    0  501    0  0.00000000000E+00 -0.00000000000E+00 -0.33311146763E+04  0.33311146763E+04  0.00000000000E+00 0. -1.
         23    2    1    2    0    0 -0.15041325895E+03 -0.76667429972E+03 -0.25808075308E+04  0.26979704888E+04  0.89797644569E+02 0.  0.
        254    2    1    2    0    0  0.15041325895E+03  0.76667429972E+03 -0.17438842018E+03  0.12090629129E+04  0.90609501480E+03 0.  0.
         23    2    4    4    0    0  0.38447956756E+03  0.21860539629E+03 -0.36072002089E+03  0.57804345678E+03  0.91664864068E+02 0.  0.
         23    2    4    4    0    0 -0.23406630861E+03  0.54806890343E+03  0.18633160071E+03  0.63101945607E+03  0.91101749641E+02 0.  0.
          4    1    3    3  502    0 -0.29307333516E+01 -0.10335238155E+03 -0.43608443483E+03  0.44817400445E+03  0.00000000000E+00 0.  1.
         -4    1    3    3    0  502 -0.14748252559E+03 -0.66332191817E+03 -0.21447230960E+04  0.22497964843E+04  0.00000000000E+00 0. -1.
         13    1    5    5    0    0  0.32353903746E+03  0.20182781688E+03 -0.34172549180E+03  0.51204324834E+03  0.00000000000E+00 0. -1.
        -13    1    5    5    0    0  0.60940530095E+02  0.16777579406E+02 -0.18994529096E+02  0.66000208444E+02  0.00000000000E+00 0.  1.
          1    1    6    6  503    0 -0.22489693900E+03  0.50832595575E+03  0.14840598894E+03  0.57532447194E+03  0.00000000000E+00 0. -1.
         -1    1    6    6    0  503 -0.91693696138E+01  0.39742947678E+02  0.37925611774E+02  0.55694984134E+02  0.00000000000E+00 0.  1.
<mgrwt>
<rscale>  0 0.27701634E+04</rscale>
<asrwt>0</asrwt>
<pdfrwt beam="1">  1        1 0.51247919E+00 0.27701634E+04</pdfrwt>
<pdfrwt beam="2">  1       -1 0.88602880E-01 0.27701634E+04</pdfrwt>
<totfact> 0.36676161E-01</totfact>
</mgrwt>
</event>
<event>
12    3  0.4192740E-008  0.1064835E+04  0.7818608E-02  0.9240161E-01
          2   -1    0    0  501    0  0.00000000000E+00  0.00000000000E+00  0.13175627819E+04  0.13175627819E+04  0.00000000000E+00 0. -1.
         -2   -1    0    0    0  501 -0.00000000000E+00 -0.00000000000E+00 -0.21514593394E+03  0.21514593394E+03  0.00000000000E+00 0.  1.
         23    2    1    2    0    0  0.12531455403E+02  0.95958119557E+02  0.74017352002E+02  0.16322745300E+03  0.10862612454E+03 0.  0.
        254    2    1    2    0    0 -0.12531455403E+02 -0.95958119557E+02  0.10283994960E+04  0.13694812628E+04  0.89917095587E+03 0.  0.
         23    2    4    4    0    0 -0.24104413013E+03  0.23057411559E+03  0.10780555046E+03  0.36218137116E+03  0.91030837921E+02 0.  0.
         23    2    4    4    0    0  0.22851267473E+03 -0.32653223515E+03  0.92059394550E+03  0.10072998917E+04  0.91205899884E+02 0.  0.
          4    1    3    3  502    0  0.66466301065E+01 -0.14450217810E+02  0.46704800077E+02  0.49338877539E+02  0.00000000000E+00 0. -1.
         -4    1    3    3    0  502  0.58848252964E+01  0.11040833737E+03  0.27312551925E+02  0.11388857546E+03  0.00000000000E+00 0.  1.
         13    1    5    5    0    0 -0.17463459213E+03  0.21530098703E+03  0.79522331215E+02  0.28840172840E+03  0.00000000000E+00 0. -1.
        -13    1    5    5    0    0 -0.66409538007E+02  0.15273128557E+02  0.28283219244E+02  0.73779642755E+02  0.00000000000E+00 0.  1.
          2    1    6    6  503    0  0.30194688028E+02 -0.70614976481E+02  0.26829830828E+03  0.27907378292E+03  0.00000000000E+00 0. -1.
         -2    1    6    6    0  503  0.19831798670E+03 -0.25591725866E+03  0.65229563723E+03  0.72822610876E+03  0.00000000000E+00 0.  1.
<mgrwt>
<rscale>  0 0.10648348E+04</rscale>
<asrwt>0</asrwt>
<pdfrwt beam="1">  1        2 0.20270196E+00 0.10648348E+04</pdfrwt>
<pdfrwt beam="2">  1       -2 0.33099375E-01 0.10648348E+04</pdfrwt>
<totfact> 0.13673434E+02</totfact>
</mgrwt>
</event>
<event>
12    3  0.4192740E-008  0.1610437E+04  0.7818608E-02  0.8814162E-01
          2   -1    0    0  501    0  0.00000000000E+00  0.00000000000E+00  0.13160039296E+04  0.13160039296E+04  0.00000000000E+00 0. -1.
         -2   -1    0    0    0  501 -0.00000000000E+00 -0.00000000000E+00 -0.49268596527E+03  0.49268596527E+03  0.00000000000E+00 0.  1.
         23    2    1    2    0    0 -0.50878847896E+03 -0.11268374853E+03  0.96450090031E+02  0.53847627649E+03  0.95345356304E+02 0.  0.
        254    2    1    2    0    0  0.50878847896E+03  0.11268374853E+03  0.72686787429E+03  0.12702136184E+04  0.90196584532E+03 0.  0.
         23    2    4    4    0    0  0.55557004368E+03 -0.28256899156E+03  0.41390749643E+03  0.75383316347E+03  0.91878802371E+02 0.  0.
         23    2    4    4    0    0 -0.46781564720E+02  0.39525274009E+03  0.31296037786E+03  0.51638045490E+03  0.10144620614E+03 0.  0.
          4    1    3    3  502    0 -0.96173512034E+02 -0.35433618495E+02 -0.16378282369E+02  0.10379370824E+03  0.00000000000E+00 0. -1.
         -4    1    3    3    0  502 -0.41261496693E+03 -0.77250130036E+02  0.11282837240E+03  0.43468256825E+03  0.00000000000E+00 0.  1.
         13    1    5    5    0    0  0.16188924421E+03 -0.50163008270E+02  0.78222280383E+02  0.18666327957E+03  0.00000000000E+00 0.  1.
        -13    1    5    5    0    0  0.39368079947E+03 -0.23240598329E+03  0.33568521604E+03  0.56716988391E+03  0.00000000000E+00 0. -1.
          3    1    6    6  503    0 -0.41682697476E+02  0.21957915696E+03  0.11393667451E+03  0.25086653671E+03  0.00000000000E+00 0. -1.
         -3    1    6    6    0  503 -0.50988672436E+01  0.17567358313E+03  0.19902370335E+03  0.26551391819E+03  0.00000000000E+00 0.  1.
<mgrwt>
<rscale>  0 0.16104368E+04</rscale>
<asrwt>0</asrwt>
<pdfrwt beam="1">  1        2 0.20246214E+00 0.16104368E+04</pdfrwt>
<pdfrwt beam="2">  1       -2 0.75797841E-01 0.16104368E+04</pdfrwt>
<totfact> 0.24181568E+01</totfact>
</mgrwt>
</event>
<event>
12    3  0.4192740E-008  0.1407431E+04  0.7818608E-02  0.8948457E-01
          2   -1    0    0  501    0  0.00000000000E+00  0.00000000000E+00  0.23274504343E+04  0.23274504343E+04  0.00000000000E+00 0.  1.
         -2   -1    0    0    0  501 -0.00000000000E+00 -0.00000000000E+00 -0.21277166293E+03  0.21277166293E+03  0.00000000000E+00 0. -1.
         23    2    1    2    0    0 -0.14242688371E+03 -0.37752533198E+03  0.74988988339E+03  0.85643488505E+03  0.91296668204E+02 0.  0.
        254    2    1    2    0    0  0.14242688371E+03  0.37752533198E+03  0.13647888880E+04  0.16837872122E+04  0.89982213445E+03 0.  0.
         23    2    4    4    0    0  0.49777496183E+03  0.11079895956E+03  0.86915561592E+03  0.10118966546E+04  0.91907740845E+02 0.  0.
         23    2    4    4    0    0 -0.35534807812E+03  0.26672637242E+03  0.49563327205E+03  0.67189055758E+03  0.91484242555E+02 0.  0.
          1    1    3    3  502    0 -0.75884588823E+02 -0.30827672334E+03  0.58625138271E+03  0.66669610221E+03  0.00000000000E+00 0. -1.
         -1    1    3    3    0  502 -0.66542294888E+02 -0.69248608643E+02  0.16363850068E+03  0.18973878284E+03  0.00000000000E+00 0.  1.
         13    1    5    5    0    0  0.43213844719E+03  0.97587325799E+02  0.68330751709E+03  0.81435624060E+03  0.00000000000E+00 0. -1.
        -13    1    5    5    0    0  0.65636514637E+02  0.13211633762E+02  0.18584809883E+03  0.19754041399E+03  0.00000000000E+00 0.  1.
          2    1    6    6  503    0 -0.53206285918E+02  0.48916373849E+02  0.13666924645E+03  0.15460337453E+03  0.00000000000E+00 0. -1.
         -2    1    6    6    0  503 -0.30214179220E+03  0.21780999857E+03  0.35896402561E+03  0.51728718305E+03  0.00000000000E+00 0.  1.
<mgrwt>
<rscale>  0 0.14074310E+04</rscale>
<asrwt>0</asrwt>
<pdfrwt beam="1">  1        2 0.35806928E+00 0.14074310E+04</pdfrwt>
<pdfrwt beam="2">  1       -2 0.32734104E-01 0.14074310E+04</pdfrwt>
<totfact> 0.37110967E+01</totfact>
</mgrwt>
</event>
<event>
12    3  0.4192740E-008  0.1985136E+04  0.7818608E-02  0.8613602E-01
          1   -1    0    0  501    0  0.00000000000E+00  0.00000000000E+00  0.25842951238E+04  0.25842951238E+04  0.00000000000E+00 0. -1.
         -1   -1    0    0    0  501 -0.00000000000E+00 -0.00000000000E+00 -0.38122234885E+03  0.38122234885E+03  0.00000000000E+00 0.  1.
         23    2    1    2    0    0 -0.33446136301E+03  0.47775400974E+03  0.98138248840E+02  0.59832952276E+03  0.90850452697E+02 0.  0.
        254    2    1    2    0    0  0.33446136301E+03 -0.47775400974E+03  0.21049345261E+04  0.23671879499E+04  0.91253281241E+03 0.  0.
         23    2    4    4    0    0 -0.34706629720E+02  0.12679926631E+03  0.12197705721E+04  0.12301894258E+04  0.90791909065E+02 0.  0.
         23    2    4    4    0    0  0.36916799273E+03 -0.60455327605E+03  0.88516395400E+03  0.11369985241E+04  0.86491316443E+02 0.  0.
          4    1    3    3  502    0 -0.32959535117E+03  0.47269760471E+03  0.83741158981E+02  0.58231323420E+03  0.00000000000E+00 0.  1.
         -4    1    3    3    0  502 -0.48660118415E+01  0.50564050278E+01  0.14397089859E+02  0.16016288567E+02  0.00000000000E+00 0. -1.
         13    1    5    5    0    0  0.48013555432E+01  0.24697698296E+02  0.57368854353E+02  0.62643553267E+02  0.00000000000E+00 0. -1.
        -13    1    5    5    0    0 -0.39507985263E+02  0.10210156801E+03  0.11624017177E+04  0.11675458726E+04  0.00000000000E+00 0.  1.
          2    1    6    6  503    0  0.29499026058E+02 -0.60210965190E+02  0.49085810842E+02  0.83096147284E+02  0.00000000000E+00 0. -1.
         -2    1    6    6    0  503  0.33966896667E+03 -0.54434231086E+03  0.83607814316E+03  0.10539023768E+04  0.00000000000E+00 0.  1.
<mgrwt>
<rscale>  0 0.19851358E+04</rscale>
<asrwt>0</asrwt>
<pdfrwt beam="1">  1        1 0.39758385E+00 0.19851358E+04</pdfrwt>
<pdfrwt beam="2">  1       -1 0.58649594E-01 0.19851358E+04</pdfrwt>
<totfact> 0.32407070E+00</totfact>
</mgrwt>
</event>
<event>
12    3  0.4192740E-008  0.1888019E+04  0.7818608E-02  0.8660843E-01
          1   -1    0    0  501    0  0.00000000000E+00  0.00000000000E+00  0.78867349141E+03  0.78867349141E+03  0.00000000000E+00 0. -1.
         -1   -1    0    0    0  501 -0.00000000000E+00 -0.00000000000E+00 -0.11299408596E+04  0.11299408596E+04  0.00000000000E+00 0.  1.
         23    2    1    2    0    0  0.19147853092E+03 -0.45748156901E+03  0.43351819211E+03  0.66503677592E+03  0.91555866286E+02 0.  0.
        254    2    1    2    0    0 -0.19147853092E+03  0.45748156901E+03 -0.77478556028E+03  0.12535775751E+04  0.85159301224E+03 0.  0.
         23    2    4    4    0    0 -0.15402035476E+03  0.68383623594E+03 -0.43032203810E+03  0.82846436214E+03  0.99105376234E+02 0.  0.
         23    2    4    4    0    0 -0.37458176160E+02 -0.22635466693E+03 -0.34446352218E+03  0.42511321293E+03  0.97090553031E+02 0.  0.
          1    1    3    3  502    0  0.20052729483E+03 -0.44963221916E+03  0.42237363311E+03  0.64867543073E+03  0.00000000000E+00 0. -1.
         -1    1    3    3    0  502 -0.90487639083E+01 -0.78493498405E+01  0.11144559000E+02  0.16361345192E+02  0.00000000000E+00 0.  1.
         13    1    5    5    0    0 -0.12276810034E+03  0.56096606170E+03 -0.30507998724E+03  0.65025281810E+03  0.00000000000E+00 0. -1.
        -13    1    5    5    0    0 -0.31252254415E+02  0.12287017424E+03 -0.12524205086E+03  0.17821154403E+03  0.00000000000E+00 0.  1.
          1    1    6    6  503    0 -0.66790048836E+02 -0.19512918228E+03 -0.28209351732E+03  0.34944679268E+03  0.00000000000E+00 0. -1.
         -1    1    6    6    0  503  0.29331872675E+02 -0.31225484650E+02 -0.62370004861E+02  0.75666420245E+02  0.00000000000E+00 0.  1.
<mgrwt>
<rscale>  0 0.18880195E+04</rscale>
<asrwt>0</asrwt>
<pdfrwt beam="1">  1        1 0.12133438E+00 0.18880195E+04</pdfrwt>
<pdfrwt beam="2">  1       -1 0.17383706E+00 0.18880195E+04</pdfrwt>
<totfact> 0.48863283E+00</totfact>
</mgrwt>
</event>
<event>
12    3  0.4192740E-008  0.2051483E+04  0.7818608E-02  0.8582922E-01
          2   -1    0    0  501    0  0.00000000000E+00  0.00000000000E+00  0.17308829926E+04  0.17308829926E+04  0.00000000000E+00 0. -1.
         -2   -1    0    0    0  501 -0.00000000000E+00 -0.00000000000E+00 -0.60786651637E+03  0.60786651637E+03  0.00000000000E+00 0.  1.
         23    2    1    2    0    0  0.58638199181E+03 -0.38578489803E+03  0.95488416097E+03  0.11902262503E+04  0.11027664330E+03 0.  0.
        254    2    1    2    0    0 -0.58638199181E+03  0.38578489803E+03  0.16813231527E+03  0.11485232587E+04  0.89339989508E+03 0.  0.
         23    2    4    4    0    0 -0.43039831564E+03  0.66328316644E+03  0.17891034722E+03  0.81583592609E+03  0.91608280018E+02 0.  0.
         23    2    4    4    0    0 -0.15598367617E+03 -0.27749826841E+03 -0.10778031944E+02  0.33268733264E+03  0.96065077546E+02 0.  0.
          4    1    3    3  502    0  0.34894615500E+03 -0.24100075077E+03  0.66335398258E+03  0.78732667119E+03  0.00000000000E+00 0. -1.
         -4    1    3    3    0  502  0.23743583680E+03 -0.14478414726E+03  0.29153017839E+03  0.40289957906E+03  0.00000000000E+00 0.  1.
         13    1    5    5    0    0 -0.43262991890E+03  0.66202563169E+03  0.17322592464E+03  0.80960101575E+03  0.00000000000E+00 0. -1.
        -13    1    5    5    0    0  0.22316032634E+01  0.12575347456E+01  0.56844225801E+01  0.62349103306E+01  0.00000000000E+00 0.  1.
          2    1    6    6  503    0 -0.86393490588E+02 -0.62792046251E+02 -0.45593892822E+01  0.10689931861E+03  0.00000000000E+00 0.  1.
         -2    1    6    6    0  503 -0.69590185579E+02 -0.21470622216E+03 -0.62186426619E+01  0.22578801403E+03  0.00000000000E+00 0. -1.
<mgrwt>
<rscale>  0 0.20514832E+04</rscale>
<asrwt>0</asrwt>
<pdfrwt beam="1">  1        2 0.26628969E+00 0.20514832E+04</pdfrwt>
<pdfrwt beam="2">  1       -2 0.93517926E-01 0.20514832E+04</pdfrwt>
<totfact> 0.84323042E+00</totfact>
</mgrwt>
</event>
<event>
12    3  0.4192740E-008  0.1598077E+04  0.7818608E-02  0.8821731E-01
          2   -1    0    0  501    0  0.00000000000E+00  0.00000000000E+00  0.12354626114E+04  0.12354626114E+04  0.00000000000E+00 0. -1.
         -2   -1    0    0    0  501 -0.00000000000E+00 -0.00000000000E+00 -0.51677982535E+03  0.51677982535E+03  0.00000000000E+00 0.  1.
         23    2    1    2    0    0  0.79741506291E+02 -0.22656422042E+03  0.79674223043E+03  0.83702930655E+03  0.90165539300E+02 0.  0.
        254    2    1    2    0    0 -0.79741506291E+02  0.22656422042E+03 -0.78059444432E+02  0.91521313016E+03  0.87967706742E+03 0.  0.
         23    2    4    4    0    0 -0.39770032315E+03 -0.24570381548E+02  0.15738206812E+03  0.43804667776E+03  0.91359322726E+02 0.  0.
         23    2    4    4    0    0  0.31795881686E+03  0.25113460197E+03 -0.23544151255E+03  0.47716645239E+03  0.89937311114E+02 0.  0.
          1    1    3    3  502    0  0.93268494227E+02 -0.19164691689E+03  0.73024460989E+03  0.76071331199E+03  0.00000000000E+00 0. -1.
         -1    1    3    3    0  502 -0.13526987936E+02 -0.34917303525E+02  0.66497620543E+02  0.76315994562E+02  0.00000000000E+00 0.  1.
         13    1    5    5    0    0 -0.57412577071E+02 -0.57307549481E+01  0.60794428711E+02  0.83815321514E+02  0.00000000000E+00 0. -1.
        -13    1    5    5    0    0 -0.34028774608E+03 -0.18839626600E+02  0.96587639407E+02  0.35423135625E+03  0.00000000000E+00 0.  1.
          4    1    6    6  503    0  0.33632256697E+02  0.70385259366E+02 -0.39949323986E+02  0.87642238182E+02  0.00000000000E+00 0. -1.
         -4    1    6    6    0  503  0.28432656017E+03  0.18074934260E+03 -0.19549218856E+03  0.38952421421E+03  0.00000000000E+00 0.  1.
<mgrwt>
<rscale>  0 0.15980765E+04</rscale>
<asrwt>0</asrwt>
<pdfrwt beam="1">  1        2 0.19007117E+00 0.15980765E+04</pdfrwt>
<pdfrwt beam="2">  1       -2 0.79504589E-01 0.15980765E+04</pdfrwt>
<totfact> 0.24257419E+01</totfact>
</mgrwt>
</event>
<event>
12    3  0.4192740E-008  0.2005354E+04  0.7818608E-02  0.8604122E-01
          2   -1    0    0  501    0  0.00000000000E+00  0.00000000000E+00  0.15904422083E+04  0.15904422083E+04  0.00000000000E+00 0. -1.
         -2   -1    0    0    0  501 -0.00000000000E+00 -0.00000000000E+00 -0.63212654272E+03  0.63212654272E+03  0.00000000000E+00 0.  1.
         23    2    1    2    0    0 -0.55656758966E+03  0.49260026093E+03  0.70291391313E+03  0.10262498926E+04  0.81721318886E+02 0.  0.
        254    2    1    2    0    0  0.55656758966E+03 -0.49260026093E+03  0.25540175250E+03  0.11963188584E+04  0.90195690411E+03 0.  0.
         23    2    4    4    0    0  0.60362382214E+03 -0.49468519625E+03  0.49982525293E+03  0.93112523825E+03  0.89965347705E+02 0.  0.
         23    2    4    4    0    0 -0.47056232475E+02  0.20849353205E+01 -0.24442350043E+03  0.26519362016E+03  0.91466784361E+02 0.  0.
          3    1    3    3  502    0 -0.12989577657E+03  0.12061344917E+03  0.21733545829E+03  0.28045537671E+03  0.00000000000E+00 0. -1.
         -3    1    3    3    0  502 -0.42667181309E+03  0.37198681175E+03  0.48557845483E+03  0.74579451594E+03  0.00000000000E+00 0.  1.
         13    1    5    5    0    0  0.53816841901E+03 -0.40114144841E+03  0.41951552547E+03  0.79153836607E+03  0.00000000000E+00 0. -1.
        -13    1    5    5    0    0  0.65455403131E+02 -0.93543747838E+02  0.80309727463E+02  0.13958687218E+03  0.00000000000E+00 0.  1.
          3    1    6    6  503    0 -0.46161415093E+02  0.22200176832E+02 -0.23887903704E+03  0.24430906335E+03  0.00000000000E+00 0. -1.
         -3    1    6    6    0  503 -0.89481738226E+00 -0.20115241512E+02 -0.55444633931E+01  0.20884556819E+02  0.00000000000E+00 0.  1.
<mgrwt>
<rscale>  0 0.20053536E+04</rscale>
<asrwt>0</asrwt>
<pdfrwt beam="1">  1        2 0.24468342E+00 0.20053536E+04</pdfrwt>
<pdfrwt beam="2">  1       -2 0.97250238E-01 0.20053536E+04</pdfrwt>
<totfact> 0.92503621E+00</totfact>
</mgrwt>
</event>
<event>
12    3  0.4192740E-008  0.1796286E+04  0.7818608E-02  0.8708277E-01
          2   -1    0    0  501    0  0.00000000000E+00  0.00000000000E+00  0.15856338945E+04  0.15856338945E+04  0.00000000000E+00 0. -1.
         -2   -1    0    0    0  501 -0.00000000000E+00 -0.00000000000E+00 -0.50873109747E+03  0.50873109747E+03  0.00000000000E+00 0.  1.
         23    2    1    2    0    0 -0.47562042208E+03 -0.36683774257E+03  0.14533489814E+03  0.62469821826E+03  0.91328615489E+02 0.  0.
        254    2    1    2    0    0  0.47562042208E+03  0.36683774257E+03  0.93156789885E+03  0.14696667737E+04  0.96504764659E+03 0.  0.
         23    2    4    4    0    0  0.33967418339E+03  0.36278392620E+03  0.11138269453E+04  0.12235584745E+04  0.97437920619E+02 0.  0.
         23    2    4    4    0    0  0.13594623869E+03  0.40538163738E+01 -0.18225904645E+03  0.24610829921E+03  0.94091028729E+02 0.  0.
          4    1    3    3  502    0 -0.17436855078E+03 -0.11876965089E+03  0.94443557829E+02  0.23114975036E+03  0.00000000000E+00 0.  1.
         -4    1    3    3    0  502 -0.30125187130E+03 -0.24806809169E+03  0.50891340307E+02  0.39354846791E+03  0.00000000000E+00 0. -1.
         13    1    5    5    0    0  0.84349795460E+02  0.15768464451E+03  0.40596138344E+03  0.44360340390E+03  0.00000000000E+00 0. -1.
        -13    1    5    5    0    0  0.25532438793E+03  0.20509928169E+03  0.70786556186E+03  0.77995507056E+03  0.00000000000E+00 0.  1.
          3    1    6    6  503    0  0.17326704730E+02  0.39570891418E+01  0.98565337401E+01  0.20323004420E+02  0.00000000000E+00 0. -1.
         -3    1    6    6    0  503  0.11861953396E+03  0.96727232005E-01 -0.19211558019E+03  0.22578529479E+03  0.00000000000E+00 0.  1.
<mgrwt>
<rscale>  0 0.17962865E+04</rscale>
<asrwt>0</asrwt>
<pdfrwt beam="1">  1        2 0.24394367E+00 0.17962865E+04</pdfrwt>
<pdfrwt beam="2">  1       -2 0.78266323E-01 0.17962865E+04</pdfrwt>
<totfact> 0.15576808E+01</totfact>
</mgrwt>
</event>
<event>
12    3  0.4192740E-008  0.1397529E+04  0.7818608E-02  0.8955609E-01
         -1   -1    0    0    0  501 -0.00000000000E+00  0.00000000000E+00  0.11009624509E+04  0.11009624509E+04  0.00000000000E+00 0.  1.
          1   -1    0    0  501    0  0.00000000000E+00 -0.00000000000E+00 -0.44349537894E+03  0.44349537894E+03  0.00000000000E+00 0. -1.
         23    2    1    2    0    0  0.24934442787E+02  0.23407822868E+03  0.54926965851E+03  0.60450310056E+03  0.91172897546E+02 0.  0.
        254    2    1    2    0    0 -0.24934442787E+02 -0.23407822868E+03  0.10819741350E+03  0.93995472932E+03  0.90354516727E+03 0.  0.
         23    2    4    4    0    0 -0.17118463497E+03  0.29125144777E+03 -0.73928263370E+02  0.35755310531E+03  0.90814370657E+02 0.  0.
         23    2    4    4    0    0  0.14625019218E+03 -0.52532967645E+03  0.18212567687E+03  0.58240162401E+03  0.93067189700E+02 0.  0.
          3    1    3    3  502    0 -0.28236778996E+02  0.57809706575E+02  0.99264912119E+02  0.11829116890E+03  0.00000000000E+00 0. -1.
         -3    1    3    3    0  502  0.53171221783E+02  0.17626852211E+03  0.45000474639E+03  0.48621193165E+03  0.00000000000E+00 0.  1.
         13    1    5    5    0    0 -0.13220994814E+03  0.25328601878E+03 -0.29359656801E+02  0.28721989336E+03  0.00000000000E+00 0.  1.
        -13    1    5    5    0    0 -0.38974686833E+02  0.37965428991E+02 -0.44568606569E+02  0.70333211954E+02  0.00000000000E+00 0. -1.
          2    1    6    6  503    0  0.10436743600E+03 -0.32488152750E+03  0.15855829711E+03  0.37627290920E+03  0.00000000000E+00 0. -1.
         -2    1    6    6    0  503  0.41882756184E+02 -0.20044814894E+03  0.23567379752E+02  0.20612871481E+03  0.00000000000E+00 0.  1.
<mgrwt>
<rscale>  0 0.13975289E+04</rscale>
<asrwt>0</asrwt>
<pdfrwt beam="1">  1        1 0.68230059E-01 0.13975289E+04</pdfrwt>
<pdfrwt beam="2">  1       -1 0.16937884E+00 0.13975289E+04</pdfrwt>
<totfact> 0.12664195E+01</totfact>
</mgrwt>
</event>
<event>
12    3  0.4192740E-008  0.1996562E+04  0.7818608E-02  0.8608230E-01
          1   -1    0    0  501    0  0.00000000000E+00  0.00000000000E+00  0.94798356199E+03  0.94798356199E+03  0.00000000000E+00 0. -1.
         -1   -1    0    0    0  501 -0.00000000000E+00 -0.00000000000E+00 -0.10512472069E+04  0.10512472069E+04  0.00000000000E+00 0.  1.
         23    2    1    2    0    0 -0.70779979241E+02 -0.74689497336E+03 -0.28691390413E+03  0.80819398727E+03  0.89420500946E+02 0.  0.
        254    2    1    2    0    0  0.70779979241E+02  0.74689497336E+03  0.18365025917E+03  0.11910367817E+04  0.90663073568E+03 0.  0.
         23    2    4    4    0    0 -0.90650050564E+02 -0.11155252680E+03  0.25912233750E+03  0.30922204606E+03  0.88388291509E+02 0.  0.
         23    2    4    4    0    0  0.16143002981E+03  0.85844750016E+03 -0.75472078324E+02  0.88181473560E+03  0.94389767786E+02 0.  0.
          1    1    3    3  502    0 -0.48890995837E+02 -0.37974938136E+03 -0.19210174495E+03  0.42837250441E+03  0.00000000000E+00 0. -1.
         -1    1    3    3    0  502 -0.21888983404E+02 -0.36714559200E+03 -0.94812159177E+02  0.37982148286E+03  0.00000000000E+00 0.  1.
         13    1    5    5    0    0 -0.95627427744E+02 -0.94501678874E+02  0.16215137449E+03  0.21063769961E+03  0.00000000000E+00 0. -1.
        -13    1    5    5    0    0  0.49773771803E+01 -0.17050847925E+02  0.96970963007E+02  0.98584346450E+02  0.00000000000E+00 0.  1.
          1    1    6    6  503    0  0.79934551348E+02  0.62421940907E+03 -0.32809300675E+02  0.63017128891E+03  0.00000000000E+00 0. -1.
         -1    1    6    6    0  503  0.81495478457E+02  0.23422809109E+03 -0.42662777650E+02  0.25164344669E+03  0.00000000000E+00 0.  1.
<mgrwt>
<rscale>  0 0.19965621E+04</rscale>
<asrwt>0</asrwt>
<pdfrwt beam="1">  1        1 0.14584362E+00 0.19965621E+04</pdfrwt>
<pdfrwt beam="2">  1       -1 0.16173034E+00 0.19965621E+04</pdfrwt>
<totfact> 0.43776905E+00</totfact>
</mgrwt>
</event>
<event>
12    3  0.4192740E-008  0.1219277E+04  0.7818608E-02  0.9096149E-01
         -1   -1    0    0    0  501 -0.00000000000E+00  0.00000000000E+00  0.17384158178E+04  0.17384158178E+04  0.00000000000E+00 0.  1.
          1   -1    0    0  501    0  0.00000000000E+00 -0.00000000000E+00 -0.21379170273E+03  0.21379170273E+03  0.00000000000E+00 0. -1.
         23    2    1    2    0    0  0.26030337497E+03  0.58728046262E+02  0.36379580858E+03  0.46047163207E+03  0.92086389661E+02 0.  0.
        254    2    1    2    0    0 -0.26030337497E+03 -0.58728046262E+02  0.11608283064E+04  0.14917358884E+04  0.89807949166E+03 0.  0.
         23    2    4    4    0    0 -0.12479201556E+03  0.11386341703E+03 -0.92935603688E+02  0.21568783120E+03  0.96676208080E+02 0.  0.
         23    2    4    4    0    0 -0.13551135941E+03 -0.17259146329E+03  0.12537639101E+04  0.12760480572E+04  0.90683847949E+02 0.  0.
          3    1    3    3  502    0  0.26322801527E+03  0.60630517126E+02  0.32981981776E+03  0.42631697106E+03  0.00000000000E+00 0. -1.
         -3    1    3    3    0  502 -0.29246402966E+01 -0.19024708639E+01  0.33975990821E+02  0.34154661007E+02  0.00000000000E+00 0.  1.
         13    1    5    5    0    0 -0.32277943719E+02  0.94720446387E+02 -0.51183231313E+02  0.11239907376E+03  0.00000000000E+00 0. -1.
        -13    1    5    5    0    0 -0.92514071843E+02  0.19142970639E+02 -0.41752372375E+02  0.10328875744E+03  0.00000000000E+00 0.  1.
          2    1    6    6  503    0 -0.13290199151E+03 -0.17545923719E+03  0.10780403196E+04  0.11002816975E+04  0.00000000000E+00 0. -1.
         -2    1    6    6    0  503 -0.26093679011E+01  0.28677739048E+01  0.17572359053E+03  0.17576635968E+03  0.00000000000E+00 0.  1.
<mgrwt>
<rscale>  0 0.12192766E+04</rscale>
<asrwt>0</asrwt>
<pdfrwt beam="1">  1        1 0.32891032E-01 0.12192766E+04</pdfrwt>
<pdfrwt beam="2">  1       -1 0.26744858E+00 0.12192766E+04</pdfrwt>
<totfact> 0.72598364E+00</totfact>
</mgrwt>
</event>
<event>
12    3  0.4192740E-008  0.1470220E+04  0.7818608E-02  0.8904501E-01
          1   -1    0    0  501    0  0.00000000000E+00  0.00000000000E+00  0.58089790338E+03  0.58089790338E+03  0.00000000000E+00 0. -1.
         -1   -1    0    0    0  501 -0.00000000000E+00 -0.00000000000E+00 -0.93026159515E+03  0.93026159515E+03  0.00000000000E+00 0.  1.
         23    2    1    2    0    0 -0.33698790712E+03 -0.34007182455E+03 -0.22322103674E+03  0.53606582209E+03  0.91264664425E+02 0.  0.
        254    2    1    2    0    0  0.33698790712E+03  0.34007182455E+03 -0.12614265503E+03  0.97509367643E+03  0.84005119666E+03 0.  0.
         23    2    4    4    0    0  0.33456339731E+03 -0.10686868023E+03 -0.31563379221E+03  0.48172860129E+03  0.95310927409E+02 0.  0.
         23    2    4    4    0    0  0.24245098049E+01  0.44694050478E+03  0.18949113718E+03  0.49336507514E+03  0.87980186618E+02 0.  0.
          1    1    3    3  502    0 -0.53656882479E+02 -0.66815610367E+02 -0.46425205218E+01  0.85819227583E+02  0.00000000000E+00 0. -1.
         -1    1    3    3    0  502 -0.28333102464E+03 -0.27325621418E+03 -0.21857851622E+03  0.45024659451E+03  0.00000000000E+00 0.  1.
         13    1    5    5    0    0  0.16043232987E+03 -0.84669245129E+02 -0.11338359638E+03  0.21392347573E+03  0.00000000000E+00 0.  1.
        -13    1    5    5    0    0  0.17413106744E+03 -0.22199435104E+02 -0.20225019583E+03  0.26780512557E+03  0.00000000000E+00 0. -1.
          4    1    6    6  503    0 -0.38542571883E+02  0.14624855352E+03  0.77017263708E+02  0.16972279801E+03  0.00000000000E+00 0. -1.
         -4    1    6    6    0  503  0.40967081688E+02  0.30069195126E+03  0.11247387347E+03  0.32364227713E+03  0.00000000000E+00 0.  1.
<mgrwt>
<rscale>  0 0.14702204E+04</rscale>
<asrwt>0</asrwt>
<pdfrwt beam="1">  1        1 0.89368909E-01 0.14702204E+04</pdfrwt>
<pdfrwt beam="2">  1       -1 0.14311717E+00 0.14702204E+04</pdfrwt>
<totfact> 0.13765532E+01</totfact>
</mgrwt>
</event>
<event>
12    3  0.4192740E-008  0.2726574E+04  0.7818608E-02  0.8326434E-01
          1   -1    0    0  501    0  0.00000000000E+00  0.00000000000E+00  0.15317074139E+04  0.15317074139E+04  0.00000000000E+00 0. -1.
         -1   -1    0    0    0  501 -0.00000000000E+00 -0.00000000000E+00 -0.12133857621E+04  0.12133857621E+04  0.00000000000E+00 0.  1.
         23    2    1    2    0    0  0.94072517123E+03 -0.78679902057E+03  0.20069724514E+03  0.12457464555E+04  0.87110853040E+02 0.  0.
        254    2    1    2    0    0 -0.94072517123E+03  0.78679902057E+03  0.11762440671E+03  0.14993467204E+04  0.85451070237E+03 0.  0.
         23    2    4    4    0    0 -0.38471502598E+03  0.57249317013E+03 -0.30870999451E+03  0.76106029401E+03  0.90315166704E+02 0.  0.
         23    2    4    4    0    0 -0.55601014525E+03  0.21430585043E+03  0.42633440122E+03  0.73828642642E+03  0.90727871273E+02 0.  0.
          1    1    3    3  502    0  0.83159628254E+03 -0.69238292491E+03  0.14826656303E+03  0.10922131045E+04  0.00000000000E+00 0. -1.
         -1    1    3    3    0  502  0.10912888869E+03 -0.94416095660E+02  0.52430682103E+02  0.15353335107E+03  0.00000000000E+00 0.  1.
         13    1    5    5    0    0 -0.17718335395E+03  0.27366345509E+03 -0.97082372704E+02  0.34016262972E+03  0.00000000000E+00 0.  1.
        -13    1    5    5    0    0 -0.20753167203E+03  0.29882971504E+03 -0.21162762181E+03  0.42089766429E+03  0.00000000000E+00 0. -1.
          3    1    6    6  503    0 -0.51250338522E+03  0.17571374417E+03  0.40463536826E+03  0.67621359126E+03  0.00000000000E+00 0. -1.
         -3    1    6    6    0  503 -0.43506760027E+02  0.38592106267E+02  0.21699032962E+02  0.62072835167E+02  0.00000000000E+00 0.  1.
<mgrwt>
<rscale>  0 0.27265744E+04</rscale>
<asrwt>0</asrwt>
<pdfrwt beam="1">  1        1 0.23564730E+00 0.27265744E+04</pdfrwt>
<pdfrwt beam="2">  1       -1 0.18667473E+00 0.27265744E+04</pdfrwt>
<totfact> 0.10104950E+00</totfact>
</mgrwt>
</event>
<event>
12    3  0.4192740E-008  0.1968810E+04  0.7818608E-02  0.8621343E-01
          1   -1    0    0  501    0  0.00000000000E+00  0.00000000000E+00  0.77844219469E+03  0.77844219469E+03  0.00000000000E+00 0. -1.
         -1   -1    0    0    0  501 -0.00000000000E+00 -0.00000000000E+00 -0.12448626076E+04  0.12448626076E+04  0.00000000000E+00 0.  1.
         23    2    1    2    0    0 -0.18085472150E+03 -0.12194652785E+02  0.58780021277E+03  0.62007585817E+03  0.78280520594E+02 0.  0.
        254    2    1    2    0    0  0.18085472150E+03  0.12194652785E+02 -0.10542206257E+04  0.14032289441E+04  0.90819227159E+03 0.  0.
         23    2    4    4    0    0  0.27336256221E+03  0.34433917302E+03 -0.22853205544E+03  0.50374177894E+03  0.90732149710E+02 0.  0.
         23    2    4    4    0    0 -0.92507840707E+02 -0.33214452024E+03 -0.82568857024E+03  0.89948716519E+03  0.91857837970E+02 0.  0.
          3    1    3    3  502    0 -0.18008603886E+03 -0.18783830108E+02  0.58580464344E+03  0.61314834579E+03  0.00000000000E+00 0. -1.
         -3    1    3    3    0  502 -0.76868263974E+00  0.65891773236E+01  0.19955693273E+01  0.69275123777E+01  0.00000000000E+00 0.  1.
         13    1    5    5    0    0  0.27310125401E+03  0.30683130212E+03 -0.21662811165E+03  0.46438936428E+03  0.00000000000E+00 0. -1.
        -13    1    5    5    0    0  0.26130819704E+00  0.37507870899E+02 -0.11903943796E+02  0.39352414656E+02  0.00000000000E+00 0.  1.
          1    1    6    6  503    0 -0.76104199788E+02 -0.11536007930E+03 -0.35755169752E+03  0.38333146690E+03  0.00000000000E+00 0. -1.
         -1    1    6    6    0  503 -0.16403640919E+02 -0.21678444094E+03 -0.46813687273E+03  0.51615569829E+03  0.00000000000E+00 0.  1.
<mgrwt>
<rscale>  0 0.19688104E+04</rscale>
<asrwt>0</asrwt>
<pdfrwt beam="1">  1        1 0.11976034E+00 0.19688104E+04</pdfrwt>
<pdfrwt beam="2">  1       -1 0.19151732E+00 0.19688104E+04</pdfrwt>
<totfact> 0.37037766E+00</totfact>
</mgrwt>
</event>
<event>
12    3  0.4192740E-008  0.1526336E+04  0.7818608E-02  0.8867126E-01
          2   -1    0    0  501    0  0.00000000000E+00  0.00000000000E+00  0.10916239828E+04  0.10916239828E+04  0.00000000000E+00 0. -1.
         -2   -1    0    0    0  501 -0.00000000000E+00 -0.00000000000E+00 -0.53354035512E+03  0.53354035512E+03  0.00000000000E+00 0.  1.
         23    2    1    2    0    0 -0.35836635438E+03  0.10741854546E+02  0.52856062366E+03  0.64537572448E+03  0.92691215713E+02 0.  0.
        254    2    1    2    0    0  0.35836635438E+03 -0.10741854546E+02  0.29523004046E+02  0.97978861347E+03  0.91135738760E+03 0.  0.
         23    2    4    4    0    0  0.22163611670E+03 -0.54358219776E+02 -0.42663069789E+03  0.49217901229E+03  0.90272052571E+02 0.  0.
         23    2    4    4    0    0  0.13673023768E+03  0.43616365230E+02  0.45615370193E+03  0.48760960118E+03  0.95338230336E+02 0.  0.
          3    1    3    3  502    0 -0.21517164629E+03  0.84282777065E+01  0.39326465169E+03  0.44836030099E+03  0.00000000000E+00 0. -1.
         -3    1    3    3    0  502 -0.14319470808E+03  0.23135768392E+01  0.13529597197E+03  0.19701542349E+03  0.00000000000E+00 0.  1.
         13    1    5    5    0    0  0.16715886785E+03 -0.70286337737E+02 -0.26697905950E+03  0.32273839962E+03  0.00000000000E+00 0. -1.
        -13    1    5    5    0    0  0.54477248843E+02  0.15928117961E+02 -0.15965163838E+03  0.16944061267E+03  0.00000000000E+00 0.  1.
          2    1    6    6  503    0  0.57846882742E+02  0.60662748888E+02  0.30440581502E+03  0.31573585664E+03  0.00000000000E+00 0. -1.
         -2    1    6    6    0  503  0.78883354936E+02 -0.17046383657E+02  0.15174788691E+03  0.17187374454E+03  0.00000000000E+00 0.  1.
<mgrwt>
<rscale>  0 0.15263361E+04</rscale>
<asrwt>0</asrwt>
<pdfrwt beam="1">  1        2 0.16794215E+00 0.15263361E+04</pdfrwt>
<pdfrwt beam="2">  1       -2 0.82083132E-01 0.15263361E+04</pdfrwt>
<totfact> 0.27736725E+01</totfact>
</mgrwt>
</event>
<event>
12    3  0.4192740E-008  0.1929006E+04  0.7818608E-02  0.8640551E-01
          2   -1    0    0  501    0  0.00000000000E+00  0.00000000000E+00  0.12955887195E+04  0.12955887195E+04  0.00000000000E+00 0. -1.
         -2   -1    0    0    0  501 -0.00000000000E+00 -0.00000000000E+00 -0.71802576753E+03  0.71802576753E+03  0.00000000000E+00 0.  1.
         23    2    1    2    0    0 -0.43197731260E+03 -0.32776761167E+03 -0.31342847466E+03  0.63298847255E+03  0.91656924391E+02 0.  0.
        254    2    1    2    0    0  0.43197731260E+03  0.32776761167E+03  0.89099142664E+03  0.13806260145E+04  0.90455871211E+03 0.  0.
         23    2    4    4    0    0  0.39232991133E+03  0.84656558854E+02 -0.39738904362E+02  0.41352212763E+03  0.91279117196E+02 0.  0.
         23    2    4    4    0    0  0.39647401269E+02  0.24311105281E+03  0.93073033100E+03  0.96710388685E+03  0.91411588427E+02 0.  0.
          1    1    3    3  502    0 -0.38095293815E+03 -0.31892331837E+03 -0.29615343420E+03  0.57839785673E+03  0.00000000000E+00 0.  1.
         -1    1    3    3    0  502 -0.51024374449E+02 -0.88442932963E+01 -0.17275040463E+02  0.54590615812E+02  0.00000000000E+00 0. -1.
         13    1    5    5    0    0  0.17648944093E+03  0.47572852287E+02  0.26549626408E+02  0.18470674513E+03  0.00000000000E+00 0.  1.
        -13    1    5    5    0    0  0.21584047040E+03  0.37083706567E+02 -0.66288530769E+02  0.22881538250E+03  0.00000000000E+00 0. -1.
          2    1    6    6  503    0  0.66337011455E+02  0.20362995493E+03  0.72800336320E+03  0.75885087762E+03  0.00000000000E+00 0. -1.
         -2    1    6    6    0  503 -0.26689610186E+02  0.39481097880E+02  0.20272696780E+03  0.20825300923E+03  0.00000000000E+00 0.  1.
<mgrwt>
<rscale>  0 0.19290060E+04</rscale>
<asrwt>0</asrwt>
<pdfrwt beam="1">  1        2 0.19932134E+00 0.19290060E+04</pdfrwt>
<pdfrwt beam="2">  1       -2 0.11046550E+00 0.19290060E+04</pdfrwt>
<totfact> 0.10107009E+01</totfact>
</mgrwt>
</event>
<event>
12    3  0.4192740E-008  0.2651907E+04  0.7818608E-02  0.8350780E-01
         -1   -1    0    0    0  501 -0.00000000000E+00  0.00000000000E+00  0.12695316615E+04  0.12695316615E+04  0.00000000000E+00 0.  1.
          1   -1    0    0  501    0  0.00000000000E+00 -0.00000000000E+00 -0.13848829041E+04  0.13848829041E+04  0.00000000000E+00 0. -1.
         23    2    1    2    0    0 -0.78633455897E+02 -0.94374315804E+03 -0.74584425485E+03  0.12092628606E+04  0.95909565941E+02 0.  0.
        254    2    1    2    0    0  0.78633455897E+02  0.94374315804E+03  0.63049301217E+03  0.14451517050E+04  0.89112717572E+03 0.  0.
         23    2    4    4    0    0 -0.31485109277E+03  0.25248577723E+03 -0.18978502172E+02  0.41418101623E+03  0.91134254510E+02 0.  0.
         23    2    4    4    0    0  0.39348454866E+03  0.69125738081E+03  0.64947151435E+03  0.10309706888E+04  0.91763045734E+02 0.  0.
          3    1    3    3  502    0 -0.85186243337E+02 -0.62584131065E+03 -0.53496247895E+03  0.82771909248E+03  0.00000000000E+00 0. -1.
         -3    1    3    3    0  502  0.65527874396E+01 -0.31790184739E+03 -0.21088177590E+03  0.38154376814E+03  0.00000000000E+00 0.  1.
         13    1    5    5    0    0 -0.21444458721E+03  0.22235773710E+03 -0.13997612065E+02  0.30923353210E+03  0.00000000000E+00 0. -1.
        -13    1    5    5    0    0 -0.10040650556E+03  0.30128040133E+02 -0.49808901070E+01  0.10494748414E+03  0.00000000000E+00 0.  1.
          3    1    6    6  503    0  0.23837953707E+03  0.38210629623E+03  0.31316600347E+03  0.54854623419E+03  0.00000000000E+00 0. -1.
         -3    1    6    6    0  503  0.15510501160E+03  0.30915108458E+03  0.33630551088E+03  0.48242445457E+03  0.00000000000E+00 0.  1.
<mgrwt>
<rscale>  0 0.26519070E+04</rscale>
<asrwt>0</asrwt>
<pdfrwt beam="1">  1        1 0.21305891E+00 0.26519070E+04</pdfrwt>
<pdfrwt beam="2">  1       -1 0.19531256E+00 0.26519070E+04</pdfrwt>
<totfact> 0.11197932E+00</totfact>
</mgrwt>
</event>
<event>
12    3  0.4192740E-008  0.1441645E+04  0.7818608E-02  0.8924213E-01
          2   -1    0    0  501    0  0.00000000000E+00  0.00000000000E+00  0.13677464984E+04  0.13677464984E+04  0.00000000000E+00 0. -1.
         -2   -1    0    0    0  501 -0.00000000000E+00 -0.00000000000E+00 -0.37988427749E+03  0.37988427749E+03  0.00000000000E+00 0.  1.
         23    2    1    2    0    0  0.34045456490E+01  0.35758910996E+03  0.36242407575E+01  0.36668381695E+03  0.81008172457E+02 0.  0.
        254    2    1    2    0    0 -0.34045456490E+01 -0.35758910996E+03  0.98423798020E+03  0.13809469590E+04  0.90022693770E+03 0.  0.
         23    2    4    4    0    0  0.39541333528E+03 -0.10838638271E+03  0.72171125494E+03  0.83489735180E+03  0.89928520829E+02 0.  0.
         23    2    4    4    0    0 -0.39881788093E+03 -0.24920272725E+03  0.26252672526E+03  0.54604960718E+03  0.89956604025E+02 0.  0.
          1    1    3    3  502    0 -0.10003138650E+02  0.35541365463E+01 -0.61343042064E+01  0.12260683404E+02  0.00000000000E+00 0. -1.
         -1    1    3    3    0  502  0.13407684299E+02  0.35403497341E+03  0.97585449639E+01  0.35442313355E+03  0.00000000000E+00 0.  1.
         13    1    5    5    0    0  0.49852789656E+02 -0.72295952162E+01  0.41504424021E+02  0.65270091901E+02  0.00000000000E+00 0.  1.
        -13    1    5    5    0    0  0.34556054563E+03 -0.10115678749E+03  0.68020683092E+03  0.76962725990E+03  0.00000000000E+00 0. -1.
          2    1    6    6  503    0 -0.88950095133E+02 -0.37751980186E+02  0.93951464988E+02  0.13477466084E+03  0.00000000000E+00 0.  1.
         -2    1    6    6    0  503 -0.30986778580E+03 -0.21145074706E+03  0.16857526027E+03  0.41127494634E+03  0.00000000000E+00 0. -1.
<mgrwt>
<rscale>  0 0.14416454E+04</rscale>
<asrwt>0</asrwt>
<pdfrwt beam="1">  1        2 0.21042254E+00 0.14416454E+04</pdfrwt>
<pdfrwt beam="2">  1       -2 0.58443736E-01 0.14416454E+04</pdfrwt>
<totfact> 0.40114346E+01</totfact>
</mgrwt>
</event>
<event>
12    3  0.4192740E-008  0.2136408E+04  0.7818608E-02  0.8545373E-01
         -2   -1    0    0    0  501 -0.00000000000E+00  0.00000000000E+00  0.56064251230E+03  0.56064251230E+03  0.00000000000E+00 0.  1.
          2   -1    0    0  501    0  0.00000000000E+00 -0.00000000000E+00 -0.20352719774E+04  0.20352719774E+04  0.00000000000E+00 0. -1.
         23    2    1    2    0    0  0.29023496596E+03 -0.17785495157E+03 -0.15742793292E+04  0.16144756665E+04  0.11093940772E+03 0.  0.
        254    2    1    2    0    0 -0.29023496596E+03  0.17785495157E+03  0.99649864071E+02  0.98143882320E+03  0.91510838102E+03 0.  0.
         23    2    4    4    0    0 -0.16527884410E+03  0.19774357286E+02  0.49386390242E+03  0.52951004864E+03  0.93654770212E+02 0.  0.
         23    2    4    4    0    0 -0.12495612186E+03  0.15808059428E+03 -0.39421403835E+03  0.45192877456E+03  0.90727077325E+02 0.  0.
          3    1    3    3  502    0  0.26178865656E+03 -0.19332969410E+03 -0.14157391195E+04  0.14526620136E+04  0.00000000000E+00 0. -1.
         -3    1    3    3    0  502  0.28446309395E+02  0.15474742533E+02 -0.15854020968E+03  0.16181365289E+03  0.00000000000E+00 0.  1.
         13    1    5    5    0    0 -0.78559864385E+02 -0.73877985434E+01  0.11214281090E+03  0.13712126712E+03  0.00000000000E+00 0. -1.
        -13    1    5    5    0    0 -0.86718979715E+02  0.27162155829E+02  0.38172109153E+03  0.39238878153E+03  0.00000000000E+00 0.  1.
          1    1    6    6  503    0 -0.42072593310E+02  0.52417360144E+01 -0.11969808981E+03  0.12698508419E+03  0.00000000000E+00 0. -1.
         -1    1    6    6    0  503 -0.82883528549E+02  0.15283885827E+03 -0.27451594855E+03  0.32494369037E+03  0.00000000000E+00 0.  1.
<mgrwt>
<rscale>  0 0.21364082E+04</rscale>
<asrwt>0</asrwt>
<pdfrwt beam="1">  1        2 0.31311877E+00 0.21364082E+04</pdfrwt>
<pdfrwt beam="2">  1       -2 0.86252694E-01 0.21364082E+04</pdfrwt>
<totfact> 0.68366141E+00</totfact>
</mgrwt>
</event>
<event>
12    3  0.4192740E-008  0.1532864E+04  0.7818608E-02  0.8862888E-01
          1   -1    0    0  501    0  0.00000000000E+00  0.00000000000E+00  0.60351988900E+03  0.60351988900E+03  0.00000000000E+00 0. -1.
         -1   -1    0    0    0  501 -0.00000000000E+00 -0.00000000000E+00 -0.97332031414E+03  0.97332031414E+03  0.00000000000E+00 0.  1.
         23    2    1    2    0    0  0.77701013205E+02  0.21600419843E+03  0.33679249340E+03  0.41757615128E+03  0.90804170157E+02 0.  0.
        254    2    1    2    0    0 -0.77701013205E+02 -0.21600419843E+03 -0.70659291854E+03  0.11592640519E+04  0.88990130251E+03 0.  0.
         23    2    4    4    0    0  0.23889329790E+03  0.15515067091E+03 -0.56995778765E+03  0.64331086136E+03  0.88629826675E+02 0.  0.
         23    2    4    4    0    0 -0.31659431111E+03 -0.37115486934E+03 -0.13663513089E+03  0.51595319050E+03  0.97727380657E+02 0.  0.
          3    1    3    3  502    0  0.25021399236E+01  0.11466003776E+03  0.11511577059E+03  0.16249561717E+03  0.00000000000E+00 0.  1.
         -3    1    3    3    0  502  0.75198873281E+02  0.10134416067E+03  0.22167672281E+03  0.25508053411E+03  0.00000000000E+00 0. -1.
         13    1    5    5    0    0  0.17157374704E+03  0.15276703578E+03 -0.41493262518E+03  0.47428303926E+03  0.00000000000E+00 0. -1.
        -13    1    5    5    0    0  0.67319550857E+02  0.23836351332E+01 -0.15502516247E+03  0.16902782210E+03  0.00000000000E+00 0.  1.
          1    1    6    6  503    0 -0.21747221876E+03 -0.18875316087E+03 -0.56641275755E+02  0.29347939586E+03  0.00000000000E+00 0. -1.
         -1    1    6    6    0  503 -0.99122092345E+02 -0.18240170847E+03 -0.79993855138E+02  0.22247379464E+03  0.00000000000E+00 0.  1.
<mgrwt>
<rscale>  0 0.15328642E+04</rscale>
<asrwt>0</asrwt>
<pdfrwt beam="1">  1        1 0.92849215E-01 0.15328642E+04</pdfrwt>
<pdfrwt beam="2">  1       -1 0.14974158E+00 0.15328642E+04</pdfrwt>
<totfact> 0.11485301E+01</totfact>
</mgrwt>
</event>
<event>
12    3  0.4192740E-008  0.1295585E+04  0.7818608E-02  0.9033073E-01
          2   -1    0    0  501    0  0.00000000000E+00  0.00000000000E+00  0.91826360897E+03  0.91826360897E+03  0.00000000000E+00 0. -1.
         -2   -1    0    0    0  501 -0.00000000000E+00 -0.00000000000E+00 -0.45698790332E+03  0.45698790332E+03  0.00000000000E+00 0.  1.
         23    2    1    2    0    0 -0.38832689584E+02  0.25529439848E+03 -0.10607111944E+03  0.29379450178E+03  0.91547360530E+02 0.  0.
        254    2    1    2    0    0  0.38832689584E+02 -0.25529439848E+03  0.56734682510E+03  0.10814570105E+04  0.88373278652E+03 0.  0.
         23    2    4    4    0    0  0.25844279532E+03  0.24387804986E+03  0.22827226613E+03  0.43255442916E+03  0.93412659971E+02 0.  0.
         23    2    4    4    0    0 -0.21961010573E+03 -0.49917244834E+03  0.33907455897E+03  0.64890258136E+03  0.93280608020E+02 0.  0.
          3    1    3    3  502    0 -0.37709032264E+01  0.62793612390E+01  0.13487971466E+02  0.15348467773E+02  0.00000000000E+00 0. -1.
         -3    1    3    3    0  502 -0.35061786358E+02  0.24901503724E+03 -0.11955909091E+03  0.27844603400E+03  0.00000000000E+00 0.  1.
         13    1    5    5    0    0  0.26381077141E+03  0.24044203376E+03  0.23146821664E+03  0.42542452918E+03  0.00000000000E+00 0. -1.
        -13    1    5    5    0    0 -0.53679760953E+01  0.34360161055E+01 -0.31959505122E+01  0.71298999792E+01  0.00000000000E+00 0.  1.
          2    1    6    6  503    0 -0.20414007559E+03 -0.46631553397E+03  0.28392485347E+03  0.58286934222E+03  0.00000000000E+00 0. -1.
         -2    1    6    6    0  503 -0.15470030147E+02 -0.32856914371E+02  0.55149705498E+02  0.66033239139E+02  0.00000000000E+00 0.  1.
<mgrwt>
<rscale>  0 0.12955854E+04</rscale>
<asrwt>0</asrwt>
<pdfrwt beam="1">  1        2 0.14127132E+00 0.12955854E+04</pdfrwt>
<pdfrwt beam="2">  1       -2 0.70305832E-01 0.12955854E+04</pdfrwt>
<totfact> 0.51471265E+01</totfact>
</mgrwt>
</event>
<event>
12    3  0.4192740E-008  0.1468021E+04  0.7818608E-02  0.8906001E-01
          1   -1    0    0  501    0  0.00000000000E+00  0.00000000000E+00  0.85287768493E+03  0.85287768493E+03  0.00000000000E+00 0. -1.
         -1   -1    0    0    0  501 -0.00000000000E+00 -0.00000000000E+00 -0.63171032140E+03  0.63171032140E+03  0.00000000000E+00 0.  1.
         23    2    1    2    0    0  0.13206239483E+03  0.35583241487E+03 -0.18982505806E+03  0.43384006894E+03  0.90146930870E+02 0.  0.
        254    2    1    2    0    0 -0.13206239483E+03 -0.35583241487E+03  0.41099242159E+03  0.10507479374E+04  0.88943761655E+03 0.  0.
         23    2    4    4    0    0  0.45610364980E+02 -0.40127105246E+03 -0.16051518444E+03  0.44360789383E+03  0.89017279775E+02 0.  0.
         23    2    4    4    0    0 -0.17767275981E+03  0.45438637586E+02  0.57150760603E+03  0.60714004356E+03  0.91464798601E+02 0.  0.
          1    1    3    3  502    0  0.45830930642E+01 -0.53173922104E+01 -0.21604187707E+01  0.73448492986E+01  0.00000000000E+00 0. -1.
         -1    1    3    3    0  502  0.12747930177E+03  0.36114980708E+03 -0.18766463929E+03  0.42649521964E+03  0.00000000000E+00 0.  1.
         13    1    5    5    0    0  0.60015135571E+02 -0.38547521091E+03 -0.14147282974E+03  0.41497893474E+03  0.00000000000E+00 0. -1.
        -13    1    5    5    0    0 -0.14404770590E+02 -0.15795841547E+02 -0.19042354704E+02  0.28628959091E+02  0.00000000000E+00 0.  1.
          2    1    6    6  503    0 -0.10691962113E+03  0.24339696404E+02  0.19735674158E+03  0.22577402342E+03  0.00000000000E+00 0. -1.
         -2    1    6    6    0  503 -0.70753138681E+02  0.21098941182E+02  0.37415086445E+03  0.38136602014E+03  0.00000000000E+00 0.  1.
<mgrwt>
<rscale>  0 0.14680213E+04</rscale>
<asrwt>0</asrwt>
<pdfrwt beam="1">  1        1 0.13121195E+00 0.14680213E+04</pdfrwt>
<pdfrwt beam="2">  1       -1 0.97186203E-01 0.14680213E+04</pdfrwt>
<totfact> 0.19653526E+01</totfact>
</mgrwt>
</event>
<event>
12    3  0.4192740E-008  0.1518042E+04  0.7818608E-02  0.8872543E-01
          2   -1    0    0  501    0  0.00000000000E+00  0.00000000000E+00  0.91009610231E+03  0.91009610231E+03  0.00000000000E+00 0. -1.
         -2   -1    0    0    0  501 -0.00000000000E+00 -0.00000000000E+00 -0.63302437672E+03  0.63302437672E+03  0.00000000000E+00 0.  1.
         23    2    1    2    0    0  0.38283454653E+03 -0.18570824654E+03 -0.16437094982E+03  0.46558979583E+03  0.93307052220E+02 0.  0.
        254    2    1    2    0    0 -0.38283454653E+03  0.18570824654E+03  0.44144267541E+03  0.10775306832E+04  0.88608740804E+03 0.  0.
         23    2    4    4    0    0 -0.44962885639E+03 -0.15179624353E+03 -0.32510501981E+02  0.48502753178E+03  0.94797498865E+02 0.  0.
         23    2    4    4    0    0  0.66794309865E+02  0.33750449007E+03  0.47395317739E+03  0.59250315141E+03  0.89764187873E+02 0.  0.
          1    1    3    3  502    0  0.35043004151E+03 -0.16815701267E+03 -0.11768812880E+03  0.40611388866E+03  0.00000000000E+00 0. -1.
         -1    1    3    3    0  502  0.32404505014E+02 -0.17551233871E+02 -0.46682821020E+02  0.59475907173E+02  0.00000000000E+00 0.  1.
         13    1    5    5    0    0 -0.39663944828E+03 -0.11226196411E+03 -0.53466888159E+02  0.41567331962E+03  0.00000000000E+00 0. -1.
        -13    1    5    5    0    0 -0.52989408114E+02 -0.39534279428E+02  0.20956386177E+02  0.69354212156E+02  0.00000000000E+00 0.  1.
          1    1    6    6  503    0  0.66768267188E+02  0.33191956392E+03  0.42566334508E+03  0.54389142460E+03  0.00000000000E+00 0. -1.
         -1    1    6    6    0  503  0.26042677396E-01  0.55849261532E+01  0.48289832313E+02  0.48611726807E+02  0.00000000000E+00 0.  1.
<mgrwt>
<rscale>  0 0.15180422E+04</rscale>
<asrwt>0</asrwt>
<pdfrwt beam="1">  1        2 0.14001479E+00 0.15180422E+04</pdfrwt>
<pdfrwt beam="2">  1       -2 0.97388365E-01 0.15180422E+04</pdfrwt>
<totfact> 0.24494022E+01</totfact>
</mgrwt>
</event>
<event>
12    3  0.4192740E-008  0.4308643E+04  0.7818608E-02  0.7945022E-01
         -3   -1    0    0    0  501 -0.00000000000E+00  0.00000000000E+00  0.24160894671E+04  0.24160894671E+04  0.00000000000E+00 0.  1.
          3   -1    0    0  501    0  0.00000000000E+00 -0.00000000000E+00 -0.19209144177E+04  0.19209144177E+04  0.00000000000E+00 0. -1.
         23    2    1    2    0    0 -0.19355486545E+04 -0.62346987142E+03 -0.77301764953E+02  0.20369028325E+04  0.89074753420E+02 0.  0.
        254    2    1    2    0    0  0.19355486545E+04  0.62346987142E+03  0.57247681442E+03  0.23001010523E+04  0.90976473500E+03 0.  0.
         23    2    4    4    0    0  0.79377331058E+03  0.20869210025E+02 -0.15600077439E+03  0.81466401697E+03  0.93966091899E+02 0.  0.
         23    2    4    4    0    0  0.11417753439E+04  0.60260066139E+03  0.72847758880E+03  0.14854370353E+04  0.95210794102E+02 0.  0.
          3    1    3    3  502    0 -0.11993859343E+04 -0.35504154858E+03 -0.79028541615E+02  0.12533262269E+04  0.00000000000E+00 0. -1.
         -3    1    3    3    0  502 -0.73616272025E+03 -0.26842832283E+03  0.17267766618E+01  0.78357660567E+03  0.00000000000E+00 0.  1.
         13    1    5    5    0    0  0.47902532021E+03 -0.22128107680E+02 -0.62984370092E+02  0.48365477505E+03  0.00000000000E+00 0.  1.
        -13    1    5    5    0    0  0.31474799037E+03  0.42997317705E+02 -0.93016404294E+02  0.33100924192E+03  0.00000000000E+00 0. -1.
          3    1    6    6  503    0  0.71752624581E+03  0.34897418965E+03  0.40580320615E+03  0.89515537231E+03  0.00000000000E+00 0. -1.
         -3    1    6    6    0  503  0.42424909813E+03  0.25362647174E+03  0.32267438266E+03  0.59028166299E+03  0.00000000000E+00 0.  1.
<mgrwt>
<rscale>  0 0.43086430E+04</rscale>
<asrwt>0</asrwt>
<pdfrwt beam="1">  1        3 0.29552529E+00 0.43086430E+04</pdfrwt>
<pdfrwt beam="2">  1       -3 0.37170607E+00 0.43086430E+04</pdfrwt>
<totfact> 0.12269600E-03</totfact>
</mgrwt>
</event>
<event>
12    3  0.4192740E-008  0.1148731E+04  0.7818608E-02  0.9158955E-01
          2   -1    0    0  501    0  0.00000000000E+00  0.00000000000E+00  0.18624161937E+04  0.18624161937E+04  0.00000000000E+00 0. -1.
         -2   -1    0    0    0  501 -0.00000000000E+00 -0.00000000000E+00 -0.17713305576E+03  0.17713305576E+03  0.00000000000E+00 0.  1.
         23    2    1    2    0    0  0.27632909448E+03 -0.12744319395E+03  0.41929002462E+03  0.53045457154E+03  0.11392274391E+03 0.  0.
        254    2    1    2    0    0 -0.27632909448E+03  0.12744319395E+03  0.12659931133E+04  0.15090946780E+04  0.76290802057E+03 0.  0.
         23    2    4    4    0    0 -0.26845009692E+02 -0.24577695466E+03  0.14768304920E+03  0.30096229321E+03  0.87413116452E+02 0.  0.
         23    2    4    4    0    0 -0.24948408478E+03  0.37322014861E+03  0.11183100641E+04  0.12081323847E+04  0.86202503469E+02 0.  0.
          2    1    3    3  502    0  0.49461861857E+02 -0.44899882364E+02  0.17357929776E+03  0.18598991324E+03  0.00000000000E+00 0.  1.
         -2    1    3    3    0  502  0.22686723262E+03 -0.82543311582E+02  0.24571072686E+03  0.34446465830E+03  0.00000000000E+00 0. -1.
         13    1    5    5    0    0  0.18563124217E+02 -0.16435794632E+02  0.69863006619E+00  0.24803487856E+02  0.00000000000E+00 0. -1.
        -13    1    5    5    0    0 -0.45408133908E+02 -0.22934116003E+03  0.14698441914E+03  0.27615880536E+03  0.00000000000E+00 0.  1.
          4    1    6    6  503    0 -0.41694807961E+02  0.37203009104E+02  0.83525720127E+02  0.10049411336E+03  0.00000000000E+00 0. -1.
         -4    1    6    6    0  503 -0.20778927682E+03  0.33601713950E+03  0.10347843440E+04  0.11076382714E+04  0.00000000000E+00 0.  1.
<mgrwt>
<rscale>  0 0.11487306E+04</rscale>
<asrwt>0</asrwt>
<pdfrwt beam="1">  1        2 0.28652555E+00 0.11487306E+04</pdfrwt>
<pdfrwt beam="2">  1       -2 0.27251241E-01 0.11487306E+04</pdfrwt>
<totfact> 0.96723648E+01</totfact>
</mgrwt>
</event>
<event>
12    3  0.4192740E-008  0.1789769E+04  0.7818608E-02  0.8711759E-01
          2   -1    0    0  501    0  0.00000000000E+00  0.00000000000E+00  0.42001308746E+03  0.42001308746E+03  0.00000000000E+00 0. -1.
         -2   -1    0    0    0  501 -0.00000000000E+00 -0.00000000000E+00 -0.19066497606E+04  0.19066497606E+04  0.00000000000E+00 0.  1.
         23    2    1    2    0    0  0.57690986227E+03 -0.19478628073E+03 -0.21165335446E+03  0.65102421212E+03  0.90932381325E+02 0.  0.
        254    2    1    2    0    0 -0.57690986227E+03  0.19478628073E+03 -0.12749833186E+04  0.16756386359E+04  0.90078615162E+03 0.  0.
         23    2    4    4    0    0 -0.22478460265E+03 -0.15366367599E+03 -0.11089251706E+04  0.11451735108E+04  0.86986739893E+02 0.  0.
         23    2    4    4    0    0 -0.35212525962E+03  0.34844995671E+03 -0.16605814803E+03  0.53046512510E+03  0.91697162542E+02 0.  0.
          1    1    3    3  502    0  0.11825294890E+02  0.55789358872E+01  0.42972688743E+01  0.13763307910E+02  0.00000000000E+00 0. -1.
         -1    1    3    3    0  502  0.56508456738E+03 -0.20036521661E+03 -0.21595062334E+03  0.63726090421E+03  0.00000000000E+00 0.  1.
         13    1    5    5    0    0 -0.79728905601E+02 -0.97856278711E+01 -0.26758669055E+03  0.27938341729E+03  0.00000000000E+00 0.  1.
        -13    1    5    5    0    0 -0.14505569704E+03 -0.14387804812E+03 -0.84133848006E+03  0.86579009350E+03  0.00000000000E+00 0. -1.
          1    1    6    6  503    0 -0.28595344315E+03  0.24665755798E+03 -0.15616568529E+03  0.40865271787E+03  0.00000000000E+00 0. -1.
         -1    1    6    6    0  503 -0.66171816469E+02  0.10179239874E+03 -0.98924627346E+01  0.12181240723E+03  0.00000000000E+00 0.  1.
<mgrwt>
<rscale>  0 0.17897685E+04</rscale>
<asrwt>0</asrwt>
<pdfrwt beam="1">  1        2 0.64617398E-01 0.17897685E+04</pdfrwt>
<pdfrwt beam="2">  1       -2 0.29333073E+00 0.17897685E+04</pdfrwt>
<totfact> 0.24857449E+00</totfact>
</mgrwt>
</event>
<event>
12    3  0.4192740E-008  0.2532621E+04  0.7818608E-02  0.8391456E-01
          2   -1    0    0  501    0  0.00000000000E+00  0.00000000000E+00  0.71206898090E+03  0.71206898090E+03  0.00000000000E+00 0. -1.
         -2   -1    0    0    0  501 -0.00000000000E+00 -0.00000000000E+00 -0.22519471163E+04  0.22519471163E+04  0.00000000000E+00 0.  1.
         23    2    1    2    0    0 -0.15927740912E+03 -0.33069156063E+03 -0.18944978144E+04  0.19318657095E+04  0.90867757810E+02 0.  0.
        254    2    1    2    0    0  0.15927740912E+03  0.33069156063E+03  0.35461967903E+03  0.10321503877E+04  0.89713605696E+03 0.  0.
         23    2    4    4    0    0  0.31041788519E+03  0.28222788237E+03  0.59320839477E+03  0.73207907995E+03  0.89619967945E+02 0.  0.
         23    2    4    4    0    0 -0.15114047607E+03  0.48463678264E+02 -0.23858871574E+03  0.30007130772E+03  0.89028325937E+02 0.  0.
          4    1    3    3  502    0 -0.68631806529E+01 -0.10515797682E+03 -0.48344036004E+03  0.49479276981E+03  0.00000000000E+00 0. -1.
         -4    1    3    3    0  502 -0.15241422846E+03 -0.22553358381E+03 -0.14110574543E+04  0.14370729397E+04  0.00000000000E+00 0.  1.
         13    1    5    5    0    0  0.19285942216E+03  0.12948784628E+03  0.37313232451E+03  0.43953337831E+03  0.00000000000E+00 0. -1.
        -13    1    5    5    0    0  0.11755846303E+03  0.15274003609E+03  0.22007607025E+03  0.29254570165E+03  0.00000000000E+00 0.  1.
          4    1    6    6  503    0 -0.60052416500E+02  0.51599105281E+02 -0.59211815979E+02  0.98867585916E+02  0.00000000000E+00 0. -1.
         -4    1    6    6    0  503 -0.91088059572E+02 -0.31354270172E+01 -0.17937689976E+03  0.20120372180E+03  0.00000000000E+00 0.  1.
<mgrwt>
<rscale>  0 0.25326205E+04</rscale>
<asrwt>0</asrwt>
<pdfrwt beam="1">  1        2 0.10954907E+00 0.25326205E+04</pdfrwt>
<pdfrwt beam="2">  1       -2 0.34645340E+00 0.25326205E+04</pdfrwt>
<totfact> 0.58434881E-01</totfact>
</mgrwt>
</event>
<event>
12    3  0.4192740E-008  0.2153780E+04  0.7818608E-02  0.8537916E-01
          2   -1    0    0  501    0  0.00000000000E+00  0.00000000000E+00  0.42872759323E+03  0.42872759323E+03  0.00000000000E+00 0. -1.
         -2   -1    0    0    0  501 -0.00000000000E+00 -0.00000000000E+00 -0.27049616595E+04  0.27049616595E+04  0.00000000000E+00 0.  1.
         23    2    1    2    0    0 -0.91527240934E+02  0.80951533180E+03 -0.43838607896E+03  0.92940102811E+03  0.88947223503E+02 0.  0.
        254    2    1    2    0    0  0.91527240934E+02 -0.80951533180E+03 -0.18378479873E+04  0.22042882246E+04  0.90416206761E+03 0.  0.
         23    2    4    4    0    0 -0.37669036481E+03 -0.18059059285E+03 -0.60978844005E+03  0.74455826673E+03  0.89534785225E+02 0.  0.
         23    2    4    4    0    0  0.46821760574E+03 -0.62892473894E+03 -0.12280595472E+04  0.14597299579E+04  0.88922689933E+02 0.  0.
          3    1    3    3  502    0 -0.35518380105E+02  0.62893863128E+03 -0.32321710292E+03  0.70802164717E+03  0.00000000000E+00 0. -1.
         -3    1    3    3    0  502 -0.56008860829E+02  0.18057670052E+03 -0.11516897604E+03  0.22137938094E+03  0.00000000000E+00 0.  1.
         13    1    5    5    0    0 -0.11689941700E+03 -0.63138772015E+02 -0.27063112227E+03  0.30148496242E+03  0.00000000000E+00 0.  1.
        -13    1    5    5    0    0 -0.25979094781E+03 -0.11745182084E+03 -0.33915731778E+03  0.44307330431E+03  0.00000000000E+00 0. -1.
          2    1    6    6  503    0  0.21938514756E+03 -0.25062707178E+03 -0.58636564127E+03  0.67436521065E+03  0.00000000000E+00 0. -1.
         -2    1    6    6    0  503  0.24883245818E+03 -0.37829766716E+03 -0.64169390595E+03  0.78536474720E+03  0.00000000000E+00 0.  1.
<mgrwt>
<rscale>  0 0.21537797E+04</rscale>
<asrwt>0</asrwt>
<pdfrwt beam="1">  1        2 0.65958091E-01 0.21537797E+04</pdfrwt>
<pdfrwt beam="2">  1       -2 0.41614795E+00 0.21537797E+04</pdfrwt>
<totfact> 0.39272146E-01</totfact>
</mgrwt>
</event>
<event>
12    3  0.4192740E-008  0.2886302E+04  0.7818608E-02  0.8276965E-01
         -1   -1    0    0    0  501 -0.00000000000E+00  0.00000000000E+00  0.97949473314E+03  0.97949473314E+03  0.00000000000E+00 0.  1.
          1   -1    0    0  501    0  0.00000000000E+00 -0.00000000000E+00 -0.21262846495E+04  0.21262846495E+04  0.00000000000E+00 0. -1.
         23    2    1    2    0    0  0.10930801086E+04 -0.69372533879E+03 -0.63571994969E+03  0.14451601447E+04  0.90934151743E+02 0.  0.
        254    2    1    2    0    0 -0.10930801086E+04  0.69372533879E+03 -0.51106996663E+03  0.16606192379E+04  0.90575094429E+03 0.  0.
         23    2    4    4    0    0 -0.10748079058E+04  0.28593973907E+03 -0.54371801728E+03  0.12410177515E+04  0.86730666322E+02 0.  0.
         23    2    4    4    0    0 -0.18272202737E+02  0.40778559972E+03  0.32648050652E+02  0.41960148637E+03  0.91523458322E+02 0.  0.
          2    1    3    3  502    0  0.74609411574E+03 -0.49586374829E+03 -0.39741332568E+03  0.98003807979E+03  0.00000000000E+00 0.  1.
         -2    1    3    3    0  502  0.34698599282E+03 -0.19786159050E+03 -0.23830662401E+03  0.46512206490E+03  0.00000000000E+00 0. -1.
         13    1    5    5    0    0 -0.37838445450E+03  0.59529713583E+02 -0.19868890588E+03  0.43150418715E+03  0.00000000000E+00 0.  1.
        -13    1    5    5    0    0 -0.69642345133E+03  0.22641002548E+03 -0.34502911140E+03  0.80951356438E+03  0.00000000000E+00 0. -1.
          2    1    6    6  503    0  0.18458784318E+02  0.31693217636E+02 -0.13131657214E+02  0.38956734768E+02  0.00000000000E+00 0. -1.
         -2    1    6    6    0  503 -0.36730987055E+02  0.37609238209E+03  0.45779707866E+02  0.38064475161E+03  0.00000000000E+00 0.  1.
<mgrwt>
<rscale>  0 0.28863019E+04</rscale>
<asrwt>0</asrwt>
<pdfrwt beam="1">  1        1 0.32712071E+00 0.28863019E+04</pdfrwt>
<pdfrwt beam="2">  1       -1 0.15069150E+00 0.28863019E+04</pdfrwt>
<totfact> 0.72412375E-01</totfact>
</mgrwt>
</event>
<event>
12    3  0.4192740E-008  0.2082409E+04  0.7818608E-02  0.8569032E-01
          1   -1    0    0  501    0  0.00000000000E+00  0.00000000000E+00  0.15412829240E+04  0.15412829240E+04  0.00000000000E+00 0. -1.
         -1   -1    0    0    0  501 -0.00000000000E+00 -0.00000000000E+00 -0.70337969732E+03  0.70337969732E+03  0.00000000000E+00 0.  1.
         23    2    1    2    0    0 -0.54468566591E+03 -0.14955517254E+03  0.10157034374E+04  0.11656266745E+04  0.89346781040E+02 0.  0.
        254    2    1    2    0    0  0.54468566591E+03  0.14955517254E+03 -0.17780021080E+03  0.10790359467E+04  0.90202906556E+03 0.  0.
         23    2    4    4    0    0  0.33685679584E+03  0.10529429036E+03 -0.53875956891E+03  0.65118738297E+03  0.96040336099E+02 0.  0.
         23    2    4    4    0    0  0.20782887007E+03  0.44260882187E+02  0.36095935811E+03  0.42784856377E+03  0.87240302573E+02 0.  0.
          1    1    3    3  502    0 -0.49751579522E+03 -0.13542269041E+03  0.96958720393E+03  0.10981623822E+04  0.00000000000E+00 0. -1.
         -1    1    3    3    0  502 -0.47169870693E+02 -0.14132482132E+02  0.46116233501E+02  0.67464292368E+02  0.00000000000E+00 0.  1.
         13    1    5    5    0    0 -0.51862254089E+01  0.82693006183E+01 -0.20393005956E+02  0.22608692104E+02  0.00000000000E+00 0. -1.
        -13    1    5    5    0    0  0.34204302125E+03  0.97024989739E+02 -0.51836656295E+03  0.62857869086E+03  0.00000000000E+00 0.  1.
          4    1    6    6  503    0  0.17435399138E+02  0.90270274115E+00  0.10219108754E+03  0.10367172415E+03  0.00000000000E+00 0. -1.
         -4    1    6    6    0  503  0.19039347093E+03  0.43358179446E+02  0.25876827057E+03  0.32417683963E+03  0.00000000000E+00 0.  1.
<mgrwt>
<rscale>  0 0.20824093E+04</rscale>
<asrwt>0</asrwt>
<pdfrwt beam="1">  1        1 0.23712045E+00 0.20824093E+04</pdfrwt>
<pdfrwt beam="2">  1       -1 0.10821226E+00 0.20824093E+04</pdfrwt>
<totfact> 0.44752474E+00</totfact>
</mgrwt>
</event>
<event>
12    3  0.4192740E-008  0.1487013E+04  0.7818608E-02  0.8893135E-01
         -2   -1    0    0    0  501 -0.00000000000E+00  0.00000000000E+00  0.13149610032E+03  0.13149610032E+03  0.00000000000E+00 0.  1.
          2   -1    0    0  501    0  0.00000000000E+00 -0.00000000000E+00 -0.42039422848E+04  0.42039422848E+04  0.00000000000E+00 0. -1.
         23    2    1    2    0    0  0.10799364351E+03 -0.27917190561E+03 -0.23521543169E+04  0.23728162267E+04  0.89595397129E+02 0.  0.
        254    2    1    2    0    0 -0.10799364351E+03  0.27917190561E+03 -0.17202918675E+04  0.19626221584E+04  0.89603685595E+03 0.  0.
         23    2    4    4    0    0 -0.24356196485E+03  0.19434914740E+03 -0.17484650862E+04  0.17779632775E+04  0.83242037295E+02 0.  0.
         23    2    4    4    0    0  0.13556832134E+03  0.84822758207E+02  0.28173218607E+02  0.18465888092E+03  0.87928959935E+02 0.  0.
          2    1    3    3  502    0  0.10988191608E+03 -0.23189406984E+03 -0.21467620664E+04  0.21620444641E+04  0.00000000000E+00 0. -1.
         -2    1    3    3    0  502 -0.18882725767E+01 -0.47277835772E+02 -0.20539225057E+03  0.21077176263E+03  0.00000000000E+00 0.  1.
         13    1    5    5    0    0 -0.26702210523E+02 -0.34181379294E+01 -0.99238328974E+02  0.10282479103E+03  0.00000000000E+00 0. -1.
        -13    1    5    5    0    0 -0.21685975433E+03  0.19776728533E+03 -0.16492267572E+04  0.16751384865E+04  0.00000000000E+00 0.  1.
          3    1    6    6  503    0  0.35449723914E+02 -0.81573878635E+01 -0.17799361234E+02  0.40497446372E+02  0.00000000000E+00 0. -1.
         -3    1    6    6    0  503  0.10011859743E+03  0.92980146071E+02  0.45972579841E+02  0.14416143455E+03  0.00000000000E+00 0.  1.
<mgrwt>
<rscale>  0 0.14870131E+04</rscale>
<asrwt>0</asrwt>
<pdfrwt beam="1">  1        2 0.64676035E+00 0.14870131E+04</pdfrwt>
<pdfrwt beam="2">  1       -2 0.20230169E-01 0.14870131E+04</pdfrwt>
<totfact> 0.48113351E+00</totfact>
</mgrwt>
</event>
<event>
12    3  0.4192740E-008  0.1500810E+04  0.7818608E-02  0.8883914E-01
          1   -1    0    0  501    0  0.00000000000E+00  0.00000000000E+00  0.23191060902E+03  0.23191060902E+03  0.00000000000E+00 0. -1.
         -1   -1    0    0    0  501 -0.00000000000E+00 -0.00000000000E+00 -0.24281249549E+04  0.24281249549E+04  0.00000000000E+00 0.  1.
         23    2    1    2    0    0  0.44343383093E+03  0.26522367401E+02 -0.10328948233E+04  0.11279036289E+04  0.89206960411E+02 0.  0.
        254    2    1    2    0    0 -0.44343383093E+03 -0.26522367401E+02 -0.11633195227E+04  0.15321319351E+04  0.89262475667E+03 0.  0.
         23    2    4    4    0    0 -0.49485330676E+03  0.67284299383E+02 -0.12590218404E+04  0.13575188405E+04  0.91183526450E+02 0.  0.
         23    2    4    4    0    0  0.51419475835E+02 -0.93806666784E+02  0.95702317732E+02  0.17461309458E+03  0.99434128703E+02 0.  0.
          1    1    3    3  502    0  0.18357185625E+03  0.21839178280E+02 -0.53860769045E+03  0.56945045468E+03  0.00000000000E+00 0. -1.
         -1    1    3    3    0  502  0.25986197467E+03  0.46831891210E+01 -0.49428713280E+03  0.55845317422E+03  0.00000000000E+00 0.  1.
         13    1    5    5    0    0 -0.18518369327E+03  0.11911947242E+02 -0.58443592108E+03  0.61318858485E+03  0.00000000000E+00 0.  1.
        -13    1    5    5    0    0 -0.30966961349E+03  0.55372352141E+02 -0.67458591932E+03  0.74433025563E+03  0.00000000000E+00 0. -1.
          2    1    6    6  503    0  0.43565999322E+02 -0.48158905140E+01  0.18940349033E+00  0.43831780388E+02  0.00000000000E+00 0. -1.
         -2    1    6    6    0  503  0.78534765133E+01 -0.88990776270E+02  0.95512914242E+02  0.13078131419E+03  0.00000000000E+00 0.  1.
<mgrwt>
<rscale>  0 0.15008104E+04</rscale>
<asrwt>0</asrwt>
<pdfrwt beam="1">  1        1 0.35678554E-01 0.15008104E+04</pdfrwt>
<pdfrwt beam="2">  1       -1 0.37355769E+00 0.15008104E+04</pdfrwt>
<totfact> 0.12907539E+00</totfact>
</mgrwt>
</event>
<event>
12    3  0.4192740E-008  0.1148091E+04  0.7818608E-02  0.9159546E-01
         -2   -1    0    0    0  501 -0.00000000000E+00  0.00000000000E+00  0.11598579285E+04  0.11598579285E+04  0.00000000000E+00 0.  1.
          2   -1    0    0  501    0  0.00000000000E+00 -0.00000000000E+00 -0.28411093392E+03  0.28411093392E+03  0.00000000000E+00 0. -1.
         23    2    1    2    0    0 -0.73423058660E+02  0.73630139259E+02 -0.61749673547E+02  0.15086070788E+03  0.90186407226E+02 0.  0.
        254    2    1    2    0    0  0.73423058660E+02 -0.73630139259E+02  0.93749666813E+03  0.12931081545E+04  0.88454301968E+03 0.  0.
         23    2    4    4    0    0  0.11758897170E+03 -0.72511225339E+01  0.10885258648E+04  0.10986484337E+04  0.90884969157E+02 0.  0.
         23    2    4    4    0    0 -0.44165913044E+02 -0.66379016725E+02 -0.15102919666E+03  0.19445972080E+03  0.92994424751E+02 0.  0.
          4    1    3    3  502    0 -0.77389033474E+02  0.78926963848E+02 -0.76679762130E+02  0.13452997452E+03  0.00000000000E+00 0. -1.
         -4    1    3    3    0  502  0.39659748130E+01 -0.52968245891E+01  0.14930088583E+02  0.16330733359E+02  0.00000000000E+00 0.  1.
         13    1    5    5    0    0  0.90026217466E+02 -0.44309744085E+02  0.65030082159E+03  0.65799637675E+03  0.00000000000E+00 0. -1.
        -13    1    5    5    0    0  0.27562754239E+02  0.37058621551E+02  0.43822504320E+03  0.44065205700E+03  0.00000000000E+00 0.  1.
          4    1    6    6  503    0 -0.15372670967E+02  0.47155879679E+01 -0.10236643795E+03  0.10362163578E+03  0.00000000000E+00 0. -1.
         -4    1    6    6    0  503 -0.28793242078E+02 -0.71094604693E+02 -0.48662758708E+02  0.90838085024E+02  0.00000000000E+00 0.  1.
<mgrwt>
<rscale>  0 0.11480911E+04</rscale>
<asrwt>0</asrwt>
<pdfrwt beam="1">  1        2 0.43709375E-01 0.11480911E+04</pdfrwt>
<pdfrwt beam="2">  1       -2 0.17843968E+00 0.11480911E+04</pdfrwt>
<totfact> 0.21449050E+01</totfact>
</mgrwt>
</event>
<event>
12    3  0.4192740E-008  0.1819802E+04  0.7818608E-02  0.8695839E-01
         -1   -1    0    0    0  501 -0.00000000000E+00  0.00000000000E+00  0.46781713869E+03  0.46781713869E+03  0.00000000000E+00 0.  1.
          1   -1    0    0  501    0  0.00000000000E+00 -0.00000000000E+00 -0.17697516015E+04  0.17697516015E+04  0.00000000000E+00 0. -1.
         23    2    1    2    0    0  0.11422010667E+03  0.63877771193E+03 -0.22013407212E+03  0.68963004157E+03  0.77764943983E+02 0.  0.
        254    2    1    2    0    0 -0.11422010667E+03 -0.63877771193E+03 -0.10818003907E+04  0.15479386986E+04  0.89707242258E+03 0.  0.
         23    2    4    4    0    0 -0.27876519062E+03  0.75730983231E+02 -0.98974223451E+02  0.31851974298E+03  0.90629556100E+02 0.  0.
         23    2    4    4    0    0  0.16454508395E+03 -0.71450869516E+03 -0.98282616728E+03  0.12294189557E+04  0.89027711138E+02 0.  0.
          3    1    3    3  502    0  0.79016828932E+01  0.53645540929E+02 -0.42681631644E+02  0.69007262907E+02  0.00000000000E+00 0. -1.
         -3    1    3    3    0  502  0.10631842378E+03  0.58513217100E+03 -0.17745244047E+03  0.62062277867E+03  0.00000000000E+00 0.  1.
         13    1    5    5    0    0 -0.51060526478E+02 -0.20976364737E+02 -0.22103281128E+02  0.59462091104E+02  0.00000000000E+00 0.  1.
        -13    1    5    5    0    0 -0.22770466414E+03  0.96707347968E+02 -0.76870942323E+02  0.25905765188E+03  0.00000000000E+00 0. -1.
          2    1    6    6  503    0  0.16978868317E+03 -0.61440615242E+03 -0.86944512273E+03  0.10780806735E+04  0.00000000000E+00 0. -1.
         -2    1    6    6    0  503 -0.52435992239E+01 -0.10010254274E+03 -0.11338104455E+03  0.15133828220E+03  0.00000000000E+00 0.  1.
<mgrwt>
<rscale>  0 0.18198023E+04</rscale>
<asrwt>0</asrwt>
<pdfrwt beam="1">  1        1 0.27226948E+00 0.18198023E+04</pdfrwt>
<pdfrwt beam="2">  1       -1 0.71971867E-01 0.18198023E+04</pdfrwt>
<totfact> 0.78392177E+00</totfact>
</mgrwt>
</event>
<event>
12    3  0.4192740E-008  0.1518411E+04  0.7818608E-02  0.8872301E-01
         -1   -1    0    0    0  501 -0.00000000000E+00  0.00000000000E+00  0.87998000432E+03  0.87998000432E+03  0.00000000000E+00 0.  1.
          1   -1    0    0  501    0  0.00000000000E+00 -0.00000000000E+00 -0.65500694877E+03  0.65500694877E+03  0.00000000000E+00 0. -1.
         23    2    1    2    0    0  0.32883086290E+03  0.35944769149E+03  0.85620562728E+02  0.50287467350E+03  0.90662435256E+02 0.  0.
        254    2    1    2    0    0 -0.32883086290E+03 -0.35944769149E+03  0.13935249283E+03  0.10321122796E+04  0.89916864999E+03 0.  0.
         23    2    4    4    0    0 -0.19514553205E+02 -0.30284295091E+03  0.46997890831E+03  0.56691695669E+03  0.91760507939E+02 0.  0.
         23    2    4    4    0    0 -0.30931630970E+03 -0.56604740583E+02 -0.33062641549E+03  0.46519532291E+03  0.90621110883E+02 0.  0.
          3    1    3    3  502    0  0.28670013774E+03  0.30442003147E+03  0.10452566192E+03  0.43103844207E+03  0.00000000000E+00 0. -1.
         -3    1    3    3    0  502  0.42130725164E+02  0.55027660020E+02 -0.18905099196E+02  0.71836231428E+02  0.00000000000E+00 0.  1.
         13    1    5    5    0    0  0.49425384096E+01 -0.13618173974E+03  0.13421219185E+03  0.19126632575E+03  0.00000000000E+00 0. -1.
        -13    1    5    5    0    0 -0.24457091614E+02 -0.16666121117E+03  0.33576671646E+03  0.37565063094E+03  0.00000000000E+00 0.  1.
          4    1    6    6  503    0 -0.16467350390E+03  0.14275726640E+02 -0.15036276881E+03  0.22345049005E+03  0.00000000000E+00 0. -1.
         -4    1    6    6    0  503 -0.14464280580E+03 -0.70880467222E+02 -0.18026364668E+03  0.24174483287E+03  0.00000000000E+00 0.  1.
<mgrwt>
<rscale>  0 0.15184110E+04</rscale>
<asrwt>0</asrwt>
<pdfrwt beam="1">  1        1 0.10077030E+00 0.15184110E+04</pdfrwt>
<pdfrwt beam="2">  1       -1 0.13538154E+00 0.15184110E+04</pdfrwt>
<totfact> 0.13303378E+01</totfact>
</mgrwt>
</event>
<event>
12    3  0.4192740E-008  0.1227455E+04  0.7818608E-02  0.9089159E-01
         -1   -1    0    0    0  501 -0.00000000000E+00  0.00000000000E+00  0.88226713880E+02  0.88226713880E+02  0.00000000000E+00 0.  1.
          1   -1    0    0  501    0  0.00000000000E+00 -0.00000000000E+00 -0.42692459240E+04  0.42692459240E+04  0.00000000000E+00 0. -1.
         23    2    1    2    0    0  0.10772295809E+03  0.13743140799E+03 -0.22739301934E+04  0.22824153259E+04  0.90385663158E+02 0.  0.
        254    2    1    2    0    0 -0.10772295809E+03 -0.13743140799E+03 -0.19070890168E+04  0.20750573120E+04  0.79898854966E+03 0.  0.
         23    2    4    4    0    0 -0.33498281907E+03 -0.13698771322E+02 -0.34646268484E+03  0.49049052402E+03  0.90240881891E+02 0.  0.
         23    2    4    4    0    0  0.22725986098E+03 -0.12373263667E+03 -0.15606263319E+04  0.15845667879E+04  0.91326599470E+02 0.  0.
          1    1    3    3  502    0  0.74461252812E+02  0.11336487364E+03 -0.20673852462E+04  0.20718295849E+04  0.00000000000E+00 0. -1.
         -1    1    3    3    0  502  0.33261705280E+02  0.24066534348E+02 -0.20654494715E+03  0.21058574099E+03  0.00000000000E+00 0.  1.
         13    1    5    5    0    0 -0.26808237136E+02 -0.26939760866E+02 -0.28602129152E+02  0.47565892043E+02  0.00000000000E+00 0. -1.
        -13    1    5    5    0    0 -0.30817458193E+03  0.13240989544E+02 -0.31786055569E+03  0.44292463198E+03  0.00000000000E+00 0.  1.
          3    1    6    6  503    0  0.94185320404E+01  0.13156061552E+02 -0.65722185803E+02  0.67684535960E+02  0.00000000000E+00 0. -1.
         -3    1    6    6    0  503  0.21784132894E+03 -0.13688869822E+03 -0.14949041461E+04  0.15168822520E+04  0.00000000000E+00 0.  1.
<mgrwt>
<rscale>  0 0.12274552E+04</rscale>
<asrwt>0</asrwt>
<pdfrwt beam="1">  1        1 0.65680682E+00 0.12274552E+04</pdfrwt>
<pdfrwt beam="2">  1       -1 0.13573346E-01 0.12274552E+04</pdfrwt>
<totfact> 0.21665307E+00</totfact>
</mgrwt>
</event>
<event>
12    3  0.4192740E-008  0.1550295E+04  0.7818608E-02  0.8851680E-01
         -1   -1    0    0    0  501 -0.00000000000E+00  0.00000000000E+00  0.84587920917E+03  0.84587920917E+03  0.00000000000E+00 0.  1.
          1   -1    0    0  501    0  0.00000000000E+00 -0.00000000000E+00 -0.71032992648E+03  0.71032992648E+03  0.00000000000E+00 0. -1.
         23    2    1    2    0    0 -0.40149388878E+03  0.77494185011E+02 -0.11940913043E+03  0.43487196218E+03  0.87477949335E+02 0.  0.
        254    2    1    2    0    0  0.40149388878E+03 -0.77494185011E+02  0.25495841311E+03  0.11213371735E+04  0.10125169494E+04 0.  0.
         23    2    4    4    0    0  0.50591050910E+03  0.47292818490E+02  0.56091028906E+03  0.76250380628E+03  0.92788190597E+02 0.  0.
         23    2    4    4    0    0 -0.10441662032E+03 -0.12478700350E+03 -0.30595187595E+03  0.35883336719E+03  0.93167634778E+02 0.  0.
          1    1    3    3  502    0 -0.30327733784E+03  0.23308927600E+02 -0.69031201965E+02  0.31190664725E+03  0.00000000000E+00 0. -1.
         -1    1    3    3    0  502 -0.98216550939E+02  0.54185257410E+02 -0.50377928461E+02  0.12296531493E+03  0.00000000000E+00 0.  1.
         13    1    5    5    0    0  0.13836678767E+03  0.48744697909E+02  0.12879044857E+03  0.19521371148E+03  0.00000000000E+00 0.  1.
        -13    1    5    5    0    0  0.36754372143E+03 -0.14518794187E+01  0.43211984049E+03  0.56729009480E+03  0.00000000000E+00 0. -1.
          1    1    6    6  503    0 -0.22319872104E+02 -0.74094955784E+02 -0.20532219062E+03  0.21942069439E+03  0.00000000000E+00 0. -1.
         -1    1    6    6    0  503 -0.82096748214E+02 -0.50692047717E+02 -0.10062968533E+03  0.13941267281E+03  0.00000000000E+00 0.  1.
<mgrwt>
<rscale>  0 0.15502946E+04</rscale>
<asrwt>0</asrwt>
<pdfrwt beam="1">  1        1 0.10928153E+00 0.15502946E+04</pdfrwt>
<pdfrwt beam="2">  1       -1 0.13013526E+00 0.15502946E+04</pdfrwt>
<totfact> 0.12985612E+01</totfact>
</mgrwt>
</event>
<event>
12    3  0.4192740E-008  0.1478852E+04  0.7818608E-02  0.8898639E-01
          2   -1    0    0  501    0  0.00000000000E+00  0.00000000000E+00  0.63592009897E+03  0.63592009897E+03  0.00000000000E+00 0. -1.
         -2   -1    0    0    0  501 -0.00000000000E+00 -0.00000000000E+00 -0.85977951939E+03  0.85977951939E+03  0.00000000000E+00 0.  1.
         23    2    1    2    0    0  0.11911817687E+03 -0.17534687870E+03  0.34188835509E+03  0.41355313257E+03  0.95931632835E+02 0.  0.
        254    2    1    2    0    0 -0.11911817687E+03  0.17534687870E+03 -0.56574777551E+03  0.10821464858E+04  0.89779441036E+03 0.  0.
         23    2    4    4    0    0  0.28138892214E+03  0.34247168653E+03 -0.41150918658E+03  0.61230590287E+03  0.95457458957E+02 0.  0.
         23    2    4    4    0    0 -0.40050709900E+03 -0.16712480783E+03 -0.15423858893E+03  0.46984058292E+03  0.92865458061E+02 0.  0.
          4    1    3    3  502    0  0.16461273444E+02 -0.78575629110E+02  0.18994020932E+03  0.20620956847E+03  0.00000000000E+00 0. -1.
         -4    1    3    3    0  502  0.10265690342E+03 -0.96771249587E+02  0.15194814577E+03  0.20734356409E+03  0.00000000000E+00 0.  1.
         13    1    5    5    0    0  0.20976730948E+03  0.21349956005E+03 -0.22467476439E+03  0.37425009822E+03  0.00000000000E+00 0. -1.
        -13    1    5    5    0    0  0.71621612655E+02  0.12897212648E+03 -0.18683442219E+03  0.23805580464E+03  0.00000000000E+00 0.  1.
          4    1    6    6  503    0 -0.92120700785E+02 -0.38441597619E+02  0.44456020132E+01  0.99918683528E+02  0.00000000000E+00 0.  1.
         -4    1    6    6    0  503 -0.30838639822E+03 -0.12868321021E+03 -0.15868419094E+03  0.36992189939E+03  0.00000000000E+00 0. -1.
<mgrwt>
<rscale>  0 0.14788524E+04</rscale>
<asrwt>0</asrwt>
<pdfrwt beam="1">  1        2 0.97833861E-01 0.14788524E+04</pdfrwt>
<pdfrwt beam="2">  1       -2 0.13227377E+00 0.14788524E+04</pdfrwt>
<totfact> 0.18571086E+01</totfact>
</mgrwt>
</event>
<event>
12    3  0.4192740E-008  0.2072966E+04  0.7818608E-02  0.8573246E-01
         -2   -1    0    0    0  501 -0.00000000000E+00  0.00000000000E+00  0.58384288645E+03  0.58384288645E+03  0.00000000000E+00 0.  1.
          2   -1    0    0  501    0  0.00000000000E+00 -0.00000000000E+00 -0.18400447793E+04  0.18400447793E+04  0.00000000000E+00 0. -1.
         23    2    1    2    0    0 -0.28781797420E+03 -0.14407850174E+02 -0.14393804369E+04  0.14708417439E+04  0.92263865710E+02 0.  0.
        254    2    1    2    0    0  0.28781797420E+03  0.14407850174E+02  0.18317854405E+03  0.95304592190E+03  0.88977265514E+03 0.  0.
         23    2    4    4    0    0  0.52564135234E+03 -0.21585162826E+03  0.20077471821E+03  0.60977907937E+03  0.92893925821E+02 0.  0.
         23    2    4    4    0    0 -0.23782337814E+03  0.23025947843E+03 -0.17596174161E+02  0.34326684253E+03  0.89124145103E+02 0.  0.
          1    1    3    3  502    0 -0.25946783429E+03  0.11352435154E+02 -0.13251103587E+04  0.13503221459E+04  0.00000000000E+00 0. -1.
         -1    1    3    3    0  502 -0.28350139909E+02 -0.25760285328E+02 -0.11427007815E+03  0.12051959796E+03  0.00000000000E+00 0.  1.
         13    1    5    5    0    0  0.71199526178E+02 -0.57515462376E+02  0.98626579946E+01  0.92057986959E+02  0.00000000000E+00 0. -1.
        -13    1    5    5    0    0  0.45444182616E+03 -0.15833616588E+03  0.19091206022E+03  0.51772109241E+03  0.00000000000E+00 0.  1.
          3    1    6    6  503    0 -0.27979376376E+02  0.79599191904E+02 -0.81614497227E+01  0.84767246716E+02  0.00000000000E+00 0. -1.
         -3    1    6    6    0  503 -0.20984400176E+03  0.15066028653E+03 -0.94347244383E+01  0.25849959581E+03  0.00000000000E+00 0.  1.
<mgrwt>
<rscale>  0 0.20729660E+04</rscale>
<asrwt>0</asrwt>
<pdfrwt beam="1">  1        2 0.28308381E+00 0.20729660E+04</pdfrwt>
<pdfrwt beam="2">  1       -2 0.89821985E-01 0.20729660E+04</pdfrwt>
<totfact> 0.80381622E+00</totfact>
</mgrwt>
</event>
<event>
12    3  0.4192740E-008  0.1218370E+04  0.7818608E-02  0.9096928E-01
          1   -1    0    0  501    0  0.00000000000E+00  0.00000000000E+00  0.54628127218E+03  0.54628127218E+03  0.00000000000E+00 0. -1.
         -1   -1    0    0    0  501 -0.00000000000E+00 -0.00000000000E+00 -0.67933206152E+03  0.67933206152E+03  0.00000000000E+00 0.  1.
         23    2    1    2    0    0 -0.37973171701E+02  0.11452935979E+03  0.21112481310E+03  0.25861444306E+03  0.88027310718E+02 0.  0.
        254    2    1    2    0    0  0.37973171701E+02 -0.11452935979E+03 -0.34417560243E+03  0.96699889064E+03  0.89558420775E+03 0.  0.
         23    2    4    4    0    0 -0.35865633707E+03 -0.23525279031E+03 -0.31425941354E+02  0.43957562082E+03  0.90889455733E+02 0.  0.
         23    2    4    4    0    0  0.39662950877E+03  0.12072343052E+03 -0.31274966108E+03  0.52742326982E+03  0.92053468910E+02 0.  0.
          1    1    3    3  502    0 -0.55193457335E+02  0.11458987678E+03  0.20304623560E+03  0.23959326239E+03  0.00000000000E+00 0. -1.
         -1    1    3    3    0  502  0.17220285634E+02 -0.60516995043E-01  0.80785775004E+01  0.19021180669E+02  0.00000000000E+00 0.  1.
         13    1    5    5    0    0 -0.17920717359E+02 -0.34881136115E+02 -0.20246271868E+02  0.44133403357E+02  0.00000000000E+00 0. -1.
        -13    1    5    5    0    0 -0.34073561971E+03 -0.20037165419E+03 -0.11179669486E+02  0.39544221746E+03  0.00000000000E+00 0.  1.
          2    1    6    6  503    0  0.10022133205E+03 -0.82958734796E+01 -0.88796205410E+02  0.13415626340E+03  0.00000000000E+00 0. -1.
         -2    1    6    6    0  503  0.29640817672E+03  0.12901930400E+03 -0.22395345567E+03  0.39326700642E+03  0.00000000000E+00 0.  1.
<mgrwt>
<rscale>  0 0.12183700E+04</rscale>
<asrwt>0</asrwt>
<pdfrwt beam="1">  1        1 0.84043272E-01 0.12183700E+04</pdfrwt>
<pdfrwt beam="2">  1       -1 0.10451263E+00 0.12183700E+04</pdfrwt>
<totfact> 0.33334529E+01</totfact>
</mgrwt>
</event>
<event>
12    3  0.4192740E-008  0.2212472E+04  0.7818608E-02  0.8513255E-01
          2   -1    0    0  501    0  0.00000000000E+00  0.00000000000E+00  0.29547094753E+04  0.29547094753E+04  0.00000000000E+00 0. -1.
         -2   -1    0    0    0  501 -0.00000000000E+00 -0.00000000000E+00 -0.41417220860E+03  0.41417220860E+03  0.00000000000E+00 0.  1.
         23    2    1    2    0    0  0.49641154131E+03 -0.12658237077E+03  0.22246847457E+04  0.22852245360E+04  0.10286615981E+03 0.  0.
        254    2    1    2    0    0 -0.49641154131E+03  0.12658237077E+03  0.31585252096E+03  0.10836571479E+04  0.90116728988E+03 0.  0.
         23    2    4    4    0    0 -0.41580166348E+03  0.36510520794E+03  0.50534858115E+03  0.75551606168E+03  0.96096278702E+02 0.  0.
         23    2    4    4    0    0 -0.80609877832E+02 -0.23852283717E+03 -0.18949606019E+03  0.32814108626E+03  0.91524419756E+02 0.  0.
          1    1    3    3  502    0  0.31130822934E+03 -0.34752603350E+02  0.12256396271E+04  0.12650348030E+04  0.00000000000E+00 0. -1.
         -1    1    3    3    0  502  0.18510331197E+03 -0.91829767420E+02  0.99904511861E+03  0.10201897330E+04  0.00000000000E+00 0.  1.
         13    1    5    5    0    0 -0.29149675724E+03  0.29759663546E+03  0.33842080364E+03  0.53671478204E+03  0.00000000000E+00 0. -1.
        -13    1    5    5    0    0 -0.12430490624E+03  0.67508572478E+02  0.16692777750E+03  0.21880127965E+03  0.00000000000E+00 0.  1.
          3    1    6    6  503    0 -0.67428126799E+02 -0.22249237225E+03 -0.13274410816E+03  0.26771329112E+03  0.00000000000E+00 0. -1.
         -3    1    6    6    0  503 -0.13181751033E+02 -0.16030464913E+02 -0.56751952031E+02  0.60427795135E+02  0.00000000000E+00 0.  1.
<mgrwt>
<rscale>  0 0.22124724E+04</rscale>
<asrwt>0</asrwt>
<pdfrwt beam="1">  1        2 0.45457068E+00 0.22124724E+04</pdfrwt>
<pdfrwt beam="2">  1       -2 0.63718803E-01 0.22124724E+04</pdfrwt>
<totfact> 0.38703485E+00</totfact>
</mgrwt>
</event>
<event>
12    3  0.4192740E-008  0.1188518E+04  0.7818608E-02  0.9122967E-01
         -2   -1    0    0    0  501 -0.00000000000E+00  0.00000000000E+00  0.21240115888E+03  0.21240115888E+03  0.00000000000E+00 0.  1.
          2   -1    0    0  501    0  0.00000000000E+00 -0.00000000000E+00 -0.16626256360E+04  0.16626256360E+04  0.00000000000E+00 0. -1.
         23    2    1    2    0    0 -0.20115149987E+03  0.10071903007E+03 -0.17889435221E+03  0.29946062816E+03  0.84066816564E+02 0.  0.
        254    2    1    2    0    0  0.20115149987E+03 -0.10071903007E+03 -0.12713301249E+04  0.15755661667E+04  0.90306268350E+03 0.  0.
         23    2    4    4    0    0  0.33848707362E+02 -0.23918208242E+03 -0.13104553064E+04  0.13357136812E+04  0.92109307686E+02 0.  0.
         23    2    4    4    0    0  0.16730279251E+03  0.13846305236E+03  0.39125181456E+02  0.23985248555E+03  0.94001030595E+02 0.  0.
          4    1    3    3  502    0 -0.10888542640E+03  0.68605106866E+02 -0.14987218989E+03  0.19754586827E+03  0.00000000000E+00 0. -1.
         -4    1    3    3    0  502 -0.92266073468E+02  0.32113923199E+02 -0.29022162326E+02  0.10191475989E+03  0.00000000000E+00 0.  1.
         13    1    5    5    0    0 -0.13444248652E+02 -0.17714671103E+03 -0.81344882269E+03  0.83262277905E+03  0.00000000000E+00 0.  1.
        -13    1    5    5    0    0  0.47292956014E+02 -0.62035371393E+02 -0.49700648370E+03  0.50309090215E+03  0.00000000000E+00 0. -1.
          2    1    6    6  503    0  0.12738826169E+03  0.10652203575E+03  0.69915561913E+02  0.18017463505E+03  0.00000000000E+00 0. -1.
         -2    1    6    6    0  503  0.39914530818E+02  0.31941016605E+02 -0.30790380457E+02  0.59677850505E+02  0.00000000000E+00 0.  1.
<mgrwt>
<rscale>  0 0.11885178E+04</rscale>
<asrwt>0</asrwt>
<pdfrwt beam="1">  1        2 0.25578857E+00 0.11885178E+04</pdfrwt>
<pdfrwt beam="2">  1       -2 0.32677100E-01 0.11885178E+04</pdfrwt>
<totfact> 0.88685319E+01</totfact>
</mgrwt>
</event>
<event>
12    3  0.4192740E-008  0.1414577E+04  0.7818608E-02  0.8943334E-01
          1   -1    0    0  501    0  0.00000000000E+00  0.00000000000E+00  0.57778223467E+03  0.57778223467E+03  0.00000000000E+00 0. -1.
         -1   -1    0    0    0  501 -0.00000000000E+00 -0.00000000000E+00 -0.86582228694E+03  0.86582228694E+03  0.00000000000E+00 0.  1.
         23    2    1    2    0    0 -0.46801100336E+01  0.33700691952E+03 -0.33223407758E+03  0.48217876769E+03  0.92310966179E+02 0.  0.
        254    2    1    2    0    0  0.46801100336E+01 -0.33700691952E+03  0.44194025304E+02  0.96142575392E+03  0.89932797198E+03 0.  0.
         23    2    4    4    0    0 -0.42759084553E+02 -0.60940315602E+03  0.17605106333E+03  0.64229900729E+03  0.91397439741E+02 0.  0.
         23    2    4    4    0    0  0.47439194587E+02  0.27239623650E+03 -0.13185703803E+03  0.31912674663E+03  0.89472985286E+02 0.  0.
          4    1    3    3  502    0  0.19170638096E+01  0.14969429772E+02  0.49367464012E+01  0.15878615380E+02  0.00000000000E+00 0. -1.
         -4    1    3    3    0  502 -0.65971738432E+01  0.32203748975E+03 -0.33717082398E+03  0.46630015231E+03  0.00000000000E+00 0.  1.
         13    1    5    5    0    0 -0.66779439652E+02 -0.38553282260E+03  0.91811481945E+02  0.40190098169E+03  0.00000000000E+00 0.  1.
        -13    1    5    5    0    0  0.24020355098E+02 -0.22387033341E+03  0.84239581384E+02  0.24039802560E+03  0.00000000000E+00 0. -1.
          3    1    6    6  503    0  0.30542131839E+02  0.18607885197E+03 -0.13369020250E+03  0.23115196562E+03  0.00000000000E+00 0. -1.
         -3    1    6    6    0  503  0.16897062748E+02  0.86317384526E+02  0.18331644708E+01  0.87974781005E+02  0.00000000000E+00 0.  1.
<mgrwt>
<rscale>  0 0.14145766E+04</rscale>
<asrwt>0</asrwt>
<pdfrwt beam="1">  1        1 0.88889575E-01 0.14145766E+04</pdfrwt>
<pdfrwt beam="2">  1       -1 0.13320343E+00 0.14145766E+04</pdfrwt>
<totfact> 0.16793939E+01</totfact>
</mgrwt>
</event>
<event>
12    3  0.4192740E-008  0.2208025E+04  0.7818608E-02  0.8515096E-01
          1   -1    0    0  501    0  0.00000000000E+00  0.00000000000E+00  0.68391446338E+03  0.68391446338E+03  0.00000000000E+00 0. -1.
         -1   -1    0    0    0  501 -0.00000000000E+00 -0.00000000000E+00 -0.17821573070E+04  0.17821573070E+04  0.00000000000E+00 0.  1.
         23    2    1    2    0    0  0.86331152298E+03 -0.31437632208E+03 -0.49971689724E+03  0.10499152067E+04  0.92009272376E+02 0.  0.
        254    2    1    2    0    0 -0.86331152298E+03  0.31437632208E+03 -0.59852594641E+03  0.14161565638E+04  0.89617344691E+03 0.  0.
         23    2    4    4    0    0 -0.51546701486E+03  0.59005627408E+02 -0.77814139047E+03  0.93983480996E+03  0.92722915018E+02 0.  0.
         23    2    4    4    0    0 -0.34784450813E+03  0.25537069467E+03  0.17961544406E+03  0.47632175380E+03  0.91709933290E+02 0.  0.
          4    1    3    3  502    0  0.34727057268E+03 -0.13260730313E+03 -0.25356635036E+03  0.44997493434E+03  0.00000000000E+00 0.  1.
         -4    1    3    3    0  502  0.51604095030E+03 -0.18176901895E+03 -0.24615054688E+03  0.59994027233E+03  0.00000000000E+00 0. -1.
         13    1    5    5    0    0 -0.11986036408E+03 -0.94415500767E+01 -0.12713638496E+03  0.17498374246E+03  0.00000000000E+00 0. -1.
        -13    1    5    5    0    0 -0.39560665077E+03  0.68447177485E+02 -0.65100500552E+03  0.76485106750E+03  0.00000000000E+00 0.  1.
          2    1    6    6  503    0 -0.13383322821E+03  0.91918939680E+02  0.11622374997E+03  0.19967069014E+03  0.00000000000E+00 0. -1.
         -2    1    6    6    0  503 -0.21401127991E+03  0.16345175499E+03  0.63391694091E+02  0.27665106365E+03  0.00000000000E+00 0.  1.
<mgrwt>
<rscale>  0 0.22080246E+04</rscale>
<asrwt>0</asrwt>
<pdfrwt beam="1">  1        1 0.10521761E+00 0.22080246E+04</pdfrwt>
<pdfrwt beam="2">  1       -1 0.27417804E+00 0.22080246E+04</pdfrwt>
<totfact> 0.12483355E+00</totfact>
</mgrwt>
</event>
<event>
12    3  0.4192740E-008  0.1502228E+04  0.7818608E-02  0.8882973E-01
         -1   -1    0    0    0  501 -0.00000000000E+00  0.00000000000E+00  0.39729819420E+03  0.39729819420E+03  0.00000000000E+00 0.  1.
          1   -1    0    0  501    0  0.00000000000E+00 -0.00000000000E+00 -0.14200223845E+04  0.14200223845E+04  0.00000000000E+00 0. -1.
         23    2    1    2    0    0 -0.42503244358E+03 -0.12783419267E+03 -0.10809920496E+03  0.46552437128E+03  0.89628919601E+02 0.  0.
        254    2    1    2    0    0  0.42503244358E+03  0.12783419267E+03 -0.91462498538E+03  0.13517962075E+04  0.89096574779E+03 0.  0.
         23    2    4    4    0    0  0.67378146549E+03 -0.43694939994E+01 -0.50946212765E+03  0.84938628082E+03  0.88909160524E+02 0.  0.
         23    2    4    4    0    0 -0.24874902191E+03  0.13220368667E+03 -0.40516285773E+03  0.50240992665E+03  0.94365790632E+02 0.  0.
          4    1    3    3  502    0 -0.23334554281E+03 -0.65119892707E+02 -0.13181446750E+02  0.24262005959E+03  0.00000000000E+00 0. -1.
         -4    1    3    3    0  502 -0.19168690077E+03 -0.62714299965E+02 -0.94917758207E+02  0.22290431169E+03  0.00000000000E+00 0.  1.
         13    1    5    5    0    0  0.41633705895E+03 -0.43861023723E+02 -0.33042501392E+03  0.53333012842E+03  0.00000000000E+00 0. -1.
        -13    1    5    5    0    0  0.25744440653E+03  0.39491529724E+02 -0.17903711373E+03  0.31605615239E+03  0.00000000000E+00 0.  1.
          4    1    6    6  503    0 -0.22401617435E+03  0.14311864741E+03 -0.33801065398E+03  0.43002022721E+03  0.00000000000E+00 0. -1.
         -4    1    6    6    0  503 -0.24732847556E+02 -0.10914960737E+02 -0.67152203751E+02  0.72389699438E+02  0.00000000000E+00 0.  1.
<mgrwt>
<rscale>  0 0.15022281E+04</rscale>
<asrwt>0</asrwt>
<pdfrwt beam="1">  1        1 0.21846498E+00 0.15022281E+04</pdfrwt>
<pdfrwt beam="2">  1       -1 0.61122800E-01 0.15022281E+04</pdfrwt>
<totfact> 0.19528148E+01</totfact>
</mgrwt>
</event>
<event>
12    3  0.4192740E-008  0.1342457E+04  0.7818608E-02  0.8996557E-01
         -2   -1    0    0    0  501 -0.00000000000E+00  0.00000000000E+00  0.70611240624E+03  0.70611240624E+03  0.00000000000E+00 0.  1.
          2   -1    0    0  501    0  0.00000000000E+00 -0.00000000000E+00 -0.63806838424E+03  0.63806838424E+03  0.00000000000E+00 0. -1.
         23    2    1    2    0    0  0.18542588208E+03 -0.79659425158E+02  0.30985296370E+03  0.38060728314E+03  0.90136913126E+02 0.  0.
        254    2    1    2    0    0 -0.18542588208E+03  0.79659425158E+02 -0.24180894170E+03  0.96357350734E+03  0.91064480342E+03 0.  0.
         23    2    4    4    0    0 -0.14490032339E+03 -0.21384862643E+03  0.25710568906E+03  0.37574652498E+03  0.91404468951E+02 0.  0.
         23    2    4    4    0    0 -0.40525558691E+02  0.29350805159E+03 -0.49891463076E+03  0.58782698236E+03  0.93997101812E+02 0.  0.
          4    1    3    3  502    0  0.66261281546E+02 -0.77172172370E+02  0.13641049459E+03  0.17015852801E+03  0.00000000000E+00 0. -1.
         -4    1    3    3    0  502  0.11916460053E+03 -0.24872527882E+01  0.17344246911E+03  0.21044875513E+03  0.00000000000E+00 0.  1.
         13    1    5    5    0    0 -0.78550637397E+02 -0.15101861024E+03  0.21739967433E+03  0.27611490665E+03  0.00000000000E+00 0. -1.
        -13    1    5    5    0    0 -0.66349685991E+02 -0.62830016194E+02  0.39706014725E+02  0.99631618332E+02  0.00000000000E+00 0.  1.
          2    1    6    6  503    0  0.13603234164E+02  0.17885865993E+03 -0.24092147975E+03  0.30036415834E+03  0.00000000000E+00 0. -1.
         -2    1    6    6    0  503 -0.54128792855E+02  0.11464939166E+03 -0.25799315101E+03  0.28746282402E+03  0.00000000000E+00 0.  1.
<mgrwt>
<rscale>  0 0.13424575E+04</rscale>
<asrwt>0</asrwt>
<pdfrwt beam="1">  1        2 0.98164367E-01 0.13424575E+04</pdfrwt>
<pdfrwt beam="2">  1       -2 0.10863268E+00 0.13424575E+04</pdfrwt>
<totfact> 0.30449586E+01</totfact>
</mgrwt>
</event>
<event>
12    3  0.4192740E-008  0.2369674E+04  0.7818608E-02  0.8450945E-01
          2   -1    0    0  501    0  0.00000000000E+00  0.00000000000E+00  0.37136264167E+04  0.37136264167E+04  0.00000000000E+00 0. -1.
         -2   -1    0    0    0  501 -0.00000000000E+00 -0.00000000000E+00 -0.37802366746E+03  0.37802366746E+03  0.00000000000E+00 0.  1.
         23    2    1    2    0    0 -0.49311202730E+03 -0.66290198646E+03  0.24412289334E+04  0.25788732789E+04  0.91597861196E+02 0.  0.
        254    2    1    2    0    0  0.49311202730E+03  0.66290198646E+03  0.89437381587E+03  0.15127768053E+04  0.89776980627E+03 0.  0.
         23    2    4    4    0    0  0.58075141036E+03  0.84326254204E+02  0.62539104906E+03  0.86230512626E+03  0.89850146043E+02 0.  0.
         23    2    4    4    0    0 -0.87639383061E+02  0.57857573225E+03  0.26898276681E+03  0.65047167905E+03  0.91275062286E+02 0.  0.
          1    1    3    3  502    0 -0.49235374298E+03 -0.63770358560E+03  0.23797323750E+04  0.25124100477E+04  0.00000000000E+00 0. -1.
         -1    1    3    3    0  502 -0.75828431678E+00 -0.25198400853E+02  0.61496558411E+02  0.66463231166E+02  0.00000000000E+00 0.  1.
         13    1    5    5    0    0  0.55852199482E+03  0.80815445783E+02  0.62146172732E+03  0.83945972715E+03  0.00000000000E+00 0.  1.
        -13    1    5    5    0    0  0.22229415546E+02  0.35108084213E+01  0.39293217316E+01  0.22845399111E+02  0.00000000000E+00 0. -1.
          4    1    6    6  503    0  0.18520351002E+02  0.68805453400E+02  0.25849301065E+02  0.75798286157E+02  0.00000000000E+00 0. -1.
         -4    1    6    6    0  503 -0.10615973406E+03  0.50977027885E+03  0.24313346575E+03  0.57467339290E+03  0.00000000000E+00 0.  1.
<mgrwt>
<rscale>  0 0.23696740E+04</rscale>
<asrwt>0</asrwt>
<pdfrwt beam="1">  1        2 0.57132711E+00 0.23696740E+04</pdfrwt>
<pdfrwt beam="2">  1       -2 0.58157490E-01 0.23696740E+04</pdfrwt>
<totfact> 0.14266627E+00</totfact>
</mgrwt>
</event>
<event>
12    3  0.4192740E-008  0.1332879E+04  0.7818608E-02  0.9003891E-01
          2   -1    0    0  501    0  0.00000000000E+00  0.00000000000E+00  0.30877077709E+04  0.30877077709E+04  0.00000000000E+00 0. -1.
         -2   -1    0    0    0  501 -0.00000000000E+00 -0.00000000000E+00 -0.14384175667E+03  0.14384175667E+03  0.00000000000E+00 0.  1.
         23    2    1    2    0    0  0.28367193910E+03  0.16607285020E+03  0.52521952955E+03  0.62625453197E+03  0.91045175463E+02 0.  0.
        254    2    1    2    0    0 -0.28367193910E+03 -0.16607285020E+03  0.24186464847E+04  0.26052949956E+04  0.91085741788E+03 0.  0.
         23    2    4    4    0    0 -0.27370589833E+03  0.16489259361E+03  0.21334859271E+04  0.21591426468E+04  0.89611841233E+02 0.  0.
         23    2    4    4    0    0 -0.99660407694E+01 -0.33096544382E+03  0.28516055763E+03  0.44615234881E+03  0.89988486796E+02 0.  0.
          1    1    3    3  502    0 -0.66618798740E+01  0.82949927714E+01  0.15528022908E+02  0.18823045555E+02  0.00000000000E+00 0. -1.
         -1    1    3    3    0  502  0.29033381898E+03  0.15777785743E+03  0.50969150664E+03  0.60743148641E+03  0.00000000000E+00 0.  1.
         13    1    5    5    0    0 -0.18936996880E+03  0.15095620182E+03  0.17151490568E+04  0.17321619575E+04  0.00000000000E+00 0.  1.
        -13    1    5    5    0    0 -0.84335929536E+02  0.13936391793E+02  0.41833687024E+03  0.42698068930E+03  0.00000000000E+00 0. -1.
          4    1    6    6  503    0 -0.98428762725E+01 -0.30293247222E+03  0.21791848212E+03  0.37330072300E+03  0.00000000000E+00 0.  1.
         -4    1    6    6    0  503 -0.12316449686E+00 -0.28032971596E+02  0.67242075504E+02  0.72851625817E+02  0.00000000000E+00 0. -1.
<mgrwt>
<rscale>  0 0.13328786E+04</rscale>
<asrwt>0</asrwt>
<pdfrwt beam="1">  1        2 0.47503192E+00 0.13328786E+04</pdfrwt>
<pdfrwt beam="2">  1       -2 0.22129503E-01 0.13328786E+04</pdfrwt>
<totfact> 0.27097790E+01</totfact>
</mgrwt>
</event>
<event>
12    3  0.4192740E-008  0.1819013E+04  0.7818608E-02  0.8696254E-01
          2   -1    0    0  501    0  0.00000000000E+00  0.00000000000E+00  0.18440577528E+04  0.18440577528E+04  0.00000000000E+00 0. -1.
         -2   -1    0    0    0  501 -0.00000000000E+00 -0.00000000000E+00 -0.44857692903E+03  0.44857692903E+03  0.00000000000E+00 0.  1.
         23    2    1    2    0    0  0.22928620988E+03 -0.58331115030E+03  0.16143827840E+03  0.65365904305E+03  0.91562889438E+02 0.  0.
        254    2    1    2    0    0 -0.22928620988E+03  0.58331115030E+03  0.12340425453E+04  0.16389756387E+04  0.87781323560E+03 0.  0.
         23    2    4    4    0    0  0.28891859488E+03  0.36912431069E+03  0.76505948196E+03  0.90235358108E+03  0.95912789274E+02 0.  0.
         23    2    4    4    0    0 -0.51820480477E+03  0.21418683962E+03  0.46898306336E+03  0.73662205765E+03  0.90855490493E+02 0.  0.
          1    1    3    3  502    0 -0.66484389196E+01 -0.26400111599E+02 -0.15118751945E+01  0.27266341873E+02  0.00000000000E+00 0. -1.
         -1    1    3    3    0  502  0.23593464880E+03 -0.55691103870E+03  0.16295015360E+03  0.62639270118E+03  0.00000000000E+00 0.  1.
         13    1    5    5    0    0  0.16304005893E+03  0.13259935026E+03  0.35404289586E+03  0.41171716094E+03  0.00000000000E+00 0. -1.
        -13    1    5    5    0    0  0.12587853596E+03  0.23652496043E+03  0.41101658609E+03  0.49063642014E+03  0.00000000000E+00 0.  1.
          2    1    6    6  503    0 -0.10724168419E+02 -0.92986747691E-01  0.31176144102E+02  0.32969203750E+02  0.00000000000E+00 0. -1.
         -2    1    6    6    0  503 -0.50748063635E+03  0.21427982637E+03  0.43780691926E+03  0.70365285390E+03  0.00000000000E+00 0.  1.
<mgrwt>
<rscale>  0 0.18190127E+04</rscale>
<asrwt>0</asrwt>
<pdfrwt beam="1">  1        2 0.28370119E+00 0.18190127E+04</pdfrwt>
<pdfrwt beam="2">  1       -2 0.69011836E-01 0.18190127E+04</pdfrwt>
<totfact> 0.14741242E+01</totfact>
</mgrwt>
</event>
<event>
12    3  0.4192740E-008  0.1336899E+04  0.7818608E-02  0.9000805E-01
          1   -1    0    0  501    0  0.00000000000E+00  0.00000000000E+00  0.12526047618E+04  0.12526047618E+04  0.00000000000E+00 0. -1.
         -1   -1    0    0    0  501 -0.00000000000E+00 -0.00000000000E+00 -0.35671655187E+03  0.35671655187E+03  0.00000000000E+00 0.  1.
         23    2    1    2    0    0 -0.29694208664E+03 -0.28213888788E+02  0.65316086680E+01  0.31285118306E+03  0.94141247570E+02 0.  0.
        254    2    1    2    0    0  0.29694208664E+03  0.28213888788E+02  0.88935660130E+03  0.12964701306E+04  0.89493519823E+03 0.  0.
         23    2    4    4    0    0  0.26383371926E+03 -0.39757956409E+03  0.60420013986E+03  0.77520407906E+03  0.90585948078E+02 0.  0.
         23    2    4    4    0    0  0.33108367381E+02  0.42579345288E+03  0.28515646144E+03  0.52126605158E+03  0.89486650003E+02 0.  0.
          1    1    3    3  502    0 -0.13636687882E+01  0.28735998855E+01 -0.14551997446E+02  0.14895563049E+02  0.00000000000E+00 0. -1.
         -1    1    3    3    0  502 -0.29557841785E+03 -0.31087488674E+02  0.21083606114E+02  0.29795562001E+03  0.00000000000E+00 0.  1.
         13    1    5    5    0    0  0.75122235613E+02 -0.50208151070E+02  0.11306264741E+03  0.14473206610E+03  0.00000000000E+00 0. -1.
        -13    1    5    5    0    0  0.18871148364E+03 -0.34737141302E+03  0.49113749245E+03  0.63047201297E+03  0.00000000000E+00 0.  1.
          2    1    6    6  503    0  0.32932848149E+02  0.29291758837E+03  0.14629005031E+03  0.32906848054E+03  0.00000000000E+00 0.  1.
         -2    1    6    6    0  503  0.17551923269E+00  0.13287586450E+03  0.13886641113E+03  0.19219757104E+03  0.00000000000E+00 0. -1.
<mgrwt>
<rscale>  0 0.13368992E+04</rscale>
<asrwt>0</asrwt>
<pdfrwt beam="1">  1        1 0.19270842E+00 0.13368992E+04</pdfrwt>
<pdfrwt beam="2">  1       -1 0.54879470E-01 0.13368992E+04</pdfrwt>
<totfact> 0.32162709E+01</totfact>
</mgrwt>
</event>
<event>
12    3  0.4192740E-008  0.2420837E+04  0.7818608E-02  0.8431743E-01
          1   -1    0    0  501    0  0.00000000000E+00  0.00000000000E+00  0.22061403640E+04  0.22061403640E+04  0.00000000000E+00 0. -1.
         -1   -1    0    0    0  501 -0.00000000000E+00 -0.00000000000E+00 -0.66410696300E+03  0.66410696300E+03  0.00000000000E+00 0.  1.
         23    2    1    2    0    0  0.61950152527E+01 -0.72876740102E+03  0.15469496529E+04  0.17124826349E+04  0.91669206969E+02 0.  0.
        254    2    1    2    0    0 -0.61950152527E+01  0.72876740102E+03 -0.49162518544E+01  0.11577646921E+04  0.89958579894E+03 0.  0.
         23    2    4    4    0    0 -0.97864251619E+01  0.54208302842E+03 -0.42110604570E+03  0.69252283610E+03  0.91147095244E+02 0.  0.
         23    2    4    4    0    0  0.35914099092E+01  0.18668437260E+03  0.41618979385E+03  0.46524185597E+03  0.91499108444E+02 0.  0.
          3    1    3    3  502    0 -0.31861099586E+02 -0.58329930094E+03  0.12280556094E+04  0.13599168298E+04  0.00000000000E+00 0. -1.
         -3    1    3    3    0  502  0.38056114838E+02 -0.14546810008E+03  0.31889404347E+03  0.35256580518E+03  0.00000000000E+00 0.  1.
         13    1    5    5    0    0 -0.70317885327E+00  0.32983035063E+03 -0.31058558936E+03  0.45304741802E+03  0.00000000000E+00 0. -1.
        -13    1    5    5    0    0 -0.90832463086E+01  0.21225267779E+03 -0.11052045634E+03  0.23947541808E+03  0.00000000000E+00 0.  1.
          2    1    6    6  503    0  0.92617443568E+01  0.10400856080E+03  0.12701648601E+03  0.16442855089E+03  0.00000000000E+00 0. -1.
         -2    1    6    6    0  503 -0.56703344476E+01  0.82675811796E+02  0.28917330783E+03  0.30081330508E+03  0.00000000000E+00 0.  1.
<mgrwt>
<rscale>  0 0.24208372E+04</rscale>
<asrwt>0</asrwt>
<pdfrwt beam="1">  1        1 0.33940621E+00 0.24208372E+04</pdfrwt>
<pdfrwt beam="2">  1       -1 0.10217030E+00 0.24208372E+04</pdfrwt>
<totfact> 0.17503242E+00</totfact>
</mgrwt>
</event>
<event>
12    3  0.4192740E-008  0.1449194E+04  0.7818608E-02  0.8918959E-01
          1   -1    0    0  501    0  0.00000000000E+00  0.00000000000E+00  0.82083779538E+03  0.82083779538E+03  0.00000000000E+00 0. -1.
         -1   -1    0    0    0  501 -0.00000000000E+00 -0.00000000000E+00 -0.63964045634E+03  0.63964045634E+03  0.00000000000E+00 0.  1.
         23    2    1    2    0    0 -0.39156676642E+03 -0.19543386418E+03  0.23216703653E+02  0.44759278682E+03  0.91001976094E+02 0.  0.
        254    2    1    2    0    0  0.39156676642E+03  0.19543386418E+03  0.15798063538E+03  0.10128854649E+04  0.89970003668E+03 0.  0.
         23    2    4    4    0    0 -0.15443343029E+03  0.34518668075E+03 -0.71064648028E+02  0.39565732438E+03  0.92146650382E+02 0.  0.
         23    2    4    4    0    0  0.54600019671E+03 -0.14975281658E+03  0.22904528341E+03  0.61722814051E+03  0.89256454748E+02 0.  0.
          3    1    3    3  502    0 -0.25013733396E+03 -0.16857082000E+03  0.32224113444E+02  0.30335326055E+03  0.00000000000E+00 0. -1.
         -3    1    3    3    0  502 -0.14142943246E+03 -0.26863044174E+02 -0.90074097910E+01  0.14423952628E+03  0.00000000000E+00 0.  1.
         13    1    5    5    0    0 -0.42327709579E+02  0.15619455543E+03 -0.68956019956E+02  0.17590709717E+03  0.00000000000E+00 0.  1.
        -13    1    5    5    0    0 -0.11210572071E+03  0.18899212532E+03 -0.21086280725E+01  0.21975022721E+03  0.00000000000E+00 0. -1.
          2    1    6    6  503    0  0.48758832285E+03 -0.11968215828E+03  0.17349671228E+03  0.53119422132E+03  0.00000000000E+00 0. -1.
         -2    1    6    6    0  503  0.58411873857E+02 -0.30070658298E+02  0.55548571126E+02  0.86033919195E+02  0.00000000000E+00 0.  1.
<mgrwt>
<rscale>  0 0.14491943E+04</rscale>
<asrwt>0</asrwt>
<pdfrwt beam="1">  1        1 0.12628274E+00 0.14491943E+04</pdfrwt>
<pdfrwt beam="2">  1       -1 0.98406224E-01 0.14491943E+04</pdfrwt>
<totfact> 0.20375157E+01</totfact>
</mgrwt>
</event>
<event>
12    3  0.4192740E-008  0.1017772E+04  0.7818608E-02  0.9289265E-01
          1   -1    0    0  501    0  0.00000000000E+00  0.00000000000E+00  0.85386027909E+03  0.85386027909E+03  0.00000000000E+00 0. -1.
         -1   -1    0    0    0  501 -0.00000000000E+00 -0.00000000000E+00 -0.30328705515E+03  0.30328705515E+03  0.00000000000E+00 0.  1.
         23    2    1    2    0    0 -0.89407082346E+01 -0.60006725149E+01  0.23821092306E+02  0.11583230145E+03  0.11284384469E+03 0.  0.
        254    2    1    2    0    0  0.89407082346E+01  0.60006725149E+01  0.52675213163E+03  0.10413150328E+04  0.89819443608E+03 0.  0.
         23    2    4    4    0    0  0.43819105800E+03  0.12607425747E+02  0.18196827921E+03  0.48331648661E+03  0.91170286254E+02 0.  0.
         23    2    4    4    0    0 -0.42925034977E+03 -0.66067532325E+01  0.34478385242E+03  0.55799854618E+03  0.90481825154E+02 0.  0.
          2    1    3    3  502    0 -0.38129681515E+02  0.37304872907E+01  0.58211071784E+02  0.69687287407E+02  0.00000000000E+00 0. -1.
         -2    1    3    3    0  502  0.29188973280E+02 -0.97311598056E+01 -0.34389979478E+02  0.46145014040E+02  0.00000000000E+00 0.  1.
         13    1    5    5    0    0  0.26422916936E+03 -0.18777318665E+02  0.69713807934E+02  0.27391541880E+03  0.00000000000E+00 0.  1.
        -13    1    5    5    0    0  0.17396188864E+03  0.31384744412E+02  0.11225447127E+03  0.20940106782E+03  0.00000000000E+00 0. -1.
          4    1    6    6  503    0 -0.92080357434E+02 -0.38912300914E+02  0.82260196648E+02  0.12945925745E+03  0.00000000000E+00 0. -1.
         -4    1    6    6    0  503 -0.33716999233E+03  0.32305547682E+02  0.26252365577E+03  0.42853928873E+03  0.00000000000E+00 0.  1.
<mgrwt>
<rscale>  0 0.10177716E+04</rscale>
<asrwt>0</asrwt>
<pdfrwt beam="1">  1        1 0.13136312E+00 0.10177716E+04</pdfrwt>
<pdfrwt beam="2">  1       -1 0.46659547E-01 0.10177716E+04</pdfrwt>
<totfact> 0.91050016E+01</totfact>
</mgrwt>
</event>
<event>
12    3  0.4192740E-008  0.2124177E+04  0.7818608E-02  0.8550667E-01
          1   -1    0    0  501    0  0.00000000000E+00  0.00000000000E+00  0.14204959850E+04  0.14204959850E+04  0.00000000000E+00 0. -1.
         -1   -1    0    0    0  501 -0.00000000000E+00 -0.00000000000E+00 -0.79411151919E+03  0.79411151919E+03  0.00000000000E+00 0.  1.
         23    2    1    2    0    0 -0.72847542277E+01  0.25339340867E+03  0.11213247077E+04  0.11527187364E+04  0.84439907878E+02 0.  0.
        254    2    1    2    0    0  0.72847542277E+01 -0.25339340867E+03 -0.49494024187E+03  0.10618887678E+04  0.90464392161E+03 0.  0.
         23    2    4    4    0    0  0.10091793482E+02  0.16683819454E+03  0.17951562071E+03  0.26191593831E+03  0.91854630869E+02 0.  0.
         23    2    4    4    0    0 -0.28070392540E+01 -0.42023160320E+03 -0.67445586258E+03  0.79997282946E+03  0.91996399457E+02 0.  0.
          3    1    3    3  502    0 -0.12412248711E+02  0.87645929192E+02  0.57524473905E+03  0.58201579242E+03  0.00000000000E+00 0. -1.
         -3    1    3    3    0  502  0.51274944836E+01  0.16574747947E+03  0.54607996862E+03  0.57070294399E+03  0.00000000000E+00 0.  1.
         13    1    5    5    0    0  0.15778020855E+01  0.14318464717E+03  0.90444335214E+02  0.16936502124E+03  0.00000000000E+00 0.  1.
        -13    1    5    5    0    0  0.85139913961E+01  0.23653547363E+02  0.89071285493E+02  0.92550917077E+02  0.00000000000E+00 0. -1.
          1    1    6    6  503    0 -0.40777846079E+02 -0.12347037930E+03 -0.22977297632E+03  0.26401399195E+03  0.00000000000E+00 0. -1.
         -1    1    6    6    0  503  0.37970806825E+02 -0.29676122390E+03 -0.44468288625E+03  0.53595883752E+03  0.00000000000E+00 0.  1.
<mgrwt>
<rscale>  0 0.21241772E+04</rscale>
<asrwt>0</asrwt>
<pdfrwt beam="1">  1        1 0.21853784E+00 0.21241772E+04</pdfrwt>
<pdfrwt beam="2">  1       -1 0.12217100E+00 0.21241772E+04</pdfrwt>
<totfact> 0.40405556E+00</totfact>
</mgrwt>
</event>
<event>
12    3  0.4192740E-008  0.1284988E+04  0.7818608E-02  0.9041555E-01
         -2   -1    0    0    0  501 -0.00000000000E+00  0.00000000000E+00  0.34318949582E+03  0.34318949582E+03  0.00000000000E+00 0.  1.
          2   -1    0    0  501    0  0.00000000000E+00 -0.00000000000E+00 -0.12028301197E+04  0.12028301197E+04  0.00000000000E+00 0. -1.
         23    2    1    2    0    0 -0.85610068527E+01  0.75310326585E+02  0.15548432923E+03  0.19521757596E+03  0.90496349101E+02 0.  0.
        254    2    1    2    0    0  0.85610068527E+01 -0.75310326585E+02 -0.10151249531E+04  0.13508020396E+04  0.88794287176E+03 0.  0.
         23    2    4    4    0    0 -0.42541136791E+03 -0.37351664044E+02 -0.60013478031E+03  0.74255803469E+03  0.94131299732E+02 0.  0.
         23    2    4    4    0    0  0.43397237476E+03 -0.37958662541E+02 -0.41499017282E+03  0.60824400488E+03  0.89280702367E+02 0.  0.
          3    1    3    3  502    0 -0.40491460280E+02  0.73313722759E+02  0.93935601491E+02  0.12585053646E+03  0.00000000000E+00 0. -1.
         -3    1    3    3    0  502  0.31930453428E+02  0.19966038258E+01  0.61548727739E+02  0.69367039502E+02  0.00000000000E+00 0.  1.
         13    1    5    5    0    0 -0.38061582039E+03 -0.41110928612E+02 -0.57577253046E+03  0.69142788345E+03  0.00000000000E+00 0. -1.
        -13    1    5    5    0    0 -0.44795547526E+02  0.37592645676E+01 -0.24362249855E+02  0.51130151244E+02  0.00000000000E+00 0.  1.
          3    1    6    6  503    0  0.39901424406E+03 -0.22505066360E+02 -0.34265912958E+03  0.52643529903E+03  0.00000000000E+00 0. -1.
         -3    1    6    6    0  503  0.34958130701E+02 -0.15453596181E+02 -0.72331043243E+02  0.81808705855E+02  0.00000000000E+00 0.  1.
<mgrwt>
<rscale>  0 0.12849882E+04</rscale>
<asrwt>0</asrwt>
<pdfrwt beam="1">  1        2 0.18505079E+00 0.12849882E+04</pdfrwt>
<pdfrwt beam="2">  1       -2 0.52798383E-01 0.12849882E+04</pdfrwt>
<totfact> 0.62629828E+01</totfact>
</mgrwt>
</event>
<event>
12    3  0.4192740E-008  0.1841120E+04  0.7818608E-02  0.8684733E-01
          2   -1    0    0  501    0  0.00000000000E+00  0.00000000000E+00  0.18774214963E+04  0.18774214963E+04  0.00000000000E+00 0. -1.
         -2   -1    0    0    0  501 -0.00000000000E+00 -0.00000000000E+00 -0.45138031017E+03  0.45138031017E+03  0.00000000000E+00 0.  1.
         23    2    1    2    0    0  0.50886622693E+02 -0.27883666205E+03 -0.26360727939E+03  0.39637681706E+03  0.85360710418E+02 0.  0.
        254    2    1    2    0    0 -0.50886622693E+02  0.27883666205E+03  0.16896484655E+04  0.19324249894E+04  0.89387642891E+03 0.  0.
         23    2    4    4    0    0 -0.22056591813E+03  0.18774596400E+03  0.87174069100E+02  0.31585912259E+03  0.90938417394E+02 0.  0.
         23    2    4    4    0    0  0.16967929544E+03  0.91090698048E+02  0.16024743964E+04  0.16165658668E+04  0.90952910927E+02 0.  0.
          2    1    3    3  502    0  0.41237996756E+02 -0.27817818513E+03 -0.26523935873E+03  0.38656900093E+03  0.00000000000E+00 0.  1.
         -2    1    3    3    0  502  0.96486259372E+01 -0.65847692085E+00  0.16320793400E+01  0.98078161332E+01  0.00000000000E+00 0. -1.
         13    1    5    5    0    0 -0.47006080257E+02  0.60636812107E+02  0.63197554061E+02  0.99399825970E+02  0.00000000000E+00 0. -1.
        -13    1    5    5    0    0 -0.17355983788E+03  0.12710915189E+03  0.23976515039E+02  0.21645929662E+03  0.00000000000E+00 0.  1.
          4    1    6    6  503    0  0.13574966700E+03  0.25067347935E+02  0.11032065441E+04  0.11118097962E+04  0.00000000000E+00 0. -1.
         -4    1    6    6    0  503  0.33929628442E+02  0.66023350113E+02  0.49926785232E+03  0.50475607060E+03  0.00000000000E+00 0.  1.
<mgrwt>
<rscale>  0 0.18411204E+04</rscale>
<asrwt>0</asrwt>
<pdfrwt beam="1">  1        2 0.28883407E+00 0.18411204E+04</pdfrwt>
<pdfrwt beam="2">  1       -2 0.69443125E-01 0.18411204E+04</pdfrwt>
<totfact> 0.13910581E+01</totfact>
</mgrwt>
</event>
<event>
12    3  0.4192740E-008  0.1077234E+04  0.7818608E-02  0.9227669E-01
         -2   -1    0    0    0  501 -0.00000000000E+00  0.00000000000E+00  0.14219573292E+03  0.14219573292E+03  0.00000000000E+00 0.  1.
          2   -1    0    0  501    0  0.00000000000E+00 -0.00000000000E+00 -0.20402052489E+04  0.20402052489E+04  0.00000000000E+00 0. -1.
         23    2    1    2    0    0  0.16173483612E+02 -0.56485919576E+02 -0.28024415069E+02  0.11148969888E+03  0.90511570721E+02 0.  0.
        254    2    1    2    0    0 -0.16173483612E+02  0.56485919576E+02 -0.18699851009E+04  0.20709112829E+04  0.88790597672E+03 0.  0.
         23    2    4    4    0    0  0.43008303899E+02 -0.40336816987E+03 -0.81481857301E+03  0.91478918393E+03  0.91402130443E+02 0.  0.
         23    2    4    4    0    0 -0.59181787510E+02  0.45985408944E+03 -0.10551665279E+04  0.11561220990E+04  0.90959544106E+02 0.  0.
          1    1    3    3  502    0 -0.27289336225E+02  0.29034805428E+01 -0.26096195524E+02  0.37870166249E+02  0.00000000000E+00 0. -1.
         -1    1    3    3    0  502  0.43462819837E+02 -0.59389400119E+02 -0.19282195447E+01  0.73619532634E+02  0.00000000000E+00 0.  1.
         13    1    5    5    0    0  0.33301772108E+02 -0.20225098110E+03 -0.50807983869E+03  0.54786822309E+03  0.00000000000E+00 0.  1.
        -13    1    5    5    0    0  0.97065317908E+01 -0.20111718877E+03 -0.30673873431E+03  0.36692096084E+03  0.00000000000E+00 0. -1.
          3    1    6    6  503    0 -0.23383624577E+02  0.41020972702E+03 -0.93376975891E+03  0.10201689942E+04  0.00000000000E+00 0. -1.
         -3    1    6    6    0  503 -0.35798162933E+02  0.49644362426E+02 -0.12139676894E+03  0.13595310478E+03  0.00000000000E+00 0.  1.
<mgrwt>
<rscale>  0 0.10772344E+04</rscale>
<asrwt>0</asrwt>
<pdfrwt beam="1">  1        2 0.31387772E+00 0.10772344E+04</pdfrwt>
<pdfrwt beam="2">  1       -2 0.21876268E-01 0.10772344E+04</pdfrwt>
<totfact> 0.11538386E+02</totfact>
</mgrwt>
</event>
<event>
12    3  0.4192740E-008  0.2107876E+04  0.7818608E-02  0.8557782E-01
          1   -1    0    0  501    0  0.00000000000E+00  0.00000000000E+00  0.21993884333E+04  0.21993884333E+04  0.00000000000E+00 0. -1.
         -1   -1    0    0    0  501 -0.00000000000E+00 -0.00000000000E+00 -0.50504282922E+03  0.50504282922E+03  0.00000000000E+00 0.  1.
         23    2    1    2    0    0  0.48405404577E+02  0.78029695056E+03  0.24551871375E+03  0.82467354260E+03  0.92739413441E+02 0.  0.
        254    2    1    2    0    0 -0.48405404577E+02 -0.78029695056E+03  0.14488268904E+04  0.18797577200E+04  0.90729450193E+03 0.  0.
         23    2    4    4    0    0 -0.29403717987E+03 -0.72815049769E+03  0.61151292367E+03  0.99955178417E+03  0.92166713014E+02 0.  0.
         23    2    4    4    0    0  0.24563177530E+03 -0.52146452878E+02  0.83731396669E+03  0.88020593579E+03  0.10302227424E+03 0.  0.
          1    1    3    3  502    0  0.10115064680E+02  0.64923385872E+03  0.18376239801E+03  0.67481518712E+03  0.00000000000E+00 0. -1.
         -1    1    3    3    0  502  0.38290339897E+02  0.13106309184E+03  0.61756315739E+02  0.14985835548E+03  0.00000000000E+00 0.  1.
         13    1    5    5    0    0 -0.25581059669E+03 -0.53026703059E+03  0.44191628040E+03  0.73614684947E+03  0.00000000000E+00 0. -1.
        -13    1    5    5    0    0 -0.38226583186E+02 -0.19788346710E+03  0.16959664327E+03  0.26340493469E+03  0.00000000000E+00 0.  1.
          3    1    6    6  503    0  0.76946006934E+02  0.17681917147E+02  0.37351543651E+03  0.38176841081E+03  0.00000000000E+00 0. -1.
         -3    1    6    6    0  503  0.16868576836E+03 -0.69828370025E+02  0.46379853018E+03  0.49843752498E+03  0.00000000000E+00 0.  1.
<mgrwt>
<rscale>  0 0.21078760E+04</rscale>
<asrwt>0</asrwt>
<pdfrwt beam="1">  1        1 0.33836745E+00 0.21078760E+04</pdfrwt>
<pdfrwt beam="2">  1       -1 0.77698898E-01 0.21078760E+04</pdfrwt>
<totfact> 0.33259497E+00</totfact>
</mgrwt>
</event>
<event>
12    3  0.4192740E-008  0.1815775E+04  0.7818608E-02  0.8697955E-01
         -1   -1    0    0    0  501 -0.00000000000E+00  0.00000000000E+00  0.12822828663E+04  0.12822828663E+04  0.00000000000E+00 0.  1.
          1   -1    0    0  501    0  0.00000000000E+00 -0.00000000000E+00 -0.64280633895E+03  0.64280633895E+03  0.00000000000E+00 0. -1.
         23    2    1    2    0    0 -0.26548010935E+03  0.32761072395E+03  0.83110086064E+03  0.93631802470E+03  0.90301317438E+02 0.  0.
        254    2    1    2    0    0  0.26548010935E+03 -0.32761072395E+03 -0.19162433324E+03  0.98877118060E+03  0.87357889603E+03 0.  0.
         23    2    4    4    0    0 -0.27285996128E+03 -0.88959498896E+00  0.76912664554E+02  0.29765025946E+03  0.90701538810E+02 0.  0.
         23    2    4    4    0    0  0.53834007062E+03 -0.32672112896E+03 -0.26853699779E+03  0.69112092114E+03  0.94759066591E+02 0.  0.
          3    1    3    3  502    0 -0.25822524947E+02  0.61227111202E+01  0.88213851055E+02  0.92119345982E+02  0.00000000000E+00 0. -1.
         -3    1    3    3    0  502 -0.23965758440E+03  0.32148801283E+03  0.74288700958E+03  0.84419867872E+03  0.00000000000E+00 0.  1.
         13    1    5    5    0    0 -0.24774476144E+02  0.28051420048E+02  0.51540359801E+01  0.37778577551E+02  0.00000000000E+00 0.  1.
        -13    1    5    5    0    0 -0.24808548513E+03 -0.28941015037E+02  0.71758628574E+02  0.25987168191E+03  0.00000000000E+00 0. -1.
          1    1    6    6  503    0  0.50212918523E+03 -0.27648142724E+03 -0.22686640756E+03  0.61647714081E+03  0.00000000000E+00 0. -1.
         -1    1    6    6    0  503  0.36210885391E+02 -0.50239701724E+02 -0.41670590238E+02  0.74643780323E+02  0.00000000000E+00 0.  1.
<mgrwt>
<rscale>  0 0.18157748E+04</rscale>
<asrwt>0</asrwt>
<pdfrwt beam="1">  1        1 0.98893283E-01 0.18157748E+04</pdfrwt>
<pdfrwt beam="2">  1       -1 0.19727429E+00 0.18157748E+04</pdfrwt>
<totfact> 0.45855870E+00</totfact>
</mgrwt>
</event>
<event>
12    3  0.4192740E-008  0.1849367E+04  0.7818608E-02  0.8680478E-01
          2   -1    0    0  501    0  0.00000000000E+00  0.00000000000E+00  0.53291875485E+03  0.53291875485E+03  0.00000000000E+00 0. -1.
         -2   -1    0    0    0  501 -0.00000000000E+00 -0.00000000000E+00 -0.16044471288E+04  0.16044471288E+04  0.00000000000E+00 0.  1.
         23    2    1    2    0    0  0.53168195401E+03  0.44266581460E+03 -0.27250921881E+03  0.74889807297E+03  0.89153383132E+02 0.  0.
        254    2    1    2    0    0 -0.53168195401E+03 -0.44266581460E+03 -0.79901915514E+03  0.13884678107E+04  0.90042907959E+03 0.  0.
         23    2    4    4    0    0 -0.73294253505E+03 -0.39438526336E+03 -0.39574160212E+03  0.92606402908E+03  0.90767145376E+02 0.  0.
         23    2    4    4    0    0  0.20126058104E+03 -0.48280551245E+02 -0.40327755301E+03  0.46240378159E+03  0.91365416627E+02 0.  0.
          2    1    3    3  502    0  0.95722432734E+02  0.82628794919E+02 -0.14098678890E+02  0.12723629445E+03  0.00000000000E+00 0. -1.
         -2    1    3    3    0  502  0.43595952128E+03  0.36003701968E+03 -0.25841053992E+03  0.62166177852E+03  0.00000000000E+00 0.  1.
         13    1    5    5    0    0 -0.67156633230E+03 -0.34049784567E+03 -0.33415662035E+03  0.82377227952E+03  0.00000000000E+00 0. -1.
        -13    1    5    5    0    0 -0.61376202747E+02 -0.53887417691E+02 -0.61584981772E+02  0.10229174956E+03  0.00000000000E+00 0.  1.
          3    1    6    6  503    0  0.20912345453E+03 -0.47775272258E+02 -0.36537468116E+03  0.42369063419E+03  0.00000000000E+00 0. -1.
         -3    1    6    6    0  503 -0.78628734885E+01 -0.50527898650E+00 -0.37902871857E+02  0.38713147397E+02  0.00000000000E+00 0.  1.
<mgrwt>
<rscale>  0 0.18493674E+04</rscale>
<asrwt>0</asrwt>
<pdfrwt beam="1">  1        2 0.81987501E-01 0.18493674E+04</pdfrwt>
<pdfrwt beam="2">  1       -2 0.24683802E+00 0.18493674E+04</pdfrwt>
<totfact> 0.36109874E+00</totfact>
</mgrwt>
</event>
<event>
12    3  0.4192740E-008  0.1402096E+04  0.7818608E-02  0.8952303E-01
         -2   -1    0    0    0  501 -0.00000000000E+00  0.00000000000E+00  0.56108429518E+03  0.56108429518E+03  0.00000000000E+00 0.  1.
          2   -1    0    0  501    0  0.00000000000E+00 -0.00000000000E+00 -0.87592546355E+03  0.87592546355E+03  0.00000000000E+00 0. -1.
         23    2    1    2    0    0  0.35241670681E+03 -0.61825181188E+02  0.10895183608E+03  0.38504603046E+03  0.91488003136E+02 0.  0.
        254    2    1    2    0    0 -0.35241670681E+03  0.61825181188E+02 -0.42379300445E+03  0.10519637283E+04  0.89387207514E+03 0.  0.
         23    2    4    4    0    0 -0.54529636893E+03 -0.88038073643E+02 -0.52979573956E+03  0.77025934962E+03  0.86701255079E+02 0.  0.
         23    2    4    4    0    0  0.19287966212E+03  0.14986325483E+03  0.10600273512E+03  0.28170437865E+03  0.91974006610E+02 0.  0.
          2    1    3    3  502    0  0.31592210089E+03 -0.76694454348E+02  0.76454102803E+02  0.33396712862E+03  0.00000000000E+00 0.  1.
         -2    1    3    3    0  502  0.36494605920E+02  0.14869273160E+02  0.32497733274E+02  0.51078901843E+02  0.00000000000E+00 0. -1.
         13    1    5    5    0    0 -0.21187890513E+03 -0.72945545720E+02 -0.18754005028E+03  0.29220710727E+03  0.00000000000E+00 0. -1.
        -13    1    5    5    0    0 -0.33341746380E+03 -0.15092527923E+02 -0.34225568929E+03  0.47805224235E+03  0.00000000000E+00 0.  1.
          1    1    6    6  503    0  0.49649321562E+02  0.73181439368E+02  0.13390997179E+01  0.88444171021E+02  0.00000000000E+00 0. -1.
         -1    1    6    6    0  503  0.14323034056E+03  0.76681815463E+02  0.10466363540E+03  0.19326020763E+03  0.00000000000E+00 0.  1.
<mgrwt>
<rscale>  0 0.14020956E+04</rscale>
<asrwt>0</asrwt>
<pdfrwt beam="1">  1        2 0.13475776E+00 0.14020956E+04</pdfrwt>
<pdfrwt beam="2">  1       -2 0.86320661E-01 0.14020956E+04</pdfrwt>
<totfact> 0.34483198E+01</totfact>
</mgrwt>
</event>
<event>
12    3  0.4192740E-008  0.1661917E+04  0.7818608E-02  0.8783388E-01
         -2   -1    0    0    0  501 -0.00000000000E+00  0.00000000000E+00  0.75708021320E+03  0.75708021320E+03  0.00000000000E+00 0.  1.
          2   -1    0    0  501    0  0.00000000000E+00 -0.00000000000E+00 -0.91204556697E+03  0.91204556697E+03  0.00000000000E+00 0. -1.
         23    2    1    2    0    0  0.20366327861E+03 -0.42966150969E+03 -0.38685049350E+03  0.61966642689E+03  0.90804362943E+02 0.  0.
        254    2    1    2    0    0 -0.20366327861E+03  0.42966150969E+03  0.23188513973E+03  0.10494593533E+04  0.90636994224E+03 0.  0.
         23    2    4    4    0    0  0.25492703856E+03  0.46937530485E+03  0.43708581176E+02  0.54346985554E+03  0.90266671676E+02 0.  0.
         23    2    4    4    0    0 -0.45859031718E+03 -0.39713795159E+02  0.18817655855E+03  0.50598949774E+03  0.93448863570E+02 0.  0.
          4    1    3    3  502    0  0.20287488773E+03 -0.35422499520E+03 -0.31677455430E+03  0.51670076984E+03  0.00000000000E+00 0. -1.
         -4    1    3    3    0  502  0.78839088786E+00 -0.75436514488E+02 -0.70075939195E+02  0.10296565705E+03  0.00000000000E+00 0.  1.
         13    1    5    5    0    0  0.15787385650E+03  0.37253178170E+03  0.32677170550E+02  0.40592102731E+03  0.00000000000E+00 0. -1.
        -13    1    5    5    0    0  0.97053182061E+02  0.96843523153E+02  0.11031410626E+02  0.13754882822E+03  0.00000000000E+00 0.  1.
          3    1    6    6  503    0 -0.32738870901E+03 -0.56014001829E+02  0.16810717989E+03  0.37226463587E+03  0.00000000000E+00 0. -1.
         -3    1    6    6    0  503 -0.13120160816E+03  0.16300206670E+02  0.20069378661E+02  0.13372486187E+03  0.00000000000E+00 0.  1.
<mgrwt>
<rscale>  0 0.16619165E+04</rscale>
<asrwt>0</asrwt>
<pdfrwt beam="1">  1        2 0.14031470E+00 0.16619165E+04</pdfrwt>
<pdfrwt beam="2">  1       -2 0.11647388E+00 0.16619165E+04</pdfrwt>
<totfact> 0.15698219E+01</totfact>
</mgrwt>
</event>
<event>
12    3  0.4192740E-008  0.2951081E+04  0.7818608E-02  0.8257840E-01
         -2   -1    0    0    0  501 -0.00000000000E+00  0.00000000000E+00  0.23195315273E+04  0.23195315273E+04  0.00000000000E+00 0.  1.
          2   -1    0    0  501    0  0.00000000000E+00 -0.00000000000E+00 -0.93864604073E+03  0.93864604073E+03  0.00000000000E+00 0. -1.
         23    2    1    2    0    0  0.15001526365E+03  0.57891162506E+03 -0.68963055134E+03  0.91747802406E+03  0.92370873795E+02 0.  0.
        254    2    1    2    0    0 -0.15001526365E+03 -0.57891162506E+03  0.20705160379E+04  0.23406995440E+04  0.91334245659E+03 0.  0.
         23    2    4    4    0    0 -0.99564539942E+02  0.23422569696E+03  0.45637824290E+03  0.53027421962E+03  0.90193528926E+02 0.  0.
         23    2    4    4    0    0 -0.50450723703E+02 -0.81313732203E+03  0.16141377950E+04  0.18104253244E+04  0.91986161208E+02 0.  0.
          3    1    3    3  502    0  0.13430634755E+03  0.57265352491E+03 -0.66902927503E+03  0.89082569868E+03  0.00000000000E+00 0. -1.
         -3    1    3    3    0  502  0.15708916092E+02  0.62581001544E+01 -0.20601276315E+02  0.26652325379E+02  0.00000000000E+00 0.  1.
         13    1    5    5    0    0 -0.33403846519E-01  0.10967082607E+03  0.16490393569E+03  0.19804292265E+03  0.00000000000E+00 0. -1.
        -13    1    5    5    0    0 -0.99531136096E+02  0.12455487090E+03  0.29147430721E+03  0.33223129696E+03  0.00000000000E+00 0.  1.
          2    1    6    6  503    0 -0.32867044503E+02 -0.14078245401E+03  0.23261978681E+03  0.27388301734E+03  0.00000000000E+00 0. -1.
         -2    1    6    6    0  503 -0.17583679200E+02 -0.67235486801E+03  0.13815180082E+04  0.15365423070E+04  0.00000000000E+00 0.  1.
<mgrwt>
<rscale>  0 0.29510805E+04</rscale>
<asrwt>0</asrwt>
<pdfrwt beam="1">  1        2 0.14440708E+00 0.29510805E+04</pdfrwt>
<pdfrwt beam="2">  1       -2 0.35685100E+00 0.29510805E+04</pdfrwt>
<totfact> 0.33421895E-01</totfact>
</mgrwt>
</event>
<event>
12    3  0.4192740E-008  0.1328488E+04  0.7818608E-02  0.9007274E-01
          1   -1    0    0  501    0  0.00000000000E+00  0.00000000000E+00  0.10368979651E+04  0.10368979651E+04  0.00000000000E+00 0. -1.
         -1   -1    0    0    0  501 -0.00000000000E+00 -0.00000000000E+00 -0.42551946888E+03  0.42551946888E+03  0.00000000000E+00 0.  1.
         23    2    1    2    0    0  0.23980906244E+03 -0.18740671390E+03 -0.24047740344E+02  0.31888936992E+03  0.92100345196E+02 0.  0.
        254    2    1    2    0    0 -0.23980906244E+03  0.18740671390E+03  0.63542623658E+03  0.11435280641E+04  0.90069987697E+03 0.  0.
         23    2    4    4    0    0 -0.23416807941E+03 -0.25702915917E+03  0.58608241087E+03  0.68767238511E+03  0.92206501029E+02 0.  0.
         23    2    4    4    0    0 -0.56409830350E+01  0.44443587307E+03  0.49343825711E+02  0.45585567898E+03  0.88399779206E+02 0.  0.
          2    1    3    3  502    0  0.16724016736E+03 -0.13937895963E+03 -0.58287096324E+02  0.22537336481E+03  0.00000000000E+00 0.  1.
         -2    1    3    3    0  502  0.72568895082E+02 -0.48027754272E+02  0.34239355980E+02  0.93516005111E+02  0.00000000000E+00 0. -1.
         13    1    5    5    0    0 -0.17578414508E+02 -0.21210987229E+02  0.11405162765E+02  0.29815840983E+02  0.00000000000E+00 0.  1.
        -13    1    5    5    0    0 -0.21658966490E+03 -0.23581817194E+03  0.57467724810E+03  0.65785654412E+03  0.00000000000E+00 0. -1.
          1    1    6    6  503    0 -0.15531280629E+02  0.17637923325E+03 -0.21651010156E+02  0.17838055062E+03  0.00000000000E+00 0. -1.
         -1    1    6    6    0  503  0.98902975944E+01  0.26805663982E+03  0.70994835868E+02  0.27747512836E+03  0.00000000000E+00 0.  1.
<mgrwt>
<rscale>  0 0.13284883E+04</rscale>
<asrwt>0</asrwt>
<pdfrwt beam="1">  1        1 0.15952276E+00 0.13284883E+04</pdfrwt>
<pdfrwt beam="2">  1       -1 0.65464534E-01 0.13284883E+04</pdfrwt>
<totfact> 0.32851196E+01</totfact>
</mgrwt>
</event>
<event>
12    3  0.4192740E-008  0.1273702E+04  0.7818608E-02  0.9050683E-01
         -2   -1    0    0    0  501 -0.00000000000E+00  0.00000000000E+00  0.14887034656E+04  0.14887034656E+04  0.00000000000E+00 0. -1.
          2   -1    0    0  501    0  0.00000000000E+00 -0.00000000000E+00 -0.27243796741E+03  0.27243796741E+03  0.00000000000E+00 0.  1.
         23    2    1    2    0    0 -0.96138856455E+02  0.23595359374E+03  0.54813386936E+03  0.61131967999E+03  0.91346780382E+02 0.  0.
        254    2    1    2    0    0  0.96138856455E+02 -0.23595359374E+03  0.66813162887E+03  0.11498217531E+04  0.90042957094E+03 0.  0.
         23    2    4    4    0    0  0.28008397747E+03  0.17719646356E+03  0.73428458104E+01  0.34386962663E+03  0.91360722428E+02 0.  0.
         23    2    4    4    0    0 -0.18394512101E+03 -0.41315005730E+03  0.66078878306E+03  0.80595212644E+03  0.91587318470E+02 0.  0.
          1    1    3    3  502    0 -0.35804268353E+02  0.12082715704E+03  0.17102817071E+03  0.21244242205E+03  0.00000000000E+00 0. -1.
         -1    1    3    3    0  502 -0.60334588102E+02  0.11512643670E+03  0.37710569865E+03  0.39887725794E+03  0.00000000000E+00 0.  1.
         13    1    5    5    0    0  0.24696624359E+03  0.11824043350E+03 -0.10227733872E+02  0.27400316080E+03  0.00000000000E+00 0.  1.
        -13    1    5    5    0    0  0.33117733875E+02  0.58956030058E+02  0.17570579682E+02  0.69866465830E+02  0.00000000000E+00 0. -1.
          1    1    6    6  503    0 -0.17374882218E+02 -0.14073954398E+03  0.18953575641E+03  0.23671355840E+03  0.00000000000E+00 0. -1.
         -1    1    6    6    0  503 -0.16657023879E+03 -0.27241051332E+03  0.47125302664E+03  0.56923856803E+03  0.00000000000E+00 0.  1.
<mgrwt>
<rscale>  0 0.12737022E+04</rscale>
<asrwt>0</asrwt>
<pdfrwt beam="1">  1        2 0.41913534E-01 0.12737022E+04</pdfrwt>
<pdfrwt beam="2">  1       -2 0.22903130E+00 0.12737022E+04</pdfrwt>
<totfact> 0.10414365E+01</totfact>
</mgrwt>
</event>
<event>
12    3  0.4192740E-008  0.2563189E+04  0.7818608E-02  0.8380813E-01
         -2   -1    0    0    0  501 -0.00000000000E+00  0.00000000000E+00  0.94934228626E+03  0.94934228626E+03  0.00000000000E+00 0.  1.
          2   -1    0    0  501    0  0.00000000000E+00 -0.00000000000E+00 -0.17301294688E+04  0.17301294688E+04  0.00000000000E+00 0. -1.
         23    2    1    2    0    0 -0.41528444245E+03  0.34276218323E+03  0.69390762234E+03  0.88294900690E+03  0.90244545783E+02 0.  0.
        254    2    1    2    0    0  0.41528444245E+03 -0.34276218323E+03 -0.14746948049E+04  0.17965227482E+04  0.87339689417E+03 0.  0.
         23    2    4    4    0    0 -0.21481349701E+03  0.65061741078E+02 -0.19279428487E+03  0.30835690245E+03  0.86812869751E+02 0.  0.
         23    2    4    4    0    0  0.63009793947E+03 -0.40782392431E+03 -0.12819005200E+04  0.14881658457E+04  0.89581664467E+02 0.  0.
          3    1    3    3  502    0 -0.14332101781E+03  0.66482462426E+02  0.18760676116E+03  0.24526950237E+03  0.00000000000E+00 0. -1.
         -3    1    3    3    0  502 -0.27196342464E+03  0.27627972081E+03  0.50630086118E+03  0.63767950453E+03  0.00000000000E+00 0.  1.
         13    1    5    5    0    0 -0.14379093433E+03 -0.61699168907E+00 -0.12011854928E+03  0.18736242781E+03  0.00000000000E+00 0.  1.
        -13    1    5    5    0    0 -0.71022562689E+02  0.65678732768E+02 -0.72675735595E+02  0.12099447464E+03  0.00000000000E+00 0. -1.
          3    1    6    6  503    0  0.13352819810E+03 -0.46431719786E+02 -0.25826536772E+03  0.29442602543E+03  0.00000000000E+00 0. -1.
         -3    1    6    6    0  503  0.49656974136E+03 -0.36139220453E+03 -0.10236351523E+04  0.11937398203E+04  0.00000000000E+00 0.  1.
<mgrwt>
<rscale>  0 0.25631895E+04</rscale>
<asrwt>0</asrwt>
<pdfrwt beam="1">  1        2 0.26617376E+00 0.25631895E+04</pdfrwt>
<pdfrwt beam="2">  1       -2 0.14605266E+00 0.25631895E+04</pdfrwt>
<totfact> 0.26919252E+00</totfact>
</mgrwt>
</event>
<event>
12    3  0.4192740E-008  0.2497497E+04  0.7818608E-02  0.8403878E-01
         -2   -1    0    0    0  501 -0.00000000000E+00  0.00000000000E+00  0.61933169285E+03  0.61933169285E+03  0.00000000000E+00 0.  1.
          2   -1    0    0  501    0  0.00000000000E+00 -0.00000000000E+00 -0.25178306137E+04  0.25178306137E+04  0.00000000000E+00 0. -1.
         23    2    1    2    0    0  0.54613450769E+03  0.50305658607E+03  0.16531208142E+03  0.76624070553E+03  0.92021221804E+02 0.  0.
        254    2    1    2    0    0 -0.54613450769E+03 -0.50305658607E+03 -0.20638110023E+04  0.23709216011E+04  0.90034690862E+03 0.  0.
         23    2    4    4    0    0 -0.94824391742E+02 -0.59264469876E+03 -0.15931322829E+04  0.17049284983E+04  0.92148301868E+02 0.  0.
         23    2    4    4    0    0 -0.45131011595E+03  0.89588112690E+02 -0.47067871945E+03  0.66599310272E+03  0.10149633115E+03 0.  0.
          4    1    3    3  502    0  0.23505156192E+02  0.28204623998E+01  0.12720584722E+02  0.26874907469E+02  0.00000000000E+00 0. -1.
         -4    1    3    3    0  502  0.52262935150E+03  0.50023612367E+03  0.15259149670E+03  0.73936579806E+03  0.00000000000E+00 0.  1.
         13    1    5    5    0    0 -0.58856820215E+02 -0.12555882477E+03 -0.35252914794E+03  0.37882178384E+03  0.00000000000E+00 0.  1.
        -13    1    5    5    0    0 -0.35967571527E+02 -0.46708587399E+03 -0.12406031349E+04  0.13261067145E+04  0.00000000000E+00 0. -1.
          2    1    6    6  503    0 -0.73205021326E+02  0.12368155095E+02 -0.13702266022E+03  0.15584336952E+03  0.00000000000E+00 0. -1.
         -2    1    6    6    0  503 -0.37810509462E+03  0.77219957595E+02 -0.33365605922E+03  0.51014973320E+03  0.00000000000E+00 0.  1.
<mgrwt>
<rscale>  0 0.24974966E+04</rscale>
<asrwt>0</asrwt>
<pdfrwt beam="1">  1        2 0.38735855E+00 0.24974966E+04</pdfrwt>
<pdfrwt beam="2">  1       -2 0.95281801E-01 0.24974966E+04</pdfrwt>
<totfact> 0.28060470E+00</totfact>
</mgrwt>
</event>
<event>
12    3  0.4192740E-008  0.1540422E+04  0.7818608E-02  0.8858009E-01
         -1   -1    0    0    0  501 -0.00000000000E+00  0.00000000000E+00  0.21688027699E+03  0.21688027699E+03  0.00000000000E+00 0.  1.
          1   -1    0    0  501    0  0.00000000000E+00 -0.00000000000E+00 -0.27352656623E+04  0.27352656623E+04  0.00000000000E+00 0. -1.
         23    2    1    2    0    0  0.29050016262E+03  0.18274072172E+02 -0.16032313165E+04  0.16320246963E+04  0.91813229127E+02 0.  0.
        254    2    1    2    0    0 -0.29050016262E+03 -0.18274072172E+02 -0.91515406885E+03  0.13201212430E+04  0.90580839049E+03 0.  0.
         23    2    4    4    0    0 -0.56083923180E+03 -0.57575454337E+02 -0.30684800132E+03  0.64678982557E+03  0.79534933723E+02 0.  0.
         23    2    4    4    0    0  0.27033906918E+03  0.39301382164E+02 -0.60830606753E+03  0.67333141742E+03  0.93333353786E+02 0.  0.
          3    1    3    3  502    0  0.25757845066E+03  0.22971868552E+02 -0.15285918917E+04  0.15503120771E+04  0.00000000000E+00 0. -1.
         -3    1    3    3    0  502  0.32921711955E+02 -0.46977963793E+01 -0.74639424726E+02  0.81712619174E+02  0.00000000000E+00 0.  1.
         13    1    5    5    0    0 -0.50054350472E+03 -0.34599274393E+02 -0.29220416927E+03  0.58062396303E+03  0.00000000000E+00 0. -1.
        -13    1    5    5    0    0 -0.60295727077E+02 -0.22976179944E+02 -0.14643832050E+02  0.66165862540E+02  0.00000000000E+00 0.  1.
          2    1    6    6  503    0  0.27469490010E+03  0.45820067696E+02 -0.57204988549E+03  0.63623724995E+03  0.00000000000E+00 0. -1.
         -2    1    6    6    0  503 -0.43558309130E+01 -0.65186855318E+01 -0.36256182038E+02  0.37094167465E+02  0.00000000000E+00 0.  1.
<mgrwt>
<rscale>  0 0.15404222E+04</rscale>
<asrwt>0</asrwt>
<pdfrwt beam="1">  1        1 0.42081008E+00 0.15404222E+04</pdfrwt>
<pdfrwt beam="2">  1       -1 0.33366198E-01 0.15404222E+04</pdfrwt>
<totfact> 0.75798498E+00</totfact>
</mgrwt>
</event>
<event>
12    3  0.4192740E-008  0.1813754E+04  0.7818608E-02  0.8699019E-01
         -2   -1    0    0    0  501 -0.00000000000E+00  0.00000000000E+00  0.36299181244E+03  0.36299181244E+03  0.00000000000E+00 0. -1.
          2   -1    0    0  501    0  0.00000000000E+00 -0.00000000000E+00 -0.22656882527E+04  0.22656882527E+04  0.00000000000E+00 0.  1.
         23    2    1    2    0    0  0.34293843702E+03  0.20112032209E+03 -0.15170398291E+04  0.15701982803E+04  0.77824423118E+02 0.  0.
        254    2    1    2    0    0 -0.34293843702E+03 -0.20112032209E+03 -0.38565661117E+03  0.10584817849E+04  0.90199584899E+03 0.  0.
         23    2    4    4    0    0  0.13562414294E+03  0.24475818062E+03  0.16632650262E+01  0.29282423779E+03  0.86271621411E+02 0.  0.
         23    2    4    4    0    0 -0.47856257996E+03 -0.44587850271E+03 -0.38731987620E+03  0.76565754707E+03  0.91569704455E+02 0.  0.
          2    1    3    3  502    0  0.11865278333E+01  0.50073360290E+01 -0.35318407765E+01  0.62414070270E+01  0.00000000000E+00 0. -1.
         -2    1    3    3    0  502  0.34175190919E+03  0.19611298606E+03 -0.15135079883E+04  0.15639568733E+04  0.00000000000E+00 0.  1.
         13    1    5    5    0    0  0.10421551324E+03  0.23919664032E+03  0.77899919076E+00  0.26091476152E+03  0.00000000000E+00 0. -1.
        -13    1    5    5    0    0  0.31408629696E+02  0.55615403010E+01  0.88426583547E+00  0.31909476272E+02  0.00000000000E+00 0.  1.
          3    1    6    6  503    0 -0.15931520877E+03 -0.10865323082E+03 -0.79823411214E+02  0.20870706095E+03  0.00000000000E+00 0.  1.
         -3    1    6    6    0  503 -0.31924737119E+03 -0.33722527189E+03 -0.30749646499E+03  0.55695048612E+03  0.00000000000E+00 0. -1.
<mgrwt>
<rscale>  0 0.18137544E+04</rscale>
<asrwt>0</asrwt>
<pdfrwt beam="1">  1        2 0.34856742E+00 0.18137544E+04</pdfrwt>
<pdfrwt beam="2">  1       -2 0.55844894E-01 0.18137544E+04</pdfrwt>
<totfact> 0.13471392E+01</totfact>
</mgrwt>
</event>
<event>
12    3  0.4192740E-008  0.2272164E+04  0.7818608E-02  0.8488978E-01
         -4   -1    0    0    0  501 -0.00000000000E+00  0.00000000000E+00  0.85460521276E+03  0.85460521276E+03  0.00000000000E+00 0.  1.
          4   -1    0    0  501    0  0.00000000000E+00 -0.00000000000E+00 -0.15102674857E+04  0.15102674857E+04  0.00000000000E+00 0. -1.
         23    2    1    2    0    0 -0.81180789529E+03 -0.48895181150E+03 -0.39724841671E+03  0.10316622761E+04  0.91732298510E+02 0.  0.
        254    2    1    2    0    0  0.81180789529E+03  0.48895181150E+03 -0.25841385623E+03  0.13332104223E+04  0.90142463708E+03 0.  0.
         23    2    4    4    0    0 -0.15480564571E+03  0.25107935182E+03 -0.63227503001E+02  0.31475832183E+03  0.89830146262E+02 0.  0.
         23    2    4    4    0    0  0.96661354099E+03  0.23787245968E+03 -0.19518635323E+03  0.10184521005E+04  0.90674824696E+02 0.  0.
          3    1    3    3  502    0 -0.18672718825E+03 -0.10659034658E+03 -0.13245789062E+03  0.25253442855E+03  0.00000000000E+00 0. -1.
         -3    1    3    3    0  502 -0.62508070703E+03 -0.38236146492E+03 -0.26479052609E+03  0.77912784758E+03  0.00000000000E+00 0.  1.
         13    1    5    5    0    0 -0.75305321664E+02  0.13372185273E+03 -0.78158223180E+02  0.17222407851E+03  0.00000000000E+00 0. -1.
        -13    1    5    5    0    0 -0.79500324042E+02  0.11735749908E+03  0.14930720180E+02  0.14253424332E+03  0.00000000000E+00 0.  1.
          2    1    6    6  503    0  0.13626209796E+02  0.12050947078E+02  0.49125326176E+01  0.18842290084E+02  0.00000000000E+00 0. -1.
         -2    1    6    6    0  503  0.95298733120E+03  0.22582151260E+03 -0.20009888585E+03  0.99960981042E+03  0.00000000000E+00 0.  1.
<mgrwt>
<rscale>  0 0.22721641E+04</rscale>
<asrwt>0</asrwt>
<pdfrwt beam="1">  1        4 0.23234884E+00 0.22721641E+04</pdfrwt>
<pdfrwt beam="2">  1       -4 0.13147773E+00 0.22721641E+04</pdfrwt>
<totfact> 0.62143378E-02</totfact>
</mgrwt>
</event>
<event>
12    3  0.4192740E-008  0.3035165E+04  0.7818608E-02  0.8233760E-01
          2   -1    0    0  501    0  0.00000000000E+00  0.00000000000E+00  0.14620544040E+04  0.14620544040E+04  0.00000000000E+00 0. -1.
         -2   -1    0    0    0  501 -0.00000000000E+00 -0.00000000000E+00 -0.15752191196E+04  0.15752191196E+04  0.00000000000E+00 0.  1.
         23    2    1    2    0    0  0.33859740091E+03 -0.38571550755E+03 -0.13360258392E+04  0.14341934083E+04  0.92309462449E+02 0.  0.
        254    2    1    2    0    0 -0.33859740091E+03  0.38571550755E+03  0.12228611236E+04  0.16030801152E+04  0.90058418571E+03 0.  0.
         23    2    4    4    0    0 -0.36453977271E+02  0.48864492277E+03  0.11631264268E+04  0.12656069280E+04  0.93781973014E+02 0.  0.
         23    2    4    4    0    0 -0.30214342364E+03 -0.10292941522E+03  0.59734696742E+02  0.33747318718E+03  0.91841195023E+02 0.  0.
          2    1    3    3  502    0  0.30477813684E+03 -0.34005620277E+03 -0.10919081239E+04  0.11835502882E+04  0.00000000000E+00 0.  1.
         -2    1    3    3    0  502  0.33819264074E+02 -0.45659304778E+02 -0.24411771530E+03  0.25064312011E+03  0.00000000000E+00 0. -1.
         13    1    5    5    0    0 -0.11980190689E+02  0.41830502216E+03  0.90724896099E+03  0.99911125194E+03  0.00000000000E+00 0.  1.
        -13    1    5    5    0    0 -0.24473786581E+02  0.70339900613E+02  0.25587746583E+03  0.26649567608E+03  0.00000000000E+00 0. -1.
          3    1    6    6  503    0 -0.14490326544E+03 -0.43990862495E+02 -0.17870733987E+02  0.15248447610E+03  0.00000000000E+00 0. -1.
         -3    1    6    6    0  503 -0.15724015820E+03 -0.58938552726E+02  0.77605430729E+02  0.18498871108E+03  0.00000000000E+00 0.  1.
<mgrwt>
<rscale>  0 0.30351646E+04</rscale>
<asrwt>0</asrwt>
<pdfrwt beam="1">  1        2 0.22493145E+00 0.30351646E+04</pdfrwt>
<pdfrwt beam="2">  1       -2 0.24234140E+00 0.30351646E+04</pdfrwt>
<totfact> 0.81567691E-01</totfact>
</mgrwt>
</event>
<event>
12    3  0.4192740E-008  0.1819786E+04  0.7818608E-02  0.8695848E-01
          1   -1    0    0  501    0  0.00000000000E+00  0.00000000000E+00  0.37092896895E+03  0.37092896895E+03  0.00000000000E+00 0. -1.
         -1   -1    0    0    0  501 -0.00000000000E+00 -0.00000000000E+00 -0.22319777168E+04  0.22319777168E+04  0.00000000000E+00 0.  1.
         23    2    1    2    0    0 -0.49724348361E+03 -0.48841676523E+03 -0.57748107047E+03  0.90979981105E+03  0.91920024383E+02 0.  0.
        254    2    1    2    0    0  0.49724348361E+03  0.48841676523E+03 -0.12835676773E+04  0.16931068747E+04  0.85630770649E+03 0.  0.
         23    2    4    4    0    0  0.63542594739E+03  0.31622484513E+03 -0.12673308149E+04  0.14552631297E+04  0.88876852782E+02 0.  0.
         23    2    4    4    0    0 -0.13818246378E+03  0.17219192009E+03 -0.16236862447E+02  0.23784374498E+03  0.86957234803E+02 0.  0.
          1    1    3    3  502    0 -0.17727725322E+03 -0.21726914591E+03 -0.18935049432E+03  0.33835885679E+03  0.00000000000E+00 0. -1.
         -1    1    3    3    0  502 -0.31996623039E+03 -0.27114761932E+03 -0.38813057615E+03  0.57144095425E+03  0.00000000000E+00 0.  1.
         13    1    5    5    0    0  0.50194204948E+03  0.28852716676E+03 -0.10214843000E+04  0.11741481687E+04  0.00000000000E+00 0.  1.
        -13    1    5    5    0    0  0.13348389791E+03  0.27697678378E+02 -0.24584651490E+03  0.28111496096E+03  0.00000000000E+00 0. -1.
          2    1    6    6  503    0 -0.47849096529E+02  0.93324454370E+02 -0.45636216867E+02  0.11437505896E+03  0.00000000000E+00 0. -1.
         -2    1    6    6    0  503 -0.90333367247E+02  0.78867465720E+02  0.29399354420E+02  0.12346868602E+03  0.00000000000E+00 0.  1.
<mgrwt>
<rscale>  0 0.18197859E+04</rscale>
<asrwt>0</asrwt>
<pdfrwt beam="1">  1        1 0.57065996E-01 0.18197859E+04</pdfrwt>
<pdfrwt beam="2">  1       -1 0.34338118E+00 0.18197859E+04</pdfrwt>
<totfact> 0.10762762E+00</totfact>
</mgrwt>
</event>
<event>
12    3  0.4192740E-008  0.2818710E+04  0.7818608E-02  0.8297483E-01
         -1   -1    0    0    0  501 -0.00000000000E+00  0.00000000000E+00  0.12672729830E+04  0.12672729830E+04  0.00000000000E+00 0.  1.
          1   -1    0    0  501    0  0.00000000000E+00 -0.00000000000E+00 -0.15673669803E+04  0.15673669803E+04  0.00000000000E+00 0. -1.
         23    2    1    2    0    0  0.23041656762E+03 -0.11947005856E+04  0.20412591010E+03  0.12369918903E+04  0.89890297462E+02 0.  0.
        254    2    1    2    0    0 -0.23041656762E+03  0.11947005856E+04 -0.50421990739E+03  0.15976480730E+04  0.90434526927E+03 0.  0.
         23    2    4    4    0    0  0.34944939173E+02  0.79420999271E+03 -0.70726677679E+03  0.10681428218E+04  0.93338807003E+02 0.  0.
         23    2    4    4    0    0 -0.26536150679E+03  0.40049059293E+03  0.20304686940E+03  0.52950525116E+03  0.91314486965E+02 0.  0.
          4    1    3    3  502    0  0.15266540197E+03 -0.59244548262E+03  0.77646271171E+02  0.61670683332E+03  0.00000000000E+00 0. -1.
         -4    1    3    3    0  502  0.77751165647E+02 -0.60225510301E+03  0.12647963893E+03  0.62028505699E+03  0.00000000000E+00 0.  1.
         13    1    5    5    0    0  0.37550216704E+02  0.76064336528E+03 -0.69841636054E+03  0.10333313895E+04  0.00000000000E+00 0.  1.
        -13    1    5    5    0    0 -0.26052775312E+01  0.33566627431E+02 -0.88504162503E+01  0.34811432259E+02  0.00000000000E+00 0. -1.
          4    1    6    6  503    0 -0.44146501192E+02  0.13760596751E+03  0.75242887818E+02  0.16292884346E+03  0.00000000000E+00 0. -1.
         -4    1    6    6    0  503 -0.22121500560E+03  0.26288462541E+03  0.12780398158E+03  0.36657640771E+03  0.00000000000E+00 0.  1.
<mgrwt>
<rscale>  0 0.28187102E+04</rscale>
<asrwt>0</asrwt>
<pdfrwt beam="1">  1        1 0.24113338E+00 0.28187102E+04</pdfrwt>
<pdfrwt beam="2">  1       -1 0.19496507E+00 0.28187102E+04</pdfrwt>
<totfact> 0.82849792E-01</totfact>
</mgrwt>
</event>
<event>
12    3  0.4192740E-008  0.1551200E+04  0.7818608E-02  0.8851102E-01
         -1   -1    0    0    0  501 -0.00000000000E+00  0.00000000000E+00  0.40537735538E+03  0.40537735538E+03  0.00000000000E+00 0.  1.
          1   -1    0    0  501    0  0.00000000000E+00 -0.00000000000E+00 -0.14839387821E+04  0.14839387821E+04  0.00000000000E+00 0. -1.
         23    2    1    2    0    0 -0.21530013227E+03  0.27882748207E+03 -0.80230265132E+03  0.88115159910E+03  0.92949903458E+02 0.  0.
        254    2    1    2    0    0  0.21530013227E+03 -0.27882748207E+03 -0.27625877537E+03  0.10081645384E+04  0.90331495821E+03 0.  0.
         23    2    4    4    0    0 -0.80087770418E+02  0.87060213721E+02  0.25078618553E+03  0.29552420209E+03  0.10221209021E+03 0.  0.
         23    2    4    4    0    0  0.29538790269E+03 -0.36588769580E+03 -0.52704496090E+03  0.71264033627E+03  0.94615215875E+02 0.  0.
          2    1    3    3  502    0 -0.70272771623E+02  0.15779955510E+03 -0.33000997244E+03  0.37248562916E+03  0.00000000000E+00 0. -1.
         -2    1    3    3    0  502 -0.14502736065E+03  0.12102792698E+03 -0.47229267888E+03  0.50866596994E+03  0.00000000000E+00 0.  1.
         13    1    5    5    0    0 -0.56744451688E+02  0.31727712547E+02  0.39959413246E+02  0.76310780679E+02  0.00000000000E+00 0. -1.
        -13    1    5    5    0    0 -0.23343318730E+02  0.55332501174E+02  0.21082677228E+03  0.21921342141E+03  0.00000000000E+00 0.  1.
          3    1    6    6  503    0 -0.51548885843E+01 -0.12143260857E+02 -0.50814371161E+01  0.14136925540E+02  0.00000000000E+00 0. -1.
         -3    1    6    6    0  503  0.30054279127E+03 -0.35374443494E+03 -0.52196352378E+03  0.69850341073E+03  0.00000000000E+00 0.  1.
<mgrwt>
<rscale>  0 0.15511998E+04</rscale>
<asrwt>0</asrwt>
<pdfrwt beam="1">  1        1 0.22829828E+00 0.15511998E+04</pdfrwt>
<pdfrwt beam="2">  1       -1 0.62365746E-01 0.15511998E+04</pdfrwt>
<totfact> 0.16860701E+01</totfact>
</mgrwt>
</event>
<event>
12    3  0.4192740E-008  0.1683741E+04  0.7818608E-02  0.8770692E-01
          1   -1    0    0  501    0  0.00000000000E+00  0.00000000000E+00  0.88436101300E+03  0.88436101300E+03  0.00000000000E+00 0. -1.
         -1   -1    0    0    0  501 -0.00000000000E+00 -0.00000000000E+00 -0.80142116260E+03  0.80142116260E+03  0.00000000000E+00 0.  1.
         23    2    1    2    0    0  0.10928711079E+03  0.35669206179E+03 -0.43145114054E+03  0.57802793081E+03  0.93772611113E+02 0.  0.
        254    2    1    2    0    0 -0.10928711079E+03 -0.35669206179E+03  0.51439099094E+03  0.11077542448E+04  0.90738551662E+03 0.  0.
         23    2    4    4    0    0 -0.37609776839E+03  0.11835564443E+03  0.98858991327E+02  0.41669766094E+03  0.91685606871E+02 0.  0.
         23    2    4    4    0    0  0.26681065760E+03 -0.47504770622E+03  0.41553199961E+03  0.69105658385E+03  0.89633192488E+02 0.  0.
          4    1    3    3  502    0  0.61220936053E+00  0.68498307873E+02 -0.13059317156E+03  0.14746853712E+03  0.00000000000E+00 0. -1.
         -4    1    3    3    0  502  0.10867490143E+03  0.28819375391E+03 -0.30085796898E+03  0.43055939369E+03  0.00000000000E+00 0.  1.
         13    1    5    5    0    0 -0.31910671169E+03  0.12779389745E+03  0.65306654697E+02  0.34989331634E+03  0.00000000000E+00 0.  1.
        -13    1    5    5    0    0 -0.56991056694E+02 -0.94382530180E+01  0.33552336629E+02  0.66804344593E+02  0.00000000000E+00 0. -1.
          4    1    6    6  503    0  0.74409569750E+02 -0.11469698099E+03  0.59209847999E+02  0.14898989099E+03  0.00000000000E+00 0. -1.
         -4    1    6    6    0  503  0.19240108785E+03 -0.36035072523E+03  0.35632215161E+03  0.54206669286E+03  0.00000000000E+00 0.  1.
<mgrwt>
<rscale>  0 0.16837406E+04</rscale>
<asrwt>0</asrwt>
<pdfrwt beam="1">  1        1 0.13605554E+00 0.16837406E+04</pdfrwt>
<pdfrwt beam="2">  1       -1 0.12329556E+00 0.16837406E+04</pdfrwt>
<totfact> 0.10345623E+01</totfact>
</mgrwt>
</event>
<event>
12    3  0.4192740E-008  0.1492722E+04  0.7818608E-02  0.8889307E-01
         -1   -1    0    0    0  501 -0.00000000000E+00  0.00000000000E+00  0.10633765528E+04  0.10633765528E+04  0.00000000000E+00 0.  1.
          1   -1    0    0  501    0  0.00000000000E+00 -0.00000000000E+00 -0.52385491863E+03  0.52385491863E+03  0.00000000000E+00 0. -1.
         23    2    1    2    0    0 -0.43384053261E+03  0.31568549979E+02 -0.21139883374E+02  0.44498600304E+03  0.91386361933E+02 0.  0.
        254    2    1    2    0    0  0.43384053261E+03 -0.31568549979E+02  0.56066151751E+03  0.11422454684E+04  0.89508055039E+03 0.  0.
         23    2    4    4    0    0 -0.47216126827E+02  0.30752455059E+03  0.41965612118E+03  0.53019405712E+03  0.90519425090E+02 0.  0.
         23    2    4    4    0    0  0.48105665943E+03 -0.33909310057E+03  0.14100539634E+03  0.61205141124E+03  0.91240165292E+02 0.  0.
          4    1    3    3  502    0 -0.26717350753E+03  0.49653912330E+02 -0.45657587005E+02  0.27555727062E+03  0.00000000000E+00 0. -1.
         -4    1    3    3    0  502 -0.16666702507E+03 -0.18085362351E+02  0.24517703631E+02  0.16942873242E+03  0.00000000000E+00 0.  1.
         13    1    5    5    0    0 -0.23424767788E+02  0.14823392709E+02  0.58312901498E+02  0.64566610554E+02  0.00000000000E+00 0. -1.
        -13    1    5    5    0    0 -0.23791359039E+02  0.29270115788E+03  0.36134321968E+03  0.46562744657E+03  0.00000000000E+00 0.  1.
          4    1    6    6  503    0  0.30078582710E+02 -0.31169409906E+02 -0.11997173145E+02  0.44946472778E+02  0.00000000000E+00 0.  1.
         -4    1    6    6    0  503  0.45097807672E+03 -0.30792369066E+03  0.15300256948E+03  0.56710493846E+03  0.00000000000E+00 0. -1.
<mgrwt>
<rscale>  0 0.14927224E+04</rscale>
<asrwt>0</asrwt>
<pdfrwt beam="1">  1        1 0.80593065E-01 0.14927224E+04</pdfrwt>
<pdfrwt beam="2">  1       -1 0.16359639E+00 0.14927224E+04</pdfrwt>
<totfact> 0.11038539E+01</totfact>
</mgrwt>
</event>
<event>
12    3  0.4192740E-008  0.1566558E+04  0.7818608E-02  0.8841360E-01
          2   -1    0    0  501    0  0.00000000000E+00  0.00000000000E+00  0.14435570339E+04  0.14435570339E+04  0.00000000000E+00 0. -1.
         -2   -1    0    0    0  501 -0.00000000000E+00 -0.00000000000E+00 -0.42501007141E+03  0.42501007141E+03  0.00000000000E+00 0.  1.
         23    2    1    2    0    0 -0.31759841250E+03 -0.15068217246E+03  0.78535114685E+03  0.86607469029E+03  0.98666491632E+02 0.  0.
        254    2    1    2    0    0  0.31759841250E+03  0.15068217246E+03  0.23319581564E+03  0.10024924150E+04  0.90941568330E+03 0.  0.
         23    2    4    4    0    0  0.19081768663E+03  0.19221705847E+03 -0.31857899491E+03  0.42799155468E+03  0.91243672548E+02 0.  0.
         23    2    4    4    0    0  0.12678072587E+03 -0.41534886008E+02  0.55177481055E+03  0.57450086034E+03  0.88302308970E+02 0.  0.
          3    1    3    3  502    0 -0.18730190409E+03 -0.14096899534E+03  0.49862449982E+03  0.55098153576E+03  0.00000000000E+00 0. -1.
         -3    1    3    3    0  502 -0.13029650841E+03 -0.97131771249E+01  0.28672664703E+03  0.31509315453E+03  0.00000000000E+00 0.  1.
         13    1    5    5    0    0  0.10429204732E+02  0.12847812545E+02  0.41465486087E+01  0.17059556381E+02  0.00000000000E+00 0. -1.
        -13    1    5    5    0    0  0.18038848190E+03  0.17936924593E+03 -0.32272554352E+03  0.41093199830E+03  0.00000000000E+00 0.  1.
          4    1    6    6  503    0  0.15739361744E+02 -0.45966136435E+02  0.18359912790E+03  0.18991906954E+03  0.00000000000E+00 0. -1.
         -4    1    6    6    0  503  0.11104136413E+03  0.44312504270E+01  0.36817568265E+03  0.38458179081E+03  0.00000000000E+00 0.  1.
<mgrwt>
<rscale>  0 0.15665584E+04</rscale>
<asrwt>0</asrwt>
<pdfrwt beam="1">  1        2 0.22208570E+00 0.15665584E+04</pdfrwt>
<pdfrwt beam="2">  1       -2 0.65386165E-01 0.15665584E+04</pdfrwt>
<totfact> 0.28314567E+01</totfact>
</mgrwt>
</event>
<event>
12    3  0.4192740E-008  0.4135139E+04  0.7818608E-02  0.7977826E-01
         -2   -1    0    0    0  501 -0.00000000000E+00  0.00000000000E+00  0.16397401902E+04  0.16397401902E+04  0.00000000000E+00 0.  1.
          2   -1    0    0  501    0  0.00000000000E+00 -0.00000000000E+00 -0.26070255884E+04  0.26070255884E+04  0.00000000000E+00 0. -1.
         23    2    1    2    0    0  0.83737789666E+03 -0.56356547821E+02 -0.22866635849E+04  0.24374842822E+04  0.90119216470E+02 0.  0.
        254    2    1    2    0    0 -0.83737789666E+03  0.56356547821E+02  0.13193781866E+04  0.18092814965E+04  0.91014445651E+03 0.  0.
         23    2    4    4    0    0 -0.41717200108E+03  0.38322483576E+03  0.28075394430E+03  0.63864123788E+03  0.90255749168E+02 0.  0.
         23    2    4    4    0    0 -0.42020589558E+03 -0.32686828794E+03  0.10386242424E+04  0.11706402586E+04  0.90787806794E+02 0.  0.
          4    1    3    3  502    0  0.77565969031E+03 -0.29772092535E+02 -0.21292161406E+04  0.22662955911E+04  0.00000000000E+00 0. -1.
         -4    1    3    3    0  502  0.61718206348E+02 -0.26584455286E+02 -0.15744744423E+03  0.17118869107E+03  0.00000000000E+00 0.  1.
         13    1    5    5    0    0 -0.26427215048E+03  0.19062319011E+03  0.18530322110E+03  0.37485230942E+03  0.00000000000E+00 0.  1.
        -13    1    5    5    0    0 -0.15289985060E+03  0.19260164565E+03  0.95450723196E+02  0.26378892846E+03  0.00000000000E+00 0. -1.
          4    1    6    6  503    0 -0.34366506986E+03 -0.24203256615E+03  0.74230606921E+03  0.85305553378E+03  0.00000000000E+00 0. -1.
         -4    1    6    6    0  503 -0.76540825718E+02 -0.84835721783E+02  0.29631817314E+03  0.31758472480E+03  0.00000000000E+00 0.  1.
<mgrwt>
<rscale>  0 0.41351395E+04</rscale>
<asrwt>0</asrwt>
<pdfrwt beam="1">  1        2 0.40108085E+00 0.41351395E+04</pdfrwt>
<pdfrwt beam="2">  1       -2 0.25226773E+00 0.41351395E+04</pdfrwt>
<totfact> 0.14637378E-01</totfact>
</mgrwt>
</event>
<event>
12    3  0.4192740E-008  0.1398452E+04  0.7818608E-02  0.8954940E-01
         -2   -1    0    0    0  501 -0.00000000000E+00  0.00000000000E+00  0.71398736856E+03  0.71398736856E+03  0.00000000000E+00 0.  1.
          2   -1    0    0  501    0  0.00000000000E+00 -0.00000000000E+00 -0.68477016910E+03  0.68477016910E+03  0.00000000000E+00 0. -1.
         23    2    1    2    0    0  0.71463970155E+02  0.33418956310E+03 -0.21266697507E+03  0.41262800130E+03  0.90801222801E+02 0.  0.
        254    2    1    2    0    0 -0.71463970155E+02 -0.33418956310E+03  0.24188417452E+03  0.98612953636E+03  0.89283466861E+03 0.  0.
         23    2    4    4    0    0  0.81131914298E+02 -0.76253437490E+02  0.53661129747E+03  0.55582459030E+03  0.92694748321E+02 0.  0.
         23    2    4    4    0    0 -0.15259588445E+03 -0.25793612561E+03 -0.29472712295E+03  0.43030494605E+03  0.92096258076E+02 0.  0.
          2    1    3    3  502    0  0.60369937118E+02  0.29775971129E+03 -0.21832650833E+03  0.37412810535E+03  0.00000000000E+00 0. -1.
         -2    1    3    3    0  502  0.11094033037E+02  0.36429851808E+02  0.56595332584E+01  0.38499895954E+02  0.00000000000E+00 0.  1.
         13    1    5    5    0    0  0.44272731162E+02 -0.42472187973E+02  0.46171568683E+03  0.46577391183E+03  0.00000000000E+00 0.  1.
        -13    1    5    5    0    0  0.36859183136E+02 -0.33781249517E+02  0.74895610637E+02  0.90050678471E+02  0.00000000000E+00 0. -1.
          4    1    6    6  503    0 -0.11577896993E+03 -0.10586313274E+03 -0.15480595306E+03  0.22040112489E+03  0.00000000000E+00 0. -1.
         -4    1    6    6    0  503 -0.36816914524E+02 -0.15207299287E+03 -0.13992116989E+03  0.20990382116E+03  0.00000000000E+00 0.  1.
<mgrwt>
<rscale>  0 0.13984524E+04</rscale>
<asrwt>0</asrwt>
<pdfrwt beam="1">  1        2 0.10534926E+00 0.13984524E+04</pdfrwt>
<pdfrwt beam="2">  1       -2 0.10984421E+00 0.13984524E+04</pdfrwt>
<totfact> 0.27037602E+01</totfact>
</mgrwt>
</event>
<event>
12    3  0.4192740E-008  0.1513030E+04  0.7818608E-02  0.8875834E-01
          1   -1    0    0  501    0  0.00000000000E+00  0.00000000000E+00  0.31402846450E+03  0.31402846450E+03  0.00000000000E+00 0. -1.
         -1   -1    0    0    0  501 -0.00000000000E+00 -0.00000000000E+00 -0.18224942139E+04  0.18224942139E+04  0.00000000000E+00 0.  1.
         23    2    1    2    0    0 -0.24348800552E+03 -0.10945801445E+03  0.79173025057E+02  0.29320234061E+03  0.91824718272E+02 0.  0.
        254    2    1    2    0    0  0.24348800552E+03  0.10945801445E+03 -0.15876387744E+04  0.18433203377E+04  0.89775582635E+03 0.  0.
         23    2    4    4    0    0 -0.15451486714E+03  0.39243117659E+03 -0.84297742122E+03  0.94703470420E+03  0.91579068280E+02 0.  0.
         23    2    4    4    0    0  0.39800287265E+03 -0.28297316214E+03 -0.74466135319E+03  0.89628563354E+03  0.10162336748E+03 0.  0.
          1    1    3    3  502    0 -0.14550709193E+03 -0.44326079100E+02  0.87100845846E+02  0.17528169453E+03  0.00000000000E+00 0. -1.
         -1    1    3    3    0  502 -0.97980913588E+02 -0.65131935352E+02 -0.79278207889E+01  0.11792064608E+03  0.00000000000E+00 0.  1.
         13    1    5    5    0    0 -0.25222227327E+01  0.53202402517E+02 -0.59562917232E+02  0.79903681707E+02  0.00000000000E+00 0.  1.
        -13    1    5    5    0    0 -0.15199264440E+03  0.33922877407E+03 -0.78341450399E+03  0.86713102249E+03  0.00000000000E+00 0. -1.
          4    1    6    6  503    0  0.34348748462E+03 -0.27853446438E+03 -0.63601777920E+03  0.77465070542E+03  0.00000000000E+00 0. -1.
         -4    1    6    6    0  503  0.54515388027E+02 -0.44386977558E+01 -0.10864357399E+03  0.12163492812E+03  0.00000000000E+00 0.  1.
<mgrwt>
<rscale>  0 0.15130302E+04</rscale>
<asrwt>0</asrwt>
<pdfrwt beam="1">  1        1 0.48312071E-01 0.15130302E+04</pdfrwt>
<pdfrwt beam="2">  1       -1 0.28038373E+00 0.15130302E+04</pdfrwt>
<totfact> 0.35374210E+00</totfact>
</mgrwt>
</event>
<event>
12    3  0.4192740E-008  0.1426930E+04  0.7818608E-02  0.8934553E-01
          2   -1    0    0  501    0  0.00000000000E+00  0.00000000000E+00  0.10645449157E+04  0.10645449157E+04  0.00000000000E+00 0. -1.
         -2   -1    0    0    0  501 -0.00000000000E+00 -0.00000000000E+00 -0.47816901252E+03  0.47816901252E+03  0.00000000000E+00 0.  1.
         23    2    1    2    0    0 -0.28161725196E+03 -0.40636398786E+03  0.11564877219E+03  0.52008742785E+03  0.11258919515E+03 0.  0.
        254    2    1    2    0    0  0.28161725196E+03  0.40636398786E+03  0.47072713096E+03  0.10226265003E+04  0.76140722360E+03 0.  0.
         23    2    4    4    0    0  0.59670580083E+02  0.24194767395E+03  0.63508801759E+03  0.68815943380E+03  0.90151878400E+02 0.  0.
         23    2    4    4    0    0  0.22194667188E+03  0.16441631391E+03 -0.16436088663E+03  0.33446706655E+03  0.92523878613E+02 0.  0.
          4    1    3    3  502    0 -0.61130757038E+02 -0.14662446313E+03  0.79004945784E+02  0.17741895080E+03  0.00000000000E+00 0. -1.
         -4    1    3    3    0  502 -0.22048649492E+03 -0.25973952473E+03  0.36643826411E+02  0.34266847705E+03  0.00000000000E+00 0.  1.
         13    1    5    5    0    0  0.50923756291E+02  0.10961480170E+03  0.40429760350E+03  0.42197770782E+03  0.00000000000E+00 0.  1.
        -13    1    5    5    0    0  0.87468237912E+01  0.13233287225E+03  0.23079041410E+03  0.26618172598E+03  0.00000000000E+00 0. -1.
          3    1    6    6  503    0  0.57512303415E+02  0.70365536610E+01 -0.83952909970E+01  0.58546212879E+02  0.00000000000E+00 0. -1.
         -3    1    6    6    0  503  0.16443436846E+03  0.15737976025E+03 -0.15596559563E+03  0.27592085367E+03  0.00000000000E+00 0.  1.
<mgrwt>
<rscale>  0 0.14269301E+04</rscale>
<asrwt>0</asrwt>
<pdfrwt beam="1">  1        2 0.16377614E+00 0.14269301E+04</pdfrwt>
<pdfrwt beam="2">  1       -2 0.73564464E-01 0.14269301E+04</pdfrwt>
<totfact> 0.37116706E+01</totfact>
</mgrwt>
</event>
<event>
12    3  0.4192740E-008  0.2150961E+04  0.7818608E-02  0.8539121E-01
          2   -1    0    0  501    0  0.00000000000E+00  0.00000000000E+00  0.49789428209E+03  0.49789428209E+03  0.00000000000E+00 0. -1.
         -2   -1    0    0    0  501 -0.00000000000E+00 -0.00000000000E+00 -0.23230998474E+04  0.23230998474E+04  0.00000000000E+00 0.  1.
         23    2    1    2    0    0 -0.22836047414E+03  0.81689801202E+03 -0.11000442738E+04  0.13919638608E+04  0.89415419098E+02 0.  0.
        254    2    1    2    0    0  0.22836047414E+03 -0.81689801202E+03 -0.72516129145E+03  0.14290302687E+04  0.89263527935E+03 0.  0.
         23    2    4    4    0    0  0.55248460304E+02 -0.73816648963E+03 -0.88959656299E+03  0.11608491517E+04  0.90810513530E+02 0.  0.
         23    2    4    4    0    0  0.17311201383E+03 -0.78731522394E+02  0.16443527154E+03  0.26818111695E+03  0.93358079528E+02 0.  0.
          2    1    3    3  502    0  0.73210161146E+01  0.52125330540E+02 -0.69885127056E+02  0.87490447161E+02  0.00000000000E+00 0. -1.
         -2    1    3    3    0  502 -0.23568149025E+03  0.76477268148E+03 -0.10301591468E+04  0.13044734136E+04  0.00000000000E+00 0.  1.
         13    1    5    5    0    0  0.23734147627E+02 -0.24612489113E+03 -0.36549725555E+03  0.44128110725E+03  0.00000000000E+00 0. -1.
        -13    1    5    5    0    0  0.31514312677E+02 -0.49204159850E+03 -0.52409930744E+03  0.71956804446E+03  0.00000000000E+00 0.  1.
          1    1    6    6  503    0  0.31409942360E+01  0.64635398638E+01 -0.85270004589E+01  0.11151364454E+02  0.00000000000E+00 0. -1.
         -1    1    6    6    0  503  0.16997101960E+03 -0.85195062258E+02  0.17296227200E+03  0.25702975250E+03  0.00000000000E+00 0.  1.
<mgrwt>
<rscale>  0 0.21509608E+04</rscale>
<asrwt>0</asrwt>
<pdfrwt beam="1">  1        2 0.76599122E-01 0.21509608E+04</pdfrwt>
<pdfrwt beam="2">  1       -2 0.35739997E+00 0.21509608E+04</pdfrwt>
<totfact> 0.79468159E-01</totfact>
</mgrwt>
</event>
<event>
12    3  0.4192740E-008  0.3326330E+04  0.7818608E-02  0.8156228E-01
          2   -1    0    0  501    0  0.00000000000E+00  0.00000000000E+00  0.14395096686E+04  0.14395096686E+04  0.00000000000E+00 0.  1.
         -2   -1    0    0    0  501 -0.00000000000E+00 -0.00000000000E+00 -0.19215690563E+04  0.19215690563E+04  0.00000000000E+00 0. -1.
         23    2    1    2    0    0  0.72508788183E+03 -0.13439447144E+04 -0.69249200503E+01  0.15294134663E+04  0.84366846457E+02 0.  0.
        254    2    1    2    0    0 -0.72508788183E+03  0.13439447144E+04 -0.47513446764E+03  0.18316652587E+04  0.89291938376E+03 0.  0.
         23    2    4    4    0    0  0.10377338138E+03  0.52525157883E+03 -0.36943598960E+03  0.65839495456E+03  0.10169970521E+03 0.  0.
         23    2    4    4    0    0 -0.82886126320E+03  0.81869313553E+03 -0.10569847804E+03  0.11732703041E+04  0.90119889357E+02 0.  0.
          1    1    3    3  502    0  0.62035241445E+03 -0.11905258485E+04 -0.25737955037E+02  0.13427030038E+04  0.00000000000E+00 0. -1.
         -1    1    3    3    0  502  0.10473546738E+03 -0.15341886587E+03  0.18813034986E+02  0.18671046252E+03  0.00000000000E+00 0.  1.
         13    1    5    5    0    0 -0.14072605018E+01  0.58670350813E+02 -0.87200587794E+01  0.59331525109E+02  0.00000000000E+00 0.  1.
        -13    1    5    5    0    0  0.10518064188E+03  0.46658122802E+03 -0.36071593082E+03  0.59906342945E+03  0.00000000000E+00 0. -1.
          3    1    6    6  503    0 -0.83089513167E+03  0.81387822704E+03 -0.10382357175E+03  0.11677173555E+04  0.00000000000E+00 0. -1.
         -3    1    6    6    0  503  0.20338684707E+01  0.48149084855E+01 -0.18749062907E+01  0.55529486112E+01  0.00000000000E+00 0.  1.
<mgrwt>
<rscale>  0 0.33263297E+04</rscale>
<asrwt>0</asrwt>
<pdfrwt beam="1">  1        2 0.22146303E+00 0.33263297E+04</pdfrwt>
<pdfrwt beam="2">  1       -2 0.29562601E+00 0.33263297E+04</pdfrwt>
<totfact> 0.38699594E-01</totfact>
</mgrwt>
</event>
<event>
12    3  0.4192740E-008  0.1895799E+04  0.7818608E-02  0.8656950E-01
         -1   -1    0    0    0  501 -0.00000000000E+00  0.00000000000E+00  0.16715193741E+04  0.16715193741E+04  0.00000000000E+00 0.  1.
          1   -1    0    0  501    0  0.00000000000E+00 -0.00000000000E+00 -0.53754302613E+03  0.53754302613E+03  0.00000000000E+00 0. -1.
         23    2    1    2    0    0  0.33683309428E+02  0.66479920995E+03  0.37512010205E+02  0.67299510704E+03  0.91775314252E+02 0.  0.
        254    2    1    2    0    0 -0.33683309428E+02 -0.66479920995E+03  0.10964643377E+04  0.15360672932E+04  0.84508942149E+03 0.  0.
         23    2    4    4    0    0 -0.90335462042E+02 -0.79021109699E+03  0.56490453317E+03  0.97962474269E+03  0.89182012636E+02 0.  0.
         23    2    4    4    0    0  0.56652152614E+02  0.12541188704E+03  0.53155980455E+03  0.55644255047E+03  0.90193560466E+02 0.  0.
          3    1    3    3  502    0  0.64488355550E+02  0.50046172923E+03  0.34311185338E+02  0.50576471591E+03  0.00000000000E+00 0. -1.
         -3    1    3    3    0  502 -0.30805046122E+02  0.16433748072E+03  0.32008248670E+01  0.16723039113E+03  0.00000000000E+00 0.  1.
         13    1    5    5    0    0 -0.52399867360E+02 -0.52237142994E+03  0.32074389945E+03  0.61521890897E+03  0.00000000000E+00 0.  1.
        -13    1    5    5    0    0 -0.37935594682E+02 -0.26783966705E+03  0.24416063372E+03  0.36440583371E+03  0.00000000000E+00 0. -1.
          3    1    6    6  503    0  0.32713883447E+02  0.30777513351E+02  0.60361826351E+02  0.75239641006E+02  0.00000000000E+00 0. -1.
         -3    1    6    6    0  503  0.23938269167E+02  0.94634373689E+02  0.47119797820E+03  0.48120290946E+03  0.00000000000E+00 0.  1.
<mgrwt>
<rscale>  0 0.18957991E+04</rscale>
<asrwt>0</asrwt>
<pdfrwt beam="1">  1        1 0.82698928E-01 0.18957991E+04</pdfrwt>
<pdfrwt beam="2">  1       -1 0.25715682E+00 0.18957991E+04</pdfrwt>
<totfact> 0.23482321E+00</totfact>
</mgrwt>
</event>
<event>
12    3  0.4192740E-008  0.1575450E+04  0.7818608E-02  0.8835773E-01
         -1   -1    0    0    0  501 -0.00000000000E+00  0.00000000000E+00  0.23501767443E+03  0.23501767443E+03  0.00000000000E+00 0.  1.
          1   -1    0    0  501    0  0.00000000000E+00 -0.00000000000E+00 -0.26402728790E+04  0.26402728790E+04  0.00000000000E+00 0. -1.
         23    2    1    2    0    0 -0.23833747547E+02  0.25509731350E+03 -0.16374965467E+04  0.16599803367E+04  0.92179665345E+02 0.  0.
        254    2    1    2    0    0  0.23833747547E+02 -0.25509731350E+03 -0.76775865780E+03  0.12153102167E+04  0.90657756389E+03 0.  0.
         23    2    4    4    0    0 -0.31134957653E+03  0.18907181342E+03 -0.35675249416E+03  0.51754566831E+03  0.88850814619E+02 0.  0.
         23    2    4    4    0    0  0.33518332408E+03 -0.44416912692E+03 -0.41100616364E+03  0.69776454841E+03  0.91187852350E+02 0.  0.
          1    1    3    3  502    0 -0.44942483603E+02  0.23154844769E+03 -0.15246123411E+04  0.15427499153E+04  0.00000000000E+00 0. -1.
         -1    1    3    3    0  502  0.21108736056E+02  0.23548865810E+02 -0.11288420563E+03  0.11723042139E+03  0.00000000000E+00 0.  1.
         13    1    5    5    0    0 -0.72781538373E+02  0.72465592398E+02 -0.14614651272E+03  0.17862591522E+03  0.00000000000E+00 0.  1.
        -13    1    5    5    0    0 -0.23856803816E+03  0.11660622102E+03 -0.21060598144E+03  0.33891975308E+03  0.00000000000E+00 0. -1.
          3    1    6    6  503    0  0.46381962075E+02 -0.43346286444E+02 -0.84091724061E+02  0.10536415429E+03  0.00000000000E+00 0. -1.
         -3    1    6    6    0  503  0.28880136200E+03 -0.40082284048E+03 -0.32691443958E+03  0.59240039412E+03  0.00000000000E+00 0.  1.
<mgrwt>
<rscale>  0 0.15754501E+04</rscale>
<asrwt>0</asrwt>
<pdfrwt beam="1">  1        1 0.40619585E+00 0.15754501E+04</pdfrwt>
<pdfrwt beam="2">  1       -1 0.36156564E-01 0.15754501E+04</pdfrwt>
<totfact> 0.76300995E+00</totfact>
</mgrwt>
</event>
<event>
12    3  0.4192740E-008  0.1596028E+04  0.7818608E-02  0.8822992E-01
          2   -1    0    0  501    0  0.00000000000E+00  0.00000000000E+00  0.29006265199E+04  0.29006265199E+04  0.00000000000E+00 0. -1.
         -2   -1    0    0    0  501 -0.00000000000E+00 -0.00000000000E+00 -0.21954779315E+03  0.21954779315E+03  0.00000000000E+00 0.  1.
         23    2    1    2    0    0  0.16036923300E+03  0.24150933987E+03  0.28947387996E+02  0.30293271701E+03  0.82977271728E+02 0.  0.
        254    2    1    2    0    0 -0.16036923300E+03 -0.24150933987E+03  0.26521313388E+04  0.28172415961E+04  0.90498868518E+03 0.  0.
         23    2    4    4    0    0 -0.32650554795E+03  0.24837942331E+03  0.13197520136E+04  0.13850639416E+04  0.91425019608E+02 0.  0.
         23    2    4    4    0    0  0.16613631495E+03 -0.48988876318E+03  0.13323793252E+04  0.14321776545E+04  0.91136668181E+02 0.  0.
          2    1    3    3  502    0  0.12919807683E+03  0.12171453741E+03  0.23258452740E+02  0.17901823174E+03  0.00000000000E+00 0.  1.
         -2    1    3    3    0  502  0.31171156175E+02  0.11979480246E+03  0.56889352562E+01  0.12391448526E+03  0.00000000000E+00 0. -1.
         13    1    5    5    0    0 -0.29598720064E+03  0.25286886718E+03  0.12123450317E+04  0.12733151860E+04  0.00000000000E+00 0. -1.
        -13    1    5    5    0    0 -0.30518347314E+02 -0.44894438724E+01  0.10740698183E+03  0.11174875558E+03  0.00000000000E+00 0.  1.
          4    1    6    6  503    0  0.17322179379E+03 -0.41796481223E+03  0.11704525561E+04  0.12548543980E+04  0.00000000000E+00 0. -1.
         -4    1    6    6    0  503 -0.70854788406E+01 -0.71923950947E+02  0.16192676914E+03  0.17732325649E+03  0.00000000000E+00 0.  1.
<mgrwt>
<rscale>  0 0.15960278E+04</rscale>
<asrwt>0</asrwt>
<pdfrwt beam="1">  1        2 0.44625021E+00 0.15960278E+04</pdfrwt>
<pdfrwt beam="2">  1       -2 0.33776586E-01 0.15960278E+04</pdfrwt>
<totfact> 0.15868322E+01</totfact>
</mgrwt>
</event>
<event>
12    3  0.4192740E-008  0.2032900E+04  0.7818608E-02  0.8591391E-01
          2   -1    0    0  501    0  0.00000000000E+00  0.00000000000E+00  0.85354967070E+03  0.85354967070E+03  0.00000000000E+00 0. -1.
         -2   -1    0    0    0  501 -0.00000000000E+00 -0.00000000000E+00 -0.12104404217E+04  0.12104404217E+04  0.00000000000E+00 0.  1.
         23    2    1    2    0    0 -0.38897968330E+03  0.33504459912E+01 -0.86558452789E+03  0.95410142012E+03  0.98775125619E+02 0.  0.
        254    2    1    2    0    0  0.38897968330E+03 -0.33504459912E+01  0.50869377691E+03  0.11098886723E+04  0.90651369910E+03 0.  0.
         23    2    4    4    0    0  0.95181835368E+02  0.41888936608E+03  0.35765410827E+03  0.56603039598E+03  0.89140704612E+02 0.  0.
         23    2    4    4    0    0  0.29379784793E+03 -0.42223981207E+03  0.15103966864E+03  0.54385827629E+03  0.91461515654E+02 0.  0.
          2    1    3    3  502    0 -0.35295999522E+02  0.30113187487E+02 -0.89803873318E+02  0.10108089486E+03  0.00000000000E+00 0. -1.
         -2    1    3    3    0  502 -0.35368368378E+03 -0.26762741496E+02 -0.77578065458E+03  0.85302052526E+03  0.00000000000E+00 0.  1.
         13    1    5    5    0    0  0.11271007864E+03  0.36910786014E+03  0.31348181218E+03  0.49720722120E+03  0.00000000000E+00 0. -1.
        -13    1    5    5    0    0 -0.17528243274E+02  0.49781505932E+02  0.44172296090E+02  0.68823174781E+02  0.00000000000E+00 0.  1.
          3    1    6    6  503    0  0.29946672533E+03 -0.40600534884E+03  0.14053839020E+03  0.52370955881E+03  0.00000000000E+00 0. -1.
         -3    1    6    6    0  503 -0.56688774039E+01 -0.16234463231E+02  0.10501278440E+02  0.20148717485E+02  0.00000000000E+00 0.  1.
<mgrwt>
<rscale>  0 0.20329004E+04</rscale>
<asrwt>0</asrwt>
<pdfrwt beam="1">  1        2 0.13131534E+00 0.20329004E+04</pdfrwt>
<pdfrwt beam="2">  1       -2 0.18622160E+00 0.20329004E+04</pdfrwt>
<totfact> 0.48045608E+00</totfact>
</mgrwt>
</event>
<event>
12    3  0.4192740E-008  0.2679292E+04  0.7818608E-02  0.8341755E-01
          2   -1    0    0  501    0  0.00000000000E+00  0.00000000000E+00  0.38921188965E+04  0.38921188965E+04  0.00000000000E+00 0. -1.
         -2   -1    0    0    0  501 -0.00000000000E+00 -0.00000000000E+00 -0.46109886823E+03  0.46109886823E+03  0.00000000000E+00 0.  1.
         23    2    1    2    0    0  0.78022552399E+03 -0.50506160780E+03  0.32691783308E+03  0.98940678248E+03  0.90616861965E+02 0.  0.
        254    2    1    2    0    0 -0.78022552399E+03  0.50506160780E+03  0.31041021952E+04  0.33638109823E+04  0.90329108827E+03 0.  0.
         23    2    4    4    0    0 -0.23381897713E+03  0.36339445256E+03  0.38698993842E+03  0.58700267283E+03  0.89911530106E+02 0.  0.
         23    2    4    4    0    0 -0.54640654686E+03  0.14166715524E+03  0.27171122568E+04  0.27768083095E+04  0.96621291993E+02 0.  0.
          4    1    3    3  502    0  0.43446892828E+03 -0.28371576399E+03  0.13470777367E+03  0.53610080084E+03  0.00000000000E+00 0. -1.
         -4    1    3    3    0  502  0.34575659571E+03 -0.22134584381E+03  0.19221005942E+03  0.45330598164E+03  0.00000000000E+00 0.  1.
         13    1    5    5    0    0 -0.20548007950E+03  0.34302705830E+03  0.32262918505E+03  0.51378907817E+03  0.00000000000E+00 0.  1.
        -13    1    5    5    0    0 -0.28338897627E+02  0.20367394253E+02  0.64360753371E+02  0.73213594651E+02  0.00000000000E+00 0. -1.
          1    1    6    6  503    0 -0.17431724156E+03  0.92544288214E+02  0.94179597223E+03  0.96225287700E+03  0.00000000000E+00 0. -1.
         -1    1    6    6    0  503 -0.37208930530E+03  0.49122867027E+02  0.17753162846E+04  0.18145554325E+04  0.00000000000E+00 0.  1.
<mgrwt>
<rscale>  0 0.26792922E+04</rscale>
<asrwt>0</asrwt>
<pdfrwt beam="1">  1        2 0.59878750E+00 0.26792922E+04</pdfrwt>
<pdfrwt beam="2">  1       -2 0.70938290E-01 0.26792922E+04</pdfrwt>
<totfact> 0.66241617E-01</totfact>
</mgrwt>
</event>
<event>
12    3  0.4192740E-008  0.1392978E+04  0.7818608E-02  0.8958917E-01
         -1   -1    0    0    0  501 -0.00000000000E+00  0.00000000000E+00  0.95936992214E+03  0.95936992214E+03  0.00000000000E+00 0.  1.
          1   -1    0    0  501    0  0.00000000000E+00 -0.00000000000E+00 -0.50564139877E+03  0.50564139877E+03  0.00000000000E+00 0. -1.
         23    2    1    2    0    0  0.11486885366E+03 -0.33334347475E+03  0.25678888565E+03  0.44553833713E+03  0.90835853942E+02 0.  0.
        254    2    1    2    0    0 -0.11486885366E+03  0.33334347475E+03  0.19693963772E+03  0.10194729838E+04  0.93607009250E+03 0.  0.
         23    2    4    4    0    0  0.31900816416E+03  0.25754176159E+03  0.34651909171E+03  0.54565676834E+03  0.97835883736E+02 0.  0.
         23    2    4    4    0    0 -0.43387701781E+03  0.75801713156E+02 -0.14957945399E+03  0.47381621545E+03  0.90181077047E+02 0.  0.
          2    1    3    3  502    0 -0.71404786967E+01 -0.28524455958E+02  0.11574791250E+01  0.29427381495E+02  0.00000000000E+00 0. -1.
         -2    1    3    3    0  502  0.12200933235E+03 -0.30481901879E+03  0.25563140653E+03  0.41611095564E+03  0.00000000000E+00 0.  1.
         13    1    5    5    0    0  0.17269232447E+03  0.19947834984E+03  0.20801073903E+03  0.33598023534E+03  0.00000000000E+00 0. -1.
        -13    1    5    5    0    0  0.14631583969E+03  0.58063411757E+02  0.13850835268E+03  0.20967653300E+03  0.00000000000E+00 0.  1.
          1    1    6    6  503    0 -0.31610715784E+03  0.14220351674E+02 -0.11266946848E+03  0.33588742574E+03  0.00000000000E+00 0. -1.
         -1    1    6    6    0  503 -0.11776985997E+03  0.61581361482E+02 -0.36909985519E+02  0.13792878971E+03  0.00000000000E+00 0.  1.
<mgrwt>
<rscale>  0 0.13929783E+04</rscale>
<asrwt>0</asrwt>
<pdfrwt beam="1">  1        1 0.77790985E-01 0.13929783E+04</pdfrwt>
<pdfrwt beam="2">  1       -1 0.14759537E+00 0.13929783E+04</pdfrwt>
<totfact> 0.15515515E+01</totfact>
</mgrwt>
</event>
<event>
12    3  0.4192740E-008  0.2665633E+04  0.7818608E-02  0.8346243E-01
          4   -1    0    0  501    0  0.00000000000E+00  0.00000000000E+00  0.12872011965E+04  0.12872011965E+04  0.00000000000E+00 0. -1.
         -4   -1    0    0    0  501 -0.00000000000E+00 -0.00000000000E+00 -0.13800485712E+04  0.13800485712E+04  0.00000000000E+00 0.  1.
         23    2    1    2    0    0  0.10017899439E+04  0.47751463015E+03  0.30198808192E+03  0.11537403235E+04  0.91195497291E+02 0.  0.
        254    2    1    2    0    0 -0.10017899439E+04 -0.47751463015E+03 -0.39483545654E+03  0.15135094442E+04  0.95037491878E+03 0.  0.
         23    2    4    4    0    0 -0.24714354505E+03 -0.22471792639E+03  0.29623187597E+03  0.45521652642E+03  0.88829518125E+02 0.  0.
         23    2    4    4    0    0 -0.75464639887E+03 -0.25279670376E+03 -0.69106733250E+03  0.10582929178E+04  0.94934087830E+02 0.  0.
          3    1    3    3  502    0  0.18579210094E+03  0.89917710843E+02  0.19977888121E+02  0.20737168444E+03  0.00000000000E+00 0. -1.
         -3    1    3    3    0  502  0.81599784298E+03  0.38759691931E+03  0.28201019380E+03  0.94636863906E+03  0.00000000000E+00 0.  1.
         13    1    5    5    0    0 -0.78297212628E+02 -0.13003010027E+03  0.13922208214E+03  0.20596375563E+03  0.00000000000E+00 0.  1.
        -13    1    5    5    0    0 -0.16884633242E+03 -0.94687826125E+02  0.15700979383E+03  0.24925277079E+03  0.00000000000E+00 0. -1.
          1    1    6    6  503    0 -0.17446086346E+03 -0.40697520154E+02 -0.20503304731E+03  0.27227087893E+03  0.00000000000E+00 0. -1.
         -1    1    6    6    0  503 -0.58018553541E+03 -0.21209918360E+03 -0.48603428519E+03  0.78602203886E+03  0.00000000000E+00 0.  1.
<mgrwt>
<rscale>  0 0.26656333E+04</rscale>
<asrwt>0</asrwt>
<pdfrwt beam="1">  1        4 0.19803095E+00 0.26656333E+04</pdfrwt>
<pdfrwt beam="2">  1       -4 0.21231517E+00 0.26656333E+04</pdfrwt>
<totfact> 0.25970918E-02</totfact>
</mgrwt>
</event>
<event>
12    3  0.4192740E-008  0.1615200E+04  0.7818608E-02  0.8811264E-01
          1   -1    0    0  501    0  0.00000000000E+00  0.00000000000E+00  0.91274508425E+03  0.91274508425E+03  0.00000000000E+00 0. -1.
         -1   -1    0    0    0  501 -0.00000000000E+00 -0.00000000000E+00 -0.71456770277E+03  0.71456770277E+03  0.00000000000E+00 0.  1.
         23    2    1    2    0    0 -0.19028367215E+03 -0.45656274508E+03 -0.17553855936E+03  0.53278104940E+03  0.91566613443E+02 0.  0.
        254    2    1    2    0    0  0.19028367215E+03  0.45656274508E+03  0.37371594084E+03  0.10945317376E+04  0.90204140933E+03 0.  0.
         23    2    4    4    0    0  0.31916042946E+03  0.39871029948E+03  0.61242037680E+03  0.80263515983E+03  0.91275403218E+02 0.  0.
         23    2    4    4    0    0 -0.12887675731E+03  0.57852445602E+02 -0.23870443596E+03  0.29189657779E+03  0.90926785595E+02 0.  0.
          3    1    3    3  502    0 -0.41248282759E+02 -0.11124035714E+03 -0.22325950132E+01  0.11866264099E+03  0.00000000000E+00 0. -1.
         -3    1    3    3    0  502 -0.14903538939E+03 -0.34532238794E+03 -0.17330596435E+03  0.41411840841E+03  0.00000000000E+00 0.  1.
         13    1    5    5    0    0  0.49791179341E+02  0.11387030179E+03  0.18258882668E+03  0.22087165232E+03  0.00000000000E+00 0. -1.
        -13    1    5    5    0    0  0.26936925012E+03  0.28483999769E+03  0.42983155012E+03  0.58176350751E+03  0.00000000000E+00 0.  1.
          4    1    6    6  503    0 -0.78084265571E+02  0.49125540669E+01 -0.18533606504E+03  0.20117341455E+03  0.00000000000E+00 0. -1.
         -4    1    6    6    0  503 -0.50792491741E+02  0.52939891535E+02 -0.53368370924E+02  0.90723163239E+02  0.00000000000E+00 0.  1.
<mgrwt>
<rscale>  0 0.16152005E+04</rscale>
<asrwt>0</asrwt>
<pdfrwt beam="1">  1        1 0.14042232E+00 0.16152005E+04</pdfrwt>
<pdfrwt beam="2">  1       -1 0.10993349E+00 0.16152005E+04</pdfrwt>
<totfact> 0.13014801E+01</totfact>
</mgrwt>
</event>
<event>
12    3  0.4192740E-008  0.2173477E+04  0.7818608E-02  0.8529549E-01
         -1   -1    0    0    0  501 -0.00000000000E+00  0.00000000000E+00  0.17851959970E+04  0.17851959970E+04  0.00000000000E+00 0.  1.
          1   -1    0    0  501    0  0.00000000000E+00 -0.00000000000E+00 -0.66155223684E+03  0.66155223684E+03  0.00000000000E+00 0. -1.
         23    2    1    2    0    0  0.71157812964E+03  0.47715441697E+03  0.77885819288E+03  0.11613381573E+04  0.89813467114E+02 0.  0.
        254    2    1    2    0    0 -0.71157812964E+03 -0.47715441697E+03  0.34478556730E+03  0.12854100765E+04  0.89408176648E+03 0.  0.
         23    2    4    4    0    0 -0.59075905996E+03  0.72254906418E+02 -0.30686006922E+02  0.60307958923E+03  0.92446316817E+02 0.  0.
         23    2    4    4    0    0 -0.12081906968E+03 -0.54940932339E+03  0.37547157422E+03  0.68233048728E+03  0.90267040494E+02 0.  0.
          4    1    3    3  502    0  0.27025716864E+03  0.15244151736E+03  0.23397088825E+03  0.38861257051E+03  0.00000000000E+00 0. -1.
         -4    1    3    3    0  502  0.44132096100E+03  0.32471289961E+03  0.54488730463E+03  0.77272558683E+03  0.00000000000E+00 0.  1.
         13    1    5    5    0    0 -0.16922688519E+02  0.10220379722E+02 -0.16459597212E+02  0.25724538650E+02  0.00000000000E+00 0.  1.
        -13    1    5    5    0    0 -0.57383637144E+03  0.62034526696E+02 -0.14226409709E+02  0.57735505058E+03  0.00000000000E+00 0. -1.
          3    1    6    6  503    0 -0.13529866505E+03 -0.48829763209E+03  0.34007562743E+03  0.61023908318E+03  0.00000000000E+00 0. -1.
         -3    1    6    6    0  503  0.14479595377E+02 -0.61111691301E+02  0.35395946791E+02  0.72091404100E+02  0.00000000000E+00 0.  1.
<mgrwt>
<rscale>  0 0.21734769E+04</rscale>
<asrwt>0</asrwt>
<pdfrwt beam="1">  1        1 0.10177727E+00 0.21734769E+04</pdfrwt>
<pdfrwt beam="2">  1       -1 0.27464554E+00 0.21734769E+04</pdfrwt>
<totfact> 0.13071123E+00</totfact>
</mgrwt>
</event>
<event>
12    3  0.4192740E-008  0.1946807E+04  0.7818608E-02  0.8631902E-01
          2   -1    0    0  501    0  0.00000000000E+00  0.00000000000E+00  0.77067014878E+03  0.77067014878E+03  0.00000000000E+00 0. -1.
         -2   -1    0    0    0  501 -0.00000000000E+00 -0.00000000000E+00 -0.12294686631E+04  0.12294686631E+04  0.00000000000E+00 0.  1.
         23    2    1    2    0    0 -0.11101589747E+03 -0.53599084973E+03 -0.72728581973E+03  0.91471886651E+03  0.90306260532E+02 0.  0.
        254    2    1    2    0    0  0.11101589747E+03  0.53599084973E+03  0.26848730539E+03  0.10854199454E+04  0.89802021370E+03 0.  0.
         23    2    4    4    0    0  0.17197181965E+02  0.77066658333E+03  0.14296985711E+03  0.78860942466E+03  0.85098289573E+02 0.  0.
         23    2    4    4    0    0  0.93818715507E+02 -0.23467573361E+03  0.12551744828E+03  0.29681052073E+03  0.92017411779E+02 0.  0.
          2    1    3    3  502    0 -0.25239520755E+02 -0.35573301595E+02 -0.33480992287E+02  0.54986089503E+02  0.00000000000E+00 0. -1.
         -2    1    3    3    0  502 -0.85776376717E+02 -0.50041754813E+03 -0.69380482745E+03  0.85973277701E+03  0.00000000000E+00 0.  1.
         13    1    5    5    0    0  0.47861642724E+02  0.41025769962E+03  0.93968181891E+02  0.42359430608E+03  0.00000000000E+00 0. -1.
        -13    1    5    5    0    0 -0.30664460759E+02  0.36040888372E+03  0.49001675217E+02  0.36501511858E+03  0.00000000000E+00 0.  1.
          1    1    6    6  503    0  0.30939720753E+02 -0.14853906155E+03  0.32210561182E+02  0.15510847616E+03  0.00000000000E+00 0. -1.
         -1    1    6    6    0  503  0.62878994754E+02 -0.86136672059E+02  0.93306887102E+02  0.14170204457E+03  0.00000000000E+00 0.  1.
<mgrwt>
<rscale>  0 0.19468074E+04</rscale>
<asrwt>0</asrwt>
<pdfrwt beam="1">  1        2 0.11856464E+00 0.19468074E+04</pdfrwt>
<pdfrwt beam="2">  1       -2 0.18914902E+00 0.19468074E+04</pdfrwt>
<totfact> 0.53005107E+00</totfact>
</mgrwt>
</event>
<event>
12    3  0.4192740E-008  0.1417933E+04  0.7818608E-02  0.8940939E-01
          2   -1    0    0  501    0  0.00000000000E+00  0.00000000000E+00  0.85145219230E+03  0.85145219230E+03  0.00000000000E+00 0. -1.
         -2   -1    0    0    0  501 -0.00000000000E+00 -0.00000000000E+00 -0.59032457136E+03  0.59032457136E+03  0.00000000000E+00 0.  1.
         23    2    1    2    0    0 -0.10298716248E+03 -0.62795698969E+02  0.48472700953E+03  0.50746006751E+03  0.89475085390E+02 0.  0.
        254    2    1    2    0    0  0.10298716248E+03  0.62795698969E+02 -0.22359938859E+03  0.93431669615E+03  0.89911142062E+03 0.  0.
         23    2    4    4    0    0  0.26278845036E+03 -0.32227149138E+03  0.48316753574E+02  0.42864324462E+03  0.92107755812E+02 0.  0.
         23    2    4    4    0    0 -0.15980128788E+03  0.38506719035E+03 -0.27191614216E+03  0.50567345154E+03  0.89185528684E+02 0.  0.
          3    1    3    3  502    0 -0.67933994298E+02  0.24836016864E+01  0.31520971381E+03  0.32245675608E+03  0.00000000000E+00 0. -1.
         -3    1    3    3    0  502 -0.35053168181E+02 -0.65279300655E+02  0.16951729571E+03  0.18500331143E+03  0.00000000000E+00 0.  1.
         13    1    5    5    0    0  0.25753821250E+03 -0.28023436305E+03  0.58505325736E+02  0.38507155474E+03  0.00000000000E+00 0. -1.
        -13    1    5    5    0    0  0.52502378603E+01 -0.42037128335E+02 -0.10188572161E+02  0.43571689879E+02  0.00000000000E+00 0.  1.
          4    1    6    6  503    0 -0.55426787264E+02  0.50342725463E+02 -0.60333014801E+02  0.96159198356E+02  0.00000000000E+00 0. -1.
         -4    1    6    6    0  503 -0.10437450062E+03  0.33472446489E+03 -0.21158312736E+03  0.40951425318E+03  0.00000000000E+00 0.  1.
<mgrwt>
<rscale>  0 0.14179325E+04</rscale>
<asrwt>0</asrwt>
<pdfrwt beam="1">  1        2 0.13099264E+00 0.14179325E+04</pdfrwt>
<pdfrwt beam="2">  1       -2 0.90819165E-01 0.14179325E+04</pdfrwt>
<totfact> 0.31863487E+01</totfact>
</mgrwt>
</event>
<event>
12    3  0.4192740E-008  0.2054322E+04  0.7818608E-02  0.8581636E-01
          2   -1    0    0  501    0  0.00000000000E+00  0.00000000000E+00  0.97286002303E+03  0.97286002303E+03  0.00000000000E+00 0. -1.
         -2   -1    0    0    0  501 -0.00000000000E+00 -0.00000000000E+00 -0.10844931201E+04  0.10844931201E+04  0.00000000000E+00 0.  1.
         23    2    1    2    0    0  0.52017128792E+03  0.10090090005E+03 -0.67271645505E+03  0.86139736851E+03  0.93267556872E+02 0.  0.
        254    2    1    2    0    0 -0.52017128792E+03 -0.10090090005E+03  0.56108335802E+03  0.11959557746E+04  0.91363916277E+03 0.  0.
         23    2    4    4    0    0 -0.31816276945E+03 -0.25991382059E+03  0.75293517415E+03  0.86268021800E+03  0.92320312291E+02 0.  0.
         23    2    4    4    0    0 -0.20200851847E+03  0.15901292053E+03 -0.19185181614E+03  0.33327555660E+03  0.90404241275E+02 0.  0.
          1    1    3    3  502    0  0.47652110517E+01  0.57574699204E+01  0.13001013299E+01  0.75859053329E+01  0.00000000000E+00 0. -1.
         -1    1    3    3    0  502  0.51540607687E+03  0.95143430131E+02 -0.67401655638E+03  0.85381146317E+03  0.00000000000E+00 0.  1.
         13    1    5    5    0    0 -0.16642229276E+02 -0.27440033469E+02  0.23222357529E+02  0.39613092800E+02  0.00000000000E+00 0. -1.
        -13    1    5    5    0    0 -0.30152054018E+03 -0.23247378712E+03  0.72971281662E+03  0.82306712520E+03  0.00000000000E+00 0.  1.
          3    1    6    6  503    0 -0.57493297706E+02  0.43182464002E+02 -0.10853354064E+03  0.13019114380E+03  0.00000000000E+00 0. -1.
         -3    1    6    6    0  503 -0.14451522076E+03  0.11583045653E+03 -0.83318275494E+02  0.20308441280E+03  0.00000000000E+00 0.  1.
<mgrwt>
<rscale>  0 0.20543223E+04</rscale>
<asrwt>0</asrwt>
<pdfrwt beam="1">  1        2 0.14967077E+00 0.20543223E+04</pdfrwt>
<pdfrwt beam="2">  1       -2 0.16684509E+00 0.20543223E+04</pdfrwt>
<totfact> 0.54458731E+00</totfact>
</mgrwt>
</event>
<event>
12    3  0.4192740E-008  0.2160592E+04  0.7818608E-02  0.8535012E-01
         -1   -1    0    0    0  501 -0.00000000000E+00  0.00000000000E+00  0.50586705795E+03  0.50586705795E+03  0.00000000000E+00 0.  1.
          1   -1    0    0  501    0  0.00000000000E+00 -0.00000000000E+00 -0.23070074698E+04  0.23070074698E+04  0.00000000000E+00 0. -1.
         23    2    1    2    0    0 -0.85540531261E+03  0.98271921951E+01 -0.42504113336E+03  0.95965965715E+03  0.92042761622E+02 0.  0.
        254    2    1    2    0    0  0.85540531261E+03 -0.98271921951E+01 -0.13760992785E+04  0.18532148706E+04  0.89941164648E+03 0.  0.
         23    2    4    4    0    0  0.83776821637E+03 -0.15101859485E+03 -0.56796106720E+03  0.10271004745E+04  0.87712088294E+02 0.  0.
         23    2    4    4    0    0  0.17637096237E+02  0.14119140266E+03 -0.80813821132E+03  0.82611439616E+03  0.95559131463E+02 0.  0.
          1    1    3    3  502    0 -0.23047626728E+03 -0.30012998837E+02 -0.14288068775E+03  0.27282774934E+03  0.00000000000E+00 0. -1.
         -1    1    3    3    0  502 -0.62492904533E+03  0.39840191032E+02 -0.28216044561E+03  0.68683190780E+03  0.00000000000E+00 0.  1.
         13    1    5    5    0    0  0.17291913329E+03  0.19252106905E+01 -0.99224245502E+02  0.19937448180E+03  0.00000000000E+00 0. -1.
        -13    1    5    5    0    0  0.66484908307E+03 -0.15294380554E+03 -0.46873682170E+03  0.82772599266E+03  0.00000000000E+00 0.  1.
          1    1    6    6  503    0 -0.15399876155E+02  0.59906182444E+02 -0.15150667134E+03  0.16364650422E+03  0.00000000000E+00 0. -1.
         -1    1    6    6    0  503  0.33036972392E+02  0.81285220214E+02 -0.65663153997E+03  0.66246789195E+03  0.00000000000E+00 0.  1.
<mgrwt>
<rscale>  0 0.21605917E+04</rscale>
<asrwt>0</asrwt>
<pdfrwt beam="1">  1        1 0.35492423E+00 0.21605917E+04</pdfrwt>
<pdfrwt beam="2">  1       -1 0.77825701E-01 0.21605917E+04</pdfrwt>
<totfact> 0.27850100E+00</totfact>
</mgrwt>
</event>
<event>
12    3  0.4192740E-008  0.2809706E+04  0.7818608E-02  0.8300261E-01
         -2   -1    0    0    0  501 -0.00000000000E+00  0.00000000000E+00  0.13790774646E+04  0.13790774646E+04  0.00000000000E+00 0. -1.
          2   -1    0    0  501    0  0.00000000000E+00 -0.00000000000E+00 -0.14311101212E+04  0.14311101212E+04  0.00000000000E+00 0.  1.
         23    2    1    2    0    0  0.11496732234E+04 -0.26126794156E+03 -0.47182622615E+03  0.12731520905E+04  0.91031863107E+02 0.  0.
        254    2    1    2    0    0 -0.11496732234E+04  0.26126794156E+03  0.41979356956E+03  0.15370354953E+04  0.89232394051E+03 0.  0.
         23    2    4    4    0    0  0.30127436665E+02  0.27868355179E+03  0.96861370094E+02  0.31068551655E+03  0.92580671298E+02 0.  0.
         23    2    4    4    0    0 -0.11798006601E+04 -0.17415610236E+02  0.32293219947E+03  0.12263499787E+04  0.86117152170E+02 0.  0.
          2    1    3    3  502    0  0.97022596211E+03 -0.20681978846E+03 -0.36310592465E+03  0.10563894902E+04  0.00000000000E+00 0. -1.
         -2    1    3    3    0  502  0.17944726129E+03 -0.54448153100E+02 -0.10872030150E+03  0.21676260037E+03  0.00000000000E+00 0.  1.
         13    1    5    5    0    0  0.56740697117E+02  0.13867624678E+03  0.28089196439E+02  0.15244543643E+03  0.00000000000E+00 0.  1.
        -13    1    5    5    0    0 -0.26613260452E+02  0.14000730501E+03  0.68772173655E+02  0.15824008012E+03  0.00000000000E+00 0. -1.
          1    1    6    6  503    0 -0.49826211199E+03 -0.42094037170E+02  0.16212060942E+03  0.52566161379E+03  0.00000000000E+00 0. -1.
         -1    1    6    6    0  503 -0.68153854807E+03  0.24678426934E+02  0.16081159005E+03  0.70068836494E+03  0.00000000000E+00 0.  1.
<mgrwt>
<rscale>  0 0.28097058E+04</rscale>
<asrwt>0</asrwt>
<pdfrwt beam="1">  1        2 0.22017079E+00 0.28097058E+04</pdfrwt>
<pdfrwt beam="2">  1       -2 0.21216576E+00 0.28097058E+04</pdfrwt>
<totfact> 0.13393370E+00</totfact>
</mgrwt>
</event>
<event>
12    3  0.4192740E-008  0.2142050E+04  0.7818608E-02  0.8542943E-01
          1   -1    0    0  501    0  0.00000000000E+00  0.00000000000E+00  0.12348019159E+04  0.12348019159E+04  0.00000000000E+00 0. -1.
         -1   -1    0    0    0  501 -0.00000000000E+00 -0.00000000000E+00 -0.92897063933E+03  0.92897063933E+03  0.00000000000E+00 0.  1.
         23    2    1    2    0    0  0.80556015411E+03  0.34807998179E+02  0.48274050101E+03  0.94425837922E+03  0.91906130309E+02 0.  0.
        254    2    1    2    0    0 -0.80556015411E+03 -0.34807998179E+02 -0.17690922443E+03  0.12195141760E+04  0.89765204462E+03 0.  0.
         23    2    4    4    0    0 -0.80400237563E+02 -0.17448731235E+03  0.27604341881E+03  0.34845496066E+03  0.91163974084E+02 0.  0.
         23    2    4    4    0    0 -0.72515991654E+03  0.13967931417E+03 -0.45295264323E+03  0.87105921536E+03  0.90613709115E+02 0.  0.
          4    1    3    3  502    0  0.25215310091E+02  0.18031531710E+02  0.19272402213E+02  0.36501691548E+02  0.00000000000E+00 0.  1.
         -4    1    3    3    0  502  0.78034484401E+03  0.16776466469E+02  0.46346809879E+03  0.90775668767E+03  0.00000000000E+00 0. -1.
         13    1    5    5    0    0 -0.69826424962E+02 -0.17707783093E+03  0.27846193231E+03  0.33730303226E+03  0.00000000000E+00 0. -1.
        -13    1    5    5    0    0 -0.10573812601E+02  0.25905185820E+01 -0.24185134983E+01  0.11151928397E+02  0.00000000000E+00 0.  1.
          3    1    6    6  503    0 -0.36498144654E+03  0.94877139390E+02 -0.27564393375E+03  0.46711102118E+03  0.00000000000E+00 0. -1.
         -3    1    6    6    0  503 -0.36017847001E+03  0.44802174782E+02 -0.17730870949E+03  0.40394819418E+03  0.00000000000E+00 0.  1.
<mgrwt>
<rscale>  0 0.21420502E+04</rscale>
<asrwt>0</asrwt>
<pdfrwt beam="1">  1        1 0.18996952E+00 0.21420502E+04</pdfrwt>
<pdfrwt beam="2">  1       -1 0.14291856E+00 0.21420502E+04</pdfrwt>
<totfact> 0.36670668E+00</totfact>
</mgrwt>
</event>
<event>
12    3  0.4192740E-008  0.2368518E+04  0.7818608E-02  0.8451385E-01
         -1   -1    0    0    0  501 -0.00000000000E+00  0.00000000000E+00  0.82707063700E+03  0.82707063700E+03  0.00000000000E+00 0.  1.
          1   -1    0    0  501    0  0.00000000000E+00 -0.00000000000E+00 -0.16957071103E+04  0.16957071103E+04  0.00000000000E+00 0. -1.
         23    2    1    2    0    0 -0.59107201596E+03  0.65272993314E+03  0.15617750891E+03  0.89861005682E+03  0.87670555256E+02 0.  0.
        254    2    1    2    0    0  0.59107201596E+03 -0.65272993314E+03 -0.10248139823E+04  0.16241676905E+04  0.90125162692E+03 0.  0.
         23    2    4    4    0    0 -0.66861603848E+02 -0.41882145762E+03 -0.71748260167E+02  0.43935578275E+03  0.89463979191E+02 0.  0.
         23    2    4    4    0    0  0.65793361981E+03 -0.23390847552E+03 -0.95306572209E+03  0.11848119078E+04  0.88629358378E+02 0.  0.
          1    1    3    3  502    0 -0.37892093588E+03  0.42197719412E+03  0.57787921399E+02  0.57007479497E+03  0.00000000000E+00 0. -1.
         -1    1    3    3    0  502 -0.21215108008E+03  0.23075273902E+03  0.98389587515E+02  0.32853526185E+03  0.00000000000E+00 0.  1.
         13    1    5    5    0    0  0.99636567752E+01 -0.11372542522E+03 -0.47997450245E+02  0.12384063157E+03  0.00000000000E+00 0. -1.
        -13    1    5    5    0    0 -0.76825260623E+02 -0.30509603240E+03 -0.23750809923E+02  0.31551515118E+03  0.00000000000E+00 0.  1.
          1    1    6    6  503    0  0.41238620605E+03 -0.11604228840E+03 -0.52749648495E+03  0.67954450721E+03  0.00000000000E+00 0. -1.
         -1    1    6    6    0  503  0.24554741376E+03 -0.11786618712E+03 -0.42556923714E+03  0.50526740056E+03  0.00000000000E+00 0.  1.
<mgrwt>
<rscale>  0 0.23685182E+04</rscale>
<asrwt>0</asrwt>
<pdfrwt beam="1">  1        1 0.26087801E+00 0.23685182E+04</pdfrwt>
<pdfrwt beam="2">  1       -1 0.12724164E+00 0.23685182E+04</pdfrwt>
<totfact> 0.23078372E+00</totfact>
</mgrwt>
</event>
<event>
12    3  0.4192740E-008  0.2447555E+04  0.7818608E-02  0.8421911E-01
         -2   -1    0    0    0  501 -0.00000000000E+00  0.00000000000E+00  0.61519877588E+03  0.61519877588E+03  0.00000000000E+00 0.  1.
          2   -1    0    0  501    0  0.00000000000E+00 -0.00000000000E+00 -0.24343854142E+04  0.24343854142E+04  0.00000000000E+00 0. -1.
         23    2    1    2    0    0 -0.28175402392E+03  0.90433275198E+03 -0.13665900958E+04  0.16653567793E+04  0.92960508431E+02 0.  0.
        254    2    1    2    0    0  0.28175402392E+03 -0.90433275198E+03 -0.45259654252E+03  0.13842274108E+04  0.90224100891E+03 0.  0.
         23    2    4    4    0    0  0.33073339334E+03 -0.54359557146E+02  0.10447989294E+03  0.36281757736E+03  0.91547842637E+02 0.  0.
         23    2    4    4    0    0 -0.48979369411E+02 -0.84997319483E+03 -0.55707643546E+03  0.10214098334E+04  0.89947108339E+02 0.  0.
          3    1    3    3  502    0 -0.19465854065E+03  0.67907437002E+03 -0.95064830619E+03  0.11843842913E+04  0.00000000000E+00 0. -1.
         -3    1    3    3    0  502 -0.87095483279E+02  0.22525838196E+03 -0.41594178963E+03  0.48097248800E+03  0.00000000000E+00 0.  1.
         13    1    5    5    0    0  0.21051514446E+03  0.87872461705E+01  0.76605612053E+02  0.22419246540E+03  0.00000000000E+00 0.  1.
        -13    1    5    5    0    0  0.12021824887E+03 -0.63146803317E+02  0.27874280891E+02  0.13862511196E+03  0.00000000000E+00 0. -1.
          2    1    6    6  503    0 -0.44523358865E+02 -0.47062416777E+03 -0.35790979741E+03  0.59293242436E+03  0.00000000000E+00 0. -1.
         -2    1    6    6    0  503 -0.44560105459E+01 -0.37934902706E+03 -0.19916663805E+03  0.42847740906E+03  0.00000000000E+00 0.  1.
<mgrwt>
<rscale>  0 0.24475546E+04</rscale>
<asrwt>0</asrwt>
<pdfrwt beam="1">  1        2 0.37452084E+00 0.24475546E+04</pdfrwt>
<pdfrwt beam="2">  1       -2 0.94645965E-01 0.24475546E+04</pdfrwt>
<totfact> 0.31985666E+00</totfact>
</mgrwt>
</event>
<event>
12    3  0.4192740E-008  0.1659275E+04  0.7818608E-02  0.8784938E-01
         -2   -1    0    0    0  501 -0.00000000000E+00  0.00000000000E+00  0.62069781389E+03  0.62069781389E+03  0.00000000000E+00 0.  1.
          2   -1    0    0  501    0  0.00000000000E+00 -0.00000000000E+00 -0.11089110065E+04  0.11089110065E+04  0.00000000000E+00 0. -1.
         23    2    1    2    0    0 -0.51798540433E+03 -0.13397087041E+03 -0.28409764755E+03  0.61239052777E+03  0.89741918497E+02 0.  0.
        254    2    1    2    0    0  0.51798540433E+03  0.13397087041E+03 -0.20411554510E+03  0.11172182927E+04  0.95929999714E+03 0.  0.
         23    2    4    4    0    0 -0.20667216877E+03  0.10132279912E+03 -0.29025259670E+03  0.38154035071E+03  0.91360682809E+02 0.  0.
         23    2    4    4    0    0  0.72465757310E+03  0.32648071286E+02  0.86137051596E+02  0.73567794196E+03  0.87223550812E+02 0.  0.
          2    1    3    3  502    0 -0.80103629841E+02 -0.53975911254E+02 -0.63525552467E+02  0.11560919654E+03  0.00000000000E+00 0. -1.
         -2    1    3    3    0  502 -0.43788177449E+03 -0.79994959152E+02 -0.22057209509E+03  0.49678133122E+03  0.00000000000E+00 0.  1.
         13    1    5    5    0    0 -0.75065884232E+02 -0.78695794082E+01 -0.10640694628E+03  0.13045786857E+03  0.00000000000E+00 0.  1.
        -13    1    5    5    0    0 -0.13160628454E+03  0.10919237853E+03 -0.18384565042E+03  0.25108248214E+03  0.00000000000E+00 0. -1.
          1    1    6    6  503    0  0.68847876431E+03  0.19425305527E+02  0.97256935984E+02  0.69558555404E+03  0.00000000000E+00 0. -1.
         -1    1    6    6    0  503  0.36178808798E+02  0.13222765759E+02 -0.11119884387E+02  0.40092387920E+02  0.00000000000E+00 0.  1.
<mgrwt>
<rscale>  0 0.16592753E+04</rscale>
<asrwt>0</asrwt>
<pdfrwt beam="1">  1        2 0.17060169E+00 0.16592753E+04</pdfrwt>
<pdfrwt beam="2">  1       -2 0.95491972E-01 0.16592753E+04</pdfrwt>
<totfact> 0.18912163E+01</totfact>
</mgrwt>
</event>
<event>
12    3  0.4192740E-008  0.2606590E+04  0.7818608E-02  0.8365966E-01
         -2   -1    0    0    0  501 -0.00000000000E+00  0.00000000000E+00  0.87247594787E+03  0.87247594787E+03  0.00000000000E+00 0. -1.
          2   -1    0    0  501    0  0.00000000000E+00 -0.00000000000E+00 -0.19468482818E+04  0.19468482818E+04  0.00000000000E+00 0.  1.
         23    2    1    2    0    0  0.10681064525E+04 -0.29371670778E+03 -0.77449236105E+03  0.13546501244E+04  0.90097968541E+02 0.  0.
        254    2    1    2    0    0 -0.10681064525E+04  0.29371670778E+03 -0.29987997283E+03  0.14646741052E+04  0.91006666681E+03 0.  0.
         23    2    4    4    0    0  0.28569438255E+02  0.18455634662E+03 -0.28982914804E+03  0.35883872058E+03  0.99433568038E+02 0.  0.
         23    2    4    4    0    0 -0.10966758908E+04  0.10916036116E+03 -0.10050824789E+02  0.11058353846E+04  0.90315474773E+02 0.  0.
          4    1    3    3  502    0  0.30540010753E+03 -0.55617109509E+02 -0.18099179243E+03  0.35933343496E+03  0.00000000000E+00 0. -1.
         -4    1    3    3    0  502  0.76270634498E+03 -0.23809959827E+03 -0.59350056862E+03  0.99531668946E+03  0.00000000000E+00 0.  1.
         13    1    5    5    0    0  0.14110727976E+02  0.85674441558E+01 -0.92815229441E+02  0.94271843938E+02  0.00000000000E+00 0. -1.
        -13    1    5    5    0    0  0.14458710278E+02  0.17598890246E+03 -0.19701391860E+03  0.26456687664E+03  0.00000000000E+00 0.  1.
          2    1    6    6  503    0 -0.50216253043E+03  0.82279811628E+02 -0.36162806745E+02  0.51014206155E+03  0.00000000000E+00 0. -1.
         -2    1    6    6    0  503 -0.59451336033E+03  0.26880549529E+02  0.26111981956E+02  0.59569332308E+03  0.00000000000E+00 0.  1.
<mgrwt>
<rscale>  0 0.26065903E+04</rscale>
<asrwt>0</asrwt>
<pdfrwt beam="1">  1        2 0.29951512E+00 0.26065903E+04</pdfrwt>
<pdfrwt beam="2">  1       -2 0.13422707E+00 0.26065903E+04</pdfrwt>
<totfact> 0.25314634E+00</totfact>
</mgrwt>
</event>
<event>
12    3  0.4192740E-008  0.1428372E+04  0.7818608E-02  0.8933534E-01
         -1   -1    0    0    0  501 -0.00000000000E+00  0.00000000000E+00  0.54912822452E+03  0.54912822452E+03  0.00000000000E+00 0.  1.
          1   -1    0    0  501    0  0.00000000000E+00 -0.00000000000E+00 -0.92885731678E+03  0.92885731678E+03  0.00000000000E+00 0. -1.
         23    2    1    2    0    0 -0.98534675351E+02  0.76453445279E+02 -0.48496005789E+03  0.50935357595E+03  0.93276985640E+02 0.  0.
        254    2    1    2    0    0  0.98534675351E+02 -0.76453445279E+02  0.10523096563E+03  0.96863196534E+03  0.95478799564E+03 0.  0.
         23    2    4    4    0    0  0.37436344657E+03  0.29241193145E+03 -0.17240127139E+02  0.48418157840E+03  0.92096965755E+02 0.  0.
         23    2    4    4    0    0 -0.27582877122E+03 -0.36886537673E+03  0.12247109277E+03  0.48445038694E+03  0.86889767291E+02 0.  0.
          2    1    3    3  502    0 -0.60624460842E+02  0.16842253835E+02 -0.10135064638E+03  0.11929350480E+03  0.00000000000E+00 0. -1.
         -2    1    3    3    0  502 -0.37910214510E+02  0.59611191444E+02 -0.38360941151E+03  0.39006007115E+03  0.00000000000E+00 0.  1.
         13    1    5    5    0    0  0.15041189904E+03  0.12406129311E+03 -0.52189737948E+02  0.20183833275E+03  0.00000000000E+00 0.  1.
        -13    1    5    5    0    0  0.22395154753E+03  0.16835063834E+03  0.34949610809E+02  0.28234324565E+03  0.00000000000E+00 0. -1.
          3    1    6    6  503    0 -0.23969099033E+03 -0.30542100242E+03  0.13360900441E+03  0.41059119039E+03  0.00000000000E+00 0. -1.
         -3    1    6    6    0  503 -0.36137780891E+02 -0.63444374310E+02 -0.11137911648E+02  0.73859196552E+02  0.00000000000E+00 0.  1.
<mgrwt>
<rscale>  0 0.14283722E+04</rscale>
<asrwt>0</asrwt>
<pdfrwt beam="1">  1        1 0.14290113E+00 0.14283722E+04</pdfrwt>
<pdfrwt beam="2">  1       -1 0.84481265E-01 0.14283722E+04</pdfrwt>
<totfact> 0.23273620E+01</totfact>
</mgrwt>
</event>
<event>
12    3  0.4192740E-008  0.1483803E+04  0.7818608E-02  0.8895296E-01
         -2   -1    0    0    0  501 -0.00000000000E+00  0.00000000000E+00  0.22629149519E+04  0.22629149519E+04  0.00000000000E+00 0.  1.
          2   -1    0    0  501    0  0.00000000000E+00 -0.00000000000E+00 -0.24323385902E+03  0.24323385902E+03  0.00000000000E+00 0. -1.
         23    2    1    2    0    0 -0.45969286149E+03 -0.58433122058E+02  0.83908895861E+03  0.96290558466E+03  0.91569251666E+02 0.  0.
        254    2    1    2    0    0  0.45969286149E+03  0.58433122058E+02  0.11805921342E+04  0.15432432262E+04  0.87924394296E+03 0.  0.
         23    2    4    4    0    0 -0.15216534451E+03 -0.24453958309E+03  0.31158413130E+03  0.43422940622E+03  0.92285462469E+02 0.  0.
         23    2    4    4    0    0  0.61185820600E+03  0.30297270515E+03  0.86900800294E+03  0.11090138200E+04  0.92594921468E+02 0.  0.
          1    1    3    3  502    0 -0.19129053573E+03 -0.55326432784E+02  0.42635813527E+03  0.47056810637E+03  0.00000000000E+00 0. -1.
         -1    1    3    3    0  502 -0.26840232576E+03 -0.31066892737E+01  0.41273082334E+03  0.49233747829E+03  0.00000000000E+00 0.  1.
         13    1    5    5    0    0  0.10138745382E+02 -0.40266335256E+02  0.41296291268E+02  0.58562407612E+02  0.00000000000E+00 0. -1.
        -13    1    5    5    0    0 -0.16230408989E+03 -0.20427324784E+03  0.27028784003E+03  0.37566699861E+03  0.00000000000E+00 0.  1.
          2    1    6    6  503    0  0.32080627548E+02  0.28265972297E+02  0.91402329661E+02  0.10090846209E+03  0.00000000000E+00 0. -1.
         -2    1    6    6    0  503  0.57977757845E+03  0.27470673285E+03  0.77760567328E+03  0.10081053579E+04  0.00000000000E+00 0.  1.
<mgrwt>
<rscale>  0 0.14838026E+04</rscale>
<asrwt>0</asrwt>
<pdfrwt beam="1">  1        2 0.37420595E-01 0.14838026E+04</pdfrwt>
<pdfrwt beam="2">  1       -2 0.34814075E+00 0.14838026E+04</pdfrwt>
<totfact> 0.21618274E+00</totfact>
</mgrwt>
</event>
<event>
12    3  0.4192740E-008  0.1124621E+04  0.7818608E-02  0.9181521E-01
         -2   -1    0    0    0  501 -0.00000000000E+00  0.00000000000E+00  0.26554391422E+03  0.26554391422E+03  0.00000000000E+00 0.  1.
          2   -1    0    0  501    0  0.00000000000E+00 -0.00000000000E+00 -0.11907380458E+04  0.11907380458E+04  0.00000000000E+00 0. -1.
         23    2    1    2    0    0 -0.52318627284E+02 -0.84041700192E+02  0.34555999692E+02  0.13884724087E+03  0.91017542538E+02 0.  0.
        254    2    1    2    0    0  0.52318627284E+02  0.84041700192E+02 -0.95975013127E+03  0.13174347191E+04  0.89705834739E+03 0.  0.
         23    2    4    4    0    0 -0.11545485863E+03  0.31251092404E+03 -0.95861725299E+03  0.10190955177E+04  0.92820980279E+02 0.  0.
         23    2    4    4    0    0  0.16777348591E+03 -0.22846922385E+03 -0.11328782790E+01  0.29833920148E+03  0.93053032770E+02 0.  0.
          2    1    3    3  502    0 -0.27799674012E+02 -0.61480888110E+01 -0.24908533404E+02  0.37829299591E+02  0.00000000000E+00 0. -1.
         -2    1    3    3    0  502 -0.24518953272E+02 -0.77893611381E+02  0.59464533095E+02  0.10101794128E+03  0.00000000000E+00 0.  1.
         13    1    5    5    0    0  0.38502715378E+01  0.11303598794E+03 -0.29374587083E+03  0.31476752658E+03  0.00000000000E+00 0.  1.
        -13    1    5    5    0    0 -0.11930513017E+03  0.19947493610E+03 -0.66487138215E+03  0.70432799108E+03  0.00000000000E+00 0. -1.
          2    1    6    6  503    0  0.13297143077E+03 -0.17604249135E+03 -0.40229721574E+02  0.22425608277E+03  0.00000000000E+00 0. -1.
         -2    1    6    6    0  503  0.34802055142E+02 -0.52426732493E+02  0.39096843295E+02  0.74083118709E+02  0.00000000000E+00 0.  1.
<mgrwt>
<rscale>  0 0.11246213E+04</rscale>
<asrwt>0</asrwt>
<pdfrwt beam="1">  1        2 0.18319047E+00 0.11246213E+04</pdfrwt>
<pdfrwt beam="2">  1       -2 0.40852909E-01 0.11246213E+04</pdfrwt>
<totfact> 0.10784331E+02</totfact>
</mgrwt>
</event>
<event>
12    3  0.4192740E-008  0.1945870E+04  0.7818608E-02  0.8632355E-01
         -1   -1    0    0    0  501 -0.00000000000E+00  0.00000000000E+00  0.81903512094E+03  0.81903512094E+03  0.00000000000E+00 0.  1.
          1   -1    0    0  501    0  0.00000000000E+00 -0.00000000000E+00 -0.11557535268E+04  0.11557535268E+04  0.00000000000E+00 0. -1.
         23    2    1    2    0    0 -0.14119732727E+03  0.33277757602E+03 -0.80051203225E+03  0.88330872126E+03  0.93472899493E+02 0.  0.
        254    2    1    2    0    0  0.14119732727E+03 -0.33277757602E+03  0.46379362635E+03  0.10914799265E+04  0.91953591656E+03 0.  0.
         23    2    4    4    0    0  0.16001093077E+03 -0.63695795747E+03  0.25609845859E+03  0.71101843182E+03  0.92961563810E+02 0.  0.
         23    2    4    4    0    0 -0.18813603505E+02  0.30418038145E+03  0.20769516776E+03  0.38046149471E+03  0.93455926065E+02 0.  0.
          2    1    3    3  502    0 -0.10866898124E+03  0.16909128027E+03 -0.51147026644E+03  0.54954767036E+03  0.00000000000E+00 0. -1.
         -2    1    3    3    0  502 -0.32528346032E+02  0.16368629575E+03 -0.28904176581E+03  0.33376105090E+03  0.00000000000E+00 0.  1.
         13    1    5    5    0    0  0.12790299654E+03 -0.50086081640E+03  0.15920045807E+03  0.54089326098E+03  0.00000000000E+00 0. -1.
        -13    1    5    5    0    0  0.32107934230E+02 -0.13609714107E+03  0.96898000511E+02  0.17012517083E+03  0.00000000000E+00 0.  1.
          1    1    6    6  503    0  0.30463706740E+02  0.15919181747E+03  0.13504890631E+03  0.21096985395E+03  0.00000000000E+00 0. -1.
         -1    1    6    6    0  503 -0.49277310245E+02  0.14498856397E+03  0.72646261452E+02  0.16949164077E+03  0.00000000000E+00 0.  1.
<mgrwt>
<rscale>  0 0.19458702E+04</rscale>
<asrwt>0</asrwt>
<pdfrwt beam="1">  1        1 0.17780823E+00 0.19458702E+04</pdfrwt>
<pdfrwt beam="2">  1       -1 0.12600540E+00 0.19458702E+04</pdfrwt>
<totfact> 0.58892443E+00</totfact>
</mgrwt>
</event>
<event>
12    3  0.4192740E-008  0.1482581E+04  0.7818608E-02  0.8896120E-01
         -2   -1    0    0    0  501 -0.00000000000E+00  0.00000000000E+00  0.91554193629E+03  0.91554193629E+03  0.00000000000E+00 0.  1.
          2   -1    0    0  501    0  0.00000000000E+00 -0.00000000000E+00 -0.60020359901E+03  0.60020359901E+03  0.00000000000E+00 0. -1.
         23    2    1    2    0    0  0.45386535471E+03 -0.89126731446E+02  0.33014089907E+02  0.47260950067E+03  0.91282394434E+02 0.  0.
        254    2    1    2    0    0 -0.45386535471E+03  0.89126731446E+02  0.28232424737E+03  0.10431360346E+04  0.89134082798E+03 0.  0.
         23    2    4    4    0    0 -0.27659213735E+03 -0.37283634095E+03  0.15845737191E+02  0.47327539497E+03  0.90710333031E+02 0.  0.
         23    2    4    4    0    0 -0.17727321736E+03  0.46196307240E+03  0.26647851018E+03  0.56986063966E+03  0.94311602595E+02 0.  0.
          1    1    3    3  502    0  0.41929968030E+03 -0.80048420035E+02  0.45095197066E+01  0.42689613165E+03  0.00000000000E+00 0. -1.
         -1    1    3    3    0  502  0.34565674409E+02 -0.90783114110E+01  0.28504570200E+02  0.45713369026E+02  0.00000000000E+00 0.  1.
         13    1    5    5    0    0 -0.14593955077E+03 -0.15482602067E+03 -0.30440047186E+02  0.21493265370E+03  0.00000000000E+00 0. -1.
        -13    1    5    5    0    0 -0.13065258658E+03 -0.21801032029E+03  0.46285784376E+02  0.25834274127E+03  0.00000000000E+00 0.  1.
          1    1    6    6  503    0 -0.60014731682E+02  0.99725786384E+02  0.10330833078E+03  0.15562651348E+03  0.00000000000E+00 0. -1.
         -1    1    6    6    0  503 -0.11725848568E+03  0.36223728602E+03  0.16317017941E+03  0.41423412618E+03  0.00000000000E+00 0.  1.
<mgrwt>
<rscale>  0 0.14825809E+04</rscale>
<asrwt>0</asrwt>
<pdfrwt beam="1">  1        2 0.92339015E-01 0.14825809E+04</pdfrwt>
<pdfrwt beam="2">  1       -2 0.14085261E+00 0.14825809E+04</pdfrwt>
<totfact> 0.16945762E+01</totfact>
</mgrwt>
</event>
<event>
12    3  0.4192740E-008  0.2033697E+04  0.7818608E-02  0.8591026E-01
         -2   -1    0    0    0  501 -0.00000000000E+00  0.00000000000E+00  0.10069039304E+04  0.10069039304E+04  0.00000000000E+00 0.  1.
          2   -1    0    0  501    0  0.00000000000E+00 -0.00000000000E+00 -0.10268916238E+04  0.10268916238E+04  0.00000000000E+00 0. -1.
         23    2    1    2    0    0  0.46076212682E+03 -0.59764315326E+03 -0.31494531377E+03  0.82284468264E+03  0.91671941902E+02 0.  0.
        254    2    1    2    0    0 -0.46076212682E+03  0.59764315326E+03  0.29495762028E+03  0.12109508716E+04  0.89995718756E+03 0.  0.
         23    2    4    4    0    0 -0.20548831284E+03 -0.17865723798E+03 -0.92788888985E+02  0.30135565092E+03  0.89786385516E+02 0.  0.
         23    2    4    4    0    0 -0.25527381398E+03  0.77630039124E+03  0.38774650927E+03  0.90959522065E+03  0.95964016305E+02 0.  0.
          2    1    3    3  502    0  0.25978312042E+03 -0.35099004860E+03 -0.13372624710E+03  0.45668806973E+03  0.00000000000E+00 0. -1.
         -2    1    3    3    0  502  0.20097900640E+03 -0.24665310466E+03 -0.18121906667E+03  0.36615661290E+03  0.00000000000E+00 0.  1.
         13    1    5    5    0    0 -0.79398604896E+02 -0.29578024896E+02 -0.58886623311E+02  0.10318251994E+03  0.00000000000E+00 0.  1.
        -13    1    5    5    0    0 -0.12608970794E+03 -0.14907921309E+03 -0.33902265674E+02  0.19817313098E+03  0.00000000000E+00 0. -1.
          2    1    6    6  503    0 -0.12850362662E+03  0.46175354445E+03  0.18056134435E+03  0.51218347976E+03  0.00000000000E+00 0. -1.
         -2    1    6    6    0  503 -0.12677018735E+03  0.31454684679E+03  0.20718516492E+03  0.39741174088E+03  0.00000000000E+00 0.  1.
<mgrwt>
<rscale>  0 0.20336973E+04</rscale>
<asrwt>0</asrwt>
<pdfrwt beam="1">  1        2 0.15798333E+00 0.20336973E+04</pdfrwt>
<pdfrwt beam="2">  1       -2 0.15490830E+00 0.20336973E+04</pdfrwt>
<totfact> 0.61671369E+00</totfact>
</mgrwt>
</event>
<event>
12    3  0.4192740E-008  0.1642648E+04  0.7818608E-02  0.8794768E-01
          2   -1    0    0  501    0  0.00000000000E+00  0.00000000000E+00  0.13201175907E+04  0.13201175907E+04  0.00000000000E+00 0. -1.
         -2   -1    0    0    0  501 -0.00000000000E+00 -0.00000000000E+00 -0.51099495885E+03  0.51099495885E+03  0.00000000000E+00 0.  1.
         23    2    1    2    0    0  0.18398572100E+03 -0.23332934232E+03 -0.25784519571E+03  0.40375994364E+03  0.90799887746E+02 0.  0.
        254    2    1    2    0    0 -0.18398572100E+03  0.23332934232E+03  0.10669678275E+04  0.14273526059E+04  0.90034537206E+03 0.  0.
         23    2    4    4    0    0 -0.33712878844E+03  0.19472633322E+03  0.11572562577E+04  0.12244277197E+04  0.91689856905E+02 0.  0.
         23    2    4    4    0    0  0.15314306744E+03  0.38603009100E+02 -0.90288430166E+02  0.20292488621E+03  0.89908383391E+02 0.  0.
          3    1    3    3  502    0  0.91236241144E+02 -0.48812443332E+02 -0.73341654529E+02  0.12682943117E+03  0.00000000000E+00 0. -1.
         -3    1    3    3    0  502  0.92749479856E+02 -0.18451689899E+03 -0.18450354118E+03  0.27693051247E+03  0.00000000000E+00 0.  1.
         13    1    5    5    0    0 -0.20626014907E+03  0.16482962239E+03  0.71216211597E+03  0.75953073205E+03  0.00000000000E+00 0. -1.
        -13    1    5    5    0    0 -0.13086863938E+03  0.29896710825E+02  0.44509414171E+03  0.46489698760E+03  0.00000000000E+00 0.  1.
          3    1    6    6  503    0  0.12056086068E+03 -0.71791690179E+01 -0.82341499854E+02  0.14617313089E+03  0.00000000000E+00 0. -1.
         -3    1    6    6    0  503  0.32582206768E+02  0.45782178117E+02 -0.79469303116E+01  0.56751755325E+02  0.00000000000E+00 0.  1.
<mgrwt>
<rscale>  0 0.16426484E+04</rscale>
<asrwt>0</asrwt>
<pdfrwt beam="1">  1        2 0.20309501E+00 0.16426484E+04</pdfrwt>
<pdfrwt beam="2">  1       -2 0.78614610E-01 0.16426484E+04</pdfrwt>
<totfact> 0.22112006E+01</totfact>
</mgrwt>
</event>
<event>
12    3  0.4192740E-008  0.1919357E+04  0.7818608E-02  0.8645281E-01
          1   -1    0    0  501    0  0.00000000000E+00  0.00000000000E+00  0.17935706161E+04  0.17935706161E+04  0.00000000000E+00 0. -1.
         -1   -1    0    0    0  501 -0.00000000000E+00 -0.00000000000E+00 -0.51349139472E+03  0.51349139472E+03  0.00000000000E+00 0.  1.
         23    2    1    2    0    0 -0.51427852464E+03  0.28540332125E+03 -0.52750773860E+02  0.59677410361E+03  0.86134951715E+02 0.  0.
        254    2    1    2    0    0  0.51427852464E+03 -0.28540332125E+03  0.13328299953E+04  0.17102879072E+04  0.89594166814E+03 0.  0.
         23    2    4    4    0    0  0.53762063092E+03 -0.38432995245E+03  0.42077028786E+03  0.78890843708E+03  0.92646812191E+02 0.  0.
         23    2    4    4    0    0 -0.23342106280E+02  0.98926631191E+02  0.91205970741E+03  0.92137947017E+03  0.82194196217E+02 0.  0.
          3    1    3    3  502    0 -0.14126587613E+03  0.67697353456E+02  0.22862999342E+02  0.15830886318E+03  0.00000000000E+00 0. -1.
         -3    1    3    3    0  502 -0.37301264851E+03  0.21770596780E+03 -0.75613773202E+02  0.43846524043E+03  0.00000000000E+00 0.  1.
         13    1    5    5    0    0  0.38234140107E+03 -0.27595547743E+03  0.34804495711E+03  0.58606455674E+03  0.00000000000E+00 0. -1.
        -13    1    5    5    0    0  0.15527922985E+03 -0.10837447502E+03  0.72725330746E+02  0.20284388034E+03  0.00000000000E+00 0.  1.
          1    1    6    6  503    0 -0.11494084445E+02  0.10968799414E+03  0.69150614525E+03  0.70024589892E+03  0.00000000000E+00 0. -1.
         -1    1    6    6    0  503 -0.11848021835E+02 -0.10761362948E+02  0.22055356215E+03  0.22113357125E+03  0.00000000000E+00 0.  1.
<mgrwt>
<rscale>  0 0.19193573E+04</rscale>
<asrwt>0</asrwt>
<pdfrwt beam="1">  1        1 0.27593394E+00 0.19193573E+04</pdfrwt>
<pdfrwt beam="2">  1       -1 0.78998677E-01 0.19193573E+04</pdfrwt>
<totfact> 0.61586020E+00</totfact>
</mgrwt>
</event>
<event>
12    3  0.4192740E-008  0.1430763E+04  0.7818608E-02  0.8931847E-01
         -2   -1    0    0    0  501 -0.00000000000E+00  0.00000000000E+00  0.18225540911E+03  0.18225540911E+03  0.00000000000E+00 0.  1.
          2   -1    0    0  501    0  0.00000000000E+00 -0.00000000000E+00 -0.28079860352E+04  0.28079860352E+04  0.00000000000E+00 0. -1.
         23    2    1    2    0    0  0.41006349910E+03  0.87367033921E+02 -0.97164299643E+03  0.10622118930E+04  0.91754679770E+02 0.  0.
        254    2    1    2    0    0 -0.41006349910E+03 -0.87367033921E+02 -0.16540876296E+04  0.19280295512E+04  0.89750041341E+03 0.  0.
         23    2    4    4    0    0 -0.23343517176E+03 -0.10341683753E+03 -0.10403618668E+02  0.27224356517E+03  0.93921785534E+02 0.  0.
         23    2    4    4    0    0 -0.17662832735E+03  0.16049803611E+02 -0.16436840110E+04  0.16557859861E+04  0.92059445837E+02 0.  0.
          1    1    3    3  502    0  0.31918650155E+03  0.30940555264E+02 -0.76581540084E+03  0.83024729382E+03  0.00000000000E+00 0. -1.
         -1    1    3    3    0  502  0.90876997557E+02  0.56426478657E+02 -0.20582759559E+03  0.23196459920E+03  0.00000000000E+00 0.  1.
         13    1    5    5    0    0 -0.18796235596E+03 -0.38246780383E+02  0.19413893431E+01  0.19182396216E+03  0.00000000000E+00 0. -1.
        -13    1    5    5    0    0 -0.45472815799E+02 -0.65170057149E+02 -0.12345008011E+02  0.80419603010E+02  0.00000000000E+00 0.  1.
          4    1    6    6  503    0 -0.16565352048E+03  0.42207104734E+02 -0.13652089499E+04  0.13758699087E+04  0.00000000000E+00 0.  1.
         -4    1    6    6    0  503 -0.10974806865E+02 -0.26157301123E+02 -0.27847506102E+03  0.27991607742E+03  0.00000000000E+00 0. -1.
<mgrwt>
<rscale>  0 0.14307629E+04</rscale>
<asrwt>0</asrwt>
<pdfrwt beam="1">  1        2 0.43199788E+00 0.14307629E+04</pdfrwt>
<pdfrwt beam="2">  1       -2 0.28039292E-01 0.14307629E+04</pdfrwt>
<totfact> 0.25983859E+01</totfact>
</mgrwt>
</event>
<event>
12    3  0.4192740E-008  0.2126264E+04  0.7818608E-02  0.8549761E-01
         -2   -1    0    0    0  501 -0.00000000000E+00  0.00000000000E+00  0.20909063592E+04  0.20909063592E+04  0.00000000000E+00 0.  1.
          2   -1    0    0  501    0  0.00000000000E+00 -0.00000000000E+00 -0.54055509257E+03  0.54055509257E+03  0.00000000000E+00 0. -1.
         23    2    1    2    0    0  0.12311257562E+03  0.83989336970E+03  0.40938207439E+03  0.94702831348E+03  0.93227490327E+02 0.  0.
        254    2    1    2    0    0 -0.12311257562E+03 -0.83989336970E+03  0.11409691922E+04  0.16844331383E+04  0.90273291785E+03 0.  0.
         23    2    4    4    0    0 -0.29906333296E+03 -0.86551493354E+03  0.57826201697E+03  0.10866084952E+04  0.88182108613E+02 0.  0.
         23    2    4    4    0    0  0.17595075734E+03  0.25621563841E+02  0.56270717526E+03  0.59782464307E+03  0.95602328590E+02 0.  0.
          1    1    3    3  502    0  0.55411510110E+02  0.44630630120E+03  0.16627341529E+03  0.47948576473E+03  0.00000000000E+00 0. -1.
         -1    1    3    3    0  502  0.67701065509E+02  0.39358706850E+03  0.24310865910E+03  0.46754254875E+03  0.00000000000E+00 0.  1.
         13    1    5    5    0    0 -0.16885689055E+03 -0.41119856684E+03  0.32294665324E+03  0.54944649575E+03  0.00000000000E+00 0. -1.
        -13    1    5    5    0    0 -0.13020644241E+03 -0.45431636671E+03  0.25531536373E+03  0.53716199945E+03  0.00000000000E+00 0.  1.
          3    1    6    6  503    0  0.10050451193E+03 -0.12638782553E+02  0.18659986693E+03  0.21232146873E+03  0.00000000000E+00 0. -1.
         -3    1    6    6    0  503  0.75446245408E+02  0.38260346394E+02  0.37610730833E+03  0.38550317435E+03  0.00000000000E+00 0.  1.
<mgrwt>
<rscale>  0 0.21262644E+04</rscale>
<asrwt>0</asrwt>
<pdfrwt beam="1">  1        2 0.83162323E-01 0.21262644E+04</pdfrwt>
<pdfrwt beam="2">  1       -2 0.32167790E+00 0.21262644E+04</pdfrwt>
<totfact> 0.12095283E+00</totfact>
</mgrwt>
</event>
<event>
12    3  0.4192740E-008  0.2099476E+04  0.7818608E-02  0.8561474E-01
         -2   -1    0    0    0  501 -0.00000000000E+00  0.00000000000E+00  0.85812318292E+03  0.85812318292E+03  0.00000000000E+00 0.  1.
          2   -1    0    0  501    0  0.00000000000E+00 -0.00000000000E+00 -0.12841389430E+04  0.12841389430E+04  0.00000000000E+00 0. -1.
         23    2    1    2    0    0  0.77757452702E+03 -0.29946149445E+03 -0.26017548199E+02  0.83850945124E+03  0.90121336390E+02 0.  0.
        254    2    1    2    0    0 -0.77757452702E+03  0.29946149445E+03 -0.39999821184E+03  0.13037526746E+04  0.91949613127E+03 0.  0.
         23    2    4    4    0    0 -0.76880730667E+02  0.49314514642E+03 -0.14242842612E+03  0.52649301974E+03  0.88353047938E+02 0.  0.
         23    2    4    4    0    0 -0.70069379635E+03 -0.19368365197E+03 -0.25756978572E+03  0.77725965490E+03  0.96463585503E+02 0.  0.
          3    1    3    3  502    0  0.26207843355E+03 -0.14650577249E+03 -0.17742080881E+01  0.30025355039E+03  0.00000000000E+00 0. -1.
         -3    1    3    3    0  502  0.51549609347E+03 -0.15295572196E+03 -0.24243340111E+02  0.53825590085E+03  0.00000000000E+00 0.  1.
         13    1    5    5    0    0 -0.87593194216E+01  0.14352781497E+03 -0.81011033368E+02  0.16504468145E+03  0.00000000000E+00 0.  1.
        -13    1    5    5    0    0 -0.68121411245E+02  0.34961733145E+03 -0.61417392749E+02  0.36144833829E+03  0.00000000000E+00 0. -1.
          1    1    6    6  503    0 -0.43902141861E+03 -0.16540087742E+03 -0.18437768501E+03  0.50407577504E+03  0.00000000000E+00 0. -1.
         -1    1    6    6    0  503 -0.26167237774E+03 -0.28282774552E+02 -0.73192100717E+02  0.27318387986E+03  0.00000000000E+00 0.  1.
<mgrwt>
<rscale>  0 0.20994756E+04</rscale>
<asrwt>0</asrwt>
<pdfrwt beam="1">  1        2 0.19755984E+00 0.20994756E+04</pdfrwt>
<pdfrwt beam="2">  1       -2 0.13201895E+00 0.20994756E+04</pdfrwt>
<totfact> 0.65011912E+00</totfact>
</mgrwt>
</event>
<event>
12    3  0.4192740E-008  0.1525562E+04  0.7818608E-02  0.8867630E-01
          2   -1    0    0  501    0  0.00000000000E+00  0.00000000000E+00  0.12796901385E+04  0.12796901385E+04  0.00000000000E+00 0. -1.
         -2   -1    0    0    0  501 -0.00000000000E+00 -0.00000000000E+00 -0.45466863736E+03  0.45466863736E+03  0.00000000000E+00 0.  1.
         23    2    1    2    0    0  0.42579552328E+03  0.14347478013E+03  0.47900667599E+03  0.66340749224E+03  0.93676384126E+02 0.  0.
        254    2    1    2    0    0 -0.42579552328E+03 -0.14347478013E+03  0.34601482519E+03  0.10709512837E+04  0.90847319859E+03 0.  0.
         23    2    4    4    0    0 -0.52436754344E+03 -0.38565281920E+03  0.39919687572E+02  0.65854719042E+03  0.91659167487E+02 0.  0.
         23    2    4    4    0    0  0.98572020161E+02  0.24217803908E+03  0.30609513762E+03  0.41240409325E+03  0.89533552829E+02 0.  0.
          3    1    3    3  502    0  0.41574244279E+03  0.12734841764E+03  0.43302190181E+03  0.61365084997E+03  0.00000000000E+00 0. -1.
         -3    1    3    3    0  502  0.10053080483E+02  0.16126362482E+02  0.45984774177E+02  0.49756642272E+02  0.00000000000E+00 0.  1.
         13    1    5    5    0    0 -0.92987563979E+02 -0.63012107202E+02  0.41809163254E+02  0.11985499089E+03  0.00000000000E+00 0. -1.
        -13    1    5    5    0    0 -0.43137997946E+03 -0.32264071200E+03 -0.18894756820E+01  0.53869219953E+03  0.00000000000E+00 0.  1.
          3    1    6    6  503    0  0.74859517531E+01  0.41214131781E+02  0.10816626304E+03  0.11599389895E+03  0.00000000000E+00 0. -1.
         -3    1    6    6    0  503  0.91086068407E+02  0.20096390730E+03  0.19792887458E+03  0.29641019430E+03  0.00000000000E+00 0.  1.
<mgrwt>
<rscale>  0 0.15255622E+04</rscale>
<asrwt>0</asrwt>
<pdfrwt beam="1">  1        2 0.19687540E+00 0.15255622E+04</pdfrwt>
<pdfrwt beam="2">  1       -2 0.69949022E-01 0.15255622E+04</pdfrwt>
<totfact> 0.30506609E+01</totfact>
</mgrwt>
</event>
<event>
12    3  0.4192740E-008  0.1637256E+04  0.7818608E-02  0.8797982E-01
         -2   -1    0    0    0  501 -0.00000000000E+00  0.00000000000E+00  0.34962969973E+03  0.34962969973E+03  0.00000000000E+00 0.  1.
          2   -1    0    0  501    0  0.00000000000E+00 -0.00000000000E+00 -0.19167472318E+04  0.19167472318E+04  0.00000000000E+00 0. -1.
         23    2    1    2    0    0 -0.82581226378E+02 -0.47128108173E+03 -0.96871148858E+03  0.10841877214E+04  0.90197284946E+02 0.  0.
        254    2    1    2    0    0  0.82581226378E+02  0.47128108173E+03 -0.59840604349E+03  0.11821892101E+04  0.90030884628E+03 0.  0.
         23    2    4    4    0    0  0.10148031832E+03 -0.77481021335E+02  0.17169362688E+03  0.23198535151E+03  0.89648971707E+02 0.  0.
         23    2    4    4    0    0 -0.18899091946E+02  0.54876210306E+03 -0.77009967037E+03  0.95020385861E+03  0.91306348005E+02 0.  0.
          1    1    3    3  502    0 -0.70659730816E+02 -0.32539846777E+03 -0.75488914668E+03  0.82506641197E+03  0.00000000000E+00 0. -1.
         -1    1    3    3    0  502 -0.11921495562E+02 -0.14588261396E+03 -0.21382234190E+03  0.25912130945E+03  0.00000000000E+00 0.  1.
         13    1    5    5    0    0  0.66252321034E+02 -0.80843074630E+02  0.16596579958E+03  0.19613673646E+03  0.00000000000E+00 0.  1.
        -13    1    5    5    0    0  0.35227997290E+02  0.33620532947E+01  0.57278273012E+01  0.35848615050E+02  0.00000000000E+00 0. -1.
          2    1    6    6  503    0 -0.12337345887E+02  0.60150760920E+01 -0.16143624128E+02  0.21189805189E+02  0.00000000000E+00 0. -1.
         -2    1    6    6    0  503 -0.65617460588E+01  0.54274702697E+03 -0.75395604624E+03  0.92901405342E+03  0.00000000000E+00 0.  1.
<mgrwt>
<rscale>  0 0.16372559E+04</rscale>
<asrwt>0</asrwt>
<pdfrwt beam="1">  1        2 0.29488419E+00 0.16372559E+04</pdfrwt>
<pdfrwt beam="2">  1       -2 0.53789185E-01 0.16372559E+04</pdfrwt>
<totfact> 0.23142204E+01</totfact>
</mgrwt>
</event>
<event>
12    3  0.4192740E-008  0.2115785E+04  0.7818608E-02  0.8554322E-01
          1   -1    0    0  501    0  0.00000000000E+00  0.00000000000E+00  0.16075872451E+04  0.16075872451E+04  0.00000000000E+00 0. -1.
         -1   -1    0    0    0  501 -0.00000000000E+00 -0.00000000000E+00 -0.69615883034E+03  0.69615883034E+03  0.00000000000E+00 0.  1.
         23    2    1    2    0    0  0.28664476783E+03  0.49046895017E+03 -0.33253489279E+03  0.66401923708E+03  0.87275874572E+02 0.  0.
        254    2    1    2    0    0 -0.28664476783E+03 -0.49046895017E+03  0.12439633075E+04  0.16397268383E+04  0.90472889855E+03 0.  0.
         23    2    4    4    0    0 -0.28507996788E+03  0.14804975054E+03  0.14475424706E+03  0.36518065159E+03  0.95988538537E+02 0.  0.
         23    2    4    4    0    0 -0.15647999533E+01 -0.63851870071E+03  0.10992090605E+04  0.12745461868E+04  0.92189173908E+02 0.  0.
          2    1    3    3  502    0  0.14534144174E+03  0.30787721581E+03 -0.16231299796E+03  0.37717108055E+03  0.00000000000E+00 0. -1.
         -2    1    3    3    0  502  0.14130332610E+03  0.18259173437E+03 -0.17022189483E+03  0.28684815653E+03  0.00000000000E+00 0.  1.
         13    1    5    5    0    0 -0.24649223220E+03  0.11582550208E+03  0.15572183443E+03  0.31372481124E+03  0.00000000000E+00 0. -1.
        -13    1    5    5    0    0 -0.38587735676E+02  0.32224248453E+02 -0.10967587369E+02  0.51455840346E+02  0.00000000000E+00 0.  1.
          1    1    6    6  503    0  0.33487172607E+02 -0.50521338776E+03  0.89190552387E+03  0.10256010050E+04  0.00000000000E+00 0. -1.
         -1    1    6    6    0  503 -0.35051972560E+02 -0.13330531295E+03  0.20730353660E+03  0.24894518177E+03  0.00000000000E+00 0.  1.
<mgrwt>
<rscale>  0 0.21157845E+04</rscale>
<asrwt>0</asrwt>
<pdfrwt beam="1">  1        1 0.24732111E+00 0.21157845E+04</pdfrwt>
<pdfrwt beam="2">  1       -1 0.10710136E+00 0.21157845E+04</pdfrwt>
<totfact> 0.41154427E+00</totfact>
</mgrwt>
</event>
<event>
12    3  0.4192740E-008  0.2192317E+04  0.7818608E-02  0.8521633E-01
         -1   -1    0    0    0  501 -0.00000000000E+00  0.00000000000E+00  0.50033955933E+03  0.50033955933E+03  0.00000000000E+00 0.  1.
          1   -1    0    0  501    0  0.00000000000E+00 -0.00000000000E+00 -0.24014958291E+04  0.24014958291E+04  0.00000000000E+00 0. -1.
         23    2    1    2    0    0  0.29733226327E+03 -0.36247932548E+03  0.23445965435E+03  0.53157942795E+03  0.88360752173E+02 0.  0.
        254    2    1    2    0    0 -0.29733226327E+03  0.36247932548E+03 -0.21356159241E+04  0.23702559605E+04  0.91512851919E+03 0.  0.
         23    2    4    4    0    0 -0.58798541344E+03  0.58167041902E+02 -0.12321410996E+04  0.13695338252E+04  0.91328844009E+02 0.  0.
         23    2    4    4    0    0  0.29065315018E+03  0.30431228358E+03 -0.90347482452E+03  0.10007221353E+04  0.89960068507E+02 0.  0.
          1    1    3    3  502    0  0.83718748027E+02 -0.16981651687E+03  0.88136435518E+02  0.20884087109E+03  0.00000000000E+00 0. -1.
         -1    1    3    3    0  502  0.21361351524E+03 -0.19266280861E+03  0.14632321883E+03  0.32273855686E+03  0.00000000000E+00 0.  1.
         13    1    5    5    0    0 -0.48048094036E+03  0.40504659659E+02 -0.10764395261E+04  0.11795018503E+04  0.00000000000E+00 0. -1.
        -13    1    5    5    0    0 -0.10750447308E+03  0.17662382242E+02 -0.15570157348E+03  0.19003197485E+03  0.00000000000E+00 0.  1.
          3    1    6    6  503    0  0.17405156998E+03  0.15110780486E+03 -0.39950202088E+03  0.46122595589E+03  0.00000000000E+00 0. -1.
         -3    1    6    6    0  503  0.11660158020E+03  0.15320447872E+03 -0.50397280364E+03  0.53949617943E+03  0.00000000000E+00 0.  1.
<mgrwt>
<rscale>  0 0.21923169E+04</rscale>
<asrwt>0</asrwt>
<pdfrwt beam="1">  1        1 0.36946089E+00 0.21923169E+04</pdfrwt>
<pdfrwt beam="2">  1       -1 0.76975319E-01 0.21923169E+04</pdfrwt>
<totfact> 0.24476596E+00</totfact>
</mgrwt>
</event>
<event>
12    3  0.4192740E-008  0.2554040E+04  0.7818608E-02  0.8383983E-01
         -1   -1    0    0    0  501 -0.00000000000E+00  0.00000000000E+00  0.75949324323E+03  0.75949324323E+03  0.00000000000E+00 0.  1.
          1   -1    0    0  501    0  0.00000000000E+00 -0.00000000000E+00 -0.21471943945E+04  0.21471943945E+04  0.00000000000E+00 0. -1.
         23    2    1    2    0    0 -0.30916168697E+03 -0.12505865958E+03  0.60374630153E+03  0.69437914210E+03  0.80200868733E+02 0.  0.
        254    2    1    2    0    0  0.30916168697E+03  0.12505865958E+03 -0.19914474528E+04  0.22123084957E+04  0.90400514688E+03 0.  0.
         23    2    4    4    0    0 -0.26828030424E+03  0.22398051252E+03 -0.61566184742E+03  0.71403493062E+03  0.93084800831E+02 0.  0.
         23    2    4    4    0    0  0.57744199121E+03 -0.98921852944E+02 -0.13757856054E+04  0.14982735650E+04  0.93876820713E+02 0.  0.
          1    1    3    3  502    0 -0.13406655143E+02 -0.20510493453E+01  0.34898261218E+01  0.14004431153E+02  0.00000000000E+00 0. -1.
         -1    1    3    3    0  502 -0.29575503182E+03 -0.12300761023E+03  0.60025647541E+03  0.68037471094E+03  0.00000000000E+00 0.  1.
         13    1    5    5    0    0 -0.72656702093E+02  0.37809468684E+02 -0.81803626536E+02  0.11576003454E+03  0.00000000000E+00 0. -1.
        -13    1    5    5    0    0 -0.19562360215E+03  0.18617104384E+03 -0.53385822089E+03  0.59827489609E+03  0.00000000000E+00 0.  1.
          4    1    6    6  503    0  0.38169775550E+03 -0.98096338884E+02 -0.99287037252E+03  0.10682264015E+04  0.00000000000E+00 0. -1.
         -4    1    6    6    0  503  0.19574423571E+03 -0.82551406046E+00 -0.38291523286E+03  0.43004716351E+03  0.00000000000E+00 0.  1.
<mgrwt>
<rscale>  0 0.25540397E+04</rscale>
<asrwt>0</asrwt>
<pdfrwt beam="1">  1        1 0.33033760E+00 0.25540397E+04</pdfrwt>
<pdfrwt beam="2">  1       -1 0.11684512E+00 0.25540397E+04</pdfrwt>
<totfact> 0.13821531E+00</totfact>
</mgrwt>
</event>
<event>
12    3  0.4192740E-008  0.2003642E+04  0.7818608E-02  0.8604920E-01
         -1   -1    0    0    0  501 -0.00000000000E+00  0.00000000000E+00  0.96959315680E+03  0.96959315680E+03  0.00000000000E+00 0.  1.
          1   -1    0    0  501    0  0.00000000000E+00 -0.00000000000E+00 -0.10351203062E+04  0.10351203062E+04  0.00000000000E+00 0. -1.
         23    2    1    2    0    0  0.61217581300E+03  0.49395270664E+03 -0.20855334795E+03  0.81843773539E+03  0.87162637313E+02 0.  0.
        254    2    1    2    0    0 -0.61217581300E+03 -0.49395270664E+03  0.14302619852E+03  0.11862757277E+04  0.87638182668E+03 0.  0.
         23    2    4    4    0    0  0.39120009948E+02 -0.58633522630E+02 -0.27182334860E+03  0.29507981926E+03  0.90641611510E+02 0.  0.
         23    2    4    4    0    0 -0.65129582295E+03 -0.43531918401E+03  0.41484954711E+03  0.89119590839E+03  0.91874694210E+02 0.  0.
          1    1    3    3  502    0  0.23756611354E+03  0.16726577241E+03 -0.11601008823E+03  0.31284794628E+03  0.00000000000E+00 0. -1.
         -1    1    3    3    0  502  0.37460969946E+03  0.32668693422E+03 -0.92543259723E+02  0.50558978910E+03  0.00000000000E+00 0.  1.
         13    1    5    5    0    0 -0.21737092653E+02 -0.42496593368E+02 -0.79673171123E+02  0.92877746752E+02  0.00000000000E+00 0. -1.
        -13    1    5    5    0    0  0.60857102601E+02 -0.16136929262E+02 -0.19215017748E+03  0.20220207251E+03  0.00000000000E+00 0.  1.
          3    1    6    6  503    0 -0.99567162254E+02 -0.30176649094E+02  0.61761642335E+02  0.12099070383E+03  0.00000000000E+00 0. -1.
         -3    1    6    6    0  503 -0.55172866070E+03 -0.40514253491E+03  0.35308790478E+03  0.77020520456E+03  0.00000000000E+00 0.  1.
<mgrwt>
<rscale>  0 0.20036422E+04</rscale>
<asrwt>0</asrwt>
<pdfrwt beam="1">  1        1 0.15924928E+00 0.20036422E+04</pdfrwt>
<pdfrwt beam="2">  1       -1 0.14916818E+00 0.20036422E+04</pdfrwt>
<totfact> 0.46672851E+00</totfact>
</mgrwt>
</event>
<event>
12    3  0.4192740E-008  0.2477403E+04  0.7818608E-02  0.8411080E-01
          1   -1    0    0  501    0  0.00000000000E+00  0.00000000000E+00  0.61337905212E+03  0.61337905212E+03  0.00000000000E+00 0. -1.
         -1   -1    0    0    0  501 -0.00000000000E+00 -0.00000000000E+00 -0.25015229541E+04  0.25015229541E+04  0.00000000000E+00 0.  1.
         23    2    1    2    0    0  0.25933534058E+03  0.44730283594E+03  0.36210487574E+03  0.63738296641E+03  0.88331528514E+02 0.  0.
        254    2    1    2    0    0 -0.25933534058E+03 -0.44730283594E+03 -0.22502487777E+04  0.24775190398E+04  0.89841325963E+03 0.  0.
         23    2    4    4    0    0 -0.14615889987E+03  0.15428216695E+03 -0.14374001013E+04  0.14558374801E+04  0.90433987518E+02 0.  0.
         23    2    4    4    0    0 -0.11317644071E+03 -0.60158500289E+03 -0.81284867638E+03  0.10216815597E+04  0.91634143808E+02 0.  0.
          4    1    3    3  502    0  0.48376482804E+02  0.79010949410E+02  0.26680972830E+02  0.96410002211E+02  0.00000000000E+00 0.  1.
         -4    1    3    3    0  502  0.21095885777E+03  0.36829188653E+03  0.33542390291E+03  0.54097296420E+03  0.00000000000E+00 0. -1.
         13    1    5    5    0    0 -0.33478242402E+02  0.91674165967E+01 -0.46081080757E+03  0.46211625660E+03  0.00000000000E+00 0.  1.
        -13    1    5    5    0    0 -0.11268065747E+03  0.14511475036E+03 -0.97658929376E+03  0.99372122350E+03  0.00000000000E+00 0. -1.
          2    1    6    6  503    0 -0.52998497848E+02 -0.47691780732E+03 -0.61048902034E+03  0.77650259476E+03  0.00000000000E+00 0. -1.
         -2    1    6    6    0  503 -0.60177942860E+02 -0.12466719557E+03 -0.20235965604E+03  0.24517896495E+03  0.00000000000E+00 0.  1.
<mgrwt>
<rscale>  0 0.24774033E+04</rscale>
<asrwt>0</asrwt>
<pdfrwt beam="1">  1        1 0.94366007E-01 0.24774033E+04</pdfrwt>
<pdfrwt beam="2">  1       -1 0.38484969E+00 0.24774033E+04</pdfrwt>
<totfact> 0.26790179E-01</totfact>
</mgrwt>
</event>
<event>
12    3  0.4192740E-008  0.1925235E+04  0.7818608E-02  0.8642396E-01
         -2   -1    0    0    0  501 -0.00000000000E+00  0.00000000000E+00  0.58084704619E+03  0.58084704619E+03  0.00000000000E+00 0.  1.
          2   -1    0    0  501    0  0.00000000000E+00 -0.00000000000E+00 -0.15953130510E+04  0.15953130510E+04  0.00000000000E+00 0. -1.
         23    2    1    2    0    0  0.29387365208E+03  0.17484661642E+03  0.35740480388E+03  0.50301720743E+03  0.91405987038E+02 0.  0.
        254    2    1    2    0    0 -0.29387365208E+03 -0.17484661642E+03 -0.13718708087E+04  0.16731428898E+04  0.89467566817E+03 0.  0.
         23    2    4    4    0    0  0.41763470246E+02  0.10242989228E+03  0.72821067762E+02  0.16105714179E+03  0.91653830977E+02 0.  0.
         23    2    4    4    0    0 -0.33563712233E+03 -0.27727650870E+03 -0.14446918765E+04  0.15120857480E+04  0.98661802113E+02 0.  0.
          3    1    3    3  502    0  0.81129692550E+02  0.42407533086E+02  0.15865260612E+03  0.18316952614E+03  0.00000000000E+00 0. -1.
         -3    1    3    3    0  502  0.21274395953E+03  0.13243908334E+03  0.19875219776E+03  0.31984768129E+03  0.00000000000E+00 0.  1.
         13    1    5    5    0    0  0.17455481996E+02  0.23809769708E+01  0.53466654447E+02  0.56294280711E+02  0.00000000000E+00 0.  1.
        -13    1    5    5    0    0  0.24307988250E+02  0.10004891531E+03  0.19354413315E+02  0.10476286108E+03  0.00000000000E+00 0. -1.
          2    1    6    6  503    0 -0.23080799986E+03 -0.13124698987E+03 -0.91329236715E+03  0.95110517455E+03  0.00000000000E+00 0.  1.
         -2    1    6    6    0  503 -0.10482912246E+03 -0.14602951883E+03 -0.53139950935E+03  0.56098057348E+03  0.00000000000E+00 0. -1.
<mgrwt>
<rscale>  0 0.19252354E+04</rscale>
<asrwt>0</asrwt>
<pdfrwt beam="1">  1        2 0.24543277E+00 0.19252354E+04</pdfrwt>
<pdfrwt beam="2">  1       -2 0.89361086E-01 0.19252354E+04</pdfrwt>
<totfact> 0.11266224E+01</totfact>
</mgrwt>
</event>
<event>
12    3  0.4192740E-008  0.1599024E+04  0.7818608E-02  0.8821148E-01
          1   -1    0    0  501    0  0.00000000000E+00  0.00000000000E+00  0.13241749083E+04  0.13241749083E+04  0.00000000000E+00 0. -1.
         -1   -1    0    0    0  501 -0.00000000000E+00 -0.00000000000E+00 -0.48273011548E+03  0.48273011548E+03  0.00000000000E+00 0.  1.
         23    2    1    2    0    0  0.34581437325E+03  0.40336358059E+03  0.38587747419E+03  0.66280909248E+03  0.90137168195E+02 0.  0.
        254    2    1    2    0    0 -0.34581437325E+03 -0.40336358059E+03  0.45556731863E+03  0.11440959313E+04  0.90505478250E+03 0.  0.
         23    2    4    4    0    0 -0.42596895518E+03 -0.64516948821E+03  0.35260844495E+03  0.85462017150E+03  0.91376708144E+02 0.  0.
         23    2    4    4    0    0  0.80154581928E+02  0.24180590762E+03  0.10295887368E+03  0.28947575980E+03  0.91108901210E+02 0.  0.
          3    1    3    3  502    0  0.15626056986E+03  0.16813764537E+03  0.22106051025E+03  0.31867755282E+03  0.00000000000E+00 0. -1.
         -3    1    3    3    0  502  0.18955380339E+03  0.23522593523E+03  0.16481696394E+03  0.34413153966E+03  0.00000000000E+00 0.  1.
         13    1    5    5    0    0 -0.12377239449E+03 -0.20662251232E+03  0.15569630942E+03  0.28679924860E+03  0.00000000000E+00 0.  1.
        -13    1    5    5    0    0 -0.30219656069E+03 -0.43854697589E+03  0.19691213553E+03  0.56782092290E+03  0.00000000000E+00 0. -1.
          3    1    6    6  503    0  0.52719398796E+02  0.23370352117E+03  0.79318375326E+02  0.25236496485E+03  0.00000000000E+00 0. -1.
         -3    1    6    6    0  503  0.27435183132E+02  0.81023864437E+01  0.23640498353E+02  0.37110794952E+02  0.00000000000E+00 0.  1.
<mgrwt>
<rscale>  0 0.15990236E+04</rscale>
<asrwt>0</asrwt>
<pdfrwt beam="1">  1        1 0.20371921E+00 0.15990236E+04</pdfrwt>
<pdfrwt beam="2">  1       -1 0.74266172E-01 0.15990236E+04</pdfrwt>
<totfact> 0.15224937E+01</totfact>
</mgrwt>
</event>
<event>
12    3  0.4192740E-008  0.1400767E+04  0.7818608E-02  0.8953263E-01
          2   -1    0    0  501    0  0.00000000000E+00  0.00000000000E+00  0.38244333524E+03  0.38244333524E+03  0.00000000000E+00 0. -1.
         -2   -1    0    0    0  501 -0.00000000000E+00 -0.00000000000E+00 -0.12826403769E+04  0.12826403769E+04  0.00000000000E+00 0.  1.
         23    2    1    2    0    0 -0.66876038120E+02  0.29912657337E+02  0.20496662233E+03  0.23556286362E+03  0.90063171747E+02 0.  0.
        254    2    1    2    0    0  0.66876038120E+02 -0.29912657337E+02 -0.11051636640E+04  0.14295208486E+04  0.90375658264E+03 0.  0.
         23    2    4    4    0    0  0.28951950729E+03  0.28719446361E+03 -0.25447034144E+03  0.49038170887E+03  0.97040510535E+02 0.  0.
         23    2    4    4    0    0 -0.22264346917E+03 -0.31710712095E+03 -0.85069332259E+03  0.93913913970E+03  0.90422088611E+02 0.  0.
          1    1    3    3  502    0 -0.18287539516E+02  0.27345359956E+02  0.17576347967E+03  0.17881555749E+03  0.00000000000E+00 0. -1.
         -1    1    3    3    0  502 -0.48588498603E+02  0.25672973808E+01  0.29203142652E+02  0.56747306131E+02  0.00000000000E+00 0.  1.
         13    1    5    5    0    0  0.29733482068E+03  0.27725573039E+03 -0.24688214121E+03  0.47563591882E+03  0.00000000000E+00 0. -1.
        -13    1    5    5    0    0 -0.78153133858E+01  0.99387332221E+01 -0.75882002295E+01  0.14745790047E+02  0.00000000000E+00 0.  1.
          2    1    6    6  503    0 -0.20302359252E+03 -0.22261190594E+03 -0.65201383503E+03  0.71825948017E+03  0.00000000000E+00 0. -1.
         -2    1    6    6    0  503 -0.19619876650E+02 -0.94495215002E+02 -0.19867948756E+03  0.22087965953E+03  0.00000000000E+00 0.  1.
<mgrwt>
<rscale>  0 0.14007673E+04</rscale>
<asrwt>0</asrwt>
<pdfrwt beam="1">  1        2 0.58837436E-01 0.14007673E+04</pdfrwt>
<pdfrwt beam="2">  1       -2 0.19732929E+00 0.14007673E+04</pdfrwt>
<totfact> 0.11264308E+01</totfact>
</mgrwt>
</event>
<event>
12    3  0.4192740E-008  0.1795540E+04  0.7818608E-02  0.8708675E-01
         -1   -1    0    0    0  501 -0.00000000000E+00  0.00000000000E+00  0.39386787043E+03  0.39386787043E+03  0.00000000000E+00 0.  1.
          1   -1    0    0  501    0  0.00000000000E+00 -0.00000000000E+00 -0.20463489977E+04  0.20463489977E+04  0.00000000000E+00 0. -1.
         23    2    1    2    0    0  0.39601113582E+03 -0.34385545357E+03 -0.56975847425E+02  0.53518631410E+03  0.90093012897E+02 0.  0.
        254    2    1    2    0    0 -0.39601113582E+03  0.34385545357E+03 -0.15955052798E+04  0.19050305540E+04  0.89913454004E+03 0.  0.
         23    2    4    4    0    0  0.25162666106E+03  0.23310586088E+03 -0.37613598450E+03  0.51696671680E+03  0.90122075655E+02 0.  0.
         23    2    4    4    0    0 -0.64763779688E+03  0.11074959269E+03 -0.12193692953E+04  0.13880638372E+04  0.90330224829E+02 0.  0.
          4    1    3    3  502    0  0.26080934017E+02 -0.57176071580E+02 -0.18927960592E+02  0.65632202254E+02  0.00000000000E+00 0. -1.
         -4    1    3    3    0  502  0.36993020181E+03 -0.28667938199E+03 -0.38047886833E+02  0.46955411185E+03  0.00000000000E+00 0.  1.
         13    1    5    5    0    0  0.16518906414E+03  0.12891436018E+03 -0.28512579593E+03  0.35384044240E+03  0.00000000000E+00 0. -1.
        -13    1    5    5    0    0  0.86437596919E+02  0.10419150070E+03 -0.91010188563E+02  0.16312627440E+03  0.00000000000E+00 0.  1.
          2    1    6    6  503    0 -0.54050238714E+03  0.10914043906E+03 -0.95423598025E+03  0.11020983495E+04  0.00000000000E+00 0. -1.
         -2    1    6    6    0  503 -0.10713540974E+03  0.16091536291E+01 -0.26513331510E+03  0.28596548773E+03  0.00000000000E+00 0.  1.
<mgrwt>
<rscale>  0 0.17955402E+04</rscale>
<asrwt>0</asrwt>
<pdfrwt beam="1">  1        1 0.31482292E+00 0.17955402E+04</pdfrwt>
<pdfrwt beam="2">  1       -1 0.60595057E-01 0.17955402E+04</pdfrwt>
<totfact> 0.72273934E+00</totfact>
</mgrwt>
</event>
<event>
12    3  0.4192740E-008  0.2553505E+04  0.7818608E-02  0.8384168E-01
         -2   -1    0    0    0  501 -0.00000000000E+00  0.00000000000E+00  0.17261495276E+04  0.17261495276E+04  0.00000000000E+00 0. -1.
          2   -1    0    0  501    0  0.00000000000E+00 -0.00000000000E+00 -0.94435477448E+03  0.94435477448E+03  0.00000000000E+00 0.  1.
         23    2    1    2    0    0  0.31557977045E+03 -0.51076589553E+03  0.13245923184E+04  0.14572074622E+04  0.91849803878E+02 0.  0.
        254    2    1    2    0    0 -0.31557977045E+03  0.51076589553E+03 -0.54279756527E+03  0.12132968398E+04  0.90387368208E+03 0.  0.
         23    2    4    4    0    0 -0.32077999353E+02  0.19757072204E+03 -0.71525309513E+03  0.74818766295E+03  0.90192020953E+02 0.  0.
         23    2    4    4    0    0 -0.28350177109E+03  0.31319517349E+03  0.17245552985E+03  0.46510917690E+03  0.90117510764E+02 0.  0.
          1    1    3    3  502    0  0.28602016504E+03 -0.39363795815E+03  0.10609606800E+04  0.11672171783E+04  0.00000000000E+00 0. -1.
         -1    1    3    3    0  502  0.29559605401E+02 -0.11712793738E+03  0.26363163844E+03  0.28999028393E+03  0.00000000000E+00 0.  1.
         13    1    5    5    0    0 -0.16242333126E+02  0.39073225975E+01 -0.18863245103E+02  0.25197273088E+02  0.00000000000E+00 0. -1.
        -13    1    5    5    0    0 -0.15835666227E+02  0.19366339944E+03 -0.69638985003E+03  0.72299038986E+03  0.00000000000E+00 0.  1.
          4    1    6    6  503    0 -0.23536802546E+03  0.21294120657E+03  0.15245620729E+03  0.35211498123E+03  0.00000000000E+00 0.  1.
         -4    1    6    6    0  503 -0.48133745629E+02  0.10025396692E+03  0.19999322566E+02  0.11299419566E+03  0.00000000000E+00 0. -1.
<mgrwt>
<rscale>  0 0.25535055E+04</rscale>
<asrwt>0</asrwt>
<pdfrwt beam="1">  1        2 0.14528535E+00 0.25535055E+04</pdfrwt>
<pdfrwt beam="2">  1       -2 0.26556147E+00 0.25535055E+04</pdfrwt>
<totfact> 0.12544024E+00</totfact>
</mgrwt>
</event>
<event>
12    3  0.4192740E-008  0.1379015E+04  0.7818608E-02  0.8969150E-01
          2   -1    0    0  501    0  0.00000000000E+00  0.00000000000E+00  0.99647176004E+03  0.99647176004E+03  0.00000000000E+00 0. -1.
         -2   -1    0    0    0  501 -0.00000000000E+00 -0.00000000000E+00 -0.47710415363E+03  0.47710415363E+03  0.00000000000E+00 0.  1.
         23    2    1    2    0    0 -0.18600332071E+03  0.12949514999E+03  0.48562209872E+03  0.54327552391E+03  0.89180956075E+02 0.  0.
        254    2    1    2    0    0  0.18600332071E+03 -0.12949514999E+03  0.33745507690E+02  0.93030038977E+03  0.90163952150E+03 0.  0.
         23    2    4    4    0    0  0.10381678900E+03 -0.95043431926E+02 -0.42356060851E+03  0.45546819939E+03  0.90755230957E+02 0.  0.
         23    2    4    4    0    0  0.82186531708E+02 -0.34451718065E+02  0.45730611620E+03  0.47483219038E+03  0.91625205257E+02 0.  0.
          2    1    3    3  502    0 -0.15375662859E+03  0.10818812044E+03  0.30284008963E+03  0.35645180618E+03  0.00000000000E+00 0. -1.
         -2    1    3    3    0  502 -0.32246692127E+02  0.21307029555E+02  0.18278200909E+03  0.18682371773E+03  0.00000000000E+00 0.  1.
         13    1    5    5    0    0  0.92227484161E+02 -0.27259638009E+02 -0.20696554165E+03  0.22821860601E+03  0.00000000000E+00 0.  1.
        -13    1    5    5    0    0  0.11589304843E+02 -0.67783793917E+02 -0.21659506686E+03  0.22724959338E+03  0.00000000000E+00 0. -1.
          1    1    6    6  503    0  0.79096377763E+02 -0.35806103471E+02  0.20658720048E+03  0.22409057415E+03  0.00000000000E+00 0. -1.
         -1    1    6    6    0  503  0.30901539449E+01  0.13543854059E+01  0.25071891571E+03  0.25074161623E+03  0.00000000000E+00 0.  1.
<mgrwt>
<rscale>  0 0.13790153E+04</rscale>
<asrwt>0</asrwt>
<pdfrwt beam="1">  1        2 0.15330335E+00 0.13790153E+04</pdfrwt>
<pdfrwt beam="2">  1       -2 0.73400639E-01 0.13790153E+04</pdfrwt>
<totfact> 0.41349359E+01</totfact>
</mgrwt>
</event>
<event>
12    3  0.4192740E-008  0.3509690E+04  0.7818608E-02  0.8111497E-01
          2   -1    0    0  501    0  0.00000000000E+00  0.00000000000E+00  0.13257416560E+04  0.13257416560E+04  0.00000000000E+00 0. -1.
         -2   -1    0    0    0  501 -0.00000000000E+00 -0.00000000000E+00 -0.23228369851E+04  0.23228369851E+04  0.00000000000E+00 0.  1.
         23    2    1    2    0    0  0.21213852811E+03 -0.85787402471E+03 -0.19003353297E+04  0.20977489478E+04  0.91245192113E+02 0.  0.
        254    2    1    2    0    0 -0.21213852811E+03  0.85787402471E+03  0.90324000063E+03  0.15508296933E+04  0.89904373720E+03 0.  0.
         23    2    4    4    0    0 -0.57187652794E+02 -0.17565172194E+03  0.20378772771E+03  0.29009676630E+03  0.92210307452E+02 0.  0.
         23    2    4    4    0    0 -0.15495087531E+03  0.10335257467E+04  0.69945227291E+03  0.12607329270E+04  0.89603505990E+02 0.  0.
          1    1    3    3  502    0  0.13958810464E+03 -0.38426776610E+03 -0.84190859740E+03  0.93592555334E+03  0.00000000000E+00 0. -1.
         -1    1    3    3    0  502  0.72550423470E+02 -0.47360625861E+03 -0.10584267323E+04  0.11618233944E+04  0.00000000000E+00 0.  1.
         13    1    5    5    0    0 -0.12182814719E+02 -0.15344948382E+03  0.13366097864E+03  0.20386373456E+03  0.00000000000E+00 0. -1.
        -13    1    5    5    0    0 -0.45004838075E+02 -0.22202238124E+02  0.70126749073E+02  0.86233031742E+02  0.00000000000E+00 0.  1.
          3    1    6    6  503    0 -0.92210739968E+02  0.80015743000E+03  0.56853614754E+03  0.98589456049E+03  0.00000000000E+00 0. -1.
         -3    1    6    6    0  503 -0.62740135345E+02  0.23336831665E+03  0.13091612538E+03  0.27483836647E+03  0.00000000000E+00 0.  1.
<mgrwt>
<rscale>  0 0.35096904E+04</rscale>
<asrwt>0</asrwt>
<pdfrwt beam="1">  1        2 0.20396026E+00 0.35096904E+04</pdfrwt>
<pdfrwt beam="2">  1       -2 0.35735953E+00 0.35096904E+04</pdfrwt>
<totfact> 0.18318802E-01</totfact>
</mgrwt>
</event>
<event>
12    3  0.4192740E-008  0.1217854E+04  0.7818608E-02  0.9097371E-01
         -2   -1    0    0    0  501 -0.00000000000E+00  0.00000000000E+00  0.26313927790E+03  0.26313927790E+03  0.00000000000E+00 0.  1.
          2   -1    0    0  501    0  0.00000000000E+00 -0.00000000000E+00 -0.14091098854E+04  0.14091098854E+04  0.00000000000E+00 0. -1.
         23    2    1    2    0    0 -0.21691721779E+03  0.36271859140E+02 -0.45369928971E+03  0.51268869936E+03  0.92940463925E+02 0.  0.
        254    2    1    2    0    0  0.21691721779E+03 -0.36271859140E+02 -0.69227131774E+03  0.11595604639E+04  0.90386512539E+03 0.  0.
         23    2    4    4    0    0  0.84041646944E+02 -0.39823179983E+03 -0.71545833589E+02  0.42328208271E+03  0.91637058128E+02 0.  0.
         23    2    4    4    0    0  0.13287557085E+03  0.36195994069E+03 -0.62072548416E+03  0.73627838118E+03  0.90193192153E+02 0.  0.
          4    1    3    3  502    0 -0.19231241439E+03  0.63023169493E+02 -0.38789456779E+03  0.43751363446E+03  0.00000000000E+00 0. -1.
         -4    1    3    3    0  502 -0.24604803401E+02 -0.26751310352E+02 -0.65804721921E+02  0.75175064902E+02  0.00000000000E+00 0.  1.
         13    1    5    5    0    0  0.49723577064E+02 -0.36123959376E+03 -0.76487412944E+02  0.37258126973E+03  0.00000000000E+00 0. -1.
        -13    1    5    5    0    0  0.34318069880E+02 -0.36992206074E+02  0.49415793559E+01  0.50700812982E+02  0.00000000000E+00 0.  1.
          3    1    6    6  503    0  0.75538228958E+02  0.29647119452E+03 -0.44292900526E+03  0.53831895463E+03  0.00000000000E+00 0. -1.
         -3    1    6    6    0  503  0.57337341891E+02  0.65488746178E+02 -0.17779647890E+03  0.19795942655E+03  0.00000000000E+00 0.  1.
<mgrwt>
<rscale>  0 0.12178541E+04</rscale>
<asrwt>0</asrwt>
<pdfrwt beam="1">  1        2 0.21678613E+00 0.12178541E+04</pdfrwt>
<pdfrwt beam="2">  1       -2 0.40482966E-01 0.12178541E+04</pdfrwt>
<totfact> 0.81357360E+01</totfact>
</mgrwt>
</event>
<event>
12    3  0.4192740E-008  0.2033400E+04  0.7818608E-02  0.8591162E-01
          2   -1    0    0  501    0  0.00000000000E+00  0.00000000000E+00  0.77953308162E+03  0.77953308162E+03  0.00000000000E+00 0. -1.
         -2   -1    0    0    0  501 -0.00000000000E+00 -0.00000000000E+00 -0.13260227641E+04  0.13260227641E+04  0.00000000000E+00 0.  1.
         23    2    1    2    0    0  0.61863380199E+03 -0.26241486213E+03  0.25690535310E+03  0.72513877136E+03  0.90865485460E+02 0.  0.
        254    2    1    2    0    0 -0.61863380199E+03  0.26241486213E+03 -0.80339503557E+03  0.13804170743E+04  0.89918761952E+03 0.  0.
         23    2    4    4    0    0  0.18140319077E+03  0.20712946720E+03 -0.35090571401E+03  0.45492786231E+03  0.89525448770E+02 0.  0.
         23    2    4    4    0    0 -0.80003699276E+03  0.55285394929E+02 -0.45248932156E+03  0.92548921202E+03  0.93102259778E+02 0.  0.
          3    1    3    3  502    0  0.49515848250E+03 -0.16875299211E+03  0.19795481983E+03  0.55932602821E+03  0.00000000000E+00 0. -1.
         -3    1    3    3    0  502  0.12347531949E+03 -0.93661870022E+02  0.58950533269E+02  0.16581274316E+03  0.00000000000E+00 0.  1.
         13    1    5    5    0    0  0.18846192692E+03  0.20965233750E+03 -0.34377322185E+03  0.44458073348E+03  0.00000000000E+00 0. -1.
        -13    1    5    5    0    0 -0.70587361545E+01 -0.25228703006E+01 -0.71324921638E+01  0.10347128835E+02  0.00000000000E+00 0.  1.
          2    1    6    6  503    0 -0.61051028352E+03  0.76785715997E+02 -0.32298334274E+03  0.69493675407E+03  0.00000000000E+00 0. -1.
         -2    1    6    6    0  503 -0.18952670924E+03 -0.21500321068E+02 -0.12950597882E+03  0.23055245796E+03  0.00000000000E+00 0.  1.
<mgrwt>
<rscale>  0 0.20333997E+04</rscale>
<asrwt>0</asrwt>
<pdfrwt beam="1">  1        2 0.11992817E+00 0.20333997E+04</pdfrwt>
<pdfrwt beam="2">  1       -2 0.20400350E+00 0.20333997E+04</pdfrwt>
<totfact> 0.41339795E+00</totfact>
</mgrwt>
</event>
<event>
12    3  0.4192740E-008  0.1276150E+04  0.7818608E-02  0.9048695E-01
         -2   -1    0    0    0  501 -0.00000000000E+00  0.00000000000E+00  0.61084172491E+03  0.61084172491E+03  0.00000000000E+00 0.  1.
          2   -1    0    0  501    0  0.00000000000E+00 -0.00000000000E+00 -0.66652267049E+03  0.66652267049E+03  0.00000000000E+00 0. -1.
         23    2    1    2    0    0 -0.23227297247E+03 -0.20241057451E+03  0.22210658091E+02  0.32165770398E+03  0.89719511721E+02 0.  0.
        254    2    1    2    0    0  0.23227297247E+03  0.20241057451E+03 -0.77891603678E+02  0.95570669142E+03  0.90132535951E+03 0.  0.
         23    2    4    4    0    0 -0.61504208161E+02  0.99497553009E+00 -0.43260536812E+03  0.44494189071E+03  0.83917364032E+02 0.  0.
         23    2    4    4    0    0  0.29377718063E+03  0.20141559898E+03  0.35471376444E+03  0.51076480071E+03  0.90474038212E+02 0.  0.
          2    1    3    3  502    0 -0.22667317013E+03 -0.19872071032E+03  0.31632049181E+01  0.30146418135E+03  0.00000000000E+00 0.  1.
         -2    1    3    3    0  502 -0.55998023313E+01 -0.36898641890E+01  0.19047453173E+02  0.20193522631E+02  0.00000000000E+00 0. -1.
         13    1    5    5    0    0  0.65490770979E+01 -0.26164571602E+02 -0.17693849959E+03  0.17898242331E+03  0.00000000000E+00 0.  1.
        -13    1    5    5    0    0 -0.68053285259E+02  0.27159547132E+02 -0.25566686853E+03  0.26595946740E+03  0.00000000000E+00 0. -1.
          1    1    6    6  503    0  0.23056409239E+03  0.11874186053E+03  0.28588634353E+03  0.38599278693E+03  0.00000000000E+00 0. -1.
         -1    1    6    6    0  503  0.63213088235E+02  0.82673738457E+02  0.68827420910E+02  0.12477201378E+03  0.00000000000E+00 0.  1.
<mgrwt>
<rscale>  0 0.12761502E+04</rscale>
<asrwt>0</asrwt>
<pdfrwt beam="1">  1        2 0.10254195E+00 0.12761502E+04</pdfrwt>
<pdfrwt beam="2">  1       -2 0.93975650E-01 0.12761502E+04</pdfrwt>
<totfact> 0.40913439E+01</totfact>
</mgrwt>
</event>
<event>
12    3  0.4192740E-008  0.1113070E+04  0.7818608E-02  0.9192546E-01
          2   -1    0    0  501    0  0.00000000000E+00  0.00000000000E+00  0.21381256658E+04  0.21381256658E+04  0.00000000000E+00 0.  1.
         -2   -1    0    0    0  501 -0.00000000000E+00 -0.00000000000E+00 -0.14486105927E+03  0.14486105927E+03  0.00000000000E+00 0. -1.
         23    2    1    2    0    0  0.33008761297E+02  0.11367055448E+03  0.10127011097E+03  0.18103105028E+03  0.92228154655E+02 0.  0.
        254    2    1    2    0    0 -0.33008761297E+02 -0.11367055448E+03  0.18919944955E+04  0.21019556748E+04  0.90805501720E+03 0.  0.
         23    2    4    4    0    0  0.40134945518E+03  0.78636391126E+02  0.70719286324E+03  0.82242714676E+03  0.94866214916E+02 0.  0.
         23    2    4    4    0    0 -0.43435821648E+03 -0.19230694561E+03  0.11848016323E+04  0.12795285280E+04  0.88257149987E+02 0.  0.
          2    1    3    3  502    0  0.23195454599E+02  0.12152366189E+03  0.59254000516E+02  0.13717531152E+03  0.00000000000E+00 0. -1.
         -2    1    3    3    0  502  0.98133066977E+01 -0.78531074116E+01  0.42016110452E+02  0.43855738757E+02  0.00000000000E+00 0.  1.
         13    1    5    5    0    0  0.30774655591E+03  0.58452098010E+02  0.45264979990E+03  0.55046928323E+03  0.00000000000E+00 0. -1.
        -13    1    5    5    0    0  0.93602899277E+02  0.20184293116E+02  0.25454306334E+03  0.27195786353E+03  0.00000000000E+00 0.  1.
          2    1    6    6  503    0 -0.37818905250E+03 -0.13340780035E+03  0.10102007244E+04  0.10868901068E+04  0.00000000000E+00 0. -1.
         -2    1    6    6    0  503 -0.56169163979E+02 -0.58899145255E+02  0.17460090784E+03  0.19263842118E+03  0.00000000000E+00 0.  1.
<mgrwt>
<rscale>  0 0.11130699E+04</rscale>
<asrwt>0</asrwt>
<pdfrwt beam="1">  1        2 0.32894239E+00 0.11130699E+04</pdfrwt>
<pdfrwt beam="2">  1       -2 0.22286318E-01 0.11130699E+04</pdfrwt>
<totfact> 0.98258587E+01</totfact>
</mgrwt>
</event>
<event>
12    3  0.4192740E-008  0.2064575E+04  0.7818608E-02  0.8577011E-01
          2   -1    0    0  501    0  0.00000000000E+00  0.00000000000E+00  0.59408851982E+03  0.59408851982E+03  0.00000000000E+00 0. -1.
         -2   -1    0    0    0  501 -0.00000000000E+00 -0.00000000000E+00 -0.17937009905E+04  0.17937009905E+04  0.00000000000E+00 0.  1.
         23    2    1    2    0    0  0.65166330237E+03 -0.41056939034E+03 -0.85507162176E+03  0.11544697965E+04  0.91764637259E+02 0.  0.
        254    2    1    2    0    0 -0.65166330237E+03  0.41056939034E+03 -0.34454084893E+03  0.12333197139E+04  0.89952033667E+03 0.  0.
         23    2    4    4    0    0 -0.61417582857E+03  0.50844662859E+02  0.12302457412E+03  0.63499304616E+03  0.91016452853E+02 0.  0.
         23    2    4    4    0    0 -0.37487473804E+02  0.35972472748E+03 -0.46756542305E+03  0.59832666771E+03  0.92575300213E+02 0.  0.
          1    1    3    3  502    0  0.19657297227E+02 -0.97971523923E+01 -0.62053284628E+01  0.22823225684E+02  0.00000000000E+00 0. -1.
         -1    1    3    3    0  502  0.63200600515E+03 -0.40077223794E+03 -0.84886629329E+03  0.11316465708E+04  0.00000000000E+00 0.  1.
         13    1    5    5    0    0 -0.49634701505E+03  0.48658471758E+01  0.10280315826E+03  0.50690484824E+03  0.00000000000E+00 0.  1.
        -13    1    5    5    0    0 -0.11782881352E+03  0.45978815683E+02  0.20221415862E+02  0.12808819792E+03  0.00000000000E+00 0. -1.
          2    1    6    6  503    0  0.22390226776E+02  0.15183177217E+03 -0.23515300638E+03  0.28080446169E+03  0.00000000000E+00 0. -1.
         -2    1    6    6    0  503 -0.59877700581E+02  0.20789295531E+03 -0.23241241667E+03  0.31752220602E+03  0.00000000000E+00 0.  1.
<mgrwt>
<rscale>  0 0.20645747E+04</rscale>
<asrwt>0</asrwt>
<pdfrwt beam="1">  1        2 0.91398232E-01 0.20645747E+04</pdfrwt>
<pdfrwt beam="2">  1       -2 0.27595400E+00 0.20645747E+04</pdfrwt>
<totfact> 0.20684549E+00</totfact>
</mgrwt>
</event>
<event>
12    3  0.4192740E-008  0.2218557E+04  0.7818608E-02  0.8510744E-01
         -2   -1    0    0    0  501 -0.00000000000E+00  0.00000000000E+00  0.11822960197E+04  0.11822960197E+04  0.00000000000E+00 0.  1.
          2   -1    0    0  501    0  0.00000000000E+00 -0.00000000000E+00 -0.10407708328E+04  0.10407708328E+04  0.00000000000E+00 0. -1.
         23    2    1    2    0    0  0.61085835871E+03  0.39120429534E+03  0.63327880030E+03  0.96672336777E+03  0.85576257152E+02 0.  0.
        254    2    1    2    0    0 -0.61085835871E+03 -0.39120429534E+03 -0.49175361341E+03  0.12563434847E+04  0.90021586307E+03 0.  0.
         23    2    4    4    0    0 -0.51229276029E+03  0.47573864275E+01 -0.62881597935E+03  0.81622122492E+03  0.91329333530E+02 0.  0.
         23    2    4    4    0    0 -0.98565598420E+02 -0.39596168177E+03  0.13706236594E+03  0.44012225976E+03  0.91764267360E+02 0.  0.
          1    1    3    3  502    0  0.51145476889E+02  0.11119652341E+02  0.30454482389E+02  0.60555610574E+02  0.00000000000E+00 0. -1.
         -1    1    3    3    0  502  0.55971288182E+03  0.38008464300E+03  0.60282431791E+03  0.90616775720E+03  0.00000000000E+00 0.  1.
         13    1    5    5    0    0 -0.42512450096E+03 -0.43751966799E+01 -0.56823447776E+03  0.70967626801E+03  0.00000000000E+00 0.  1.
        -13    1    5    5    0    0 -0.87168259330E+02  0.91325831075E+01 -0.60581501582E+02  0.10654495691E+03  0.00000000000E+00 0. -1.
          3    1    6    6  503    0 -0.45290984245E+02 -0.83402034311E+02  0.64818251943E+02  0.11492857941E+03  0.00000000000E+00 0. -1.
         -3    1    6    6    0  503 -0.53274614175E+02 -0.31255964746E+03  0.72244113996E+02  0.32519368035E+03  0.00000000000E+00 0.  1.
<mgrwt>
<rscale>  0 0.22185574E+04</rscale>
<asrwt>0</asrwt>
<pdfrwt beam="1">  1        2 0.16011859E+00 0.22185574E+04</pdfrwt>
<pdfrwt beam="2">  1       -2 0.18189170E+00 0.22185574E+04</pdfrwt>
<totfact> 0.38093532E+00</totfact>
</mgrwt>
</event>
<event>
12    3  0.4192740E-008  0.2059872E+04  0.7818608E-02  0.8579129E-01
         -1   -1    0    0    0  501 -0.00000000000E+00  0.00000000000E+00  0.86652473086E+03  0.86652473086E+03  0.00000000000E+00 0.  1.
          1   -1    0    0  501    0  0.00000000000E+00 -0.00000000000E+00 -0.12241632031E+04  0.12241632031E+04  0.00000000000E+00 0. -1.
         23    2    1    2    0    0  0.46745755845E+03 -0.23870500862E+02  0.54868372671E+03  0.72699958359E+03  0.91587077803E+02 0.  0.
        254    2    1    2    0    0 -0.46745755845E+03  0.23870500862E+02 -0.90632219896E+03  0.13636883504E+04  0.90506332313E+03 0.  0.
         23    2    4    4    0    0 -0.47221768780E+02  0.37033267738E+03 -0.11967027451E+03  0.40261590686E+03  0.91664641345E+02 0.  0.
         23    2    4    4    0    0 -0.42023578967E+03 -0.34646217652E+03 -0.78665192444E+03  0.96107244352E+03  0.90580532046E+02 0.  0.
          3    1    3    3  502    0  0.17648270650E+03  0.17392860874E+02  0.26252826893E+03  0.31681185157E+03  0.00000000000E+00 0. -1.
         -3    1    3    3    0  502  0.29097485195E+03 -0.41263361736E+02  0.28615545778E+03  0.41018773202E+03  0.00000000000E+00 0.  1.
         13    1    5    5    0    0 -0.39599532302E+02  0.32394496940E+03 -0.13499066254E+03  0.35317268458E+03  0.00000000000E+00 0. -1.
        -13    1    5    5    0    0 -0.76222364784E+01  0.46387707981E+02  0.15320388026E+02  0.49443222285E+02  0.00000000000E+00 0.  1.
          3    1    6    6  503    0 -0.36311685171E+03 -0.31684285920E+03 -0.64194451762E+03  0.80270543111E+03  0.00000000000E+00 0. -1.
         -3    1    6    6    0  503 -0.57118937959E+02 -0.29619317318E+02 -0.14470740682E+03  0.15836701241E+03  0.00000000000E+00 0.  1.
<mgrwt>
<rscale>  0 0.20598715E+04</rscale>
<asrwt>0</asrwt>
<pdfrwt beam="1">  1        1 0.18833280E+00 0.20598715E+04</pdfrwt>
<pdfrwt beam="2">  1       -1 0.13331150E+00 0.20598715E+04</pdfrwt>
<totfact> 0.45050902E+00</totfact>
</mgrwt>
</event>
<event>
12    3  0.4192740E-008  0.2049876E+04  0.7818608E-02  0.8583651E-01
          2   -1    0    0  501    0  0.00000000000E+00  0.00000000000E+00  0.12247450844E+04  0.12247450844E+04  0.00000000000E+00 0.  1.
         -2   -1    0    0    0  501 -0.00000000000E+00 -0.00000000000E+00 -0.85772780600E+03  0.85772780600E+03  0.00000000000E+00 0. -1.
         23    2    1    2    0    0 -0.48229692577E+03  0.66174682436E+03  0.23208668283E+03  0.85611299946E+03  0.92444877347E+02 0.  0.
        254    2    1    2    0    0  0.48229692577E+03 -0.66174682436E+03  0.13493059560E+03  0.12263598910E+04  0.90290261512E+03 0.  0.
         23    2    4    4    0    0  0.35656497004E+03  0.14523258709E+03  0.45668943543E+01  0.39368059291E+03  0.82051633139E+02 0.  0.
         23    2    4    4    0    0  0.12573195574E+03 -0.80697941145E+03  0.13036370124E+03  0.83267929805E+03  0.96622065861E+02 0.  0.
          2    1    3    3  502    0 -0.39261436374E+03  0.47171926218E+03  0.16471610976E+03  0.63544983888E+03  0.00000000000E+00 0.  1.
         -2    1    3    3    0  502 -0.89682562031E+02  0.19002756218E+03  0.67370573070E+02  0.22066316058E+03  0.00000000000E+00 0. -1.
         13    1    5    5    0    0  0.29143952734E+03  0.15107104426E+03  0.39220246387E+01  0.32829078694E+03  0.00000000000E+00 0. -1.
        -13    1    5    5    0    0  0.65125442697E+02 -0.58384571690E+01  0.64486971551E+00  0.65389805976E+02  0.00000000000E+00 0.  1.
          3    1    6    6  503    0  0.95860891979E+02 -0.76418087141E+03  0.11985944131E+03  0.77944082553E+03  0.00000000000E+00 0. -1.
         -3    1    6    6    0  503  0.29871063757E+02 -0.42798540039E+02  0.10504259933E+02  0.53238472519E+02  0.00000000000E+00 0.  1.
<mgrwt>
<rscale>  0 0.20498760E+04</rscale>
<asrwt>0</asrwt>
<pdfrwt beam="1">  1        2 0.18842232E+00 0.20498760E+04</pdfrwt>
<pdfrwt beam="2">  1       -2 0.13195812E+00 0.20498760E+04</pdfrwt>
<totfact> 0.70842811E+00</totfact>
</mgrwt>
</event>
<event>
12    3  0.4192740E-008  0.1716077E+04  0.7818608E-02  0.8752248E-01
          2   -1    0    0  501    0  0.00000000000E+00  0.00000000000E+00  0.10436547794E+04  0.10436547794E+04  0.00000000000E+00 0. -1.
         -2   -1    0    0    0  501 -0.00000000000E+00 -0.00000000000E+00 -0.70543408223E+03  0.70543408223E+03  0.00000000000E+00 0.  1.
         23    2    1    2    0    0  0.21934291437E+03 -0.56534107014E+03 -0.15086183929E+02  0.61350299179E+03  0.91850358328E+02 0.  0.
        254    2    1    2    0    0 -0.21934291437E+03  0.56534107014E+03  0.35330688114E+03  0.11355858699E+04  0.89275286386E+03 0.  0.
         23    2    4    4    0    0 -0.40476333966E+03 -0.54317012807E+02  0.72678626194E+02  0.42466985732E+03  0.90986845223E+02 0.  0.
         23    2    4    4    0    0  0.18542042528E+03  0.61965808294E+03  0.28062825495E+03  0.71091601255E+03  0.91063085604E+02 0.  0.
          4    1    3    3  502    0  0.19253847364E+03 -0.41262802590E+03 -0.37338973229E+02  0.45686666601E+03  0.00000000000E+00 0. -1.
         -4    1    3    3    0  502  0.26804440734E+02 -0.15271304424E+03  0.22252789300E+02  0.15663632579E+03  0.00000000000E+00 0.  1.
         13    1    5    5    0    0 -0.23376287599E+03 -0.31248362954E+02 -0.39382624491E+01  0.23587507772E+03  0.00000000000E+00 0.  1.
        -13    1    5    5    0    0 -0.17100046367E+03 -0.23068649853E+02  0.76616888643E+02  0.18879477961E+03  0.00000000000E+00 0. -1.
          4    1    6    6  503    0  0.42093729251E+02  0.77087520616E+02  0.11645605029E+02  0.88600157976E+02  0.00000000000E+00 0. -1.
         -4    1    6    6    0  503  0.14332669603E+03  0.54257056233E+03  0.26898264992E+03  0.62231585458E+03  0.00000000000E+00 0.  1.
<mgrwt>
<rscale>  0 0.17160765E+04</rscale>
<asrwt>0</asrwt>
<pdfrwt beam="1">  1        2 0.16056227E+00 0.17160765E+04</pdfrwt>
<pdfrwt beam="2">  1       -2 0.10852832E+00 0.17160765E+04</pdfrwt>
<totfact> 0.15242748E+01</totfact>
</mgrwt>
</event>
<event>
12    3  0.4192740E-008  0.2572112E+04  0.7818608E-02  0.8377736E-01
          2   -1    0    0  501    0  0.00000000000E+00  0.00000000000E+00  0.22755963054E+04  0.22755963054E+04  0.00000000000E+00 0. -1.
         -2   -1    0    0    0  501 -0.00000000000E+00 -0.00000000000E+00 -0.72681634815E+03  0.72681634815E+03  0.00000000000E+00 0.  1.
         23    2    1    2    0    0  0.86393487069E+03 -0.71752549001E+03  0.58798218137E+03  0.12708990018E+04  0.90746556910E+02 0.  0.
        254    2    1    2    0    0 -0.86393487069E+03  0.71752549001E+03  0.96079777588E+03  0.17315136517E+04  0.90209803811E+03 0.  0.
         23    2    4    4    0    0  0.17867153950E+03  0.99502945944E+02  0.20516326493E+03  0.30026691863E+03  0.79018364122E+02 0.  0.
         23    2    4    4    0    0 -0.10426064102E+04  0.61802254407E+03  0.75563451095E+03  0.14312467331E+04  0.92215537264E+02 0.  0.
          1    1    3    3  502    0  0.53832979279E+03 -0.45703260370E+03  0.32050263174E+03  0.77549964771E+03  0.00000000000E+00 0. -1.
         -1    1    3    3    0  502  0.32560507790E+03 -0.26049288631E+03  0.26747954963E+03  0.49539935410E+03  0.00000000000E+00 0.  1.
         13    1    5    5    0    0  0.12587223418E+03  0.80603860280E+02  0.19080442650E+03  0.24237807409E+03  0.00000000000E+00 0.  1.
        -13    1    5    5    0    0  0.52799305317E+02  0.18899085664E+02  0.14358838435E+02  0.57888844539E+02  0.00000000000E+00 0. -1.
          1    1    6    6  503    0 -0.52388749229E+03  0.34035515593E+03  0.43419149204E+03  0.76080351504E+03  0.00000000000E+00 0. -1.
         -1    1    6    6    0  503 -0.51871891790E+03  0.27766738813E+03  0.32144301891E+03  0.67044321805E+03  0.00000000000E+00 0.  1.
<mgrwt>
<rscale>  0 0.25721124E+04</rscale>
<asrwt>0</asrwt>
<pdfrwt beam="1">  1        2 0.35009174E+00 0.25721124E+04</pdfrwt>
<pdfrwt beam="2">  1       -2 0.11181790E+00 0.25721124E+04</pdfrwt>
<totfact> 0.26196586E+00</totfact>
</mgrwt>
</event>
<event>
12    3  0.4192740E-008  0.2436039E+04  0.7818608E-02  0.8426133E-01
          1   -1    0    0  501    0  0.00000000000E+00  0.00000000000E+00  0.45734667595E+04  0.45734667595E+04  0.00000000000E+00 0. -1.
         -1   -1    0    0    0  501 -0.00000000000E+00 -0.00000000000E+00 -0.32438673561E+03  0.32438673561E+03  0.00000000000E+00 0.  1.
         23    2    1    2    0    0 -0.10197401535E+04  0.55139037816E+01  0.13512806003E+04  0.16953227046E+04  0.90881396084E+02 0.  0.
        254    2    1    2    0    0  0.10197401535E+04 -0.55139037816E+01  0.28977994236E+04  0.32025307905E+04  0.90502021030E+03 0.  0.
         23    2    4    4    0    0  0.89437696351E+03 -0.34124851877E+03  0.23663006518E+04  0.25541466913E+04  0.89027196628E+02 0.  0.
         23    2    4    4    0    0  0.12536319000E+03  0.33573461499E+03  0.53149877181E+03  0.64838409920E+03  0.97351602717E+02 0.  0.
          4    1    3    3  502    0 -0.28178097333E+03 -0.31074023670E+02  0.41582371780E+03  0.50326481713E+03  0.00000000000E+00 0. -1.
         -4    1    3    3    0  502 -0.73795918018E+03  0.36587927452E+02  0.93545688251E+03  0.11920578875E+04  0.00000000000E+00 0.  1.
         13    1    5    5    0    0  0.61981250219E+03 -0.25245410307E+03  0.15488109837E+04  0.16872214067E+04  0.00000000000E+00 0.  1.
        -13    1    5    5    0    0  0.27456446132E+03 -0.88794415702E+02  0.81748966804E+03  0.86692528457E+03  0.00000000000E+00 0. -1.
          1    1    6    6  503    0  0.24425957894E+02  0.23876653614E+02  0.16535833540E+02  0.37949384681E+02  0.00000000000E+00 0. -1.
         -1    1    6    6    0  503  0.10093723210E+03  0.31185796138E+03  0.51496293827E+03  0.61043471452E+03  0.00000000000E+00 0.  1.
<mgrwt>
<rscale>  0 0.24360394E+04</rscale>
<asrwt>0</asrwt>
<pdfrwt beam="1">  1        1 0.70361022E+00 0.24360394E+04</pdfrwt>
<pdfrwt beam="2">  1       -1 0.49905655E-01 0.24360394E+04</pdfrwt>
<totfact> 0.97828572E-02</totfact>
</mgrwt>
</event>
<event>
12    3  0.4192740E-008  0.1747643E+04  0.7818608E-02  0.8734649E-01
          2   -1    0    0  501    0  0.00000000000E+00  0.00000000000E+00  0.36361102015E+04  0.36361102015E+04  0.00000000000E+00 0. -1.
         -2   -1    0    0    0  501 -0.00000000000E+00 -0.00000000000E+00 -0.20999468935E+03  0.20999468935E+03  0.00000000000E+00 0.  1.
         23    2    1    2    0    0 -0.47744578622E+03  0.33456294929E+03  0.69709216941E+03  0.91218307512E+03  0.79079858898E+02 0.  0.
        254    2    1    2    0    0  0.47744578622E+03 -0.33456294929E+03  0.27290233427E+04  0.29339218157E+04  0.90578251791E+03 0.  0.
         23    2    4    4    0    0  0.45058509226E+02  0.10953359941E+03  0.18455694025E+04  0.18515594542E+04  0.90100578551E+02 0.  0.
         23    2    4    4    0    0  0.43238727699E+03 -0.44409654870E+03  0.88345394022E+03  0.10823623615E+04  0.82685641386E+02 0.  0.
          4    1    3    3  502    0 -0.93753098933E+02  0.10688557357E+03  0.16735017983E+03  0.21959110202E+03  0.00000000000E+00 0. -1.
         -4    1    3    3    0  502 -0.38369268728E+03  0.22767737572E+03  0.52974198958E+03  0.69259197310E+03  0.00000000000E+00 0.  1.
         13    1    5    5    0    0 -0.43832365162E+01 -0.14514038627E+02  0.16715706708E+03  0.16784324579E+03  0.00000000000E+00 0.  1.
        -13    1    5    5    0    0  0.49441745742E+02  0.12404763804E+03  0.16784123354E+04  0.16837162084E+04  0.00000000000E+00 0. -1.
          3    1    6    6  503    0  0.13982496576E+03 -0.99385808088E+02  0.20903870095E+03  0.27041771095E+03  0.00000000000E+00 0. -1.
         -3    1    6    6    0  503  0.29256231123E+03 -0.34471074061E+03  0.67441523927E+03  0.81194465058E+03  0.00000000000E+00 0.  1.
<mgrwt>
<rscale>  0 0.17476428E+04</rscale>
<asrwt>0</asrwt>
<pdfrwt beam="1">  1        2 0.55940152E+00 0.17476428E+04</pdfrwt>
<pdfrwt beam="2">  1       -2 0.32306878E-01 0.17476428E+04</pdfrwt>
<totfact> 0.55581771E+00</totfact>
</mgrwt>
</event>
<event>
12    3  0.4192740E-008  0.1918020E+04  0.7818608E-02  0.8645938E-01
          1   -1    0    0  501    0  0.00000000000E+00  0.00000000000E+00  0.18546481929E+04  0.18546481929E+04  0.00000000000E+00 0. -1.
         -1   -1    0    0    0  501 -0.00000000000E+00 -0.00000000000E+00 -0.49588929107E+03  0.49588929107E+03  0.00000000000E+00 0.  1.
         23    2    1    2    0    0 -0.59488453171E+03  0.16000106297E+03  0.10599597977E+04  0.12293441185E+04  0.91017815000E+02 0.  0.
        254    2    1    2    0    0  0.59488453171E+03 -0.16000106297E+03  0.29879910409E+03  0.11211933655E+04  0.88786581865E+03 0.  0.
         23    2    4    4    0    0 -0.20736625620E+03 -0.63331528319E+02 -0.42687911953E+02  0.23922776522E+03  0.91629793934E+02 0.  0.
         23    2    4    4    0    0  0.80225078791E+03 -0.96669534653E+02  0.34148701605E+03  0.88196560024E+03  0.91096719138E+02 0.  0.
          1    1    3    3  502    0 -0.52410358908E+03  0.17023176832E+03  0.92968833622E+03  0.10807330057E+04  0.00000000000E+00 0. -1.
         -1    1    3    3    0  502 -0.70780942626E+02 -0.10230705349E+02  0.13027146150E+03  0.14861111282E+03  0.00000000000E+00 0.  1.
         13    1    5    5    0    0 -0.14514790048E+03 -0.23104980168E+01 -0.78611433934E+01  0.14537898401E+03  0.00000000000E+00 0. -1.
        -13    1    5    5    0    0 -0.62218355723E+02 -0.61021030303E+02 -0.34826768560E+02  0.93848781220E+02  0.00000000000E+00 0.  1.
          1    1    6    6  503    0  0.12221697154E+03 -0.36426018298E+02  0.27193652588E+02  0.13039684690E+03  0.00000000000E+00 0. -1.
         -1    1    6    6    0  503  0.68003381637E+03 -0.60243516354E+02  0.31429336346E+03  0.75156875333E+03  0.00000000000E+00 0.  1.
<mgrwt>
<rscale>  0 0.19180200E+04</rscale>
<asrwt>0</asrwt>
<pdfrwt beam="1">  1        1 0.28533049E+00 0.19180200E+04</pdfrwt>
<pdfrwt beam="2">  1       -1 0.76290661E-01 0.19180200E+04</pdfrwt>
<totfact> 0.60264985E+00</totfact>
</mgrwt>
</event>
<event>
12    3  0.4192740E-008  0.2483855E+04  0.7818608E-02  0.8408760E-01
          1   -1    0    0  501    0  0.00000000000E+00  0.00000000000E+00  0.95377734451E+03  0.95377734451E+03  0.00000000000E+00 0. -1.
         -1   -1    0    0    0  501 -0.00000000000E+00 -0.00000000000E+00 -0.16171315590E+04  0.16171315590E+04  0.00000000000E+00 0.  1.
         23    2    1    2    0    0  0.38207797001E+03 -0.97751156146E+02 -0.13243481403E+04  0.13850093959E+04  0.93883791961E+02 0.  0.
        254    2    1    2    0    0 -0.38207797001E+03  0.97751156146E+02  0.66099392579E+03  0.11858995076E+04  0.90216728410E+03 0.  0.
         23    2    4    4    0    0 -0.52486931906E+03  0.32355637502E+03  0.65304561659E+03  0.90259027210E+03  0.89577296458E+02 0.  0.
         23    2    4    4    0    0  0.14279134905E+03 -0.22580521887E+03  0.79483092067E+01  0.28330923551E+03  0.93933918645E+02 0.  0.
          2    1    3    3  502    0  0.37043901438E+03 -0.10186926855E+03 -0.13136348187E+04  0.13686631610E+04  0.00000000000E+00 0.  1.
         -2    1    3    3    0  502  0.11638955629E+02  0.41181124015E+01 -0.10713321580E+02  0.16346234954E+02  0.00000000000E+00 0. -1.
         13    1    5    5    0    0 -0.26013309297E+03  0.20781174381E+03  0.32190186284E+03  0.46311527314E+03  0.00000000000E+00 0.  1.
        -13    1    5    5    0    0 -0.26473622609E+03  0.11574463121E+03  0.33114375375E+03  0.43947499896E+03  0.00000000000E+00 0. -1.
          2    1    6    6  503    0  0.57466961482E+02 -0.66033801447E+02 -0.39549286853E+02  0.96057590466E+02  0.00000000000E+00 0. -1.
         -2    1    6    6    0  503  0.85324387565E+02 -0.15977141742E+03  0.47497596060E+02  0.18725164504E+03  0.00000000000E+00 0.  1.
<mgrwt>
<rscale>  0 0.24838546E+04</rscale>
<asrwt>0</asrwt>
<pdfrwt beam="1">  1        1 0.14673498E+00 0.24838546E+04</pdfrwt>
<pdfrwt beam="2">  1       -1 0.24878947E+00 0.24838546E+04</pdfrwt>
<totfact> 0.10396537E+00</totfact>
</mgrwt>
</event>
<event>
12    3  0.4192740E-008  0.2338733E+04  0.7818608E-02  0.8462804E-01
          1   -1    0    0  501    0  0.00000000000E+00  0.00000000000E+00  0.21468604330E+04  0.21468604330E+04  0.00000000000E+00 0. -1.
         -1   -1    0    0    0  501 -0.00000000000E+00 -0.00000000000E+00 -0.63693853919E+03  0.63693853919E+03  0.00000000000E+00 0.  1.
         23    2    1    2    0    0  0.13129680853E+03 -0.85069352773E+03  0.11412017386E+04  0.14323232107E+04  0.91049666816E+02 0.  0.
        254    2    1    2    0    0 -0.13129680853E+03  0.85069352773E+03  0.36872015527E+03  0.13514757615E+04  0.97448132406E+03 0.  0.
         23    2    4    4    0    0 -0.11295389858E+03  0.10182594766E+04  0.47270090275E+03  0.11320130877E+04  0.91632648827E+02 0.  0.
         23    2    4    4    0    0 -0.18342909947E+02 -0.16756594887E+03 -0.10398074748E+03  0.21946267381E+03  0.94536023716E+02 0.  0.
          1    1    3    3  502    0  0.12628827902E+03 -0.85056308541E+03  0.11381336742E+04  0.14264482297E+04  0.00000000000E+00 0. -1.
         -1    1    3    3    0  502  0.50085295014E+01 -0.13044231538E+00  0.30680643528E+01  0.58749810074E+01  0.00000000000E+00 0.  1.
         13    1    5    5    0    0 -0.10087579762E+03  0.96768481017E+03  0.42593128545E+03  0.10620768702E+04  0.00000000000E+00 0.  1.
        -13    1    5    5    0    0 -0.12078100958E+02  0.50574666430E+02  0.46769617299E+02  0.69936217439E+02  0.00000000000E+00 0. -1.
          4    1    6    6  503    0 -0.45282238525E+02 -0.37044841340E+02 -0.19494275041E+02  0.61667075130E+02  0.00000000000E+00 0. -1.
         -4    1    6    6    0  503  0.26939328579E+02 -0.13052110753E+03 -0.84486472437E+02  0.15779559868E+03  0.00000000000E+00 0.  1.
<mgrwt>
<rscale>  0 0.23387331E+04</rscale>
<asrwt>0</asrwt>
<pdfrwt beam="1">  1        1 0.33028622E+00 0.23387331E+04</pdfrwt>
<pdfrwt beam="2">  1       -1 0.97990545E-01 0.23387331E+04</pdfrwt>
<totfact> 0.21291852E+00</totfact>
</mgrwt>
</event>
<event>
12    3  0.4192740E-008  0.1390157E+04  0.7818608E-02  0.8960975E-01
          2   -1    0    0  501    0  0.00000000000E+00  0.00000000000E+00  0.11951205812E+04  0.11951205812E+04  0.00000000000E+00 0. -1.
         -2   -1    0    0    0  501 -0.00000000000E+00 -0.00000000000E+00 -0.40425537314E+03  0.40425537314E+03  0.00000000000E+00 0.  1.
         23    2    1    2    0    0  0.74672991771E+02  0.27062431777E+03 -0.94348170229E+02  0.31024782957E+03  0.92404336815E+02 0.  0.
        254    2    1    2    0    0 -0.74672991771E+02 -0.27062431777E+03  0.88521337831E+03  0.12891281248E+04  0.89411130175E+03 0.  0.
         23    2    4    4    0    0 -0.11959764070E+03  0.15112498803E+03  0.82413327638E+03  0.85100862333E+03  0.88756194672E+02 0.  0.
         23    2    4    4    0    0  0.44924648934E+02 -0.42174930580E+03  0.61080101939E+02  0.43811950146E+03  0.91253589965E+02 0.  0.
          4    1    3    3  502    0  0.55501213879E+00  0.82715574016E+02 -0.66917117425E+02  0.10639584027E+03  0.00000000000E+00 0. -1.
         -4    1    3    3    0  502  0.74117979632E+02  0.18790874375E+03 -0.27431052804E+02  0.20385198930E+03  0.00000000000E+00 0.  1.
         13    1    5    5    0    0 -0.21564781994E+01 -0.54146720999E+01  0.24152724153E+01  0.63089312101E+01  0.00000000000E+00 0. -1.
        -13    1    5    5    0    0 -0.11744116251E+03  0.15653966013E+03  0.82171800396E+03  0.84469969212E+03  0.00000000000E+00 0.  1.
          1    1    6    6  503    0  0.62458494728E+02 -0.18801301544E+03  0.10902597104E+02  0.19841578607E+03  0.00000000000E+00 0. -1.
         -1    1    6    6    0  503 -0.17533845794E+02 -0.23373629035E+03  0.50177504835E+02  0.23970371538E+03  0.00000000000E+00 0.  1.
<mgrwt>
<rscale>  0 0.13901567E+04</rscale>
<asrwt>0</asrwt>
<pdfrwt beam="1">  1        2 0.18386470E+00 0.13901567E+04</pdfrwt>
<pdfrwt beam="2">  1       -2 0.62193135E-01 0.13901567E+04</pdfrwt>
<totfact> 0.44570409E+01</totfact>
</mgrwt>
</event>
<event>
12    3  0.4192740E-008  0.1394819E+04  0.7818608E-02  0.8957578E-01
          1   -1    0    0  501    0  0.00000000000E+00  0.00000000000E+00  0.27520330650E+04  0.27520330650E+04  0.00000000000E+00 0. -1.
         -1   -1    0    0    0  501 -0.00000000000E+00 -0.00000000000E+00 -0.17673472628E+03  0.17673472628E+03  0.00000000000E+00 0.  1.
         23    2    1    2    0    0 -0.10756972551E+03 -0.33561777722E+03  0.41915845891E+03  0.55513255395E+03  0.90927446637E+02 0.  0.
        254    2    1    2    0    0  0.10756972551E+03  0.33561777722E+03  0.21561398799E+04  0.23736352374E+04  0.92789790409E+03 0.  0.
         23    2    4    4    0    0 -0.30205465249E+03  0.37170514330E+03  0.16209049964E+04  0.16926715881E+04  0.91664449715E+02 0.  0.
         23    2    4    4    0    0  0.40962437799E+03 -0.36087366086E+02  0.53523488347E+03  0.68096364924E+03  0.90225728425E+02 0.  0.
          1    1    3    3  502    0 -0.38476595567E+02 -0.21551420434E+03  0.30593799176E+03  0.37619792062E+03  0.00000000000E+00 0. -1.
         -1    1    3    3    0  502 -0.69093129939E+02 -0.12010357288E+03  0.11322046714E+03  0.17893463333E+03  0.00000000000E+00 0.  1.
         13    1    5    5    0    0  0.66899216125E+01  0.90730606870E+01  0.32261536206E+02  0.34174291504E+02  0.00000000000E+00 0.  1.
        -13    1    5    5    0    0 -0.30874457410E+03  0.36263208261E+03  0.15886434602E+04  0.16584972966E+04  0.00000000000E+00 0. -1.
          4    1    6    6  503    0  0.41409053621E+03 -0.37054350009E+02  0.53272082280E+03  0.67574808330E+03  0.00000000000E+00 0. -1.
         -4    1    6    6    0  503 -0.44661582152E+01  0.96698392356E+00  0.25140606716E+01  0.52155659493E+01  0.00000000000E+00 0.  1.
<mgrwt>
<rscale>  0 0.13948187E+04</rscale>
<asrwt>0</asrwt>
<pdfrwt beam="1">  1        1 0.42338967E+00 0.13948187E+04</pdfrwt>
<pdfrwt beam="2">  1       -1 0.27189960E-01 0.13948187E+04</pdfrwt>
<totfact> 0.10715222E+01</totfact>
</mgrwt>
</event>
<event>
12    3  0.4192740E-008  0.1852685E+04  0.7818608E-02  0.8678773E-01
          2   -1    0    0  501    0  0.00000000000E+00  0.00000000000E+00  0.19999597072E+04  0.19999597072E+04  0.00000000000E+00 0. -1.
         -2   -1    0    0    0  501 -0.00000000000E+00 -0.00000000000E+00 -0.42906397424E+03  0.42906397424E+03  0.00000000000E+00 0.  1.
         23    2    1    2    0    0 -0.51430894466E+03  0.47675121847E+03  0.57783120709E+03  0.91320858412E+03  0.90860328855E+02 0.  0.
        254    2    1    2    0    0  0.51430894466E+03 -0.47675121847E+03  0.99306452591E+03  0.15158150974E+04  0.90537994340E+03 0.  0.
         23    2    4    4    0    0  0.51086260745E+03  0.12546444670E+03  0.51153491803E+03  0.73936493395E+03  0.90942850834E+02 0.  0.
         23    2    4    4    0    0  0.34463372099E+01 -0.60221566517E+03  0.48152960788E+03  0.77645016341E+03  0.91260661778E+02 0.  0.
          1    1    3    3  502    0 -0.47007256604E+03  0.43056795121E+03  0.55528822581E+03  0.84540049188E+03  0.00000000000E+00 0. -1.
         -1    1    3    3    0  502 -0.44236378617E+02  0.46183267263E+02  0.22542981279E+02  0.67808092239E+02  0.00000000000E+00 0.  1.
         13    1    5    5    0    0  0.43052518716E+03  0.99352001664E+02  0.47053711005E+03  0.64546721756E+03  0.00000000000E+00 0. -1.
        -13    1    5    5    0    0  0.80337420287E+02  0.26112445032E+02  0.40997807988E+02  0.93897716393E+02  0.00000000000E+00 0.  1.
          2    1    6    6  503    0 -0.25545948436E+02 -0.53704860740E+03  0.43001469972E+03  0.68846673425E+03  0.00000000000E+00 0. -1.
         -2    1    6    6    0  503  0.28992285646E+02 -0.65167057767E+02  0.51514908162E+02  0.87983429167E+02  0.00000000000E+00 0.  1.
<mgrwt>
<rscale>  0 0.18526853E+04</rscale>
<asrwt>0</asrwt>
<pdfrwt beam="1">  1        2 0.30768610E+00 0.18526853E+04</pdfrwt>
<pdfrwt beam="2">  1       -2 0.66009843E-01 0.18526853E+04</pdfrwt>
<totfact> 0.13264277E+01</totfact>
</mgrwt>
</event>
<event>
12    3  0.4192740E-008  0.1886265E+04  0.7818608E-02  0.8661724E-01
          2   -1    0    0  501    0  0.00000000000E+00  0.00000000000E+00  0.25639885383E+04  0.25639885383E+04  0.00000000000E+00 0. -1.
         -2   -1    0    0    0  501 -0.00000000000E+00 -0.00000000000E+00 -0.34691996819E+03  0.34691996819E+03  0.00000000000E+00 0.  1.
         23    2    1    2    0    0 -0.22709584192E+03 -0.22015805471E+03  0.18639074533E+04  0.18926848508E+04  0.89793426716E+02 0.  0.
        254    2    1    2    0    0  0.22709584192E+03  0.22015805471E+03  0.35316111689E+03  0.10182236558E+04  0.90111849844E+03 0.  0.
         23    2    4    4    0    0  0.29825484868E+03 -0.25853078504E+03 -0.12145447151E+02  0.40525379621E+03  0.91043977735E+02 0.  0.
         23    2    4    4    0    0 -0.71159006753E+02  0.47868883975E+03  0.36530656404E+03  0.61296985957E+03  0.89869647106E+02 0.  0.
          2    1    3    3  502    0 -0.22360399825E+03 -0.18046189585E+03  0.15686182990E+04  0.15947189759E+04  0.00000000000E+00 0. -1.
         -2    1    3    3    0  502 -0.34918436702E+01 -0.39696158858E+02  0.29528915423E+03  0.29796587490E+03  0.00000000000E+00 0.  1.
         13    1    5    5    0    0  0.66450376280E+02 -0.14987295337E+02 -0.11162831023E+02  0.69028112576E+02  0.00000000000E+00 0. -1.
        -13    1    5    5    0    0  0.23180447239E+03 -0.24354348970E+03 -0.98261612801E+00  0.33622568363E+03  0.00000000000E+00 0.  1.
          4    1    6    6  503    0 -0.36784587865E+02  0.42561447979E+03  0.33479390508E+03  0.54275938517E+03  0.00000000000E+00 0.  1.
         -4    1    6    6    0  503 -0.34374418887E+02  0.53074359956E+02  0.30512658957E+02  0.70210474399E+02  0.00000000000E+00 0. -1.
<mgrwt>
<rscale>  0 0.18862649E+04</rscale>
<asrwt>0</asrwt>
<pdfrwt beam="1">  1        2 0.39445976E+00 0.18862649E+04</pdfrwt>
<pdfrwt beam="2">  1       -2 0.53372305E-01 0.18862649E+04</pdfrwt>
<totfact> 0.99226743E+00</totfact>
</mgrwt>
</event>
<event>
12    3  0.4192740E-008  0.1716256E+04  0.7818608E-02  0.8752147E-01
         -2   -1    0    0    0  501 -0.00000000000E+00  0.00000000000E+00  0.54890937424E+03  0.54890937424E+03  0.00000000000E+00 0.  1.
          2   -1    0    0  501    0  0.00000000000E+00 -0.00000000000E+00 -0.13415400818E+04  0.13415400818E+04  0.00000000000E+00 0. -1.
         23    2    1    2    0    0 -0.82475389590E+02 -0.40536405374E+03  0.22049393229E+03  0.47768881380E+03  0.91906597696E+02 0.  0.
        254    2    1    2    0    0  0.82475389590E+02  0.40536405374E+03 -0.10131246398E+04  0.14127606422E+04  0.89350371594E+03 0.  0.
         23    2    4    4    0    0 -0.36566175949E+03  0.18894638742E+03 -0.22869323343E+03  0.47921271505E+03  0.89078457410E+02 0.  0.
         23    2    4    4    0    0  0.44813714908E+03  0.21641766632E+03 -0.78443140639E+03  0.93354792716E+03  0.92279956012E+02 0.  0.
          4    1    3    3  502    0  0.15482995649E+02 -0.12736846977E+03  0.79636037976E+02  0.15101108830E+03  0.00000000000E+00 0. -1.
         -4    1    3    3    0  502 -0.97958385238E+02 -0.27799558397E+03  0.14085789431E+03  0.32667772550E+03  0.00000000000E+00 0.  1.
         13    1    5    5    0    0 -0.28613964706E+03  0.18604868057E+03 -0.17901893806E+03  0.38540600585E+03  0.00000000000E+00 0.  1.
        -13    1    5    5    0    0 -0.79522112430E+02  0.28977068544E+01 -0.49674295372E+02  0.93806709200E+02  0.00000000000E+00 0. -1.
          2    1    6    6  503    0  0.16730161782E+03  0.41174390607E+02 -0.22316915810E+03  0.28193906237E+03  0.00000000000E+00 0.  1.
         -2    1    6    6    0  503  0.28083553127E+03  0.17524327571E+03 -0.56126224829E+03  0.65160886478E+03  0.00000000000E+00 0. -1.
<mgrwt>
<rscale>  0 0.17162563E+04</rscale>
<asrwt>0</asrwt>
<pdfrwt beam="1">  1        2 0.20639078E+00 0.17162563E+04</pdfrwt>
<pdfrwt beam="2">  1       -2 0.84447596E-01 0.17162563E+04</pdfrwt>
<totfact> 0.18175058E+01</totfact>
</mgrwt>
</event>
<event>
12    3  0.4192740E-008  0.1234587E+04  0.7818608E-02  0.9083110E-01
         -2   -1    0    0    0  501 -0.00000000000E+00  0.00000000000E+00  0.13004616314E+03  0.13004616314E+03  0.00000000000E+00 0.  1.
          2   -1    0    0  501    0  0.00000000000E+00 -0.00000000000E+00 -0.29301219947E+04  0.29301219947E+04  0.00000000000E+00 0. -1.
         23    2    1    2    0    0  0.96093073471E+02  0.15321182444E+03 -0.14034471760E+03  0.24649511052E+03  0.91408193485E+02 0.  0.
        254    2    1    2    0    0 -0.96093073471E+02 -0.15321182444E+03 -0.26597311140E+04  0.28136730473E+04  0.89993259563E+03 0.  0.
         23    2    4    4    0    0 -0.42499053997E+02 -0.40892795164E+02  0.35709046993E+02  0.11374492483E+03  0.90467572095E+02 0.  0.
         23    2    4    4    0    0 -0.53594019474E+02 -0.11231902928E+03 -0.26954401610E+04  0.26999281225E+04  0.93414784824E+02 0.  0.
          4    1    3    3  502    0 -0.14020463843E+02  0.20266819789E+02 -0.39544821190E+02  0.46595174360E+02  0.00000000000E+00 0. -1.
         -4    1    3    3    0  502  0.11011353731E+03  0.13294500465E+03 -0.10079989641E+03  0.19989993616E+03  0.00000000000E+00 0.  1.
         13    1    5    5    0    0 -0.26624509679E+02  0.19597684270E+02  0.38991376018E+02  0.51120066003E+02  0.00000000000E+00 0. -1.
        -13    1    5    5    0    0 -0.15874544318E+02 -0.60490479434E+02 -0.32823290249E+01  0.62624858828E+02  0.00000000000E+00 0.  1.
          3    1    6    6  503    0  0.51773236930E+01 -0.81562559621E+01 -0.24858221862E+02  0.26669465425E+02  0.00000000000E+00 0. -1.
         -3    1    6    6    0  503 -0.58771343167E+02 -0.10416277332E+03 -0.26705819391E+04  0.26732586571E+04  0.00000000000E+00 0.  1.
<mgrwt>
<rscale>  0 0.12345868E+04</rscale>
<asrwt>0</asrwt>
<pdfrwt beam="1">  1        2 0.45078798E+00 0.12345868E+04</pdfrwt>
<pdfrwt beam="2">  1       -2 0.20007103E-01 0.12345868E+04</pdfrwt>
<totfact> 0.40973288E+01</totfact>
</mgrwt>
</event>
<event>
12    3  0.4192740E-008  0.1268194E+04  0.7818608E-02  0.9055175E-01
          2   -1    0    0  501    0  0.00000000000E+00  0.00000000000E+00  0.84240478967E+03  0.84240478967E+03  0.00000000000E+00 0. -1.
         -2   -1    0    0    0  501 -0.00000000000E+00 -0.00000000000E+00 -0.47729919194E+03  0.47729919194E+03  0.00000000000E+00 0.  1.
         23    2    1    2    0    0 -0.90574815423E+02  0.47273754519E+02 -0.20343002086E+03  0.24712487813E+03  0.96168222143E+02 0.  0.
        254    2    1    2    0    0  0.90574815423E+02 -0.47273754519E+02  0.56853561859E+03  0.10725791035E+04  0.90374475299E+03 0.  0.
         23    2    4    4    0    0  0.15483051309E+03  0.31913684831E+03 -0.23522408395E+02  0.36772199794E+03  0.94049712050E+02 0.  0.
         23    2    4    4    0    0 -0.64255697667E+02 -0.36641060283E+03  0.59205802698E+03  0.70485710554E+03  0.88911795463E+02 0.  0.
          4    1    3    3  502    0 -0.14583505010E+02  0.27478674001E+02 -0.22825415921E+01  0.31192405155E+02  0.00000000000E+00 0. -1.
         -4    1    3    3    0  502 -0.75991310412E+02  0.19795080518E+02 -0.20114747927E+03  0.21593247298E+03  0.00000000000E+00 0.  1.
         13    1    5    5    0    0  0.13705722723E+03  0.18214641749E+03 -0.23045433489E+01  0.22796340027E+03  0.00000000000E+00 0.  1.
        -13    1    5    5    0    0  0.17773285863E+02  0.13699043082E+03 -0.21217865047E+02  0.13975859767E+03  0.00000000000E+00 0. -1.
          4    1    6    6  503    0 -0.35132688979E+01 -0.80904016796E+02  0.71417871367E+02  0.10797367894E+03  0.00000000000E+00 0. -1.
         -4    1    6    6    0  503 -0.60742428769E+02 -0.28550658603E+03  0.52064015561E+03  0.59688342661E+03  0.00000000000E+00 0.  1.
<mgrwt>
<rscale>  0 0.12681942E+04</rscale>
<asrwt>0</asrwt>
<pdfrwt beam="1">  1        2 0.12960074E+00 0.12681942E+04</pdfrwt>
<pdfrwt beam="2">  1       -2 0.73430645E-01 0.12681942E+04</pdfrwt>
<totfact> 0.52834640E+01</totfact>
</mgrwt>
</event>
<event>
12    3  0.4192740E-008  0.1473677E+04  0.7818608E-02  0.8902148E-01
          3   -1    0    0  501    0  0.00000000000E+00  0.00000000000E+00  0.55384885256E+03  0.55384885256E+03  0.00000000000E+00 0. -1.
         -3   -1    0    0    0  501 -0.00000000000E+00 -0.00000000000E+00 -0.98028742658E+03  0.98028742658E+03  0.00000000000E+00 0.  1.
         23    2    1    2    0    0  0.59334927875E+02  0.70552120247E+02  0.31781052587E+03  0.34430209076E+03  0.95090293981E+02 0.  0.
        254    2    1    2    0    0 -0.59334927875E+02 -0.70552120247E+02 -0.74424909989E+03  0.11898341884E+04  0.92374262531E+03 0.  0.
         23    2    4    4    0    0  0.15268074039E+03 -0.23363419624E+03  0.91619067728E+02  0.30752521029E+03  0.91001951908E+02 0.  0.
         23    2    4    4    0    0 -0.21201566827E+03  0.16308207600E+03 -0.83586816762E+03  0.88230897809E+03  0.90813721864E+02 0.  0.
          2    1    3    3  502    0  0.38350454193E+02  0.87294466418E+02  0.17790825312E+03  0.20184753586E+03  0.00000000000E+00 0. -1.
         -2    1    3    3    0  502  0.20984473683E+02 -0.16742346171E+02  0.13990227275E+03  0.14245455490E+03  0.00000000000E+00 0.  1.
         13    1    5    5    0    0 -0.54208308432E+01  0.42656276294E+01  0.64768984864E+01  0.94620927974E+01  0.00000000000E+00 0. -1.
        -13    1    5    5    0    0  0.15810157123E+03 -0.23789982387E+03  0.85142169242E+02  0.29806311749E+03  0.00000000000E+00 0.  1.
          2    1    6    6  503    0 -0.19202983180E+03  0.14667219873E+03 -0.81173834014E+03  0.84693997605E+03  0.00000000000E+00 0.  1.
         -2    1    6    6    0  503 -0.19985836463E+02  0.16409877266E+02 -0.24129827480E+02  0.35369002039E+02  0.00000000000E+00 0. -1.
<mgrwt>
<rscale>  0 0.14736771E+04</rscale>
<asrwt>0</asrwt>
<pdfrwt beam="1">  1        3 0.85207517E-01 0.14736771E+04</pdfrwt>
<pdfrwt beam="2">  1       -3 0.15081345E+00 0.14736771E+04</pdfrwt>
<totfact> 0.10186192E+00</totfact>
</mgrwt>
</event>
<event>
12    3  0.4192740E-008  0.2082944E+04  0.7818608E-02  0.8568794E-01
         -1   -1    0    0    0  501 -0.00000000000E+00  0.00000000000E+00  0.12250667263E+04  0.12250667263E+04  0.00000000000E+00 0.  1.
          1   -1    0    0  501    0  0.00000000000E+00 -0.00000000000E+00 -0.88539191637E+03  0.88539191637E+03  0.00000000000E+00 0. -1.
         23    2    1    2    0    0  0.50829944056E+03 -0.37071426742E+03 -0.42801046545E+03  0.76655740259E+03  0.92843435886E+02 0.  0.
        254    2    1    2    0    0 -0.50829944056E+03  0.37071426742E+03  0.76768527534E+03  0.13439012400E+04  0.90605323887E+03 0.  0.
         23    2    4    4    0    0 -0.25103622504E+02  0.33378780733E+03  0.77646747397E+03  0.85059276981E+03  0.92530155790E+02 0.  0.
         23    2    4    4    0    0 -0.48319581806E+03  0.36926460093E+02 -0.87821986319E+01  0.49330847023E+03  0.91838759525E+02 0.  0.
          2    1    3    3  502    0  0.48083812296E+03 -0.36924954981E+03 -0.42123703420E+03  0.73823517223E+03  0.00000000000E+00 0. -1.
         -2    1    3    3    0  502  0.27461317595E+02 -0.14647176089E+01 -0.67734312489E+01  0.28322230361E+02  0.00000000000E+00 0.  1.
         13    1    5    5    0    0  0.16559641140E+02  0.23135963015E+03  0.58777786829E+03  0.63188948609E+03  0.00000000000E+00 0. -1.
        -13    1    5    5    0    0 -0.41663263644E+02  0.10242817718E+03  0.18868960568E+03  0.21870328372E+03  0.00000000000E+00 0.  1.
          3    1    6    6  503    0 -0.17513536165E+03 -0.25467518337E+02 -0.24149853699E+02  0.17861748185E+03  0.00000000000E+00 0. -1.
         -3    1    6    6    0  503 -0.30806045641E+03  0.62393978430E+02  0.15367655067E+02  0.31469098838E+03  0.00000000000E+00 0.  1.
<mgrwt>
<rscale>  0 0.20829442E+04</rscale>
<asrwt>0</asrwt>
<pdfrwt beam="1">  1        1 0.13621414E+00 0.20829442E+04</pdfrwt>
<pdfrwt beam="2">  1       -1 0.18847180E+00 0.20829442E+04</pdfrwt>
<totfact> 0.31209193E+00</totfact>
</mgrwt>
</event>
<event>
12    3  0.4192740E-008  0.1236074E+04  0.7818608E-02  0.9081854E-01
          2   -1    0    0  501    0  0.00000000000E+00  0.00000000000E+00  0.13247498696E+04  0.13247498696E+04  0.00000000000E+00 0.  1.
         -2   -1    0    0    0  501 -0.00000000000E+00 -0.00000000000E+00 -0.28833348238E+03  0.28833348238E+03  0.00000000000E+00 0. -1.
         23    2    1    2    0    0 -0.89295077200E+02  0.37437929237E+02  0.59228054032E+03  0.60723474404E+03  0.92534245393E+02 0.  0.
        254    2    1    2    0    0  0.89295077200E+02 -0.37437929237E+02  0.44413584687E+03  0.10058486079E+04  0.89727340437E+03 0.  0.
         23    2    4    4    0    0 -0.17467618099E+03  0.20336910804E+03 -0.13956817305E+03  0.31562511516E+03  0.90935010185E+02 0.  0.
         23    2    4    4    0    0  0.26397125819E+03 -0.24080703728E+03  0.58370401992E+03  0.69022349275E+03  0.89605985961E+02 0.  0.
          1    1    3    3  502    0 -0.25774226935E+02 -0.41272902792E+01  0.29635651860E+02  0.39491988559E+02  0.00000000000E+00 0. -1.
         -1    1    3    3    0  502 -0.63520850265E+02  0.41565219516E+02  0.56264488846E+03  0.56774275548E+03  0.00000000000E+00 0.  1.
         13    1    5    5    0    0 -0.78578120009E+02  0.15723311932E+03 -0.97671079043E+02  0.20108807632E+03  0.00000000000E+00 0. -1.
        -13    1    5    5    0    0 -0.96098060982E+02  0.46135988721E+02 -0.41897094009E+02  0.11453703884E+03  0.00000000000E+00 0.  1.
          1    1    6    6  503    0  0.97536151875E+02 -0.12133066660E+03  0.32379213422E+03  0.35927117580E+03  0.00000000000E+00 0. -1.
         -1    1    6    6    0  503  0.16643510632E+03 -0.11947637068E+03  0.25991188570E+03  0.33095231695E+03  0.00000000000E+00 0.  1.
<mgrwt>
<rscale>  0 0.12360740E+04</rscale>
<asrwt>0</asrwt>
<pdfrwt beam="1">  1        2 0.20380767E+00 0.12360740E+04</pdfrwt>
<pdfrwt beam="2">  1       -2 0.44358998E-01 0.12360740E+04</pdfrwt>
<totfact> 0.75835982E+01</totfact>
</mgrwt>
</event>
<event>
12    3  0.4192740E-008  0.3758503E+04  0.7818608E-02  0.8055119E-01
         -2   -1    0    0    0  501 -0.00000000000E+00  0.00000000000E+00  0.93099362024E+03  0.93099362024E+03  0.00000000000E+00 0. -1.
          2   -1    0    0  501    0  0.00000000000E+00 -0.00000000000E+00 -0.37933519081E+04  0.37933519081E+04  0.00000000000E+00 0.  1.
         23    2    1    2    0    0  0.52563530566E+03  0.16813967358E+04 -0.11586547792E+04  0.21104966085E+04  0.91255571906E+02 0.  0.
        254    2    1    2    0    0 -0.52563530566E+03 -0.16813967358E+04 -0.17037035087E+04  0.26138489198E+04  0.90896263538E+03 0.  0.
         23    2    4    4    0    0 -0.72217266700E+03 -0.89606959352E+03 -0.84655297921E+03  0.14312628644E+04  0.85949770372E+02 0.  0.
         23    2    4    4    0    0  0.19653736134E+03 -0.78532714230E+03 -0.85715052946E+03  0.11825860554E+04  0.91853652707E+02 0.  0.
          2    1    3    3  502    0  0.74148609176E+02  0.17009925107E+03 -0.99126873061E+02  0.21037563647E+03  0.00000000000E+00 0.  1.
         -2    1    3    3    0  502  0.45148669649E+03  0.15112974847E+04 -0.10595279062E+04  0.19001209721E+04  0.00000000000E+00 0. -1.
         13    1    5    5    0    0 -0.16002198463E+03 -0.20023933716E+03 -0.23423590295E+03  0.34723088276E+03  0.00000000000E+00 0. -1.
        -13    1    5    5    0    0 -0.56215068237E+03 -0.69583025636E+03 -0.61231707627E+03  0.10840319817E+04  0.00000000000E+00 0.  1.
          3    1    6    6  503    0  0.10474516716E+03 -0.24446291860E+03 -0.26812323857E+03  0.37765558340E+03  0.00000000000E+00 0. -1.
         -3    1    6    6    0  503  0.91792194184E+02 -0.54086422370E+03 -0.58902729090E+03  0.80493047203E+03  0.00000000000E+00 0.  1.
<mgrwt>
<rscale>  0 0.37585031E+04</rscale>
<asrwt>0</asrwt>
<pdfrwt beam="1">  1        2 0.58359260E+00 0.37585031E+04</pdfrwt>
<pdfrwt beam="2">  1       -2 0.14322979E+00 0.37585031E+04</pdfrwt>
<totfact> 0.13492929E-01</totfact>
</mgrwt>
</event>
<event>
12    3  0.4192740E-008  0.1743410E+04  0.7818608E-02  0.8736986E-01
          2   -1    0    0  501    0  0.00000000000E+00  0.00000000000E+00  0.15696285462E+04  0.15696285462E+04  0.00000000000E+00 0. -1.
         -2   -1    0    0    0  501 -0.00000000000E+00 -0.00000000000E+00 -0.48410790162E+03  0.48410790162E+03  0.00000000000E+00 0.  1.
         23    2    1    2    0    0  0.50394008135E+03  0.10051504644E+02 -0.67164714372E+02  0.51638085015E+03  0.89896858732E+02 0.  0.
        254    2    1    2    0    0 -0.50394008135E+03 -0.10051504644E+02  0.11526853589E+04  0.15373555976E+04  0.88358477726E+03 0.  0.
         23    2    4    4    0    0 -0.15739913301E+03 -0.42288739598E+03  0.41790225244E+03  0.62172005775E+03  0.91023628037E+02 0.  0.
         23    2    4    4    0    0 -0.34654094833E+03  0.41283589133E+03  0.73478310648E+03  0.91563553990E+03  0.89208330977E+02 0.  0.
          1    1    3    3  502    0  0.44702152641E+03 -0.10726977156E+02 -0.36954413054E+02  0.44867465023E+03  0.00000000000E+00 0. -1.
         -1    1    3    3    0  502  0.56918554937E+02  0.20778481800E+02 -0.30210301318E+02  0.67706199921E+02  0.00000000000E+00 0.  1.
         13    1    5    5    0    0 -0.15763698233E+03 -0.42135596165E+03  0.39474119242E+03  0.59850720431E+03  0.00000000000E+00 0. -1.
        -13    1    5    5    0    0  0.23784931501E+00 -0.15314343261E+01  0.23161060027E+02  0.23212853443E+02  0.00000000000E+00 0.  1.
          1    1    6    6  503    0 -0.34527558448E+03  0.39000728318E+03  0.71900365524E+03  0.88785537472E+03  0.00000000000E+00 0. -1.
         -1    1    6    6    0  503 -0.12653638514E+01  0.22828608154E+02  0.15779451237E+02  0.27780165177E+02  0.00000000000E+00 0.  1.
<mgrwt>
<rscale>  0 0.17434100E+04</rscale>
<asrwt>0</asrwt>
<pdfrwt beam="1">  1        2 0.24148131E+00 0.17434100E+04</pdfrwt>
<pdfrwt beam="2">  1       -2 0.74478139E-01 0.17434100E+04</pdfrwt>
<totfact> 0.17835240E+01</totfact>
</mgrwt>
</event>
<event>
12    3  0.4192740E-008  0.2176259E+04  0.7818608E-02  0.8528375E-01
          2   -1    0    0  501    0  0.00000000000E+00  0.00000000000E+00  0.22870718014E+04  0.22870718014E+04  0.00000000000E+00 0.  1.
         -2   -1    0    0    0  501 -0.00000000000E+00 -0.00000000000E+00 -0.51770376219E+03  0.51770376219E+03  0.00000000000E+00 0. -1.
         23    2    1    2    0    0 -0.44894858011E+03 -0.70673823738E+03  0.11539808753E+04  0.14286426802E+04  0.91182691334E+02 0.  0.
        254    2    1    2    0    0  0.44894858011E+03  0.70673823738E+03  0.61538716387E+03  0.13761328834E+04  0.90222313626E+03 0.  0.
         23    2    4    4    0    0  0.51004901814E+03  0.80363338839E+03  0.71562545750E+03  0.11941752711E+04  0.89208513621E+02 0.  0.
         23    2    4    4    0    0 -0.61100438028E+02 -0.96895151012E+02 -0.10023829364E+03  0.18195761228E+03  0.99694148977E+02 0.  0.
          1    1    3    3  502    0 -0.35137791430E+03 -0.50803025867E+03  0.90196591839E+03  0.10932079858E+04  0.00000000000E+00 0. -1.
         -1    1    3    3    0  502 -0.97570665818E+02 -0.19870797871E+03  0.25201495693E+03  0.33543469431E+03  0.00000000000E+00 0.  1.
         13    1    5    5    0    0  0.38485664305E+03  0.64838378773E+03  0.52924196180E+03  0.92120205494E+03  0.00000000000E+00 0. -1.
        -13    1    5    5    0    0  0.12519237510E+03  0.15524960066E+03  0.18638349571E+03  0.27297321619E+03  0.00000000000E+00 0.  1.
          1    1    6    6  503    0 -0.72878735469E+01 -0.78577228164E+02 -0.96964673899E+02  0.12501856611E+03  0.00000000000E+00 0. -1.
         -1    1    6    6    0  503 -0.53812564481E+02 -0.18317922848E+02 -0.32736197366E+01  0.56939046179E+02  0.00000000000E+00 0.  1.
<mgrwt>
<rscale>  0 0.21762589E+04</rscale>
<asrwt>0</asrwt>
<pdfrwt beam="1">  1        2 0.35185720E+00 0.21762589E+04</pdfrwt>
<pdfrwt beam="2">  1       -2 0.79646734E-01 0.21762589E+04</pdfrwt>
<totfact> 0.58950546E+00</totfact>
</mgrwt>
</event>
<event>
12    3  0.4192740E-008  0.2570994E+04  0.7818608E-02  0.8378121E-01
          1   -1    0    0  501    0  0.00000000000E+00  0.00000000000E+00  0.15741578457E+04  0.15741578457E+04  0.00000000000E+00 0. -1.
         -1   -1    0    0    0  501 -0.00000000000E+00 -0.00000000000E+00 -0.10497689296E+04  0.10497689296E+04  0.00000000000E+00 0.  1.
         23    2    1    2    0    0 -0.80838833490E+03 -0.51441204817E+03 -0.38103902288E+03  0.10341388002E+04  0.78363677143E+02 0.  0.
        254    2    1    2    0    0  0.80838833490E+03  0.51441204817E+03  0.90542793900E+03  0.15897879751E+04  0.88854633962E+03 0.  0.
         23    2    4    4    0    0  0.99163493930E+03  0.41116526985E+03  0.75503353971E+03  0.13155157811E+04  0.90052164373E+02 0.  0.
         23    2    4    4    0    0 -0.18324660440E+03  0.10324677832E+03  0.15039439930E+03  0.27427219395E+03  0.91474290261E+02 0.  0.
          2    1    3    3  502    0 -0.13956878736E+03 -0.96418397064E+02 -0.36732756271E+02  0.17356626712E+03  0.00000000000E+00 0. -1.
         -2    1    3    3    0  502 -0.66881954754E+03 -0.41799365110E+03 -0.34430626661E+03  0.86057253312E+03  0.00000000000E+00 0.  1.
         13    1    5    5    0    0  0.26244128092E+03  0.89369105328E+02  0.15300185255E+03  0.31665727499E+03  0.00000000000E+00 0.  1.
        -13    1    5    5    0    0  0.72919365838E+03  0.32179616452E+03  0.60203168716E+03  0.99885850613E+03  0.00000000000E+00 0. -1.
          2    1    6    6  503    0 -0.83002269491E+02  0.25602271518E+02  0.13892604814E+02  0.87965092600E+02  0.00000000000E+00 0. -1.
         -2    1    6    6    0  503 -0.10024433491E+03  0.77644506799E+02  0.13650179448E+03  0.18630710135E+03  0.00000000000E+00 0.  1.
<mgrwt>
<rscale>  0 0.25709936E+04</rscale>
<asrwt>0</asrwt>
<pdfrwt beam="1">  1        1 0.24217813E+00 0.25709936E+04</pdfrwt>
<pdfrwt beam="2">  1       -1 0.16150291E+00 0.25709936E+04</pdfrwt>
<totfact> 0.14613332E+00</totfact>
</mgrwt>
</event>
<event>
12    3  0.4192740E-008  0.3499016E+04  0.7818608E-02  0.8114023E-01
          1   -1    0    0  501    0  0.00000000000E+00  0.00000000000E+00  0.15560349044E+04  0.15560349044E+04  0.00000000000E+00 0. -1.
         -1   -1    0    0    0  501 -0.00000000000E+00 -0.00000000000E+00 -0.19670371897E+04  0.19670371897E+04  0.00000000000E+00 0.  1.
         23    2    1    2    0    0 -0.55239238085E+03 -0.71972196487E+03 -0.15573545857E+04  0.18063434355E+04  0.11994270369E+03 0.  0.
        254    2    1    2    0    0  0.55239238085E+03  0.71972196487E+03  0.11463523004E+04  0.17167286585E+04  0.89994257662E+03 0.  0.
         23    2    4    4    0    0  0.61966183654E+03  0.33721395893E+03  0.28308565464E+03  0.76577337849E+03  0.92613895220E+02 0.  0.
         23    2    4    4    0    0 -0.67269455683E+02  0.38250800594E+03  0.86326664577E+03  0.95095528004E+03  0.90824493693E+02 0.  0.
          3    1    3    3  502    0 -0.23179396510E+02 -0.32280834178E+02 -0.13078903995E+03  0.13669348795E+03  0.00000000000E+00 0. -1.
         -3    1    3    3    0  502 -0.52921298434E+03 -0.68744113069E+03 -0.14265655458E+04  0.16696499476E+04  0.00000000000E+00 0.  1.
         13    1    5    5    0    0  0.32271297349E+03  0.17699421958E+03  0.97813725210E+02  0.38083873472E+03  0.00000000000E+00 0. -1.
        -13    1    5    5    0    0  0.29694886305E+03  0.16021973935E+03  0.18527192943E+03  0.38493464377E+03  0.00000000000E+00 0.  1.
          1    1    6    6  503    0  0.11276216584E+02  0.19803236571E+03  0.42764604502E+03  0.47140758452E+03  0.00000000000E+00 0. -1.
         -1    1    6    6    0  503 -0.78545672267E+02  0.18447564023E+03  0.43562060076E+03  0.47954769552E+03  0.00000000000E+00 0.  1.
<mgrwt>
<rscale>  0 0.34990162E+04</rscale>
<asrwt>0</asrwt>
<pdfrwt beam="1">  1        1 0.23938999E+00 0.34990162E+04</pdfrwt>
<pdfrwt beam="2">  1       -1 0.30262110E+00 0.34990162E+04</pdfrwt>
<totfact> 0.15500183E-01</totfact>
</mgrwt>
</event>
<event>
12    3  0.4192740E-008  0.2015826E+04  0.7818608E-02  0.8599257E-01
         -1   -1    0    0    0  501 -0.00000000000E+00  0.00000000000E+00  0.97280201381E+03  0.97280201381E+03  0.00000000000E+00 0.  1.
          1   -1    0    0  501    0  0.00000000000E+00 -0.00000000000E+00 -0.10442911747E+04  0.10442911747E+04  0.00000000000E+00 0. -1.
         23    2    1    2    0    0  0.42862820495E+03  0.63327114065E+03  0.20821104236E+03  0.79793031925E+03  0.92663264351E+02 0.  0.
        254    2    1    2    0    0 -0.42862820495E+03 -0.63327114065E+03 -0.27970020329E+03  0.12191628693E+04  0.90739816096E+03 0.  0.
         23    2    4    4    0    0 -0.42291626356E+03 -0.65288211513E+03 -0.53435375598E+03  0.94820346811E+03  0.91883938502E+02 0.  0.
         23    2    4    4    0    0 -0.57119413898E+01  0.19610974485E+02  0.25465355269E+03  0.27095940120E+03  0.90295894736E+02 0.  0.
          1    1    3    3  502    0  0.63977905586E+01 -0.26390139439E+01  0.26859324897E+01  0.74236346870E+01  0.00000000000E+00 0. -1.
         -1    1    3    3    0  502  0.42223041439E+03  0.63591015459E+03  0.20552510987E+03  0.79050668456E+03  0.00000000000E+00 0.  1.
         13    1    5    5    0    0 -0.52159075814E+02 -0.36127484482E+02 -0.49747412789E+02  0.80626108699E+02  0.00000000000E+00 0.  1.
        -13    1    5    5    0    0 -0.37075718775E+03 -0.61675463065E+03 -0.48460634319E+03  0.86757735941E+03  0.00000000000E+00 0. -1.
          1    1    6    6  503    0 -0.38767680546E+02 -0.56747602094E+00  0.53270480918E+02  0.65886259729E+02  0.00000000000E+00 0.  1.
         -1    1    6    6    0  503  0.33055739156E+02  0.20178450506E+02  0.20138307177E+03  0.20507314147E+03  0.00000000000E+00 0. -1.
<mgrwt>
<rscale>  0 0.20158259E+04</rscale>
<asrwt>0</asrwt>
<pdfrwt beam="1">  1        1 0.16066018E+00 0.20158259E+04</pdfrwt>
<pdfrwt beam="2">  1       -1 0.14966185E+00 0.20158259E+04</pdfrwt>
<totfact> 0.45464675E+00</totfact>
</mgrwt>
</event>
<event>
12    3  0.4192740E-008  0.1200745E+04  0.7818608E-02  0.9112205E-01
          2   -1    0    0  501    0  0.00000000000E+00  0.00000000000E+00  0.27453009047E+03  0.27453009047E+03  0.00000000000E+00 0. -1.
         -2   -1    0    0    0  501 -0.00000000000E+00 -0.00000000000E+00 -0.13129597724E+04  0.13129597724E+04  0.00000000000E+00 0.  1.
         23    2    1    2    0    0  0.13069308242E+03 -0.14545444125E+03 -0.19266410557E+02  0.21643611308E+03  0.90750868835E+02 0.  0.
        254    2    1    2    0    0 -0.13069308242E+03  0.14545444125E+03 -0.10191632714E+04  0.13710537498E+04  0.89602284280E+03 0.  0.
         23    2    4    4    0    0 -0.41467379115E+03  0.19444533572E+03 -0.95376797189E+03  0.10618926793E+04  0.90439905344E+02 0.  0.
         23    2    4    4    0    0  0.28398070873E+03 -0.48990894470E+02 -0.65395299502E+02  0.30916107051E+03  0.90878334322E+02 0.  0.
          4    1    3    3  502    0  0.60087410463E+02 -0.11790239709E+03  0.15153001037E+02  0.13319566651E+03  0.00000000000E+00 0. -1.
         -4    1    3    3    0  502  0.70605671960E+02 -0.27552044162E+02 -0.34419411594E+02  0.83240446568E+02  0.00000000000E+00 0.  1.
         13    1    5    5    0    0 -0.26549994269E+03  0.13860834763E+03 -0.71133727663E+03  0.77181812283E+03  0.00000000000E+00 0. -1.
        -13    1    5    5    0    0 -0.14917384846E+03  0.55836988094E+02 -0.24243069526E+03  0.29007455646E+03  0.00000000000E+00 0.  1.
          2    1    6    6  503    0  0.26303738779E+03 -0.19744052376E+02 -0.44334894853E+02  0.26747724741E+03  0.00000000000E+00 0. -1.
         -2    1    6    6    0  503  0.20943320944E+02 -0.29246842093E+02 -0.21060404648E+02  0.41683823104E+02  0.00000000000E+00 0.  1.
<mgrwt>
<rscale>  0 0.12007447E+04</rscale>
<asrwt>0</asrwt>
<pdfrwt beam="1">  1        2 0.42235400E-01 0.12007447E+04</pdfrwt>
<pdfrwt beam="2">  1       -2 0.20199380E+00 0.12007447E+04</pdfrwt>
<totfact> 0.15428510E+01</totfact>
</mgrwt>
</event>
<event>
12    3  0.4192740E-008  0.1574434E+04  0.7818608E-02  0.8836410E-01
          1   -1    0    0  501    0  0.00000000000E+00  0.00000000000E+00  0.28975153657E+04  0.28975153657E+04  0.00000000000E+00 0. -1.
         -1   -1    0    0    0  501 -0.00000000000E+00 -0.00000000000E+00 -0.21387658799E+03  0.21387658799E+03  0.00000000000E+00 0.  1.
         23    2    1    2    0    0 -0.44662199917E+03 -0.10544726475E+03  0.14595388282E+04  0.15327017878E+04  0.91273455251E+02 0.  0.
        254    2    1    2    0    0  0.44662199917E+03  0.10544726475E+03  0.12240999495E+04  0.15786901659E+04  0.88501503806E+03 0.  0.
         23    2    4    4    0    0  0.17127858159E+02 -0.32098642442E+03  0.20865778726E+03  0.39305639658E+03  0.87347641777E+02 0.  0.
         23    2    4    4    0    0  0.42949414101E+03  0.42643368916E+03  0.10154421623E+04  0.11856337693E+04  0.91069981622E+02 0.  0.
          2    1    3    3  502    0 -0.40872321454E+03 -0.10656870627E+03  0.13980391342E+04  0.14604536885E+04  0.00000000000E+00 0. -1.
         -2    1    3    3    0  502 -0.37898784622E+02  0.11214415223E+01  0.61499693972E+02  0.72248099390E+02  0.00000000000E+00 0.  1.
         13    1    5    5    0    0  0.30147266771E+02 -0.80140202713E+02  0.90101144281E+02  0.12429612217E+03  0.00000000000E+00 0.  1.
        -13    1    5    5    0    0 -0.13019408612E+02 -0.24084622170E+03  0.11855664298E+03  0.26876027442E+03  0.00000000000E+00 0. -1.
          3    1    6    6  503    0  0.93582934865E+02  0.10148194790E+03  0.16409559119E+03  0.21443813676E+03  0.00000000000E+00 0.  1.
         -3    1    6    6    0  503  0.33591120614E+03  0.32495174126E+03  0.85134657108E+03  0.97119563253E+03  0.00000000000E+00 0. -1.
<mgrwt>
<rscale>  0 0.15744341E+04</rscale>
<asrwt>0</asrwt>
<pdfrwt beam="1">  1        1 0.44577157E+00 0.15744341E+04</pdfrwt>
<pdfrwt beam="2">  1       -1 0.32904092E-01 0.15744341E+04</pdfrwt>
<totfact> 0.59375598E+00</totfact>
</mgrwt>
</event>
<event>
12    3  0.4192740E-008  0.1545256E+04  0.7818608E-02  0.8854904E-01
          1   -1    0    0  501    0  0.00000000000E+00  0.00000000000E+00  0.43090157778E+03  0.43090157778E+03  0.00000000000E+00 0. -1.
         -1   -1    0    0    0  501 -0.00000000000E+00 -0.00000000000E+00 -0.13853606418E+04  0.13853606418E+04  0.00000000000E+00 0.  1.
         23    2    1    2    0    0  0.10891116505E+03  0.39654436289E+03 -0.70844464090E+01  0.41945731316E+03  0.82372171080E+02 0.  0.
        254    2    1    2    0    0 -0.10891116505E+03 -0.39654436289E+03 -0.94737461762E+03  0.13968049064E+04  0.94044468571E+03 0.  0.
         23    2    4    4    0    0  0.25982271649E+03  0.12826760797E+03 -0.57287408766E+03  0.64828935894E+03  0.90188410266E+02 0.  0.
         23    2    4    4    0    0 -0.36873388153E+03 -0.52481197086E+03 -0.37450052996E+03  0.74851554748E+03  0.92911773940E+02 0.  0.
          2    1    3    3  502    0  0.11592242399E+03  0.39298623501E+03 -0.12487708163E+02  0.40991722597E+03  0.00000000000E+00 0. -1.
         -2    1    3    3    0  502 -0.70112589457E+01  0.35581278849E+01  0.54032617539E+01  0.95400871919E+01  0.00000000000E+00 0.  1.
         13    1    5    5    0    0  0.12160737933E+03  0.10997406471E+02 -0.23899255908E+03  0.26837798149E+03  0.00000000000E+00 0.  1.
        -13    1    5    5    0    0  0.13821533716E+03  0.11727020149E+03 -0.33388152859E+03  0.37991137745E+03  0.00000000000E+00 0. -1.
          1    1    6    6  503    0 -0.35369896545E+03 -0.49651240847E+03 -0.37633331466E+03  0.71641768100E+03  0.00000000000E+00 0. -1.
         -1    1    6    6    0  503 -0.15034916085E+02 -0.28299562389E+02  0.18327847013E+01  0.32097866485E+02  0.00000000000E+00 0.  1.
<mgrwt>
<rscale>  0 0.15452561E+04</rscale>
<asrwt>0</asrwt>
<pdfrwt beam="1">  1        1 0.66292551E-01 0.15452561E+04</pdfrwt>
<pdfrwt beam="2">  1       -1 0.21313240E+00 0.15452561E+04</pdfrwt>
<totfact> 0.64059172E+00</totfact>
</mgrwt>
</event>
<event>
12    3  0.4192740E-008  0.1903727E+04  0.7818608E-02  0.8653003E-01
         -2   -1    0    0    0  501 -0.00000000000E+00  0.00000000000E+00  0.10065837750E+04  0.10065837750E+04  0.00000000000E+00 0.  1.
          2   -1    0    0  501    0  0.00000000000E+00 -0.00000000000E+00 -0.90011791425E+03  0.90011791425E+03  0.00000000000E+00 0. -1.
         23    2    1    2    0    0 -0.50702494454E+03  0.28834805695E+03 -0.45686476532E+03  0.74656110137E+03  0.91701515504E+02 0.  0.
        254    2    1    2    0    0  0.50702494454E+03 -0.28834805695E+03  0.56333062608E+03  0.11601405879E+04  0.82967818643E+03 0.  0.
         23    2    4    4    0    0  0.19042543882E+03  0.29927614666E+02 -0.18518715645E+03  0.28214746414E+03  0.90307246322E+02 0.  0.
         23    2    4    4    0    0  0.31659950572E+03 -0.31827567162E+03  0.74851778253E+03  0.87799312374E+03  0.95175650281E+02 0.  0.
          3    1    3    3  502    0 -0.10685965196E+01  0.93853699330E+01 -0.20351831337E+02  0.22437114477E+02  0.00000000000E+00 0.  1.
         -3    1    3    3    0  502 -0.50595634802E+03  0.27896268702E+03 -0.43651293399E+03  0.72412398689E+03  0.00000000000E+00 0. -1.
         13    1    5    5    0    0  0.17634179731E+03  0.57377186625E+01 -0.18279579256E+03  0.25405442856E+03  0.00000000000E+00 0.  1.
        -13    1    5    5    0    0  0.14083641514E+02  0.24189896003E+02 -0.23913638872E+01  0.28093035581E+02  0.00000000000E+00 0. -1.
          2    1    6    6  503    0  0.10219136487E+03 -0.68650934532E+02  0.27569592084E+03  0.30193420912E+03  0.00000000000E+00 0.  1.
         -2    1    6    6    0  503  0.21440814084E+03 -0.24962473709E+03  0.47282186169E+03  0.57605891463E+03  0.00000000000E+00 0. -1.
<mgrwt>
<rscale>  0 0.19037270E+04</rscale>
<asrwt>0</asrwt>
<pdfrwt beam="1">  1        2 0.13847968E+00 0.19037270E+04</pdfrwt>
<pdfrwt beam="2">  1       -2 0.15485904E+00 0.19037270E+04</pdfrwt>
<totfact> 0.75516185E+00</totfact>
</mgrwt>
</event>
<event>
12    3  0.4192740E-008  0.1864572E+04  0.7818608E-02  0.8672695E-01
          1   -1    0    0  501    0  0.00000000000E+00  0.00000000000E+00  0.16294036634E+04  0.16294036634E+04  0.00000000000E+00 0. -1.
         -1   -1    0    0    0  501 -0.00000000000E+00 -0.00000000000E+00 -0.53342032501E+03  0.53342032501E+03  0.00000000000E+00 0.  1.
         23    2    1    2    0    0 -0.40429988624E+03  0.52186079787E+03  0.72242698851E+03  0.98282510596E+03  0.90814893170E+02 0.  0.
        254    2    1    2    0    0  0.40429988624E+03 -0.52186079787E+03  0.37355634992E+03  0.11799988825E+04  0.90391145902E+03 0.  0.
         23    2    4    4    0    0  0.65958612573E+03 -0.39828520782E+03  0.11415409323E+03  0.78458743474E+03  0.94134593719E+02 0.  0.
         23    2    4    4    0    0 -0.25528623949E+03 -0.12357559004E+03  0.25940225669E+03  0.39541144774E+03  0.92836909155E+02 0.  0.
          2    1    3    3  502    0 -0.17061188795E+03  0.29420504602E+03  0.37287240815E+03  0.50467698399E+03  0.00000000000E+00 0. -1.
         -2    1    3    3    0  502 -0.23368799829E+03  0.22765575185E+03  0.34955458036E+03  0.47814812197E+03  0.00000000000E+00 0.  1.
         13    1    5    5    0    0  0.43719909481E+02 -0.61129816550E+01 -0.62846514482E+01  0.44590311432E+02  0.00000000000E+00 0. -1.
        -13    1    5    5    0    0  0.61586621625E+03 -0.39217222617E+03  0.12043874468E+03  0.73999712331E+03  0.00000000000E+00 0.  1.
          2    1    6    6  503    0 -0.10346609490E+03 -0.30973088357E+02  0.15588501248E+03  0.18964361870E+03  0.00000000000E+00 0. -1.
         -2    1    6    6    0  503 -0.15182014459E+03 -0.92602501685E+02  0.10351724421E+03  0.20576782905E+03  0.00000000000E+00 0.  1.
<mgrwt>
<rscale>  0 0.18645718E+04</rscale>
<asrwt>0</asrwt>
<pdfrwt beam="1">  1        1 0.25067748E+00 0.18645718E+04</pdfrwt>
<pdfrwt beam="2">  1       -1 0.82064666E-01 0.18645718E+04</pdfrwt>
<totfact> 0.73829589E+00</totfact>
</mgrwt>
</event>
<event>
12    3  0.4192740E-008  0.1482491E+04  0.7818608E-02  0.8896180E-01
          1   -1    0    0  501    0  0.00000000000E+00  0.00000000000E+00  0.19526218799E+04  0.19526218799E+04  0.00000000000E+00 0. -1.
         -1   -1    0    0    0  501 -0.00000000000E+00 -0.00000000000E+00 -0.28138837588E+03  0.28138837588E+03  0.00000000000E+00 0.  1.
         23    2    1    2    0    0 -0.81291685478E+01  0.36581904651E+01  0.12226447252E+04  0.12274849458E+04  0.10853433735E+03 0.  0.
        254    2    1    2    0    0  0.81291685478E+01 -0.36581904651E+01  0.44858877875E+03  0.10065253099E+04  0.90098936804E+03 0.  0.
         23    2    4    4    0    0 -0.14113077951E+03  0.19728481762E+03  0.63167872299E+03  0.68316231995E+03  0.94093305430E+02 0.  0.
         23    2    4    4    0    0  0.14925994806E+03 -0.20094300809E+03 -0.18308994424E+03  0.32336298996E+03  0.91570033288E+02 0.  0.
          1    1    3    3  502    0  0.24731474439E+02  0.39878468269E+01  0.11064229142E+04  0.11067064713E+04  0.00000000000E+00 0. -1.
         -1    1    3    3    0  502 -0.32860642987E+02 -0.32965636178E+00  0.11622181107E+03  0.12077847448E+03  0.00000000000E+00 0.  1.
         13    1    5    5    0    0  0.69762635416E+01  0.52833343489E+02  0.12962919838E+03  0.14015619683E+03  0.00000000000E+00 0.  1.
        -13    1    5    5    0    0 -0.14810704305E+03  0.14445147414E+03  0.50204952461E+03  0.54300612312E+03  0.00000000000E+00 0. -1.
          3    1    6    6  503    0  0.75096221180E+02 -0.31633881365E+02 -0.50169337120E+02  0.95692775447E+02  0.00000000000E+00 0. -1.
         -3    1    6    6    0  503  0.74163726877E+02 -0.16930912673E+03 -0.13292060712E+03  0.22767021451E+03  0.00000000000E+00 0.  1.
<mgrwt>
<rscale>  0 0.14824913E+04</rscale>
<asrwt>0</asrwt>
<pdfrwt beam="1">  1        1 0.30040336E+00 0.14824913E+04</pdfrwt>
<pdfrwt beam="2">  1       -1 0.43290521E-01 0.14824913E+04</pdfrwt>
<totfact> 0.16373077E+01</totfact>
</mgrwt>
</event>
<event>
12    3  0.4192740E-008  0.1729185E+04  0.7818608E-02  0.8744892E-01
          1   -1    0    0  501    0  0.00000000000E+00  0.00000000000E+00  0.72619954870E+03  0.72619954870E+03  0.00000000000E+00 0. -1.
         -1   -1    0    0    0  501 -0.00000000000E+00 -0.00000000000E+00 -0.10293593091E+04  0.10293593091E+04  0.00000000000E+00 0.  1.
         23    2    1    2    0    0 -0.46829695758E+03 -0.20486787449E+03 -0.49072072859E+03  0.71463821967E+03  0.92887378399E+02 0.  0.
        254    2    1    2    0    0  0.46829695758E+03  0.20486787449E+03  0.18756096820E+03  0.10409206381E+04  0.88716614656E+03 0.  0.
         23    2    4    4    0    0  0.53452933474E+03 -0.13439905078E+03  0.33731260533E+03  0.65249247080E+03  0.90453945135E+02 0.  0.
         23    2    4    4    0    0 -0.66232377155E+02  0.33926692528E+03 -0.14975163713E+03  0.38842816732E+03  0.94668442341E+02 0.  0.
          1    1    3    3  502    0 -0.11091925558E+03 -0.51362913152E+02 -0.66709239036E+02  0.13925283724E+03  0.00000000000E+00 0. -1.
         -1    1    3    3    0  502 -0.35737770201E+03 -0.15350496134E+03 -0.42401148955E+03  0.57538538244E+03  0.00000000000E+00 0.  1.
         13    1    5    5    0    0  0.51685859586E+03 -0.14262491511E+03  0.31132140285E+03  0.62000458901E+03  0.00000000000E+00 0. -1.
        -13    1    5    5    0    0  0.17670738877E+02  0.82258643319E+01  0.25991202486E+02  0.32487881789E+02  0.00000000000E+00 0.  1.
          4    1    6    6  503    0 -0.32196662110E+02  0.37032099219E+02 -0.45477893560E+02  0.66904710045E+02  0.00000000000E+00 0.  1.
         -4    1    6    6    0  503 -0.34035715045E+02  0.30223482606E+03 -0.10427374357E+03  0.32152345727E+03  0.00000000000E+00 0. -1.
<mgrwt>
<rscale>  0 0.17291851E+04</rscale>
<asrwt>0</asrwt>
<pdfrwt beam="1">  1        1 0.11172301E+00 0.17291851E+04</pdfrwt>
<pdfrwt beam="2">  1       -1 0.15836297E+00 0.17291851E+04</pdfrwt>
<totfact> 0.73517448E+00</totfact>
</mgrwt>
</event>
<event>
12    3  0.4192740E-008  0.1895290E+04  0.7818608E-02  0.8657205E-01
         -1   -1    0    0    0  501 -0.00000000000E+00  0.00000000000E+00  0.50157294120E+03  0.50157294120E+03  0.00000000000E+00 0.  1.
          1   -1    0    0  501    0  0.00000000000E+00 -0.00000000000E+00 -0.17904288214E+04  0.17904288214E+04  0.00000000000E+00 0. -1.
         23    2    1    2    0    0  0.21818606704E+02  0.70437868448E+03 -0.28532822348E+03  0.76862174452E+03  0.11287961858E+03 0.  0.
        254    2    1    2    0    0 -0.21818606704E+02 -0.70437868448E+03 -0.10035276568E+04  0.15233800181E+04  0.90387694902E+03 0.  0.
         23    2    4    4    0    0  0.37566471256E+03 -0.48293391179E+03 -0.81272019423E+03  0.10217329687E+04  0.95262825087E+02 0.  0.
         23    2    4    4    0    0 -0.39748331927E+03 -0.22144477269E+03 -0.19080746252E+03  0.50164704939E+03  0.90617316025E+02 0.  0.
          2    1    3    3  502    0 -0.89740559363E+01  0.21661693742E+03 -0.14251944815E+03  0.25945177655E+03  0.00000000000E+00 0. -1.
         -2    1    3    3    0  502  0.30792662640E+02  0.48776174706E+03 -0.14280877533E+03  0.50916996797E+03  0.00000000000E+00 0.  1.
         13    1    5    5    0    0  0.34306080319E+03 -0.46188009766E+03 -0.72306877796E+03  0.92404133942E+03  0.00000000000E+00 0. -1.
        -13    1    5    5    0    0  0.32603909375E+02 -0.21053814125E+02 -0.89651416276E+02  0.97691629304E+02  0.00000000000E+00 0.  1.
          4    1    6    6  503    0 -0.39619307660E+03 -0.22259200262E+03 -0.19693770453E+03  0.49527831877E+03  0.00000000000E+00 0. -1.
         -4    1    6    6    0  503 -0.12902426615E+01  0.11472299291E+01  0.61302420087E+01  0.63687306208E+01  0.00000000000E+00 0.  1.
<mgrwt>
<rscale>  0 0.18952896E+04</rscale>
<asrwt>0</asrwt>
<pdfrwt beam="1">  1        1 0.27545059E+00 0.18952896E+04</pdfrwt>
<pdfrwt beam="2">  1       -1 0.77165067E-01 0.18952896E+04</pdfrwt>
<totfact> 0.65180518E+00</totfact>
</mgrwt>
</event>
<event>
12    3  0.4192740E-008  0.1742620E+04  0.7818608E-02  0.8737423E-01
         -2   -1    0    0    0  501 -0.00000000000E+00  0.00000000000E+00  0.19292947062E+03  0.19292947062E+03  0.00000000000E+00 0.  1.
          2   -1    0    0  501    0  0.00000000000E+00 -0.00000000000E+00 -0.39350166876E+04  0.39350166876E+04  0.00000000000E+00 0. -1.
         23    2    1    2    0    0  0.11997408221E+03  0.34764529392E+03 -0.14571200352E+03  0.40547232651E+03  0.89021282885E+02 0.  0.
        254    2    1    2    0    0 -0.11997408221E+03 -0.34764529392E+03 -0.35963752134E+04  0.37224738317E+04  0.88749406814E+03 0.  0.
         23    2    4    4    0    0 -0.16924824976E+03 -0.28534011847E+03 -0.41525530706E+03  0.53894127986E+03  0.89200783816E+02 0.  0.
         23    2    4    4    0    0  0.49274167549E+02 -0.62305175448E+02 -0.31811199064E+04  0.31835325518E+04  0.95109260005E+02 0.  0.
          4    1    3    3  502    0  0.81590276868E+02  0.15407153288E+03 -0.10642239055E+03  0.20425654392E+03  0.00000000000E+00 0. -1.
         -4    1    3    3    0  502  0.38383805344E+02  0.19357376104E+03 -0.39289612976E+02  0.20121578259E+03  0.00000000000E+00 0.  1.
         13    1    5    5    0    0 -0.14350645860E+03 -0.20034519467E+03 -0.24830038182E+03  0.34983621925E+03  0.00000000000E+00 0.  1.
        -13    1    5    5    0    0 -0.25741791160E+02 -0.84994923806E+02 -0.16695492524E+03  0.18910506061E+03  0.00000000000E+00 0. -1.
          2    1    6    6  503    0  0.61051027888E+01  0.25412854663E+02 -0.69272025958E+03  0.69321312992E+03  0.00000000000E+00 0. -1.
         -2    1    6    6    0  503  0.43169064760E+02 -0.87718030111E+02 -0.24883996468E+04  0.24903194219E+04  0.00000000000E+00 0.  1.
<mgrwt>
<rscale>  0 0.17426195E+04</rscale>
<asrwt>0</asrwt>
<pdfrwt beam="1">  1        2 0.60538714E+00 0.17426195E+04</pdfrwt>
<pdfrwt beam="2">  1       -2 0.29681459E-01 0.17426195E+04</pdfrwt>
<totfact> 0.38849793E+00</totfact>
</mgrwt>
</event>
<event>
12    3  0.4192740E-008  0.1335012E+04  0.7818608E-02  0.9002252E-01
          2   -1    0    0  501    0  0.00000000000E+00  0.00000000000E+00  0.11136719987E+04  0.11136719987E+04  0.00000000000E+00 0. -1.
         -2   -1    0    0    0  501 -0.00000000000E+00 -0.00000000000E+00 -0.40008568063E+03  0.40008568063E+03  0.00000000000E+00 0.  1.
         23    2    1    2    0    0  0.62739804918E+02 -0.33668590619E+03  0.25676589461E+03  0.43752316448E+03  0.90576554754E+02 0.  0.
        254    2    1    2    0    0 -0.62739804918E+02  0.33668590619E+03  0.45682042349E+03  0.10762345149E+04  0.91230595149E+03 0.  0.
         23    2    4    4    0    0 -0.18400738623E+03  0.86525407422E+02  0.67536247628E+03  0.71128967722E+03  0.92049803012E+02 0.  0.
         23    2    4    4    0    0  0.12126758131E+03  0.25016049877E+03 -0.21854205279E+03  0.36494483765E+03  0.90210887744E+02 0.  0.
          4    1    3    3  502    0 -0.20361948409E+02 -0.32649344794E+02  0.20394561603E+02  0.43549130892E+02  0.00000000000E+00 0. -1.
         -4    1    3    3    0  502  0.83101753327E+02 -0.30403656140E+03  0.23637133301E+03  0.39397403359E+03  0.00000000000E+00 0.  1.
         13    1    5    5    0    0 -0.23119605663E+02  0.30836544221E+02  0.25275705937E+03  0.25567858668E+03  0.00000000000E+00 0.  1.
        -13    1    5    5    0    0 -0.16088778056E+03  0.55688863201E+02  0.42260541691E+03  0.45561109054E+03  0.00000000000E+00 0. -1.
          4    1    6    6  503    0  0.10408312115E+03  0.18632259214E+03 -0.20796930485E+03  0.29799435600E+03  0.00000000000E+00 0. -1.
         -4    1    6    6    0  503  0.17184460161E+02  0.63837906631E+02 -0.10572747944E+02  0.66950481650E+02  0.00000000000E+00 0.  1.
<mgrwt>
<rscale>  0 0.13350119E+04</rscale>
<asrwt>0</asrwt>
<pdfrwt beam="1">  1        2 0.17133415E+00 0.13350119E+04</pdfrwt>
<pdfrwt beam="2">  1       -2 0.61551644E-01 0.13350119E+04</pdfrwt>
<totfact> 0.51260545E+01</totfact>
</mgrwt>
</event>
<event>
12    3  0.4192740E-008  0.1443613E+04  0.7818608E-02  0.8922841E-01
          2   -1    0    0  501    0  0.00000000000E+00  0.00000000000E+00  0.78753620439E+03  0.78753620439E+03  0.00000000000E+00 0.  1.
         -2   -1    0    0    0  501 -0.00000000000E+00 -0.00000000000E+00 -0.66156231304E+03  0.66156231304E+03  0.00000000000E+00 0. -1.
         23    2    1    2    0    0  0.25903972396E+03  0.32481016818E+03  0.17431418982E+03  0.45940053475E+03  0.89778564348E+02 0.  0.
        254    2    1    2    0    0 -0.25903972396E+03 -0.32481016818E+03 -0.48340298469E+02  0.98969798267E+03  0.89697385052E+03 0.  0.
         23    2    4    4    0    0  0.25338020907E+03 -0.22668521026E+03 -0.23940766808E+03  0.42667644658E+03  0.95650633185E+02 0.  0.
         23    2    4    4    0    0 -0.51241993303E+03 -0.98124957917E+02  0.19106736961E+03  0.56302153610E+03  0.91015467096E+02 0.  0.
          1    1    3    3  502    0  0.49066227656E+02  0.69655810025E+02 -0.12557441764E+01  0.85211521874E+02  0.00000000000E+00 0. -1.
         -1    1    3    3    0  502  0.20997349630E+03  0.25515435815E+03  0.17556993400E+03  0.37418901288E+03  0.00000000000E+00 0.  1.
         13    1    5    5    0    0  0.16505634322E+03 -0.87562899192E+02 -0.14704170419E+03  0.23776484290E+03  0.00000000000E+00 0. -1.
        -13    1    5    5    0    0  0.88323865854E+02 -0.13912231107E+03 -0.92365963891E+02  0.18891160367E+03  0.00000000000E+00 0.  1.
          2    1    6    6  503    0 -0.43892403020E+02  0.16522369159E+02  0.11130818686E+02  0.48201938240E+02  0.00000000000E+00 0. -1.
         -2    1    6    6    0  503 -0.46852753001E+03 -0.11464732708E+03  0.17993655092E+03  0.51481959786E+03  0.00000000000E+00 0.  1.
<mgrwt>
<rscale>  0 0.14436125E+04</rscale>
<asrwt>0</asrwt>
<pdfrwt beam="1">  1        2 0.12115942E+00 0.14436125E+04</pdfrwt>
<pdfrwt beam="2">  1       -2 0.10177882E+00 0.14436125E+04</pdfrwt>
<totfact> 0.27034124E+01</totfact>
</mgrwt>
</event>
<event>
12    3  0.4192740E-008  0.1584472E+04  0.7818608E-02  0.8830145E-01
          2   -1    0    0  501    0  0.00000000000E+00  0.00000000000E+00  0.68393213284E+03  0.68393213284E+03  0.00000000000E+00 0. -1.
         -2   -1    0    0    0  501 -0.00000000000E+00 -0.00000000000E+00 -0.91769024014E+03  0.91769024014E+03  0.00000000000E+00 0.  1.
         23    2    1    2    0    0  0.22012709261E+03  0.43849917490E+03  0.10847332561E+03  0.51084599129E+03  0.91976633779E+02 0.  0.
        254    2    1    2    0    0 -0.22012709261E+03 -0.43849917490E+03 -0.34223143292E+03  0.10907763817E+04  0.91210377584E+03 0.  0.
         23    2    4    4    0    0  0.30274133065E+03 -0.37518306725E+03 -0.23936956006E+03  0.54589655541E+03  0.91052818093E+02 0.  0.
         23    2    4    4    0    0 -0.52286842326E+03 -0.63316107647E+02 -0.10286187286E+03  0.54487982629E+03  0.94409441674E+02 0.  0.
          3    1    3    3  502    0  0.28496846641E+02  0.11107316757E+02  0.30079020159E+01  0.30732559746E+02  0.00000000000E+00 0. -1.
         -3    1    3    3    0  502  0.19163024597E+03  0.42739185814E+03  0.10546542360E+03  0.48011343154E+03  0.00000000000E+00 0.  1.
         13    1    5    5    0    0  0.88830955454E+02 -0.95894587934E+02 -0.22533587718E+02  0.13264416013E+03  0.00000000000E+00 0. -1.
        -13    1    5    5    0    0  0.21391037520E+03 -0.27928847932E+03 -0.21683597234E+03  0.41325239527E+03  0.00000000000E+00 0.  1.
          3    1    6    6  503    0  0.12973026201E+01 -0.76985267951E+01  0.11038615229E+00  0.78078482314E+01  0.00000000000E+00 0. -1.
         -3    1    6    6    0  503 -0.52416572588E+03 -0.55617580852E+02 -0.10297225901E+03  0.53707197806E+03  0.00000000000E+00 0.  1.
<mgrwt>
<rscale>  0 0.15844720E+04</rscale>
<asrwt>0</asrwt>
<pdfrwt beam="1">  1        2 0.10522033E+00 0.15844720E+04</pdfrwt>
<pdfrwt beam="2">  1       -2 0.14118311E+00 0.15844720E+04</pdfrwt>
<totfact> 0.14226799E+01</totfact>
</mgrwt>
</event>
<event>
12    3  0.4192740E-008  0.1545394E+04  0.7818608E-02  0.8854815E-01
         -2   -1    0    0    0  501 -0.00000000000E+00  0.00000000000E+00  0.11259984588E+04  0.11259984588E+04  0.00000000000E+00 0.  1.
          2   -1    0    0  501    0  0.00000000000E+00 -0.00000000000E+00 -0.53025020836E+03  0.53025020836E+03  0.00000000000E+00 0. -1.
         23    2    1    2    0    0  0.42824993978E+03  0.18977936103E+03  0.95883380254E+02  0.48660645442E+03  0.90432306619E+02 0.  0.
        254    2    1    2    0    0 -0.42824993978E+03 -0.18977936103E+03  0.49986487014E+03  0.11696422127E+04  0.94804208795E+03 0.  0.
         23    2    4    4    0    0 -0.49423231090E+03  0.26999035430E+03  0.18238393390E+03  0.59907690855E+03  0.92026487818E+02 0.  0.
         23    2    4    4    0    0  0.65982371122E+02 -0.45976971534E+03  0.31748093623E+03  0.57056530414E+03  0.94914471899E+02 0.  0.
          2    1    3    3  502    0  0.35999998476E+03  0.15333036330E+03  0.44703894787E+02  0.39383832666E+03  0.00000000000E+00 0. -1.
         -2    1    3    3    0  502  0.68249955024E+02  0.36448997730E+02  0.51179485467E+02  0.92768127765E+02  0.00000000000E+00 0.  1.
         13    1    5    5    0    0 -0.35353053820E+03  0.23645253598E+03  0.14871807258E+03  0.45056709636E+03  0.00000000000E+00 0. -1.
        -13    1    5    5    0    0 -0.14070177270E+03  0.33537818326E+02  0.33665861327E+02  0.14850981219E+03  0.00000000000E+00 0.  1.
          4    1    6    6  503    0  0.12573542843E+02 -0.27355029704E+03  0.13875024267E+03  0.30698450911E+03  0.00000000000E+00 0. -1.
         -4    1    6    6    0  503  0.53408828279E+02 -0.18621941830E+03  0.17873069356E+03  0.26358079503E+03  0.00000000000E+00 0.  1.
<mgrwt>
<rscale>  0 0.15453943E+04</rscale>
<asrwt>0</asrwt>
<pdfrwt beam="1">  1        2 0.81576955E-01 0.15453943E+04</pdfrwt>
<pdfrwt beam="2">  1       -2 0.17323053E+00 0.15453943E+04</pdfrwt>
<totfact> 0.11180665E+01</totfact>
</mgrwt>
</event>
<event>
12    3  0.4192740E-008  0.1975967E+04  0.7818608E-02  0.8617940E-01
         -2   -1    0    0    0  501 -0.00000000000E+00  0.00000000000E+00  0.65500003481E+03  0.65500003481E+03  0.00000000000E+00 0. -1.
          2   -1    0    0  501    0  0.00000000000E+00 -0.00000000000E+00 -0.14902468641E+04  0.14902468641E+04  0.00000000000E+00 0.  1.
         23    2    1    2    0    0  0.34517386739E+02  0.97625897172E+02  0.51067764504E+03  0.52907631192E+03  0.91694170516E+02 0.  0.
        254    2    1    2    0    0 -0.34517386739E+02 -0.97625897172E+02 -0.13459244743E+04  0.16161705870E+04  0.88869140305E+03 0.  0.
         23    2    4    4    0    0  0.15035860924E+03 -0.31137322712E+02  0.63234387819E+02  0.18974389314E+03  0.91798218628E+02 0.  0.
         23    2    4    4    0    0 -0.18487599598E+03 -0.66488574460E+02 -0.14091588621E+04  0.14264266938E+04  0.10180643260E+03 0.  0.
          4    1    3    3  502    0 -0.75661292696E+00  0.96698154728E+02  0.29267871295E+03  0.30824006002E+03  0.00000000000E+00 0. -1.
         -4    1    3    3    0  502  0.35273999666E+02  0.92774244336E+00  0.21799893210E+03  0.22083625190E+03  0.00000000000E+00 0.  1.
         13    1    5    5    0    0  0.89339450924E+02  0.20151616359E+02  0.63248212977E+01  0.91802115977E+02  0.00000000000E+00 0. -1.
        -13    1    5    5    0    0  0.61019158318E+02 -0.51288939071E+02  0.56909566521E+02  0.97941777166E+02  0.00000000000E+00 0.  1.
          4    1    6    6  503    0 -0.92281997492E+00 -0.13592962342E+02 -0.20348400725E+02  0.24488316275E+02  0.00000000000E+00 0. -1.
         -4    1    6    6    0  503 -0.18395317601E+03 -0.52895612118E+02 -0.13888104614E+04  0.14019383776E+04  0.00000000000E+00 0.  1.
<mgrwt>
<rscale>  0 0.19759674E+04</rscale>
<asrwt>0</asrwt>
<pdfrwt beam="1">  1        2 0.22926874E+00 0.19759674E+04</pdfrwt>
<pdfrwt beam="2">  1       -2 0.10076924E+00 0.19759674E+04</pdfrwt>
<totfact> 0.97076593E+00</totfact>
</mgrwt>
</event>
<event>
12    3  0.4192740E-008  0.3050896E+04  0.7818608E-02  0.8229345E-01
          2   -1    0    0  501    0  0.00000000000E+00  0.00000000000E+00  0.23252640591E+04  0.23252640591E+04  0.00000000000E+00 0. -1.
         -2   -1    0    0    0  501 -0.00000000000E+00 -0.00000000000E+00 -0.10007430455E+04  0.10007430455E+04  0.00000000000E+00 0.  1.
         23    2    1    2    0    0 -0.12770482955E+04 -0.24269113727E+03  0.71790275945E+02  0.13050118736E+04  0.90281832991E+02 0.  0.
        254    2    1    2    0    0  0.12770482955E+04  0.24269113727E+03  0.12527307377E+04  0.20209952309E+04  0.90848009612E+03 0.  0.
         23    2    4    4    0    0 -0.96594012652E+02  0.53745075379E+02  0.30972826227E+03  0.34158610962E+03  0.92360908537E+02 0.  0.
         23    2    4    4    0    0  0.13736423082E+04  0.18894606189E+03  0.94300247543E+03  0.16794091213E+04  0.92560914894E+02 0.  0.
          3    1    3    3  502    0 -0.27672217506E+03 -0.74108634693E+02  0.46804637041E+02  0.29027215842E+03  0.00000000000E+00 0. -1.
         -3    1    3    3    0  502 -0.10003261205E+04 -0.16858250258E+03  0.24985638904E+02  0.10147397152E+04  0.00000000000E+00 0.  1.
         13    1    5    5    0    0 -0.62586864778E+02 -0.16440406333E+02  0.11752279408E+03  0.13416038809E+03  0.00000000000E+00 0. -1.
        -13    1    5    5    0    0 -0.34007147873E+02  0.70185481712E+02  0.19220546819E+03  0.20742572153E+03  0.00000000000E+00 0.  1.
          3    1    6    6  503    0  0.65997389115E+03  0.12960259730E+03  0.48779483235E+03  0.83084665774E+03  0.00000000000E+00 0. -1.
         -3    1    6    6    0  503  0.71366841703E+03  0.59343464596E+02  0.45520764308E+03  0.84856246357E+03  0.00000000000E+00 0.  1.
<mgrwt>
<rscale>  0 0.30508962E+04</rscale>
<asrwt>0</asrwt>
<pdfrwt beam="1">  1        2 0.35773293E+00 0.30508962E+04</pdfrwt>
<pdfrwt beam="2">  1       -2 0.15396047E+00 0.30508962E+04</pdfrwt>
<totfact> 0.10450164E+00</totfact>
</mgrwt>
</event>
<event>
12    3  0.4192740E-008  0.1166870E+04  0.7818608E-02  0.9142360E-01
         -2   -1    0    0    0  501 -0.00000000000E+00  0.00000000000E+00  0.85480241000E+03  0.85480241000E+03  0.00000000000E+00 0. -1.
          2   -1    0    0  501    0  0.00000000000E+00 -0.00000000000E+00 -0.39821642173E+03  0.39821642173E+03  0.00000000000E+00 0.  1.
         23    2    1    2    0    0  0.16902894138E+03 -0.27039339479E+01 -0.57639715229E+02  0.20128880505E+03  0.92826461657E+02 0.  0.
        254    2    1    2    0    0 -0.16902894138E+03  0.27039339479E+01  0.51422570349E+03  0.10517300267E+04  0.90173714607E+03 0.  0.
         23    2    4    4    0    0 -0.32953425682E+03  0.37125749873E+03  0.26391320772E+03  0.56979149720E+03  0.92667212577E+02 0.  0.
         23    2    4    4    0    0  0.16050531544E+03 -0.36855356479E+03  0.25031249577E+03  0.48193852948E+03  0.89524936502E+02 0.  0.
          3    1    3    3  502    0  0.97126462873E+02  0.17652174889E+02  0.11621688144E+02  0.99399259071E+02  0.00000000000E+00 0. -1.
         -3    1    3    3    0  502  0.71902478505E+02 -0.20356108836E+02 -0.69261403374E+02  0.10188954598E+03  0.00000000000E+00 0.  1.
         13    1    5    5    0    0 -0.16591424326E+03  0.13393350252E+03  0.79374253762E+02  0.22752140860E+03  0.00000000000E+00 0.  1.
        -13    1    5    5    0    0 -0.16362001356E+03  0.23732399622E+03  0.18453895396E+03  0.34227008860E+03  0.00000000000E+00 0. -1.
          4    1    6    6  503    0  0.15588807491E+03 -0.29358996550E+03  0.22971123440E+03  0.40405867266E+03  0.00000000000E+00 0. -1.
         -4    1    6    6    0  503  0.46172405342E+01 -0.74963599290E+02  0.20601261368E+02  0.77879856822E+02  0.00000000000E+00 0.  1.
<mgrwt>
<rscale>  0 0.11668699E+04</rscale>
<asrwt>0</asrwt>
<pdfrwt beam="1">  1        2 0.61264065E-01 0.11668699E+04</pdfrwt>
<pdfrwt beam="2">  1       -2 0.13150806E+00 0.11668699E+04</pdfrwt>
<totfact> 0.33309096E+01</totfact>
</mgrwt>
</event>
<event>
12    3  0.4192740E-008  0.1612235E+04  0.7818608E-02  0.8813067E-01
          1   -1    0    0  501    0  0.00000000000E+00  0.00000000000E+00  0.37488124567E+04  0.37488124567E+04  0.00000000000E+00 0. -1.
         -1   -1    0    0    0  501 -0.00000000000E+00 -0.00000000000E+00 -0.17334167070E+03  0.17334167070E+03  0.00000000000E+00 0.  1.
         23    2    1    2    0    0  0.36681888592E+03 -0.21802596686E+03  0.39448814754E+03  0.58818599656E+03  0.90831991606E+02 0.  0.
        254    2    1    2    0    0 -0.36681888592E+03  0.21802596686E+03  0.31809826385E+04  0.33339681309E+04  0.90255278739E+03 0.  0.
         23    2    4    4    0    0 -0.22615310417E+03 -0.32116506166E+03  0.17458654316E+04  0.17917913223E+04  0.90431266389E+02 0.  0.
         23    2    4    4    0    0 -0.14066578174E+03  0.53919102852E+03  0.14351172069E+04  0.15421768086E+04  0.90741854197E+02 0.  0.
          4    1    3    3  502    0  0.18688221285E+02  0.24463658418E+01  0.17388712315E+01  0.18927704398E+02  0.00000000000E+00 0. -1.
         -4    1    3    3    0  502  0.34813066463E+03 -0.22047233271E+03  0.39274927631E+03  0.56925829216E+03  0.00000000000E+00 0.  1.
         13    1    5    5    0    0 -0.64192723038E+02 -0.73813145963E+02  0.28538116893E+03  0.30168111937E+03  0.00000000000E+00 0.  1.
        -13    1    5    5    0    0 -0.16196038114E+03 -0.24735191570E+03  0.14604842627E+04  0.14901102029E+04  0.00000000000E+00 0. -1.
          2    1    6    6  503    0 -0.11512773420E+03  0.50047611081E+03  0.13618846044E+04  0.14554931839E+04  0.00000000000E+00 0. -1.
         -2    1    6    6    0  503 -0.25538047540E+02  0.38714917714E+02  0.73232602517E+02  0.86683624735E+02  0.00000000000E+00 0.  1.
<mgrwt>
<rscale>  0 0.16122350E+04</rscale>
<asrwt>0</asrwt>
<pdfrwt beam="1">  1        1 0.57674032E+00 0.16122350E+04</pdfrwt>
<pdfrwt beam="2">  1       -1 0.26667952E-01 0.16122350E+04</pdfrwt>
<totfact> 0.19125209E+00</totfact>
</mgrwt>
</event>
<event>
12    3  0.4192740E-008  0.1128141E+04  0.7818608E-02  0.9178189E-01
          1   -1    0    0  501    0  0.00000000000E+00  0.00000000000E+00  0.15254530212E+04  0.15254530212E+04  0.00000000000E+00 0. -1.
         -1   -1    0    0    0  501 -0.00000000000E+00 -0.00000000000E+00 -0.20857790982E+03  0.20857790982E+03  0.00000000000E+00 0.  1.
         23    2    1    2    0    0  0.80797843258E+02 -0.16819458153E+03  0.35046457534E+03  0.40737576250E+03  0.91169537541E+02 0.  0.
        254    2    1    2    0    0 -0.80797843258E+02  0.16819458153E+03  0.96641053607E+03  0.13266551685E+04  0.88952060306E+03 0.  0.
         23    2    4    4    0    0 -0.94547310726E+02  0.48450202803E+03  0.82993686306E+03  0.97003267928E+03  0.92123792109E+02 0.  0.
         23    2    4    4    0    0  0.13749467468E+02 -0.31630744650E+03  0.13647367301E+03  0.35662248926E+03  0.91187103539E+02 0.  0.
          2    1    3    3  502    0  0.92927429556E+00 -0.94796515396E+02  0.20557185410E+03  0.22637806890E+03  0.00000000000E+00 0. -1.
         -2    1    3    3    0  502  0.79868568962E+02 -0.73398066132E+02  0.14489272124E+03  0.18099769360E+03  0.00000000000E+00 0.  1.
         13    1    5    5    0    0  0.12816977811E+02  0.39897330746E+02  0.10269867060E+03  0.11091928986E+03  0.00000000000E+00 0. -1.
        -13    1    5    5    0    0 -0.10736428854E+03  0.44460469729E+03  0.72723819246E+03  0.85911338942E+03  0.00000000000E+00 0.  1.
          3    1    6    6  503    0 -0.10421001591E+02 -0.12270599743E+03  0.88106284567E+01  0.12346248925E+03  0.00000000000E+00 0. -1.
         -3    1    6    6    0  503  0.24170469060E+02 -0.19360144908E+03  0.12766304455E+03  0.23316000001E+03  0.00000000000E+00 0.  1.
<mgrwt>
<rscale>  0 0.11281415E+04</rscale>
<asrwt>0</asrwt>
<pdfrwt beam="1">  1        1 0.23468507E+00 0.11281415E+04</pdfrwt>
<pdfrwt beam="2">  1       -1 0.32088910E-01 0.11281415E+04</pdfrwt>
<totfact> 0.56595580E+01</totfact>
</mgrwt>
</event>
<event>
12    3  0.4192740E-008  0.1140374E+04  0.7818608E-02  0.9166710E-01
         -2   -1    0    0    0  501 -0.00000000000E+00  0.00000000000E+00  0.20669120467E+03  0.20669120467E+03  0.00000000000E+00 0.  1.
          2   -1    0    0  501    0  0.00000000000E+00 -0.00000000000E+00 -0.15729416243E+04  0.15729416243E+04  0.00000000000E+00 0. -1.
         23    2    1    2    0    0  0.18962135284E+03  0.69161140658E+02 -0.31123507092E+03  0.38192887980E+03  0.90900379666E+02 0.  0.
        254    2    1    2    0    0 -0.18962135284E+03 -0.69161140658E+02 -0.10550153488E+04  0.13977039492E+04  0.89430387605E+03 0.  0.
         23    2    4    4    0    0  0.28358615996E+03 -0.25819502492E+03 -0.53411067279E+03  0.66343146930E+03  0.88211805679E+02 0.  0.
         23    2    4    4    0    0 -0.47320751280E+03  0.18903388426E+03 -0.52090467597E+03  0.73427247992E+03  0.90306332834E+02 0.  0.
          1    1    3    3  502    0  0.15827220831E+03  0.84751575804E+02 -0.28970973417E+03  0.34082935847E+03  0.00000000000E+00 0. -1.
         -1    1    3    3    0  502  0.31349144535E+02 -0.15590435146E+02 -0.21525336749E+02  0.41099521326E+02  0.00000000000E+00 0.  1.
         13    1    5    5    0    0  0.12406058238E+03 -0.86988170588E+02 -0.27729708806E+03  0.31599310905E+03  0.00000000000E+00 0. -1.
        -13    1    5    5    0    0  0.15952557758E+03 -0.17120685433E+03 -0.25681358473E+03  0.34743836025E+03  0.00000000000E+00 0.  1.
          1    1    6    6  503    0 -0.51640192330E+02 -0.39258551878E+01 -0.73972408496E+02  0.90299717726E+02  0.00000000000E+00 0. -1.
         -1    1    6    6    0  503 -0.42156732047E+03  0.19295973945E+03 -0.44693226748E+03  0.64397276219E+03  0.00000000000E+00 0.  1.
<mgrwt>
<rscale>  0 0.11403740E+04</rscale>
<asrwt>0</asrwt>
<pdfrwt beam="1">  1        2 0.24199102E+00 0.11403740E+04</pdfrwt>
<pdfrwt beam="2">  1       -2 0.31798646E-01 0.11403740E+04</pdfrwt>
<totfact> 0.10509265E+02</totfact>
</mgrwt>
</event>
<event>
12    3  0.4192740E-008  0.2364496E+04  0.7818608E-02  0.8452917E-01
          2   -1    0    0  501    0  0.00000000000E+00  0.00000000000E+00  0.21368896172E+04  0.21368896172E+04  0.00000000000E+00 0. -1.
         -2   -1    0    0    0  501 -0.00000000000E+00 -0.00000000000E+00 -0.65408638628E+03  0.65408638628E+03  0.00000000000E+00 0.  1.
         23    2    1    2    0    0 -0.76834698568E+03 -0.54087662131E+03  0.20935063510E+03  0.96692186058E+03  0.90584690604E+02 0.  0.
        254    2    1    2    0    0  0.76834698568E+03  0.54087662131E+03  0.12734525958E+04  0.18240541429E+04  0.90696603712E+03 0.  0.
         23    2    4    4    0    0  0.44291895822E+03  0.65801150849E+03  0.12258859589E+04  0.14629596053E+04  0.91093763304E+02 0.  0.
         23    2    4    4    0    0  0.32542802747E+03 -0.11713488718E+03  0.47566636953E+02  0.36109453760E+03  0.92210071431E+02 0.  0.
          2    1    3    3  502    0 -0.49982458177E+03 -0.36724036213E+03  0.95805434507E+02  0.62758965687E+03  0.00000000000E+00 0. -1.
         -2    1    3    3    0  502 -0.26852240391E+03 -0.17363625917E+03  0.11354520059E+03  0.33933220372E+03  0.00000000000E+00 0.  1.
         13    1    5    5    0    0  0.28504316189E+03  0.49676876300E+03  0.87684032505E+03  0.10473193227E+04  0.00000000000E+00 0.  1.
        -13    1    5    5    0    0  0.15787579633E+03  0.16124274549E+03  0.34904563380E+03  0.41564028259E+03  0.00000000000E+00 0. -1.
          4    1    6    6  503    0  0.79963661419E+02 -0.37577265614E+02 -0.27201150292E+02  0.92445338529E+02  0.00000000000E+00 0. -1.
         -4    1    6    6    0  503  0.24546436605E+03 -0.79557621568E+02  0.74767787245E+02  0.26864919907E+03  0.00000000000E+00 0.  1.
<mgrwt>
<rscale>  0 0.23644961E+04</rscale>
<asrwt>0</asrwt>
<pdfrwt beam="1">  1        2 0.32875225E+00 0.23644961E+04</pdfrwt>
<pdfrwt beam="2">  1       -2 0.10062868E+00 0.23644961E+04</pdfrwt>
<totfact> 0.41116909E+00</totfact>
</mgrwt>
</event>
<event>
12    3  0.4192740E-008  0.2132267E+04  0.7818608E-02  0.8547161E-01
         -1   -1    0    0    0  501 -0.00000000000E+00  0.00000000000E+00  0.54458479302E+03  0.54458479302E+03  0.00000000000E+00 0.  1.
          1   -1    0    0  501    0  0.00000000000E+00 -0.00000000000E+00 -0.20871690165E+04  0.20871690165E+04  0.00000000000E+00 0. -1.
         23    2    1    2    0    0  0.24548923255E+03 -0.77989668372E+03 -0.28436008151E+03  0.87036778051E+03  0.90419117557E+02 0.  0.
        254    2    1    2    0    0 -0.24548923255E+03  0.77989668372E+03 -0.12582241420E+04  0.17613860290E+04  0.92241473921E+03 0.  0.
         23    2    4    4    0    0  0.10606402123E+02  0.49651279480E+03 -0.69861754063E+02  0.50988209434E+03  0.91987141906E+02 0.  0.
         23    2    4    4    0    0 -0.25609563467E+03  0.28338388892E+03 -0.11883623879E+04  0.12515039346E+04  0.90363327098E+02 0.  0.
          1    1    3    3  502    0  0.49699288551E+02 -0.29819236363E+03 -0.11638348183E+03  0.32393490064E+03  0.00000000000E+00 0. -1.
         -1    1    3    3    0  502  0.19578994399E+03 -0.48170432010E+03 -0.16797659968E+03  0.54643287987E+03  0.00000000000E+00 0.  1.
         13    1    5    5    0    0  0.27271816365E+02  0.21351762872E+03 -0.70155840794E+02  0.22639649233E+03  0.00000000000E+00 0. -1.
        -13    1    5    5    0    0 -0.16665414242E+02  0.28299516608E+03  0.29408673105E+00  0.28348560201E+03  0.00000000000E+00 0.  1.
          4    1    6    6  503    0 -0.28610148715E+02  0.48411188575E+02 -0.29141984575E+03  0.29679573832E+03  0.00000000000E+00 0. -1.
         -4    1    6    6    0  503 -0.22748548595E+03  0.23497270035E+03 -0.89694254214E+03  0.95470819633E+03  0.00000000000E+00 0.  1.
<mgrwt>
<rscale>  0 0.21322669E+04</rscale>
<asrwt>0</asrwt>
<pdfrwt beam="1">  1        1 0.32110293E+00 0.21322669E+04</pdfrwt>
<pdfrwt beam="2">  1       -1 0.83782275E-01 0.21322669E+04</pdfrwt>
<totfact> 0.33680538E+00</totfact>
</mgrwt>
</event>
<event>
12    3  0.4192740E-008  0.2447127E+04  0.7818608E-02  0.8422068E-01
         -2   -1    0    0    0  501 -0.00000000000E+00  0.00000000000E+00  0.96178253523E+03  0.96178253523E+03  0.00000000000E+00 0.  1.
          2   -1    0    0  501    0  0.00000000000E+00 -0.00000000000E+00 -0.15565962897E+04  0.15565962897E+04  0.00000000000E+00 0. -1.
         23    2    1    2    0    0 -0.16963105673E+02 -0.85249504947E+03 -0.89364543521E+03  0.12390786455E+04  0.98377688196E+02 0.  0.
        254    2    1    2    0    0  0.16963105673E+02  0.85249504947E+03  0.29883168076E+03  0.12793001794E+04  0.90568925095E+03 0.  0.
         23    2    4    4    0    0  0.44657979451E+03  0.41015924054E+03  0.21924698572E+03  0.65116943241E+03  0.91039955480E+02 0.  0.
         23    2    4    4    0    0 -0.42961668883E+03  0.44233580893E+03  0.79584695040E+02  0.62813074700E+03  0.89347884483E+02 0.  0.
          1    1    3    3  502    0 -0.20103904016E+02 -0.61944905368E+03 -0.58446087644E+03  0.85188955455E+03  0.00000000000E+00 0. -1.
         -1    1    3    3    0  502  0.31407983436E+01 -0.23304599578E+03 -0.30918455877E+03  0.38718909095E+03  0.00000000000E+00 0.  1.
         13    1    5    5    0    0  0.39383172519E+03  0.34681315359E+03  0.21926951658E+03  0.56873712044E+03  0.00000000000E+00 0.  1.
        -13    1    5    5    0    0  0.52748069316E+02  0.63346086950E+02 -0.22530855125E-01  0.82432311966E+02  0.00000000000E+00 0. -1.
          4    1    6    6  503    0 -0.11864618266E+03  0.10809825533E+03 -0.17301215570E+02  0.16143568852E+03  0.00000000000E+00 0. -1.
         -4    1    6    6    0  503 -0.31097050617E+03  0.33423755359E+03  0.96885910610E+02  0.46669505849E+03  0.00000000000E+00 0.  1.
<mgrwt>
<rscale>  0 0.24471266E+04</rscale>
<asrwt>0</asrwt>
<pdfrwt beam="1">  1        2 0.23947635E+00 0.24471266E+04</pdfrwt>
<pdfrwt beam="2">  1       -2 0.14796655E+00 0.24471266E+04</pdfrwt>
<totfact> 0.32826968E+00</totfact>
</mgrwt>
</event>
<event>
12    3  0.4192740E-008  0.1194316E+04  0.7818608E-02  0.9117846E-01
         -2   -1    0    0    0  501 -0.00000000000E+00  0.00000000000E+00  0.18403070533E+03  0.18403070533E+03  0.00000000000E+00 0.  1.
          2   -1    0    0  501    0  0.00000000000E+00 -0.00000000000E+00 -0.19377071937E+04  0.19377071937E+04  0.00000000000E+00 0. -1.
         23    2    1    2    0    0  0.11587973622E+03  0.32005485543E+03 -0.72333987527E+03  0.80502998815E+03  0.94812883704E+02 0.  0.
        254    2    1    2    0    0 -0.11587973622E+03 -0.32005485543E+03 -0.10303366131E+04  0.13167079108E+04  0.74583038453E+03 0.  0.
         23    2    4    4    0    0 -0.39189668105E+03 -0.22321634437E+02 -0.53053586986E+03  0.66652711359E+03  0.93321058471E+02 0.  0.
         23    2    4    4    0    0  0.27601694483E+03 -0.29773322099E+03 -0.49980074319E+03  0.65018079724E+03  0.90021450176E+02 0.  0.
          1    1    3    3  502    0  0.76093602872E+02  0.17134073938E+03 -0.29162265942E+03  0.34668668976E+03  0.00000000000E+00 0. -1.
         -1    1    3    3    0  502  0.39786133349E+02  0.14871411605E+03 -0.43171721585E+03  0.45834329839E+03  0.00000000000E+00 0.  1.
         13    1    5    5    0    0 -0.20072558492E+03  0.11370627899E+01 -0.19624928194E+03  0.28072376817E+03  0.00000000000E+00 0.  1.
        -13    1    5    5    0    0 -0.19117109613E+03 -0.23458697227E+02 -0.33428658792E+03  0.38580334542E+03  0.00000000000E+00 0. -1.
          1    1    6    6  503    0  0.20120863553E+02 -0.12274338109E+02 -0.47451674422E+01  0.24042153401E+02  0.00000000000E+00 0. -1.
         -1    1    6    6    0  503  0.25589608127E+03 -0.28545888289E+03 -0.49505557575E+03  0.62613864384E+03  0.00000000000E+00 0.  1.
<mgrwt>
<rscale>  0 0.11943159E+04</rscale>
<asrwt>0</asrwt>
<pdfrwt beam="1">  1        2 0.29810882E+00 0.11943159E+04</pdfrwt>
<pdfrwt beam="2">  1       -2 0.28312414E-01 0.11943159E+04</pdfrwt>
<totfact> 0.81651006E+01</totfact>
</mgrwt>
</event>
<event>
12    3  0.4192740E-008  0.1352352E+04  0.7818608E-02  0.8989050E-01
         -1   -1    0    0    0  501 -0.00000000000E+00  0.00000000000E+00  0.90847620708E+03  0.90847620708E+03  0.00000000000E+00 0.  1.
          1   -1    0    0  501    0  0.00000000000E+00 -0.00000000000E+00 -0.50327548301E+03  0.50327548301E+03  0.00000000000E+00 0. -1.
         23    2    1    2    0    0  0.12247332938E+03 -0.22847543425E+03  0.39759177016E+03  0.48320379717E+03  0.90586717756E+02 0.  0.
        254    2    1    2    0    0 -0.12247332938E+03  0.22847543425E+03  0.76089539076E+01  0.92854789292E+03  0.89159550964E+03 0.  0.
         23    2    4    4    0    0 -0.46615766115E+03 -0.18662763721E+02 -0.91713735917E+02  0.48507021684E+03  0.96075189890E+02 0.  0.
         23    2    4    4    0    0  0.34368433176E+03  0.24713819797E+03  0.99322689825E+02  0.44347767608E+03  0.87242441933E+02 0.  0.
          3    1    3    3  502    0 -0.87624244549E+01 -0.12574739811E+02  0.46018358681E+01  0.16002532831E+02  0.00000000000E+00 0. -1.
         -3    1    3    3    0  502  0.13123575384E+03 -0.21590069444E+03  0.39298993429E+03  0.46720126434E+03  0.00000000000E+00 0.  1.
         13    1    5    5    0    0 -0.15787713326E+02 -0.25318848807E+01 -0.24746958618E+02  0.29463100549E+02  0.00000000000E+00 0. -1.
        -13    1    5    5    0    0 -0.45036994782E+03 -0.16130878841E+02 -0.66966777300E+02  0.45560711629E+03  0.00000000000E+00 0.  1.
          4    1    6    6  503    0  0.10090166237E+03  0.11495051772E+03  0.59811102160E+02  0.16423195467E+03  0.00000000000E+00 0. -1.
         -4    1    6    6    0  503  0.24278266940E+03  0.13218768025E+03  0.39511587665E+02  0.27924572142E+03  0.00000000000E+00 0.  1.
<mgrwt>
<rscale>  0 0.13523517E+04</rscale>
<asrwt>0</asrwt>
<pdfrwt beam="1">  1        1 0.77426997E-01 0.13523517E+04</pdfrwt>
<pdfrwt beam="2">  1       -1 0.13976557E+00 0.13523517E+04</pdfrwt>
<totfact> 0.18100295E+01</totfact>
</mgrwt>
</event>
<event>
12    3  0.4192740E-008  0.1892583E+04  0.7818608E-02  0.8658557E-01
          2   -1    0    0  501    0  0.00000000000E+00  0.00000000000E+00  0.12314135380E+04  0.12314135380E+04  0.00000000000E+00 0. -1.
         -2   -1    0    0    0  501 -0.00000000000E+00 -0.00000000000E+00 -0.72718643215E+03  0.72718643215E+03  0.00000000000E+00 0.  1.
         23    2    1    2    0    0  0.61411588131E+03 -0.36087585700E+03  0.18921766950E+03  0.74264790313E+03  0.91394101230E+02 0.  0.
        254    2    1    2    0    0 -0.61411588131E+03  0.36087585700E+03  0.31500943637E+03  0.12159520671E+04  0.93377662453E+03 0.  0.
         23    2    4    4    0    0  0.11597197497E+03  0.13558148408E+03  0.39450435096E+03  0.44221775293E+03  0.89950098777E+02 0.  0.
         23    2    4    4    0    0 -0.73008785628E+03  0.22529437292E+03 -0.79494914590E+02  0.77373431412E+03  0.92517647243E+02 0.  0.
          3    1    3    3  502    0  0.10060403248E+03 -0.87104688564E+02  0.86868252043E+01  0.13335613617E+03  0.00000000000E+00 0. -1.
         -3    1    3    3    0  502  0.51351184883E+03 -0.27377116843E+03  0.18053084430E+03  0.60929176697E+03  0.00000000000E+00 0.  1.
         13    1    5    5    0    0  0.63033275181E+02  0.34512786134E+02  0.79391276020E+02  0.10708548405E+03  0.00000000000E+00 0. -1.
        -13    1    5    5    0    0  0.52938699792E+02  0.10106869795E+03  0.31511307494E+03  0.33513226887E+03  0.00000000000E+00 0.  1.
          4    1    6    6  503    0 -0.20188907838E+03  0.10024677457E+03 -0.44883423303E+02  0.22983284681E+03  0.00000000000E+00 0. -1.
         -4    1    6    6    0  503 -0.52819877790E+03  0.12504759834E+03 -0.34611491286E+02  0.54390146732E+03  0.00000000000E+00 0.  1.
<mgrwt>
<rscale>  0 0.18925826E+04</rscale>
<asrwt>0</asrwt>
<pdfrwt beam="1">  1        2 0.18944824E+00 0.18925826E+04</pdfrwt>
<pdfrwt beam="2">  1       -2 0.11187484E+00 0.18925826E+04</pdfrwt>
<totfact> 0.10722797E+01</totfact>
</mgrwt>
</event>
<event>
12    3  0.4192740E-008  0.1745906E+04  0.7818608E-02  0.8735607E-01
          2   -1    0    0  501    0  0.00000000000E+00  0.00000000000E+00  0.10848133887E+04  0.10848133887E+04  0.00000000000E+00 0.  1.
         -2   -1    0    0    0  501 -0.00000000000E+00 -0.00000000000E+00 -0.70246861008E+03  0.70246861008E+03  0.00000000000E+00 0. -1.
         23    2    1    2    0    0  0.35156679207E+03  0.34085911136E+03  0.52709260479E+03  0.72552904861E+03  0.93710422391E+02 0.  0.
        254    2    1    2    0    0 -0.35156679207E+03 -0.34085911136E+03 -0.14474782622E+03  0.10617529501E+04  0.93090453368E+03 0.  0.
         23    2    4    4    0    0 -0.34524361740E+03  0.23215483013E+03 -0.21523784181E+03  0.47732751575E+03  0.91788933043E+02 0.  0.
         23    2    4    4    0    0 -0.63231746705E+01 -0.57301394149E+03  0.70490015597E+02  0.58442543438E+03  0.90549910972E+02 0.  0.
          1    1    3    3  502    0  0.12744701281E+02  0.14795200471E+02  0.58523472604E+02  0.61695398640E+02  0.00000000000E+00 0. -1.
         -1    1    3    3    0  502  0.33882209079E+03  0.32606391089E+03  0.46856913219E+03  0.66383364997E+03  0.00000000000E+00 0.  1.
         13    1    5    5    0    0 -0.30168506952E+03  0.23053547483E+03 -0.17526188850E+03  0.41818323244E+03  0.00000000000E+00 0.  1.
        -13    1    5    5    0    0 -0.43558547880E+02  0.16193552953E+01 -0.39975953310E+02  0.59144283308E+02  0.00000000000E+00 0. -1.
          2    1    6    6  503    0  0.31935087835E+02 -0.14244985843E+03 -0.27101101981E+01  0.14601081021E+03  0.00000000000E+00 0. -1.
         -2    1    6    6    0  503 -0.38258262506E+02 -0.43056408306E+03  0.73200125796E+02  0.43841462417E+03  0.00000000000E+00 0.  1.
<mgrwt>
<rscale>  0 0.17459065E+04</rscale>
<asrwt>0</asrwt>
<pdfrwt beam="1">  1        2 0.16689437E+00 0.17459065E+04</pdfrwt>
<pdfrwt beam="2">  1       -2 0.10807209E+00 0.17459065E+04</pdfrwt>
<totfact> 0.14477346E+01</totfact>
</mgrwt>
</event>
<event>
12    3  0.4192740E-008  0.4413484E+04  0.7818608E-02  0.7925961E-01
          2   -1    0    0  501    0  0.00000000000E+00  0.00000000000E+00  0.26842102979E+04  0.26842102979E+04  0.00000000000E+00 0. -1.
         -2   -1    0    0    0  501 -0.00000000000E+00 -0.00000000000E+00 -0.18142062030E+04  0.18142062030E+04  0.00000000000E+00 0.  1.
         23    2    1    2    0    0  0.15846812222E+03 -0.19467329236E+04  0.12319093938E+04  0.23109563076E+04  0.89649760998E+02 0.  0.
        254    2    1    2    0    0 -0.15846812222E+03  0.19467329236E+04 -0.36190529888E+03  0.21874601932E+04  0.91603789761E+03 0.  0.
         23    2    4    4    0    0 -0.25489711327E+03  0.86426404645E+03 -0.57985091276E+03  0.10752893457E+04  0.89973416558E+02 0.  0.
         23    2    4    4    0    0  0.96428991046E+02  0.10824688772E+04  0.21794561388E+03  0.11121708475E+04  0.91576650908E+02 0.  0.
          3    1    3    3  502    0  0.10788000134E+03 -0.13993551900E+04  0.93177870978E+03  0.16846496985E+04  0.00000000000E+00 0. -1.
         -3    1    3    3    0  502  0.50588120877E+02 -0.54737773360E+03  0.30013068397E+03  0.62630660916E+03  0.00000000000E+00 0.  1.
         13    1    5    5    0    0 -0.20395974038E+03  0.65068067189E+03 -0.39345410399E+03  0.78726808929E+03  0.00000000000E+00 0. -1.
        -13    1    5    5    0    0 -0.50937372882E+02  0.21358337455E+03 -0.18639680877E+03  0.28802125644E+03  0.00000000000E+00 0.  1.
          2    1    6    6  503    0  0.10624623498E+03  0.82460187114E+03  0.18777740858E+03  0.85235958580E+03  0.00000000000E+00 0. -1.
         -2    1    6    6    0  503 -0.98172439354E+01  0.25786700606E+03  0.30168205307E+02  0.25981126170E+03  0.00000000000E+00 0.  1.
<mgrwt>
<rscale>  0 0.44134843E+04</rscale>
<asrwt>0</asrwt>
<pdfrwt beam="1">  1        2 0.41295543E+00 0.44134843E+04</pdfrwt>
<pdfrwt beam="2">  1       -2 0.27910865E+00 0.44134843E+04</pdfrwt>
<totfact> 0.88285102E-02</totfact>
</mgrwt>
</event>
<event>
12    3  0.4192740E-008  0.1255626E+04  0.7818608E-02  0.9065514E-01
         -2   -1    0    0    0  501 -0.00000000000E+00  0.00000000000E+00  0.66307247485E+03  0.66307247485E+03  0.00000000000E+00 0. -1.
          2   -1    0    0  501    0  0.00000000000E+00 -0.00000000000E+00 -0.59442869223E+03  0.59442869223E+03  0.00000000000E+00 0.  1.
         23    2    1    2    0    0 -0.70243206623E+02 -0.11270116560E+03 -0.24089586365E+03  0.29006300224E+03  0.92032968766E+02 0.  0.
        254    2    1    2    0    0  0.70243206623E+02  0.11270116560E+03  0.30953964627E+03  0.96743816484E+03  0.90691022123E+03 0.  0.
         23    2    4    4    0    0  0.49274781894E+02 -0.25532335244E+03 -0.19367575256E+03  0.33720025406E+03  0.92605052635E+02 0.  0.
         23    2    4    4    0    0  0.20968424729E+02  0.36802451804E+03  0.50321539883E+03  0.63023791079E+03  0.89957578068E+02 0.  0.
          3    1    3    3  502    0 -0.31413637576E+00 -0.72494811312E+02 -0.68544325966E+02  0.99769338832E+02  0.00000000000E+00 0. -1.
         -3    1    3    3    0  502 -0.69929070247E+02 -0.40206354288E+02 -0.17235153768E+03  0.19029366341E+03  0.00000000000E+00 0.  1.
         13    1    5    5    0    0  0.69025866361E+02 -0.12547950385E+03 -0.11841635890E+03  0.18582817378E+03  0.00000000000E+00 0. -1.
        -13    1    5    5    0    0 -0.19751084467E+02 -0.12984384859E+03 -0.75259393657E+02  0.15137208028E+03  0.00000000000E+00 0.  1.
          3    1    6    6  503    0 -0.84835806947E+01  0.52302562659E+02  0.13074295582E+03  0.14107178917E+03  0.00000000000E+00 0. -1.
         -3    1    6    6    0  503  0.29452005424E+02  0.31572195538E+03  0.37247244301E+03  0.48916612162E+03  0.00000000000E+00 0.  1.
<mgrwt>
<rscale>  0 0.12556262E+04</rscale>
<asrwt>0</asrwt>
<pdfrwt beam="1">  1        2 0.91450568E-01 0.12556262E+04</pdfrwt>
<pdfrwt beam="2">  1       -2 0.10201115E+00 0.12556262E+04</pdfrwt>
<totfact> 0.38853935E+01</totfact>
</mgrwt>
</event>
<event>
12    3  0.4192740E-008  0.1077421E+04  0.7818608E-02  0.9227483E-01
          1   -1    0    0  501    0  0.00000000000E+00  0.00000000000E+00  0.46171358469E+03  0.46171358469E+03  0.00000000000E+00 0. -1.
         -1   -1    0    0    0  501 -0.00000000000E+00 -0.00000000000E+00 -0.62854725064E+03  0.62854725064E+03  0.00000000000E+00 0.  1.
         23    2    1    2    0    0  0.74374812273E+02  0.11543779455E+03 -0.26735618693E+01  0.16452730725E+03  0.90579190703E+02 0.  0.
        254    2    1    2    0    0 -0.74374812273E+02 -0.11543779455E+03 -0.16416010408E+03  0.92573352808E+03  0.90065338956E+03 0.  0.
         23    2    4    4    0    0 -0.16780912201E+03 -0.20834054230E+03 -0.48831038275E+03  0.56453688941E+03  0.93215806638E+02 0.  0.
         23    2    4    4    0    0  0.93434309737E+02  0.92902747752E+02  0.32415027866E+03  0.36119663867E+03  0.89603112962E+02 0.  0.
          4    1    3    3  502    0 -0.16583962181E+02  0.37695108207E+02 -0.15896442278E+02  0.44143469069E+02  0.00000000000E+00 0.  1.
         -4    1    3    3    0  502  0.90958774455E+02  0.77742686338E+02  0.13222880408E+02  0.12038383818E+03  0.00000000000E+00 0. -1.
         13    1    5    5    0    0 -0.13351920074E+03 -0.19692607017E+03 -0.46255697098E+03  0.52015978842E+03  0.00000000000E+00 0.  1.
        -13    1    5    5    0    0 -0.34289921274E+02 -0.11414472127E+02 -0.25753411762E+02  0.44377100990E+02  0.00000000000E+00 0. -1.
          2    1    6    6  503    0 -0.39676542761E+01  0.52325596773E+02  0.86466458277E+02  0.10114424732E+03  0.00000000000E+00 0. -1.
         -2    1    6    6    0  503  0.97401964013E+02  0.40577150979E+02  0.23768382039E+03  0.26005239135E+03  0.00000000000E+00 0.  1.
<mgrwt>
<rscale>  0 0.10774206E+04</rscale>
<asrwt>0</asrwt>
<pdfrwt beam="1">  1        1 0.71032860E-01 0.10774206E+04</pdfrwt>
<pdfrwt beam="2">  1       -1 0.96699576E-01 0.10774206E+04</pdfrwt>
<totfact> 0.50792702E+01</totfact>
</mgrwt>
</event>
<event>
12    3  0.4192740E-008  0.1735268E+04  0.7818608E-02  0.8741502E-01
         -2   -1    0    0    0  501 -0.00000000000E+00  0.00000000000E+00  0.46590586058E+03  0.46590586058E+03  0.00000000000E+00 0.  1.
          2   -1    0    0  501    0  0.00000000000E+00 -0.00000000000E+00 -0.16157521588E+04  0.16157521588E+04  0.00000000000E+00 0. -1.
         23    2    1    2    0    0 -0.16243325046E+03 -0.11809221576E+03 -0.11400293708E+04  0.11613660058E+04  0.93668035425E+02 0.  0.
        254    2    1    2    0    0  0.16243325046E+03  0.11809221576E+03 -0.98169273974E+01  0.92029201355E+03  0.89805939996E+03 0.  0.
         23    2    4    4    0    0 -0.99760716587E+02  0.18954827120E+03  0.37474666751E+03  0.44057234406E+03  0.88250653563E+02 0.  0.
         23    2    4    4    0    0  0.26219396704E+03 -0.71456055442E+02 -0.38456359491E+03  0.47971966949E+03  0.91597808661E+02 0.  0.
          3    1    3    3  502    0 -0.13842901926E+03 -0.10687353679E+03 -0.10968550389E+04  0.11107094681E+04  0.00000000000E+00 0. -1.
         -3    1    3    3    0  502 -0.24004231198E+02 -0.11218678970E+02 -0.43174331897E+02  0.50656537664E+02  0.00000000000E+00 0.  1.
         13    1    5    5    0    0  0.15030460606E+02  0.42664967906E+02  0.71388218793E+02  0.84513265319E+02  0.00000000000E+00 0.  1.
        -13    1    5    5    0    0 -0.11479117719E+03  0.14688330330E+03  0.30335844872E+03  0.35605907874E+03  0.00000000000E+00 0. -1.
          1    1    6    6  503    0  0.19150787786E+03 -0.67398421892E+02 -0.34017733865E+03  0.39615456110E+03  0.00000000000E+00 0. -1.
         -1    1    6    6    0  503  0.70686089183E+02 -0.40576335498E+01 -0.44386256261E+02  0.83565108382E+02  0.00000000000E+00 0.  1.
<mgrwt>
<rscale>  0 0.17352676E+04</rscale>
<asrwt>0</asrwt>
<pdfrwt beam="1">  1        2 0.24857726E+00 0.17352676E+04</pdfrwt>
<pdfrwt beam="2">  1       -2 0.71677823E-01 0.17352676E+04</pdfrwt>
<totfact> 0.18299375E+01</totfact>
</mgrwt>
</event>
<event>
12    3  0.4192740E-008  0.2140715E+04  0.7818608E-02  0.8543517E-01
          2   -1    0    0  501    0  0.00000000000E+00  0.00000000000E+00  0.27884085315E+04  0.27884085315E+04  0.00000000000E+00 0.  1.
         -2   -1    0    0    0  501 -0.00000000000E+00 -0.00000000000E+00 -0.41086700779E+03  0.41086700779E+03  0.00000000000E+00 0. -1.
         23    2    1    2    0    0  0.85287426589E+03  0.10269285168E+03  0.12564274291E+04  0.15248745441E+04  0.93231729566E+02 0.  0.
        254    2    1    2    0    0 -0.85287426589E+03 -0.10269285168E+03  0.11211140946E+04  0.16744009952E+04  0.89932282549E+03 0.  0.
         23    2    4    4    0    0 -0.31735823820E+02  0.17425905358E+03 -0.58761160015E+02  0.20770457668E+03  0.91186276266E+02 0.  0.
         23    2    4    4    0    0 -0.82113844207E+03 -0.27695190526E+03  0.11798752546E+04  0.14666964185E+04  0.90122521078E+02 0.  0.
          4    1    3    3  502    0  0.56604415664E+03  0.69793978109E+02  0.90948706398E+03  0.10735194019E+04  0.00000000000E+00 0.  1.
         -4    1    3    3    0  502  0.28683010925E+03  0.32898873572E+02  0.34694036516E+03  0.45135514225E+03  0.00000000000E+00 0. -1.
         13    1    5    5    0    0 -0.36060971983E+02  0.43167698073E+02 -0.51625190903E+02  0.76347915447E+02  0.00000000000E+00 0.  1.
        -13    1    5    5    0    0  0.43251481629E+01  0.13109135551E+03 -0.71359691123E+01  0.13135666123E+03  0.00000000000E+00 0. -1.
          3    1    6    6  503    0 -0.15769619210E+02  0.69176510012E+01  0.20264136252E+02  0.26592668227E+02  0.00000000000E+00 0. -1.
         -3    1    6    6    0  503 -0.80536882286E+03 -0.28386955626E+03  0.11596111184E+04  0.14401037503E+04  0.00000000000E+00 0.  1.
<mgrwt>
<rscale>  0 0.21407149E+04</rscale>
<asrwt>0</asrwt>
<pdfrwt beam="1">  1        2 0.42898592E+00 0.21407149E+04</pdfrwt>
<pdfrwt beam="2">  1       -2 0.63210311E-01 0.21407149E+04</pdfrwt>
<totfact> 0.50076219E+00</totfact>
</mgrwt>
</event>
<event>
12    3  0.4192740E-008  0.1281481E+04  0.7818608E-02  0.9044381E-01
          2   -1    0    0  501    0  0.00000000000E+00  0.00000000000E+00  0.82422285493E+03  0.82422285493E+03  0.00000000000E+00 0. -1.
         -2   -1    0    0    0  501 -0.00000000000E+00 -0.00000000000E+00 -0.49810367303E+03  0.49810367303E+03  0.00000000000E+00 0.  1.
         23    2    1    2    0    0  0.13625653617E+03  0.24746432428E+03 -0.54547964162E+02  0.30175350182E+03  0.90968456233E+02 0.  0.
        254    2    1    2    0    0 -0.13625653617E+03 -0.24746432428E+03  0.38066714607E+03  0.10205730261E+04  0.90380163208E+03 0.  0.
         23    2    4    4    0    0 -0.20480218868E+03  0.13155896209E+03  0.53602296861E+03  0.59539822040E+03  0.89032134588E+02 0.  0.
         23    2    4    4    0    0  0.68545652505E+02 -0.37902328636E+03 -0.15535582254E+03  0.42517480574E+03  0.91000141490E+02 0.  0.
          1    1    3    3  502    0  0.14439820468E+02  0.19570322191E+02  0.21421013481E+02  0.32409346558E+02  0.00000000000E+00 0. -1.
         -1    1    3    3    0  502  0.12181671571E+03  0.22789400209E+03 -0.75968977643E+02  0.26934415527E+03  0.00000000000E+00 0.  1.
         13    1    5    5    0    0 -0.15142319544E+03  0.46191116883E+02  0.31633971248E+03  0.35374202053E+03  0.00000000000E+00 0.  1.
        -13    1    5    5    0    0 -0.53378993238E+02  0.85367845203E+02  0.21968325613E+03  0.24165619988E+03  0.00000000000E+00 0. -1.
          1    1    6    6  503    0  0.40955412366E+02 -0.21058883666E+03 -0.37571583994E+02  0.21779951297E+03  0.00000000000E+00 0. -1.
         -1    1    6    6    0  503  0.27590240139E+02 -0.16843444971E+03 -0.11778423855E+03  0.20737529277E+03  0.00000000000E+00 0.  1.
<mgrwt>
<rscale>  0 0.12814811E+04</rscale>
<asrwt>0</asrwt>
<pdfrwt beam="1">  1        2 0.12680352E+00 0.12814811E+04</pdfrwt>
<pdfrwt beam="2">  1       -2 0.76631334E-01 0.12814811E+04</pdfrwt>
<totfact> 0.49460462E+01</totfact>
</mgrwt>
</event>
<event>
12    3  0.4192740E-008  0.2968458E+04  0.7818608E-02  0.8252796E-01
          2   -1    0    0  501    0  0.00000000000E+00  0.00000000000E+00  0.15450168619E+04  0.15450168619E+04  0.00000000000E+00 0. -1.
         -2   -1    0    0    0  501 -0.00000000000E+00 -0.00000000000E+00 -0.14258323650E+04  0.14258323650E+04  0.00000000000E+00 0.  1.
         23    2    1    2    0    0 -0.27830164963E+03 -0.61884938903E+03 -0.11090418167E+04  0.13033391275E+04  0.91064567472E+02 0.  0.
        254    2    1    2    0    0  0.27830164963E+03  0.61884938903E+03  0.12282263137E+04  0.16675100995E+04  0.90090159264E+03 0.  0.
         23    2    4    4    0    0 -0.11108892262E+03 -0.16732829400E+03  0.11996866213E+03  0.25110825056E+03  0.91232488229E+02 0.  0.
         23    2    4    4    0    0  0.38939057225E+03  0.78617768303E+03  0.11082576516E+04  0.14164018489E+04  0.90877985273E+02 0.  0.
          1    1    3    3  502    0 -0.53244886576E+02 -0.11556245781E+03 -0.14607388873E+03  0.19371959263E+03  0.00000000000E+00 0. -1.
         -1    1    3    3    0  502 -0.22505676306E+03 -0.50328693122E+03 -0.96296792800E+03  0.11096195348E+04  0.00000000000E+00 0.  1.
         13    1    5    5    0    0 -0.17644911623E+02 -0.10905051989E+03  0.59889925105E+02  0.12565891104E+03  0.00000000000E+00 0.  1.
        -13    1    5    5    0    0 -0.93444010992E+02 -0.58277774113E+02  0.60078737020E+02  0.12544933953E+03  0.00000000000E+00 0. -1.
          1    1    6    6  503    0  0.37937135637E+03  0.70843492640E+03  0.10073403697E+04  0.12886183653E+04  0.00000000000E+00 0. -1.
         -1    1    6    6    0  503  0.10019215881E+02  0.77742756627E+02  0.10091728189E+03  0.12778348360E+03  0.00000000000E+00 0.  1.
<mgrwt>
<rscale>  0 0.29684575E+04</rscale>
<asrwt>0</asrwt>
<pdfrwt beam="1">  1        2 0.23769490E+00 0.29684575E+04</pdfrwt>
<pdfrwt beam="2">  1       -2 0.21935882E+00 0.29684575E+04</pdfrwt>
<totfact> 0.10252414E+00</totfact>
</mgrwt>
</event>
<event>
12    3  0.4192740E-008  0.1879634E+04  0.7818608E-02  0.8665061E-01
         -1   -1    0    0    0  501 -0.00000000000E+00  0.00000000000E+00  0.65305432721E+03  0.65305432721E+03  0.00000000000E+00 0.  1.
          1   -1    0    0  501    0  0.00000000000E+00 -0.00000000000E+00 -0.13524999291E+04  0.13524999291E+04  0.00000000000E+00 0. -1.
         23    2    1    2    0    0 -0.36058992139E+03  0.93934654653E+02  0.39117867435E+03  0.54791853626E+03  0.91351827380E+02 0.  0.
        254    2    1    2    0    0  0.36058992139E+03 -0.93934654653E+02 -0.10906242763E+04  0.14576357201E+04  0.89240784943E+03 0.  0.
         23    2    4    4    0    0 -0.26913677961E+03 -0.11949017778E+01 -0.16367476629E+03  0.32946260842E+03  0.96540909971E+02 0.  0.
         23    2    4    4    0    0  0.62972670100E+03 -0.92739752875E+02 -0.92694950998E+03  0.11281731117E+04  0.91557610811E+02 0.  0.
          3    1    3    3  502    0 -0.13670923419E+03  0.50985572317E+02  0.94758991167E+02  0.17397761265E+03  0.00000000000E+00 0. -1.
         -3    1    3    3    0  502 -0.22388068719E+03  0.42949082336E+02  0.29641968318E+03  0.37394092361E+03  0.00000000000E+00 0.  1.
         13    1    5    5    0    0 -0.17068406606E+03  0.30751440138E+02 -0.61478836358E+02  0.18400638249E+03  0.00000000000E+00 0. -1.
        -13    1    5    5    0    0 -0.98452713551E+02 -0.31946341916E+02 -0.10219592993E+03  0.14545622593E+03  0.00000000000E+00 0.  1.
          3    1    6    6  503    0  0.45999454440E+03 -0.10837341432E+03 -0.68611942728E+03  0.83312642876E+03  0.00000000000E+00 0. -1.
         -3    1    6    6    0  503  0.16973215660E+03  0.15633661447E+02 -0.24083008270E+03  0.29504668290E+03  0.00000000000E+00 0.  1.
<mgrwt>
<rscale>  0 0.18796339E+04</rscale>
<asrwt>0</asrwt>
<pdfrwt beam="1">  1        1 0.20807691E+00 0.18796339E+04</pdfrwt>
<pdfrwt beam="2">  1       -1 0.10046990E+00 0.18796339E+04</pdfrwt>
<totfact> 0.73348112E+00</totfact>
</mgrwt>
</event>
<event>
12    3  0.4192740E-008  0.2352619E+04  0.7818608E-02  0.8457458E-01
          1   -1    0    0  501    0  0.00000000000E+00  0.00000000000E+00  0.48981193640E+03  0.48981193640E+03  0.00000000000E+00 0. -1.
         -1   -1    0    0    0  501 -0.00000000000E+00 -0.00000000000E+00 -0.28249707427E+04  0.28249707427E+04  0.00000000000E+00 0.  1.
         23    2    1    2    0    0 -0.63073348689E+03 -0.62991673021E+03 -0.16506351931E+04  0.18781912408E+04  0.91574986482E+02 0.  0.
        254    2    1    2    0    0  0.63073348689E+03  0.62991673021E+03 -0.68452361322E+03  0.14365914382E+04  0.89476397157E+03 0.  0.
         23    2    4    4    0    0 -0.43921174009E+02  0.41726754834E+03  0.25780737795E+02  0.43007087732E+03  0.90857232262E+02 0.  0.
         23    2    4    4    0    0  0.67465466090E+03  0.21264918187E+03 -0.71030435101E+03  0.10065205609E+04  0.90403442468E+02 0.  0.
          4    1    3    3  502    0 -0.43763662568E+03 -0.45327786332E+03 -0.12470544885E+04  0.13971870078E+04  0.00000000000E+00 0.  1.
         -4    1    3    3    0  502 -0.19309686122E+03 -0.17663886688E+03 -0.40358070456E+03  0.48100423304E+03  0.00000000000E+00 0. -1.
         13    1    5    5    0    0 -0.52466993499E+02  0.11494098295E+03  0.17076578567E+02  0.12749833138E+03  0.00000000000E+00 0. -1.
        -13    1    5    5    0    0  0.85458194900E+01  0.30232656539E+03  0.87041592283E+01  0.30257254594E+03  0.00000000000E+00 0.  1.
          4    1    6    6  503    0  0.16395688593E+03  0.93113515101E+02 -0.19429102883E+03  0.27074155762E+03  0.00000000000E+00 0. -1.
         -4    1    6    6    0  503  0.51069777497E+03  0.11953566677E+03 -0.51601332218E+03  0.73577900327E+03  0.00000000000E+00 0.  1.
<mgrwt>
<rscale>  0 0.23526193E+04</rscale>
<asrwt>0</asrwt>
<pdfrwt beam="1">  1        1 0.75355680E-01 0.23526193E+04</pdfrwt>
<pdfrwt beam="2">  1       -1 0.43461090E+00 0.23526193E+04</pdfrwt>
<totfact> 0.16956173E-01</totfact>
</mgrwt>
</event>
<event>
12    3  0.4192740E-008  0.2155162E+04  0.7818608E-02  0.8537326E-01
         -2   -1    0    0    0  501 -0.00000000000E+00  0.00000000000E+00  0.53756360490E+03  0.53756360490E+03  0.00000000000E+00 0.  1.
          2   -1    0    0  501    0  0.00000000000E+00 -0.00000000000E+00 -0.21600808741E+04  0.21600808741E+04  0.00000000000E+00 0. -1.
         23    2    1    2    0    0 -0.42429745658E+03 -0.75679918945E+03 -0.87252344392E+03  0.12334841535E+04  0.86096758492E+02 0.  0.
        254    2    1    2    0    0  0.42429745658E+03  0.75679918945E+03 -0.74999382532E+03  0.14641603256E+04  0.91022050966E+03 0.  0.
         23    2    4    4    0    0 -0.39947500646E+02  0.51496799702E+03 -0.77094813488E+03  0.93245584390E+03  0.91241620835E+02 0.  0.
         23    2    4    4    0    0  0.46424495722E+03  0.24183119243E+03  0.20954309567E+02  0.53170448170E+03  0.90911312970E+02 0.  0.
          1    1    3    3  502    0 -0.30584202999E+03 -0.47914357385E+03 -0.60477770038E+03  0.82998432428E+03  0.00000000000E+00 0. -1.
         -1    1    3    3    0  502 -0.11845542659E+03 -0.27765561560E+03 -0.26774574354E+03  0.40349982918E+03  0.00000000000E+00 0.  1.
         13    1    5    5    0    0 -0.56168011949E+02  0.48245601627E+03 -0.69090388659E+03  0.84455126174E+03  0.00000000000E+00 0.  1.
        -13    1    5    5    0    0  0.16220511302E+02  0.32511980752E+02 -0.80044248295E+02  0.87904582159E+02  0.00000000000E+00 0. -1.
          3    1    6    6  503    0  0.15755545948E+02  0.17545292687E+02  0.18956030458E+02  0.30255670780E+02  0.00000000000E+00 0. -1.
         -3    1    6    6    0  503  0.44848941128E+03  0.22428589974E+03  0.19982791097E+01  0.50144881092E+03  0.00000000000E+00 0.  1.
<mgrwt>
<rscale>  0 0.21551620E+04</rscale>
<asrwt>0</asrwt>
<pdfrwt beam="1">  1        2 0.33232013E+00 0.21551620E+04</pdfrwt>
<pdfrwt beam="2">  1       -2 0.82702095E-01 0.21551620E+04</pdfrwt>
<totfact> 0.63963995E+00</totfact>
</mgrwt>
</event>
<event>
12    3  0.4192740E-008  0.2925992E+04  0.7818608E-02  0.8265186E-01
          1   -1    0    0  501    0  0.00000000000E+00  0.00000000000E+00  0.21144631141E+04  0.21144631141E+04  0.00000000000E+00 0. -1.
         -1   -1    0    0    0  501 -0.00000000000E+00 -0.00000000000E+00 -0.10122465098E+04  0.10122465098E+04  0.00000000000E+00 0.  1.
         23    2    1    2    0    0  0.14477901908E+03 -0.68615711295E+03 -0.69831839758E+03  0.99538084866E+03  0.10659222054E+03 0.  0.
        254    2    1    2    0    0 -0.14477901908E+03  0.68615711295E+03  0.18005350019E+04  0.21313287752E+04  0.89936839330E+03 0.  0.
         23    2    4    4    0    0  0.81419228637E+02  0.69893894886E+03  0.67524259072E+03  0.97980568681E+03  0.94455717432E+02 0.  0.
         23    2    4    4    0    0 -0.22619824772E+03 -0.12781835910E+02  0.11252924112E+04  0.11515230884E+04  0.91615445314E+02 0.  0.
          2    1    3    3  502    0  0.94965033725E+02 -0.23615433081E+03 -0.28803736876E+03  0.38438620083E+03  0.00000000000E+00 0. -1.
         -2    1    3    3    0  502  0.49813985356E+02 -0.45000278214E+03 -0.41028102882E+03  0.61099464783E+03  0.00000000000E+00 0.  1.
         13    1    5    5    0    0  0.86198137510E+01  0.20194406473E+03  0.25139874945E+03  0.32257873100E+03  0.00000000000E+00 0. -1.
        -13    1    5    5    0    0  0.72799414886E+02  0.49699488413E+03  0.42384384128E+03  0.65722695581E+03  0.00000000000E+00 0.  1.
          3    1    6    6  503    0 -0.12018476275E+03 -0.42788957233E+02  0.46875917294E+03  0.48580905125E+03  0.00000000000E+00 0. -1.
         -3    1    6    6    0  503 -0.10601348496E+03  0.30007121323E+02  0.65653323825E+03  0.66571403715E+03  0.00000000000E+00 0.  1.
<mgrwt>
<rscale>  0 0.29259924E+04</rscale>
<asrwt>0</asrwt>
<pdfrwt beam="1">  1        1 0.32530202E+00 0.29259924E+04</pdfrwt>
<pdfrwt beam="2">  1       -1 0.15573023E+00 0.29259924E+04</pdfrwt>
<totfact> 0.67210440E-01</totfact>
</mgrwt>
</event>
<event>
12    3  0.4192740E-008  0.1497972E+04  0.7818608E-02  0.8885802E-01
          1   -1    0    0  501    0  0.00000000000E+00  0.00000000000E+00  0.77233983328E+03  0.77233983328E+03  0.00000000000E+00 0. -1.
         -1   -1    0    0    0  501 -0.00000000000E+00 -0.00000000000E+00 -0.72633862929E+03  0.72633862929E+03  0.00000000000E+00 0.  1.
         23    2    1    2    0    0 -0.48115461159E+03 -0.44480071003E+02  0.10570102963E+03  0.50294210365E+03  0.91048421143E+02 0.  0.
        254    2    1    2    0    0  0.48115461159E+03  0.44480071003E+02 -0.59699825640E+02  0.99573635892E+03  0.86858424481E+03 0.  0.
         23    2    4    4    0    0  0.24067783790E+03 -0.37868056626E+03  0.11079042773E+03  0.47209075793E+03  0.96282770675E+02 0.  0.
         23    2    4    4    0    0  0.24047677369E+03  0.42316063727E+03 -0.17049025337E+03  0.52364560099E+03  0.90795293508E+02 0.  0.
          1    1    3    3  502    0 -0.25901916394E+03 -0.62929297308E+02  0.33559671147E+02  0.26865828719E+03  0.00000000000E+00 0. -1.
         -1    1    3    3    0  502 -0.22213544764E+03  0.18449226305E+02  0.72141358479E+02  0.23428381646E+03  0.00000000000E+00 0.  1.
         13    1    5    5    0    0  0.24782099027E+03 -0.35408342420E+03  0.11193305632E+03  0.44645192754E+03  0.00000000000E+00 0.  1.
        -13    1    5    5    0    0 -0.71431523749E+01 -0.24597142066E+02 -0.11426285867E+01  0.25638830390E+02  0.00000000000E+00 0. -1.
          3    1    6    6  503    0  0.13544023780E+03  0.28009588595E+03 -0.14869198071E+03  0.34482904238E+03  0.00000000000E+00 0.  1.
         -3    1    6    6    0  503  0.10503653589E+03  0.14306475132E+03 -0.21798272659E+02  0.17881655861E+03  0.00000000000E+00 0. -1.
<mgrwt>
<rscale>  0 0.14979723E+04</rscale>
<asrwt>0</asrwt>
<pdfrwt beam="1">  1        1 0.11882151E+00 0.14979723E+04</pdfrwt>
<pdfrwt beam="2">  1       -1 0.11174440E+00 0.14979723E+04</pdfrwt>
<totfact> 0.16641397E+01</totfact>
</mgrwt>
</event>
<event>
12    3  0.4192740E-008  0.1098175E+04  0.7818608E-02  0.9206973E-01
          2   -1    0    0  501    0  0.00000000000E+00  0.00000000000E+00  0.90828084817E+03  0.90828084817E+03  0.00000000000E+00 0. -1.
         -2   -1    0    0    0  501 -0.00000000000E+00 -0.00000000000E+00 -0.33194253287E+03  0.33194253287E+03  0.00000000000E+00 0.  1.
         23    2    1    2    0    0  0.80967385786E+02  0.24169334693E+02 -0.54759670383E+02  0.13634870145E+03  0.91937329671E+02 0.  0.
        254    2    1    2    0    0 -0.80967385786E+02 -0.24169334693E+02  0.63109798567E+03  0.11038746796E+04  0.90172876543E+03 0.  0.
         23    2    4    4    0    0  0.17484585665E+03 -0.30890030752E+03  0.76457902543E+01  0.36642560554E+03  0.90657557419E+02 0.  0.
         23    2    4    4    0    0 -0.25581324243E+03  0.28473097283E+03  0.62345219542E+03  0.73744907404E+03  0.92878172592E+02 0.  0.
          3    1    3    3  502    0  0.29676469142E+02 -0.13223238787E+02  0.20097709725E+02  0.38202942308E+02  0.00000000000E+00 0. -1.
         -3    1    3    3    0  502  0.51290916644E+02  0.37392573480E+02 -0.74857380108E+02  0.98145759146E+02  0.00000000000E+00 0.  1.
         13    1    5    5    0    0  0.10822014716E+03 -0.26397181531E+03 -0.33779705534E+01  0.28531409046E+03  0.00000000000E+00 0.  1.
        -13    1    5    5    0    0  0.66625709488E+02 -0.44928492208E+02  0.11023760808E+02  0.81111515084E+02  0.00000000000E+00 0. -1.
          1    1    6    6  503    0 -0.97262436321E+01  0.56149190540E+02  0.72842816867E+02  0.92484633224E+02  0.00000000000E+00 0. -1.
         -1    1    6    6    0  503 -0.24608699880E+03  0.22858178229E+03  0.55060937855E+03  0.64496444082E+03  0.00000000000E+00 0.  1.
<mgrwt>
<rscale>  0 0.10981749E+04</rscale>
<asrwt>0</asrwt>
<pdfrwt beam="1">  1        2 0.13973551E+00 0.10981749E+04</pdfrwt>
<pdfrwt beam="2">  1       -2 0.51068082E-01 0.10981749E+04</pdfrwt>
<totfact> 0.10415476E+02</totfact>
</mgrwt>
</event>
<event>
12    3  0.4192740E-008  0.2815577E+04  0.7818608E-02  0.8298449E-01
         -2   -1    0    0    0  501 -0.00000000000E+00  0.00000000000E+00  0.95306143254E+03  0.95306143254E+03  0.00000000000E+00 0.  1.
          2   -1    0    0  501    0  0.00000000000E+00 -0.00000000000E+00 -0.20794758174E+04  0.20794758174E+04  0.00000000000E+00 0. -1.
         23    2    1    2    0    0 -0.16219130412E+02 -0.23474190966E+03 -0.18417826854E+04  0.18600259503E+04  0.11030073132E+03 0.  0.
        254    2    1    2    0    0  0.16219130412E+02  0.23474190966E+03  0.71536830055E+03  0.11725112996E+04  0.89870135079E+03 0.  0.
         23    2    4    4    0    0  0.21692505185E+02  0.26723247022E+03  0.91205474446E+03  0.95499767614E+03  0.91065617103E+02 0.  0.
         23    2    4    4    0    0 -0.54733747726E+01 -0.32490560557E+02 -0.19668644391E+03  0.21751362345E+03  0.86839074226E+02 0.  0.
          2    1    3    3  502    0  0.44818551514E+02 -0.14077484489E+03 -0.10706217601E+04  0.10807669558E+04  0.00000000000E+00 0. -1.
         -2    1    3    3    0  502 -0.61037681926E+02 -0.93967064772E+02 -0.77116092531E+03  0.77925899456E+03  0.00000000000E+00 0.  1.
         13    1    5    5    0    0  0.55137874238E+02  0.18090591659E+03  0.56528269980E+03  0.59608025175E+03  0.00000000000E+00 0.  1.
        -13    1    5    5    0    0 -0.33445369053E+02  0.86326553629E+02  0.34677204467E+03  0.35891742440E+03  0.00000000000E+00 0. -1.
          3    1    6    6  503    0 -0.11756810648E+02 -0.25540151759E+02 -0.88966173610E+01  0.29490197507E+02  0.00000000000E+00 0. -1.
         -3    1    6    6    0  503  0.62834358758E+01 -0.69504087981E+01 -0.18778982655E+03  0.18802342595E+03  0.00000000000E+00 0.  1.
<mgrwt>
<rscale>  0 0.28155768E+04</rscale>
<asrwt>0</asrwt>
<pdfrwt beam="1">  1        2 0.31991935E+00 0.28155768E+04</pdfrwt>
<pdfrwt beam="2">  1       -2 0.14662484E+00 0.28155768E+04</pdfrwt>
<totfact> 0.16684327E+00</totfact>
</mgrwt>
</event>
<event>
12    3  0.4192740E-008  0.1102632E+04  0.7818608E-02  0.9202630E-01
          2   -1    0    0  501    0  0.00000000000E+00  0.00000000000E+00  0.33925317898E+03  0.33925317898E+03  0.00000000000E+00 0. -1.
         -2   -1    0    0    0  501 -0.00000000000E+00 -0.00000000000E+00 -0.89593716667E+03  0.89593716667E+03  0.00000000000E+00 0.  1.
         23    2    1    2    0    0 -0.14314483507E+03 -0.83120216017E+02 -0.34985377444E+02  0.19177281762E+03  0.90296305698E+02 0.  0.
        254    2    1    2    0    0  0.14314483507E+03  0.83120216017E+02 -0.52169861025E+03  0.10434175280E+04  0.88834187324E+03 0.  0.
         23    2    4    4    0    0 -0.13605332876E+02 -0.38510146350E+03 -0.17010750715E+03  0.43069592905E+03  0.89856424614E+02 0.  0.
         23    2    4    4    0    0  0.15675016795E+03  0.46822167952E+03 -0.35159110311E+03  0.61272159898E+03  0.89494680015E+02 0.  0.
          3    1    3    3  502    0  0.32511061978E+01 -0.15238599525E+02  0.16203975363E+02  0.22480067272E+02  0.00000000000E+00 0. -1.
         -3    1    3    3    0  502 -0.14639594127E+03 -0.67881616492E+02 -0.51189352808E+02  0.16929275034E+03  0.00000000000E+00 0.  1.
         13    1    5    5    0    0  0.37747565219E+02 -0.12585100122E+03 -0.55835835706E+02  0.14276201784E+03  0.00000000000E+00 0.  1.
        -13    1    5    5    0    0 -0.51352898096E+02 -0.25925046228E+03 -0.11427167144E+03  0.28793391122E+03  0.00000000000E+00 0. -1.
          1    1    6    6  503    0  0.11102761490E+02  0.56899393298E+02 -0.10585511963E+02  0.58931021830E+02  0.00000000000E+00 0. -1.
         -1    1    6    6    0  503  0.14564740646E+03  0.41132228622E+03 -0.34100559115E+03  0.55379057715E+03  0.00000000000E+00 0.  1.
<mgrwt>
<rscale>  0 0.11026324E+04</rscale>
<asrwt>0</asrwt>
<pdfrwt beam="1">  1        2 0.52192798E-01 0.11026324E+04</pdfrwt>
<pdfrwt beam="2">  1       -2 0.13783648E+00 0.11026324E+04</pdfrwt>
<totfact> 0.35495163E+01</totfact>
</mgrwt>
</event>
<event>
12    3  0.4192740E-008  0.2843737E+04  0.7818608E-02  0.8289817E-01
          2   -1    0    0  501    0  0.00000000000E+00  0.00000000000E+00  0.14609554537E+04  0.14609554537E+04  0.00000000000E+00 0. -1.
         -2   -1    0    0    0  501 -0.00000000000E+00 -0.00000000000E+00 -0.13838273277E+04  0.13838273277E+04  0.00000000000E+00 0.  1.
         23    2    1    2    0    0 -0.34188249475E+03  0.11276147400E+04 -0.46528794213E+03  0.12698410604E+04  0.87205547784E+02 0.  0.
        254    2    1    2    0    0  0.34188249475E+03 -0.11276147400E+04  0.54241606805E+03  0.15749417210E+04  0.89321195225E+03 0.  0.
         23    2    4    4    0    0  0.24196993971E+03 -0.11230432062E+04  0.15312660926E+03  0.11624699404E+04  0.90072800293E+02 0.  0.
         23    2    4    4    0    0  0.99912555038E+02 -0.45715338071E+01  0.38928945879E+03  0.41247178055E+03  0.92645935960E+02 0.  0.
          3    1    3    3  502    0 -0.13300632062E+03  0.50696233244E+03 -0.16553421848E+03  0.54963903184E+03  0.00000000000E+00 0. -1.
         -3    1    3    3    0  502 -0.20887617413E+03  0.62065240753E+03 -0.29975372364E+03  0.72020202855E+03  0.00000000000E+00 0.  1.
         13    1    5    5    0    0  0.21804326106E+03 -0.10896143834E+04  0.14657646305E+03  0.11208421065E+04  0.00000000000E+00 0.  1.
        -13    1    5    5    0    0  0.23926678655E+02 -0.33428822734E+02  0.65501462102E+01  0.41627833912E+02  0.00000000000E+00 0. -1.
          1    1    6    6  503    0  0.28794475157E+02  0.14438301602E+01  0.17141418370E+02  0.33541536471E+02  0.00000000000E+00 0. -1.
         -1    1    6    6    0  503  0.71118079881E+02 -0.60153639673E+01  0.37214804042E+03  0.37893024408E+03  0.00000000000E+00 0.  1.
<mgrwt>
<rscale>  0 0.28437370E+04</rscale>
<asrwt>0</asrwt>
<pdfrwt beam="1">  1        2 0.22476238E+00 0.28437370E+04</pdfrwt>
<pdfrwt beam="2">  1       -2 0.21289651E+00 0.28437370E+04</pdfrwt>
<totfact> 0.12705859E+00</totfact>
</mgrwt>
</event>
<event>
12    3  0.4192740E-008  0.1393001E+04  0.7818608E-02  0.8958901E-01
         -2   -1    0    0    0  501 -0.00000000000E+00  0.00000000000E+00  0.16806686181E+03  0.16806686181E+03  0.00000000000E+00 0.  1.
          2   -1    0    0  501    0  0.00000000000E+00 -0.00000000000E+00 -0.28864277030E+04  0.28864277030E+04  0.00000000000E+00 0. -1.
         23    2    1    2    0    0 -0.47595295707E-01  0.21961191557E+03 -0.15322715529E+04  0.15506121770E+04  0.91173548198E+02 0.  0.
        254    2    1    2    0    0  0.47595295707E-01 -0.21961191557E+03 -0.11860892883E+04  0.15038823878E+04  0.89812306554E+03 0.  0.
         23    2    4    4    0    0  0.66604929159E+02  0.33759804748E+03 -0.44719156269E+03  0.57165587106E+03  0.91659603543E+02 0.  0.
         23    2    4    4    0    0 -0.66557333863E+02 -0.55720996305E+03 -0.73889772558E+03  0.93222651674E+03  0.90352686898E+02 0.  0.
          1    1    3    3  502    0  0.11050555660E+02  0.96768197354E+02 -0.97505232607E+03  0.97990470832E+03  0.00000000000E+00 0. -1.
         -1    1    3    3    0  502 -0.11098150955E+02  0.12284371821E+03 -0.55721922682E+03  0.57070746867E+03  0.00000000000E+00 0.  1.
         13    1    5    5    0    0  0.25598659509E+02  0.21075167323E+03 -0.33889269783E+03  0.39989976216E+03  0.00000000000E+00 0. -1.
        -13    1    5    5    0    0  0.41006269650E+02  0.12684637426E+03 -0.10829886486E+03  0.17175610889E+03  0.00000000000E+00 0.  1.
          3    1    6    6  503    0 -0.90690140553E+01 -0.84978775833E+01 -0.39528887509E+02  0.41436624948E+02  0.00000000000E+00 0.  1.
         -3    1    6    6    0  503 -0.57488319808E+02 -0.54871208547E+03 -0.69936883807E+03  0.89078989179E+03  0.00000000000E+00 0. -1.
<mgrwt>
<rscale>  0 0.13930009E+04</rscale>
<asrwt>0</asrwt>
<pdfrwt beam="1">  1        2 0.44406575E+00 0.13930009E+04</pdfrwt>
<pdfrwt beam="2">  1       -2 0.25856443E-01 0.13930009E+04</pdfrwt>
<totfact> 0.27121430E+01</totfact>
</mgrwt>
</event>
<event>
12    3  0.5496070E-008  0.2014482E+04  0.7818608E-02  0.8599880E-01
         -1   -1    0    0    0  501 -0.00000000000E+00  0.00000000000E+00  0.84376675878E+03  0.84376675878E+03  0.00000000000E+00 0.  1.
          1   -1    0    0  501    0  0.00000000000E+00 -0.00000000000E+00 -0.12023871230E+04  0.12023871230E+04  0.00000000000E+00 0. -1.
         23    2    1    2    0    0  0.42781078049E+03  0.24130724639E+03 -0.78903545049E+03  0.93379796367E+03  0.90279808174E+02 0.  0.
        254    2    1    2    0    0 -0.42781078049E+03 -0.24130724639E+03  0.43041508623E+03  0.11123559181E+04  0.90045948888E+03 0.  0.
         23    2    4    4    0    0 -0.44292873654E+03 -0.45841526918E+03  0.55096875068E+03  0.84761971047E+03  0.92532073784E+02 0.  0.
         23    2    4    4    0    0  0.15117956055E+02  0.21710802279E+03 -0.12055366445E+03  0.26473620767E+03  0.90485509808E+02 0.  0.
          4    1    3    3  502    0  0.40678036632E+03  0.21845076739E+03 -0.69188047555E+03  0.83179901217E+03  0.00000000000E+00 0. -1.
         -4    1    3    3    0  502  0.21030414172E+02  0.22856478999E+02 -0.97154974936E+02  0.10199895150E+03  0.00000000000E+00 0.  1.
         13    1    5    5    0    0 -0.94258768475E+02 -0.48822430425E+02  0.95437402944E+02  0.14274677940E+03  0.00000000000E+00 0.  1.
        -13    1    5    5    0    0 -0.34866996807E+03 -0.40959283876E+03  0.45553134774E+03  0.70487293108E+03  0.00000000000E+00 0. -1.
          1    1    6    6  503    0 -0.17226761469E+01  0.20800809438E+03 -0.85710905569E+02  0.22498154208E+03  0.00000000000E+00 0. -1.
         -1    1    6    6    0  503  0.16840632202E+02  0.90999284060E+01 -0.34842758884E+02  0.39754665596E+02  0.00000000000E+00 0.  1.
<mgrwt>
<rscale>  0 0.20144819E+04</rscale>
<asrwt>0</asrwt>
<pdfrwt beam="1">  1        1 0.18498263E+00 0.20144819E+04</pdfrwt>
<pdfrwt beam="2">  1       -1 0.12981027E+00 0.20144819E+04</pdfrwt>
<totfact> 0.50196342E+00</totfact>
</mgrwt>
</event>
<event>
12    3  0.4192740E-008  0.1989174E+04  0.7818608E-02  0.8611699E-01
          2   -1    0    0  501    0  0.00000000000E+00  0.00000000000E+00  0.78414721388E+03  0.78414721388E+03  0.00000000000E+00 0. -1.
         -2   -1    0    0    0  501 -0.00000000000E+00 -0.00000000000E+00 -0.12615023778E+04  0.12615023778E+04  0.00000000000E+00 0.  1.
         23    2    1    2    0    0  0.58626326371E+03  0.65753884165E+02  0.35015454768E+03  0.69192874577E+03  0.90160935570E+02 0.  0.
        254    2    1    2    0    0 -0.58626326371E+03 -0.65753884165E+02 -0.82750971162E+03  0.13537208459E+04  0.89429280342E+03 0.  0.
         23    2    4    4    0    0 -0.10046940740E+03  0.37124286854E+03 -0.19564533408E+03  0.44024114712E+03  0.87291474984E+02 0.  0.
         23    2    4    4    0    0 -0.48579385630E+03 -0.43699675270E+03 -0.63186437755E+03  0.91347969882E+03  0.90723403044E+02 0.  0.
          1    1    3    3  502    0  0.35662009910E+03 -0.44018184011E+01  0.21213423901E+03  0.41496771735E+03  0.00000000000E+00 0. -1.
         -1    1    3    3    0  502  0.22964316461E+03  0.70155702566E+02  0.13802030867E+03  0.27696102841E+03  0.00000000000E+00 0.  1.
         13    1    5    5    0    0 -0.77706839162E+02  0.21393571896E+03 -0.71558140458E+02  0.23859466081E+03  0.00000000000E+00 0. -1.
        -13    1    5    5    0    0 -0.22762568242E+02  0.15730714958E+03 -0.12408719362E+03  0.20164648631E+03  0.00000000000E+00 0.  1.
          1    1    6    6  503    0 -0.16875719833E+03 -0.12571298638E+03 -0.25697912231E+03  0.33214607665E+03  0.00000000000E+00 0. -1.
         -1    1    6    6    0  503 -0.31703665797E+03 -0.31128376632E+03 -0.37488525523E+03  0.58133362217E+03  0.00000000000E+00 0.  1.
<mgrwt>
<rscale>  0 0.19891743E+04</rscale>
<asrwt>0</asrwt>
<pdfrwt beam="1">  1        2 0.12063803E+00 0.19891743E+04</pdfrwt>
<pdfrwt beam="2">  1       -2 0.19407729E+00 0.19891743E+04</pdfrwt>
<totfact> 0.47854137E+00</totfact>
</mgrwt>
</event>
<event>
12    3  0.4192740E-008  0.2024074E+04  0.7818608E-02  0.8595447E-01
         -2   -1    0    0    0  501 -0.00000000000E+00  0.00000000000E+00  0.38061708807E+03  0.38061708807E+03  0.00000000000E+00 0.  1.
          2   -1    0    0  501    0  0.00000000000E+00 -0.00000000000E+00 -0.26909438340E+04  0.26909438340E+04  0.00000000000E+00 0. -1.
         23    2    1    2    0    0 -0.75113440633E+03 -0.23091437138E+03 -0.11880097480E+04  0.14281688613E+04  0.10380169424E+03 0.  0.
        254    2    1    2    0    0  0.75113440633E+03  0.23091437138E+03 -0.11223169980E+04  0.16433920608E+04  0.90753384421E+03 0.  0.
         23    2    4    4    0    0  0.21551130234E+03  0.36419218188E+03 -0.52569583141E+02  0.43609822629E+03  0.91307366221E+02 0.  0.
         23    2    4    4    0    0  0.53562310399E+03 -0.13327781050E+03 -0.10697474149E+04  0.12072938346E+04  0.92432608250E+02 0.  0.
          3    1    3    3  502    0 -0.84428465712E+02 -0.39688789840E+02 -0.91245530979E+02  0.13049564278E+03  0.00000000000E+00 0. -1.
         -3    1    3    3    0  502 -0.66670594061E+03 -0.19122558154E+03 -0.10967642170E+04  0.12976732185E+04  0.00000000000E+00 0.  1.
         13    1    5    5    0    0  0.19564795908E+03  0.26062895872E+03 -0.55614778874E+02  0.33060336000E+03  0.00000000000E+00 0. -1.
        -13    1    5    5    0    0  0.19863343260E+02  0.10356322316E+03  0.30451957332E+01  0.10549486629E+03  0.00000000000E+00 0.  1.
          1    1    6    6  503    0  0.21906801105E+03 -0.47657990977E+02 -0.53397541461E+03  0.57913022800E+03  0.00000000000E+00 0. -1.
         -1    1    6    6    0  503  0.31655509294E+03 -0.85619819526E+02 -0.53577200024E+03  0.62816360656E+03  0.00000000000E+00 0.  1.
<mgrwt>
<rscale>  0 0.20240743E+04</rscale>
<asrwt>0</asrwt>
<pdfrwt beam="1">  1        2 0.41399136E+00 0.20240743E+04</pdfrwt>
<pdfrwt beam="2">  1       -2 0.58556475E-01 0.20240743E+04</pdfrwt>
<totfact> 0.68046954E+00</totfact>
</mgrwt>
</event>
<event>
12    3  0.4192740E-008  0.1081040E+04  0.7818608E-02  0.9223871E-01
         -1   -1    0    0    0  501 -0.00000000000E+00  0.00000000000E+00  0.14094424339E+03  0.14094424339E+03  0.00000000000E+00 0.  1.
          1   -1    0    0  501    0  0.00000000000E+00 -0.00000000000E+00 -0.20728912644E+04  0.20728912644E+04  0.00000000000E+00 0. -1.
         23    2    1    2    0    0 -0.11685325058E+03  0.19105093869E+02 -0.14715023405E+03  0.21088933634E+03  0.93815958238E+02 0.  0.
        254    2    1    2    0    0  0.11685325058E+03 -0.19105093869E+02 -0.17847967869E+04  0.20029461714E+04  0.90126250792E+03 0.  0.
         23    2    4    4    0    0 -0.98849159647E+01  0.28642778899E+03 -0.15574616758E+03  0.33834595988E+03  0.89902891960E+02 0.  0.
         23    2    4    4    0    0  0.12673816655E+03 -0.30553288286E+03 -0.16290506194E+04  0.16646002115E+04  0.87607296839E+02 0.  0.
          1    1    3    3  502    0 -0.76174816290E+02  0.61721434342E+01 -0.14975120853E+03  0.16812531769E+03  0.00000000000E+00 0. -1.
         -1    1    3    3    0  502 -0.40678434290E+02  0.12932950435E+02  0.26009744828E+01  0.42764018655E+02  0.00000000000E+00 0.  1.
         13    1    5    5    0    0 -0.11314047769E+02  0.29304308790E+03 -0.14965133012E+03  0.32923818073E+03  0.00000000000E+00 0.  1.
        -13    1    5    5    0    0  0.14291318047E+01 -0.66152989121E+01 -0.60948374543E+01  0.91077791479E+01  0.00000000000E+00 0. -1.
          2    1    6    6  503    0  0.57145142974E+02 -0.12721911434E+03 -0.48525131729E+03  0.50489514887E+03  0.00000000000E+00 0. -1.
         -2    1    6    6    0  503  0.69593023571E+02 -0.17831376852E+03 -0.11437993021E+04  0.11597050627E+04  0.00000000000E+00 0.  1.
<mgrwt>
<rscale>  0 0.10810404E+04</rscale>
<asrwt>0</asrwt>
<pdfrwt beam="1">  1        1 0.31890636E+00 0.10810404E+04</pdfrwt>
<pdfrwt beam="2">  1       -1 0.21683729E-01 0.10810404E+04</pdfrwt>
<totfact> 0.47545360E+01</totfact>
</mgrwt>
</event>
<event>
12    3  0.4192740E-008  0.1669019E+04  0.7818608E-02  0.8779234E-01
         -2   -1    0    0    0  501 -0.00000000000E+00  0.00000000000E+00  0.57253460850E+03  0.57253460850E+03  0.00000000000E+00 0.  1.
          2   -1    0    0  501    0  0.00000000000E+00 -0.00000000000E+00 -0.12163558703E+04  0.12163558703E+04  0.00000000000E+00 0. -1.
         23    2    1    2    0    0  0.36915581147E+03  0.42249572107E+03 -0.41451734363E+03  0.70341519914E+03  0.90496777535E+02 0.  0.
        254    2    1    2    0    0 -0.36915581147E+03 -0.42249572107E+03 -0.22930391813E+03  0.10854752796E+04  0.90049855544E+03 0.  0.
         23    2    4    4    0    0  0.10516669058E+03  0.58840424898E+02  0.22282065347E+03  0.26822649014E+03  0.88171299127E+02 0.  0.
         23    2    4    4    0    0 -0.47432250205E+03 -0.48133614597E+03 -0.45212457160E+03  0.81724878949E+03  0.82538683751E+02 0.  0.
          3    1    3    3  502    0  0.27309041840E+03  0.35238297083E+03 -0.29358970837E+03  0.53380431959E+03  0.00000000000E+00 0. -1.
         -3    1    3    3    0  502  0.96065393063E+02  0.70112750246E+02 -0.12092763526E+03  0.16961087955E+03  0.00000000000E+00 0.  1.
         13    1    5    5    0    0  0.61116814113E+02  0.25404498753E+02  0.19578408472E+03  0.20666896563E+03  0.00000000000E+00 0. -1.
        -13    1    5    5    0    0  0.44049876469E+02  0.33435926145E+02  0.27036568748E+02  0.61557524510E+02  0.00000000000E+00 0.  1.
          3    1    6    6  503    0 -0.47729764501E+03 -0.48038440993E+03 -0.45188821320E+03  0.81411619593E+03  0.00000000000E+00 0. -1.
         -3    1    6    6    0  503  0.29751429659E+01 -0.95173604168E+00 -0.23635839868E+00  0.31325935665E+01  0.00000000000E+00 0.  1.
<mgrwt>
<rscale>  0 0.16690187E+04</rscale>
<asrwt>0</asrwt>
<pdfrwt beam="1">  1        2 0.18713167E+00 0.16690187E+04</pdfrwt>
<pdfrwt beam="2">  1       -2 0.88082248E-01 0.16690187E+04</pdfrwt>
<totfact> 0.19621085E+01</totfact>
</mgrwt>
</event>
<event>
12    3  0.4192740E-008  0.1565661E+04  0.7818608E-02  0.8841926E-01
          2   -1    0    0  501    0  0.00000000000E+00  0.00000000000E+00  0.14773367645E+04  0.14773367645E+04  0.00000000000E+00 0. -1.
         -2   -1    0    0    0  501 -0.00000000000E+00 -0.00000000000E+00 -0.41481634991E+03  0.41481634991E+03  0.00000000000E+00 0.  1.
         23    2    1    2    0    0  0.14713042080E+03  0.38707504904E+03 -0.14909734612E+02  0.42430634720E+03  0.91318791985E+02 0.  0.
        254    2    1    2    0    0 -0.14713042080E+03 -0.38707504904E+03  0.10774301492E+04  0.14678467672E+04  0.90677668215E+03 0.  0.
         23    2    4    4    0    0 -0.16678811767E+03 -0.32516520827E+03  0.12222178948E+04  0.12792837007E+04  0.95914105216E+02 0.  0.
         23    2    4    4    0    0  0.19657696864E+02 -0.61909840767E+02 -0.14478774564E+03  0.18856306650E+03  0.10184932661E+03 0.  0.
          4    1    3    3  502    0  0.28796561033E+02  0.19037375190E+03 -0.27065246136E+02  0.19443234013E+03  0.00000000000E+00 0. -1.
         -4    1    3    3    0  502  0.11833385977E+03  0.19670129714E+03  0.12155511523E+02  0.22987400707E+03  0.00000000000E+00 0.  1.
         13    1    5    5    0    0 -0.42357701718E+02 -0.18600076678E+03  0.64636442933E+03  0.67392687708E+03  0.00000000000E+00 0. -1.
        -13    1    5    5    0    0 -0.12443041595E+03 -0.13916444149E+03  0.57585346549E+03  0.60535682363E+03  0.00000000000E+00 0.  1.
          3    1    6    6  503    0 -0.24977015912E+02  0.46990225164E+01 -0.84517303121E+02  0.88255915741E+02  0.00000000000E+00 0. -1.
         -3    1    6    6    0  503  0.44634712776E+02 -0.66608863283E+02 -0.60270442519E+02  0.10030715076E+03  0.00000000000E+00 0.  1.
<mgrwt>
<rscale>  0 0.15656608E+04</rscale>
<asrwt>0</asrwt>
<pdfrwt beam="1">  1        2 0.22728258E+00 0.15656608E+04</pdfrwt>
<pdfrwt beam="2">  1       -2 0.63817901E-01 0.15656608E+04</pdfrwt>
<totfact> 0.28543425E+01</totfact>
</mgrwt>
</event>
<event>
12    3  0.4192740E-008  0.3133788E+04  0.7818608E-02  0.8206526E-01
         -1   -1    0    0    0  501 -0.00000000000E+00  0.00000000000E+00  0.72621196129E+03  0.72621196129E+03  0.00000000000E+00 0.  1.
          1   -1    0    0  501    0  0.00000000000E+00 -0.00000000000E+00 -0.33807718750E+04  0.33807718750E+04  0.00000000000E+00 0. -1.
         23    2    1    2    0    0 -0.12547682797E+04  0.65003954842E+03 -0.15560885728E+04  0.21039215772E+04  0.89886073363E+02 0.  0.
        254    2    1    2    0    0  0.12547682797E+04 -0.65003954842E+03 -0.10984713409E+04  0.20030622591E+04  0.89923538445E+03 0.  0.
         23    2    4    4    0    0  0.28947605487E+03  0.20034392234E+03 -0.11550945901E+03  0.38154921026E+03  0.91122396606E+02 0.  0.
         23    2    4    4    0    0  0.96529222487E+03 -0.85038347075E+03 -0.98296188185E+03  0.16215130488E+04  0.90273914131E+02 0.  0.
          2    1    3    3  502    0 -0.23298241787E+03  0.99280495751E+02 -0.32283977416E+03  0.41032053769E+03  0.00000000000E+00 0. -1.
         -2    1    3    3    0  502 -0.10217858619E+04  0.55075905267E+03 -0.12332487987E+04  0.16936010395E+04  0.00000000000E+00 0.  1.
         13    1    5    5    0    0  0.14893642008E+03  0.79073152605E+02 -0.12097292618E+02  0.16905905826E+03  0.00000000000E+00 0.  1.
        -13    1    5    5    0    0  0.14053963479E+03  0.12127076973E+03 -0.10341216639E+03  0.21249015200E+03  0.00000000000E+00 0. -1.
          3    1    6    6  503    0  0.28322542640E+03 -0.25430339031E+03 -0.34345049691E+03  0.51268421110E+03  0.00000000000E+00 0.  1.
         -3    1    6    6    0  503  0.68206679848E+03 -0.59608008044E+03 -0.63951138494E+03  0.11088288377E+04  0.00000000000E+00 0. -1.
<mgrwt>
<rscale>  0 0.31337881E+04</rscale>
<asrwt>0</asrwt>
<pdfrwt beam="1">  1        1 0.52011874E+00 0.31337881E+04</pdfrwt>
<pdfrwt beam="2">  1       -1 0.11172492E+00 0.31337881E+04</pdfrwt>
<totfact> 0.19140072E-01</totfact>
</mgrwt>
</event>
<event>
12    3  0.4192740E-008  0.2449537E+04  0.7818608E-02  0.8421187E-01
          1   -1    0    0  501    0  0.00000000000E+00  0.00000000000E+00  0.13126694254E+04  0.13126694254E+04  0.00000000000E+00 0. -1.
         -1   -1    0    0    0  501 -0.00000000000E+00 -0.00000000000E+00 -0.11427533732E+04  0.11427533732E+04  0.00000000000E+00 0.  1.
         23    2    1    2    0    0  0.73639847226E+03  0.43696402067E+03 -0.49818149663E+03  0.99478509249E+03  0.90511387885E+02 0.  0.
        254    2    1    2    0    0 -0.73639847226E+03 -0.43696402067E+03  0.66809754886E+03  0.14606377061E+04  0.97667185290E+03 0.  0.
         23    2    4    4    0    0 -0.46003849276E+03  0.26424223887E+03  0.32024216879E+03  0.62557671254E+03  0.85625936361E+02 0.  0.
         23    2    4    4    0    0 -0.27635997950E+03 -0.70120625954E+03  0.34785538007E+03  0.83506099352E+03  0.90875963610E+02 0.  0.
          2    1    3    3  502    0  0.61645689693E+03  0.34388710719E+03 -0.44228227418E+03  0.83300123549E+03  0.00000000000E+00 0. -1.
         -2    1    3    3    0  502  0.11994157533E+03  0.93076913473E+02 -0.55899222451E+02  0.16178385700E+03  0.00000000000E+00 0.  1.
         13    1    5    5    0    0 -0.18372462034E+03  0.15461524110E+03  0.14290257078E+03  0.27943112503E+03  0.00000000000E+00 0.  1.
        -13    1    5    5    0    0 -0.27631387242E+03  0.10962699777E+03  0.17733959801E+03  0.34614558751E+03  0.00000000000E+00 0. -1.
          1    1    6    6  503    0 -0.60919892357E+02 -0.25467464064E+03  0.95374543050E+02  0.27868747610E+03  0.00000000000E+00 0. -1.
         -1    1    6    6    0  503 -0.21544008715E+03 -0.44653161889E+03  0.25248083702E+03  0.55637351742E+03  0.00000000000E+00 0.  1.
<mgrwt>
<rscale>  0 0.24495366E+04</rscale>
<asrwt>0</asrwt>
<pdfrwt beam="1">  1        1 0.20194914E+00 0.24495366E+04</pdfrwt>
<pdfrwt beam="2">  1       -1 0.17580821E+00 0.24495366E+04</pdfrwt>
<totfact> 0.17640358E+00</totfact>
</mgrwt>
</event>
<event>
12    3  0.4192740E-008  0.1094932E+04  0.7818608E-02  0.9210146E-01
         -2   -1    0    0    0  501 -0.00000000000E+00  0.00000000000E+00  0.53523873625E+03  0.53523873625E+03  0.00000000000E+00 0.  1.
          2   -1    0    0  501    0  0.00000000000E+00 -0.00000000000E+00 -0.55997254368E+03  0.55997254368E+03  0.00000000000E+00 0. -1.
         23    2    1    2    0    0 -0.10592480616E+03  0.39184315393E+02 -0.10900160505E+03  0.18162543964E+03  0.91383670800E+02 0.  0.
        254    2    1    2    0    0  0.10592480616E+03 -0.39184315393E+02  0.84267797618E+02  0.91358584029E+03  0.90265306221E+03 0.  0.
         23    2    4    4    0    0 -0.29538381688E+01 -0.32248462766E+03  0.36150895569E+03  0.49285695583E+03  0.90632188691E+02 0.  0.
         23    2    4    4    0    0  0.10887864433E+03  0.28330031227E+03 -0.27724115807E+03  0.42072888446E+03  0.89646574748E+02 0.  0.
          2    1    3    3  502    0 -0.10650971166E+03  0.54036085962E+02 -0.66715947154E+02  0.13680363616E+03  0.00000000000E+00 0. -1.
         -2    1    3    3    0  502  0.58490549383E+00 -0.14851770569E+02 -0.42285657894E+02  0.44821803478E+02  0.00000000000E+00 0.  1.
         13    1    5    5    0    0 -0.23534526644E+02 -0.20847766660E+03  0.17457035030E+03  0.27293152735E+03  0.00000000000E+00 0. -1.
        -13    1    5    5    0    0  0.20580688475E+02 -0.11400696106E+03  0.18693860539E+03  0.21992542848E+03  0.00000000000E+00 0.  1.
          2    1    6    6  503    0  0.62366000456E+02  0.22187139080E+03 -0.16049068090E+03  0.28084460245E+03  0.00000000000E+00 0. -1.
         -2    1    6    6    0  503  0.46512643874E+02  0.61428921465E+02 -0.11675047717E+03  0.13988428200E+03  0.00000000000E+00 0.  1.
<mgrwt>
<rscale>  0 0.10949320E+04</rscale>
<asrwt>0</asrwt>
<pdfrwt beam="1">  1        2 0.86149622E-01 0.10949320E+04</pdfrwt>
<pdfrwt beam="2">  1       -2 0.82344421E-01 0.10949320E+04</pdfrwt>
<totfact> 0.69349504E+01</totfact>
</mgrwt>
</event>
<event>
12    3  0.4192740E-008  0.1999104E+04  0.7818608E-02  0.8607040E-01
         -2   -1    0    0    0  501 -0.00000000000E+00  0.00000000000E+00  0.78994260062E+03  0.78994260062E+03  0.00000000000E+00 0.  1.
          2   -1    0    0  501    0  0.00000000000E+00 -0.00000000000E+00 -0.12647805197E+04  0.12647805197E+04  0.00000000000E+00 0. -1.
         23    2    1    2    0    0 -0.98689379441E+02  0.63240688833E+03  0.28446897719E+03  0.70624277341E+03  0.90433345565E+02 0.  0.
        254    2    1    2    0    0  0.98689379441E+02 -0.63240688833E+03 -0.75930689627E+03  0.13484803469E+04  0.91223583421E+03 0.  0.
         23    2    4    4    0    0  0.43086045529E+03 -0.58919886627E+03 -0.65647428041E+03  0.98632705205E+03  0.95323327815E+02 0.  0.
         23    2    4    4    0    0 -0.33217107585E+03 -0.43208022062E+02 -0.10283261586E+03  0.36215329485E+03  0.91519972043E+02 0.  0.
          3    1    3    3  502    0 -0.63445508200E+01  0.21515039067E+03  0.13205487933E+03  0.25252412773E+03  0.00000000000E+00 0. -1.
         -3    1    3    3    0  502 -0.92344828621E+02  0.41725649766E+03  0.15241409786E+03  0.45371864568E+03  0.00000000000E+00 0.  1.
         13    1    5    5    0    0  0.36462959337E+03 -0.52526843525E+03 -0.60777747125E+03  0.88218769204E+03  0.00000000000E+00 0. -1.
        -13    1    5    5    0    0  0.66230861919E+02 -0.63930431024E+02 -0.48696809157E+02  0.10413936001E+03  0.00000000000E+00 0.  1.
          4    1    6    6  503    0 -0.31181820108E+03 -0.15376087004E+02 -0.86243624072E+02  0.32389037848E+03  0.00000000000E+00 0. -1.
         -4    1    6    6    0  503 -0.20352874764E+02 -0.27831935058E+02 -0.16588991792E+02  0.38262916367E+02  0.00000000000E+00 0.  1.
<mgrwt>
<rscale>  0 0.19991038E+04</rscale>
<asrwt>0</asrwt>
<pdfrwt beam="1">  1        2 0.19458162E+00 0.19991038E+04</pdfrwt>
<pdfrwt beam="2">  1       -2 0.12152963E+00 0.19991038E+04</pdfrwt>
<totfact> 0.82888737E+00</totfact>
</mgrwt>
</event>
<event>
12    3  0.4192740E-008  0.1983622E+04  0.7818608E-02  0.8614316E-01
         -1   -1    0    0    0  501 -0.00000000000E+00  0.00000000000E+00  0.15148486843E+04  0.15148486843E+04  0.00000000000E+00 0.  1.
          1   -1    0    0  501    0  0.00000000000E+00 -0.00000000000E+00 -0.64936477567E+03  0.64936477567E+03  0.00000000000E+00 0. -1.
         23    2    1    2    0    0  0.41597936159E+03  0.76793861689E+02  0.10690871137E+04  0.11531648809E+04  0.88914898892E+02 0.  0.
        254    2    1    2    0    0 -0.41597936159E+03 -0.76793861689E+02 -0.20360320512E+03  0.10110485791E+04  0.89544895873E+03 0.  0.
         23    2    4    4    0    0  0.19954228985E+03 -0.19159828780E+03 -0.24001292038E+03  0.37730339439E+03  0.90689691479E+02 0.  0.
         23    2    4    4    0    0 -0.61552165143E+03  0.11480442612E+03  0.36409715260E+02  0.63374518471E+03  0.90886369370E+02 0.  0.
          2    1    3    3  502    0  0.36596674261E+03  0.88001346105E+02  0.87707138428E+03  0.95442658531E+03  0.00000000000E+00 0. -1.
         -2    1    3    3    0  502  0.50012618978E+02 -0.11207484417E+02  0.19201572946E+03  0.19873829556E+03  0.00000000000E+00 0.  1.
         13    1    5    5    0    0  0.63694873818E+01  0.25631710363E+01  0.60241841147E+01  0.91340576699E+01  0.00000000000E+00 0. -1.
        -13    1    5    5    0    0  0.19317280246E+03 -0.19416145884E+03 -0.24603710449E+03  0.36816933672E+03  0.00000000000E+00 0.  1.
          1    1    6    6  503    0 -0.28592676262E+03  0.11660368766E+02 -0.27291553447E+01  0.28617743809E+03  0.00000000000E+00 0. -1.
         -1    1    6    6    0  503 -0.32959488882E+03  0.10314405735E+03  0.39138870604E+02  0.34756774662E+03  0.00000000000E+00 0.  1.
<mgrwt>
<rscale>  0 0.19836223E+04</rscale>
<asrwt>0</asrwt>
<pdfrwt beam="1">  1        1 0.99902274E-01 0.19836223E+04</pdfrwt>
<pdfrwt beam="2">  1       -1 0.23305364E+00 0.19836223E+04</pdfrwt>
<totfact> 0.25524569E+00</totfact>
</mgrwt>
</event>
<event>
12    3  0.4192740E-008  0.1331313E+04  0.7818608E-02  0.9005096E-01
         -1   -1    0    0    0  501 -0.00000000000E+00  0.00000000000E+00  0.22045881110E+03  0.22045881110E+03  0.00000000000E+00 0.  1.
          1   -1    0    0  501    0  0.00000000000E+00 -0.00000000000E+00 -0.20098934303E+04  0.20098934303E+04  0.00000000000E+00 0. -1.
         23    2    1    2    0    0  0.34726845930E+03 -0.54926321152E+02 -0.59807195134E+03  0.70011546613E+03  0.94123978611E+02 0.  0.
        254    2    1    2    0    0 -0.34726845930E+03  0.54926321152E+02 -0.11913626678E+04  0.15302367752E+04  0.89368187765E+03 0.  0.
         23    2    4    4    0    0 -0.42107756384E+03  0.12855486251E+03 -0.14149791019E+03  0.47128150683E+03  0.90840148898E+02 0.  0.
         23    2    4    4    0    0  0.73809104537E+02 -0.73628541354E+02 -0.10498647576E+04  0.10589552684E+04  0.91111498507E+02 0.  0.
          4    1    3    3  502    0  0.17847265544E+03 -0.16409702367E+02 -0.39156552448E+03  0.43063363434E+03  0.00000000000E+00 0.  1.
         -4    1    3    3    0  502  0.16879580386E+03 -0.38516618785E+02 -0.20650642687E+03  0.26948183178E+03  0.00000000000E+00 0. -1.
         13    1    5    5    0    0 -0.24449781489E+03  0.28822735032E+02 -0.89164783824E+02  0.26184019977E+03  0.00000000000E+00 0. -1.
        -13    1    5    5    0    0 -0.17657974895E+03  0.99732127474E+02 -0.52333126365E+02  0.20944130707E+03  0.00000000000E+00 0.  1.
          1    1    6    6  503    0  0.54460080688E+02  0.71324557573E+01 -0.46204539406E+03  0.46529852620E+03  0.00000000000E+00 0. -1.
         -1    1    6    6    0  503  0.19349023848E+02 -0.80760997111E+02 -0.58781936355E+03  0.59365674219E+03  0.00000000000E+00 0.  1.
<mgrwt>
<rscale>  0 0.13313132E+04</rscale>
<asrwt>0</asrwt>
<pdfrwt beam="1">  1        1 0.30921438E+00 0.13313132E+04</pdfrwt>
<pdfrwt beam="2">  1       -1 0.33916739E-01 0.13313132E+04</pdfrwt>
<totfact> 0.23640377E+01</totfact>
</mgrwt>
</event>
<event>
12    3  0.4192740E-008  0.1710172E+04  0.7818608E-02  0.8755584E-01
         -2   -1    0    0    0  501 -0.00000000000E+00  0.00000000000E+00  0.27486084565E+03  0.27486084565E+03  0.00000000000E+00 0.  1.
          2   -1    0    0  501    0  0.00000000000E+00 -0.00000000000E+00 -0.26601535512E+04  0.26601535512E+04  0.00000000000E+00 0. -1.
         23    2    1    2    0    0  0.29110765461E+03  0.51641644508E+03 -0.68872338821E+03  0.91251083228E+03  0.83105368288E+02 0.  0.
        254    2    1    2    0    0 -0.29110765461E+03 -0.51641644508E+03 -0.16965693174E+04  0.20225035646E+04  0.92776268993E+03 0.  0.
         23    2    4    4    0    0 -0.41830378334E+03 -0.71271928716E+03 -0.11327424275E+04  0.14052555033E+04  0.93224379510E+02 0.  0.
         23    2    4    4    0    0  0.12719612873E+03  0.19630284208E+03 -0.56382688985E+03  0.61724806132E+03  0.91546417237E+02 0.  0.
          1    1    3    3  502    0  0.21702160161E+03  0.44684328137E+03 -0.56223451305E+03  0.75024991925E+03  0.00000000000E+00 0. -1.
         -1    1    3    3    0  502  0.74086053000E+02  0.69573163710E+02 -0.12648887516E+03  0.16226091303E+03  0.00000000000E+00 0.  1.
         13    1    5    5    0    0 -0.71048231263E+02 -0.80744765314E+02 -0.10979061746E+03  0.15369303164E+03  0.00000000000E+00 0.  1.
        -13    1    5    5    0    0 -0.34725555207E+03 -0.63197452184E+03 -0.10229518100E+04  0.12515624716E+04  0.00000000000E+00 0. -1.
          2    1    6    6  503    0  0.36628095348E+02  0.16882148746E+02 -0.42838705305E+02  0.58836884582E+02  0.00000000000E+00 0.  1.
         -2    1    6    6    0  503  0.90568033383E+02  0.17942069333E+03 -0.52098818455E+03  0.55841117674E+03  0.00000000000E+00 0. -1.
<mgrwt>
<rscale>  0 0.17101720E+04</rscale>
<asrwt>0</asrwt>
<pdfrwt beam="1">  1        2 0.40925437E+00 0.17101720E+04</pdfrwt>
<pdfrwt beam="2">  1       -2 0.42286286E-01 0.17101720E+04</pdfrwt>
<totfact> 0.14167843E+01</totfact>
</mgrwt>
</event>
<event>
12    3  0.4192740E-008  0.1796656E+04  0.7818608E-02  0.8708080E-01
          3   -1    0    0  501    0  0.00000000000E+00  0.00000000000E+00  0.24615926147E+04  0.24615926147E+04  0.00000000000E+00 0. -1.
         -3   -1    0    0    0  501 -0.00000000000E+00 -0.00000000000E+00 -0.32783391273E+03  0.32783391273E+03  0.00000000000E+00 0.  1.
         23    2    1    2    0    0  0.57319385191E+03 -0.23583360341E+03  0.40879047193E+03  0.74805287228E+03  0.91130507645E+02 0.  0.
        254    2    1    2    0    0 -0.57319385191E+03  0.23583360341E+03  0.17249682301E+04  0.20413736552E+04  0.89862245961E+03 0.  0.
         23    2    4    4    0    0 -0.99888615668E+02 -0.30277046158E+03  0.81073465735E+03  0.87603249840E+03  0.92165968096E+02 0.  0.
         23    2    4    4    0    0 -0.47330523624E+03  0.53860406499E+03  0.91423357270E+03  0.11653411568E+04  0.89915519834E+02 0.  0.
          1    1    3    3  502    0  0.26583791951E+03 -0.14162032866E+03  0.23892503218E+03  0.38446233618E+03  0.00000000000E+00 0. -1.
         -1    1    3    3    0  502  0.30735593240E+03 -0.94213274752E+02  0.16986543975E+03  0.36359053611E+03  0.00000000000E+00 0.  1.
         13    1    5    5    0    0 -0.69957008618E+02 -0.22988296302E+03  0.70023617609E+03  0.74031808167E+03  0.00000000000E+00 0.  1.
        -13    1    5    5    0    0 -0.29931607049E+02 -0.72887498562E+02  0.11049848126E+03  0.13571441673E+03  0.00000000000E+00 0. -1.
          1    1    6    6  503    0 -0.94072674343E+02  0.59102531703E+02  0.13107011554E+03  0.17182011669E+03  0.00000000000E+00 0. -1.
         -1    1    6    6    0  503 -0.37923256190E+03  0.47950153329E+03  0.78316345716E+03  0.99352104007E+03  0.00000000000E+00 0.  1.
<mgrwt>
<rscale>  0 0.17966564E+04</rscale>
<asrwt>0</asrwt>
<pdfrwt beam="1">  1        3 0.37870655E+00 0.17966564E+04</pdfrwt>
<pdfrwt beam="2">  1       -3 0.50435988E-01 0.17966564E+04</pdfrwt>
<totfact> 0.13978355E-01</totfact>
</mgrwt>
</event>
<event>
12    3  0.4192740E-008  0.4441299E+04  0.7818608E-02  0.7920995E-01
          2   -1    0    0  501    0  0.00000000000E+00  0.00000000000E+00  0.30104590921E+04  0.30104590921E+04  0.00000000000E+00 0. -1.
         -2   -1    0    0    0  501 -0.00000000000E+00 -0.00000000000E+00 -0.16380504615E+04  0.16380504615E+04  0.00000000000E+00 0.  1.
         23    2    1    2    0    0  0.15383720531E+04 -0.14637160893E+04  0.81975652465E+03  0.22780294615E+04  0.91455476137E+02 0.  0.
        254    2    1    2    0    0 -0.15383720531E+04  0.14637160893E+04  0.55265210596E+03  0.23704800921E+04  0.89704969376E+03 0.  0.
         23    2    4    4    0    0 -0.13286751223E+04  0.12334140326E+04  0.10587739046E+03  0.18182395295E+04  0.89984491055E+02 0.  0.
         23    2    4    4    0    0 -0.20969693078E+03  0.23030205669E+03  0.44677471550E+03  0.55224056254E+03  0.91379168364E+02 0.  0.
          2    1    3    3  502    0  0.11560868093E+04 -0.10860528226E+04  0.65319743745E+03  0.17154341539E+04  0.00000000000E+00 0. -1.
         -2    1    3    3    0  502  0.38228524374E+03 -0.37766326666E+03  0.16655908720E+03  0.56259530756E+03  0.00000000000E+00 0.  1.
         13    1    5    5    0    0 -0.47972934087E+03  0.40233355620E+03  0.75821781101E+01  0.62615494916E+03  0.00000000000E+00 0.  1.
        -13    1    5    5    0    0 -0.84894578140E+03  0.83108047641E+03  0.98295212354E+02  0.11920845804E+04  0.00000000000E+00 0. -1.
          3    1    6    6  503    0 -0.11155991443E+03  0.11315732484E+03  0.30438336435E+03  0.34336486012E+03  0.00000000000E+00 0. -1.
         -3    1    6    6    0  503 -0.98137016359E+02  0.11714473185E+03  0.14239135114E+03  0.20887570242E+03  0.00000000000E+00 0.  1.
<mgrwt>
<rscale>  0 0.44412989E+04</rscale>
<asrwt>0</asrwt>
<pdfrwt beam="1">  1        2 0.46314755E+00 0.44412989E+04</pdfrwt>
<pdfrwt beam="2">  1       -2 0.25200776E+00 0.44412989E+04</pdfrwt>
<totfact> 0.81505156E-02</totfact>
</mgrwt>
</event>
<event>
12    3  0.4192740E-008  0.2015750E+04  0.7818608E-02  0.8599292E-01
          2   -1    0    0  501    0  0.00000000000E+00  0.00000000000E+00  0.18016738276E+04  0.18016738276E+04  0.00000000000E+00 0. -1.
         -2   -1    0    0    0  501 -0.00000000000E+00 -0.00000000000E+00 -0.56381554978E+03  0.56381554978E+03  0.00000000000E+00 0.  1.
         23    2    1    2    0    0 -0.70120594089E+03  0.22733559183E+03  0.85296192703E+03  0.11310550255E+04  0.91488682135E+02 0.  0.
        254    2    1    2    0    0  0.70120594089E+03 -0.22733559183E+03  0.38489635078E+03  0.12344343518E+04  0.91231119983E+03 0.  0.
         23    2    4    4    0    0  0.42577689361E+03  0.16160068454E+03  0.55075176695E+03  0.72092092897E+03  0.94861650033E+02 0.  0.
         23    2    4    4    0    0  0.27542904728E+03 -0.38893627637E+03 -0.16585541617E+03  0.51351342288E+03  0.95160019144E+02 0.  0.
          4    1    3    3  502    0 -0.15424853946E+03  0.82830730684E+02  0.16763009958E+03  0.24239099025E+03  0.00000000000E+00 0. -1.
         -4    1    3    3    0  502 -0.54695740142E+03  0.14450486115E+03  0.68533182745E+03  0.88866403527E+03  0.00000000000E+00 0.  1.
         13    1    5    5    0    0  0.38304292848E+03  0.17075757739E+03  0.51694998693E+03  0.66567058241E+03  0.00000000000E+00 0. -1.
        -13    1    5    5    0    0  0.42733965129E+02 -0.91568928508E+01  0.33801780020E+02  0.55250346558E+02  0.00000000000E+00 0.  1.
          2    1    6    6  503    0  0.26820821239E+03 -0.32924671211E+03 -0.15692011927E+03  0.45272835835E+03  0.00000000000E+00 0. -1.
         -2    1    6    6    0  503  0.72208348864E+01 -0.59689564266E+02 -0.89352968978E+01  0.60785064526E+02  0.00000000000E+00 0.  1.
<mgrwt>
<rscale>  0 0.20157497E+04</rscale>
<asrwt>0</asrwt>
<pdfrwt beam="1">  1        2 0.27718058E+00 0.20157497E+04</pdfrwt>
<pdfrwt beam="2">  1       -2 0.86740855E-01 0.20157497E+04</pdfrwt>
<totfact> 0.91902494E+00</totfact>
</mgrwt>
</event>
<event>
12    3  0.4192740E-008  0.1360689E+04  0.7818608E-02  0.8982776E-01
         -2   -1    0    0    0  501 -0.00000000000E+00  0.00000000000E+00  0.45412019084E+03  0.45412019084E+03  0.00000000000E+00 0.  1.
          2   -1    0    0  501    0  0.00000000000E+00 -0.00000000000E+00 -0.10192643099E+04  0.10192643099E+04  0.00000000000E+00 0. -1.
         23    2    1    2    0    0  0.32492025366E+02 -0.26353637412E+03 -0.12812876810E+03  0.30785057475E+03  0.88588052028E+02 0.  0.
        254    2    1    2    0    0 -0.32492025366E+02  0.26353637412E+03 -0.43701535099E+03  0.11655339260E+04  0.10473680172E+04 0.  0.
         23    2    4    4    0    0 -0.31755673172E+03 -0.26036986592E+03 -0.36474143092E+03  0.55717942730E+03  0.93690222742E+02 0.  0.
         23    2    4    4    0    0  0.28506470636E+03  0.52390624004E+03 -0.72273920070E+02  0.60835449872E+03  0.95561715294E+02 0.  0.
          3    1    3    3  502    0  0.55885010293E+02 -0.15336738729E+03 -0.10117669841E+03  0.19204534402E+03  0.00000000000E+00 0. -1.
         -3    1    3    3    0  502 -0.23392984927E+02 -0.11016898683E+03 -0.26952069684E+02  0.11580523072E+03  0.00000000000E+00 0.  1.
         13    1    5    5    0    0 -0.10513887775E+03 -0.14259261246E+03 -0.13361933339E+03  0.22190304865E+03  0.00000000000E+00 0. -1.
        -13    1    5    5    0    0 -0.21241785397E+03 -0.11777725346E+03 -0.23112209753E+03  0.33527637866E+03  0.00000000000E+00 0.  1.
          2    1    6    6  503    0  0.48087228653E+02  0.16827959731E+03 -0.48589309969E+00  0.17501611504E+03  0.00000000000E+00 0. -1.
         -2    1    6    6    0  503  0.23697747771E+03  0.35562664272E+03 -0.71788026970E+02  0.43333838368E+03  0.00000000000E+00 0.  1.
<mgrwt>
<rscale>  0 0.13606888E+04</rscale>
<asrwt>0</asrwt>
<pdfrwt beam="1">  1        2 0.15680989E+00 0.13606888E+04</pdfrwt>
<pdfrwt beam="2">  1       -2 0.69864646E-01 0.13606888E+04</pdfrwt>
<totfact> 0.44618778E+01</totfact>
</mgrwt>
</event>
<event>
12    3  0.4192740E-008  0.1785998E+04  0.7818608E-02  0.8713781E-01
         -2   -1    0    0    0  501 -0.00000000000E+00  0.00000000000E+00  0.30081099837E+03  0.30081099837E+03  0.00000000000E+00 0.  1.
          2   -1    0    0  501    0  0.00000000000E+00 -0.00000000000E+00 -0.26509904752E+04  0.26509904752E+04  0.00000000000E+00 0. -1.
         23    2    1    2    0    0 -0.47863589812E+03  0.41740026572E+03 -0.57054117999E+03  0.85849662714E+03  0.90464998530E+02 0.  0.
        254    2    1    2    0    0  0.47863589812E+03 -0.41740026572E+03 -0.17796382968E+04  0.20933048464E+04  0.90083150903E+03 0.  0.
         23    2    4    4    0    0  0.66181906759E+03 -0.31800863942E+03 -0.16987417296E+04  0.18527446790E+04  0.88348225211E+02 0.  0.
         23    2    4    4    0    0 -0.18318316948E+03 -0.99391626294E+02 -0.80896567235E+02  0.24056016736E+03  0.88826632117E+02 0.  0.
          1    1    3    3  502    0 -0.28952624310E+03  0.29005876928E+03 -0.40961897170E+03  0.57943700008E+03  0.00000000000E+00 0. -1.
         -1    1    3    3    0  502 -0.18910965502E+03  0.12734149643E+03 -0.16092220828E+03  0.27905962706E+03  0.00000000000E+00 0.  1.
         13    1    5    5    0    0  0.53427490342E+03 -0.24987382989E+03 -0.12701598071E+04  0.14004258419E+04  0.00000000000E+00 0.  1.
        -13    1    5    5    0    0  0.12754416417E+03 -0.68134809534E+02 -0.42858192252E+03  0.45231883710E+03  0.00000000000E+00 0. -1.
          1    1    6    6  503    0  0.58640756682E+01 -0.12144887134E+02 -0.19086560271E+02  0.23370546633E+02  0.00000000000E+00 0. -1.
         -1    1    6    6    0  503 -0.18904724514E+03 -0.87246739160E+02 -0.61810006964E+02  0.21718962073E+03  0.00000000000E+00 0.  1.
<mgrwt>
<rscale>  0 0.17859979E+04</rscale>
<asrwt>0</asrwt>
<pdfrwt beam="1">  1        2 0.40784469E+00 0.17859979E+04</pdfrwt>
<pdfrwt beam="2">  1       -2 0.46278615E-01 0.17859979E+04</pdfrwt>
<totfact> 0.11903723E+01</totfact>
</mgrwt>
</event>
<event>
12    3  0.4192740E-008  0.1813925E+04  0.7818608E-02  0.8698929E-01
         -1   -1    0    0    0  501 -0.00000000000E+00  0.00000000000E+00  0.56554503751E+03  0.56554503751E+03  0.00000000000E+00 0.  1.
          1   -1    0    0  501    0  0.00000000000E+00 -0.00000000000E+00 -0.14544924275E+04  0.14544924275E+04  0.00000000000E+00 0. -1.
         23    2    1    2    0    0  0.44363851400E+03  0.23999872040E+03 -0.84387438817E+03  0.98738140088E+03  0.91561623468E+02 0.  0.
        254    2    1    2    0    0 -0.44363851400E+03 -0.23999872040E+03 -0.45073001837E+02  0.10326560642E+04  0.89996247391E+03 0.  0.
         23    2    4    4    0    0 -0.42051686484E+03 -0.29758172807E+03 -0.40193790493E+03  0.65939026803E+03  0.88612231983E+02 0.  0.
         23    2    4    4    0    0 -0.23121649158E+02  0.57583007679E+02  0.35686490309E+03  0.37326579612E+03  0.90135354141E+02 0.  0.
          1    1    3    3  502    0  0.34975800875E+03  0.14366210649E+03 -0.62517980948E+03  0.73062935864E+03  0.00000000000E+00 0. -1.
         -1    1    3    3    0  502  0.93880505257E+02  0.96336613901E+02 -0.21869457868E+03  0.25675204223E+03  0.00000000000E+00 0.  1.
         13    1    5    5    0    0 -0.12652202533E+02  0.57781183879E+01 -0.63717402750E+01  0.15299148838E+02  0.00000000000E+00 0. -1.
        -13    1    5    5    0    0 -0.40786466231E+03 -0.30335984646E+03 -0.39556616465E+03  0.64409111920E+03  0.00000000000E+00 0.  1.
          1    1    6    6  503    0 -0.30039901372E+02  0.40267708522E+02  0.72018386012E+02  0.87809634709E+02  0.00000000000E+00 0. -1.
         -1    1    6    6    0  503  0.69182522137E+01  0.17315299158E+02  0.28484651708E+03  0.28545616142E+03  0.00000000000E+00 0.  1.
<mgrwt>
<rscale>  0 0.18139250E+04</rscale>
<asrwt>0</asrwt>
<pdfrwt beam="1">  1        1 0.22376807E+00 0.18139250E+04</pdfrwt>
<pdfrwt beam="2">  1       -1 0.87006929E-01 0.18139250E+04</pdfrwt>
<totfact> 0.86290327E+00</totfact>
</mgrwt>
</event>
<event>
12    3  0.4192740E-008  0.1790340E+04  0.7818608E-02  0.8711453E-01
          2   -1    0    0  501    0  0.00000000000E+00  0.00000000000E+00  0.15983129548E+04  0.15983129548E+04  0.00000000000E+00 0. -1.
         -2   -1    0    0    0  501 -0.00000000000E+00 -0.00000000000E+00 -0.50135963378E+03  0.50135963378E+03  0.00000000000E+00 0.  1.
         23    2    1    2    0    0 -0.41254911961E+03  0.16097294869E+03 -0.17514649484E+03  0.48736286554E+03  0.10362046977E+03 0.  0.
        254    2    1    2    0    0  0.41254911961E+03 -0.16097294869E+03  0.12720998159E+04  0.16123097231E+04  0.88611265379E+03 0.  0.
         23    2    4    4    0    0  0.53198820291E+03 -0.22589588867E+03  0.13189359512E+04  0.14426464281E+04  0.87156598331E+02 0.  0.
         23    2    4    4    0    0 -0.11943908330E+03  0.64922939983E+02 -0.46836135250E+02  0.16966329500E+03  0.90062907732E+02 0.  0.
          1    1    3    3  502    0 -0.33238755610E+03  0.14200190769E+03 -0.97992286108E+02  0.37449768674E+03  0.00000000000E+00 0. -1.
         -1    1    3    3    0  502 -0.80161563504E+02  0.18971041004E+02 -0.77154208735E+02  0.11286517880E+03  0.00000000000E+00 0.  1.
         13    1    5    5    0    0  0.48748676585E+03 -0.18697110226E+03  0.11324827659E+04  0.12470440069E+04  0.00000000000E+00 0. -1.
        -13    1    5    5    0    0  0.44501437058E+02 -0.38924786416E+02  0.18645318522E+03  0.19560242120E+03  0.00000000000E+00 0.  1.
          1    1    6    6  503    0 -0.13434533610E+03  0.61234901876E+02 -0.43881899311E+02  0.15402598361E+03  0.00000000000E+00 0. -1.
         -1    1    6    6    0  503  0.14906252798E+02  0.36880381064E+01 -0.29542359398E+01  0.15637311391E+02  0.00000000000E+00 0.  1.
<mgrwt>
<rscale>  0 0.17903403E+04</rscale>
<asrwt>0</asrwt>
<pdfrwt beam="1">  1        2 0.24589430E+00 0.17903403E+04</pdfrwt>
<pdfrwt beam="2">  1       -2 0.77132252E-01 0.17903403E+04</pdfrwt>
<totfact> 0.15839951E+01</totfact>
</mgrwt>
</event>
<event>
12    3  0.4192740E-008  0.2561822E+04  0.7818608E-02  0.8381286E-01
         -1   -1    0    0    0  501 -0.00000000000E+00  0.00000000000E+00  0.99000844776E+03  0.99000844776E+03  0.00000000000E+00 0.  1.
          1   -1    0    0  501    0  0.00000000000E+00 -0.00000000000E+00 -0.16572921824E+04  0.16572921824E+04  0.00000000000E+00 0. -1.
         23    2    1    2    0    0 -0.14749454804E+03 -0.10985043561E+04 -0.46926159968E+03  0.12072415058E+04  0.93590290021E+02 0.  0.
        254    2    1    2    0    0  0.14749454804E+03  0.10985043561E+04 -0.19802213495E+03  0.14400591244E+04  0.89782573686E+03 0.  0.
         23    2    4    4    0    0  0.15042347463E+03  0.93929025503E+03 -0.50643084129E+03  0.10815013594E+04  0.90992243823E+02 0.  0.
         23    2    4    4    0    0 -0.29289265824E+01  0.15921410103E+03  0.30840870634E+03  0.35855776498E+03  0.89944605745E+02 0.  0.
          3    1    3    3  502    0 -0.61877410426E+02 -0.48979968479E+03 -0.15888188820E+03  0.51862896134E+03  0.00000000000E+00 0. -1.
         -3    1    3    3    0  502 -0.85617137618E+02 -0.60870467127E+03 -0.31037971148E+03  0.68861254445E+03  0.00000000000E+00 0.  1.
         13    1    5    5    0    0 -0.77242861521E+01  0.73566468115E+02 -0.23280567943E+02  0.77547886310E+02  0.00000000000E+00 0.  1.
        -13    1    5    5    0    0  0.15814776078E+03  0.86572378691E+03 -0.48315027335E+03  0.10039534731E+04  0.00000000000E+00 0. -1.
          1    1    6    6  503    0 -0.44408869644E+02  0.10936319326E+03  0.19891768426E+03  0.23130218515E+03  0.00000000000E+00 0. -1.
         -1    1    6    6    0  503  0.41479943061E+02  0.49850907768E+02  0.10949102208E+03  0.12725557983E+03  0.00000000000E+00 0.  1.
<mgrwt>
<rscale>  0 0.25618222E+04</rscale>
<asrwt>0</asrwt>
<pdfrwt beam="1">  1        1 0.25496803E+00 0.25618222E+04</pdfrwt>
<pdfrwt beam="2">  1       -1 0.15230899E+00 0.25618222E+04</pdfrwt>
<totfact> 0.15078775E+00</totfact>
</mgrwt>
</event>
<event>
12    3  0.4192740E-008  0.2153888E+04  0.7818608E-02  0.8537870E-01
          3   -1    0    0  501    0  0.00000000000E+00  0.00000000000E+00  0.15744915087E+04  0.15744915087E+04  0.00000000000E+00 0. -1.
         -3   -1    0    0    0  501 -0.00000000000E+00 -0.00000000000E+00 -0.73662384905E+03  0.73662384905E+03  0.00000000000E+00 0.  1.
         23    2    1    2    0    0 -0.31434033936E+03  0.43405286089E+03 -0.40691551645E+03  0.67954302351E+03  0.94798461375E+02 0.  0.
        254    2    1    2    0    0  0.31434033936E+03 -0.43405286089E+03  0.12447831761E+04  0.16315723343E+04  0.90847751285E+03 0.  0.
         23    2    4    4    0    0  0.94606606018E+02 -0.76282993936E+02 -0.12369101313E+03  0.19739244615E+03  0.94312279158E+02 0.  0.
         23    2    4    4    0    0  0.21973373334E+03 -0.35776986696E+03  0.13684741892E+04  0.14341798881E+04  0.88702612941E+02 0.  0.
          3    1    3    3  502    0 -0.36546098204E+02  0.10776701704E+03 -0.62935643939E+02  0.13003938839E+03  0.00000000000E+00 0. -1.
         -3    1    3    3    0  502 -0.27779424115E+03  0.32628584386E+03 -0.34397987251E+03  0.54950363512E+03  0.00000000000E+00 0.  1.
         13    1    5    5    0    0  0.67454058166E+02 -0.87917128178E+02 -0.57354125455E+02  0.12477566709E+03  0.00000000000E+00 0. -1.
        -13    1    5    5    0    0  0.27152547852E+02  0.11634134242E+02 -0.66336887677E+02  0.72616779060E+02  0.00000000000E+00 0.  1.
          2    1    6    6  503    0  0.45557191221E+02 -0.11592902900E+03  0.52586388540E+03  0.54041449223E+03  0.00000000000E+00 0. -1.
         -2    1    6    6    0  503  0.17417654212E+03 -0.24184083796E+03  0.84261030385E+03  0.89376539588E+03  0.00000000000E+00 0.  1.
<mgrwt>
<rscale>  0 0.21538876E+04</rscale>
<asrwt>0</asrwt>
<pdfrwt beam="1">  1        3 0.24222946E+00 0.21538876E+04</pdfrwt>
<pdfrwt beam="2">  1       -3 0.11332675E+00 0.21538876E+04</pdfrwt>
<totfact> 0.12743823E-01</totfact>
</mgrwt>
</event>
<event>
12    3  0.4192740E-008  0.1334713E+04  0.7818608E-02  0.9002482E-01
         -1   -1    0    0    0  501 -0.00000000000E+00  0.00000000000E+00  0.21918322263E+03  0.21918322263E+03  0.00000000000E+00 0.  1.
          1   -1    0    0  501    0  0.00000000000E+00 -0.00000000000E+00 -0.20319286468E+04  0.20319286468E+04  0.00000000000E+00 0. -1.
         23    2    1    2    0    0  0.14709259613E+03  0.25333639141E+03 -0.20018432830E+03  0.36671057461E+03  0.92667800158E+02 0.  0.
        254    2    1    2    0    0 -0.14709259613E+03 -0.25333639141E+03 -0.16125610959E+04  0.18844012949E+04  0.92994590862E+03 0.  0.
         23    2    4    4    0    0  0.16206240064E+03  0.15036275843E+03 -0.58532456028E+02  0.24654920014E+03  0.92126428659E+02 0.  0.
         23    2    4    4    0    0 -0.30915499677E+03 -0.40369914984E+03 -0.15540286399E+04  0.16378520947E+04  0.94892860502E+02 0.  0.
          3    1    3    3  502    0  0.25018779943E+02  0.14378518211E+02 -0.53787965358E+02  0.61039547452E+02  0.00000000000E+00 0. -1.
         -3    1    3    3    0  502  0.12207381618E+03  0.23895787320E+03 -0.14639636294E+03  0.30567102716E+03  0.00000000000E+00 0.  1.
         13    1    5    5    0    0 -0.68908508453E+01 -0.38438481747E+01  0.47511177253E+01  0.92104350495E+01  0.00000000000E+00 0. -1.
        -13    1    5    5    0    0  0.16895325149E+03  0.15420660660E+03 -0.63283573753E+02  0.23733876509E+03  0.00000000000E+00 0.  1.
          2    1    6    6  503    0 -0.25168298785E+03 -0.36761510250E+03 -0.14084727282E+04  0.14772544182E+04  0.00000000000E+00 0.  1.
         -2    1    6    6    0  503 -0.57472008918E+02 -0.36084047333E+02 -0.14555591171E+03  0.16059767655E+03  0.00000000000E+00 0. -1.
<mgrwt>
<rscale>  0 0.13347130E+04</rscale>
<asrwt>0</asrwt>
<pdfrwt beam="1">  1        1 0.31260439E+00 0.13347130E+04</pdfrwt>
<pdfrwt beam="2">  1       -1 0.33720498E-01 0.13347130E+04</pdfrwt>
<totfact> 0.23073801E+01</totfact>
</mgrwt>
</event>
<event>
12    3  0.4192740E-008  0.1530638E+04  0.7818608E-02  0.8864331E-01
         -2   -1    0    0    0  501 -0.00000000000E+00  0.00000000000E+00  0.25319240621E+03  0.25319240621E+03  0.00000000000E+00 0.  1.
          2   -1    0    0  501    0  0.00000000000E+00 -0.00000000000E+00 -0.23133134652E+04  0.23133134652E+04  0.00000000000E+00 0. -1.
         23    2    1    2    0    0  0.42270245809E+03  0.13713404619E+03 -0.32133421522E+03  0.55575605599E+03  0.90144335323E+02 0.  0.
        254    2    1    2    0    0 -0.42270245809E+03 -0.13713404619E+03 -0.17387868437E+04  0.20107498154E+04  0.90678112984E+03 0.  0.
         23    2    4    4    0    0 -0.23740787227E+03 -0.38068140188E+03 -0.32822057141E+03  0.56446494321E+03  0.98036223231E+02 0.  0.
         23    2    4    4    0    0 -0.18529458583E+03  0.24354735569E+03 -0.14105662723E+04  0.14462848722E+04  0.91615090878E+02 0.  0.
          1    1    3    3  502    0  0.17285972176E+03  0.21225972598E+02 -0.89809860408E+02  0.19595110703E+03  0.00000000000E+00 0. -1.
         -1    1    3    3    0  502  0.24984273634E+03  0.11590807359E+03 -0.23152435481E+03  0.35980494896E+03  0.00000000000E+00 0.  1.
         13    1    5    5    0    0 -0.16003456788E+03 -0.30323859615E+03 -0.20435139210E+03  0.39915435682E+03  0.00000000000E+00 0. -1.
        -13    1    5    5    0    0 -0.77373304382E+02 -0.77442805729E+02 -0.12386917932E+03  0.16531058640E+03  0.00000000000E+00 0.  1.
          1    1    6    6  503    0 -0.10980849559E+03  0.71985447634E+02 -0.62893990527E+03  0.64249919441E+03  0.00000000000E+00 0. -1.
         -1    1    6    6    0  503 -0.75486090235E+02  0.17156190805E+03 -0.78162636704E+03  0.80378567776E+03  0.00000000000E+00 0.  1.
<mgrwt>
<rscale>  0 0.15306383E+04</rscale>
<asrwt>0</asrwt>
<pdfrwt beam="1">  1        2 0.35589439E+00 0.15306383E+04</pdfrwt>
<pdfrwt beam="2">  1       -2 0.38952677E-01 0.15306383E+04</pdfrwt>
<totfact> 0.26793371E+01</totfact>
</mgrwt>
</event>
<event>
12    3  0.4192740E-008  0.1941890E+04  0.7818608E-02  0.8634281E-01
          2   -1    0    0  501    0  0.00000000000E+00  0.00000000000E+00  0.55586002097E+03  0.55586002097E+03  0.00000000000E+00 0. -1.
         -2   -1    0    0    0  501 -0.00000000000E+00 -0.00000000000E+00 -0.16959928407E+04  0.16959928407E+04  0.00000000000E+00 0.  1.
         23    2    1    2    0    0  0.69482310999E+02  0.73186279230E+03 -0.26203884525E+03  0.78573771487E+03  0.90931082981E+02 0.  0.
        254    2    1    2    0    0 -0.69482310999E+02 -0.73186279230E+03 -0.87809397452E+03  0.14661151468E+04  0.91541993501E+03 0.  0.
         23    2    4    4    0    0 -0.30550315321E+03 -0.52830622059E+03 -0.10300225614E+03  0.62563914830E+03  0.91516336105E+02 0.  0.
         23    2    4    4    0    0  0.23602084221E+03 -0.20355657171E+03 -0.77509171838E+03  0.84047599855E+03  0.92149966823E+02 0.  0.
          4    1    3    3  502    0  0.92337374071E+01  0.25660794206E+03 -0.48828146579E+02  0.26137537324E+03  0.00000000000E+00 0. -1.
         -4    1    3    3    0  502  0.60248573592E+02  0.47525485024E+03 -0.21321069867E+03  0.52436234163E+03  0.00000000000E+00 0.  1.
         13    1    5    5    0    0 -0.31202017949E+03 -0.51654516345E+03 -0.98474589734E+02  0.61145134157E+03  0.00000000000E+00 0.  1.
        -13    1    5    5    0    0  0.65170262730E+01 -0.11761057141E+02 -0.45276664066E+01  0.14187806723E+02  0.00000000000E+00 0. -1.
          1    1    6    6  503    0  0.11884398929E+03 -0.11373460908E+03 -0.28991184150E+03  0.33332916305E+03  0.00000000000E+00 0. -1.
         -1    1    6    6    0  503  0.11717685292E+03 -0.89821962634E+02 -0.48517987688E+03  0.50714683550E+03  0.00000000000E+00 0.  1.
<mgrwt>
<rscale>  0 0.19418904E+04</rscale>
<asrwt>0</asrwt>
<pdfrwt beam="1">  1        2 0.85516927E-01 0.19418904E+04</pdfrwt>
<pdfrwt beam="2">  1       -2 0.26092197E+00 0.19418904E+04</pdfrwt>
<totfact> 0.27947777E+00</totfact>
</mgrwt>
</event>
<event>
12    3  0.4192740E-008  0.2396988E+04  0.7818608E-02  0.8440632E-01
          1   -1    0    0  501    0  0.00000000000E+00  0.00000000000E+00  0.64616857132E+03  0.64616857132E+03  0.00000000000E+00 0. -1.
         -1   -1    0    0    0  501 -0.00000000000E+00 -0.00000000000E+00 -0.22229304697E+04  0.22229304697E+04  0.00000000000E+00 0.  1.
         23    2    1    2    0    0  0.36363530679E+03 -0.69503098276E+03  0.11349159898E+03  0.79756411892E+03  0.89047613160E+02 0.  0.
        254    2    1    2    0    0 -0.36363530679E+03  0.69503098276E+03 -0.16902534974E+04  0.20715349221E+04  0.90498693071E+03 0.  0.
         23    2    4    4    0    0  0.41534287669E+02 -0.18109422102E+03 -0.16664326578E+03  0.26561823738E+03  0.90900253371E+02 0.  0.
         23    2    4    4    0    0 -0.40516959446E+03  0.87612520377E+03 -0.15236102316E+04  0.18059166847E+04  0.90493985255E+02 0.  0.
          3    1    3    3  502    0  0.32485268741E+03 -0.56531218258E+03  0.11551789973E+03  0.66215671668E+03  0.00000000000E+00 0. -1.
         -3    1    3    3    0  502  0.38782619384E+02 -0.12971880018E+03 -0.20263007461E+01  0.13540740224E+03  0.00000000000E+00 0.  1.
         13    1    5    5    0    0 -0.22441721660E+02 -0.10337542220E+03 -0.93569701607E+02  0.14122817652E+03  0.00000000000E+00 0.  1.
        -13    1    5    5    0    0  0.63976009329E+02 -0.77718798820E+02 -0.73073564176E+02  0.12439006086E+03  0.00000000000E+00 0. -1.
          2    1    6    6  503    0 -0.33044330305E+03  0.63080675351E+03 -0.11546842891E+04  0.13566155477E+04  0.00000000000E+00 0. -1.
         -2    1    6    6    0  503 -0.74726291405E+02  0.24531845026E+03 -0.36892594244E+03  0.44930113696E+03  0.00000000000E+00 0.  1.
<mgrwt>
<rscale>  0 0.23969879E+04</rscale>
<asrwt>0</asrwt>
<pdfrwt beam="1">  1        1 0.99410549E-01 0.23969879E+04</pdfrwt>
<pdfrwt beam="2">  1       -1 0.34198931E+00 0.23969879E+04</pdfrwt>
<totfact> 0.48368229E-01</totfact>
</mgrwt>
</event>
<event>
12    3  0.4192740E-008  0.2157566E+04  0.7818608E-02  0.8536300E-01
         -1   -1    0    0    0  501 -0.00000000000E+00  0.00000000000E+00  0.57885122264E+03  0.57885122264E+03  0.00000000000E+00 0.  1.
          1   -1    0    0  501    0  0.00000000000E+00 -0.00000000000E+00 -0.20104874047E+04  0.20104874047E+04  0.00000000000E+00 0. -1.
         23    2    1    2    0    0 -0.11110945201E+03 -0.66671057384E+03  0.99204234649E+02  0.68926343181E+03  0.91620405220E+02 0.  0.
        254    2    1    2    0    0  0.11110945201E+03  0.66671057384E+03 -0.15308404167E+04  0.19000751955E+04  0.89998059290E+03 0.  0.
         23    2    4    4    0    0  0.45630930623E+03  0.53679957665E+03 -0.75622262354E+03  0.10376318558E+04  0.91843580617E+02 0.  0.
         23    2    4    4    0    0 -0.34519985422E+03  0.12991099719E+03 -0.77461779313E+03  0.86244333973E+03  0.87954432821E+02 0.  0.
          1    1    3    3  502    0 -0.80637997937E+02 -0.22586470558E+03  0.45629985059E+02  0.24412998069E+03  0.00000000000E+00 0. -1.
         -1    1    3    3    0  502 -0.30471454070E+02 -0.44084586827E+03  0.53574249590E+02  0.44513345111E+03  0.00000000000E+00 0.  1.
         13    1    5    5    0    0  0.20075435951E+03  0.26562906059E+03 -0.29626732729E+03  0.44568535977E+03  0.00000000000E+00 0.  1.
        -13    1    5    5    0    0  0.25555494672E+03  0.27117051606E+03 -0.45995529626E+03  0.59194649600E+03  0.00000000000E+00 0. -1.
          1    1    6    6  503    0  0.39204356452E+01 -0.29572699198E+01 -0.17688273266E+02  0.18357294794E+02  0.00000000000E+00 0. -1.
         -1    1    6    6    0  503 -0.34912028987E+03  0.13286826711E+03 -0.75692951987E+03  0.84408604493E+03  0.00000000000E+00 0.  1.
<mgrwt>
<rscale>  0 0.21575663E+04</rscale>
<asrwt>0</asrwt>
<pdfrwt beam="1">  1        1 0.30930576E+00 0.21575663E+04</pdfrwt>
<pdfrwt beam="2">  1       -1 0.89054032E-01 0.21575663E+04</pdfrwt>
<totfact> 0.33164071E+00</totfact>
</mgrwt>
</event>
<event>
12    3  0.4192740E-008  0.1770015E+04  0.7818608E-02  0.8722410E-01
         -2   -1    0    0    0  501 -0.00000000000E+00  0.00000000000E+00  0.91675503041E+03  0.91675503041E+03  0.00000000000E+00 0. -1.
          2   -1    0    0  501    0  0.00000000000E+00 -0.00000000000E+00 -0.85435949280E+03  0.85435949280E+03  0.00000000000E+00 0.  1.
         23    2    1    2    0    0 -0.14688604928E+03 -0.19011910353E+03  0.63281718028E+03  0.68305776562E+03  0.91594445925E+02 0.  0.
        254    2    1    2    0    0  0.14688604928E+03  0.19011910353E+03 -0.57042164266E+03  0.10880567576E+04  0.89485522422E+03 0.  0.
         23    2    4    4    0    0  0.23258939081E+02 -0.38538446009E+02  0.22445262410E+03  0.24662294732E+03  0.91748065987E+02 0.  0.
         23    2    4    4    0    0  0.12362711020E+03  0.22865754953E+03 -0.79487426677E+03  0.84143381026E+03  0.92832212884E+02 0.  0.
          3    1    3    3  502    0 -0.80568578574E+02 -0.11913707111E+03  0.48741629118E+03  0.50819246203E+03  0.00000000000E+00 0. -1.
         -3    1    3    3    0  502 -0.66317470707E+02 -0.70982032419E+02  0.14540088910E+03  0.17486530359E+03  0.00000000000E+00 0.  1.
         13    1    5    5    0    0  0.86420632865E+01  0.30340349704E+02  0.61904859320E+02  0.69479735790E+02  0.00000000000E+00 0.  1.
        -13    1    5    5    0    0  0.14616875795E+02 -0.68878795713E+02  0.16254776478E+03  0.17714321153E+03  0.00000000000E+00 0. -1.
          4    1    6    6  503    0  0.12659001155E+03  0.15494356455E+03 -0.53114402076E+03  0.56757951866E+03  0.00000000000E+00 0. -1.
         -4    1    6    6    0  503 -0.29629013526E+01  0.73713984988E+02 -0.26373024601E+03  0.27385429160E+03  0.00000000000E+00 0.  1.
<mgrwt>
<rscale>  0 0.17700151E+04</rscale>
<asrwt>0</asrwt>
<pdfrwt beam="1">  1        2 0.13143992E+00 0.17700151E+04</pdfrwt>
<pdfrwt beam="2">  1       -2 0.14103924E+00 0.17700151E+04</pdfrwt>
<totfact> 0.10505283E+01</totfact>
</mgrwt>
</event>
<event>
12    3  0.4192740E-008  0.2104623E+04  0.7818608E-02  0.8559210E-01
          2   -1    0    0  501    0  0.00000000000E+00  0.00000000000E+00  0.87968910617E+03  0.87968910617E+03  0.00000000000E+00 0.  1.
         -2   -1    0    0    0  501 -0.00000000000E+00 -0.00000000000E+00 -0.12588079287E+04  0.12588079287E+04  0.00000000000E+00 0. -1.
         23    2    1    2    0    0 -0.40579783786E+03  0.28147027824E+03  0.55385388462E+03  0.74743300843E+03  0.89468284010E+02 0.  0.
        254    2    1    2    0    0  0.40579783786E+03 -0.28147027824E+03 -0.93297270713E+03  0.13910640264E+04  0.90593799490E+03 0.  0.
         23    2    4    4    0    0  0.66884629695E+03 -0.24733732248E+03 -0.50231293631E+03  0.87702478246E+03  0.91230822835E+02 0.  0.
         23    2    4    4    0    0 -0.26304845909E+03 -0.34132955756E+02 -0.43065977082E+03  0.51403924395E+03  0.91700357786E+02 0.  0.
          4    1    3    3  502    0 -0.14859190874E+03  0.76669657486E+02  0.13468867342E+03  0.21470638199E+03  0.00000000000E+00 0. -1.
         -4    1    3    3    0  502 -0.25720592912E+03  0.20480062075E+03  0.41916521120E+03  0.53272662644E+03  0.00000000000E+00 0.  1.
         13    1    5    5    0    0  0.10146032736E+03 -0.66685447264E+02 -0.61077329843E+02  0.13591021715E+03  0.00000000000E+00 0. -1.
        -13    1    5    5    0    0  0.56738596959E+03 -0.18065187522E+03 -0.44123560647E+03  0.74111456531E+03  0.00000000000E+00 0.  1.
          2    1    6    6  503    0 -0.19953675401E+02  0.23460797567E+02 -0.49824100142E+02  0.58574731237E+02  0.00000000000E+00 0. -1.
         -2    1    6    6    0  503 -0.24309478369E+03 -0.57593753323E+02 -0.38083567068E+03  0.45546451271E+03  0.00000000000E+00 0.  1.
<mgrwt>
<rscale>  0 0.21046231E+04</rscale>
<asrwt>0</asrwt>
<pdfrwt beam="1">  1        2 0.13533679E+00 0.21046231E+04</pdfrwt>
<pdfrwt beam="2">  1       -2 0.19366276E+00 0.21046231E+04</pdfrwt>
<totfact> 0.40835179E+00</totfact>
</mgrwt>
</event>
<event>
12    3  0.4192740E-008  0.2099348E+04  0.7818608E-02  0.8561530E-01
         -2   -1    0    0    0  501 -0.00000000000E+00  0.00000000000E+00  0.63129537975E+03  0.63129537975E+03  0.00000000000E+00 0.  1.
          2   -1    0    0  501    0  0.00000000000E+00 -0.00000000000E+00 -0.17453253612E+04  0.17453253612E+04  0.00000000000E+00 0. -1.
         23    2    1    2    0    0 -0.40339241121E+01  0.68216492274E+03 -0.10223298487E+04  0.12318793572E+04  0.83684985629E+02 0.  0.
        254    2    1    2    0    0  0.40339241121E+01 -0.68216492274E+03 -0.91700132674E+02  0.11447413837E+04  0.91469047596E+03 0.  0.
         23    2    4    4    0    0 -0.55528866597E+02  0.11630449100E+03  0.22755390059E+03  0.27800786332E+03  0.94326055468E+02 0.  0.
         23    2    4    4    0    0  0.59562790709E+02 -0.79846941373E+03 -0.31925403327E+03  0.86673352036E+03  0.90568906635E+02 0.  0.
          1    1    3    3  502    0 -0.30944099932E+02  0.31822700848E+03 -0.53140264877E+03  0.62017315434E+03  0.00000000000E+00 0. -1.
         -1    1    3    3    0  502  0.26910175820E+02  0.36393791426E+03 -0.49092719996E+03  0.61170620289E+03  0.00000000000E+00 0.  1.
         13    1    5    5    0    0  0.83952311675E+01  0.17092104077E+00 -0.53950699896E+01  0.99807765505E+01  0.00000000000E+00 0. -1.
        -13    1    5    5    0    0 -0.63924097765E+02  0.11613356996E+03  0.23294897058E+03  0.26802708677E+03  0.00000000000E+00 0.  1.
          1    1    6    6  503    0  0.95853352516E+01 -0.39539454559E+02  0.28084387938E+01  0.40781545424E+02  0.00000000000E+00 0. -1.
         -1    1    6    6    0  503  0.49977455458E+02 -0.75892995917E+03 -0.32206247206E+03  0.82595197493E+03  0.00000000000E+00 0.  1.
<mgrwt>
<rscale>  0 0.20993483E+04</rscale>
<asrwt>0</asrwt>
<pdfrwt beam="1">  1        2 0.26851159E+00 0.20993483E+04</pdfrwt>
<pdfrwt beam="2">  1       -2 0.97122366E-01 0.20993483E+04</pdfrwt>
<totfact> 0.75471478E+00</totfact>
</mgrwt>
</event>
<event>
12    3  0.4192740E-008  0.2065279E+04  0.7818608E-02  0.8576695E-01
         -1   -1    0    0    0  501 -0.00000000000E+00  0.00000000000E+00  0.57514500971E+03  0.57514500971E+03  0.00000000000E+00 0.  1.
          1   -1    0    0  501    0  0.00000000000E+00 -0.00000000000E+00 -0.18540434667E+04  0.18540434667E+04  0.00000000000E+00 0. -1.
         23    2    1    2    0    0 -0.75315323683E+03 -0.14108800242E+02 -0.10510403992E+03  0.76637320095E+03  0.94032800299E+02 0.  0.
        254    2    1    2    0    0  0.75315323683E+03  0.14108800242E+02 -0.11737944171E+04  0.16628152755E+04  0.90538524971E+03 0.  0.
         23    2    4    4    0    0  0.12916204652E+03 -0.37150313352E+03 -0.61768015773E+03  0.73780229938E+03  0.90144568540E+02 0.  0.
         23    2    4    4    0    0  0.62399119031E+03  0.38561193377E+03 -0.55611425935E+03  0.92501297610E+03  0.91237971523E+02 0.  0.
          3    1    3    3  502    0 -0.10160127391E+03  0.17410789138E+02  0.11492052308E+02  0.10372088365E+03  0.00000000000E+00 0. -1.
         -3    1    3    3    0  502 -0.65155196292E+03 -0.31519589380E+02 -0.11659609223E+03  0.66265231730E+03  0.00000000000E+00 0.  1.
         13    1    5    5    0    0  0.76350464673E+02 -0.10637004783E+03 -0.16632943340E+03  0.21168245309E+03  0.00000000000E+00 0.  1.
        -13    1    5    5    0    0  0.52811581850E+02 -0.26513308569E+03 -0.45135072433E+03  0.52611984629E+03  0.00000000000E+00 0. -1.
          2    1    6    6  503    0  0.25543590233E+03  0.14599704240E+03 -0.16923430525E+03  0.33941550740E+03  0.00000000000E+00 0. -1.
         -2    1    6    6    0  503  0.36855528798E+03  0.23961489137E+03 -0.38687995410E+03  0.58559746870E+03  0.00000000000E+00 0.  1.
<mgrwt>
<rscale>  0 0.20652785E+04</rscale>
<asrwt>0</asrwt>
<pdfrwt beam="1">  1        1 0.28523745E+00 0.20652785E+04</pdfrwt>
<pdfrwt beam="2">  1       -1 0.88483850E-01 0.20652785E+04</pdfrwt>
<totfact> 0.43300540E+00</totfact>
</mgrwt>
</event>
<event>
12    3  0.4192740E-008  0.2205719E+04  0.7818608E-02  0.8516052E-01
          2   -1    0    0  501    0  0.00000000000E+00  0.00000000000E+00  0.16669952641E+04  0.16669952641E+04  0.00000000000E+00 0. -1.
         -2   -1    0    0    0  501 -0.00000000000E+00 -0.00000000000E+00 -0.72963560588E+03  0.72963560588E+03  0.00000000000E+00 0.  1.
         23    2    1    2    0    0  0.57631584957E+03  0.48176979085E+01 -0.38869011201E+03  0.70099976340E+03  0.90318859804E+02 0.  0.
        254    2    1    2    0    0 -0.57631584957E+03 -0.48176979085E+01  0.13260497703E+04  0.16956311066E+04  0.88577293242E+03 0.  0.
         23    2    4    4    0    0 -0.46769160836E+03  0.36881009023E+03  0.10483948227E+04  0.12091381234E+04  0.90149731566E+02 0.  0.
         23    2    4    4    0    0 -0.10862424122E+03 -0.37362778814E+03  0.27765494757E+03  0.48649298318E+03  0.90477637688E+02 0.  0.
          3    1    3    3  502    0  0.18584638521E+03 -0.34656542690E+02 -0.10058357700E+03  0.21414250117E+03  0.00000000000E+00 0. -1.
         -3    1    3    3    0  502  0.39046946436E+03  0.39474240599E+02 -0.28810653501E+03  0.48685726223E+03  0.00000000000E+00 0.  1.
         13    1    5    5    0    0 -0.21944121552E+03  0.20155094284E+03  0.60153465870E+03  0.67128323027E+03  0.00000000000E+00 0.  1.
        -13    1    5    5    0    0 -0.24825039284E+03  0.16725914739E+03  0.44686016398E+03  0.53785489315E+03  0.00000000000E+00 0. -1.
          2    1    6    6  503    0 -0.21149281360E+02 -0.64209911479E+02  0.95285168599E+02  0.11683093849E+03  0.00000000000E+00 0. -1.
         -2    1    6    6    0  503 -0.87474959858E+02 -0.30941787666E+03  0.18236977897E+03  0.36966204469E+03  0.00000000000E+00 0.  1.
<mgrwt>
<rscale>  0 0.22057190E+04</rscale>
<asrwt>0</asrwt>
<pdfrwt beam="1">  1        2 0.25646081E+00 0.22057190E+04</pdfrwt>
<pdfrwt beam="2">  1       -2 0.11225163E+00 0.22057190E+04</pdfrwt>
<totfact> 0.58470040E+00</totfact>
</mgrwt>
</event>
<event>
12    3  0.4192740E-008  0.1516183E+04  0.7818608E-02  0.8873762E-01
         -2   -1    0    0    0  501 -0.00000000000E+00  0.00000000000E+00  0.32079660489E+03  0.32079660489E+03  0.00000000000E+00 0.  1.
          2   -1    0    0  501    0  0.00000000000E+00 -0.00000000000E+00 -0.17914852583E+04  0.17914852583E+04  0.00000000000E+00 0. -1.
         23    2    1    2    0    0 -0.29032029179E+03  0.24099031237E+03 -0.89976362683E+03  0.97926901370E+03  0.83851145181E+02 0.  0.
        254    2    1    2    0    0  0.29032029179E+03 -0.24099031237E+03 -0.57092502660E+03  0.11330128495E+04  0.90299530932E+03 0.  0.
         23    2    4    4    0    0  0.38397091161E+03 -0.37009686856E+03 -0.80606764191E+01  0.54099919018E+03  0.90607925683E+02 0.  0.
         23    2    4    4    0    0 -0.93650619816E+02  0.12910655619E+03 -0.56286435018E+03  0.59201365932E+03  0.90691535846E+02 0.  0.
          1    1    3    3  502    0 -0.15721405833E+03  0.17573640393E+03 -0.60505163659E+03  0.64937433484E+03  0.00000000000E+00 0. -1.
         -1    1    3    3    0  502 -0.13310623346E+03  0.65253908447E+02 -0.29471199024E+03  0.32989467887E+03  0.00000000000E+00 0.  1.
         13    1    5    5    0    0  0.66584585206E+02 -0.23504775825E+02  0.56907680437E+01  0.70840428532E+02  0.00000000000E+00 0. -1.
        -13    1    5    5    0    0  0.31738632640E+03 -0.34659209274E+03 -0.13751444463E+02  0.47015876165E+03  0.00000000000E+00 0.  1.
          2    1    6    6  503    0 -0.71051033424E+02  0.31631072770E+02 -0.32060159581E+03  0.32990022332E+03  0.00000000000E+00 0. -1.
         -2    1    6    6    0  503 -0.22599586392E+02  0.97475483419E+02 -0.24226275437E+03  0.26211343599E+03  0.00000000000E+00 0.  1.
<mgrwt>
<rscale>  0 0.15161826E+04</rscale>
<asrwt>0</asrwt>
<pdfrwt beam="1">  1        2 0.27561312E+00 0.15161826E+04</pdfrwt>
<pdfrwt beam="2">  1       -2 0.49353324E-01 0.15161826E+04</pdfrwt>
<totfact> 0.32712354E+01</totfact>
</mgrwt>
</event>
<event>
12    3  0.4192740E-008  0.1385873E+04  0.7818608E-02  0.8964108E-01
          2   -1    0    0  501    0  0.00000000000E+00  0.00000000000E+00  0.77555131987E+03  0.77555131987E+03  0.00000000000E+00 0. -1.
         -2   -1    0    0    0  501 -0.00000000000E+00 -0.00000000000E+00 -0.61912198675E+03  0.61912198675E+03  0.00000000000E+00 0.  1.
         23    2    1    2    0    0  0.82230668006E+02  0.12505437532E+03 -0.31698728234E+03  0.36216407970E+03  0.91002219286E+02 0.  0.
        254    2    1    2    0    0 -0.82230668006E+02 -0.12505437532E+03  0.47341661546E+03  0.10325092269E+04  0.90529085510E+03 0.  0.
         23    2    4    4    0    0  0.25895261462E+03  0.22779324625E+03  0.19384922493E+02  0.35766926611E+03  0.92764804990E+02 0.  0.
         23    2    4    4    0    0 -0.34118328263E+03 -0.35284762156E+03  0.45403169297E+03  0.67483996081E+03  0.91415086825E+02 0.  0.
          4    1    3    3  502    0  0.61622009399E+02  0.35112134308E+02 -0.75205418206E+02  0.10337305715E+03  0.00000000000E+00 0. -1.
         -4    1    3    3    0  502  0.20608658607E+02  0.89942241009E+02 -0.24178186413E+03  0.25879102254E+03  0.00000000000E+00 0.  1.
         13    1    5    5    0    0  0.36626283244E+02  0.63534437256E+02  0.34054514951E+02  0.80856782834E+02  0.00000000000E+00 0. -1.
        -13    1    5    5    0    0  0.22232633138E+03  0.16425880899E+03 -0.14669592458E+02  0.27681248327E+03  0.00000000000E+00 0.  1.
          3    1    6    6  503    0 -0.87655748910E+02 -0.39473029282E+02  0.83992667620E+02  0.12765742662E+03  0.00000000000E+00 0. -1.
         -3    1    6    6    0  503 -0.25352753371E+03 -0.31337459228E+03  0.37003902535E+03  0.54718253419E+03  0.00000000000E+00 0.  1.
<mgrwt>
<rscale>  0 0.13858728E+04</rscale>
<asrwt>0</asrwt>
<pdfrwt beam="1">  1        2 0.11931559E+00 0.13858728E+04</pdfrwt>
<pdfrwt beam="2">  1       -2 0.95249537E-01 0.13858728E+04</pdfrwt>
<totfact> 0.32401800E+01</totfact>
</mgrwt>
</event>
<event>
12    3  0.4192740E-008  0.1300429E+04  0.7818608E-02  0.9029225E-01
          1   -1    0    0  501    0  0.00000000000E+00  0.00000000000E+00  0.79754678074E+03  0.79754678074E+03  0.00000000000E+00 0. -1.
         -1   -1    0    0    0  501 -0.00000000000E+00 -0.00000000000E+00 -0.53009901667E+03  0.53009901667E+03  0.00000000000E+00 0.  1.
         23    2    1    2    0    0  0.10211333429E+03 -0.12893135698E+03 -0.22385713308E+03  0.29250890365E+03  0.91646139225E+02 0.  0.
        254    2    1    2    0    0 -0.10211333429E+03  0.12893135698E+03  0.49130489715E+03  0.10351368937E+04  0.89614589157E+03 0.  0.
         23    2    4    4    0    0 -0.76716640693E+02  0.50448213021E+03  0.22625990904E+03  0.56575174124E+03  0.92161942309E+02 0.  0.
         23    2    4    4    0    0 -0.25396693593E+02 -0.37555077323E+03  0.26504498811E+03  0.46938515251E+03  0.91598036848E+02 0.  0.
          1    1    3    3  502    0 -0.10395463784E+02  0.28893861964E+01 -0.32946554100E+02  0.34668280126E+02  0.00000000000E+00 0. -1.
         -1    1    3    3    0  502  0.11250879807E+03 -0.13182074318E+03 -0.19091057898E+03  0.25784062353E+03  0.00000000000E+00 0.  1.
         13    1    5    5    0    0  0.70454262294E+01  0.16091206073E+02 -0.59137946901E+01  0.18534775727E+02  0.00000000000E+00 0. -1.
        -13    1    5    5    0    0 -0.83762066922E+02  0.48839092414E+03  0.23217370373E+03  0.54721696551E+03  0.00000000000E+00 0.  1.
          1    1    6    6  503    0 -0.16022020968E+02 -0.14356975631E+03  0.49843602721E+02  0.15281807751E+03  0.00000000000E+00 0. -1.
         -1    1    6    6    0  503 -0.93746726242E+01 -0.23198101693E+03  0.21520138539E+03  0.31656707500E+03  0.00000000000E+00 0.  1.
<mgrwt>
<rscale>  0 0.13004288E+04</rscale>
<asrwt>0</asrwt>
<pdfrwt beam="1">  1        1 0.12269951E+00 0.13004288E+04</pdfrwt>
<pdfrwt beam="2">  1       -1 0.81553694E-01 0.13004288E+04</pdfrwt>
<totfact> 0.32693522E+01</totfact>
</mgrwt>
</event>
<event>
12    3  0.4192740E-008  0.1899501E+04  0.7818608E-02  0.8655105E-01
          3   -1    0    0  501    0  0.00000000000E+00  0.00000000000E+00  0.93515494743E+03  0.93515494743E+03  0.00000000000E+00 0. -1.
         -3   -1    0    0    0  501 -0.00000000000E+00 -0.00000000000E+00 -0.96457372225E+03  0.96457372225E+03  0.00000000000E+00 0.  1.
         23    2    1    2    0    0  0.98237972048E+01 -0.37452748681E+03  0.62203585880E+03  0.73193327572E+03  0.91817019689E+02 0.  0.
        254    2    1    2    0    0 -0.98237972048E+01  0.37452748681E+03 -0.65145463362E+03  0.11677953940E+04  0.89385994268E+03 0.  0.
         23    2    4    4    0    0  0.28006489151E+03 -0.14534811081E+03 -0.39249528246E+03  0.51190614077E+03  0.91831004734E+02 0.  0.
         23    2    4    4    0    0 -0.28988868872E+03  0.51987559761E+03 -0.25895935116E+03  0.65588925319E+03  0.93939757604E+02 0.  0.
          1    1    3    3  502    0 -0.20717831117E+02 -0.11534341527E+03  0.26433597842E+03  0.28914847650E+03  0.00000000000E+00 0.  1.
         -1    1    3    3    0  502  0.30541628322E+02 -0.25918407153E+03  0.35769988038E+03  0.44278479922E+03  0.00000000000E+00 0. -1.
         13    1    5    5    0    0  0.20745037086E+03 -0.59911143220E+02 -0.24380842231E+03  0.32568013178E+03  0.00000000000E+00 0.  1.
        -13    1    5    5    0    0  0.72614520656E+02 -0.85436967588E+02 -0.14868686015E+03  0.18622600898E+03  0.00000000000E+00 0. -1.
          1    1    6    6  503    0 -0.88184447825E+02  0.25273690518E+03 -0.10692831900E+03  0.28824660533E+03  0.00000000000E+00 0. -1.
         -1    1    6    6    0  503 -0.20170424089E+03  0.26713869243E+03 -0.15203103217E+03  0.36764264787E+03  0.00000000000E+00 0.  1.
<mgrwt>
<rscale>  0 0.18995009E+04</rscale>
<asrwt>0</asrwt>
<pdfrwt beam="1">  1        3 0.14386999E+00 0.18995009E+04</pdfrwt>
<pdfrwt beam="2">  1       -3 0.14839596E+00 0.18995009E+04</pdfrwt>
<totfact> 0.29254021E-01</totfact>
</mgrwt>
</event>
<event>
12    3  0.4192740E-008  0.2386268E+04  0.7818608E-02  0.8444663E-01
          2   -1    0    0  501    0  0.00000000000E+00  0.00000000000E+00  0.26759906360E+04  0.26759906360E+04  0.00000000000E+00 0.  1.
         -2   -1    0    0    0  501 -0.00000000000E+00 -0.00000000000E+00 -0.53197804398E+03  0.53197804398E+03  0.00000000000E+00 0. -1.
         23    2    1    2    0    0 -0.13463110039E+03 -0.48409862578E+03 -0.27391311110E+03  0.57978571350E+03  0.92984237814E+02 0.  0.
        254    2    1    2    0    0  0.13463110039E+03  0.48409862578E+03  0.24179257031E+04  0.26281829665E+04  0.89916849748E+03 0.  0.
         23    2    4    4    0    0 -0.20602480013E+03  0.60286615156E+03  0.17288297063E+04  0.18447893656E+04  0.92205396184E+02 0.  0.
         23    2    4    4    0    0  0.34065590051E+03 -0.11876752578E+03  0.68909599687E+03  0.78339360094E+03  0.93274183711E+02 0.  0.
          3    1    3    3  502    0 -0.73982062412E+02 -0.35121227490E+03 -0.15303053535E+03  0.39018169146E+03  0.00000000000E+00 0. -1.
         -3    1    3    3    0  502 -0.60649037973E+02 -0.13288635088E+03 -0.12088257575E+03  0.18960402205E+03  0.00000000000E+00 0.  1.
         13    1    5    5    0    0 -0.46673093867E+01  0.44912769073E+02  0.72121507258E+02  0.85090847991E+02  0.00000000000E+00 0. -1.
        -13    1    5    5    0    0 -0.20135749074E+03  0.55795338249E+03  0.16567081990E+04  0.17596985176E+04  0.00000000000E+00 0.  1.
          1    1    6    6  503    0  0.25565039489E+02  0.65591247041E+01  0.19455387255E+02  0.32788800744E+02  0.00000000000E+00 0. -1.
         -1    1    6    6    0  503  0.31509086102E+03 -0.12532665049E+03  0.66964060962E+03  0.75060480019E+03  0.00000000000E+00 0.  1.
<mgrwt>
<rscale>  0 0.23862676E+04</rscale>
<asrwt>0</asrwt>
<pdfrwt beam="1">  1        2 0.41169086E+00 0.23862676E+04</pdfrwt>
<pdfrwt beam="2">  1       -2 0.81842777E-01 0.23862676E+04</pdfrwt>
<totfact> 0.32440516E+00</totfact>
</mgrwt>
</event>
<event>
12    3  0.4192740E-008  0.1676963E+04  0.7818608E-02  0.8774614E-01
          2   -1    0    0  501    0  0.00000000000E+00  0.00000000000E+00  0.91004336236E+03  0.91004336236E+03  0.00000000000E+00 0. -1.
         -2   -1    0    0    0  501 -0.00000000000E+00 -0.00000000000E+00 -0.77254657946E+03  0.77254657946E+03  0.00000000000E+00 0.  1.
         23    2    1    2    0    0  0.42481879879E+03  0.14443149575E+03 -0.33837591474E+03  0.56880497507E+03  0.87803025110E+02 0.  0.
        254    2    1    2    0    0 -0.42481879879E+03 -0.14443149575E+03  0.47587269764E+03  0.11137849668E+04  0.90151575640E+03 0.  0.
         23    2    4    4    0    0 -0.20698859944E+03 -0.20597172536E+03 -0.21949503767E+03  0.37749944798E+03  0.95179460581E+02 0.  0.
         23    2    4    4    0    0 -0.21783019935E+03  0.61540229610E+02  0.69536773531E+03  0.73628551878E+03  0.85690619336E+02 0.  0.
          2    1    3    3  502    0  0.28260266131E+03  0.54134190269E+02 -0.19500612472E+03  0.34759482651E+03  0.00000000000E+00 0. -1.
         -2    1    3    3    0  502  0.14221613747E+03  0.90297305482E+02 -0.14336979002E+03  0.22121014856E+03  0.00000000000E+00 0.  1.
         13    1    5    5    0    0 -0.18847631768E+03 -0.17942048853E+03 -0.14883345795E+03  0.29977730440E+03  0.00000000000E+00 0. -1.
        -13    1    5    5    0    0 -0.18512281759E+02 -0.26551236830E+02 -0.70661579721E+02  0.77722143574E+02  0.00000000000E+00 0.  1.
          4    1    6    6  503    0 -0.22198924662E+03  0.59516629193E+02  0.69455059862E+03  0.73158867461E+03  0.00000000000E+00 0. -1.
         -4    1    6    6    0  503  0.41590472663E+01  0.20236004170E+01  0.81713668720E+00  0.46968441721E+01  0.00000000000E+00 0.  1.
<mgrwt>
<rscale>  0 0.16769626E+04</rscale>
<asrwt>0</asrwt>
<pdfrwt beam="1">  1        2 0.14000667E+00 0.16769626E+04</pdfrwt>
<pdfrwt beam="2">  1       -2 0.11885332E+00 0.16769626E+04</pdfrwt>
<totfact> 0.14965050E+01</totfact>
</mgrwt>
</event>
<event>
12    3  0.4192740E-008  0.1858345E+04  0.7818608E-02  0.8675873E-01
          1   -1    0    0  501    0  0.00000000000E+00  0.00000000000E+00  0.13840075306E+04  0.13840075306E+04  0.00000000000E+00 0. -1.
         -1   -1    0    0    0  501 -0.00000000000E+00 -0.00000000000E+00 -0.62381275289E+03  0.62381275289E+03  0.00000000000E+00 0.  1.
         23    2    1    2    0    0  0.70355529121E+03  0.66168250809E+02  0.26073761517E+03  0.75866226887E+03  0.90642424044E+02 0.  0.
        254    2    1    2    0    0 -0.70355529121E+03 -0.66168250809E+02  0.49945716251E+03  0.12491580146E+04  0.90087180167E+03 0.  0.
         23    2    4    4    0    0  0.13331357393E+03  0.13189366886E+03 -0.65409862282E+02  0.21567706336E+03  0.84081488426E+02 0.  0.
         23    2    4    4    0    0 -0.83686886514E+03 -0.19806191967E+03  0.56486702479E+03  0.10334809512E+04  0.97108698971E+02 0.  0.
          3    1    3    3  502    0  0.17334505354E+03 -0.21657701346E+02  0.73834061007E+02  0.18965503468E+03  0.00000000000E+00 0. -1.
         -3    1    3    3    0  502  0.53021023767E+03  0.87825952155E+02  0.18690355417E+03  0.56900723419E+03  0.00000000000E+00 0.  1.
         13    1    5    5    0    0  0.12706108933E+03  0.14330428486E+03 -0.66203759477E+02  0.20264149686E+03  0.00000000000E+00 0.  1.
        -13    1    5    5    0    0  0.62524846007E+01 -0.11410616000E+02  0.79389719581E+00  0.13035566499E+02  0.00000000000E+00 0. -1.
          3    1    6    6  503    0 -0.59155549855E+03 -0.11725278999E+03  0.34829044320E+03  0.69641392681E+03  0.00000000000E+00 0. -1.
         -3    1    6    6    0  503 -0.24531336659E+03 -0.80809129677E+02  0.21657658159E+03  0.33706702443E+03  0.00000000000E+00 0.  1.
<mgrwt>
<rscale>  0 0.18583450E+04</rscale>
<asrwt>0</asrwt>
<pdfrwt beam="1">  1        1 0.21292424E+00 0.18583450E+04</pdfrwt>
<pdfrwt beam="2">  1       -1 0.95971193E-01 0.18583450E+04</pdfrwt>
<totfact> 0.77474658E+00</totfact>
</mgrwt>
</event>
<event>
12    3  0.4192740E-008  0.1605409E+04  0.7818608E-02  0.8817232E-01
         -2   -1    0    0    0  501 -0.00000000000E+00  0.00000000000E+00  0.31642569923E+03  0.31642569923E+03  0.00000000000E+00 0. -1.
          2   -1    0    0  501    0  0.00000000000E+00 -0.00000000000E+00 -0.20362905725E+04  0.20362905725E+04  0.00000000000E+00 0.  1.
         23    2    1    2    0    0 -0.26917127404E+03  0.34689493171E+03 -0.11293423491E+03  0.46004198218E+03  0.78071861385E+02 0.  0.
        254    2    1    2    0    0  0.26917127404E+03 -0.34689493171E+03 -0.16069306384E+04  0.18926742896E+04  0.89844344366E+03 0.  0.
         23    2    4    4    0    0  0.30179086748E+02  0.32337685524E+02  0.86631834217E+02  0.13832260551E+03  0.98344116819E+02 0.  0.
         23    2    4    4    0    0  0.23899218729E+03 -0.37923261723E+03 -0.16935624726E+04  0.17543516841E+04  0.93066316414E+02 0.  0.
          1    1    3    3  502    0 -0.23292511356E+03  0.28928789593E+03 -0.65636880438E+02  0.37716017199E+03  0.00000000000E+00 0. -1.
         -1    1    3    3    0  502 -0.36246160477E+02  0.57607035777E+02 -0.47297354476E+02  0.82881810192E+02  0.00000000000E+00 0.  1.
         13    1    5    5    0    0  0.39219599968E+01  0.50244964326E+02  0.93121500593E+02  0.10588461684E+03  0.00000000000E+00 0.  1.
        -13    1    5    5    0    0  0.26257126751E+02 -0.17907278802E+02 -0.64896663756E+01  0.32437988671E+02  0.00000000000E+00 0. -1.
          3    1    6    6  503    0  0.24145830394E+03 -0.38286242183E+03 -0.16640147976E+04  0.17244799197E+04  0.00000000000E+00 0.  1.
         -3    1    6    6    0  503 -0.24661166505E+01  0.36298045985E+01 -0.29547674974E+02  0.29871764413E+02  0.00000000000E+00 0. -1.
<mgrwt>
<rscale>  0 0.16054092E+04</rscale>
<asrwt>0</asrwt>
<pdfrwt beam="1">  1        2 0.31327546E+00 0.16054092E+04</pdfrwt>
<pdfrwt beam="2">  1       -2 0.48680878E-01 0.16054092E+04</pdfrwt>
<totfact> 0.24435548E+01</totfact>
</mgrwt>
</event>
<event>
12    3  0.4192740E-008  0.2918794E+04  0.7818608E-02  0.8267308E-01
         -2   -1    0    0    0  501 -0.00000000000E+00  0.00000000000E+00  0.64808968909E+03  0.64808968909E+03  0.00000000000E+00 0.  1.
          2   -1    0    0  501    0  0.00000000000E+00 -0.00000000000E+00 -0.32863337282E+04  0.32863337282E+04  0.00000000000E+00 0. -1.
         23    2    1    2    0    0 -0.24068360050E+03  0.12444916103E+04 -0.67011490607E+03  0.14367997758E+04  0.93014217836E+02 0.  0.
        254    2    1    2    0    0  0.24068360050E+03 -0.12444916103E+04 -0.19681291330E+04  0.24976236415E+04  0.87057659419E+03 0.  0.
         23    2    4    4    0    0  0.94133222038E+02 -0.94559419475E+03 -0.70167463747E+03  0.11845575766E+04  0.88430259461E+02 0.  0.
         23    2    4    4    0    0  0.14655037846E+03 -0.29889741560E+03 -0.12664544956E+04  0.13130660649E+04  0.97050620195E+02 0.  0.
          2    1    3    3  502    0 -0.14747543926E+03  0.96807565770E+03 -0.51842507182E+03  0.11080090430E+04  0.00000000000E+00 0. -1.
         -2    1    3    3    0  502 -0.93208161242E+02  0.27641595265E+03 -0.15168983425E+03  0.32879073286E+03  0.00000000000E+00 0.  1.
         13    1    5    5    0    0  0.12657576473E+02 -0.96592827589E+02 -0.40974547603E+02  0.10568491915E+03  0.00000000000E+00 0.  1.
        -13    1    5    5    0    0  0.81475645565E+02 -0.84900136716E+03 -0.66070008987E+03  0.10788726575E+04  0.00000000000E+00 0. -1.
          2    1    6    6  503    0  0.13276936956E+03 -0.26760134402E+03 -0.12157146863E+04  0.12518787414E+04  0.00000000000E+00 0. -1.
         -2    1    6    6    0  503  0.13781008898E+02 -0.31296071578E+02 -0.50739809298E+02  0.61187323443E+02  0.00000000000E+00 0.  1.
<mgrwt>
<rscale>  0 0.29187936E+04</rscale>
<asrwt>0</asrwt>
<pdfrwt beam="1">  1        2 0.50558981E+00 0.29187936E+04</pdfrwt>
<pdfrwt beam="2">  1       -2 0.99706106E-01 0.29187936E+04</pdfrwt>
<totfact> 0.81483572E-01</totfact>
</mgrwt>
</event>
<event>
12    3  0.4192740E-008  0.1713158E+04  0.7818608E-02  0.8753895E-01
         -1   -1    0    0    0  501 -0.00000000000E+00  0.00000000000E+00  0.67377420674E+03  0.67377420674E+03  0.00000000000E+00 0.  1.
          1   -1    0    0  501    0  0.00000000000E+00 -0.00000000000E+00 -0.10889811299E+04  0.10889811299E+04  0.00000000000E+00 0. -1.
         23    2    1    2    0    0 -0.30864156152E+02 -0.32615522251E+03  0.35265880143E+03  0.48995080105E+03  0.91398752300E+02 0.  0.
        254    2    1    2    0    0  0.30864156152E+02  0.32615522251E+03 -0.76786572457E+03  0.12728045356E+04  0.96077249623E+03 0.  0.
         23    2    4    4    0    0  0.17795073578E+03 -0.22440438423E+03 -0.60007165940E+03  0.67119947921E+03  0.91645798901E+02 0.  0.
         23    2    4    4    0    0 -0.14708657962E+03  0.55055960673E+03 -0.16779406518E+03  0.60160505637E+03  0.94991857918E+02 0.  0.
          1    1    3    3  502    0  0.32034497765E+02 -0.11930988019E+03  0.13963041346E+03  0.18643419461E+03  0.00000000000E+00 0. -1.
         -1    1    3    3    0  502 -0.62898653918E+02 -0.20684534232E+03  0.21302838796E+03  0.30351660644E+03  0.00000000000E+00 0.  1.
         13    1    5    5    0    0  0.29879413396E+02 -0.34191765488E+01 -0.10459003761E+03  0.10882805742E+03  0.00000000000E+00 0.  1.
        -13    1    5    5    0    0  0.14807132238E+03 -0.22098520768E+03 -0.49548162178E+03  0.56237142179E+03  0.00000000000E+00 0. -1.
          4    1    6    6  503    0 -0.54135421578E+02  0.37603590740E+03 -0.10543346475E+03  0.39427130635E+03  0.00000000000E+00 0. -1.
         -4    1    6    6    0  503 -0.92951158046E+02  0.17452369933E+03 -0.62360600431E+02  0.20733375002E+03  0.00000000000E+00 0.  1.
<mgrwt>
<rscale>  0 0.17131578E+04</rscale>
<asrwt>0</asrwt>
<pdfrwt beam="1">  1        1 0.16753556E+00 0.17131578E+04</pdfrwt>
<pdfrwt beam="2">  1       -1 0.10365757E+00 0.17131578E+04</pdfrwt>
<totfact> 0.10779015E+01</totfact>
</mgrwt>
</event>
<event>
12    3  0.4192740E-008  0.3163431E+04  0.7818608E-02  0.8198542E-01
          1   -1    0    0  501    0  0.00000000000E+00  0.00000000000E+00  0.17613358729E+04  0.17613358729E+04  0.00000000000E+00 0. -1.
         -1   -1    0    0    0  501 -0.00000000000E+00 -0.00000000000E+00 -0.14204129873E+04  0.14204129873E+04  0.00000000000E+00 0.  1.
         23    2    1    2    0    0  0.13349650029E+04  0.22305610628E+03 -0.37271647025E+03  0.14069383965E+04  0.93126251806E+02 0.  0.
        254    2    1    2    0    0 -0.13349650029E+04 -0.22305610628E+03  0.71363935581E+03  0.17748104637E+04  0.89932500596E+03 0.  0.
         23    2    4    4    0    0 -0.40987215410E+03 -0.40363889789E+03 -0.10721204383E+02  0.58254258187E+03  0.91221559241E+02 0.  0.
         23    2    4    4    0    0 -0.92509284883E+03  0.18058279161E+03  0.72436056019E+03  0.11922678818E+04  0.91638187099E+02 0.  0.
          3    1    3    3  502    0  0.26030011412E+03  0.12272679134E+02 -0.92456042860E+02  0.27650477017E+03  0.00000000000E+00 0. -1.
         -3    1    3    3    0  502  0.10746648888E+04  0.21078342714E+03 -0.28026042739E+03  0.11304336263E+04  0.00000000000E+00 0.  1.
         13    1    5    5    0    0 -0.23414556764E+02 -0.55288680888E+02 -0.16341491618E+02  0.62226393525E+02  0.00000000000E+00 0. -1.
        -13    1    5    5    0    0 -0.38645759734E+03 -0.34835021700E+03  0.56202872351E+01  0.52031618834E+03  0.00000000000E+00 0.  1.
          2    1    6    6  503    0 -0.17299335437E+03  0.67345360036E+02  0.12323520782E+03  0.22282058842E+03  0.00000000000E+00 0. -1.
         -2    1    6    6    0  503 -0.75209949445E+03  0.11323743157E+03  0.60112535237E+03  0.96944729342E+03  0.00000000000E+00 0.  1.
<mgrwt>
<rscale>  0 0.31634313E+04</rscale>
<asrwt>0</asrwt>
<pdfrwt beam="1">  1        1 0.27097475E+00 0.31634313E+04</pdfrwt>
<pdfrwt beam="2">  1       -1 0.21852507E+00 0.31634313E+04</pdfrwt>
<totfact> 0.40902751E-01</totfact>
</mgrwt>
</event>
<event>
12    3  0.4192740E-008  0.1647870E+04  0.7818608E-02  0.8791668E-01
         -2   -1    0    0    0  501 -0.00000000000E+00  0.00000000000E+00  0.61684253962E+03  0.61684253962E+03  0.00000000000E+00 0.  1.
          2   -1    0    0  501    0  0.00000000000E+00 -0.00000000000E+00 -0.11005540570E+04  0.11005540570E+04  0.00000000000E+00 0. -1.
         23    2    1    2    0    0  0.21883551490E+03  0.29797429209E+03 -0.62875069059E+03  0.73473405282E+03  0.88481840695E+02 0.  0.
        254    2    1    2    0    0 -0.21883551490E+03 -0.29797429209E+03  0.14503917320E+03  0.98266254381E+03  0.89883905785E+03 0.  0.
         23    2    4    4    0    0 -0.31876281873E+02  0.22600076234E+03 -0.20408430799E+03  0.31952663822E+03  0.91402548322E+02 0.  0.
         23    2    4    4    0    0 -0.18695923303E+03 -0.52397505443E+03  0.34912348119E+03  0.66313590559E+03  0.91424349556E+02 0.  0.
          1    1    3    3  502    0  0.56831713293E+02  0.13936848607E+03 -0.29629675071E+03  0.33233294003E+03  0.00000000000E+00 0. -1.
         -1    1    3    3    0  502  0.16200380161E+03  0.15860580602E+03 -0.33245393988E+03  0.40240111280E+03  0.00000000000E+00 0.  1.
         13    1    5    5    0    0 -0.49054491965E+02  0.20681147968E+03 -0.15163424081E+03  0.26109437814E+03  0.00000000000E+00 0.  1.
        -13    1    5    5    0    0  0.17178210092E+02  0.19189282660E+02 -0.52450067182E+02  0.58432260082E+02  0.00000000000E+00 0. -1.
          2    1    6    6  503    0 -0.13166877868E+03 -0.23330670013E+03  0.16344201572E+03  0.31381838076E+03  0.00000000000E+00 0. -1.
         -2    1    6    6    0  503 -0.55290454352E+02 -0.29066835430E+03  0.18568146547E+03  0.34931752483E+03  0.00000000000E+00 0.  1.
<mgrwt>
<rscale>  0 0.16478696E+04</rscale>
<asrwt>0</asrwt>
<pdfrwt beam="1">  1        2 0.16931601E+00 0.16478696E+04</pdfrwt>
<pdfrwt beam="2">  1       -2 0.94898854E-01 0.16478696E+04</pdfrwt>
<totfact> 0.19436315E+01</totfact>
</mgrwt>
</event>
<event>
12    3  0.4192740E-008  0.1290426E+04  0.7818608E-02  0.9037192E-01
          2   -1    0    0  501    0  0.00000000000E+00  0.00000000000E+00  0.20985623280E+04  0.20985623280E+04  0.00000000000E+00 0. -1.
         -2   -1    0    0    0  501 -0.00000000000E+00 -0.00000000000E+00 -0.19837393985E+03  0.19837393985E+03  0.00000000000E+00 0.  1.
         23    2    1    2    0    0 -0.34523408102E+02  0.40593742433E+02 -0.71518210161E+02  0.12708955988E+03  0.90538302464E+02 0.  0.
        254    2    1    2    0    0  0.34523408102E+02 -0.40593742433E+02  0.19717065983E+04  0.21698467079E+04  0.90430531826E+03 0.  0.
         23    2    4    4    0    0  0.11642891776E+03 -0.43076170803E+03  0.13640297698E+04  0.14386621439E+04  0.10030059539E+03 0.  0.
         23    2    4    4    0    0 -0.81905509659E+02  0.39016796560E+03  0.60767682848E+03  0.73118456403E+03  0.80126056375E+02 0.  0.
          1    1    3    3  502    0  0.74944928140E+01  0.54237469543E+02 -0.17874989239E+02  0.57596751343E+02  0.00000000000E+00 0. -1.
         -1    1    3    3    0  502 -0.42017900916E+02 -0.13643727110E+02 -0.53643220922E+02  0.69492808532E+02  0.00000000000E+00 0.  1.
         13    1    5    5    0    0  0.84059164414E+02 -0.30633377699E+03  0.81353945432E+03  0.87335718339E+03  0.00000000000E+00 0. -1.
        -13    1    5    5    0    0  0.32369753348E+02 -0.12442793104E+03  0.55049031547E+03  0.56530496051E+03  0.00000000000E+00 0.  1.
          4    1    6    6  503    0 -0.29312904035E+02  0.25144436105E+03  0.32516454137E+03  0.41208675301E+03  0.00000000000E+00 0. -1.
         -4    1    6    6    0  503 -0.52592605624E+02  0.13872360455E+03  0.28251228711E+03  0.31909781101E+03  0.00000000000E+00 0.  1.
<mgrwt>
<rscale>  0 0.12904264E+04</rscale>
<asrwt>0</asrwt>
<pdfrwt beam="1">  1        2 0.32285573E+00 0.12904264E+04</pdfrwt>
<pdfrwt beam="2">  1       -2 0.30519069E-01 0.12904264E+04</pdfrwt>
<totfact> 0.57422929E+01</totfact>
</mgrwt>
</event>
<event>
12    3  0.4192740E-008  0.1988671E+04  0.7818608E-02  0.8611936E-01
         -2   -1    0    0    0  501 -0.00000000000E+00  0.00000000000E+00  0.93809859729E+03  0.93809859729E+03  0.00000000000E+00 0. -1.
          2   -1    0    0  501    0  0.00000000000E+00 -0.00000000000E+00 -0.10539439858E+04  0.10539439858E+04  0.00000000000E+00 0.  1.
         23    2    1    2    0    0 -0.67370320756E+03 -0.42198819741E+03 -0.27594289549E+02  0.80081427940E+03  0.92693120804E+02 0.  0.
        254    2    1    2    0    0  0.67370320756E+03  0.42198819741E+03 -0.88251098985E+02  0.11912283037E+04  0.88277209090E+03 0.  0.
         23    2    4    4    0    0  0.26803517293E+03  0.12776736091E+03 -0.46426985975E+03  0.55842413491E+03  0.90131344896E+02 0.  0.
         23    2    4    4    0    0  0.40566803463E+03  0.29422083650E+03  0.37601876077E+03  0.63280416881E+03  0.88986249817E+02 0.  0.
          1    1    3    3  502    0 -0.51070579969E+02 -0.96552717618E+01 -0.14312318511E+02  0.53909840218E+02  0.00000000000E+00 0. -1.
         -1    1    3    3    0  502 -0.62263262759E+03 -0.41233292565E+03 -0.13281971038E+02  0.74690443918E+03  0.00000000000E+00 0.  1.
         13    1    5    5    0    0  0.17055163553E+03  0.12635510970E+03 -0.30230976934E+03  0.36938417774E+03  0.00000000000E+00 0.  1.
        -13    1    5    5    0    0  0.97483537395E+02  0.14122512005E+01 -0.16196009042E+03  0.18903995716E+03  0.00000000000E+00 0. -1.
          2    1    6    6  503    0  0.23786401687E+03  0.20507609444E+03  0.19093749187E+03  0.36754948079E+03  0.00000000000E+00 0. -1.
         -2    1    6    6    0  503  0.16780401777E+03  0.89144742059E+02  0.18508126890E+03  0.26525468801E+03  0.00000000000E+00 0.  1.
<mgrwt>
<rscale>  0 0.19886713E+04</rscale>
<asrwt>0</asrwt>
<pdfrwt beam="1">  1        2 0.16214523E+00 0.19886713E+04</pdfrwt>
<pdfrwt beam="2">  1       -2 0.14432286E+00 0.19886713E+04</pdfrwt>
<totfact> 0.71796890E+00</totfact>
</mgrwt>
</event>
<event>
12    3  0.4192740E-008  0.1342369E+04  0.7818608E-02  0.8996625E-01
          1   -1    0    0  501    0  0.00000000000E+00  0.00000000000E+00  0.18632324368E+04  0.18632324368E+04  0.00000000000E+00 0. -1.
         -1   -1    0    0    0  501 -0.00000000000E+00 -0.00000000000E+00 -0.24177788741E+03  0.24177788741E+03  0.00000000000E+00 0.  1.
         23    2    1    2    0    0  0.11336093128E+03 -0.15542747036E+03  0.94597422168E+03  0.96973391363E+03  0.92240099020E+02 0.  0.
        254    2    1    2    0    0 -0.11336093128E+03  0.15542747036E+03  0.67548032772E+03  0.11352764106E+04  0.89194756351E+03 0.  0.
         23    2    4    4    0    0 -0.27745111398E+03 -0.28832507806E+03  0.42853959390E+03  0.59349374582E+03  0.92076986812E+02 0.  0.
         23    2    4    4    0    0  0.16409018270E+03  0.44375254843E+03  0.24694073382E+03  0.54178266478E+03  0.93310329240E+02 0.  0.
          4    1    3    3  502    0  0.86442683493E+02 -0.42480586322E+02  0.47406020486E+03  0.48374581712E+03  0.00000000000E+00 0. -1.
         -4    1    3    3    0  502  0.26918247783E+02 -0.11294688404E+03  0.47191401682E+03  0.48598809651E+03  0.00000000000E+00 0.  1.
         13    1    5    5    0    0 -0.11953355830E+03 -0.15276539563E+03  0.26707672779E+03  0.33008410472E+03  0.00000000000E+00 0. -1.
        -13    1    5    5    0    0 -0.15791755568E+03 -0.13555968243E+03  0.16146286611E+03  0.26340964110E+03  0.00000000000E+00 0.  1.
          2    1    6    6  503    0  0.96236260731E+02  0.26883118325E+03  0.96853536970E+02  0.30151655110E+03  0.00000000000E+00 0. -1.
         -2    1    6    6    0  503  0.67853921972E+02  0.17492136518E+03  0.15008719685E+03  0.24026611368E+03  0.00000000000E+00 0.  1.
<mgrwt>
<rscale>  0 0.13423687E+04</rscale>
<asrwt>0</asrwt>
<pdfrwt beam="1">  1        1 0.28665113E+00 0.13423687E+04</pdfrwt>
<pdfrwt beam="2">  1       -1 0.37196599E-01 0.13423687E+04</pdfrwt>
<totfact> 0.25145267E+01</totfact>
</mgrwt>
</event>
<event>
12    3  0.4192740E-008  0.2085626E+04  0.7818608E-02  0.8567602E-01
         -1   -1    0    0    0  501 -0.00000000000E+00  0.00000000000E+00  0.69599215804E+03  0.69599215804E+03  0.00000000000E+00 0. -1.
          1   -1    0    0  501    0  0.00000000000E+00 -0.00000000000E+00 -0.15624585192E+04  0.15624585192E+04  0.00000000000E+00 0.  1.
         23    2    1    2    0    0  0.49714377201E+03 -0.59814010632E+03 -0.49314865607E+01  0.78332276262E+03  0.92987709126E+02 0.  0.
        254    2    1    2    0    0 -0.49714377201E+03  0.59814010632E+03 -0.86153487464E+03  0.14751279147E+04  0.91040458453E+03 0.  0.
         23    2    4    4    0    0 -0.73424918048E+03  0.32049350879E+03 -0.47770190804E+03  0.93792734752E+03  0.98339453256E+02 0.  0.
         23    2    4    4    0    0  0.23710540847E+03  0.27764659753E+03 -0.38383296660E+03  0.53720056713E+03  0.89163306544E+02 0.  0.
          2    1    3    3  502    0  0.15074903695E+03 -0.22367162682E+03  0.33303337274E+02  0.27177818356E+03  0.00000000000E+00 0. -1.
         -2    1    3    3    0  502  0.34639473506E+03 -0.37446847950E+03 -0.38234823835E+02  0.51154457906E+03  0.00000000000E+00 0.  1.
         13    1    5    5    0    0 -0.15243774003E+03  0.32167258370E+02 -0.11947764886E+03  0.19633365905E+03  0.00000000000E+00 0.  1.
        -13    1    5    5    0    0 -0.58181144045E+03  0.28832625042E+03 -0.35822425917E+03  0.74159368847E+03  0.00000000000E+00 0. -1.
          4    1    6    6  503    0  0.22330315615E+03  0.24869539603E+03 -0.37804338814E+03  0.50460925761E+03  0.00000000000E+00 0. -1.
         -4    1    6    6    0  503  0.13802252324E+02  0.28951201502E+02 -0.57895784592E+01  0.32591309522E+02  0.00000000000E+00 0.  1.
<mgrwt>
<rscale>  0 0.20856259E+04</rscale>
<asrwt>0</asrwt>
<pdfrwt beam="1">  1        1 0.24037823E+00 0.20856259E+04</pdfrwt>
<pdfrwt beam="2">  1       -1 0.10707572E+00 0.20856259E+04</pdfrwt>
<totfact> 0.44346510E+00</totfact>
</mgrwt>
</event>
<event>
12    3  0.4192740E-008  0.1307198E+04  0.7818608E-02  0.9023877E-01
          1   -1    0    0  501    0  0.00000000000E+00  0.00000000000E+00  0.20797996080E+04  0.20797996080E+04  0.00000000000E+00 0. -1.
         -1   -1    0    0    0  501 -0.00000000000E+00 -0.00000000000E+00 -0.20540025633E+03  0.20540025633E+03  0.00000000000E+00 0.  1.
         23    2    1    2    0    0  0.16476150659E+03 -0.17322696720E+03  0.11627306142E+03  0.28415969204E+03  0.10036617732E+03 0.  0.
        254    2    1    2    0    0 -0.16476150659E+03  0.17322696720E+03  0.17581262903E+04  0.20010401723E+04  0.92520256291E+03 0.  0.
         23    2    4    4    0    0  0.74631916037E+02  0.45466134363E+03  0.14047930440E+04  0.14812986158E+04  0.92278016556E+02 0.  0.
         23    2    4    4    0    0 -0.23939342262E+03 -0.28143437642E+03  0.35333324626E+03  0.51974155652E+03  0.93661003808E+02 0.  0.
          4    1    3    3  502    0  0.66547488316E+02 -0.10537654201E+03  0.10728963905E+03  0.16445014580E+03  0.00000000000E+00 0. -1.
         -4    1    3    3    0  502  0.98214018271E+02 -0.67850425200E+02  0.89834223749E+01  0.11970954625E+03  0.00000000000E+00 0.  1.
         13    1    5    5    0    0  0.81416606798E+02  0.41078619924E+03  0.11785693998E+04  0.12507596873E+04  0.00000000000E+00 0. -1.
        -13    1    5    5    0    0 -0.67846907610E+01  0.43875144386E+02  0.22622364424E+03  0.23053892846E+03  0.00000000000E+00 0.  1.
          4    1    6    6  503    0 -0.13535304516E+03 -0.12852859101E+03  0.23529202262E+03  0.30033711301E+03  0.00000000000E+00 0. -1.
         -4    1    6    6    0  503 -0.10404037747E+03 -0.15290578541E+03  0.11804122364E+03  0.21940444351E+03  0.00000000000E+00 0.  1.
<mgrwt>
<rscale>  0 0.13071976E+04</rscale>
<asrwt>0</asrwt>
<pdfrwt beam="1">  1        1 0.31996916E+00 0.13071976E+04</pdfrwt>
<pdfrwt beam="2">  1       -1 0.31600041E-01 0.13071976E+04</pdfrwt>
<totfact> 0.24087952E+01</totfact>
</mgrwt>
</event>
<event>
12    3  0.4192740E-008  0.1717927E+04  0.7818608E-02  0.8751205E-01
         -2   -1    0    0    0  501 -0.00000000000E+00  0.00000000000E+00  0.69548046954E+03  0.69548046954E+03  0.00000000000E+00 0.  1.
          2   -1    0    0  501    0  0.00000000000E+00 -0.00000000000E+00 -0.10608760434E+04  0.10608760434E+04  0.00000000000E+00 0. -1.
         23    2    1    2    0    0 -0.29684490655E+03 -0.50791284714E+03 -0.33228239033E+03  0.68212951206E+03  0.93790860263E+02 0.  0.
        254    2    1    2    0    0  0.29684490655E+03  0.50791284714E+03 -0.33113183524E+02  0.10742270009E+04  0.89820643933E+03 0.  0.
         23    2    4    4    0    0  0.27706946163E+03 -0.72082159965E+02 -0.30280825654E+03  0.42662096363E+03  0.91374405743E+02 0.  0.
         23    2    4    4    0    0  0.19775444919E+02  0.57999500710E+03  0.26969507301E+03  0.64760603725E+03  0.99362319774E+02 0.  0.
          3    1    3    3  502    0 -0.78923137762E+02 -0.18731460771E+03 -0.73992753980E+02  0.21631123775E+03  0.00000000000E+00 0. -1.
         -3    1    3    3    0  502 -0.21792176878E+03 -0.32059823943E+03 -0.25828963635E+03  0.46581827431E+03  0.00000000000E+00 0.  1.
         13    1    5    5    0    0  0.66551798334E+02  0.75734948351E+01 -0.11672077525E+03  0.13457428826E+03  0.00000000000E+00 0.  1.
        -13    1    5    5    0    0  0.21051766329E+03 -0.79655654800E+02 -0.18608748129E+03  0.29204667537E+03  0.00000000000E+00 0. -1.
          2    1    6    6  503    0  0.30398922533E+01  0.56479927547E+03  0.26732803366E+03  0.62487738005E+03  0.00000000000E+00 0. -1.
         -2    1    6    6    0  503  0.16735552665E+02  0.15195731629E+02  0.23670393526E+01  0.22728657199E+02  0.00000000000E+00 0.  1.
<mgrwt>
<rscale>  0 0.17179273E+04</rscale>
<asrwt>0</asrwt>
<pdfrwt beam="1">  1        2 0.16321170E+00 0.17179273E+04</pdfrwt>
<pdfrwt beam="2">  1       -2 0.10699699E+00 0.17179273E+04</pdfrwt>
<totfact> 0.15383979E+01</totfact>
</mgrwt>
</event>
<event>
12    3  0.4192740E-008  0.1880583E+04  0.7818608E-02  0.8664582E-01
          2   -1    0    0  501    0  0.00000000000E+00  0.00000000000E+00  0.24345878383E+04  0.24345878383E+04  0.00000000000E+00 0. -1.
         -2   -1    0    0    0  501 -0.00000000000E+00 -0.00000000000E+00 -0.36316146943E+03  0.36316146943E+03  0.00000000000E+00 0.  1.
         23    2    1    2    0    0  0.18557000807E+03  0.71172565033E+02 -0.23908122973E+03  0.32482114176E+03  0.94059437685E+02 0.  0.
        254    2    1    2    0    0 -0.18557000807E+03 -0.71172565033E+02  0.23105075986E+04  0.24729281660E+04  0.85873545926E+03 0.  0.
         23    2    4    4    0    0 -0.47275871077E+03 -0.14582463501E+03  0.18531120580E+04  0.19201112806E+04  0.89651591409E+02 0.  0.
         23    2    4    4    0    0  0.28718870270E+03  0.74652069976E+02  0.45739554068E+03  0.55281688539E+03  0.91353957926E+02 0.  0.
          4    1    3    3  502    0  0.11825610543E+02 -0.55976919068E+01 -0.67802485320E+02  0.69053285475E+02  0.00000000000E+00 0. -1.
         -4    1    3    3    0  502  0.17374439752E+03  0.76770256940E+02 -0.17127874441E+03  0.25576785628E+03  0.00000000000E+00 0.  1.
         13    1    5    5    0    0 -0.39761224229E+03 -0.15192889401E+03  0.16272013196E+04  0.16819518479E+04  0.00000000000E+00 0. -1.
        -13    1    5    5    0    0 -0.75146468473E+02  0.61042589983E+01  0.22591073836E+03  0.23815943275E+03  0.00000000000E+00 0.  1.
          2    1    6    6  503    0  0.27828364428E+03  0.85321549595E+02  0.45259967341E+03  0.53811524590E+03  0.00000000000E+00 0. -1.
         -2    1    6    6    0  503  0.89050584197E+01 -0.10669479619E+02  0.47958672673E+01  0.14701639488E+02  0.00000000000E+00 0.  1.
<mgrwt>
<rscale>  0 0.18805834E+04</rscale>
<asrwt>0</asrwt>
<pdfrwt beam="1">  1        2 0.37455196E+00 0.18805834E+04</pdfrwt>
<pdfrwt beam="2">  1       -2 0.55870997E-01 0.18805834E+04</pdfrwt>
<totfact> 0.10725520E+01</totfact>
</mgrwt>
</event>
<event>
12    3  0.4192740E-008  0.2757678E+04  0.7818608E-02  0.8316529E-01
          2   -1    0    0  501    0  0.00000000000E+00  0.00000000000E+00  0.30101640593E+04  0.30101640593E+04  0.00000000000E+00 0. -1.
         -2   -1    0    0    0  501 -0.00000000000E+00 -0.00000000000E+00 -0.63159241178E+03  0.63159241178E+03  0.00000000000E+00 0.  1.
         23    2    1    2    0    0  0.12147143319E+04  0.13486916881E+03  0.12785522495E+04  0.17710891948E+04  0.91326229560E+02 0.  0.
        254    2    1    2    0    0 -0.12147143319E+04 -0.13486916881E+03  0.11000193980E+04  0.18706672763E+04  0.89198250083E+03 0.  0.
         23    2    4    4    0    0 -0.89523762635E+03  0.24409717352E+03  0.97995467126E+03  0.13525945015E+04  0.90370847628E+02 0.  0.
         23    2    4    4    0    0 -0.31947670557E+03 -0.37896634234E+03  0.12006472676E+03  0.51807277478E+03  0.91120839144E+02 0.  0.
          1    1    3    3  502    0  0.54087110393E+03  0.76994450899E+02  0.63256580007E+03  0.83582844409E+03  0.00000000000E+00 0. -1.
         -1    1    3    3    0  502  0.67384322800E+03  0.57874717915E+02  0.64598644944E+03  0.93526075068E+03  0.00000000000E+00 0.  1.
         13    1    5    5    0    0 -0.61328803706E+03  0.20986041227E+03  0.67278047189E+03  0.93423614381E+03  0.00000000000E+00 0. -1.
        -13    1    5    5    0    0 -0.28194958929E+03  0.34236761258E+02  0.30717419937E+03  0.41835835773E+03  0.00000000000E+00 0.  1.
          1    1    6    6  503    0 -0.23667946330E+03 -0.24299739391E+03  0.11708360669E+03  0.35885020935E+03  0.00000000000E+00 0. -1.
         -1    1    6    6    0  503 -0.82797242273E+02 -0.13596894843E+03  0.29811200676E+01  0.15922256543E+03  0.00000000000E+00 0.  1.
<mgrwt>
<rscale>  0 0.27576778E+04</rscale>
<asrwt>0</asrwt>
<pdfrwt beam="1">  1        2 0.46310215E+00 0.27576778E+04</pdfrwt>
<pdfrwt beam="2">  1       -2 0.97168065E-01 0.27576778E+04</pdfrwt>
<totfact> 0.13238321E+00</totfact>
</mgrwt>
</event>
<event>
12    3  0.4192740E-008  0.1340067E+04  0.7818608E-02  0.8998381E-01
          2   -1    0    0  501    0  0.00000000000E+00  0.00000000000E+00  0.28318470237E+04  0.28318470237E+04  0.00000000000E+00 0. -1.
         -2   -1    0    0    0  501 -0.00000000000E+00 -0.00000000000E+00 -0.15853438464E+03  0.15853438464E+03  0.00000000000E+00 0.  1.
         23    2    1    2    0    0 -0.18847400513E+03 -0.43983991991E+02  0.14323821208E+04  0.14480466229E+04  0.87541075592E+02 0.  0.
        254    2    1    2    0    0  0.18847400513E+03  0.43983991991E+02  0.12409305183E+04  0.15423347855E+04  0.89522678532E+03 0.  0.
         23    2    4    4    0    0  0.30859366206E+03 -0.16146156897E+03  0.12359871806E+04  0.12873014704E+04  0.90448209265E+02 0.  0.
         23    2    4    4    0    0 -0.12011965692E+03  0.20544556096E+03  0.49433377710E+01  0.25503331517E+03  0.91547500013E+02 0.  0.
          3    1    3    3  502    0 -0.11866711600E+03 -0.42752994083E+02  0.11608382181E+04  0.11676707890E+04  0.00000000000E+00 0. -1.
         -3    1    3    3    0  502 -0.69806889132E+02 -0.12309979075E+01  0.27154390266E+03  0.28037583383E+03  0.00000000000E+00 0.  1.
         13    1    5    5    0    0  0.26490965818E+03 -0.17017036160E+03  0.11025288930E+04  0.11466058778E+04  0.00000000000E+00 0. -1.
        -13    1    5    5    0    0  0.43684003874E+02  0.87087926318E+01  0.13345828754E+03  0.14069559260E+03  0.00000000000E+00 0.  1.
          2    1    6    6  503    0 -0.52154295864E+02  0.17413873212E+02  0.33938259002E+01  0.55089305782E+02  0.00000000000E+00 0. -1.
         -2    1    6    6    0  503 -0.67965361060E+02  0.18803168775E+03  0.15495118708E+01  0.19994400939E+03  0.00000000000E+00 0.  1.
<mgrwt>
<rscale>  0 0.13400673E+04</rscale>
<asrwt>0</asrwt>
<pdfrwt beam="1">  1        2 0.43566873E+00 0.13400673E+04</pdfrwt>
<pdfrwt beam="2">  1       -2 0.24389908E-01 0.13400673E+04</pdfrwt>
<totfact> 0.32697848E+01</totfact>
</mgrwt>
</event>
<event>
12    3  0.4192740E-008  0.1725394E+04  0.7818608E-02  0.8747013E-01
          2   -1    0    0  501    0  0.00000000000E+00  0.00000000000E+00  0.82932376139E+03  0.82932376139E+03  0.00000000000E+00 0.  1.
         -2   -1    0    0    0  501 -0.00000000000E+00 -0.00000000000E+00 -0.89741278013E+03  0.89741278013E+03  0.00000000000E+00 0. -1.
         23    2    1    2    0    0  0.14124823480E+03  0.45042872638E+03 -0.43424483813E+03  0.64796210885E+03  0.91919604414E+02 0.  0.
        254    2    1    2    0    0 -0.14124823480E+03 -0.45042872638E+03  0.36615581940E+03  0.10787744327E+04  0.89824667610E+03 0.  0.
         23    2    4    4    0    0  0.36792837809E+02 -0.48526922261E+02  0.57407408510E+03  0.58446023804E+03  0.91236722717E+02 0.  0.
         23    2    4    4    0    0 -0.17804107261E+03 -0.40190180412E+03 -0.20791826570E+03  0.49431419463E+03  0.88841623726E+02 0.  0.
          2    1    3    3  502    0  0.80424034250E+02  0.29987077546E+03 -0.22661272892E+03  0.38437460396E+03  0.00000000000E+00 0. -1.
         -2    1    3    3    0  502  0.60824200552E+02  0.15055795092E+03 -0.20763210921E+03  0.26358750489E+03  0.00000000000E+00 0.  1.
         13    1    5    5    0    0 -0.46163466046E+01  0.54137641630E+01  0.35507388740E+03  0.35514516048E+03  0.00000000000E+00 0.  1.
        -13    1    5    5    0    0  0.41409184413E+02 -0.53940686424E+02  0.21900019770E+03  0.22931507756E+03  0.00000000000E+00 0. -1.
          3    1    6    6  503    0 -0.17559784992E+03 -0.31322137517E+03 -0.17724318113E+03  0.40044647584E+03  0.00000000000E+00 0. -1.
         -3    1    6    6    0  503 -0.24432226927E+01 -0.88680428954E+02 -0.30675084573E+02  0.93867718786E+02  0.00000000000E+00 0.  1.
<mgrwt>
<rscale>  0 0.17253936E+04</rscale>
<asrwt>0</asrwt>
<pdfrwt beam="1">  1        2 0.12758827E+00 0.17253936E+04</pdfrwt>
<pdfrwt beam="2">  1       -2 0.13806350E+00 0.17253936E+04</pdfrwt>
<totfact> 0.11603615E+01</totfact>
</mgrwt>
</event>
<event>
12    3  0.4192740E-008  0.1613770E+04  0.7818608E-02  0.8812133E-01
          3   -1    0    0  501    0  0.00000000000E+00  0.00000000000E+00  0.58413328338E+03  0.58413328338E+03  0.00000000000E+00 0. -1.
         -3   -1    0    0    0  501 -0.00000000000E+00 -0.00000000000E+00 -0.11145807761E+04  0.11145807761E+04  0.00000000000E+00 0.  1.
         23    2    1    2    0    0  0.29576608040E+03  0.40385449275E+03  0.43452399058E+02  0.51804735664E+03  0.12613059544E+03 0.  0.
        254    2    1    2    0    0 -0.29576608040E+03 -0.40385449275E+03 -0.57389989179E+03  0.11806667029E+04  0.90223985270E+03 0.  0.
         23    2    4    4    0    0 -0.28528988382E+03 -0.48270231661E+03 -0.76724734796E+03  0.95503482653E+03  0.95032534701E+02 0.  0.
         23    2    4    4    0    0 -0.10476196580E+02  0.78847823854E+02  0.19334745617E+03  0.22563187633E+03  0.84851486630E+02 0.  0.
          1    1    3    3  502    0 -0.24934012265E+01  0.40488426863E+01 -0.15090346677E+02  0.15821780545E+02  0.00000000000E+00 0. -1.
         -1    1    3    3    0  502  0.29825948163E+03  0.39980565007E+03  0.58542745736E+02  0.50222557609E+03  0.00000000000E+00 0.  1.
         13    1    5    5    0    0 -0.24333329339E+03 -0.34090306808E+03 -0.60083684151E+03  0.73241443433E+03  0.00000000000E+00 0. -1.
        -13    1    5    5    0    0 -0.41956590432E+02 -0.14179924853E+03 -0.16641050645E+03  0.22262039220E+03  0.00000000000E+00 0.  1.
          3    1    6    6  503    0 -0.18877652831E+02  0.30545712401E+02  0.16528658603E+03  0.16914213503E+03  0.00000000000E+00 0. -1.
         -3    1    6    6    0  503  0.84014562505E+01  0.48302111453E+02  0.28060870147E+02  0.56489741293E+02  0.00000000000E+00 0.  1.
<mgrwt>
<rscale>  0 0.16137704E+04</rscale>
<asrwt>0</asrwt>
<pdfrwt beam="1">  1        3 0.89866659E-01 0.16137704E+04</pdfrwt>
<pdfrwt beam="2">  1       -3 0.17147397E+00 0.16137704E+04</pdfrwt>
<totfact> 0.63426046E-01</totfact>
</mgrwt>
</event>
<event>
12    3  0.4192740E-008  0.2003257E+04  0.7818608E-02  0.8605099E-01
          2   -1    0    0  501    0  0.00000000000E+00  0.00000000000E+00  0.24613042191E+04  0.24613042191E+04  0.00000000000E+00 0. -1.
         -2   -1    0    0    0  501 -0.00000000000E+00 -0.00000000000E+00 -0.40761309149E+03  0.40761309149E+03  0.00000000000E+00 0.  1.
         23    2    1    2    0    0  0.57402943804E+03 -0.15008223920E+03  0.15884843457E+04  0.16981695499E+04  0.91993637484E+02 0.  0.
        254    2    1    2    0    0 -0.57402943804E+03  0.15008223920E+03  0.46520678188E+03  0.11707477607E+04  0.89565534385E+03 0.  0.
         23    2    4    4    0    0  0.16168314501E+03 -0.14450817915E+03 -0.18697343684E+02  0.23716013354E+03  0.94187499489E+02 0.  0.
         23    2    4    4    0    0 -0.73571258305E+03  0.29459041835E+03  0.48390412557E+03  0.93358762714E+03  0.96778796016E+02 0.  0.
          1    1    3    3  502    0  0.31492411633E+03 -0.59369262002E+02  0.96793799495E+03  0.10196106465E+04  0.00000000000E+00 0. -1.
         -1    1    3    3    0  502  0.25910532171E+03 -0.90712977200E+02  0.62054635073E+03  0.67855890339E+03  0.00000000000E+00 0.  1.
         13    1    5    5    0    0  0.22011492464E+02 -0.81429337180E+01 -0.34051109898E+02  0.41355667753E+02  0.00000000000E+00 0.  1.
        -13    1    5    5    0    0  0.13967165255E+03 -0.13636524543E+03  0.15353766214E+02  0.19580446579E+03  0.00000000000E+00 0. -1.
          4    1    6    6  503    0 -0.55557308606E+03  0.26396726795E+03  0.35806245550E+03  0.71172248422E+03  0.00000000000E+00 0. -1.
         -4    1    6    6    0  503 -0.18013949700E+03  0.30623150398E+02  0.12584167007E+03  0.22186514292E+03  0.00000000000E+00 0.  1.
<mgrwt>
<rscale>  0 0.20032572E+04</rscale>
<asrwt>0</asrwt>
<pdfrwt beam="1">  1        2 0.37866218E+00 0.20032572E+04</pdfrwt>
<pdfrwt beam="2">  1       -2 0.62709708E-01 0.20032572E+04</pdfrwt>
<totfact> 0.80302971E+00</totfact>
</mgrwt>
</event>
<event>
12    3  0.4192740E-008  0.1369336E+04  0.7818608E-02  0.8976319E-01
         -2   -1    0    0    0  501 -0.00000000000E+00  0.00000000000E+00  0.59843681940E+03  0.59843681940E+03  0.00000000000E+00 0.  1.
          2   -1    0    0  501    0  0.00000000000E+00 -0.00000000000E+00 -0.78332467754E+03  0.78332467754E+03  0.00000000000E+00 0. -1.
         23    2    1    2    0    0  0.29291118522E+03  0.19161334254E+03  0.83330688815E+02  0.37080697855E+03  0.89672605476E+02 0.  0.
        254    2    1    2    0    0 -0.29291118522E+03 -0.19161334254E+03 -0.26821854696E+03  0.10109545184E+04  0.90971161027E+03 0.  0.
         23    2    4    4    0    0 -0.30011242426E+03 -0.52458458099E+03 -0.74799905032E+02  0.61521680935E+03  0.87408505892E+02 0.  0.
         23    2    4    4    0    0  0.72012390408E+01  0.33297123845E+03 -0.19341864192E+03  0.39573770905E+03  0.90971752982E+02 0.  0.
          3    1    3    3  502    0  0.14758571390E+03  0.12114580718E+03  0.85677567840E+02  0.20928090016E+03  0.00000000000E+00 0. -1.
         -3    1    3    3    0  502  0.14532547133E+03  0.70467535365E+02 -0.23468790251E+01  0.16152607838E+03  0.00000000000E+00 0.  1.
         13    1    5    5    0    0 -0.17982634457E+02 -0.95062697192E+02 -0.13190366259E+02  0.97643623967E+02  0.00000000000E+00 0. -1.
        -13    1    5    5    0    0 -0.28212978980E+03 -0.42952188380E+03 -0.61609538773E+02  0.51757318538E+03  0.00000000000E+00 0.  1.
          3    1    6    6  503    0 -0.38983035479E+02  0.15602313994E+03 -0.71840981020E+02  0.17613637843E+03  0.00000000000E+00 0. -1.
         -3    1    6    6    0  503  0.46184274519E+02  0.17694809850E+03 -0.12157766090E+03  0.21960133061E+03  0.00000000000E+00 0.  1.
<mgrwt>
<rscale>  0 0.13693361E+04</rscale>
<asrwt>0</asrwt>
<pdfrwt beam="1">  1        2 0.12051149E+00 0.13693361E+04</pdfrwt>
<pdfrwt beam="2">  1       -2 0.92067203E-01 0.13693361E+04</pdfrwt>
<totfact> 0.34656592E+01</totfact>
</mgrwt>
</event>
<event>
12    3  0.4192740E-008  0.2187142E+04  0.7818608E-02  0.8523799E-01
         -2   -1    0    0    0  501 -0.00000000000E+00  0.00000000000E+00  0.93771144150E+03  0.93771144150E+03  0.00000000000E+00 0.  1.
          2   -1    0    0  501    0  0.00000000000E+00 -0.00000000000E+00 -0.12753365385E+04  0.12753365385E+04  0.00000000000E+00 0. -1.
         23    2    1    2    0    0  0.49335187143E+01  0.53322893577E+03 -0.87413820023E+03  0.10293807970E+04  0.10559258749E+03 0.  0.
        254    2    1    2    0    0 -0.49335187143E+01 -0.53322893577E+03  0.53651310322E+03  0.11836671830E+04  0.91041982225E+03 0.  0.
         23    2    4    4    0    0 -0.32730313314E+03  0.73477054667E+02  0.27493092229E+03  0.44332524524E+03  0.91782582836E+02 0.  0.
         23    2    4    4    0    0  0.32236961442E+03 -0.60670599043E+03  0.26158218093E+03  0.74034193780E+03  0.87559239106E+02 0.  0.
          2    1    3    3  502    0 -0.40417536862E+02  0.28033394588E+03 -0.51586041062E+03  0.58850034982E+03  0.00000000000E+00 0.  1.
         -2    1    3    3    0  502  0.45351055577E+02  0.25289498989E+03 -0.35827778962E+03  0.44088044715E+03  0.00000000000E+00 0. -1.
         13    1    5    5    0    0 -0.25058269216E+03  0.55846785375E+02  0.25558531861E+03  0.36226289368E+03  0.00000000000E+00 0. -1.
        -13    1    5    5    0    0 -0.76720440976E+02  0.17630269292E+02  0.19345603679E+02  0.81062351561E+02  0.00000000000E+00 0.  1.
          4    1    6    6  503    0  0.22601065518E+03 -0.47924893612E+03  0.22918015809E+03  0.57730746045E+03  0.00000000000E+00 0. -1.
         -4    1    6    6    0  503  0.96358959242E+02 -0.12745705431E+03  0.32402022835E+02  0.16303447735E+03  0.00000000000E+00 0.  1.
<mgrwt>
<rscale>  0 0.21871421E+04</rscale>
<asrwt>0</asrwt>
<pdfrwt beam="1">  1        2 0.19620562E+00 0.21871421E+04</pdfrwt>
<pdfrwt beam="2">  1       -2 0.14426330E+00 0.21871421E+04</pdfrwt>
<totfact> 0.51938469E+00</totfact>
</mgrwt>
</event>
<event>
12    3  0.4192740E-008  0.1394270E+04  0.7818608E-02  0.8957977E-01
          2   -1    0    0  501    0  0.00000000000E+00  0.00000000000E+00  0.10520986394E+04  0.10520986394E+04  0.00000000000E+00 0. -1.
         -2   -1    0    0    0  501 -0.00000000000E+00 -0.00000000000E+00 -0.46193120687E+03  0.46193120687E+03  0.00000000000E+00 0.  1.
         23    2    1    2    0    0  0.30689959952E+03  0.12055111709E+03 -0.77370135502E+02  0.34762202115E+03  0.78326213369E+02 0.  0.
        254    2    1    2    0    0 -0.30689959952E+03 -0.12055111709E+03  0.66753756799E+03  0.11664078251E+04  0.89787575629E+03 0.  0.
         23    2    4    4    0    0 -0.32004511047E+03  0.26128714895E+03  0.40580309373E+02  0.42630040338E+03  0.96878405604E+02 0.  0.
         23    2    4    4    0    0  0.13145510950E+02 -0.38183826603E+03  0.62695725862E+03  0.74010742171E+03  0.93329125485E+02 0.  0.
          1    1    3    3  502    0  0.11791078058E+03  0.34694990478E+02 -0.66535375830E+02  0.13976283761E+03  0.00000000000E+00 0. -1.
         -1    1    3    3    0  502  0.18898881894E+03  0.85856126608E+02 -0.10834759672E+02  0.20785918353E+03  0.00000000000E+00 0.  1.
         13    1    5    5    0    0 -0.18733988632E+03  0.15290479976E+03  0.71555335193E+02  0.25218302241E+03  0.00000000000E+00 0. -1.
        -13    1    5    5    0    0 -0.13270522415E+03  0.10838234919E+03 -0.30975025821E+02  0.17411738097E+03  0.00000000000E+00 0.  1.
          2    1    6    6  503    0  0.52476757637E+02 -0.21134126637E+03  0.32782595703E+03  0.39355914304E+03  0.00000000000E+00 0. -1.
         -2    1    6    6    0  503 -0.39331246687E+02 -0.17049699966E+03  0.29913130159E+03  0.34654827867E+03  0.00000000000E+00 0.  1.
<mgrwt>
<rscale>  0 0.13942700E+04</rscale>
<asrwt>0</asrwt>
<pdfrwt beam="1">  1        2 0.16186133E+00 0.13942700E+04</pdfrwt>
<pdfrwt beam="2">  1       -2 0.71066340E-01 0.13942700E+04</pdfrwt>
<totfact> 0.40873872E+01</totfact>
</mgrwt>
</event>
<event>
12    3  0.4192740E-008  0.2419584E+04  0.7818608E-02  0.8432208E-01
         -1   -1    0    0    0  501 -0.00000000000E+00  0.00000000000E+00  0.94543541826E+03  0.94543541826E+03  0.00000000000E+00 0.  1.
          1   -1    0    0  501    0  0.00000000000E+00 -0.00000000000E+00 -0.15480664681E+04  0.15480664681E+04  0.00000000000E+00 0. -1.
         23    2    1    2    0    0  0.99430793487E+03  0.18913152115E+03 -0.30321391002E+02  0.10165564547E+04  0.89714197350E+02 0.  0.
        254    2    1    2    0    0 -0.99430793487E+03 -0.18913152115E+03 -0.57230965882E+03  0.14769454316E+04  0.91071974880E+03 0.  0.
         23    2    4    4    0    0 -0.49264324066E+03  0.28655236492E+03 -0.33187595376E+01  0.57694633154E+03  0.89701922494E+02 0.  0.
         23    2    4    4    0    0 -0.50166469421E+03 -0.47568388607E+03 -0.56899089929E+03  0.89999910011E+03  0.91132386377E+02 0.  0.
          4    1    3    3  502    0  0.32194104159E+03  0.56546313120E+02 -0.51570997864E+02  0.33091250748E+03  0.00000000000E+00 0. -1.
         -4    1    3    3    0  502  0.67236689328E+03  0.13258520803E+03  0.21249606861E+02  0.68564394722E+03  0.00000000000E+00 0.  1.
         13    1    5    5    0    0 -0.31644518223E+03  0.20933261744E+03 -0.38548589411E+02  0.38137080621E+03  0.00000000000E+00 0.  1.
        -13    1    5    5    0    0 -0.17619805843E+03  0.77219747481E+02  0.35229829873E+02  0.19557552533E+03  0.00000000000E+00 0. -1.
          3    1    6    6  503    0 -0.37118111930E+02 -0.12894062107E+02 -0.50874032535E+02  0.64282021260E+02  0.00000000000E+00 0. -1.
         -3    1    6    6    0  503 -0.46454658228E+03 -0.46278982397E+03 -0.51811686675E+03  0.83571707885E+03  0.00000000000E+00 0.  1.
<mgrwt>
<rscale>  0 0.24195842E+04</rscale>
<asrwt>0</asrwt>
<pdfrwt beam="1">  1        1 0.23816407E+00 0.24195842E+04</pdfrwt>
<pdfrwt beam="2">  1       -1 0.14545160E+00 0.24195842E+04</pdfrwt>
<totfact> 0.20540925E+00</totfact>
</mgrwt>
</event>
<event>
12    3  0.4192740E-008  0.1532324E+04  0.7818608E-02  0.8863238E-01
          1   -1    0    0  501    0  0.00000000000E+00  0.00000000000E+00  0.11600406987E+04  0.11600406987E+04  0.00000000000E+00 0. -1.
         -1   -1    0    0    0  501 -0.00000000000E+00 -0.00000000000E+00 -0.50602016643E+03  0.50602016643E+03  0.00000000000E+00 0.  1.
         23    2    1    2    0    0  0.69197379295E+02  0.15523036823E+02 -0.32050662888E+03  0.34085525669E+03  0.91807215842E+02 0.  0.
        254    2    1    2    0    0 -0.69197379295E+02 -0.15523036823E+02  0.97452716114E+03  0.13252056084E+04  0.89523040322E+03 0.  0.
         23    2    4    4    0    0  0.12114185196E+03 -0.32481147614E+03  0.86405847116E+03  0.93544571332E+03  0.91015370447E+02 0.  0.
         23    2    4    4    0    0 -0.19033923125E+03  0.30928843932E+03  0.11046868998E+03  0.38975989511E+03  0.88436885551E+02 0.  0.
          1    1    3    3  502    0 -0.21288702219E+02 -0.24602818360E+01 -0.91241674555E+02  0.93724623256E+02  0.00000000000E+00 0. -1.
         -1    1    3    3    0  502  0.90486081514E+02  0.17983318659E+02 -0.22926495433E+03  0.24713063343E+03  0.00000000000E+00 0.  1.
         13    1    5    5    0    0  0.12906386430E+03 -0.29952333814E+03  0.74154808686E+03  0.81010201597E+03  0.00000000000E+00 0. -1.
        -13    1    5    5    0    0 -0.79220123482E+01 -0.25288138003E+02  0.12251038430E+03  0.12534369734E+03  0.00000000000E+00 0.  1.
          2    1    6    6  503    0 -0.12778667350E+03  0.21039908340E+03  0.11702120035E+03  0.27256406504E+03  0.00000000000E+00 0. -1.
         -2    1    6    6    0  503 -0.62552557753E+02  0.98889355917E+02 -0.65525103687E+01  0.11719583008E+03  0.00000000000E+00 0.  1.
<mgrwt>
<rscale>  0 0.15323237E+04</rscale>
<asrwt>0</asrwt>
<pdfrwt beam="1">  1        1 0.17846780E+00 0.15323237E+04</pdfrwt>
<pdfrwt beam="2">  1       -1 0.77849256E-01 0.15323237E+04</pdfrwt>
<totfact> 0.18237329E+01</totfact>
</mgrwt>
</event>
<event>
12    3  0.4192740E-008  0.1343033E+04  0.7818608E-02  0.8996118E-01
         -2   -1    0    0    0  501 -0.00000000000E+00  0.00000000000E+00  0.19064089506E+03  0.19064089506E+03  0.00000000000E+00 0.  1.
          2   -1    0    0  501    0  0.00000000000E+00 -0.00000000000E+00 -0.23653619696E+04  0.23653619696E+04  0.00000000000E+00 0. -1.
         23    2    1    2    0    0 -0.31440840716E+03 -0.18046258750E+03 -0.65440139575E+03  0.75369342456E+03  0.91614406540E+02 0.  0.
        254    2    1    2    0    0  0.31440840716E+03  0.18046258750E+03 -0.15203196788E+04  0.18023094401E+04  0.89751211701E+03 0.  0.
         23    2    4    4    0    0 -0.18308334203E+03 -0.32550921195E+02 -0.10773481757E+04  0.10970866692E+04  0.91329050660E+02 0.  0.
         23    2    4    4    0    0  0.49749174919E+03  0.21301350870E+03 -0.44297150306E+03  0.70522277085E+03  0.90788813219E+02 0.  0.
          4    1    3    3  502    0 -0.23397840175E+03 -0.84675204513E+02 -0.43803564481E+03  0.50377674506E+03  0.00000000000E+00 0. -1.
         -4    1    3    3    0  502 -0.80430005414E+02 -0.95787382991E+02 -0.21636575094E+03  0.24991667950E+03  0.00000000000E+00 0.  1.
         13    1    5    5    0    0 -0.18932700825E+03 -0.42753163722E+02 -0.98259233405E+03  0.10015788756E+04  0.00000000000E+00 0. -1.
        -13    1    5    5    0    0  0.62436662153E+01  0.10202242527E+02 -0.94755841662E+02  0.95507793658E+02  0.00000000000E+00 0.  1.
          2    1    6    6  503    0  0.47309500879E+03  0.17679021753E+03 -0.40927778789E+03  0.65006305542E+03  0.00000000000E+00 0. -1.
         -2    1    6    6    0  503  0.24396740402E+02  0.36223291168E+02 -0.33693715168E+02  0.55159715436E+02  0.00000000000E+00 0.  1.
<mgrwt>
<rscale>  0 0.13430335E+04</rscale>
<asrwt>0</asrwt>
<pdfrwt beam="1">  1        2 0.36390185E+00 0.13430335E+04</pdfrwt>
<pdfrwt beam="2">  1       -2 0.29329368E-01 0.13430335E+04</pdfrwt>
<totfact> 0.43629663E+01</totfact>
</mgrwt>
</event>
<event>
12    3  0.4192740E-008  0.1379376E+04  0.7818608E-02  0.8968884E-01
          1   -1    0    0  501    0  0.00000000000E+00  0.00000000000E+00  0.16285411608E+04  0.16285411608E+04  0.00000000000E+00 0. -1.
         -1   -1    0    0    0  501 -0.00000000000E+00 -0.00000000000E+00 -0.29208325456E+03  0.29208325456E+03  0.00000000000E+00 0.  1.
         23    2    1    2    0    0  0.79280979326E+02  0.22944739307E+02 -0.14231748910E+03  0.18674578044E+03  0.88361666268E+02 0.  0.
        254    2    1    2    0    0 -0.79280979326E+02 -0.22944739307E+02  0.14787753953E+04  0.17338786349E+04  0.90152455099E+03 0.  0.
         23    2    4    4    0    0 -0.60970893763E+02  0.42795963507E+03  0.64849326106E+03  0.78467650018E+03  0.91141654321E+02 0.  0.
         23    2    4    4    0    0 -0.18310085563E+02 -0.45090437438E+03  0.83028213424E+03  0.94920213471E+03  0.89253885239E+02 0.  0.
          4    1    3    3  502    0  0.26556740646E+02 -0.20721289235E+02 -0.60147677053E+01  0.34217097069E+02  0.00000000000E+00 0. -1.
         -4    1    3    3    0  502  0.52724238681E+02  0.43666028542E+02 -0.13630272139E+03  0.15252868337E+03  0.00000000000E+00 0.  1.
         13    1    5    5    0    0 -0.62739506338E+02  0.33075298338E+03  0.43470830203E+03  0.54982278011E+03  0.00000000000E+00 0.  1.
        -13    1    5    5    0    0  0.17686125748E+01  0.97206651695E+02  0.21378495903E+03  0.23485372007E+03  0.00000000000E+00 0. -1.
          1    1    6    6  503    0 -0.49807957767E+02 -0.20008845394E+03  0.40487685581E+03  0.45435832823E+03  0.00000000000E+00 0. -1.
         -1    1    6    6    0  503  0.31497872204E+02 -0.25081592044E+03  0.42540527842E+03  0.49484380648E+03  0.00000000000E+00 0.  1.
<mgrwt>
<rscale>  0 0.13793761E+04</rscale>
<asrwt>0</asrwt>
<pdfrwt beam="1">  1        1 0.25054479E+00 0.13793761E+04</pdfrwt>
<pdfrwt beam="2">  1       -1 0.44935886E-01 0.13793761E+04</pdfrwt>
<totfact> 0.25580927E+01</totfact>
</mgrwt>
</event>
<event>
12    3  0.4192740E-008  0.1220863E+04  0.7818608E-02  0.9094789E-01
          2   -1    0    0  501    0  0.00000000000E+00  0.00000000000E+00  0.24390106479E+04  0.24390106479E+04  0.00000000000E+00 0. -1.
         -2   -1    0    0    0  501 -0.00000000000E+00 -0.00000000000E+00 -0.15277771798E+03  0.15277771798E+03  0.00000000000E+00 0.  1.
         23    2    1    2    0    0 -0.22077119404E+03  0.48522498321E+02  0.80047989569E+03  0.83724848664E+03  0.95512365728E+02 0.  0.
        254    2    1    2    0    0  0.22077119404E+03 -0.48522498321E+02  0.14857530342E+04  0.17545398792E+04  0.90545776057E+03 0.  0.
         23    2    4    4    0    0 -0.59468325460E+01 -0.33296807664E+03  0.12812467417E+04  0.13273611207E+04  0.96908342933E+02 0.  0.
         23    2    4    4    0    0  0.22671802658E+03  0.28444557832E+03  0.20450629252E+03  0.42717875847E+03  0.91370221661E+02 0.  0.
          1    1    3    3  502    0 -0.17453106997E+03  0.71491854357E+02  0.68977578295E+03  0.71509636439E+03  0.00000000000E+00 0. -1.
         -1    1    3    3    0  502 -0.46240124065E+02 -0.22969356036E+02  0.11070411274E+03  0.12215212224E+03  0.00000000000E+00 0.  1.
         13    1    5    5    0    0  0.30250809478E+02 -0.24628853577E+03  0.82337502955E+03  0.85995325083E+03  0.00000000000E+00 0. -1.
        -13    1    5    5    0    0 -0.36197642024E+02 -0.86679540869E+02  0.45787171210E+03  0.46740786989E+03  0.00000000000E+00 0.  1.
          3    1    6    6  503    0  0.18197618172E+03  0.24525076755E+03  0.20478626508E+03  0.36769645642E+03  0.00000000000E+00 0. -1.
         -3    1    6    6    0  503  0.44741844864E+02  0.39194810770E+02 -0.27997255896E+00  0.59482302055E+02  0.00000000000E+00 0.  1.
<mgrwt>
<rscale>  0 0.12208628E+04</rscale>
<asrwt>0</asrwt>
<pdfrwt beam="1">  1        2 0.37523238E+00 0.12208628E+04</pdfrwt>
<pdfrwt beam="2">  1       -2 0.23504266E-01 0.12208628E+04</pdfrwt>
<totfact> 0.59984017E+01</totfact>
</mgrwt>
</event>
<event>
12    3  0.4192740E-008  0.1022512E+04  0.7818608E-02  0.9284193E-01
          1   -1    0    0  501    0  0.00000000000E+00  0.00000000000E+00  0.54104960283E+03  0.54104960283E+03  0.00000000000E+00 0. -1.
         -1   -1    0    0    0  501 -0.00000000000E+00 -0.00000000000E+00 -0.48310300762E+03  0.48310300762E+03  0.00000000000E+00 0.  1.
         23    2    1    2    0    0 -0.64884816468E+02 -0.11613999678E+02 -0.32352660296E+02  0.11693910756E+03  0.91011734699E+02 0.  0.
        254    2    1    2    0    0  0.64884816468E+02  0.11613999678E+02  0.90299255508E+02  0.90721350288E+03  0.90029853930E+03 0.  0.
         23    2    4    4    0    0 -0.66879407882E+02 -0.26095883973E+03  0.38217045714E+03  0.47693780986E+03  0.94037465567E+02 0.  0.
         23    2    4    4    0    0  0.13176422435E+03  0.27257283941E+03 -0.29187120164E+03  0.43027569302E+03  0.91052787182E+02 0.  0.
          1    1    3    3  502    0 -0.27814464818E+01  0.33256806447E+02  0.97468848566E+00  0.33387147785E+02  0.00000000000E+00 0. -1.
         -1    1    3    3    0  502 -0.62103369986E+02 -0.44870806125E+02 -0.33327348782E+02  0.83551959778E+02  0.00000000000E+00 0.  1.
         13    1    5    5    0    0 -0.48933997036E+02 -0.17582904848E+03  0.17771258182E+03  0.25473938073E+03  0.00000000000E+00 0.  1.
        -13    1    5    5    0    0 -0.17945410846E+02 -0.85129791250E+02  0.20445787532E+03  0.22219842913E+03  0.00000000000E+00 0. -1.
          1    1    6    6  503    0  0.18758850244E+02  0.13881457195E+02 -0.61932715017E+02  0.66183460968E+02  0.00000000000E+00 0. -1.
         -1    1    6    6    0  503  0.11300537411E+03  0.25869138222E+03 -0.22993848662E+03  0.36409223205E+03  0.00000000000E+00 0.  1.
<mgrwt>
<rscale>  0 0.10225120E+04</rscale>
<asrwt>0</asrwt>
<pdfrwt beam="1">  1        1 0.83238400E-01 0.10225120E+04</pdfrwt>
<pdfrwt beam="2">  1       -1 0.74323540E-01 0.10225120E+04</pdfrwt>
<totfact> 0.72470806E+01</totfact>
</mgrwt>
</event>
<event>
12    3  0.4192740E-008  0.1911383E+04  0.7818608E-02  0.8649211E-01
          2   -1    0    0  501    0  0.00000000000E+00  0.00000000000E+00  0.14854805830E+04  0.14854805830E+04  0.00000000000E+00 0. -1.
         -2   -1    0    0    0  501 -0.00000000000E+00 -0.00000000000E+00 -0.61484916977E+03  0.61484916977E+03  0.00000000000E+00 0.  1.
         23    2    1    2    0    0  0.52886189857E+03 -0.21727830362E+03 -0.17678718815E+03  0.60125039015E+03  0.57823462223E+02 0.  0.
        254    2    1    2    0    0 -0.52886189857E+03  0.21727830362E+03  0.10474186014E+04  0.14990793626E+04  0.90733039184E+03 0.  0.
         23    2    4    4    0    0  0.18387194457E+03 -0.13005991075E+03  0.41373218282E+03  0.48004977764E+03  0.92460789133E+02 0.  0.
         23    2    4    4    0    0 -0.71273384314E+03  0.34733821437E+03  0.63368641859E+03  0.10190295850E+04  0.90716325442E+02 0.  0.
          1    1    3    3  502    0  0.89699784805E+02 -0.30037354962E+02 -0.51349728648E+02  0.10763405000E+03  0.00000000000E+00 0.  1.
         -1    1    3    3    0  502  0.43916211376E+03 -0.18724094866E+03 -0.12543745950E+03  0.49361634015E+03  0.00000000000E+00 0. -1.
         13    1    5    5    0    0  0.17173665246E+03 -0.99097649382E+02  0.39477519311E+03  0.44177061356E+03  0.00000000000E+00 0.  1.
        -13    1    5    5    0    0  0.12135292113E+02 -0.30962261371E+02  0.18956989709E+02  0.38279164080E+02  0.00000000000E+00 0. -1.
          2    1    6    6  503    0 -0.47928459778E+03  0.27963220573E+03  0.44698434451E+03  0.71253273636E+03  0.00000000000E+00 0. -1.
         -2    1    6    6    0  503 -0.23344924536E+03  0.67706008638E+02  0.18670207408E+03  0.30649684864E+03  0.00000000000E+00 0.  1.
<mgrwt>
<rscale>  0 0.19113833E+04</rscale>
<asrwt>0</asrwt>
<pdfrwt beam="1">  1        2 0.22853547E+00 0.19113833E+04</pdfrwt>
<pdfrwt beam="2">  1       -2 0.94592180E-01 0.19113833E+04</pdfrwt>
<totfact> 0.11396517E+01</totfact>
</mgrwt>
</event>
<event>
12    3  0.4192740E-008  0.4557814E+04  0.7818608E-02  0.7900593E-01
          2   -1    0    0  501    0  0.00000000000E+00  0.00000000000E+00  0.38981727535E+04  0.38981727535E+04  0.00000000000E+00 0. -1.
         -2   -1    0    0    0  501 -0.00000000000E+00 -0.00000000000E+00 -0.13322693427E+04  0.13322693427E+04  0.00000000000E+00 0.  1.
         23    2    1    2    0    0 -0.65146596195E+01  0.15345624491E+03  0.37368126106E+04  0.37410861869E+04  0.91466450621E+02 0.  0.
        254    2    1    2    0    0  0.65146596195E+01 -0.15345624491E+03 -0.11709091998E+04  0.14893559093E+04  0.90750284325E+03 0.  0.
         23    2    4    4    0    0  0.36883790236E+03 -0.19628973447E+03 -0.25106361675E+03  0.49564303460E+03  0.89766474915E+02 0.  0.
         23    2    4    4    0    0 -0.36232324274E+03  0.42833489561E+02 -0.91984558307E+03  0.99371287471E+03  0.90755388949E+02 0.  0.
          2    1    3    3  502    0  0.27829520465E+01  0.15545736708E+03  0.36921432121E+04  0.36954155702E+04  0.00000000000E+00 0. -1.
         -2    1    3    3    0  502 -0.92976116660E+01 -0.20011221653E+01  0.44669398497E+02  0.45670616754E+02  0.00000000000E+00 0.  1.
         13    1    5    5    0    0  0.36737707877E+03 -0.19544210485E+03 -0.23185732763E+03  0.47636262944E+03  0.00000000000E+00 0.  1.
        -13    1    5    5    0    0  0.14608235921E+01 -0.84762962913E+00 -0.19206289121E+02  0.19280405165E+02  0.00000000000E+00 0. -1.
          3    1    6    6  503    0 -0.13304989560E+03 -0.87640912878E+01 -0.43388001890E+03  0.45390632824E+03  0.00000000000E+00 0. -1.
         -3    1    6    6    0  503 -0.22927334714E+03  0.51597580848E+02 -0.48596556417E+03  0.53980654647E+03  0.00000000000E+00 0.  1.
<mgrwt>
<rscale>  0 0.45578135E+04</rscale>
<asrwt>0</asrwt>
<pdfrwt beam="1">  1        2 0.59971888E+00 0.45578135E+04</pdfrwt>
<pdfrwt beam="2">  1       -2 0.20496452E+00 0.45578135E+04</pdfrwt>
<totfact> 0.38249498E-02</totfact>
</mgrwt>
</event>
<event>
12    3  0.4192740E-008  0.1993424E+04  0.7818608E-02  0.8609701E-01
          1   -1    0    0  501    0  0.00000000000E+00  0.00000000000E+00  0.33013751351E+04  0.33013751351E+04  0.00000000000E+00 0. -1.
         -1   -1    0    0    0  501 -0.00000000000E+00 -0.00000000000E+00 -0.30091539956E+03  0.30091539956E+03  0.00000000000E+00 0.  1.
         23    2    1    2    0    0  0.64910939879E+02  0.71484477902E+03  0.59473691226E+03  0.93674875036E+03  0.92572880952E+02 0.  0.
        254    2    1    2    0    0 -0.64910939879E+02 -0.71484477902E+03  0.24057228233E+04  0.26655417843E+04  0.89576459699E+03 0.  0.
         23    2    4    4    0    0 -0.18274856288E+03 -0.70908481012E+03  0.24042680677E+04  0.25150579460E+04  0.93878780330E+02 0.  0.
         23    2    4    4    0    0  0.11783762300E+03 -0.57599688990E+01  0.14547555902E+01  0.15048383828E+03  0.93404425128E+02 0.  0.
          3    1    3    3  502    0  0.98874688196E+01  0.41816239072E+01  0.62782828924E+01  0.12436432537E+02  0.00000000000E+00 0. -1.
         -3    1    3    3    0  502  0.55023471059E+02  0.71066315511E+03  0.58845862937E+03  0.92431231782E+03  0.00000000000E+00 0.  1.
         13    1    5    5    0    0 -0.16721500276E+03 -0.47500998934E+03  0.16232159332E+04  0.16995367936E+04  0.00000000000E+00 0.  1.
        -13    1    5    5    0    0 -0.15533560113E+02 -0.23407482078E+03  0.78105213451E+03  0.81552115241E+03  0.00000000000E+00 0. -1.
          3    1    6    6  503    0  0.50681461689E+02  0.38882318645E+02 -0.20182699921E+02  0.66990944449E+02  0.00000000000E+00 0.  1.
         -3    1    6    6    0  503  0.67156161308E+02 -0.44642287544E+02  0.21637455511E+02  0.83492893828E+02  0.00000000000E+00 0. -1.
<mgrwt>
<rscale>  0 0.19934238E+04</rscale>
<asrwt>0</asrwt>
<pdfrwt beam="1">  1        1 0.50790384E+00 0.19934238E+04</pdfrwt>
<pdfrwt beam="2">  1       -1 0.46294679E-01 0.19934238E+04</pdfrwt>
<totfact> 0.15406941E+00</totfact>
</mgrwt>
</event>
<event>
12    3  0.4192740E-008  0.1341527E+04  0.7818608E-02  0.8997267E-01
         -1   -1    0    0    0  501 -0.00000000000E+00  0.00000000000E+00  0.11816812424E+04  0.11816812424E+04  0.00000000000E+00 0.  1.
          1   -1    0    0  501    0  0.00000000000E+00 -0.00000000000E+00 -0.38074899603E+03  0.38074899603E+03  0.00000000000E+00 0. -1.
         23    2    1    2    0    0 -0.82775550635E+02  0.13132453331E+03 -0.14978234645E+03  0.24549514213E+03  0.11719722125E+03 0.  0.
        254    2    1    2    0    0  0.82775550635E+02 -0.13132453331E+03  0.95071459285E+03  0.13169350963E+04  0.89797655094E+03 0.  0.
         23    2    4    4    0    0 -0.11748564078E+03 -0.43090621333E+03  0.24273729829E+03  0.51695551360E+03  0.94013651035E+02 0.  0.
         23    2    4    4    0    0  0.20026119142E+03  0.29958168002E+03  0.70797729456E+03  0.79997958272E+03  0.94243065333E+02 0.  0.
          2    1    3    3  502    0 -0.82618459388E+02  0.50178326468E+02 -0.30752379804E+02  0.10143659666E+03  0.00000000000E+00 0. -1.
         -2    1    3    3    0  502 -0.15709124692E+00  0.81146206844E+02 -0.11902996665E+03  0.14405854547E+03  0.00000000000E+00 0.  1.
         13    1    5    5    0    0 -0.69457954884E+02 -0.24295311833E+03  0.18932484560E+03  0.31574439403E+03  0.00000000000E+00 0. -1.
        -13    1    5    5    0    0 -0.48027685900E+02 -0.18795309501E+03  0.53412452690E+02  0.20121111957E+03  0.00000000000E+00 0.  1.
          1    1    6    6  503    0  0.15732222541E+03  0.28763710047E+03  0.61878673714E+03  0.70027309690E+03  0.00000000000E+00 0. -1.
         -1    1    6    6    0  503  0.42938966012E+02  0.11944579552E+02  0.89190557415E+02  0.99706485821E+02  0.00000000000E+00 0.  1.
<mgrwt>
<rscale>  0 0.13415274E+04</rscale>
<asrwt>0</asrwt>
<pdfrwt beam="1">  1        1 0.58576769E-01 0.13415274E+04</pdfrwt>
<pdfrwt beam="2">  1       -1 0.18179711E+00 0.13415274E+04</pdfrwt>
<totfact> 0.12676195E+01</totfact>
</mgrwt>
</event>
<event>
12    3  0.4192740E-008  0.2555036E+04  0.7818608E-02  0.8383637E-01
          2   -1    0    0  501    0  0.00000000000E+00  0.00000000000E+00  0.21359189560E+04  0.21359189560E+04  0.00000000000E+00 0. -1.
         -2   -1    0    0    0  501 -0.00000000000E+00 -0.00000000000E+00 -0.76409814462E+03  0.76409814462E+03  0.00000000000E+00 0.  1.
         23    2    1    2    0    0 -0.32846104915E+03  0.10634343089E+04  0.73983822315E+03  0.13392175556E+04  0.85813021408E+02 0.  0.
        254    2    1    2    0    0  0.32846104915E+03 -0.10634343089E+04  0.63198258821E+03  0.15607995450E+04  0.89326034163E+03 0.  0.
         23    2    4    4    0    0 -0.10358968441E+03 -0.96420228607E+03  0.44734506875E+03  0.10717486933E+04  0.90059868385E+02 0.  0.
         23    2    4    4    0    0  0.43205073356E+03 -0.99232022786E+02  0.18463751946E+03  0.48905085173E+03  0.92546697799E+02 0.  0.
          1    1    3    3  502    0 -0.29229332226E+03  0.82907181050E+03  0.58931466817E+03  0.10583417365E+04  0.00000000000E+00 0. -1.
         -1    1    3    3    0  502 -0.36167726887E+02  0.23436249836E+03  0.15052355498E+03  0.28087581902E+03  0.00000000000E+00 0.  1.
         13    1    5    5    0    0  0.10290032633E+02 -0.14009045352E+03  0.44086690007E+02  0.14722383019E+03  0.00000000000E+00 0. -1.
        -13    1    5    5    0    0 -0.11387971704E+03 -0.82411183254E+03  0.40325837874E+03  0.92452486311E+03  0.00000000000E+00 0.  1.
          1    1    6    6  503    0  0.12892123516E+03 -0.64924418001E+02  0.31654973404E+02  0.14777652814E+03  0.00000000000E+00 0. -1.
         -1    1    6    6    0  503  0.30312949840E+03 -0.34307604785E+02  0.15298254606E+03  0.34127432360E+03  0.00000000000E+00 0.  1.
<mgrwt>
<rscale>  0 0.25550356E+04</rscale>
<asrwt>0</asrwt>
<pdfrwt beam="1">  1        2 0.32860291E+00 0.25550356E+04</pdfrwt>
<pdfrwt beam="2">  1       -2 0.11755356E+00 0.25550356E+04</pdfrwt>
<totfact> 0.27829565E+00</totfact>
</mgrwt>
</event>
<event>
12    3  0.4192740E-008  0.2360677E+04  0.7818608E-02  0.8454374E-01
          1   -1    0    0  501    0  0.00000000000E+00  0.00000000000E+00  0.15065635049E+04  0.15065635049E+04  0.00000000000E+00 0. -1.
         -1   -1    0    0    0  501 -0.00000000000E+00 -0.00000000000E+00 -0.92475288397E+03  0.92475288397E+03  0.00000000000E+00 0.  1.
         23    2    1    2    0    0  0.49591099786E+02  0.64240441170E+00 -0.78564596582E+03  0.79253740596E+03  0.91740211295E+02 0.  0.
        254    2    1    2    0    0 -0.49591099786E+02 -0.64240441170E+00  0.13674565868E+04  0.16387789830E+04  0.90177566408E+03 0.  0.
         23    2    4    4    0    0 -0.20320962438E+02 -0.40768342723E+03  0.99365595182E+03  0.10780804087E+04  0.91030207475E+02 0.  0.
         23    2    4    4    0    0 -0.29270137347E+02  0.40704102282E+03  0.37380063497E+03  0.56069857425E+03  0.90093514010E+02 0.  0.
          1    1    3    3  502    0 -0.60517174428E+01 -0.27444779795E+01 -0.20399775145E+01  0.69510396090E+01  0.00000000000E+00 0. -1.
         -1    1    3    3    0  502  0.55642817228E+02  0.33868823912E+01 -0.78360598831E+03  0.78558636635E+03  0.00000000000E+00 0.  1.
         13    1    5    5    0    0  0.12743895804E+02 -0.24912780018E+03  0.50442669041E+03  0.56273737542E+03  0.00000000000E+00 0. -1.
        -13    1    5    5    0    0 -0.33064858243E+02 -0.15855562705E+03  0.48922926142E+03  0.51534303327E+03  0.00000000000E+00 0.  1.
          4    1    6    6  503    0 -0.19009964051E+02  0.22814203180E+03  0.14871767492E+03  0.27299654255E+03  0.00000000000E+00 0. -1.
         -4    1    6    6    0  503 -0.10260173296E+02  0.17889899101E+03  0.22508296005E+03  0.28770203171E+03  0.00000000000E+00 0.  1.
<mgrwt>
<rscale>  0 0.23606770E+04</rscale>
<asrwt>0</asrwt>
<pdfrwt beam="1">  1        1 0.23177900E+00 0.23606770E+04</pdfrwt>
<pdfrwt beam="2">  1       -1 0.14226967E+00 0.23606770E+04</pdfrwt>
<totfact> 0.23388931E+00</totfact>
</mgrwt>
</event>
<event>
12    3  0.4192740E-008  0.1234579E+04  0.7818608E-02  0.9083117E-01
          1   -1    0    0  501    0  0.00000000000E+00  0.00000000000E+00  0.90523917213E+03  0.90523917213E+03  0.00000000000E+00 0. -1.
         -1   -1    0    0    0  501 -0.00000000000E+00 -0.00000000000E+00 -0.42093429685E+03  0.42093429685E+03  0.00000000000E+00 0.  1.
         23    2    1    2    0    0 -0.23211659269E+03 -0.91796493532E+02  0.34948473931E+03  0.43930812804E+03  0.92451822759E+02 0.  0.
        254    2    1    2    0    0  0.23211659269E+03  0.91796493532E+02  0.13482013598E+03  0.88686534094E+03  0.84026719267E+03 0.  0.
         23    2    4    4    0    0  0.36707267157E+02  0.36377785509E+03 -0.18031267105E+03  0.41775110753E+03  0.91222679125E+02 0.  0.
         23    2    4    4    0    0  0.19540932553E+03 -0.27198136156E+03  0.31513280703E+03  0.46911423341E+03  0.92740564939E+02 0.  0.
          2    1    3    3  502    0 -0.84802082744E+02 -0.57533795918E+02  0.20951001471E+03  0.23322945177E+03  0.00000000000E+00 0. -1.
         -2    1    3    3    0  502 -0.14731450994E+03 -0.34262697614E+02  0.13997472460E+03  0.20607867627E+03  0.00000000000E+00 0.  1.
         13    1    5    5    0    0 -0.13777249130E+02  0.24972301542E+03 -0.99715009130E+02  0.26924798990E+03  0.00000000000E+00 0. -1.
        -13    1    5    5    0    0  0.50484516287E+02  0.11405483967E+03 -0.80597661921E+02  0.14850311763E+03  0.00000000000E+00 0.  1.
          2    1    6    6  503    0  0.14277442909E+03 -0.13832608207E+03  0.22160495668E+03  0.29770354282E+03  0.00000000000E+00 0. -1.
         -2    1    6    6    0  503  0.52634896442E+02 -0.13365527949E+03  0.93527850350E+02  0.17141069059E+03  0.00000000000E+00 0.  1.
<mgrwt>
<rscale>  0 0.12345788E+04</rscale>
<asrwt>0</asrwt>
<pdfrwt beam="1">  1        1 0.13926756E+00 0.12345788E+04</pdfrwt>
<pdfrwt beam="2">  1       -1 0.64759123E-01 0.12345788E+04</pdfrwt>
<totfact> 0.43013249E+01</totfact>
</mgrwt>
</event>
<event>
12    3  0.4192740E-008  0.1421442E+04  0.7818608E-02  0.8938442E-01
          2   -1    0    0  501    0  0.00000000000E+00  0.00000000000E+00  0.63778279616E+03  0.63778279616E+03  0.00000000000E+00 0. -1.
         -2   -1    0    0    0  501 -0.00000000000E+00 -0.00000000000E+00 -0.79200081541E+03  0.79200081541E+03  0.00000000000E+00 0.  1.
         23    2    1    2    0    0 -0.25379579705E+03  0.13456069517E+03 -0.34378358087E+03  0.46411794237E+03  0.12124119210E+03 0.  0.
        254    2    1    2    0    0  0.25379579705E+03 -0.13456069517E+03  0.18956556162E+03  0.96566566920E+03  0.90225062773E+03 0.  0.
         23    2    4    4    0    0  0.27084747716E+03 -0.48883153489E+03  0.33569254794E+02  0.56757591543E+03  0.93278612370E+02 0.  0.
         23    2    4    4    0    0 -0.17051680113E+02  0.35427083972E+03  0.15599630683E+03  0.39808975377E+03  0.91334640979E+02 0.  0.
          1    1    3    3  502    0 -0.15908278089E+03  0.17673447247E+02 -0.15606455243E+03  0.22355273749E+03  0.00000000000E+00 0. -1.
         -1    1    3    3    0  502 -0.94713016157E+02  0.11688724792E+03 -0.18771902844E+03  0.24056520487E+03  0.00000000000E+00 0.  1.
         13    1    5    5    0    0  0.93372917620E+02 -0.90622975161E+02  0.17725556911E+02  0.13132105977E+03  0.00000000000E+00 0. -1.
        -13    1    5    5    0    0  0.17747455954E+03 -0.39820855973E+03  0.15843697883E+02  0.43625485566E+03  0.00000000000E+00 0.  1.
          1    1    6    6  503    0 -0.14163311360E+01  0.20378918373E+02 -0.12309707750E+02  0.23850266515E+02  0.00000000000E+00 0. -1.
         -1    1    6    6    0  503 -0.15635348977E+02  0.33389192135E+03  0.16830601458E+03  0.37423948725E+03  0.00000000000E+00 0.  1.
<mgrwt>
<rscale>  0 0.14214422E+04</rscale>
<asrwt>0</asrwt>
<pdfrwt beam="1">  1        2 0.98120430E-01 0.14214422E+04</pdfrwt>
<pdfrwt beam="2">  1       -2 0.12184628E+00 0.14214422E+04</pdfrwt>
<totfact> 0.22860570E+01</totfact>
</mgrwt>
</event>
<event>
12    3  0.4192740E-008  0.1136422E+04  0.7818608E-02  0.9170402E-01
          2   -1    0    0  501    0  0.00000000000E+00  0.00000000000E+00  0.25206696244E+03  0.25206696244E+03  0.00000000000E+00 0. -1.
         -2   -1    0    0    0  501 -0.00000000000E+00 -0.00000000000E+00 -0.12808639221E+04  0.12808639221E+04  0.00000000000E+00 0.  1.
         23    2    1    2    0    0  0.14570962098E+03  0.11007241205E+03 -0.34330623454E+03  0.40183032120E+03  0.10129761509E+03 0.  0.
        254    2    1    2    0    0 -0.14570962098E+03 -0.11007241205E+03 -0.68549072515E+03  0.11311005634E+04  0.88099019328E+03 0.  0.
         23    2    4    4    0    0  0.67903459459E+02 -0.46107565481E+03 -0.41260529754E+03  0.62928115521E+03  0.92466218046E+02 0.  0.
         23    2    4    4    0    0 -0.21361308043E+03  0.35100324276E+03 -0.27288542761E+03  0.50181940816E+03  0.92317047418E+02 0.  0.
          4    1    3    3  502    0  0.10839551650E+03  0.12025938182E+03 -0.22380830207E+03  0.27622828058E+03  0.00000000000E+00 0. -1.
         -4    1    3    3    0  502  0.37314104471E+02 -0.10186969767E+02 -0.11949793246E+03  0.12560204062E+03  0.00000000000E+00 0.  1.
         13    1    5    5    0    0  0.88996301924E+01 -0.34273521130E+03 -0.30176185574E+03  0.45673498450E+03  0.00000000000E+00 0.  1.
        -13    1    5    5    0    0  0.59003829267E+02 -0.11834044351E+03 -0.11084344180E+03  0.17254617072E+03  0.00000000000E+00 0. -1.
          4    1    6    6  503    0 -0.21779081484E+03  0.35089097506E+03 -0.27589944041E+03  0.49666670577E+03  0.00000000000E+00 0.  1.
         -4    1    6    6    0  503  0.41777344052E+01  0.11226770149E+00  0.30140127938E+01  0.51527023899E+01  0.00000000000E+00 0. -1.
<mgrwt>
<rscale>  0 0.11364215E+04</rscale>
<asrwt>0</asrwt>
<pdfrwt beam="1">  1        2 0.38779533E-01 0.11364215E+04</pdfrwt>
<pdfrwt beam="2">  1       -2 0.19705599E+00 0.11364215E+04</pdfrwt>
<totfact> 0.18367403E+01</totfact>
</mgrwt>
</event>
<event>
12    3  0.4192740E-008  0.2859946E+04  0.7818608E-02  0.8284895E-01
          2   -1    0    0  501    0  0.00000000000E+00  0.00000000000E+00  0.27675273860E+04  0.27675273860E+04  0.00000000000E+00 0. -1.
         -2   -1    0    0    0  501 -0.00000000000E+00 -0.00000000000E+00 -0.73886267602E+03  0.73886267602E+03  0.00000000000E+00 0.  1.
         23    2    1    2    0    0 -0.57921867615E+03 -0.11423062254E+04  0.76096518701E+03  0.14925901722E+04  0.91649435950E+02 0.  0.
        254    2    1    2    0    0  0.57921867615E+03  0.11423062254E+04  0.12676995230E+04  0.20137998898E+04  0.89887158610E+03 0.  0.
         23    2    4    4    0    0  0.80573529968E+03  0.77168545606E+03  0.94652325964E+03  0.14656598917E+04  0.86860929051E+02 0.  0.
         23    2    4    4    0    0 -0.22651662353E+03  0.37062076929E+03  0.32117626334E+03  0.54813999805E+03  0.92917866758E+02 0.  0.
          3    1    3    3  502    0 -0.34470922772E+03 -0.66623564716E+03  0.49733761213E+03  0.90002171621E+03  0.00000000000E+00 0. -1.
         -3    1    3    3    0  502 -0.23450944843E+03 -0.47607057819E+03  0.26362757489E+03  0.59256845602E+03  0.00000000000E+00 0.  1.
         13    1    5    5    0    0  0.11623780433E+02  0.21780986801E+02  0.91119564823E+01  0.26316371492E+02  0.00000000000E+00 0.  1.
        -13    1    5    5    0    0  0.79411151924E+03  0.74990446926E+03  0.93741130315E+03  0.14393435203E+04  0.00000000000E+00 0. -1.
          3    1    6    6  503    0 -0.12716745153E+03  0.15479860587E+03  0.10161183257E+03  0.22463110566E+03  0.00000000000E+00 0. -1.
         -3    1    6    6    0  503 -0.99349171998E+02  0.21582216342E+03  0.21956443077E+03  0.32350889240E+03  0.00000000000E+00 0.  1.
<mgrwt>
<rscale>  0 0.28599459E+04</rscale>
<asrwt>0</asrwt>
<pdfrwt beam="1">  1        2 0.42577344E+00 0.28599459E+04</pdfrwt>
<pdfrwt beam="2">  1       -2 0.11367118E+00 0.28599459E+04</pdfrwt>
<totfact> 0.12702623E+00</totfact>
</mgrwt>
</event>
<event>
12    3  0.4192740E-008  0.2843640E+04  0.7818608E-02  0.8289846E-01
         -1   -1    0    0    0  501 -0.00000000000E+00  0.00000000000E+00  0.84086394495E+03  0.84086394495E+03  0.00000000000E+00 0.  1.
          1   -1    0    0  501    0  0.00000000000E+00 -0.00000000000E+00 -0.24041614892E+04  0.24041614892E+04  0.00000000000E+00 0. -1.
         23    2    1    2    0    0  0.70775533361E+03 -0.10594332034E+04 -0.79790581151E+03  0.15059457258E+04  0.88896120546E+02 0.  0.
        254    2    1    2    0    0 -0.70775533361E+03  0.10594332034E+04 -0.76539173272E+03  0.17390797084E+04  0.90291605531E+03 0.  0.
         23    2    4    4    0    0 -0.55517121172E+03  0.43506453435E+03  0.30982754243E+02  0.71128747835E+03  0.86450693618E+02 0.  0.
         23    2    4    4    0    0 -0.15258412190E+03  0.62436866901E+03 -0.79637448696E+03  0.10277922300E+04  0.95007344593E+02 0.  0.
          4    1    3    3  502    0  0.28508552130E+03 -0.49996657286E+03 -0.38020767254E+03  0.68978127163E+03  0.00000000000E+00 0. -1.
         -4    1    3    3    0  502  0.42266981231E+03 -0.55946663050E+03 -0.41769813897E+03  0.81616445413E+03  0.00000000000E+00 0.  1.
         13    1    5    5    0    0 -0.40146266203E+03  0.33827677580E+03  0.55884166903E+02  0.52794553333E+03  0.00000000000E+00 0.  1.
        -13    1    5    5    0    0 -0.15370854968E+03  0.96787758550E+02 -0.24901412660E+02  0.18334194502E+03  0.00000000000E+00 0. -1.
          4    1    6    6  503    0 -0.10427808377E+03  0.43320479789E+03 -0.47939605013E+03  0.65449284835E+03  0.00000000000E+00 0. -1.
         -4    1    6    6    0  503 -0.48306038130E+02  0.19116387113E+03 -0.31697843683E+03  0.37329938167E+03  0.00000000000E+00 0.  1.
<mgrwt>
<rscale>  0 0.28436404E+04</rscale>
<asrwt>0</asrwt>
<pdfrwt beam="1">  1        1 0.36987101E+00 0.28436404E+04</pdfrwt>
<pdfrwt beam="2">  1       -1 0.12936368E+00 0.28436404E+04</pdfrwt>
<totfact> 0.69869871E-01</totfact>
</mgrwt>
</event>
<event>
12    3  0.4192740E-008  0.1259107E+04  0.7818608E-02  0.9062638E-01
         -1   -1    0    0    0  501 -0.00000000000E+00  0.00000000000E+00  0.18983694762E+03  0.18983694762E+03  0.00000000000E+00 0.  1.
          1   -1    0    0  501    0  0.00000000000E+00 -0.00000000000E+00 -0.20877779739E+04  0.20877779739E+04  0.00000000000E+00 0. -1.
         23    2    1    2    0    0 -0.38645070099E+02 -0.13839113254E+03  0.28236197238E+01  0.17008396272E+03  0.90967216834E+02 0.  0.
        254    2    1    2    0    0  0.38645070099E+02  0.13839113254E+03 -0.19007646460E+04  0.21075309588E+04  0.89896326723E+03 0.  0.
         23    2    4    4    0    0  0.15809756827E+03  0.48339305270E+03 -0.89034377006E+03  0.10293762788E+04  0.90773398625E+02 0.  0.
         23    2    4    4    0    0 -0.11945249817E+03 -0.34500192016E+03 -0.10104208759E+04  0.10781546800E+04  0.90398801611E+02 0.  0.
          2    1    3    3  502    0  0.50564442545E+01 -0.29129185443E+02 -0.35615427946E+02  0.46287533753E+02  0.00000000000E+00 0. -1.
         -2    1    3    3    0  502 -0.43701514354E+02 -0.10926194709E+03  0.38439047670E+02  0.12379642897E+03  0.00000000000E+00 0.  1.
         13    1    5    5    0    0  0.82539737594E+02  0.27977558170E+03 -0.59627751068E+03  0.66380272230E+03  0.00000000000E+00 0.  1.
        -13    1    5    5    0    0  0.75557830677E+02  0.20361747100E+03 -0.29406625938E+03  0.36557355646E+03  0.00000000000E+00 0. -1.
          1    1    6    6  503    0  0.98268850444E+01 -0.78658144796E+02 -0.24317162965E+03  0.25576573828E+03  0.00000000000E+00 0. -1.
         -1    1    6    6    0  503 -0.12927938322E+03 -0.26634377537E+03 -0.76724924628E+03  0.82238894175E+03  0.00000000000E+00 0.  1.
<mgrwt>
<rscale>  0 0.12591067E+04</rscale>
<asrwt>0</asrwt>
<pdfrwt beam="1">  1        1 0.32119661E+00 0.12591067E+04</pdfrwt>
<pdfrwt beam="2">  1       -1 0.29205685E-01 0.12591067E+04</pdfrwt>
<totfact> 0.27436260E+01</totfact>
</mgrwt>
</event>
<event>
12    3  0.4192740E-008  0.1119437E+04  0.7818608E-02  0.9186451E-01
         -2   -1    0    0    0  501 -0.00000000000E+00  0.00000000000E+00  0.12573930022E+04  0.12573930022E+04  0.00000000000E+00 0.  1.
          2   -1    0    0  501    0  0.00000000000E+00 -0.00000000000E+00 -0.24915435876E+03  0.24915435876E+03  0.00000000000E+00 0. -1.
         23    2    1    2    0    0 -0.55974362376E+02 -0.10417282910E+03  0.36120995877E+03  0.39217830845E+03  0.96675145385E+02 0.  0.
        254    2    1    2    0    0  0.55974362376E+02  0.10417282910E+03  0.64702868464E+03  0.11143690525E+04  0.89954830823E+03 0.  0.
         23    2    4    4    0    0 -0.29345888460E+03 -0.76018783775E+01 -0.60170477466E+02  0.31227475407E+03  0.87858580504E+02 0.  0.
         23    2    4    4    0    0  0.34943324698E+03  0.11177470748E+03  0.70719916211E+03  0.80209429842E+03  0.92883956341E+02 0.  0.
          3    1    3    3  502    0 -0.60005449029E+02 -0.43913618773E+02  0.10322245600E+03  0.12721609666E+03  0.00000000000E+00 0. -1.
         -3    1    3    3    0  502  0.40310866527E+01 -0.60259210328E+02  0.25798750277E+03  0.26496221179E+03  0.00000000000E+00 0.  1.
         13    1    5    5    0    0 -0.15707515662E+03 -0.29998239905E+02 -0.68158968438E+02  0.17383366821E+03  0.00000000000E+00 0. -1.
        -13    1    5    5    0    0 -0.13638372798E+03  0.22396361528E+02  0.79884909719E+01  0.13844108587E+03  0.00000000000E+00 0.  1.
          3    1    6    6  503    0  0.33905424728E+03  0.10388406295E+03  0.62267823627E+03  0.71657369967E+03  0.00000000000E+00 0. -1.
         -3    1    6    6    0  503  0.10378999691E+02  0.78906445320E+01  0.84520925833E+02  0.85520598743E+02  0.00000000000E+00 0.  1.
<mgrwt>
<rscale>  0 0.11194373E+04</rscale>
<asrwt>0</asrwt>
<pdfrwt beam="1">  1        2 0.38331440E-01 0.11194373E+04</pdfrwt>
<pdfrwt beam="2">  1       -2 0.19344507E+00 0.11194373E+04</pdfrwt>
<totfact> 0.19684332E+01</totfact>
</mgrwt>
</event>
<event>
12    3  0.4192740E-008  0.2219170E+04  0.7818608E-02  0.8510491E-01
         -1   -1    0    0    0  501 -0.00000000000E+00  0.00000000000E+00  0.19227836379E+04  0.19227836379E+04  0.00000000000E+00 0.  1.
          1   -1    0    0  501    0  0.00000000000E+00 -0.00000000000E+00 -0.64031094436E+03  0.64031094436E+03  0.00000000000E+00 0. -1.
         23    2    1    2    0    0 -0.14727249998E+02  0.32457076431E+03 -0.46304796135E+03  0.57286860059E+03  0.90564596272E+02 0.  0.
        254    2    1    2    0    0  0.14727249998E+02 -0.32457076431E+03  0.17455206549E+04  0.19902259817E+04  0.89921856550E+03 0.  0.
         23    2    4    4    0    0  0.10601778795E+03  0.23758866573E+03  0.10490960561E+04  0.10848151743E+04  0.92375765548E+02 0.  0.
         23    2    4    4    0    0 -0.91290537951E+02 -0.56215943004E+03  0.69642459885E+03  0.90541080741E+03  0.10200157444E+03 0.  0.
          1    1    3    3  502    0  0.36644991476E+02  0.18388336878E+03 -0.26037350529E+03  0.32085870874E+03  0.00000000000E+00 0. -1.
         -1    1    3    3    0  502 -0.51372241474E+02  0.14068739553E+03 -0.20267445606E+03  0.25200989186E+03  0.00000000000E+00 0.  1.
         13    1    5    5    0    0  0.96635171432E+02  0.23348780405E+03  0.88416494068E+03  0.91956650294E+03  0.00000000000E+00 0.  1.
        -13    1    5    5    0    0  0.93826165170E+01  0.41008616780E+01  0.16493111539E+03  0.16524867135E+03  0.00000000000E+00 0. -1.
          4    1    6    6  503    0 -0.62318819296E+01 -0.11418112007E+03  0.20702981065E+03  0.23651111397E+03  0.00000000000E+00 0. -1.
         -4    1    6    6    0  503 -0.85058656021E+02 -0.44797830997E+03  0.48939478820E+03  0.66889969344E+03  0.00000000000E+00 0.  1.
<mgrwt>
<rscale>  0 0.22191705E+04</rscale>
<asrwt>0</asrwt>
<pdfrwt beam="1">  1        1 0.98509377E-01 0.22191705E+04</pdfrwt>
<pdfrwt beam="2">  1       -1 0.29581287E+00 0.22191705E+04</pdfrwt>
<totfact> 0.99676460E-01</totfact>
</mgrwt>
</event>
<event>
12    3  0.4192740E-008  0.3110910E+04  0.7818608E-02  0.8212750E-01
          2   -1    0    0  501    0  0.00000000000E+00  0.00000000000E+00  0.10507117757E+04  0.10507117757E+04  0.00000000000E+00 0. -1.
         -2   -1    0    0    0  501 -0.00000000000E+00 -0.00000000000E+00 -0.23026682158E+04  0.23026682158E+04  0.00000000000E+00 0.  1.
         23    2    1    2    0    0  0.62761884700E+03  0.71691306660E+03  0.56660774090E+03  0.11122270325E+04  0.90193555937E+02 0.  0.
        254    2    1    2    0    0 -0.62761884700E+03 -0.71691306660E+03 -0.18185641810E+04  0.22411529590E+04  0.89873307657E+03 0.  0.
         23    2    4    4    0    0 -0.72308374291E+03 -0.18265421329E+03 -0.11721069734E+04  0.13922548066E+04  0.91247074690E+02 0.  0.
         23    2    4    4    0    0  0.95464895911E+02 -0.53425885331E+03 -0.64645720759E+03  0.84889815232E+03  0.90416166005E+02 0.  0.
          4    1    3    3  502    0  0.58387078437E+03  0.65803676281E+03  0.49362429437E+03  0.10087529024E+04  0.00000000000E+00 0. -1.
         -4    1    3    3    0  502  0.43748062633E+02  0.58876303792E+02  0.72983446531E+02  0.10347413010E+03  0.00000000000E+00 0.  1.
         13    1    5    5    0    0 -0.28834948220E+03 -0.48214925790E+02 -0.52948858863E+03  0.60483739008E+03  0.00000000000E+00 0.  1.
        -13    1    5    5    0    0 -0.43473426072E+03 -0.13443928750E+03 -0.64261838477E+03  0.78741741656E+03  0.00000000000E+00 0. -1.
          3    1    6    6  503    0  0.11036109416E+02 -0.16315497550E+02 -0.53811263280E+02  0.57303082178E+02  0.00000000000E+00 0. -1.
         -3    1    6    6    0  503  0.84428786495E+02 -0.51794335576E+03 -0.59264594431E+03  0.79159507014E+03  0.00000000000E+00 0.  1.
<mgrwt>
<rscale>  0 0.31109102E+04</rscale>
<asrwt>0</asrwt>
<pdfrwt beam="1">  1        2 0.16164797E+00 0.31109102E+04</pdfrwt>
<pdfrwt beam="2">  1       -2 0.35425665E+00 0.31109102E+04</pdfrwt>
<totfact> 0.28997103E-01</totfact>
</mgrwt>
</event>
<event>
12    3  0.4192740E-008  0.1589571E+04  0.7818608E-02  0.8826980E-01
          1   -1    0    0  501    0  0.00000000000E+00  0.00000000000E+00  0.15588473806E+04  0.15588473806E+04  0.00000000000E+00 0. -1.
         -1   -1    0    0    0  501 -0.00000000000E+00 -0.00000000000E+00 -0.40522527018E+03  0.40522527018E+03  0.00000000000E+00 0.  1.
         23    2    1    2    0    0  0.51396621271E+03  0.12283936653E+03  0.42045503665E+03  0.68131380655E+03  0.90306629715E+02 0.  0.
        254    2    1    2    0    0 -0.51396621271E+03 -0.12283936653E+03  0.73316707379E+03  0.12827588442E+04  0.91032165559E+03 0.  0.
         23    2    4    4    0    0  0.87380766714E+02 -0.35161475989E+03  0.41639469906E+03  0.55987975082E+03  0.93874662257E+02 0.  0.
         23    2    4    4    0    0 -0.60134697942E+03  0.22877539336E+03  0.31677237472E+03  0.72287909342E+03  0.90846442171E+02 0.  0.
          3    1    3    3  502    0  0.17034396658E+03  0.42928147049E+02  0.19585264805E+03  0.26309342924E+03  0.00000000000E+00 0.  1.
         -3    1    3    3    0  502  0.34362224612E+03  0.79911219480E+02  0.22460238860E+03  0.41822037731E+03  0.00000000000E+00 0. -1.
         13    1    5    5    0    0  0.40683035219E+02 -0.75505626596E+02  0.51950195532E+02  0.10027478157E+03  0.00000000000E+00 0.  1.
        -13    1    5    5    0    0  0.46697731495E+02 -0.27610913329E+03  0.36444450353E+03  0.45960496926E+03  0.00000000000E+00 0. -1.
          2    1    6    6  503    0 -0.25930118066E+03  0.81196452216E+02  0.18052810377E+03  0.32622133957E+03  0.00000000000E+00 0. -1.
         -2    1    6    6    0  503 -0.34204579876E+03  0.14757894114E+03  0.13624427095E+03  0.39665775385E+03  0.00000000000E+00 0.  1.
<mgrwt>
<rscale>  0 0.15895715E+04</rscale>
<asrwt>0</asrwt>
<pdfrwt beam="1">  1        1 0.23982267E+00 0.15895715E+04</pdfrwt>
<pdfrwt beam="2">  1       -1 0.62342350E-01 0.15895715E+04</pdfrwt>
<totfact> 0.14927407E+01</totfact>
</mgrwt>
</event>
<event>
12    3  0.4192740E-008  0.1538411E+04  0.7818608E-02  0.8859304E-01
          1   -1    0    0  501    0  0.00000000000E+00  0.00000000000E+00  0.11000747415E+04  0.11000747415E+04  0.00000000000E+00 0. -1.
         -1   -1    0    0    0  501 -0.00000000000E+00 -0.00000000000E+00 -0.53785192301E+03  0.53785192301E+03  0.00000000000E+00 0.  1.
         23    2    1    2    0    0  0.59072215097E+02 -0.43880240232E+03  0.40133780856E+03  0.60418689979E+03  0.89065697233E+02 0.  0.
        254    2    1    2    0    0 -0.59072215097E+02  0.43880240232E+03  0.16088500989E+03  0.10337397647E+04  0.92016131184E+03 0.  0.
         23    2    4    4    0    0 -0.43906547210E+03  0.36251581304E+03 -0.56873331235E+02  0.57943998066E+03  0.91213550951E+02 0.  0.
         23    2    4    4    0    0  0.37999325701E+03  0.76286589275E+02  0.21775834113E+03  0.45429978403E+03  0.93568582134E+02 0.  0.
          2    1    3    3  502    0  0.62318869033E+02 -0.35147707928E+03  0.36187327536E+03  0.50830310457E+03  0.00000000000E+00 0. -1.
         -2    1    3    3    0  502 -0.32466539351E+01 -0.87325323037E+02  0.39464533202E+02  0.95883795222E+02  0.00000000000E+00 0.  1.
         13    1    5    5    0    0 -0.12169386519E+03  0.13328471863E+03  0.16092527934E+02  0.18119928946E+03  0.00000000000E+00 0.  1.
        -13    1    5    5    0    0 -0.31737160691E+03  0.22923109441E+03 -0.72965859170E+02  0.39824069119E+03  0.00000000000E+00 0. -1.
          2    1    6    6  503    0  0.20444625551E+03  0.32826858153E+02  0.63451455670E+02  0.21656860630E+03  0.00000000000E+00 0. -1.
         -2    1    6    6    0  503  0.17554700150E+03  0.43459731122E+02  0.15430688546E+03  0.23773117773E+03  0.00000000000E+00 0.  1.
<mgrwt>
<rscale>  0 0.15384113E+04</rscale>
<asrwt>0</asrwt>
<pdfrwt beam="1">  1        1 0.16924227E+00 0.15384113E+04</pdfrwt>
<pdfrwt beam="2">  1       -1 0.82746450E-01 0.15384113E+04</pdfrwt>
<totfact> 0.17741845E+01</totfact>
</mgrwt>
</event>
<event>
12    3  0.4192740E-008  0.1456814E+04  0.7818608E-02  0.8913690E-01
          2   -1    0    0  501    0  0.00000000000E+00  0.00000000000E+00  0.13563976242E+04  0.13563976242E+04  0.00000000000E+00 0.  1.
         -2   -1    0    0    0  501 -0.00000000000E+00 -0.00000000000E+00 -0.39116635302E+03  0.39116635302E+03  0.00000000000E+00 0. -1.
         23    2    1    2    0    0 -0.45600262004E+03  0.11616960283E+03  0.73967743099E+02  0.48481197180E+03  0.90208951206E+02 0.  0.
        254    2    1    2    0    0  0.45600262004E+03 -0.11616960283E+03  0.89126352807E+03  0.12627520054E+04  0.76076158195E+03 0.  0.
         23    2    4    4    0    0 -0.75613286405E+02 -0.29823974002E+03  0.39841694299E+03  0.50975263779E+03  0.80295576897E+02 0.  0.
         23    2    4    4    0    0  0.53161590644E+03  0.18207013719E+03  0.49284658509E+03  0.75299936761E+03  0.91352527913E+02 0.  0.
          3    1    3    3  502    0 -0.42816839435E+03  0.12762601015E+03  0.80583694827E+02  0.45399372711E+03  0.00000000000E+00 0. -1.
         -3    1    3    3    0  502 -0.27834225692E+02 -0.11456407317E+02 -0.66159517282E+01  0.30818244690E+02  0.00000000000E+00 0.  1.
         13    1    5    5    0    0  0.15825790822E+02 -0.23037124729E+02  0.32903066815E+02  0.43171478741E+02  0.00000000000E+00 0.  1.
        -13    1    5    5    0    0 -0.91439077227E+02 -0.27520261529E+03  0.36551387617E+03  0.46658115905E+03  0.00000000000E+00 0. -1.
          4    1    6    6  503    0  0.52394782268E+03  0.18893223026E+03  0.49110330195E+03  0.74256256418E+03  0.00000000000E+00 0. -1.
         -4    1    6    6    0  503  0.76680837583E+01 -0.68620930739E+01  0.17432831322E+01  0.10436803436E+02  0.00000000000E+00 0.  1.
<mgrwt>
<rscale>  0 0.14568145E+04</rscale>
<asrwt>0</asrwt>
<pdfrwt beam="1">  1        2 0.20867656E+00 0.14568145E+04</pdfrwt>
<pdfrwt beam="2">  1       -2 0.60179440E-01 0.14568145E+04</pdfrwt>
<totfact> 0.38240798E+01</totfact>
</mgrwt>
</event>
<event>
12    3  0.4860409E-008  0.1813441E+04  0.7818608E-02  0.8699184E-01
         -1   -1    0    0    0  501 -0.00000000000E+00  0.00000000000E+00  0.64917262754E+03  0.64917262754E+03  0.00000000000E+00 0.  1.
          1   -1    0    0  501    0  0.00000000000E+00 -0.00000000000E+00 -0.12664455393E+04  0.12664455393E+04  0.00000000000E+00 0. -1.
         23    2    1    2    0    0  0.83520521685E+02 -0.55473215027E+02  0.47551887146E+03  0.49338144191E+03  0.85170974983E+02 0.  0.
        254    2    1    2    0    0 -0.83520521685E+02  0.55473215027E+02 -0.10927917832E+04  0.14222367249E+04  0.90471568192E+03 0.  0.
         23    2    4    4    0    0  0.27122779967E+03  0.32756201403E+02 -0.20715430107E+02  0.28868418749E+03  0.90950222747E+02 0.  0.
         23    2    4    4    0    0 -0.35474832135E+03  0.22717013624E+02 -0.10720763531E+04  0.11335525374E+04  0.96079206903E+02 0.  0.
          2    1    3    3  502    0 -0.54276181947E+01 -0.21069870488E+02  0.26217294395E+02  0.34069708057E+02  0.00000000000E+00 0. -1.
         -2    1    3    3    0  502  0.88948139880E+02 -0.34403344539E+02  0.44930157707E+03  0.45931173386E+03  0.00000000000E+00 0.  1.
         13    1    5    5    0    0  0.24462135278E+02  0.25170070107E+02 -0.22689517434E+02  0.41794050928E+02  0.00000000000E+00 0. -1.
        -13    1    5    5    0    0  0.24676566439E+03  0.75861312957E+01  0.19740873268E+01  0.24689013656E+03  0.00000000000E+00 0.  1.
          2    1    6    6  503    0 -0.10307337246E+02 -0.81427823691E+01 -0.97591276021E+01  0.16364188870E+02  0.00000000000E+00 0. -1.
         -2    1    6    6    0  503 -0.34444098411E+03  0.30859795993E+02 -0.10623172255E+04  0.11171883486E+04  0.00000000000E+00 0.  1.
<mgrwt>
<rscale>  0 0.18134407E+04</rscale>
<asrwt>0</asrwt>
<pdfrwt beam="1">  1        1 0.19483777E+00 0.18134407E+04</pdfrwt>
<pdfrwt beam="2">  1       -1 0.99872714E-01 0.18134407E+04</pdfrwt>
<totfact> 0.86155163E+00</totfact>
</mgrwt>
</event>
<event>
12    3  0.4192740E-008  0.2309793E+04  0.7818608E-02  0.8474070E-01
          2   -1    0    0  501    0  0.00000000000E+00  0.00000000000E+00  0.20380517546E+04  0.20380517546E+04  0.00000000000E+00 0. -1.
         -2   -1    0    0    0  501 -0.00000000000E+00 -0.00000000000E+00 -0.65444174646E+03  0.65444174646E+03  0.00000000000E+00 0.  1.
         23    2    1    2    0    0 -0.17638809244E+02 -0.27995156882E+03  0.16760215492E+04  0.17017733153E+04  0.91105294940E+02 0.  0.
        254    2    1    2    0    0  0.17638809244E+02  0.27995156882E+03 -0.29241154109E+03  0.99072018574E+03  0.90406745800E+03 0.  0.
         23    2    4    4    0    0  0.21171910991E+03  0.54654005323E+03 -0.10959544044E+03  0.60304444427E+03  0.90113428026E+02 0.  0.
         23    2    4    4    0    0 -0.19408030067E+03 -0.26658848441E+03 -0.18281610064E+03  0.38767574147E+03  0.90189637673E+02 0.  0.
          1    1    3    3  502    0 -0.36649797236E+02 -0.17448825119E+03  0.12412304119E+04  0.12539706109E+04  0.00000000000E+00 0. -1.
         -1    1    3    3    0  502  0.19010987992E+02 -0.10546331763E+03  0.43479113728E+03  0.44780270443E+03  0.00000000000E+00 0.  1.
         13    1    5    5    0    0  0.19962990769E+03  0.41187722444E+03 -0.89039266412E+02  0.46628632729E+03  0.00000000000E+00 0.  1.
        -13    1    5    5    0    0  0.12089202224E+02  0.13466282879E+03 -0.20556174031E+02  0.13675811698E+03  0.00000000000E+00 0. -1.
          2    1    6    6  503    0 -0.19398722689E+03 -0.23832823604E+03 -0.18605187812E+03  0.35923069697E+03  0.00000000000E+00 0.  1.
         -2    1    6    6    0  503 -0.93073776341E-01 -0.28260248379E+02  0.32357774819E+01  0.28445044508E+02  0.00000000000E+00 0. -1.
<mgrwt>
<rscale>  0 0.23097932E+04</rscale>
<asrwt>0</asrwt>
<pdfrwt beam="1">  1        2 0.31354642E+00 0.23097932E+04</pdfrwt>
<pdfrwt beam="2">  1       -2 0.10068335E+00 0.23097932E+04</pdfrwt>
<totfact> 0.46843944E+00</totfact>
</mgrwt>
</event>
<event>
12    3  0.4192740E-008  0.2413327E+04  0.7818608E-02  0.8434531E-01
          2   -1    0    0  501    0  0.00000000000E+00  0.00000000000E+00  0.15985767626E+04  0.15985767626E+04  0.00000000000E+00 0. -1.
         -2   -1    0    0    0  501 -0.00000000000E+00 -0.00000000000E+00 -0.91083307092E+03  0.91083307092E+03  0.00000000000E+00 0.  1.
         23    2    1    2    0    0 -0.36776229397E+03  0.59228889880E+03  0.10888160239E+04  0.12961302654E+04  0.91531887507E+02 0.  0.
        254    2    1    2    0    0  0.36776229397E+03 -0.59228889880E+03 -0.40107233221E+03  0.12132795682E+04  0.90836834507E+03 0.  0.
         23    2    4    4    0    0 -0.15957119724E+03 -0.19600111012E+03  0.18497964557E+03  0.32633791478E+03  0.91649130887E+02 0.  0.
         23    2    4    4    0    0  0.52733349121E+03 -0.39628778867E+03 -0.58605197777E+03  0.88694165337E+03  0.89910808181E+02 0.  0.
          1    1    3    3  502    0 -0.33871415335E+03  0.49895485827E+03  0.97112838218E+03  0.11431419697E+04  0.00000000000E+00 0. -1.
         -1    1    3    3    0  502 -0.29048140621E+02  0.93334040529E+02  0.11768764174E+03  0.15298829568E+03  0.00000000000E+00 0.  1.
         13    1    5    5    0    0 -0.17120961334E+03 -0.18087783725E+03  0.17752367097E+03  0.30584992637E+03  0.00000000000E+00 0. -1.
        -13    1    5    5    0    0  0.11638416103E+02 -0.15123272876E+02  0.74559746004E+01  0.20487988410E+02  0.00000000000E+00 0.  1.
          4    1    6    6  503    0  0.23362684095E+03 -0.13969659966E+03 -0.19657227034E+03  0.33576375360E+03  0.00000000000E+00 0. -1.
         -4    1    6    6    0  503  0.29370665026E+03 -0.25659118902E+03 -0.38947970744E+03  0.55117789977E+03  0.00000000000E+00 0.  1.
<mgrwt>
<rscale>  0 0.24133268E+04</rscale>
<asrwt>0</asrwt>
<pdfrwt beam="1">  1        2 0.24593489E+00 0.24133268E+04</pdfrwt>
<pdfrwt beam="2">  1       -2 0.14012817E+00 0.24133268E+04</pdfrwt>
<totfact> 0.35964234E+00</totfact>
</mgrwt>
</event>
<event>
12    3  0.4192740E-008  0.1310754E+04  0.7818608E-02  0.9021080E-01
         -1   -1    0    0    0  501 -0.00000000000E+00  0.00000000000E+00  0.13728519837E+04  0.13728519837E+04  0.00000000000E+00 0.  1.
          1   -1    0    0  501    0  0.00000000000E+00 -0.00000000000E+00 -0.31286636082E+03  0.31286636082E+03  0.00000000000E+00 0. -1.
         23    2    1    2    0    0 -0.31221046454E+03  0.18742117423E+03  0.52725641625E+03  0.64822178971E+03  0.97929002095E+02 0.  0.
        254    2    1    2    0    0  0.31221046454E+03 -0.18742117423E+03  0.53272920660E+03  0.10374965548E+04  0.81240176202E+03 0.  0.
         23    2    4    4    0    0  0.56470689458E+03 -0.15095255455E+03  0.23992156308E+03  0.63818042840E+03  0.89617812141E+02 0.  0.
         23    2    4    4    0    0 -0.25249643004E+03 -0.36468619676E+02  0.29280764352E+03  0.39931612640E+03  0.92912029865E+02 0.  0.
          3    1    3    3  502    0 -0.93576545392E+02  0.86157652556E+02  0.25287150632E+03  0.28306131783E+03  0.00000000000E+00 0. -1.
         -3    1    3    3    0  502 -0.21863391915E+03  0.10126352167E+03  0.27438490994E+03  0.36516047188E+03  0.00000000000E+00 0.  1.
         13    1    5    5    0    0  0.61806289982E+01  0.60132651787E+01  0.12167673415E+02  0.14913477436E+02  0.00000000000E+00 0.  1.
        -13    1    5    5    0    0  0.55852626558E+03 -0.15696581973E+03  0.22775388966E+03  0.62326695096E+03  0.00000000000E+00 0. -1.
          3    1    6    6  503    0 -0.21330913159E+03  0.50594099921E+01  0.21605913093E+03  0.30365758891E+03  0.00000000000E+00 0. -1.
         -3    1    6    6    0  503 -0.39187298448E+02 -0.41528029668E+02  0.76748512594E+02  0.95658537482E+02  0.00000000000E+00 0.  1.
<mgrwt>
<rscale>  0 0.13107543E+04</rscale>
<asrwt>0</asrwt>
<pdfrwt beam="1">  1        1 0.48133287E-01 0.13107543E+04</pdfrwt>
<pdfrwt beam="2">  1       -1 0.21120799E+00 0.13107543E+04</pdfrwt>
<totfact> 0.10280281E+01</totfact>
</mgrwt>
</event>
<event>
12    3  0.4192740E-008  0.1598455E+04  0.7818608E-02  0.8821498E-01
         -1   -1    0    0    0  501 -0.00000000000E+00  0.00000000000E+00  0.12042027406E+04  0.12042027406E+04  0.00000000000E+00 0. -1.
          1   -1    0    0  501    0  0.00000000000E+00 -0.00000000000E+00 -0.53044620853E+03  0.53044620853E+03  0.00000000000E+00 0.  1.
         23    2    1    2    0    0 -0.20257727219E+02 -0.11075345587E+03 -0.32524513478E+03  0.35574986994E+03  0.89982602548E+02 0.  0.
        254    2    1    2    0    0  0.20257727219E+02  0.11075345587E+03  0.99900166681E+03  0.13788990792E+04  0.94375931080E+03 0.  0.
         23    2    4    4    0    0 -0.44269166218E+02 -0.33922996402E+03  0.10239555008E+03  0.37017116257E+03  0.97494170877E+02 0.  0.
         23    2    4    4    0    0  0.64526893438E+02  0.44998341989E+03  0.89660611673E+03  0.10087279166E+04  0.83550481755E+02 0.  0.
          1    1    3    3  502    0  0.24911109628E+02 -0.55527890548E+01 -0.31889848005E+02  0.40845553674E+02  0.00000000000E+00 0. -1.
         -1    1    3    3    0  502 -0.45168836848E+02 -0.10520066681E+03 -0.29335528678E+03  0.31490431626E+03  0.00000000000E+00 0.  1.
         13    1    5    5    0    0  0.91141936314E+01  0.50942158264E+00 -0.43029121911E+01  0.10091733707E+02  0.00000000000E+00 0. -1.
        -13    1    5    5    0    0 -0.53383359850E+02 -0.33973938560E+03  0.10669846227E+03  0.36007942886E+03  0.00000000000E+00 0.  1.
          4    1    6    6  503    0  0.30200688441E+02  0.37614669203E+03  0.68618526235E+03  0.78310192808E+03  0.00000000000E+00 0. -1.
         -4    1    6    6    0  503  0.34326204997E+02  0.73836727859E+02  0.21042085439E+03  0.22562598851E+03  0.00000000000E+00 0.  1.
<mgrwt>
<rscale>  0 0.15984552E+04</rscale>
<asrwt>0</asrwt>
<pdfrwt beam="1">  1        1 0.81607109E-01 0.15984552E+04</pdfrwt>
<pdfrwt beam="2">  1       -1 0.18526196E+00 0.15984552E+04</pdfrwt>
<totfact> 0.74750666E+00</totfact>
</mgrwt>
</event>
<event>
12    3  0.4192740E-008  0.1396548E+04  0.7818608E-02  0.8956321E-01
          1   -1    0    0  501    0  0.00000000000E+00  0.00000000000E+00  0.22187516737E+04  0.22187516737E+04  0.00000000000E+00 0. -1.
         -1   -1    0    0    0  501 -0.00000000000E+00 -0.00000000000E+00 -0.21975725507E+03  0.21975725507E+03  0.00000000000E+00 0.  1.
         23    2    1    2    0    0 -0.18752125630E+03  0.32855215075E+03  0.34891038842E+03  0.52266305498E+03  0.91254986521E+02 0.  0.
        254    2    1    2    0    0  0.18752125630E+03 -0.32855215075E+03  0.16500840302E+04  0.19158458738E+04  0.89698236776E+03 0.  0.
         23    2    4    4    0    0  0.30598354453E+03  0.18674324367E+03  0.34808363397E+03  0.50776069614E+03  0.90331277689E+02 0.  0.
         23    2    4    4    0    0 -0.11846228823E+03 -0.51529539442E+03  0.13020003963E+04  0.14080851777E+04  0.89085231602E+02 0.  0.
          3    1    3    3  502    0 -0.12886447594E+03  0.19101828686E+03  0.26514689543E+03  0.35127897067E+03  0.00000000000E+00 0. -1.
         -3    1    3    3    0  502 -0.58656780358E+02  0.13753386389E+03  0.83763492988E+02  0.17138408431E+03  0.00000000000E+00 0.  1.
         13    1    5    5    0    0  0.24960731106E+03  0.18925251261E+03  0.29508188902E+03  0.43034131163E+03  0.00000000000E+00 0. -1.
        -13    1    5    5    0    0  0.56376233466E+02 -0.25092689450E+01  0.53001744951E+02  0.77419384512E+02  0.00000000000E+00 0.  1.
          3    1    6    6  503    0 -0.11359472235E+03 -0.50888377510E+03  0.12985615195E+04  0.13993314394E+04  0.00000000000E+00 0. -1.
         -3    1    6    6    0  503 -0.48675658797E+01 -0.64116193145E+01  0.34388767896E+01  0.87537382530E+01  0.00000000000E+00 0.  1.
<mgrwt>
<rscale>  0 0.13965483E+04</rscale>
<asrwt>0</asrwt>
<pdfrwt beam="1">  1        1 0.34134640E+00 0.13965483E+04</pdfrwt>
<pdfrwt beam="2">  1       -1 0.33808810E-01 0.13965483E+04</pdfrwt>
<totfact> 0.17065115E+01</totfact>
</mgrwt>
</event>
<event>
12    3  0.4192740E-008  0.3339112E+04  0.7818608E-02  0.8153014E-01
          1   -1    0    0  501    0  0.00000000000E+00  0.00000000000E+00  0.88758368181E+03  0.88758368181E+03  0.00000000000E+00 0. -1.
         -1   -1    0    0    0  501 -0.00000000000E+00 -0.00000000000E+00 -0.31404558904E+04  0.31404558904E+04  0.00000000000E+00 0.  1.
         23    2    1    2    0    0 -0.27344363111E+03  0.15032416587E+04 -0.13132467274E+04  0.20167121011E+04  0.89464115556E+02 0.  0.
        254    2    1    2    0    0  0.27344363111E+03 -0.15032416587E+04 -0.93962548115E+03  0.20113274711E+04  0.90996442096E+03 0.  0.
         23    2    4    4    0    0 -0.28912741676E+03 -0.85996431210E+03 -0.57372415004E+03  0.10773112369E+04  0.91141755226E+02 0.  0.
         23    2    4    4    0    0  0.56257104787E+03 -0.64327734656E+03 -0.36590133111E+03  0.93401623421E+03  0.90612433888E+02 0.  0.
          1    1    3    3  502    0 -0.47597183670E+02  0.48193455311E+03 -0.43319594460E+03  0.64975774854E+03  0.00000000000E+00 0. -1.
         -1    1    3    3    0  502 -0.22584644744E+03  0.10213071055E+04 -0.88005078284E+03  0.13669543526E+04  0.00000000000E+00 0.  1.
         13    1    5    5    0    0 -0.29464971337E+03 -0.85092776558E+03 -0.57134326149E+03  0.10664565806E+04  0.00000000000E+00 0.  1.
        -13    1    5    5    0    0  0.55222966094E+01 -0.90365465238E+01 -0.23808885525E+01  0.10854656292E+02  0.00000000000E+00 0. -1.
          1    1    6    6  503    0  0.21381267248E+02 -0.31809627248E+02 -0.38305193246E+02  0.54187625934E+02  0.00000000000E+00 0. -1.
         -1    1    6    6    0  503  0.54118978062E+03 -0.61146771931E+03 -0.32759613786E+03  0.87982860828E+03  0.00000000000E+00 0.  1.
<mgrwt>
<rscale>  0 0.33391121E+04</rscale>
<asrwt>0</asrwt>
<pdfrwt beam="1">  1        1 0.13655134E+00 0.33391121E+04</pdfrwt>
<pdfrwt beam="2">  1       -1 0.48314706E+00 0.33391121E+04</pdfrwt>
<totfact> 0.29600548E-02</totfact>
</mgrwt>
</event>
<event>
12    3  0.4192740E-008  0.2268629E+04  0.7818608E-02  0.8490394E-01
         -1   -1    0    0    0  501 -0.00000000000E+00  0.00000000000E+00  0.39733352941E+03  0.39733352941E+03  0.00000000000E+00 0.  1.
          1   -1    0    0  501    0  0.00000000000E+00 -0.00000000000E+00 -0.32382599896E+04  0.32382599896E+04  0.00000000000E+00 0. -1.
         23    2    1    2    0    0  0.11788876587E+03  0.33538217416E+03  0.19151582685E+03  0.41467066240E+03  0.94310563880E+02 0.  0.
        254    2    1    2    0    0 -0.11788876587E+03 -0.33538217416E+03 -0.30324422870E+04  0.32209228566E+04  0.10257966953E+04 0.  0.
         23    2    4    4    0    0 -0.32240849665E+03  0.25395770715E+03 -0.16310106375E+04  0.16842575586E+04  0.89922568040E+02 0.  0.
         23    2    4    4    0    0  0.20451973077E+03 -0.58933988132E+03 -0.14014316495E+04  0.15366652980E+04  0.90441991592E+02 0.  0.
          3    1    3    3  502    0 -0.90738457396E+01  0.19527077039E+02  0.32399831851E+02  0.38902320216E+02  0.00000000000E+00 0. -1.
         -3    1    3    3    0  502  0.12696261161E+03  0.31585509712E+03  0.15911599500E+03  0.37576834219E+03  0.00000000000E+00 0.  1.
         13    1    5    5    0    0 -0.30142961451E+03  0.26020719260E+03 -0.15519806161E+04  0.16022519865E+04  0.00000000000E+00 0.  1.
        -13    1    5    5    0    0 -0.20978882139E+02 -0.62494854447E+01 -0.79030021373E+02  0.82005572020E+02  0.00000000000E+00 0. -1.
          4    1    6    6  503    0  0.11452302996E+03 -0.25247461248E+03 -0.71216195525E+03  0.76422091364E+03  0.00000000000E+00 0. -1.
         -4    1    6    6    0  503  0.89996700809E+02 -0.33686526883E+03 -0.68926969427E+03  0.77244438437E+03  0.00000000000E+00 0.  1.
<mgrwt>
<rscale>  0 0.22686289E+04</rscale>
<asrwt>0</asrwt>
<pdfrwt beam="1">  1        1 0.49819387E+00 0.22686289E+04</pdfrwt>
<pdfrwt beam="2">  1       -1 0.61128232E-01 0.22686289E+04</pdfrwt>
<totfact> 0.97983468E-01</totfact>
</mgrwt>
</event>
<event>
12    3  0.4192740E-008  0.1204910E+04  0.7818608E-02  0.9108569E-01
         -1   -1    0    0    0  501 -0.00000000000E+00  0.00000000000E+00  0.39886940378E+03  0.39886940378E+03  0.00000000000E+00 0.  1.
          1   -1    0    0  501    0  0.00000000000E+00 -0.00000000000E+00 -0.90995253736E+03  0.90995253736E+03  0.00000000000E+00 0. -1.
         23    2    1    2    0    0 -0.23031891765E+02 -0.24514397981E+03 -0.57555453186E+02  0.26889675204E+03  0.91470181986E+02 0.  0.
        254    2    1    2    0    0  0.23031891765E+02  0.24514397981E+03 -0.45352768040E+03  0.10399251891E+04  0.90284605728E+03 0.  0.
         23    2    4    4    0    0  0.30324066360E+03 -0.20540798531E+03 -0.82242444686E+02  0.38593232281E+03  0.89624759922E+02 0.  0.
         23    2    4    4    0    0 -0.28020877183E+03  0.45055196512E+03 -0.37128523571E+03  0.65399286629E+03  0.91323128566E+02 0.  0.
          1    1    3    3  502    0 -0.62898230720E+01 -0.30342034331E+02  0.23301541117E+02  0.38770642760E+02  0.00000000000E+00 0. -1.
         -1    1    3    3    0  502 -0.16742068693E+02 -0.21480194548E+03 -0.80856994304E+02  0.23012610928E+03  0.00000000000E+00 0.  1.
         13    1    5    5    0    0  0.51442013586E+02  0.13244440454E+00 -0.39193404923E+01  0.51591273808E+02  0.00000000000E+00 0. -1.
        -13    1    5    5    0    0  0.25179865001E+03 -0.20554042971E+03 -0.78323104194E+02  0.33434104900E+03  0.00000000000E+00 0.  1.
          4    1    6    6  503    0 -0.14478203488E+03  0.17686893338E+03 -0.20092795198E+03  0.30432958960E+03  0.00000000000E+00 0. -1.
         -4    1    6    6    0  503 -0.13542673696E+03  0.27368303174E+03 -0.17035728373E+03  0.34966327669E+03  0.00000000000E+00 0.  1.
<mgrwt>
<rscale>  0 0.12049103E+04</rscale>
<asrwt>0</asrwt>
<pdfrwt beam="1">  1        1 0.13999270E+00 0.12049103E+04</pdfrwt>
<pdfrwt beam="2">  1       -1 0.61364525E-01 0.12049103E+04</pdfrwt>
<totfact> 0.47591632E+01</totfact>
</mgrwt>
</event>
<event>
12    3  0.4192740E-008  0.1752932E+04  0.7818608E-02  0.8731738E-01
          2   -1    0    0  501    0  0.00000000000E+00  0.00000000000E+00  0.16732142828E+04  0.16732142828E+04  0.00000000000E+00 0. -1.
         -2   -1    0    0    0  501 -0.00000000000E+00 -0.00000000000E+00 -0.45911186016E+03  0.45911186016E+03  0.00000000000E+00 0.  1.
         23    2    1    2    0    0 -0.42756382429E+03  0.39345423667E+03  0.13513155334E+03  0.60348249249E+03  0.91178516346E+02 0.  0.
        254    2    1    2    0    0  0.42756382429E+03 -0.39345423667E+03  0.10789708694E+04  0.15288436505E+04  0.91409392877E+03 0.  0.
         23    2    4    4    0    0  0.35354908923E+03  0.36060721708E+02  0.46759643884E+01  0.36647959157E+03  0.89376127955E+02 0.  0.
         23    2    4    4    0    0  0.74014735067E+02 -0.42951495838E+03  0.10742949050E+04  0.11623640589E+04  0.83781753558E+02 0.  0.
          3    1    3    3  502    0 -0.35364788489E+03  0.36551075692E+03  0.12574607183E+03  0.52390553967E+03  0.00000000000E+00 0. -1.
         -3    1    3    3    0  502 -0.73915939402E+02  0.27943479746E+02  0.93854815088E+01  0.79576952826E+02  0.00000000000E+00 0.  1.
         13    1    5    5    0    0  0.15161398065E+03  0.59176910100E+02  0.11025536473E+02  0.16312654067E+03  0.00000000000E+00 0. -1.
        -13    1    5    5    0    0  0.20193510858E+03 -0.23116188392E+02 -0.63495720849E+01  0.20335305089E+03  0.00000000000E+00 0.  1.
          4    1    6    6  503    0  0.24498391819E+02 -0.18809516065E+03  0.36276752567E+03  0.40936565359E+03  0.00000000000E+00 0.  1.
         -4    1    6    6    0  503  0.49516343248E+02 -0.24141979773E+03  0.71152737929E+03  0.75299840535E+03  0.00000000000E+00 0. -1.
<mgrwt>
<rscale>  0 0.17529319E+04</rscale>
<asrwt>0</asrwt>
<pdfrwt beam="1">  1        2 0.25741758E+00 0.17529319E+04</pdfrwt>
<pdfrwt beam="2">  1       -2 0.70632595E-01 0.17529319E+04</pdfrwt>
<totfact> 0.17528476E+01</totfact>
</mgrwt>
</event>
<event>
12    3  0.4192740E-008  0.3215255E+04  0.7818608E-02  0.8184800E-01
          2   -1    0    0  501    0  0.00000000000E+00  0.00000000000E+00  0.14208913272E+04  0.14208913272E+04  0.00000000000E+00 0.  1.
         -2   -1    0    0    0  501 -0.00000000000E+00 -0.00000000000E+00 -0.18189049709E+04  0.18189049709E+04  0.00000000000E+00 0. -1.
         23    2    1    2    0    0  0.10448330479E+04  0.94693555454E+02 -0.12346256616E+04  0.16226167386E+04  0.89115592219E+02 0.  0.
        254    2    1    2    0    0 -0.10448330479E+04 -0.94693555454E+02  0.83661201788E+03  0.16171795595E+04  0.90261126277E+03 0.  0.
         23    2    4    4    0    0 -0.45427609522E+03  0.39697624432E+03  0.35220626382E+03  0.70456246138E+03  0.91662972116E+02 0.  0.
         23    2    4    4    0    0 -0.59055695268E+03 -0.49166979978E+03  0.48440575406E+03  0.91261709810E+03  0.87888149380E+02 0.  0.
          2    1    3    3  502    0  0.70950320370E+03  0.22725125180E+02 -0.82426012026E+03  0.10878032787E+04  0.00000000000E+00 0. -1.
         -2    1    3    3    0  502  0.33532984421E+03  0.71968430274E+02 -0.41036554135E+03  0.53481345991E+03  0.00000000000E+00 0.  1.
         13    1    5    5    0    0 -0.36511243480E+02  0.20446977275E+02  0.52964209346E+02  0.67500794453E+02  0.00000000000E+00 0. -1.
        -13    1    5    5    0    0 -0.41776485174E+03  0.37652926705E+03  0.29924205447E+03  0.63706166692E+03  0.00000000000E+00 0.  1.
          4    1    6    6  503    0 -0.93711396787E+01 -0.29284521072E+02  0.20475841870E+02  0.36941325552E+02  0.00000000000E+00 0. -1.
         -4    1    6    6    0  503 -0.58118581300E+03 -0.46238527871E+03  0.46392991219E+03  0.87567577255E+03  0.00000000000E+00 0.  1.
<mgrwt>
<rscale>  0 0.32152551E+04</rscale>
<asrwt>0</asrwt>
<pdfrwt beam="1">  1        2 0.21859867E+00 0.32152551E+04</pdfrwt>
<pdfrwt beam="2">  1       -2 0.27983153E+00 0.32152551E+04</pdfrwt>
<totfact> 0.49974957E-01</totfact>
</mgrwt>
</event>
<event>
12    3  0.4192740E-008  0.2081931E+04  0.7818608E-02  0.8569245E-01
          2   -1    0    0  501    0  0.00000000000E+00  0.00000000000E+00  0.61116059987E+03  0.61116059987E+03  0.00000000000E+00 0.  1.
         -2   -1    0    0    0  501 -0.00000000000E+00 -0.00000000000E+00 -0.17730343972E+04  0.17730343972E+04  0.00000000000E+00 0. -1.
         23    2    1    2    0    0 -0.46921572244E+03  0.53558802218E+03 -0.10302406453E+04  0.12556575202E+04  0.90896077625E+02 0.  0.
        254    2    1    2    0    0  0.46921572244E+03 -0.53558802218E+03 -0.13163315198E+03  0.11285374769E+04  0.86559322223E+03 0.  0.
         23    2    4    4    0    0  0.16780790582E+02 -0.50584338530E+03  0.20784423818E+03  0.55502616370E+03  0.93250681819E+02 0.  0.
         23    2    4    4    0    0  0.45243493186E+03 -0.29744636887E+02 -0.33947739016E+03  0.57351131321E+03  0.89934514806E+02 0.  0.
          4    1    3    3  502    0 -0.44048321942E+03  0.51394698879E+03 -0.93860638572E+03  0.11572160218E+04  0.00000000000E+00 0. -1.
         -4    1    3    3    0  502 -0.28732503024E+02  0.21641033393E+02 -0.91634259616E+02  0.98441498321E+02  0.00000000000E+00 0.  1.
         13    1    5    5    0    0  0.10580401687E+02 -0.16575264252E+03  0.22346909060E+02  0.16758659776E+03  0.00000000000E+00 0.  1.
        -13    1    5    5    0    0  0.62003888950E+01 -0.34009074277E+03  0.18549732912E+03  0.38743956594E+03  0.00000000000E+00 0. -1.
          2    1    6    6  503    0  0.40493754314E+03 -0.10616720526E+02 -0.26846566580E+03  0.48596393109E+03  0.00000000000E+00 0. -1.
         -2    1    6    6    0  503  0.47497388714E+02 -0.19127916361E+02 -0.71011724365E+02  0.87547382121E+02  0.00000000000E+00 0.  1.
<mgrwt>
<rscale>  0 0.20819306E+04</rscale>
<asrwt>0</asrwt>
<pdfrwt beam="1">  1        2 0.94024708E-01 0.20819306E+04</pdfrwt>
<pdfrwt beam="2">  1       -2 0.27277452E+00 0.20819306E+04</pdfrwt>
<totfact> 0.20867426E+00</totfact>
</mgrwt>
</event>
<event>
12    3  0.4192740E-008  0.1370289E+04  0.7818608E-02  0.8975610E-01
         -3   -1    0    0    0  501 -0.00000000000E+00  0.00000000000E+00  0.14340406141E+04  0.14340406141E+04  0.00000000000E+00 0.  1.
          3   -1    0    0  501    0  0.00000000000E+00 -0.00000000000E+00 -0.32734268648E+03  0.32734268648E+03  0.00000000000E+00 0. -1.
         23    2    1    2    0    0 -0.49795677247E+02  0.24650215141E+03  0.69117629065E+03  0.74106063271E+03  0.90571940840E+02 0.  0.
        254    2    1    2    0    0  0.49795677247E+02 -0.24650215141E+03  0.41552163700E+03  0.10203226679E+04  0.89730551971E+03 0.  0.
         23    2    4    4    0    0  0.13923634325E+03  0.11199954203E+03  0.57364008912E+03  0.60768280065E+03  0.91020753994E+02 0.  0.
         23    2    4    4    0    0 -0.89440666006E+02 -0.35850169343E+03 -0.15811845212E+03  0.41263986725E+03  0.93526029617E+02 0.  0.
          3    1    3    3  502    0 -0.50033074886E+02  0.88002936399E+02  0.35912808350E+03  0.37312304372E+03  0.00000000000E+00 0. -1.
         -3    1    3    3    0  502  0.23739763918E+00  0.15849921501E+03  0.33204820716E+03  0.36793758899E+03  0.00000000000E+00 0.  1.
         13    1    5    5    0    0  0.86106571238E+02  0.10655478351E+03  0.48701419026E+03  0.50591608495E+03  0.00000000000E+00 0.  1.
        -13    1    5    5    0    0  0.53129772015E+02  0.54447585215E+01  0.86625898861E+02  0.10176671569E+03  0.00000000000E+00 0. -1.
          1    1    6    6  503    0 -0.60779644262E+02 -0.12629833289E+03 -0.21768305851E+02  0.14184249429E+03  0.00000000000E+00 0. -1.
         -1    1    6    6    0  503 -0.28661021744E+02 -0.23220336055E+03 -0.13635014627E+03  0.27079737297E+03  0.00000000000E+00 0.  1.
<mgrwt>
<rscale>  0 0.13702886E+04</rscale>
<asrwt>0</asrwt>
<pdfrwt beam="1">  1        3 0.50360414E-01 0.13702886E+04</pdfrwt>
<pdfrwt beam="2">  1       -3 0.22062163E+00 0.13702886E+04</pdfrwt>
<totfact> 0.10918284E+00</totfact>
</mgrwt>
</event>
<event>
12    3  0.4192740E-008  0.2449312E+04  0.7818608E-02  0.8421269E-01
         -2   -1    0    0    0  501 -0.00000000000E+00  0.00000000000E+00  0.99139890383E+03  0.99139890383E+03  0.00000000000E+00 0. -1.
          2   -1    0    0  501    0  0.00000000000E+00 -0.00000000000E+00 -0.15127943470E+04  0.15127943470E+04  0.00000000000E+00 0.  1.
         23    2    1    2    0    0 -0.57912405362E+03  0.43161631355E+03  0.54834359379E+03  0.91135079956E+03  0.90566392275E+02 0.  0.
        254    2    1    2    0    0  0.57912405362E+03 -0.43161631355E+03 -0.10697390369E+04  0.15928424513E+04  0.93334246435E+03 0.  0.
         23    2    4    4    0    0 -0.13692115361E+02  0.10694656600E+03  0.10002055019E+03  0.17227616662E+03  0.89721374947E+02 0.  0.
         23    2    4    4    0    0  0.59281616898E+03 -0.53856287955E+03 -0.11697595871E+04  0.14205662846E+04  0.90499126715E+02 0.  0.
          1    1    3    3  502    0 -0.48496208086E+03  0.33961009135E+03  0.40858364296E+03  0.71934958631E+03  0.00000000000E+00 0. -1.
         -1    1    3    3    0  502 -0.94161972757E+02  0.92006222203E+02  0.13975995083E+03  0.19200121326E+03  0.00000000000E+00 0.  1.
         13    1    5    5    0    0 -0.23064312684E+02  0.66602206930E+02  0.74664356906E+01  0.70877105961E+02  0.00000000000E+00 0.  1.
        -13    1    5    5    0    0  0.93721973235E+01  0.40344359067E+02  0.92554114497E+02  0.10139906065E+03  0.00000000000E+00 0. -1.
          2    1    6    6  503    0  0.45324461373E+03 -0.38278981989E+03 -0.92136061552E+03  0.10958394544E+04  0.00000000000E+00 0. -1.
         -2    1    6    6    0  503  0.13957155525E+03 -0.15577305967E+03 -0.24839897162E+03  0.32472683020E+03  0.00000000000E+00 0.  1.
<mgrwt>
<rscale>  0 0.24493123E+04</rscale>
<asrwt>0</asrwt>
<pdfrwt beam="1">  1        2 0.23273759E+00 0.24493123E+04</pdfrwt>
<pdfrwt beam="2">  1       -2 0.15252291E+00 0.24493123E+04</pdfrwt>
<totfact> 0.32051438E+00</totfact>
</mgrwt>
</event>
<event>
12    3  0.4192740E-008  0.1544489E+04  0.7818608E-02  0.8855395E-01
          2   -1    0    0  501    0  0.00000000000E+00  0.00000000000E+00  0.17137153726E+04  0.17137153726E+04  0.00000000000E+00 0. -1.
         -2   -1    0    0    0  501 -0.00000000000E+00 -0.00000000000E+00 -0.34799341609E+03  0.34799341609E+03  0.00000000000E+00 0.  1.
         23    2    1    2    0    0 -0.20691736915E+03  0.52673639638E+02 -0.15848247755E+03  0.28129587598E+03  0.91767991082E+02 0.  0.
        254    2    1    2    0    0  0.20691736915E+03 -0.52673639638E+02  0.15242044340E+04  0.17804129127E+04  0.89503166031E+03 0.  0.
         23    2    4    4    0    0  0.17842999719E+03 -0.18137502410E+02 -0.46808186518E+02  0.20633432955E+03  0.90645553315E+02 0.  0.
         23    2    4    4    0    0  0.28487371957E+02 -0.34536137228E+02  0.15710126206E+04  0.15740785831E+04  0.87398265429E+02 0.  0.
          2    1    3    3  502    0 -0.20851865398E+02  0.28701979531E+02  0.36053077146E+00  0.35478640081E+02  0.00000000000E+00 0. -1.
         -2    1    3    3    0  502 -0.18606550375E+03  0.23971660107E+02 -0.15884300832E+03  0.24581723590E+03  0.00000000000E+00 0.  1.
         13    1    5    5    0    0  0.13564117414E+03 -0.48775322374E+02 -0.15195933537E+02  0.14494301153E+03  0.00000000000E+00 0.  1.
        -13    1    5    5    0    0  0.42788823046E+02  0.30637819964E+02 -0.31612252981E+02  0.61391318021E+02  0.00000000000E+00 0. -1.
          2    1    6    6  503    0 -0.44012187607E+01 -0.41518058526E+02  0.33267406290E+03  0.33528368890E+03  0.00000000000E+00 0. -1.
         -2    1    6    6    0  503  0.32888590717E+02  0.69819212973E+01  0.12383385577E+04  0.12387948942E+04  0.00000000000E+00 0.  1.
<mgrwt>
<rscale>  0 0.15444891E+04</rscale>
<asrwt>0</asrwt>
<pdfrwt beam="1">  1        2 0.26364851E+00 0.15444891E+04</pdfrwt>
<pdfrwt beam="2">  1       -2 0.53537450E-01 0.15444891E+04</pdfrwt>
<totfact> 0.30505632E+01</totfact>
</mgrwt>
</event>
<event>
12    3  0.4192740E-008  0.1732555E+04  0.7818608E-02  0.8743012E-01
         -1   -1    0    0    0  501 -0.00000000000E+00  0.00000000000E+00  0.77776896598E+03  0.77776896598E+03  0.00000000000E+00 0.  1.
          1   -1    0    0  501    0  0.00000000000E+00 -0.00000000000E+00 -0.96485826770E+03  0.96485826770E+03  0.00000000000E+00 0. -1.
         23    2    1    2    0    0  0.10082090110E+03 -0.27801013330E+03 -0.62128973306E+03  0.69399178978E+03  0.90383535893E+02 0.  0.
        254    2    1    2    0    0 -0.10082090110E+03  0.27801013330E+03  0.43420043134E+03  0.10486354439E+04  0.90755263831E+03 0.  0.
         23    2    4    4    0    0 -0.48996190037E+03  0.64910901426E+02  0.23202699394E+03  0.55268680544E+03  0.85732666197E+02 0.  0.
         23    2    4    4    0    0  0.38914099928E+03  0.21309923188E+03  0.20217343740E+03  0.49594863846E+03  0.90823748278E+02 0.  0.
          3    1    3    3  502    0  0.63672993780E+02 -0.25847809831E+03 -0.51540839340E+03  0.58009567265E+03  0.00000000000E+00 0. -1.
         -3    1    3    3    0  502  0.37147907318E+02 -0.19532034998E+02 -0.10588133967E+03  0.11389611714E+03  0.00000000000E+00 0.  1.
         13    1    5    5    0    0 -0.21309905817E+03  0.67245953224E+02  0.12341081504E+03  0.25527133816E+03  0.00000000000E+00 0. -1.
        -13    1    5    5    0    0 -0.27686284221E+03 -0.23350517975E+01  0.10861617890E+03  0.29741546728E+03  0.00000000000E+00 0.  1.
          2    1    6    6  503    0  0.53845419182E+02 -0.28303047681E+01  0.28134413100E+02  0.60818459307E+02  0.00000000000E+00 0. -1.
         -2    1    6    6    0  503  0.33529558009E+03  0.21592953665E+03  0.17403902430E+03  0.43513017915E+03  0.00000000000E+00 0.  1.
<mgrwt>
<rscale>  0 0.17325551E+04</rscale>
<asrwt>0</asrwt>
<pdfrwt beam="1">  1        1 0.14843973E+00 0.17325551E+04</pdfrwt>
<pdfrwt beam="2">  1       -1 0.11965677E+00 0.17325551E+04</pdfrwt>
<totfact> 0.95443930E+00</totfact>
</mgrwt>
</event>
<event>
12    3  0.4192740E-008  0.2049554E+04  0.7818608E-02  0.8583797E-01
         -2   -1    0    0    0  501 -0.00000000000E+00  0.00000000000E+00  0.78762683642E+03  0.78762683642E+03  0.00000000000E+00 0. -1.
          2   -1    0    0  501    0  0.00000000000E+00 -0.00000000000E+00 -0.13333316696E+04  0.13333316696E+04  0.00000000000E+00 0.  1.
         23    2    1    2    0    0 -0.11835762176E+03  0.27302711935E+03 -0.10080568012E+04  0.10551949340E+04  0.93303268136E+02 0.  0.
        254    2    1    2    0    0  0.11835762176E+03 -0.27302711935E+03  0.46235196802E+03  0.10657635720E+04  0.91297881383E+03 0.  0.
         23    2    4    4    0    0  0.45523545183E+03 -0.18319781655E+03  0.49549202517E+03  0.70342720644E+03  0.92177715086E+02 0.  0.
         23    2    4    4    0    0 -0.33687783007E+03 -0.89829302791E+02 -0.33140057151E+02  0.36233636554E+03  0.92916103920E+02 0.  0.
          1    1    3    3  502    0 -0.12306276027E+02  0.34651064746E+02 -0.48875521715E+02  0.61163366001E+02  0.00000000000E+00 0. -1.
         -1    1    3    3    0  502 -0.10605134573E+03  0.23837605460E+03 -0.95918127944E+03  0.99403156800E+03  0.00000000000E+00 0.  1.
         13    1    5    5    0    0  0.30619190120E+02 -0.14518865838E+02  0.70702322478E+01  0.34616765489E+02  0.00000000000E+00 0. -1.
        -13    1    5    5    0    0  0.42461626171E+03 -0.16867895072E+03  0.48842179292E+03  0.66881044095E+03  0.00000000000E+00 0.  1.
          2    1    6    6  503    0 -0.21888831056E+03 -0.10015113786E+03 -0.38516758327E+02  0.24377424718E+03  0.00000000000E+00 0. -1.
         -2    1    6    6    0  503 -0.11798951951E+03  0.10321835073E+02  0.53767011757E+01  0.11856211836E+03  0.00000000000E+00 0.  1.
<mgrwt>
<rscale>  0 0.20495539E+04</rscale>
<asrwt>0</asrwt>
<pdfrwt beam="1">  1        2 0.20512795E+00 0.20495539E+04</pdfrwt>
<pdfrwt beam="2">  1       -2 0.12117336E+00 0.20495539E+04</pdfrwt>
<totfact> 0.75833811E+00</totfact>
</mgrwt>
</event>
<event>
12    3  0.4192740E-008  0.2169077E+04  0.7818608E-02  0.8531410E-01
         -2   -1    0    0    0  501 -0.00000000000E+00  0.00000000000E+00  0.92974065466E+03  0.92974065466E+03  0.00000000000E+00 0.  1.
          2   -1    0    0  501    0  0.00000000000E+00 -0.00000000000E+00 -0.12651094364E+04  0.12651094364E+04  0.00000000000E+00 0. -1.
         23    2    1    2    0    0 -0.28769631735E+03 -0.31072067624E+02 -0.98195009704E+03  0.10280207714E+04  0.94159805771E+02 0.  0.
        254    2    1    2    0    0  0.28769631735E+03  0.31072067624E+02  0.64658131527E+03  0.11668293197E+04  0.92719394926E+03 0.  0.
         23    2    4    4    0    0  0.26600899269E+03  0.11914730082E+03  0.86297186118E+03  0.91519583328E+03  0.88916345986E+02 0.  0.
         23    2    4    4    0    0  0.21687324657E+02 -0.88075233195E+02 -0.21639054590E+03  0.25163348637E+03  0.90922804371E+02 0.  0.
          1    1    3    3  502    0 -0.22431259382E+03 -0.12042974463E+02 -0.60609663667E+03  0.64638557066E+03  0.00000000000E+00 0. -1.
         -1    1    3    3    0  502 -0.63383723525E+02 -0.19029093161E+02 -0.37585346037E+03  0.38163520077E+03  0.00000000000E+00 0.  1.
         13    1    5    5    0    0  0.13790987500E+03  0.34574210239E+02  0.52659136747E+03  0.54544750245E+03  0.00000000000E+00 0.  1.
        -13    1    5    5    0    0  0.12809911769E+03  0.84573090580E+02  0.33638049371E+03  0.36974833083E+03  0.00000000000E+00 0. -1.
          1    1    6    6  503    0 -0.84276458034E+01 -0.95995336334E+02 -0.14974497986E+03  0.17807214494E+03  0.00000000000E+00 0. -1.
         -1    1    6    6    0  503  0.30114970460E+02  0.79201031390E+01 -0.66645566048E+02  0.73561341433E+02  0.00000000000E+00 0.  1.
<mgrwt>
<rscale>  0 0.21690769E+04</rscale>
<asrwt>0</asrwt>
<pdfrwt beam="1">  1        2 0.19463222E+00 0.21690769E+04</pdfrwt>
<pdfrwt beam="2">  1       -2 0.14303702E+00 0.21690769E+04</pdfrwt>
<totfact> 0.53933486E+00</totfact>
</mgrwt>
</event>
<event>
12    3  0.4192740E-008  0.1252078E+04  0.7818608E-02  0.9068455E-01
          2   -1    0    0  501    0  0.00000000000E+00  0.00000000000E+00  0.16421767117E+04  0.16421767117E+04  0.00000000000E+00 0. -1.
         -2   -1    0    0    0  501 -0.00000000000E+00 -0.00000000000E+00 -0.23866182239E+03  0.23866182239E+03  0.00000000000E+00 0.  1.
         23    2    1    2    0    0  0.51996852720E+01  0.20473536167E+03  0.61565956738E+03  0.65537740784E+03  0.92408001573E+02 0.  0.
        254    2    1    2    0    0 -0.51996852720E+01 -0.20473536167E+03  0.78785532190E+03  0.12254611262E+04  0.91602148368E+03 0.  0.
         23    2    4    4    0    0  0.13907492998E+03 -0.28202687623E+03  0.93270427628E+03  0.98863977593E+03  0.92684111430E+02 0.  0.
         23    2    4    4    0    0 -0.14427461525E+03  0.77291514560E+02 -0.14484895438E+03  0.23682135027E+03  0.91181080999E+02 0.  0.
          4    1    3    3  502    0 -0.53267130719E+01  0.17138080700E+03  0.58238691886E+03  0.60710318575E+03  0.00000000000E+00 0. -1.
         -4    1    3    3    0  502  0.10526398344E+02  0.33354554668E+02  0.33272648512E+02  0.48274222088E+02  0.00000000000E+00 0.  1.
         13    1    5    5    0    0  0.69157273883E+02 -0.22633344059E+03  0.72063967296E+03  0.75850582931E+03  0.00000000000E+00 0. -1.
        -13    1    5    5    0    0  0.69917656094E+02 -0.55693435636E+02  0.21206460332E+03  0.23013394662E+03  0.00000000000E+00 0.  1.
          4    1    6    6  503    0 -0.52017313718E+02  0.22834188323E+02 -0.18547685561E+00  0.56808762391E+02  0.00000000000E+00 0.  1.
         -4    1    6    6    0  503 -0.92257301532E+02  0.54457326237E+02 -0.14466347752E+03  0.18001258788E+03  0.00000000000E+00 0. -1.
<mgrwt>
<rscale>  0 0.12520781E+04</rscale>
<asrwt>0</asrwt>
<pdfrwt beam="1">  1        2 0.25264256E+00 0.12520781E+04</pdfrwt>
<pdfrwt beam="2">  1       -2 0.36717204E-01 0.12520781E+04</pdfrwt>
<totfact> 0.72546352E+01</totfact>
</mgrwt>
</event>
<event>
12    3  0.4192740E-008  0.4449851E+04  0.7818608E-02  0.7919476E-01
          2   -1    0    0  501    0  0.00000000000E+00  0.00000000000E+00  0.31933056331E+04  0.31933056331E+04  0.00000000000E+00 0. -1.
         -2   -1    0    0    0  501 -0.00000000000E+00 -0.00000000000E+00 -0.15502100373E+04  0.15502100373E+04  0.00000000000E+00 0.  1.
         23    2    1    2    0    0  0.17208548823E+04  0.26263108933E+02  0.21266006896E+04  0.27371143182E+04  0.85633062128E+02 0.  0.
        254    2    1    2    0    0 -0.17208548823E+04 -0.26263108933E+02 -0.48350509374E+03  0.20064013521E+04  0.91095440782E+03 0.  0.
         23    2    4    4    0    0 -0.14501312781E+04 -0.23148355342E+03 -0.66074370397E+03  0.16128095080E+04  0.90038366811E+02 0.  0.
         23    2    4    4    0    0 -0.27072360420E+03  0.20522044449E+03  0.17723861023E+03  0.39359184408E+03  0.89968405932E+02 0.  0.
          1    1    3    3  502    0  0.12962091126E+04  0.58832360408E+01  0.16546060822E+04  0.21018834323E+04  0.00000000000E+00 0. -1.
         -1    1    3    3    0  502  0.42464576979E+03  0.20379872892E+02  0.47199460738E+03  0.63523088591E+03  0.00000000000E+00 0.  1.
         13    1    5    5    0    0 -0.12146822563E+04 -0.16204870385E+03 -0.56312936565E+03  0.13486391099E+04  0.00000000000E+00 0. -1.
        -13    1    5    5    0    0 -0.23544902180E+03 -0.69434849575E+02 -0.97614338320E+02  0.26417039813E+03  0.00000000000E+00 0.  1.
          2    1    6    6  503    0 -0.43057086498E+02  0.27884013322E+01  0.42208607039E+02  0.60359376967E+02  0.00000000000E+00 0.  1.
         -2    1    6    6    0  503 -0.22766651770E+03  0.20243204316E+03  0.13503000319E+03  0.33323246712E+03  0.00000000000E+00 0. -1.
<mgrwt>
<rscale>  0 0.44498514E+04</rscale>
<asrwt>0</asrwt>
<pdfrwt beam="1">  1        2 0.49127779E+00 0.44498514E+04</pdfrwt>
<pdfrwt beam="2">  1       -2 0.23849385E+00 0.44498514E+04</pdfrwt>
<totfact> 0.75349987E-02</totfact>
</mgrwt>
</event>
<event>
12    3  0.4192740E-008  0.1861433E+04  0.7818608E-02  0.8674296E-01
          2   -1    0    0  501    0  0.00000000000E+00  0.00000000000E+00  0.86367735927E+03  0.86367735927E+03  0.00000000000E+00 0.  1.
         -2   -1    0    0    0  501 -0.00000000000E+00 -0.00000000000E+00 -0.10029587511E+04  0.10029587511E+04  0.00000000000E+00 0. -1.
         23    2    1    2    0    0  0.13201404428E+03 -0.61365620588E+03 -0.38620399204E+03  0.74346987196E+03  0.97940186568E+02 0.  0.
        254    2    1    2    0    0 -0.13201404428E+03  0.61365620588E+03  0.24692260025E+03  0.11231662384E+04  0.89807014292E+03 0.  0.
         23    2    4    4    0    0 -0.13695764248E+03  0.83641686467E+03  0.22599768951E+03  0.88186948146E+03  0.90929969389E+02 0.  0.
         23    2    4    4    0    0  0.49435982048E+01 -0.22276065879E+03  0.20924910735E+02  0.24129675691E+03  0.90219303580E+02 0.  0.
          4    1    3    3  502    0  0.96997672503E+02 -0.54514198207E+03 -0.30731100479E+03  0.63326801811E+03  0.00000000000E+00 0. -1.
         -4    1    3    3    0  502  0.35016371776E+02 -0.68514223809E+02 -0.78892987252E+02  0.11020185386E+03  0.00000000000E+00 0.  1.
         13    1    5    5    0    0 -0.43729940711E+02  0.22952547150E+03  0.21237248817E+02  0.23461728521E+03  0.00000000000E+00 0. -1.
        -13    1    5    5    0    0 -0.93227701773E+02  0.60689139317E+03  0.20476044070E+03  0.64725219625E+03  0.00000000000E+00 0.  1.
          4    1    6    6  503    0 -0.81780757849E+01 -0.20722263868E+03 -0.61008704123E+01  0.20747366947E+03  0.00000000000E+00 0.  1.
         -4    1    6    6    0  503  0.13121673990E+02 -0.15538020112E+02  0.27025781147E+02  0.33823087439E+02  0.00000000000E+00 0. -1.
<mgrwt>
<rscale>  0 0.18614325E+04</rscale>
<asrwt>0</asrwt>
<pdfrwt beam="1">  1        2 0.13287344E+00 0.18614325E+04</pdfrwt>
<pdfrwt beam="2">  1       -2 0.15430134E+00 0.18614325E+04</pdfrwt>
<totfact> 0.81030398E+00</totfact>
</mgrwt>
</event>
<event>
12    3  0.4192740E-008  0.2016180E+04  0.7818608E-02  0.8599093E-01
         -2   -1    0    0    0  501 -0.00000000000E+00  0.00000000000E+00  0.53635940272E+03  0.53635940272E+03  0.00000000000E+00 0.  1.
          2   -1    0    0  501    0  0.00000000000E+00 -0.00000000000E+00 -0.18947104991E+04  0.18947104991E+04  0.00000000000E+00 0. -1.
         23    2    1    2    0    0 -0.49180755251E+03  0.10783223724E+03  0.21431510763E+03  0.55453051888E+03  0.89836912868E+02 0.  0.
        254    2    1    2    0    0  0.49180755251E+03 -0.10783223724E+03 -0.15726662040E+04  0.18765393830E+04  0.89141382447E+03 0.  0.
         23    2    4    4    0    0  0.26797142856E+03 -0.28999394231E+03 -0.15157806538E+04  0.15690363130E+04  0.91535720339E+02 0.  0.
         23    2    4    4    0    0  0.22383612395E+03  0.18216170506E+03 -0.56885550231E+02  0.30750306994E+03  0.89647504264E+02 0.  0.
          3    1    3    3  502    0 -0.52232072544E+02  0.32719384788E+02  0.49682242327E+02  0.79164845391E+02  0.00000000000E+00 0. -1.
         -3    1    3    3    0  502 -0.43957547997E+03  0.75112852457E+02  0.16463286530E+03  0.47536567349E+03  0.00000000000E+00 0.  1.
         13    1    5    5    0    0  0.80892948605E+01 -0.25227281145E+02 -0.20699395563E+03  0.20868241438E+03  0.00000000000E+00 0. -1.
        -13    1    5    5    0    0  0.25988213370E+03 -0.26476666116E+03 -0.13087866981E+04  0.13603538986E+04  0.00000000000E+00 0.  1.
          4    1    6    6  503    0  0.19729333362E+03  0.14080571863E+03 -0.77120578592E+02  0.25435898556E+03  0.00000000000E+00 0. -1.
         -4    1    6    6    0  503  0.26542790328E+02  0.41355986433E+02  0.20235028361E+02  0.53144084384E+02  0.00000000000E+00 0.  1.
<mgrwt>
<rscale>  0 0.20161803E+04</rscale>
<asrwt>0</asrwt>
<pdfrwt beam="1">  1        2 0.29149393E+00 0.20161803E+04</pdfrwt>
<pdfrwt beam="2">  1       -2 0.82516829E-01 0.20161803E+04</pdfrwt>
<totfact> 0.91418000E+00</totfact>
</mgrwt>
</event>
<event>
12    3  0.4192740E-008  0.1429130E+04  0.7818608E-02  0.8932998E-01
         -2   -1    0    0    0  501 -0.00000000000E+00  0.00000000000E+00  0.18569641262E+04  0.18569641262E+04  0.00000000000E+00 0.  1.
          2   -1    0    0  501    0  0.00000000000E+00 -0.00000000000E+00 -0.27496679255E+03  0.27496679255E+03  0.00000000000E+00 0. -1.
         23    2    1    2    0    0  0.14842530097E+03 -0.31771010453E+03  0.88075753330E+03  0.95267967500E+03  0.94313043717E+02 0.  0.
        254    2    1    2    0    0 -0.14842530097E+03  0.31771010453E+03  0.70123980031E+03  0.11792512437E+04  0.88086687855E+03 0.  0.
         23    2    4    4    0    0 -0.39976193899E+03  0.22352784689E+03  0.75832464678E+03  0.89046383631E+03  0.89973705364E+02 0.  0.
         23    2    4    4    0    0  0.25133663803E+03  0.94182257638E+02 -0.57084846469E+02  0.28878740739E+03  0.89994909304E+02 0.  0.
          4    1    3    3  502    0  0.14864394197E+03 -0.27027266156E+03  0.68479275079E+03  0.75105488788E+03  0.00000000000E+00 0. -1.
         -4    1    3    3    0  502 -0.21864100867E+00 -0.47437442971E+02  0.19596478251E+03  0.20162478712E+03  0.00000000000E+00 0.  1.
         13    1    5    5    0    0 -0.15103500947E+03  0.37057629821E+02  0.27015752900E+03  0.31172092084E+03  0.00000000000E+00 0.  1.
        -13    1    5    5    0    0 -0.24872692952E+03  0.18647021707E+03  0.48816711778E+03  0.57874291547E+03  0.00000000000E+00 0. -1.
          2    1    6    6  503    0  0.12269295280E+03  0.15178640804E+00 -0.12535491669E+02  0.12333175689E+03  0.00000000000E+00 0. -1.
         -2    1    6    6    0  503  0.12864368522E+03  0.94030471230E+02 -0.44549354801E+02  0.16545565049E+03  0.00000000000E+00 0.  1.
<mgrwt>
<rscale>  0 0.14291305E+04</rscale>
<asrwt>0</asrwt>
<pdfrwt beam="1">  1        2 0.42302585E-01 0.14291305E+04</pdfrwt>
<pdfrwt beam="2">  1       -2 0.28568678E+00 0.14291305E+04</pdfrwt>
<totfact> 0.45847369E+00</totfact>
</mgrwt>
</event>
<event>
12    3  0.4192740E-008  0.2830195E+04  0.7818608E-02  0.8293955E-01
         -1   -1    0    0    0  501 -0.00000000000E+00  0.00000000000E+00  0.98225108576E+03  0.98225108576E+03  0.00000000000E+00 0.  1.
          1   -1    0    0  501    0  0.00000000000E+00 -0.00000000000E+00 -0.20386856686E+04  0.20386856686E+04  0.00000000000E+00 0. -1.
         23    2    1    2    0    0 -0.11173734409E+04 -0.59544460952E+03 -0.51793124212E+03  0.13709339960E+04  0.90164074782E+02 0.  0.
        254    2    1    2    0    0  0.11173734409E+04  0.59544460952E+03 -0.53850334069E+03  0.16500027583E+04  0.91073902136E+03 0.  0.
         23    2    4    4    0    0  0.11404505650E+04  0.38281829872E+03 -0.17554173999E+03  0.12191508808E+04  0.91305129364E+02 0.  0.
         23    2    4    4    0    0 -0.23077124045E+02  0.21262631080E+03 -0.36296160070E+03  0.43085187754E+03  0.90275772467E+02 0.  0.
          1    1    3    3  502    0 -0.80297720977E+03 -0.42263907252E+03 -0.32700236563E+03  0.96453446395E+03  0.00000000000E+00 0. -1.
         -1    1    3    3    0  502 -0.31439623116E+03 -0.17280553699E+03 -0.19092887649E+03  0.40639953207E+03  0.00000000000E+00 0.  1.
         13    1    5    5    0    0  0.29355660051E+03  0.13096171475E+03 -0.20469479461E+02  0.32209540205E+03  0.00000000000E+00 0. -1.
        -13    1    5    5    0    0  0.84689396446E+03  0.25185658397E+03 -0.15507226053E+03  0.89705547873E+03  0.00000000000E+00 0.  1.
          3    1    6    6  503    0  0.27401008938E+02  0.48643803463E+02 -0.13039012711E+03  0.14184012181E+03  0.00000000000E+00 0. -1.
         -3    1    6    6    0  503 -0.50478132983E+02  0.16398250734E+03 -0.23257147359E+03  0.28901175573E+03  0.00000000000E+00 0.  1.
<mgrwt>
<rscale>  0 0.28301952E+04</rscale>
<asrwt>0</asrwt>
<pdfrwt beam="1">  1        1 0.31364394E+00 0.28301952E+04</pdfrwt>
<pdfrwt beam="2">  1       -1 0.15111556E+00 0.28301952E+04</pdfrwt>
<totfact> 0.82824542E-01</totfact>
</mgrwt>
</event>
<event>
12    3  0.4192740E-008  0.1490391E+04  0.7818608E-02  0.8890868E-01
         -2   -1    0    0    0  501 -0.00000000000E+00  0.00000000000E+00  0.44671921706E+03  0.44671921706E+03  0.00000000000E+00 0.  1.
          2   -1    0    0  501    0  0.00000000000E+00 -0.00000000000E+00 -0.12430987639E+04  0.12430987639E+04  0.00000000000E+00 0. -1.
         23    2    1    2    0    0 -0.23467636838E+03 -0.31322320631E+03  0.36928499077E+02  0.40291402228E+03  0.88284882393E+02 0.  0.
        254    2    1    2    0    0  0.23467636838E+03  0.31322320631E+03 -0.83330804592E+03  0.12869039587E+04  0.89918725781E+03 0.  0.
         23    2    4    4    0    0 -0.31915305793E+03 -0.87960774376E+01 -0.24482438237E+03  0.41235412406E+03  0.90337700129E+02 0.  0.
         23    2    4    4    0    0  0.55382942630E+03  0.32201928375E+03 -0.58848366355E+03  0.87454983462E+03  0.90005213245E+02 0.  0.
          3    1    3    3  502    0 -0.49978015402E+02 -0.13332422009E+03 -0.46754454025E+00  0.14238457881E+03  0.00000000000E+00 0. -1.
         -3    1    3    3    0  502 -0.18469835297E+03 -0.17989898623E+03  0.37396043617E+02  0.26052944347E+03  0.00000000000E+00 0.  1.
         13    1    5    5    0    0 -0.30756385988E+03  0.52325454471E+01 -0.20815492789E+03  0.37141806828E+03  0.00000000000E+00 0. -1.
        -13    1    5    5    0    0 -0.11589198045E+02 -0.14028622885E+02 -0.36669454479E+02  0.40936055784E+02  0.00000000000E+00 0.  1.
          4    1    6    6  503    0  0.36593624765E+03  0.19412392820E+03 -0.32455732031E+03  0.52624223605E+03  0.00000000000E+00 0. -1.
         -4    1    6    6    0  503  0.18789317865E+03  0.12789535555E+03 -0.26392634325E+03  0.34830759856E+03  0.00000000000E+00 0.  1.
<mgrwt>
<rscale>  0 0.14903907E+04</rscale>
<asrwt>0</asrwt>
<pdfrwt beam="1">  1        2 0.19124596E+00 0.14903907E+04</pdfrwt>
<pdfrwt beam="2">  1       -2 0.68726034E-01 0.14903907E+04</pdfrwt>
<totfact> 0.33405401E+01</totfact>
</mgrwt>
</event>
<event>
12    3  0.4192740E-008  0.1703567E+04  0.7818608E-02  0.8759333E-01
         -2   -1    0    0    0  501 -0.00000000000E+00  0.00000000000E+00  0.40193091888E+03  0.40193091888E+03  0.00000000000E+00 0.  1.
          2   -1    0    0  501    0  0.00000000000E+00 -0.00000000000E+00 -0.18051239768E+04  0.18051239768E+04  0.00000000000E+00 0. -1.
         23    2    1    2    0    0  0.19352961599E+03  0.38990860600E+03  0.47967293632E+02  0.44729923434E+03  0.91067614906E+02 0.  0.
        254    2    1    2    0    0 -0.19352961599E+03 -0.38990860600E+03 -0.14511603516E+04  0.17597556614E+04  0.89520455118E+03 0.  0.
         23    2    4    4    0    0 -0.48654348337E+02 -0.67598259429E+02  0.10479100768E+03  0.16160608155E+03  0.90546120912E+02 0.  0.
         23    2    4    4    0    0 -0.14487526766E+03 -0.32231034657E+03 -0.15559513593E+04  0.15981495798E+04  0.90689825332E+02 0.  0.
          2    1    3    3  502    0  0.45372859131E+01  0.41172780516E+02  0.28282508083E+02  0.50156605571E+02  0.00000000000E+00 0. -1.
         -2    1    3    3    0  502  0.18899233008E+03  0.34873582548E+03  0.19684785549E+02  0.39714262877E+03  0.00000000000E+00 0.  1.
         13    1    5    5    0    0 -0.47638765638E+02 -0.12341603930E+02  0.92819707794E+02  0.10505839012E+03  0.00000000000E+00 0.  1.
        -13    1    5    5    0    0 -0.10155826988E+01 -0.55256655499E+02  0.11971299890E+02  0.56547691431E+02  0.00000000000E+00 0. -1.
          3    1    6    6  503    0 -0.11943420906E+03 -0.19861541404E+03 -0.11455202909E+04  0.11687298019E+04  0.00000000000E+00 0. -1.
         -3    1    6    6    0  503 -0.25441058601E+02 -0.12369493253E+03 -0.41043106842E+03  0.42941977798E+03  0.00000000000E+00 0.  1.
<mgrwt>
<rscale>  0 0.17035670E+04</rscale>
<asrwt>0</asrwt>
<pdfrwt beam="1">  1        2 0.27771138E+00 0.17035670E+04</pdfrwt>
<pdfrwt beam="2">  1       -2 0.61835526E-01 0.17035670E+04</pdfrwt>
<totfact> 0.19809632E+01</totfact>
</mgrwt>
</event>
<event>
12    3  0.4192740E-008  0.1308792E+04  0.7818608E-02  0.9022622E-01
         -2   -1    0    0    0  501 -0.00000000000E+00  0.00000000000E+00  0.12612534478E+03  0.12612534478E+03  0.00000000000E+00 0.  1.
          2   -1    0    0  501    0  0.00000000000E+00 -0.00000000000E+00 -0.33953069409E+04  0.33953069409E+04  0.00000000000E+00 0. -1.
         23    2    1    2    0    0 -0.17760430075E+03  0.26950139926E+03 -0.72660025185E+03  0.80199838167E+03  0.10525771401E+03 0.  0.
        254    2    1    2    0    0  0.17760430075E+03 -0.26950139926E+03 -0.25425813443E+04  0.27194339040E+04  0.90908007031E+03 0.  0.
         23    2    4    4    0    0 -0.67098077641E+02  0.94529044890E+02 -0.10005087955E+02  0.14756595176E+03  0.90761864136E+02 0.  0.
         23    2    4    4    0    0  0.24470237839E+03 -0.36403044415E+03 -0.25325762563E+04  0.25718679523E+04  0.90359568141E+02 0.  0.
          4    1    3    3  502    0 -0.56596429630E+02  0.52303909014E+02 -0.28479433945E+03  0.29503672742E+03  0.00000000000E+00 0. -1.
         -4    1    3    3    0  502 -0.12100787112E+03  0.21719749025E+03 -0.44180591240E+03  0.50696165425E+03  0.00000000000E+00 0.  1.
         13    1    5    5    0    0 -0.61225059289E+02  0.84609833010E+02 -0.42751690259E+02  0.11284962892E+03  0.00000000000E+00 0. -1.
        -13    1    5    5    0    0 -0.58730183524E+01  0.99192118802E+01  0.32746602304E+02  0.34716322837E+02  0.00000000000E+00 0.  1.
          3    1    6    6  503    0  0.24559116737E+03 -0.35652535742E+03 -0.25218866188E+04  0.25587765572E+04  0.00000000000E+00 0. -1.
         -3    1    6    6    0  503 -0.88878897868E+00 -0.75050867321E+01 -0.10689637564E+02  0.13091395035E+02  0.00000000000E+00 0.  1.
<mgrwt>
<rscale>  0 0.13087922E+04</rscale>
<asrwt>0</asrwt>
<pdfrwt beam="1">  1        2 0.52235482E+00 0.13087922E+04</pdfrwt>
<pdfrwt beam="2">  1       -2 0.19403903E-01 0.13087922E+04</pdfrwt>
<totfact> 0.21600743E+01</totfact>
</mgrwt>
</event>
<event>
12    3  0.4192740E-008  0.2369282E+04  0.7818608E-02  0.8451094E-01
         -1   -1    0    0    0  501 -0.00000000000E+00  0.00000000000E+00  0.17854222093E+04  0.17854222093E+04  0.00000000000E+00 0.  1.
          1   -1    0    0  501    0  0.00000000000E+00 -0.00000000000E+00 -0.78601830763E+03  0.78601830763E+03  0.00000000000E+00 0. -1.
         23    2    1    2    0    0 -0.25422661487E+03 -0.87906934185E+03  0.90381480924E+03  0.12895518297E+04  0.93105491321E+02 0.  0.
        254    2    1    2    0    0  0.25422661487E+03  0.87906934185E+03  0.95589092440E+02  0.12818886873E+04  0.89258459121E+03 0.  0.
         23    2    4    4    0    0  0.51442732683E+03  0.83082221054E+03 -0.13699682035E+02  0.98152991103E+03  0.91171623042E+02 0.  0.
         23    2    4    4    0    0 -0.26020071196E+03  0.48247131312E+02  0.10928877447E+03  0.30035877624E+03  0.90769830080E+02 0.  0.
          1    1    3    3  502    0 -0.10216402112E+03 -0.31654607292E+03  0.26848082379E+03  0.42745860178E+03  0.00000000000E+00 0. -1.
         -1    1    3    3    0  502 -0.15206259375E+03 -0.56252326893E+03  0.63533398545E+03  0.86209322789E+03  0.00000000000E+00 0.  1.
         13    1    5    5    0    0  0.40882224383E+03  0.63453162704E+03  0.25279980576E+02  0.75525167341E+03  0.00000000000E+00 0. -1.
        -13    1    5    5    0    0  0.10560508299E+03  0.19629058350E+03 -0.38979662611E+02  0.22627823762E+03  0.00000000000E+00 0.  1.
          3    1    6    6  503    0 -0.26466605501E+03  0.43074129203E+02  0.94928608428E+02  0.28445551845E+03  0.00000000000E+00 0. -1.
         -3    1    6    6    0  503  0.44653430466E+01  0.51730021090E+01  0.14360166047E+02  0.15903257787E+02  0.00000000000E+00 0.  1.
<mgrwt>
<rscale>  0 0.23692822E+04</rscale>
<asrwt>0</asrwt>
<pdfrwt beam="1">  1        1 0.12092589E+00 0.23692822E+04</pdfrwt>
<pdfrwt beam="2">  1       -1 0.27468034E+00 0.23692822E+04</pdfrwt>
<totfact> 0.98462204E-01</totfact>
</mgrwt>
</event>
<event>
12    3  0.4192740E-008  0.1796875E+04  0.7818608E-02  0.8707963E-01
          2   -1    0    0  501    0  0.00000000000E+00  0.00000000000E+00  0.19707016514E+04  0.19707016514E+04  0.00000000000E+00 0. -1.
         -2   -1    0    0    0  501 -0.00000000000E+00 -0.00000000000E+00 -0.40959516949E+03  0.40959516949E+03  0.00000000000E+00 0.  1.
         23    2    1    2    0    0 -0.60885666154E+03  0.24930445155E+03  0.77357999811E+03  0.10200990396E+04  0.96524055712E+02 0.  0.
        254    2    1    2    0    0  0.60885666154E+03 -0.24930445155E+03  0.78752648376E+03  0.13601977812E+04  0.89279387181E+03 0.  0.
         23    2    4    4    0    0  0.43823180311E+03 -0.11629675037E+03 -0.72617350192E+02  0.46823282126E+03  0.91633225149E+02 0.  0.
         23    2    4    4    0    0  0.17062485843E+03 -0.13300770118E+03  0.86014383395E+03  0.89196495995E+03  0.94605411137E+02 0.  0.
          3    1    3    3  502    0 -0.16712633329E+03  0.75196359399E+02  0.28480947438E+03  0.33867704446E+03  0.00000000000E+00 0. -1.
         -3    1    3    3    0  502 -0.44173032826E+03  0.17410809215E+03  0.48877052373E+03  0.68142199519E+03  0.00000000000E+00 0.  1.
         13    1    5    5    0    0  0.15569904398E+02 -0.13822874268E+02  0.13591341532E+02  0.24863996875E+02  0.00000000000E+00 0. -1.
        -13    1    5    5    0    0  0.42266189872E+03 -0.10247387611E+03 -0.86208691724E+02  0.44336882439E+03  0.00000000000E+00 0.  1.
          4    1    6    6  503    0  0.30944347131E+02 -0.19137119867E+02  0.48931391249E+02  0.60975921689E+02  0.00000000000E+00 0. -1.
         -4    1    6    6    0  503  0.13968051130E+03 -0.11387058131E+03  0.81121244270E+03  0.83098903826E+03  0.00000000000E+00 0.  1.
<mgrwt>
<rscale>  0 0.17968749E+04</rscale>
<asrwt>0</asrwt>
<pdfrwt beam="1">  1        2 0.30318486E+00 0.17968749E+04</pdfrwt>
<pdfrwt beam="2">  1       -2 0.63014643E-01 0.17968749E+04</pdfrwt>
<totfact> 0.15284225E+01</totfact>
</mgrwt>
</event>
<event>
12    3  0.4192740E-008  0.2612651E+04  0.7818608E-02  0.8363917E-01
          2   -1    0    0  501    0  0.00000000000E+00  0.00000000000E+00  0.31811393478E+04  0.31811393478E+04  0.00000000000E+00 0. -1.
         -2   -1    0    0    0  501 -0.00000000000E+00 -0.00000000000E+00 -0.53643876303E+03  0.53643876303E+03  0.00000000000E+00 0.  1.
         23    2    1    2    0    0 -0.99424503818E+03  0.21981867083E+03  0.55481632351E+03  0.11619841867E+04  0.74448997759E+02 0.  0.
        254    2    1    2    0    0  0.99424503818E+03 -0.21981867083E+03  0.20898842613E+04  0.25555939242E+04  0.10614144505E+04 0.  0.
         23    2    4    4    0    0  0.86472107828E+03  0.27601512812E+03  0.10361122827E+04  0.13803664306E+04  0.89195999343E+02 0.  0.
         23    2    4    4    0    0  0.12952395989E+03 -0.49583379895E+03  0.10537719786E+04  0.11752274935E+04  0.89981477780E+02 0.  0.
          2    1    3    3  502    0 -0.15742538100E+02 -0.44675453181E-01  0.19815988763E+02  0.25308159008E+02  0.00000000000E+00 0. -1.
         -2    1    3    3    0  502 -0.97850250008E+03  0.21986334628E+03  0.53500033474E+03  0.11366760277E+04  0.00000000000E+00 0.  1.
         13    1    5    5    0    0  0.42208570649E+03  0.15235192831E+03  0.57444666598E+03  0.72894199065E+03  0.00000000000E+00 0. -1.
        -13    1    5    5    0    0  0.44263537179E+03  0.12366319981E+03  0.46166561670E+03  0.65142443997E+03  0.00000000000E+00 0.  1.
          3    1    6    6  503    0  0.10338876900E+03 -0.42952776294E+03  0.82826247625E+03  0.93872363678E+03  0.00000000000E+00 0. -1.
         -3    1    6    6    0  503  0.26135190892E+02 -0.66306036003E+02  0.22550950235E+03  0.23650385677E+03  0.00000000000E+00 0.  1.
<mgrwt>
<rscale>  0 0.26126511E+04</rscale>
<asrwt>0</asrwt>
<pdfrwt beam="1">  1        2 0.48940604E+00 0.26126511E+04</pdfrwt>
<pdfrwt beam="2">  1       -2 0.82529043E-01 0.26126511E+04</pdfrwt>
<totfact> 0.15189068E+00</totfact>
</mgrwt>
</event>
<event>
12    3  0.4192740E-008  0.1655753E+04  0.7818608E-02  0.8787011E-01
          2   -1    0    0  501    0  0.00000000000E+00  0.00000000000E+00  0.10504619702E+04  0.10504619702E+04  0.00000000000E+00 0. -1.
         -2   -1    0    0    0  501 -0.00000000000E+00 -0.00000000000E+00 -0.65245503213E+03  0.65245503213E+03  0.00000000000E+00 0.  1.
         23    2    1    2    0    0  0.29266912104E+03 -0.23656833026E+03 -0.30709813055E+03  0.49398380303E+03  0.89949689110E+02 0.  0.
        254    2    1    2    0    0 -0.29266912104E+03  0.23656833026E+03  0.70510506866E+03  0.12089331993E+04  0.90704274063E+03 0.  0.
         23    2    4    4    0    0 -0.43558856662E+03  0.35975432174E+03  0.79635047604E+03  0.98073293435E+03  0.92208657106E+02 0.  0.
         23    2    4    4    0    0  0.14291944558E+03 -0.12318599147E+03 -0.91245407381E+02  0.22820026500E+03  0.90271147974E+02 0.  0.
          4    1    3    3  502    0  0.16873607715E+03 -0.81549572437E+02 -0.13103104142E+03  0.22867297679E+03  0.00000000000E+00 0. -1.
         -4    1    3    3    0  502  0.12393304389E+03 -0.15501875783E+03 -0.17606708913E+03  0.26531082624E+03  0.00000000000E+00 0.  1.
         13    1    5    5    0    0 -0.55058781363E+02  0.13034875810E+02  0.97721430170E+02  0.11291968521E+03  0.00000000000E+00 0. -1.
        -13    1    5    5    0    0 -0.38052978526E+03  0.34671944593E+03  0.69862904587E+03  0.86781324914E+03  0.00000000000E+00 0.  1.
          1    1    6    6  503    0  0.60595172545E+02 -0.23517228386E+02  0.76375183632E+01  0.65445906315E+02  0.00000000000E+00 0. -1.
         -1    1    6    6    0  503  0.82324273034E+02 -0.99668763089E+02 -0.98882925744E+02  0.16275435868E+03  0.00000000000E+00 0.  1.
<mgrwt>
<rscale>  0 0.16557526E+04</rscale>
<asrwt>0</asrwt>
<pdfrwt beam="1">  1        2 0.16160953E+00 0.16557526E+04</pdfrwt>
<pdfrwt beam="2">  1       -2 0.10037770E+00 0.16557526E+04</pdfrwt>
<totfact> 0.18288663E+01</totfact>
</mgrwt>
</event>
<event>
12    3  0.4192740E-008  0.1337076E+04  0.7818608E-02  0.9000669E-01
          1   -1    0    0  501    0  0.00000000000E+00  0.00000000000E+00  0.13065503351E+04  0.13065503351E+04  0.00000000000E+00 0. -1.
         -1   -1    0    0    0  501 -0.00000000000E+00 -0.00000000000E+00 -0.34207892076E+03  0.34207892076E+03  0.00000000000E+00 0.  1.
         23    2    1    2    0    0  0.23382337868E+03  0.77226653710E+02  0.56054926869E+03  0.61884691135E+03  0.90103765721E+02 0.  0.
        254    2    1    2    0    0 -0.23382337868E+03 -0.77226653710E+02  0.40392214565E+03  0.10297823445E+04  0.91469188739E+03 0.  0.
         23    2    4    4    0    0 -0.13087627011E+03  0.15063483340E+03  0.63829572572E+03  0.67498613939E+03  0.91462581318E+02 0.  0.
         23    2    4    4    0    0 -0.10294710857E+03 -0.22786148711E+03 -0.23437358007E+03  0.35479620512E+03  0.91817251423E+02 0.  0.
          2    1    3    3  502    0  0.12690179003E+03  0.35474764639E+02  0.40245970058E+03  0.42348120836E+03  0.00000000000E+00 0. -1.
         -2    1    3    3    0  502  0.10692158866E+03  0.41751889070E+02  0.15808956810E+03  0.19536570299E+03  0.00000000000E+00 0.  1.
         13    1    5    5    0    0 -0.10477417323E+03  0.64111227151E+02  0.28557332609E+03  0.31086974989E+03  0.00000000000E+00 0.  1.
        -13    1    5    5    0    0 -0.26102096884E+02  0.86523606249E+02  0.35272239963E+03  0.36411638950E+03  0.00000000000E+00 0. -1.
          1    1    6    6  503    0 -0.11617346204E+03 -0.20474489517E+03 -0.22731370693E+03  0.32724343651E+03  0.00000000000E+00 0. -1.
         -1    1    6    6    0  503  0.13226353473E+02 -0.23116591938E+02 -0.70598731433E+01  0.27552768606E+02  0.00000000000E+00 0.  1.
<mgrwt>
<rscale>  0 0.13370764E+04</rscale>
<asrwt>0</asrwt>
<pdfrwt beam="1">  1        1 0.20100774E+00 0.13370764E+04</pdfrwt>
<pdfrwt beam="2">  1       -1 0.52627527E-01 0.13370764E+04</pdfrwt>
<totfact> 0.31897647E+01</totfact>
</mgrwt>
</event>
<event>
12    3  0.4192740E-008  0.1333638E+04  0.7818608E-02  0.9003307E-01
         -2   -1    0    0    0  501 -0.00000000000E+00  0.00000000000E+00  0.16378304143E+03  0.16378304143E+03  0.00000000000E+00 0.  1.
          2   -1    0    0  501    0  0.00000000000E+00 -0.00000000000E+00 -0.27148579699E+04  0.27148579699E+04  0.00000000000E+00 0. -1.
         23    2    1    2    0    0 -0.13740766941E+03 -0.14755980675E+03 -0.74980115276E+02  0.23318801035E+03  0.89999257252E+02 0.  0.
        254    2    1    2    0    0  0.13740766941E+03  0.14755980675E+03 -0.24760948132E+04  0.26454530010E+04  0.90924215274E+03 0.  0.
         23    2    4    4    0    0  0.98853183377E+02 -0.27182048926E+03 -0.19084502908E+04  0.19323373651E+04  0.89926912999E+02 0.  0.
         23    2    4    4    0    0  0.38554486029E+02  0.41938029601E+03 -0.56764452239E+03  0.71311563593E+03  0.94590302511E+02 0.  0.
          4    1    3    3  502    0 -0.35373020755E+02  0.64821833029E+01 -0.14436817017E+02  0.38751657814E+02  0.00000000000E+00 0. -1.
         -4    1    3    3    0  502 -0.10203464865E+03 -0.15404199005E+03 -0.60543298259E+02  0.19443635254E+03  0.00000000000E+00 0.  1.
         13    1    5    5    0    0  0.55450961092E+02 -0.11210848952E+03 -0.11023176862E+04  0.11093905551E+04  0.00000000000E+00 0. -1.
        -13    1    5    5    0    0  0.43402222285E+02 -0.15971199974E+03 -0.80613260461E+03  0.82294680993E+03  0.00000000000E+00 0.  1.
          4    1    6    6  503    0 -0.12294689429E+02  0.60573224731E+01 -0.30595906023E+02  0.33525512808E+02  0.00000000000E+00 0. -1.
         -4    1    6    6    0  503  0.50849175458E+02  0.41332297354E+03 -0.53704861637E+03  0.67959012312E+03  0.00000000000E+00 0.  1.
<mgrwt>
<rscale>  0 0.13336382E+04</rscale>
<asrwt>0</asrwt>
<pdfrwt beam="1">  1        2 0.41767045E+00 0.13336382E+04</pdfrwt>
<pdfrwt beam="2">  1       -2 0.25197391E-01 0.13336382E+04</pdfrwt>
<totfact> 0.36226136E+01</totfact>
</mgrwt>
</event>
<event>
12    3  0.4192740E-008  0.1283296E+04  0.7818608E-02  0.9042917E-01
         -1   -1    0    0    0  501 -0.00000000000E+00  0.00000000000E+00  0.33345155915E+03  0.33345155915E+03  0.00000000000E+00 0.  1.
          1   -1    0    0  501    0  0.00000000000E+00 -0.00000000000E+00 -0.12346990371E+04  0.12346990371E+04  0.00000000000E+00 0. -1.
         23    2    1    2    0    0  0.43470037836E+02 -0.17236383995E+03 -0.56521280304E+03  0.59823642471E+03  0.82597636880E+02 0.  0.
        254    2    1    2    0    0 -0.43470037836E+02  0.17236383995E+03 -0.33603467487E+03  0.96991417151E+03  0.89230894866E+03 0.  0.
         23    2    4    4    0    0 -0.38812629060E+02  0.51090393343E+02 -0.63000932241E+03  0.63940874634E+03  0.88403337637E+02 0.  0.
         23    2    4    4    0    0 -0.46574087763E+01  0.12127344661E+03  0.29397464754E+03  0.33050542517E+03  0.89909968073E+02 0.  0.
          4    1    3    3  502    0  0.29686572239E+02 -0.17190004868E+03 -0.55283674021E+03  0.57970628825E+03  0.00000000000E+00 0. -1.
         -4    1    3    3    0  502  0.13783465597E+02 -0.46379126893E+00 -0.12376062834E+02  0.18530136467E+02  0.00000000000E+00 0.  1.
         13    1    5    5    0    0  0.10279443941E+01  0.67891234325E+01 -0.44477708505E+03  0.44483008470E+03  0.00000000000E+00 0. -1.
        -13    1    5    5    0    0 -0.39840573454E+02  0.44301269911E+02 -0.18523223736E+03  0.19457866164E+03  0.00000000000E+00 0.  1.
          4    1    6    6  503    0 -0.76126046581E+01  0.13212490594E+03  0.22839357608E+03  0.26396698300E+03  0.00000000000E+00 0. -1.
         -4    1    6    6    0  503  0.29551958818E+01 -0.10851459329E+02  0.65581071453E+02  0.66538442161E+02  0.00000000000E+00 0.  1.
<mgrwt>
<rscale>  0 0.12832963E+04</rscale>
<asrwt>0</asrwt>
<pdfrwt beam="1">  1        1 0.18995370E+00 0.12832963E+04</pdfrwt>
<pdfrwt beam="2">  1       -1 0.51300240E-01 0.12832963E+04</pdfrwt>
<totfact> 0.37891800E+01</totfact>
</mgrwt>
</event>
<event>
12    3  0.4192740E-008  0.1758557E+04  0.7818608E-02  0.8728654E-01
          1   -1    0    0  501    0  0.00000000000E+00  0.00000000000E+00  0.55705257959E+03  0.55705257959E+03  0.00000000000E+00 0. -1.
         -1   -1    0    0    0  501 -0.00000000000E+00 -0.00000000000E+00 -0.13878946868E+04  0.13878946868E+04  0.00000000000E+00 0.  1.
         23    2    1    2    0    0 -0.53830350412E+03  0.78886195315E+02 -0.68566677487E+03  0.88003920834E+03  0.91303820850E+02 0.  0.
        254    2    1    2    0    0  0.53830350412E+03 -0.78886195315E+02 -0.14517533230E+03  0.10649080580E+04  0.90385817502E+03 0.  0.
         23    2    4    4    0    0  0.59637970695E+03 -0.19674494760E+03  0.21690589696E+03  0.66935541847E+03  0.81309155890E+02 0.  0.
         23    2    4    4    0    0 -0.58076202830E+02  0.11785875229E+03 -0.36208122926E+03  0.39555263954E+03  0.89975236808E+02 0.  0.
          3    1    3    3  502    0 -0.51940263090E+03  0.68935968146E+02 -0.62415182449E+03  0.81492132179E+03  0.00000000000E+00 0. -1.
         -3    1    3    3    0  502 -0.18900873218E+02  0.99502271693E+01 -0.61514950376E+02  0.65117886551E+02  0.00000000000E+00 0.  1.
         13    1    5    5    0    0  0.11721587653E+03 -0.19842461516E+02  0.69614977463E+02  0.13776621529E+03  0.00000000000E+00 0.  1.
        -13    1    5    5    0    0  0.47916383042E+03 -0.17690248609E+03  0.14729091950E+03  0.53158920318E+03  0.00000000000E+00 0. -1.
          4    1    6    6  503    0  0.13163674016E+02 -0.60746609331E+01 -0.54172999068E+02  0.56079387006E+02  0.00000000000E+00 0.  1.
         -4    1    6    6    0  503 -0.71239876846E+02  0.12393341322E+03 -0.30790823019E+03  0.33947325253E+03  0.00000000000E+00 0. -1.
<mgrwt>
<rscale>  0 0.17585566E+04</rscale>
<asrwt>0</asrwt>
<pdfrwt beam="1">  1        1 0.85700397E-01 0.17585566E+04</pdfrwt>
<pdfrwt beam="2">  1       -1 0.21352226E+00 0.17585566E+04</pdfrwt>
<totfact> 0.43888434E+00</totfact>
</mgrwt>
</event>
<event>
12    3  0.4192740E-008  0.1488257E+04  0.7818608E-02  0.8892300E-01
          2   -1    0    0  501    0  0.00000000000E+00  0.00000000000E+00  0.26411795179E+04  0.26411795179E+04  0.00000000000E+00 0.  1.
         -2   -1    0    0    0  501 -0.00000000000E+00 -0.00000000000E+00 -0.20965154317E+03  0.20965154317E+03  0.00000000000E+00 0. -1.
         23    2    1    2    0    0  0.27017897808E+03 -0.20498089827E+03  0.13333484431E+04  0.13790270177E+04  0.94252829747E+02 0.  0.
        254    2    1    2    0    0 -0.27017897808E+03  0.20498089827E+03  0.10981795316E+04  0.14718040434E+04  0.91934488065E+03 0.  0.
         23    2    4    4    0    0 -0.18846489039E+03  0.10205954522E+03 -0.10715821963E+03  0.25581730668E+03  0.89579264798E+02 0.  0.
         23    2    4    4    0    0 -0.81714087692E+02  0.10292135305E+03  0.12053377512E+04  0.12159867367E+04  0.92274873170E+02 0.  0.
          2    1    3    3  502    0  0.86917603228E+02 -0.12052408899E+03  0.63147996725E+03  0.64872773550E+03  0.00000000000E+00 0.  1.
         -2    1    3    3    0  502  0.18326137486E+03 -0.84456809276E+02  0.70186847584E+03  0.73029928217E+03  0.00000000000E+00 0. -1.
         13    1    5    5    0    0 -0.18776312387E+03  0.10959312023E+03 -0.86791522018E+02  0.23409060421E+03  0.00000000000E+00 0.  1.
        -13    1    5    5    0    0 -0.70176652404E+00 -0.75335750070E+01 -0.20366697608E+02  0.21726702467E+02  0.00000000000E+00 0. -1.
          1    1    6    6  503    0 -0.45778818481E+02  0.14049443463E+02  0.18289728878E+03  0.18906217317E+03  0.00000000000E+00 0. -1.
         -1    1    6    6    0  503 -0.35935269210E+02  0.88871909585E+02  0.10224404624E+04  0.10269245635E+04  0.00000000000E+00 0.  1.
<mgrwt>
<rscale>  0 0.14882572E+04</rscale>
<asrwt>0</asrwt>
<pdfrwt beam="1">  1        2 0.40633529E+00 0.14882572E+04</pdfrwt>
<pdfrwt beam="2">  1       -2 0.32254085E-01 0.14882572E+04</pdfrwt>
<totfact> 0.25005155E+01</totfact>
</mgrwt>
</event>
<event>
12    3  0.4192740E-008  0.1323070E+04  0.7818608E-02  0.9011468E-01
         -2   -1    0    0    0  501 -0.00000000000E+00  0.00000000000E+00  0.47479218684E+03  0.47479218684E+03  0.00000000000E+00 0.  1.
          2   -1    0    0  501    0  0.00000000000E+00 -0.00000000000E+00 -0.92172619227E+03  0.92172619227E+03  0.00000000000E+00 0. -1.
         23    2    1    2    0    0  0.32840197916E+03 -0.10755304755E+03 -0.19543181882E+03  0.40744995877E+03  0.91686177475E+02 0.  0.
        254    2    1    2    0    0 -0.32840197916E+03  0.10755304755E+03 -0.25150218661E+03  0.98906842035E+03  0.89195710228E+03 0.  0.
         23    2    4    4    0    0  0.27273120582E+03  0.14959681364E+03  0.11487942311E+02  0.32385110089E+03  0.89364676745E+02 0.  0.
         23    2    4    4    0    0 -0.60113318497E+03 -0.42043766092E+02 -0.26299012892E+03  0.66521731946E+03  0.10110138407E+03 0.  0.
          4    1    3    3  502    0  0.20319610683E+03 -0.56630632992E+02 -0.67853073006E+02  0.22158457965E+03  0.00000000000E+00 0. -1.
         -4    1    3    3    0  502  0.12520587233E+03 -0.50922414560E+02 -0.12757874581E+03  0.18586537911E+03  0.00000000000E+00 0.  1.
         13    1    5    5    0    0  0.24133939471E+03  0.15787738481E+03 -0.27390964488E+01  0.28840505322E+03  0.00000000000E+00 0. -1.
        -13    1    5    5    0    0  0.31391811103E+02 -0.82805711679E+01  0.14227038760E+02  0.35446047665E+02  0.00000000000E+00 0.  1.
          3    1    6    6  503    0 -0.58595664422E+03 -0.22774178493E+02 -0.25471534751E+03  0.63933071283E+03  0.00000000000E+00 0. -1.
         -3    1    6    6    0  503 -0.15176540748E+02 -0.19269587599E+02 -0.82747814107E+01  0.25886606628E+02  0.00000000000E+00 0.  1.
<mgrwt>
<rscale>  0 0.13230698E+04</rscale>
<asrwt>0</asrwt>
<pdfrwt beam="1">  1        2 0.14180403E+00 0.13230698E+04</pdfrwt>
<pdfrwt beam="2">  1       -2 0.73044952E-01 0.13230698E+04</pdfrwt>
<totfact> 0.46983424E+01</totfact>
</mgrwt>
</event>
<event>
12    3  0.4192740E-008  0.1911157E+04  0.7818608E-02  0.8649323E-01
          2   -1    0    0  501    0  0.00000000000E+00  0.00000000000E+00  0.61262007165E+03  0.61262007165E+03  0.00000000000E+00 0. -1.
         -2   -1    0    0    0  501 -0.00000000000E+00 -0.00000000000E+00 -0.14905330735E+04  0.14905330735E+04  0.00000000000E+00 0.  1.
         23    2    1    2    0    0 -0.44276266606E+03  0.37093151528E+03  0.13870484826E+03  0.60088541416E+03  0.90527777708E+02 0.  0.
        254    2    1    2    0    0  0.44276266606E+03 -0.37093151528E+03 -0.10166178501E+04  0.15022677310E+04  0.94322188002E+03 0.  0.
         23    2    4    4    0    0  0.30084742704E+03 -0.58181138261E+03 -0.28084178916E+03  0.71847156698E+03  0.91190036395E+02 0.  0.
         23    2    4    4    0    0  0.14191523902E+03  0.21087986733E+03 -0.73577606093E+03  0.78379616400E+03  0.91431730558E+02 0.  0.
          4    1    3    3  502    0 -0.36183843131E+03  0.25997446581E+03  0.12568707959E+03  0.46293737721E+03  0.00000000000E+00 0. -1.
         -4    1    3    3    0  502 -0.80924234749E+02  0.11095704946E+03  0.13017768674E+02  0.13794803694E+03  0.00000000000E+00 0.  1.
         13    1    5    5    0    0  0.18754541173E+03 -0.38927180845E+03 -0.22943577775E+03  0.48923061885E+03  0.00000000000E+00 0. -1.
        -13    1    5    5    0    0  0.11330201531E+03 -0.19253957416E+03 -0.51406011416E+02  0.22924094813E+03  0.00000000000E+00 0.  1.
          4    1    6    6  503    0  0.49556556471E+01 -0.56523200902E+00  0.10458849915E+01  0.50962619176E+01  0.00000000000E+00 0. -1.
         -4    1    6    6    0  503  0.13695958337E+03  0.21144509934E+03 -0.73682194592E+03  0.77869990208E+03  0.00000000000E+00 0.  1.
<mgrwt>
<rscale>  0 0.19111572E+04</rscale>
<asrwt>0</asrwt>
<pdfrwt beam="1">  1        2 0.94249242E-01 0.19111572E+04</pdfrwt>
<pdfrwt beam="2">  1       -2 0.22931278E+00 0.19111572E+04</pdfrwt>
<totfact> 0.39052975E+00</totfact>
</mgrwt>
</event>
<event>
12    3  0.4192740E-008  0.1771687E+04  0.7818608E-02  0.8721502E-01
         -2   -1    0    0    0  501 -0.00000000000E+00  0.00000000000E+00  0.57623513948E+03  0.57623513948E+03  0.00000000000E+00 0. -1.
          2   -1    0    0  501    0  0.00000000000E+00 -0.00000000000E+00 -0.13618032812E+04  0.13618032812E+04  0.00000000000E+00 0.  1.
         23    2    1    2    0    0 -0.40519214620E+03 -0.16852002469E+02 -0.85812493829E+03  0.95373359262E+03  0.93619926536E+02 0.  0.
        254    2    1    2    0    0  0.40519214620E+03  0.16852002469E+02  0.72556796573E+02  0.98430482805E+03  0.89393894673E+03 0.  0.
         23    2    4    4    0    0  0.52876159470E+03 -0.19169526910E+03 -0.20390382712E+03  0.60515990759E+03  0.91136396772E+02 0.  0.
         23    2    4    4    0    0 -0.12356944851E+03  0.20854727157E+03  0.27646062369E+03  0.37914492046E+03  0.92514978118E+02 0.  0.
          2    1    3    3  502    0 -0.10174270232E+03 -0.18877873514E+02 -0.13971431369E+03  0.17386213226E+03  0.00000000000E+00 0. -1.
         -2    1    3    3    0  502 -0.30344944387E+03  0.20258710449E+01 -0.71841062460E+03  0.77987146036E+03  0.00000000000E+00 0.  1.
         13    1    5    5    0    0  0.16750881590E+03 -0.17330732349E+02 -0.68322510735E+02  0.18173476046E+03  0.00000000000E+00 0. -1.
        -13    1    5    5    0    0  0.36125277881E+03 -0.17436453675E+03 -0.13558131638E+03  0.42342514713E+03  0.00000000000E+00 0.  1.
          4    1    6    6  503    0 -0.13827099004E+03  0.17802095102E+03  0.23559809865E+03  0.32606255501E+03  0.00000000000E+00 0.  1.
         -4    1    6    6    0  503  0.14701541532E+02  0.30526320541E+02  0.40862525039E+02  0.53082365449E+02  0.00000000000E+00 0. -1.
<mgrwt>
<rscale>  0 0.17716872E+04</rscale>
<asrwt>0</asrwt>
<pdfrwt beam="1">  1        2 0.20950820E+00 0.17716872E+04</pdfrwt>
<pdfrwt beam="2">  1       -2 0.88651561E-01 0.17716872E+04</pdfrwt>
<totfact> 0.15760891E+01</totfact>
</mgrwt>
</event>
<event>
12    3  0.4192740E-008  0.1915522E+04  0.7818608E-02  0.8647169E-01
          2   -1    0    0  501    0  0.00000000000E+00  0.00000000000E+00  0.88062497434E+03  0.88062497434E+03  0.00000000000E+00 0. -1.
         -2   -1    0    0    0  501 -0.00000000000E+00 -0.00000000000E+00 -0.10416533190E+04  0.10416533190E+04  0.00000000000E+00 0.  1.
         23    2    1    2    0    0 -0.67447257541E+03 -0.25231459212E+03 -0.31441671931E+03  0.79104638591E+03  0.91217338813E+02 0.  0.
        254    2    1    2    0    0  0.67447257541E+03  0.25231459212E+03  0.15338837466E+03  0.11312319074E+04  0.85882578357E+03 0.  0.
         23    2    4    4    0    0  0.20585667803E+03  0.22645107100E+03  0.46247862223E+03  0.56183513213E+03  0.90084295168E+02 0.  0.
         23    2    4    4    0    0  0.46861589738E+03  0.25863521120E+02 -0.30909024757E+03  0.56939677529E+03  0.91684925542E+02 0.  0.
          1    1    3    3  502    0 -0.10031477549E+03 -0.53915261491E+02 -0.83292736254E+02  0.14109425756E+03  0.00000000000E+00 0.  1.
         -1    1    3    3    0  502 -0.57415779992E+03 -0.19839933063E+03 -0.23112398306E+03  0.64995212835E+03  0.00000000000E+00 0. -1.
         13    1    5    5    0    0  0.10008282454E+03  0.14415971256E+03  0.32790299293E+03  0.37191258014E+03  0.00000000000E+00 0.  1.
        -13    1    5    5    0    0  0.10577385348E+03  0.82291358440E+02  0.13457562930E+03  0.18992255199E+03  0.00000000000E+00 0. -1.
          4    1    6    6  503    0  0.36602997565E+03  0.56283015732E+02 -0.22518394371E+03  0.43342073029E+03  0.00000000000E+00 0.  1.
         -4    1    6    6    0  503  0.10258592172E+03 -0.30419494612E+02 -0.83906303856E+02  0.13597604501E+03  0.00000000000E+00 0. -1.
<mgrwt>
<rscale>  0 0.19155218E+04</rscale>
<asrwt>0</asrwt>
<pdfrwt beam="1">  1        2 0.13548077E+00 0.19155218E+04</pdfrwt>
<pdfrwt beam="2">  1       -2 0.16025436E+00 0.19155218E+04</pdfrwt>
<totfact> 0.70889920E+00</totfact>
</mgrwt>
</event>
<event>
12    3  0.4192740E-008  0.1270518E+04  0.7818608E-02  0.9053277E-01
          2   -1    0    0  501    0  0.00000000000E+00  0.00000000000E+00  0.36137785506E+03  0.36137785506E+03  0.00000000000E+00 0. -1.
         -2   -1    0    0    0  501 -0.00000000000E+00 -0.00000000000E+00 -0.11167088169E+04  0.11167088169E+04  0.00000000000E+00 0.  1.
         23    2    1    2    0    0  0.30328891256E+03  0.38877492123E+02 -0.12474509693E+03  0.34250074984E+03  0.90828412740E+02 0.  0.
        254    2    1    2    0    0 -0.30328891256E+03 -0.38877492123E+02 -0.63058586489E+03  0.11355859221E+04  0.89354419565E+03 0.  0.
         23    2    4    4    0    0 -0.17428445538E+03  0.22389434944E+03  0.12329165677E+03  0.32181107585E+03  0.88644147098E+02 0.  0.
         23    2    4    4    0    0 -0.12900445718E+03 -0.26277184156E+03 -0.75387752165E+03  0.81377484624E+03  0.90592450198E+02 0.  0.
          3    1    3    3  502    0  0.13638707808E+03  0.51030036909E+02 -0.25193109989E+02  0.14778427699E+03  0.00000000000E+00 0. -1.
         -3    1    3    3    0  502  0.16690183448E+03 -0.12152544786E+02 -0.99551986944E+02  0.19471647285E+03  0.00000000000E+00 0.  1.
         13    1    5    5    0    0  0.85543436276E+01  0.52495695251E+01  0.12465701643E+02  0.16004014888E+02  0.00000000000E+00 0.  1.
        -13    1    5    5    0    0 -0.18283879900E+03  0.21864477991E+03  0.11082595512E+03  0.30580706096E+03  0.00000000000E+00 0. -1.
          1    1    6    6  503    0 -0.11632924962E+03 -0.23192528165E+03 -0.56178211352E+03  0.61880608728E+03  0.00000000000E+00 0. -1.
         -1    1    6    6    0  503 -0.12675207561E+02 -0.30846559914E+02 -0.19209540814E+03  0.19496875896E+03  0.00000000000E+00 0.  1.
<mgrwt>
<rscale>  0 0.12705177E+04</rscale>
<asrwt>0</asrwt>
<pdfrwt beam="1">  1        2 0.55596595E-01 0.12705177E+04</pdfrwt>
<pdfrwt beam="2">  1       -2 0.17180135E+00 0.12705177E+04</pdfrwt>
<totfact> 0.18098458E+01</totfact>
</mgrwt>
</event>
<event>
12    3  0.4192740E-008  0.2835680E+04  0.7818608E-02  0.8292276E-01
         -1   -1    0    0    0  501 -0.00000000000E+00  0.00000000000E+00  0.12780251343E+04  0.12780251343E+04  0.00000000000E+00 0.  1.
          1   -1    0    0  501    0  0.00000000000E+00 -0.00000000000E+00 -0.15729506644E+04  0.15729506644E+04  0.00000000000E+00 0. -1.
         23    2    1    2    0    0  0.30550259098E+03  0.37261122213E+03 -0.13221537182E+04  0.14103761004E+04  0.94336281959E+02 0.  0.
        254    2    1    2    0    0 -0.30550259098E+03 -0.37261122213E+03  0.10272281881E+04  0.14405996983E+04  0.88767042562E+03 0.  0.
         23    2    4    4    0    0  0.27855706482E+03 -0.15835440285E+03  0.58008587989E+03  0.66889651116E+03  0.90844698960E+02 0.  0.
         23    2    4    4    0    0 -0.58405965580E+03 -0.21425681928E+03  0.44714230816E+03  0.77170318717E+03  0.92508914126E+02 0.  0.
          3    1    3    3  502    0  0.23097063688E+03  0.23173965564E+03 -0.97380721542E+03  0.10273028745E+04  0.00000000000E+00 0. -1.
         -3    1    3    3    0  502  0.74531954096E+02  0.14087156649E+03 -0.34834650277E+03  0.38307322593E+03  0.00000000000E+00 0.  1.
         13    1    5    5    0    0  0.36806365236E+02 -0.37342773509E+02  0.43792372475E+02  0.68315175051E+02  0.00000000000E+00 0. -1.
        -13    1    5    5    0    0  0.24175069958E+03 -0.12101162934E+03  0.53629350741E+03  0.60058133611E+03  0.00000000000E+00 0.  1.
          3    1    6    6  503    0 -0.11578171925E+03 -0.55550219661E+02  0.51130651577E+02  0.13822292483E+03  0.00000000000E+00 0. -1.
         -3    1    6    6    0  503 -0.46827793654E+03 -0.15870659962E+03  0.39601165659E+03  0.63348026233E+03  0.00000000000E+00 0.  1.
<mgrwt>
<rscale>  0 0.28356802E+04</rscale>
<asrwt>0</asrwt>
<pdfrwt beam="1">  1        1 0.24199241E+00 0.28356802E+04</pdfrwt>
<pdfrwt beam="2">  1       -1 0.19661925E+00 0.28356802E+04</pdfrwt>
<totfact> 0.79854777E-01</totfact>
</mgrwt>
</event>
<event>
12    3  0.4192740E-008  0.1535982E+04  0.7818608E-02  0.8860872E-01
         -1   -1    0    0    0  501 -0.00000000000E+00  0.00000000000E+00  0.49536008498E+03  0.49536008498E+03  0.00000000000E+00 0.  1.
          1   -1    0    0  501    0  0.00000000000E+00 -0.00000000000E+00 -0.11906698762E+04  0.11906698762E+04  0.00000000000E+00 0. -1.
         23    2    1    2    0    0 -0.17475927811E+03 -0.32231862419E+03 -0.63093172786E+03  0.73530383476E+03  0.90370257300E+02 0.  0.
        254    2    1    2    0    0  0.17475927811E+03  0.32231862419E+03 -0.64378063363E+02  0.95072612642E+03  0.87481742760E+03 0.  0.
         23    2    4    4    0    0 -0.11291186053E+03  0.49813740862E+03  0.15166635627E+03  0.54025776847E+03  0.89363340673E+02 0.  0.
         23    2    4    4    0    0  0.28767113864E+03 -0.17581878444E+03 -0.21604441963E+03  0.41046835794E+03  0.90233877515E+02 0.  0.
          2    1    3    3  502    0 -0.18505450646E+03 -0.29300142826E+03 -0.57932013593E+03  0.67506061003E+03  0.00000000000E+00 0. -1.
         -2    1    3    3    0  502  0.10295228347E+02 -0.29317195927E+02 -0.51611591939E+02  0.60243224733E+02  0.00000000000E+00 0.  1.
         13    1    5    5    0    0 -0.56182387252E+02  0.14773236840E+03  0.11008423731E+02  0.15843768082E+03  0.00000000000E+00 0. -1.
        -13    1    5    5    0    0 -0.56729473279E+02  0.35040504023E+03  0.14065793253E+03  0.38182008766E+03  0.00000000000E+00 0.  1.
          2    1    6    6  503    0  0.21019958166E+02 -0.39046528021E+02 -0.65599286634E+01  0.44827476572E+02  0.00000000000E+00 0. -1.
         -2    1    6    6    0  503  0.26665118048E+03 -0.13677225642E+03 -0.20948449097E+03  0.36564088137E+03  0.00000000000E+00 0.  1.
<mgrwt>
<rscale>  0 0.15359822E+04</rscale>
<asrwt>0</asrwt>
<pdfrwt beam="1">  1        1 0.18317998E+00 0.15359822E+04</pdfrwt>
<pdfrwt beam="2">  1       -1 0.76209244E-01 0.15359822E+04</pdfrwt>
<totfact> 0.18103302E+01</totfact>
</mgrwt>
</event>
<event>
12    3  0.4192740E-008  0.1473294E+04  0.7818608E-02  0.8902409E-01
         -2   -1    0    0    0  501 -0.00000000000E+00  0.00000000000E+00  0.49087534207E+03  0.49087534207E+03  0.00000000000E+00 0.  1.
          2   -1    0    0  501    0  0.00000000000E+00 -0.00000000000E+00 -0.11054716961E+04  0.11054716961E+04  0.00000000000E+00 0. -1.
         23    2    1    2    0    0 -0.20707189646E+03 -0.29705175424E+03 -0.51798137759E+03  0.63866577487E+03  0.92036674504E+02 0.  0.
        254    2    1    2    0    0  0.20707189646E+03  0.29705175424E+03 -0.96614976450E+02  0.95768126332E+03  0.88130609520E+03 0.  0.
         23    2    4    4    0    0  0.19414511852E+03  0.59751039147E+03 -0.10653461136E+03  0.64372714883E+03  0.91236088055E+02 0.  0.
         23    2    4    4    0    0  0.12926777937E+02 -0.30045863722E+03  0.99196349123E+01  0.31395411449E+03  0.89589578530E+02 0.  0.
          3    1    3    3  502    0 -0.18392077748E+03 -0.19860585572E+03 -0.40384796947E+03  0.48617313866E+03  0.00000000000E+00 0. -1.
         -3    1    3    3    0  502 -0.23151118979E+02 -0.98445898529E+02 -0.11413340812E+03  0.15249263620E+03  0.00000000000E+00 0.  1.
         13    1    5    5    0    0 -0.23305389360E+01  0.81809109089E+02 -0.90071879844E+00  0.81847254298E+02  0.00000000000E+00 0.  1.
        -13    1    5    5    0    0  0.19647565746E+03  0.51570128238E+03 -0.10563389256E+03  0.56187989453E+03  0.00000000000E+00 0. -1.
          1    1    6    6  503    0  0.15459135652E+02 -0.19815601045E+03  0.48498760222E+02  0.20458963585E+03  0.00000000000E+00 0. -1.
         -1    1    6    6    0  503 -0.25323577149E+01 -0.10230262677E+03 -0.38579125310E+02  0.10936447865E+03  0.00000000000E+00 0.  1.
<mgrwt>
<rscale>  0 0.14732940E+04</rscale>
<asrwt>0</asrwt>
<pdfrwt beam="1">  1        2 0.17007257E+00 0.14732940E+04</pdfrwt>
<pdfrwt beam="2">  1       -2 0.75519284E-01 0.14732940E+04</pdfrwt>
<totfact> 0.32915693E+01</totfact>
</mgrwt>
</event>
<event>
12    3  0.4192740E-008  0.2363179E+04  0.7818608E-02  0.8453419E-01
          1   -1    0    0  501    0  0.00000000000E+00  0.00000000000E+00  0.14935146871E+04  0.14935146871E+04  0.00000000000E+00 0. -1.
         -1   -1    0    0    0  501 -0.00000000000E+00 -0.00000000000E+00 -0.93481059750E+03  0.93481059750E+03  0.00000000000E+00 0.  1.
         23    2    1    2    0    0 -0.44274642326E+03  0.13270658162E+03  0.11604590992E+04  0.12524705466E+04  0.91551718200E+02 0.  0.
        254    2    1    2    0    0  0.44274642326E+03 -0.13270658162E+03 -0.60175500954E+03  0.11758547380E+04  0.89827047227E+03 0.  0.
         23    2    4    4    0    0 -0.14178734615E+03 -0.16807872135E+03 -0.52730148123E+03  0.57792386338E+03  0.87149478838E+02 0.  0.
         23    2    4    4    0    0  0.58453376941E+03  0.35372139722E+02 -0.74453528312E+02  0.59793087466E+03  0.95116177087E+02 0.  0.
          3    1    3    3  502    0 -0.31943009524E+03  0.63952283754E+02  0.88251694069E+03  0.94072399297E+03  0.00000000000E+00 0. -1.
         -3    1    3    3    0  502 -0.12331632802E+03  0.68754297870E+02  0.27794215847E+03  0.31174655361E+03  0.00000000000E+00 0.  1.
         13    1    5    5    0    0 -0.96481830532E+02 -0.10740845977E+03 -0.23358233534E+03  0.27460158091E+03  0.00000000000E+00 0. -1.
        -13    1    5    5    0    0 -0.45305515617E+02 -0.60670261578E+02 -0.29371914588E+03  0.30332228247E+03  0.00000000000E+00 0.  1.
          1    1    6    6  503    0  0.43603331527E+03  0.63101215620E+02 -0.74700631270E+02  0.44686351356E+03  0.00000000000E+00 0. -1.
         -1    1    6    6    0  503  0.14850045414E+03 -0.27729075898E+02  0.24710295807E+00  0.15106736110E+03  0.00000000000E+00 0.  1.
<mgrwt>
<rscale>  0 0.23631787E+04</rscale>
<asrwt>0</asrwt>
<pdfrwt beam="1">  1        1 0.22977149E+00 0.23631787E+04</pdfrwt>
<pdfrwt beam="2">  1       -1 0.14381702E+00 0.23631787E+04</pdfrwt>
<totfact> 0.23203464E+00</totfact>
</mgrwt>
</event>
<event>
12    3  0.4192740E-008  0.1517001E+04  0.7818608E-02  0.8873225E-01
          1   -1    0    0  501    0  0.00000000000E+00  0.00000000000E+00  0.21834066068E+04  0.21834066068E+04  0.00000000000E+00 0. -1.
         -1   -1    0    0    0  501 -0.00000000000E+00 -0.00000000000E+00 -0.26349797602E+03  0.26349797602E+03  0.00000000000E+00 0.  1.
         23    2    1    2    0    0 -0.35612679229E+03 -0.30597053869E+03  0.82563432152E+03  0.95424435167E+03  0.92010798712E+02 0.  0.
        254    2    1    2    0    0  0.35612679229E+03  0.30597053869E+03  0.10942743093E+04  0.14926602312E+04  0.90008557319E+03 0.  0.
         23    2    4    4    0    0 -0.89943072007E+02 -0.12698369327E+03 -0.49884413737E+02  0.18745993775E+03  0.91859452247E+02 0.  0.
         23    2    4    4    0    0  0.44606986429E+03  0.43295423196E+03  0.11441587230E+04  0.13052002934E+04  0.89559654547E+02 0.  0.
          3    1    3    3  502    0 -0.26782318019E+03 -0.23598217055E+03  0.69809084019E+03  0.78405845562E+03  0.00000000000E+00 0. -1.
         -3    1    3    3    0  502 -0.88303612091E+02 -0.69988368147E+02  0.12754348133E+03  0.17018589605E+03  0.00000000000E+00 0.  1.
         13    1    5    5    0    0 -0.86229748480E+02 -0.10013666660E+03 -0.16791127641E+01  0.13215801505E+03  0.00000000000E+00 0.  1.
        -13    1    5    5    0    0 -0.37133235274E+01 -0.26847026669E+02 -0.48205300972E+02  0.55301922701E+02  0.00000000000E+00 0. -1.
          4    1    6    6  503    0  0.76775944742E+02  0.34021059559E+02  0.17057965399E+03  0.19012994646E+03  0.00000000000E+00 0. -1.
         -4    1    6    6    0  503  0.36929391955E+03  0.39893317241E+03  0.97357906903E+03  0.11150703470E+04  0.00000000000E+00 0.  1.
<mgrwt>
<rscale>  0 0.15170013E+04</rscale>
<asrwt>0</asrwt>
<pdfrwt beam="1">  1        1 0.33590870E+00 0.15170013E+04</pdfrwt>
<pdfrwt beam="2">  1       -1 0.40538152E-01 0.15170013E+04</pdfrwt>
<totfact> 0.12852602E+01</totfact>
</mgrwt>
</event>
<event>
12    3  0.4192740E-008  0.1880121E+04  0.7818608E-02  0.8664815E-01
          1   -1    0    0  501    0  0.00000000000E+00  0.00000000000E+00  0.26621501433E+04  0.26621501433E+04  0.00000000000E+00 0. -1.
         -1   -1    0    0    0  501 -0.00000000000E+00 -0.00000000000E+00 -0.33195486795E+03  0.33195486795E+03  0.00000000000E+00 0.  1.
         23    2    1    2    0    0 -0.29613568920E+03  0.64365375286E+03  0.83104960767E+03  0.10959010587E+04  0.91483222516E+02 0.  0.
        254    2    1    2    0    0  0.29613568920E+03 -0.64365375286E+03  0.14991456677E+04  0.18982039526E+04  0.92398810204E+03 0.  0.
         23    2    4    4    0    0  0.48743213101E+03 -0.11661526345E+03  0.10726315003E+04  0.11874631243E+04  0.91329808531E+02 0.  0.
         23    2    4    4    0    0 -0.19129644181E+03 -0.52703848941E+03  0.42651416738E+03  0.71074082837E+03  0.94203461533E+02 0.  0.
          3    1    3    3  502    0 -0.10041946315E+03  0.17910180056E+03  0.30152147421E+03  0.36479682421E+03  0.00000000000E+00 0. -1.
         -3    1    3    3    0  502 -0.19571622605E+03  0.46455195230E+03  0.52952813346E+03  0.73110423446E+03  0.00000000000E+00 0.  1.
         13    1    5    5    0    0 -0.26143241438E+01 -0.66824163114E+01  0.13439685013E+02  0.15235304780E+02  0.00000000000E+00 0.  1.
        -13    1    5    5    0    0  0.49004645515E+03 -0.10993284714E+03  0.10591918153E+04  0.11722278195E+04  0.00000000000E+00 0. -1.
          2    1    6    6  503    0 -0.11918224500E+03 -0.43780535563E+03  0.34495709097E+03  0.56997660615E+03  0.00000000000E+00 0. -1.
         -2    1    6    6    0  503 -0.72114196807E+02 -0.89233133778E+02  0.81557076406E+02  0.14076422222E+03  0.00000000000E+00 0.  1.
<mgrwt>
<rscale>  0 0.18801210E+04</rscale>
<asrwt>0</asrwt>
<pdfrwt beam="1">  1        1 0.40956154E+00 0.18801210E+04</pdfrwt>
<pdfrwt beam="2">  1       -1 0.51069982E-01 0.18801210E+04</pdfrwt>
<totfact> 0.37748739E+00</totfact>
</mgrwt>
</event>
<event>
12    3  0.4192740E-008  0.2854655E+04  0.7818608E-02  0.8286498E-01
          1   -1    0    0  501    0  0.00000000000E+00  0.00000000000E+00  0.27652718485E+04  0.27652718485E+04  0.00000000000E+00 0. -1.
         -1   -1    0    0    0  501 -0.00000000000E+00 -0.00000000000E+00 -0.73673199578E+03  0.73673199578E+03  0.00000000000E+00 0.  1.
         23    2    1    2    0    0 -0.61106879131E+03  0.90630178020E+03  0.89187684441E+02  0.11001469674E+04  0.87068492552E+02 0.  0.
        254    2    1    2    0    0  0.61106879131E+03 -0.90630178020E+03  0.19393521683E+04  0.24018568768E+04  0.90168821643E+03 0.  0.
         23    2    4    4    0    0  0.29595713945E+03  0.26546873182E+01  0.10282629063E+04  0.10736330193E+04  0.88122527861E+02 0.  0.
         23    2    4    4    0    0  0.31511165186E+03 -0.90895646752E+03  0.91108926197E+03  0.13282238575E+04  0.92724103692E+02 0.  0.
          1    1    3    3  502    0 -0.54597071400E+03  0.80610820805E+03  0.10653413126E+03  0.97941001872E+03  0.00000000000E+00 0. -1.
         -1    1    3    3    0  502 -0.65098077311E+02  0.10019357215E+03 -0.17346446821E+02  0.12073694872E+03  0.00000000000E+00 0.  1.
         13    1    5    5    0    0  0.83572405230E+01  0.98496652734E+01  0.12727208459E+02  0.18133979439E+02  0.00000000000E+00 0.  1.
        -13    1    5    5    0    0  0.28759989893E+03 -0.71949779552E+01  0.10155356978E+04  0.10554990399E+04  0.00000000000E+00 0. -1.
          1    1    6    6  503    0  0.27677533739E+03 -0.82532841861E+03  0.85668964075E+03  0.12213470950E+04  0.00000000000E+00 0. -1.
         -1    1    6    6    0  503  0.38336314468E+02 -0.83628048916E+02  0.54399621226E+02  0.10687676250E+03  0.00000000000E+00 0.  1.
<mgrwt>
<rscale>  0 0.28546553E+04</rscale>
<asrwt>0</asrwt>
<pdfrwt beam="1">  1        1 0.42542643E+00 0.28546553E+04</pdfrwt>
<pdfrwt beam="2">  1       -1 0.11334339E+00 0.28546553E+04</pdfrwt>
<totfact> 0.53996860E-01</totfact>
</mgrwt>
</event>
<event>
12    3  0.4192740E-008  0.1283905E+04  0.7818608E-02  0.9042427E-01
         -1   -1    0    0    0  501 -0.00000000000E+00  0.00000000000E+00  0.38438738399E+03  0.38438738399E+03  0.00000000000E+00 0.  1.
          1   -1    0    0  501    0  0.00000000000E+00 -0.00000000000E+00 -0.10721041312E+04  0.10721041312E+04  0.00000000000E+00 0. -1.
         23    2    1    2    0    0 -0.30292267308E+03  0.11961707237E+03 -0.20310839545E+03  0.39611565259E+03  0.97898927746E+02 0.  0.
        254    2    1    2    0    0  0.30292267308E+03 -0.11961707237E+03 -0.48460835179E+03  0.10603758626E+04  0.88514480485E+03 0.  0.
         23    2    4    4    0    0 -0.29346518753E+03  0.52323575110E+02 -0.21235467204E+03  0.37647265116E+03  0.88190575051E+02 0.  0.
         23    2    4    4    0    0  0.59638786061E+03 -0.17194064748E+03 -0.27225367975E+03  0.68390321147E+03  0.91430137213E+02 0.  0.
          1    1    3    3  502    0 -0.15651694396E+03  0.79291744224E+02 -0.16196473945E+03  0.23878297945E+03  0.00000000000E+00 0. -1.
         -1    1    3    3    0  502 -0.14640572912E+03  0.40325328142E+02 -0.41143656007E+02  0.15733267314E+03  0.00000000000E+00 0.  1.
         13    1    5    5    0    0 -0.26729644269E+03  0.56696821793E+02 -0.15711975209E+03  0.31519602531E+03  0.00000000000E+00 0.  1.
        -13    1    5    5    0    0 -0.26168744841E+02 -0.43732466838E+01 -0.55234919949E+02  0.61276625844E+02  0.00000000000E+00 0. -1.
          1    1    6    6  503    0 -0.18991543477E+01  0.12583530866E+01  0.22875159094E+01  0.32284622907E+01  0.00000000000E+00 0. -1.
         -1    1    6    6    0  503  0.59828701496E+03 -0.17319900056E+03 -0.27454119566E+03  0.68067474918E+03  0.00000000000E+00 0.  1.
<mgrwt>
<rscale>  0 0.12839055E+04</rscale>
<asrwt>0</asrwt>
<pdfrwt beam="1">  1        1 0.16493910E+00 0.12839055E+04</pdfrwt>
<pdfrwt beam="2">  1       -1 0.59136520E-01 0.12839055E+04</pdfrwt>
<totfact> 0.37952194E+01</totfact>
</mgrwt>
</event>
<event>
12    3  0.6569072E-008  0.1957096E+04  0.7818608E-02  0.8626947E-01
         -1   -1    0    0    0  501 -0.00000000000E+00  0.00000000000E+00  0.99172456921E+03  0.99172456921E+03  0.00000000000E+00 0.  1.
          1   -1    0    0  501    0  0.00000000000E+00 -0.00000000000E+00 -0.96554633457E+03  0.96554633457E+03  0.00000000000E+00 0. -1.
         23    2    1    2    0    0  0.47692128829E+03  0.10587348321E+03 -0.48601234468E+03  0.69499693382E+03  0.90275296519E+02 0.  0.
        254    2    1    2    0    0 -0.47692128829E+03 -0.10587348321E+03  0.51219057933E+03  0.12622739700E+04  0.10451474901E+04 0.  0.
         23    2    4    4    0    0  0.24013918889E+03 -0.19413489521E+03 -0.71636067146E+02  0.32885877411E+03  0.87528164709E+02 0.  0.
         23    2    4    4    0    0 -0.71706047719E+03  0.88261411994E+02  0.58382664648E+03  0.93341519585E+03  0.91894341030E+02 0.  0.
          3    1    3    3  502    0  0.45745376645E+03  0.10900311435E+03 -0.48454410564E+03  0.67522486454E+03  0.00000000000E+00 0. -1.
         -3    1    3    3    0  502  0.19467521848E+02 -0.31296311418E+01 -0.14682390415E+01  0.19772069287E+02  0.00000000000E+00 0.  1.
         13    1    5    5    0    0  0.20347821977E+03 -0.14312076011E+03 -0.88110469139E+02  0.26391360834E+03  0.00000000000E+00 0.  1.
        -13    1    5    5    0    0  0.36660969125E+02 -0.51014135092E+02  0.16474401994E+02  0.64945165774E+02  0.00000000000E+00 0. -1.
          2    1    6    6  503    0 -0.68601516972E+03  0.82059244297E+02  0.57890207995E+03  0.90137569904E+03  0.00000000000E+00 0.  1.
         -2    1    6    6    0  503 -0.31045307467E+02  0.62021676973E+01  0.49245665273E+01  0.32039496803E+02  0.00000000000E+00 0. -1.
<mgrwt>
<rscale>  0 0.19570958E+04</rscale>
<asrwt>0</asrwt>
<pdfrwt beam="1">  1        1 0.14854559E+00 0.19570958E+04</pdfrwt>
<pdfrwt beam="2">  1       -1 0.15257301E+00 0.19570958E+04</pdfrwt>
<totfact> 0.49973440E+00</totfact>
</mgrwt>
</event>
<event>
12    3  0.4192740E-008  0.2340894E+04  0.7818608E-02  0.8461969E-01
          2   -1    0    0  501    0  0.00000000000E+00  0.00000000000E+00  0.27813275476E+04  0.27813275476E+04  0.00000000000E+00 0. -1.
         -2   -1    0    0    0  501 -0.00000000000E+00 -0.00000000000E+00 -0.49255121994E+03  0.49255121994E+03  0.00000000000E+00 0.  1.
         23    2    1    2    0    0  0.19093004643E+03  0.15716922297E+03 -0.37038984409E+03  0.45446145486E+03  0.90499337388E+02 0.  0.
        254    2    1    2    0    0 -0.19093004643E+03 -0.15716922297E+03  0.26591661718E+04  0.28194173127E+04  0.90376590267E+03 0.  0.
         23    2    4    4    0    0 -0.49405849700E+03 -0.20751604452E+03  0.21512037729E+04  0.22188270457E+04  0.91427999858E+02 0.  0.
         23    2    4    4    0    0  0.30312845056E+03  0.50346821559E+02  0.50796239890E+03  0.60059026700E+03  0.90891199459E+02 0.  0.
          1    1    3    3  502    0  0.94147030298E+02  0.58441844738E+02 -0.93550974809E+02  0.14502033450E+03  0.00000000000E+00 0. -1.
         -1    1    3    3    0  502  0.96783016132E+02  0.98727378227E+02 -0.27683886928E+03  0.30944112036E+03  0.00000000000E+00 0.  1.
         13    1    5    5    0    0 -0.76521244318E+02 -0.62567506697E+02  0.48718460330E+03  0.49711068326E+03  0.00000000000E+00 0. -1.
        -13    1    5    5    0    0 -0.41753725268E+03 -0.14494853783E+03  0.16640191696E+04  0.17217163624E+04  0.00000000000E+00 0.  1.
          3    1    6    6  503    0  0.94910967915E+02  0.56566010248E+02  0.14793020810E+03  0.18463789377E+03  0.00000000000E+00 0. -1.
         -3    1    6    6    0  503  0.20821748265E+03 -0.62191886892E+01  0.36003219079E+03  0.41595237323E+03  0.00000000000E+00 0.  1.
<mgrwt>
<rscale>  0 0.23408941E+04</rscale>
<asrwt>0</asrwt>
<pdfrwt beam="1">  1        2 0.42789653E+00 0.23408941E+04</pdfrwt>
<pdfrwt beam="2">  1       -2 0.75777113E-01 0.23408941E+04</pdfrwt>
<totfact> 0.33476275E+00</totfact>
</mgrwt>
</event>
<event>
12    3  0.4192740E-008  0.2164205E+04  0.7818608E-02  0.8533476E-01
         -2   -1    0    0    0  501 -0.00000000000E+00  0.00000000000E+00  0.33381473797E+03  0.33381473797E+03  0.00000000000E+00 0.  1.
          2   -1    0    0  501    0  0.00000000000E+00 -0.00000000000E+00 -0.35077717829E+04  0.35077717829E+04  0.00000000000E+00 0. -1.
         23    2    1    2    0    0 -0.82114104488E+03 -0.24483674924E+03 -0.13389332252E+04  0.15921680191E+04  0.89661419771E+02 0.  0.
        254    2    1    2    0    0  0.82114104488E+03  0.24483674924E+03 -0.18350238197E+04  0.22494185017E+04  0.97895532466E+03 0.  0.
         23    2    4    4    0    0 -0.10544946703E+03 -0.42914000652E+02 -0.85436329155E+03  0.86667509410E+03  0.90707680194E+02 0.  0.
         23    2    4    4    0    0  0.92659051191E+03  0.28775074989E+03 -0.98066052813E+03  0.13827434076E+04  0.94412864730E+02 0.  0.
          1    1    3    3  502    0 -0.38880927218E+03 -0.16111094483E+03 -0.67572166765E+03  0.79607107648E+03  0.00000000000E+00 0. -1.
         -1    1    3    3    0  502 -0.43233177270E+03 -0.83725804409E+02 -0.66321155756E+03  0.79609694265E+03  0.00000000000E+00 0.  1.
         13    1    5    5    0    0 -0.58752677556E+02 -0.57720780087E+02 -0.33376570121E+03  0.34377770271E+03  0.00000000000E+00 0. -1.
        -13    1    5    5    0    0 -0.46696789472E+02  0.14806779436E+02 -0.52059759034E+03  0.52289739139E+03  0.00000000000E+00 0.  1.
          1    1    6    6  503    0  0.47792794172E+03  0.13745707501E+03 -0.43714470371E+03  0.66212163303E+03  0.00000000000E+00 0. -1.
         -1    1    6    6    0  503  0.44866257019E+03  0.15029367488E+03 -0.54351582442E+03  0.72062177457E+03  0.00000000000E+00 0.  1.
<mgrwt>
<rscale>  0 0.21642051E+04</rscale>
<asrwt>0</asrwt>
<pdfrwt beam="1">  1        2 0.53965724E+00 0.21642051E+04</pdfrwt>
<pdfrwt beam="2">  1       -2 0.51356109E-01 0.21642051E+04</pdfrwt>
<totfact> 0.26469404E+00</totfact>
</mgrwt>
</event>
<event>
12    3  0.4192740E-008  0.1541470E+04  0.7818608E-02  0.8857335E-01
         -1   -1    0    0    0  501 -0.00000000000E+00  0.00000000000E+00  0.85154233216E+03  0.85154233216E+03  0.00000000000E+00 0.  1.
          1   -1    0    0  501    0  0.00000000000E+00 -0.00000000000E+00 -0.69759564021E+03  0.69759564021E+03  0.00000000000E+00 0. -1.
         23    2    1    2    0    0 -0.95571142896E+02 -0.41450204165E+02  0.54782662132E+03  0.56512016716E+03  0.91623324128E+02 0.  0.
        254    2    1    2    0    0  0.95571142896E+02  0.41450204165E+02 -0.39387992937E+03  0.98401780521E+03  0.89571071191E+03 0.  0.
         23    2    4    4    0    0 -0.26618465736E+03 -0.34838785398E+02  0.14963030181E+03  0.32037608981E+03  0.90463246269E+02 0.  0.
         23    2    4    4    0    0  0.36175580025E+03  0.76288989563E+02 -0.54351023118E+03  0.66364171540E+03  0.91267113876E+02 0.  0.
          1    1    3    3  502    0 -0.21566403595E+01  0.85203237525E+01  0.18775331683E+01  0.89873324900E+01  0.00000000000E+00 0. -1.
         -1    1    3    3    0  502 -0.93414502537E+02 -0.49970527918E+02  0.54594908815E+03  0.55613283467E+03  0.00000000000E+00 0.  1.
         13    1    5    5    0    0 -0.20899945218E+03 -0.46879964606E+02  0.15075404940E+03  0.26192610695E+03  0.00000000000E+00 0. -1.
        -13    1    5    5    0    0 -0.57185205174E+02  0.12041179208E+02 -0.11237475933E+01  0.58449982859E+02  0.00000000000E+00 0.  1.
          3    1    6    6  503    0  0.24640182991E+03  0.94184378152E+02 -0.38852436825E+03  0.46961233331E+03  0.00000000000E+00 0. -1.
         -3    1    6    6    0  503  0.11535397034E+03 -0.17895388589E+02 -0.15498586293E+03  0.19402938209E+03  0.00000000000E+00 0.  1.
<mgrwt>
<rscale>  0 0.15414697E+04</rscale>
<asrwt>0</asrwt>
<pdfrwt beam="1">  1        1 0.10732241E+00 0.15414697E+04</pdfrwt>
<pdfrwt beam="2">  1       -1 0.13100651E+00 0.15414697E+04</pdfrwt>
<totfact> 0.13134726E+01</totfact>
</mgrwt>
</event>
<event>
12    3  0.4192740E-008  0.2107201E+04  0.7818608E-02  0.8558078E-01
         -2   -1    0    0    0  501 -0.00000000000E+00  0.00000000000E+00  0.65892841567E+03  0.65892841567E+03  0.00000000000E+00 0.  1.
          2   -1    0    0  501    0  0.00000000000E+00 -0.00000000000E+00 -0.16846649965E+04  0.16846649965E+04  0.00000000000E+00 0. -1.
         23    2    1    2    0    0  0.88686273926E+02  0.52279917790E+03 -0.11709533118E+04  0.12884608377E+04  0.88404955744E+02 0.  0.
        254    2    1    2    0    0 -0.88686273926E+02 -0.52279917790E+03  0.14521673095E+03  0.10551325745E+04  0.90057349244E+03 0.  0.
         23    2    4    4    0    0  0.18602276183E+03  0.18650584649E+03  0.40852726482E+02  0.28187048396E+03  0.91614004213E+02 0.  0.
         23    2    4    4    0    0 -0.27470903576E+03 -0.70930502439E+03  0.10436400447E+03  0.77326209057E+03  0.91998605077E+02 0.  0.
          2    1    3    3  502    0  0.10601969579E+03  0.47507909558E+03 -0.10654638517E+04  0.11713895774E+04  0.00000000000E+00 0. -1.
         -2    1    3    3    0  502 -0.17333421866E+02  0.47720082321E+02 -0.10548946015E+03  0.11707126024E+03  0.00000000000E+00 0.  1.
         13    1    5    5    0    0  0.20046352623E+01 -0.34567301763E+01  0.15698724140E+02  0.16199305098E+02  0.00000000000E+00 0. -1.
        -13    1    5    5    0    0  0.18401812657E+03  0.18996257667E+03  0.25154002342E+02  0.26567117886E+03  0.00000000000E+00 0.  1.
          1    1    6    6  503    0 -0.79160757660E+02 -0.33028744537E+03  0.50908951236E+02  0.34343550113E+03  0.00000000000E+00 0. -1.
         -1    1    6    6    0  503 -0.19554827810E+03 -0.37901757902E+03  0.53455053231E+02  0.42982658944E+03  0.00000000000E+00 0.  1.
<mgrwt>
<rscale>  0 0.21072006E+04</rscale>
<asrwt>0</asrwt>
<pdfrwt beam="1">  1        2 0.25917923E+00 0.21072006E+04</pdfrwt>
<pdfrwt beam="2">  1       -2 0.10137360E+00 0.21072006E+04</pdfrwt>
<totfact> 0.73661328E+00</totfact>
</mgrwt>
</event>
<event>
12    3  0.4192740E-008  0.1366706E+04  0.7818608E-02  0.8978278E-01
          2   -1    0    0  501    0  0.00000000000E+00  0.00000000000E+00  0.47536509443E+03  0.47536509443E+03  0.00000000000E+00 0.  1.
         -2   -1    0    0    0  501 -0.00000000000E+00 -0.00000000000E+00 -0.98234185130E+03  0.98234185130E+03  0.00000000000E+00 0. -1.
         23    2    1    2    0    0  0.92817554555E+01  0.57935939541E+02  0.25333148077E+03  0.27535327150E+03  0.90553083324E+02 0.  0.
        254    2    1    2    0    0 -0.92817554555E+01 -0.57935939541E+02 -0.76030823764E+03  0.11823536742E+04  0.90357560318E+03 0.  0.
         23    2    4    4    0    0  0.19743909761E+03 -0.13107874389E+03 -0.88002130971E+03  0.91612470032E+03  0.93183295944E+02 0.  0.
         23    2    4    4    0    0 -0.20672085306E+03  0.73142804351E+02  0.11971307207E+03  0.26622897390E+03  0.91996010802E+02 0.  0.
          3    1    3    3  502    0  0.38405017334E+02 -0.41947988168E+01  0.77187849702E+02  0.86316312683E+02  0.00000000000E+00 0. -1.
         -3    1    3    3    0  502 -0.29123261879E+02  0.62130738358E+02  0.17614363107E+03  0.18903695882E+03  0.00000000000E+00 0.  1.
         13    1    5    5    0    0  0.31594121082E+02 -0.24048023781E+02 -0.55086607964E+02  0.67904567679E+02  0.00000000000E+00 0. -1.
        -13    1    5    5    0    0  0.16584497653E+03 -0.10703072011E+03 -0.82493470174E+03  0.84822013264E+03  0.00000000000E+00 0.  1.
          2    1    6    6  503    0 -0.85250992316E+02  0.50937553155E+01  0.45211185037E+01  0.85522620087E+02  0.00000000000E+00 0. -1.
         -2    1    6    6    0  503 -0.12146986075E+03  0.68049049035E+02  0.11519195356E+03  0.18070635382E+03  0.00000000000E+00 0.  1.
<mgrwt>
<rscale>  0 0.13667056E+04</rscale>
<asrwt>0</asrwt>
<pdfrwt beam="1">  1        2 0.73133093E-01 0.13667056E+04</pdfrwt>
<pdfrwt beam="2">  1       -2 0.15112951E+00 0.13667056E+04</pdfrwt>
<totfact> 0.18692783E+01</totfact>
</mgrwt>
</event>
<event>
12    3  0.4192740E-008  0.2855762E+04  0.7818608E-02  0.8286163E-01
          2   -1    0    0  501    0  0.00000000000E+00  0.00000000000E+00  0.24693436681E+04  0.24693436681E+04  0.00000000000E+00 0. -1.
         -2   -1    0    0    0  501 -0.00000000000E+00 -0.00000000000E+00 -0.82566243499E+03  0.82566243499E+03  0.00000000000E+00 0.  1.
         23    2    1    2    0    0  0.10061488463E+03  0.88449688917E+03  0.18101388016E+04  0.20191553321E+04  0.89037476401E+02 0.  0.
        254    2    1    2    0    0 -0.10061488463E+03 -0.88449688917E+03 -0.16645756852E+03  0.12758507709E+04  0.89868179332E+03 0.  0.
         23    2    4    4    0    0  0.16816085119E+03 -0.43133409575E+03  0.30591695170E+03  0.56234672558E+03  0.91222170582E+02 0.  0.
         23    2    4    4    0    0 -0.26877573581E+03 -0.45316279343E+03 -0.47237452022E+03  0.71350404537E+03  0.91397056299E+02 0.  0.
          2    1    3    3  502    0  0.10652115056E+03  0.71931318287E+03  0.15271025034E+04  0.16913900397E+04  0.00000000000E+00 0. -1.
         -2    1    3    3    0  502 -0.59062659310E+01  0.16518370630E+03  0.28303629823E+03  0.32776529242E+03  0.00000000000E+00 0.  1.
         13    1    5    5    0    0  0.32240841273E+02 -0.20736028188E+03  0.13830944863E+03  0.25133098083E+03  0.00000000000E+00 0. -1.
        -13    1    5    5    0    0  0.13592000991E+03 -0.22397381387E+03  0.16760750307E+03  0.31101574474E+03  0.00000000000E+00 0.  1.
          3    1    6    6  503    0 -0.25454759270E+03 -0.45098925244E+03 -0.44595872063E+03  0.68342151215E+03  0.00000000000E+00 0. -1.
         -3    1    6    6    0  503 -0.14228143109E+02 -0.21735409847E+01 -0.26415799592E+02  0.30082533218E+02  0.00000000000E+00 0.  1.
<mgrwt>
<rscale>  0 0.28557621E+04</rscale>
<asrwt>0</asrwt>
<pdfrwt beam="1">  1        2 0.37989902E+00 0.28557621E+04</pdfrwt>
<pdfrwt beam="2">  1       -2 0.12702499E+00 0.28557621E+04</pdfrwt>
<totfact> 0.14461157E+00</totfact>
</mgrwt>
</event>
<event>
12    3  0.4192740E-008  0.1884611E+04  0.7818608E-02  0.8662555E-01
         -1   -1    0    0    0  501 -0.00000000000E+00  0.00000000000E+00  0.47465391697E+03  0.47465391697E+03  0.00000000000E+00 0.  1.
          1   -1    0    0  501    0  0.00000000000E+00 -0.00000000000E+00 -0.18707087467E+04  0.18707087467E+04  0.00000000000E+00 0. -1.
         23    2    1    2    0    0  0.35115582538E+03  0.55265137407E+03 -0.14490396047E+03  0.67695626046E+03  0.92404901735E+02 0.  0.
        254    2    1    2    0    0 -0.35115582538E+03 -0.55265137407E+03 -0.12511508693E+04  0.16684064032E+04  0.88851982178E+03 0.  0.
         23    2    4    4    0    0  0.65051237260E+02  0.14380121868E+03 -0.59063002552E+03  0.61815107119E+03  0.91413706850E+02 0.  0.
         23    2    4    4    0    0 -0.41620706264E+03 -0.69645259275E+03 -0.66052084377E+03  0.10502553321E+04  0.92054030420E+02 0.  0.
          4    1    3    3  502    0 -0.75964561005E+00 -0.32404242046E+01 -0.10721401492E+01  0.34966977247E+01  0.00000000000E+00 0.  1.
         -4    1    3    3    0  502  0.35191547099E+03  0.55589179827E+03 -0.14383182032E+03  0.67345956274E+03  0.00000000000E+00 0. -1.
         13    1    5    5    0    0  0.20901348092E+02 -0.32838967652E+01 -0.28959672032E+02  0.35865205063E+02  0.00000000000E+00 0.  1.
        -13    1    5    5    0    0  0.44149889168E+02  0.14708511545E+03 -0.56167035349E+03  0.58228586613E+03  0.00000000000E+00 0. -1.
          2    1    6    6  503    0 -0.34933392900E+03 -0.52338210723E+03 -0.53818563577E+03  0.82801376962E+03  0.00000000000E+00 0. -1.
         -2    1    6    6    0  503 -0.66873133643E+02 -0.17307048551E+03 -0.12233520800E+03  0.22224156244E+03  0.00000000000E+00 0.  1.
<mgrwt>
<rscale>  0 0.18846106E+04</rscale>
<asrwt>0</asrwt>
<pdfrwt beam="1">  1        1 0.28780135E+00 0.18846106E+04</pdfrwt>
<pdfrwt beam="2">  1       -1 0.73023679E-01 0.18846106E+04</pdfrwt>
<totfact> 0.64591176E+00</totfact>
</mgrwt>
</event>
<event>
12    3  0.4192740E-008  0.1147870E+04  0.7818608E-02  0.9159751E-01
          2   -1    0    0  501    0  0.00000000000E+00  0.00000000000E+00  0.17873193176E+04  0.17873193176E+04  0.00000000000E+00 0. -1.
         -2   -1    0    0    0  501 -0.00000000000E+00 -0.00000000000E+00 -0.18429909533E+03  0.18429909533E+03  0.00000000000E+00 0.  1.
         23    2    1    2    0    0  0.10689310649E+03 -0.60339866599E+02  0.37086250901E+02  0.15918876217E+03  0.94332583333E+02 0.  0.
        254    2    1    2    0    0 -0.10689310649E+03  0.60339866599E+02  0.15659339713E+04  0.18124296507E+04  0.90425936575E+03 0.  0.
         23    2    4    4    0    0  0.11420666092E+03 -0.27334220488E+03  0.16627270713E+03  0.35355792245E+03  0.97966673026E+02 0.  0.
         23    2    4    4    0    0 -0.22109976742E+03  0.33368207148E+03  0.13996612642E+04  0.14588717283E+04  0.95006489587E+02 0.  0.
          4    1    3    3  502    0  0.11511163067E+03 -0.74920184500E+02  0.37749423419E+02  0.14243855001E+03  0.00000000000E+00 0. -1.
         -4    1    3    3    0  502 -0.82185241728E+01  0.14580317901E+02 -0.66317251780E+00  0.16750212161E+02  0.00000000000E+00 0.  1.
         13    1    5    5    0    0  0.78092535101E+02 -0.12829497142E+03  0.34074319500E+02  0.15401007428E+03  0.00000000000E+00 0. -1.
        -13    1    5    5    0    0  0.36114125821E+02 -0.14504723346E+03  0.13219838763E+03  0.19954784817E+03  0.00000000000E+00 0.  1.
          3    1    6    6  503    0 -0.10195833160E+03  0.15080016264E+03  0.47217206371E+03  0.50604609294E+03  0.00000000000E+00 0. -1.
         -3    1    6    6    0  503 -0.11914143582E+03  0.18288190884E+03  0.92748920051E+03  0.95282563535E+03  0.00000000000E+00 0.  1.
<mgrwt>
<rscale>  0 0.11478699E+04</rscale>
<asrwt>0</asrwt>
<pdfrwt beam="1">  1        2 0.27497219E+00 0.11478699E+04</pdfrwt>
<pdfrwt beam="2">  1       -2 0.28353708E-01 0.11478699E+04</pdfrwt>
<totfact> 0.98914727E+01</totfact>
</mgrwt>
</event>
<event>
12    3  0.4192740E-008  0.2014109E+04  0.7818608E-02  0.8600053E-01
          1   -1    0    0  501    0  0.00000000000E+00  0.00000000000E+00  0.84227611638E+03  0.84227611638E+03  0.00000000000E+00 0. -1.
         -1   -1    0    0    0  501 -0.00000000000E+00 -0.00000000000E+00 -0.12040691570E+04  0.12040691570E+04  0.00000000000E+00 0.  1.
         23    2    1    2    0    0  0.31467299471E+00  0.55235334012E+03 -0.72223186188E+03  0.91366933236E+03  0.89880338343E+02 0.  0.
        254    2    1    2    0    0 -0.31467299471E+00 -0.55235334012E+03  0.36043882129E+03  0.11326759410E+04  0.92083892839E+03 0.  0.
         23    2    4    4    0    0 -0.18598983092E+03 -0.74427028233E+03  0.35416943407E+03  0.84975101841E+03  0.90057397783E+02 0.  0.
         23    2    4    4    0    0  0.18567515793E+03  0.19191694220E+03  0.62693872259E+01  0.28292492259E+03  0.93272877231E+02 0.  0.
          3    1    3    3  502    0  0.36294100318E+02  0.39782361766E+03 -0.54606657391E+03  0.67658672439E+03  0.00000000000E+00 0.  1.
         -3    1    3    3    0  502 -0.35979427324E+02  0.15452972246E+03 -0.17616528797E+03  0.23708260797E+03  0.00000000000E+00 0. -1.
         13    1    5    5    0    0  0.46739519577E+01 -0.12702321881E+02 -0.26143012677E+01  0.13785114407E+02  0.00000000000E+00 0.  1.
        -13    1    5    5    0    0 -0.19066378288E+03 -0.73156796045E+03  0.35678373534E+03  0.83596590400E+03  0.00000000000E+00 0. -1.
          3    1    6    6  503    0  0.19306043614E+03  0.17425182699E+03 -0.60812074848E+01  0.26014037037E+03  0.00000000000E+00 0. -1.
         -3    1    6    6    0  503 -0.73852782140E+01  0.17665115217E+02  0.12350594711E+02  0.22784552215E+02  0.00000000000E+00 0.  1.
<mgrwt>
<rscale>  0 0.20141089E+04</rscale>
<asrwt>0</asrwt>
<pdfrwt beam="1">  1        1 0.12958094E+00 0.20141089E+04</pdfrwt>
<pdfrwt beam="2">  1       -1 0.18524141E+00 0.20141089E+04</pdfrwt>
<totfact> 0.35962656E+00</totfact>
</mgrwt>
</event>
<event>
12    3  0.4192740E-008  0.1491419E+04  0.7818608E-02  0.8890179E-01
         -2   -1    0    0    0  501 -0.00000000000E+00  0.00000000000E+00  0.25171392187E+03  0.25171392187E+03  0.00000000000E+00 0.  1.
          2   -1    0    0  501    0  0.00000000000E+00 -0.00000000000E+00 -0.22091859848E+04  0.22091859848E+04  0.00000000000E+00 0. -1.
         23    2    1    2    0    0  0.25730378736E+03  0.34809211777E+03 -0.95166459015E+03  0.10496046156E+04  0.92903150967E+02 0.  0.
        254    2    1    2    0    0 -0.25730378736E+03 -0.34809211777E+03 -0.10058074728E+04  0.14112952911E+04  0.89035519031E+03 0.  0.
         23    2    4    4    0    0 -0.36800453827E+03 -0.45463241200E+03 -0.26586084982E+03  0.65041529174E+03  0.10119332995E+03 0.  0.
         23    2    4    4    0    0  0.11070075092E+03  0.10654029423E+03 -0.73994662298E+03  0.76087999937E+03  0.88384829189E+02 0.  0.
          2    1    3    3  502    0  0.26565858252E+02  0.10149058970E+03 -0.21629855292E+03  0.24039789645E+03  0.00000000000E+00 0.  1.
         -2    1    3    3    0  502  0.23073792911E+03  0.24660152807E+03 -0.73536603723E+03  0.80920671913E+03  0.00000000000E+00 0. -1.
         13    1    5    5    0    0 -0.24027895667E+03 -0.30828502821E+03 -0.12462176077E+03  0.41024897184E+03  0.00000000000E+00 0. -1.
        -13    1    5    5    0    0 -0.12772558160E+03 -0.14634738379E+03 -0.14123908905E+03  0.24016631990E+03  0.00000000000E+00 0.  1.
          1    1    6    6  503    0  0.47188307681E+02 -0.97332040213E+00 -0.29464355108E+03  0.29839990939E+03  0.00000000000E+00 0. -1.
         -1    1    6    6    0  503  0.63512443235E+02  0.10751361463E+03 -0.44530307191E+03  0.46248008998E+03  0.00000000000E+00 0.  1.
<mgrwt>
<rscale>  0 0.14914193E+04</rscale>
<asrwt>0</asrwt>
<pdfrwt beam="1">  1        2 0.33987477E+00 0.14914193E+04</pdfrwt>
<pdfrwt beam="2">  1       -2 0.38725218E-01 0.14914193E+04</pdfrwt>
<totfact> 0.31120263E+01</totfact>
</mgrwt>
</event>
<event>
12    3  0.4192740E-008  0.1792061E+04  0.7818608E-02  0.8710533E-01
         -1   -1    0    0    0  501 -0.00000000000E+00  0.00000000000E+00  0.28402467048E+03  0.28402467048E+03  0.00000000000E+00 0.  1.
          1   -1    0    0  501    0  0.00000000000E+00 -0.00000000000E+00 -0.28267625753E+04  0.28267625753E+04  0.00000000000E+00 0. -1.
         23    2    1    2    0    0  0.57612131190E+03  0.25651473636E+03 -0.13439540184E+04  0.14873410989E+04  0.90860139106E+02 0.  0.
        254    2    1    2    0    0 -0.57612131190E+03 -0.25651473636E+03 -0.11987838864E+04  0.16234461468E+04  0.89486256458E+03 0.  0.
         23    2    4    4    0    0 -0.75046320055E+03 -0.13795761846E+02 -0.67429778077E+03  0.10130338782E+04  0.90414615619E+02 0.  0.
         23    2    4    4    0    0  0.17434188865E+03 -0.24271897452E+03 -0.52448610560E+03  0.61041226869E+03  0.90608322307E+02 0.  0.
          3    1    3    3  502    0  0.38973810661E+03  0.21894442818E+03 -0.94227025019E+03  0.10429312915E+04  0.00000000000E+00 0. -1.
         -3    1    3    3    0  502  0.18638320529E+03  0.37570308187E+02 -0.40168376825E+03  0.44440980744E+03  0.00000000000E+00 0.  1.
         13    1    5    5    0    0 -0.59619773625E+02  0.64858497881E+01 -0.25797740153E+02  0.65284814862E+02  0.00000000000E+00 0.  1.
        -13    1    5    5    0    0 -0.69084342692E+03 -0.20281611635E+02 -0.64850004061E+03  0.94774906329E+03  0.00000000000E+00 0. -1.
          1    1    6    6  503    0  0.12886412661E+03 -0.10844362501E+03 -0.31958408306E+03  0.36124779456E+03  0.00000000000E+00 0. -1.
         -1    1    6    6    0  503  0.45477762040E+02 -0.13427534951E+03 -0.20490202254E+03  0.24916447412E+03  0.00000000000E+00 0.  1.
<mgrwt>
<rscale>  0 0.17920606E+04</rscale>
<asrwt>0</asrwt>
<pdfrwt beam="1">  1        1 0.43488655E+00 0.17920606E+04</pdfrwt>
<pdfrwt beam="2">  1       -1 0.43696103E-01 0.17920606E+04</pdfrwt>
<totfact> 0.39050322E+00</totfact>
</mgrwt>
</event>
<event>
12    3  0.4192740E-008  0.2901278E+04  0.7818608E-02  0.8272497E-01
          2   -1    0    0  501    0  0.00000000000E+00  0.00000000000E+00  0.11901510911E+04  0.11901510911E+04  0.00000000000E+00 0. -1.
         -2   -1    0    0    0  501 -0.00000000000E+00 -0.00000000000E+00 -0.17681394928E+04  0.17681394928E+04  0.00000000000E+00 0.  1.
         23    2    1    2    0    0 -0.96676488816E+02  0.77702803115E+03  0.81416975955E+03  0.11332530053E+04  0.90945433442E+02 0.  0.
        254    2    1    2    0    0  0.96676488816E+02 -0.77702803115E+03 -0.13921581613E+04  0.18250375786E+04  0.88291500866E+03 0.  0.
         23    2    4    4    0    0 -0.27123206717E+03 -0.19951595132E+02 -0.60248765537E+03  0.66728193838E+03  0.91153222705E+02 0.  0.
         23    2    4    4    0    0  0.36790855599E+03 -0.75707643602E+03 -0.78967050592E+03  0.11577556402E+04  0.91088851988E+02 0.  0.
          3    1    3    3  502    0 -0.92241807551E+02  0.74908606334E+03  0.80508162707E+03  0.11035374518E+04  0.00000000000E+00 0. -1.
         -3    1    3    3    0  502 -0.44346812651E+01  0.27941967812E+02  0.90881324795E+01  0.29715553421E+02  0.00000000000E+00 0.  1.
         13    1    5    5    0    0 -0.14121852570E+03  0.35275016727E+02 -0.30184896029E+03  0.33511161370E+03  0.00000000000E+00 0.  1.
        -13    1    5    5    0    0 -0.13001354147E+03 -0.55226611860E+02 -0.30063869508E+03  0.33217032468E+03  0.00000000000E+00 0. -1.
          2    1    6    6  503    0  0.94556941858E+02 -0.17387884308E+03 -0.13645450564E+03  0.24040528163E+03  0.00000000000E+00 0. -1.
         -2    1    6    6    0  503  0.27335161413E+03 -0.58319759294E+03 -0.65321600028E+03  0.91735035858E+03  0.00000000000E+00 0.  1.
<mgrwt>
<rscale>  0 0.29012778E+04</rscale>
<asrwt>0</asrwt>
<pdfrwt beam="1">  1        2 0.18310017E+00 0.29012778E+04</pdfrwt>
<pdfrwt beam="2">  1       -2 0.27202146E+00 0.29012778E+04</pdfrwt>
<totfact> 0.78052804E-01</totfact>
</mgrwt>
</event>
<event>
12    3  0.4192740E-008  0.1181361E+04  0.7818608E-02  0.9129329E-01
          2   -1    0    0  501    0  0.00000000000E+00  0.00000000000E+00  0.23542521390E+04  0.23542521390E+04  0.00000000000E+00 0.  1.
         -2   -1    0    0    0  501 -0.00000000000E+00 -0.00000000000E+00 -0.14820148573E+03  0.14820148573E+03  0.00000000000E+00 0. -1.
         23    2    1    2    0    0 -0.14242050380E+03 -0.44551895281E+00  0.86300491534E+03  0.87989568589E+03  0.95682473680E+02 0.  0.
        254    2    1    2    0    0  0.14242050380E+03  0.44551895281E+00  0.13430457379E+04  0.16225579388E+04  0.89924335544E+03 0.  0.
         23    2    4    4    0    0 -0.21774104863E+03  0.32804495276E+03  0.48138199021E+03  0.62863355903E+03  0.91798016045E+02 0.  0.
         23    2    4    4    0    0  0.36016155243E+03 -0.32759943380E+03  0.86166374770E+03  0.99392437978E+03  0.91561595434E+02 0.  0.
          3    1    3    3  502    0 -0.68562105346E+02 -0.35619235771E+02  0.25606092462E+03  0.26746343556E+03  0.00000000000E+00 0. -1.
         -3    1    3    3    0  502 -0.73858398453E+02  0.35173716819E+02  0.60694399072E+03  0.61243225033E+03  0.00000000000E+00 0.  1.
         13    1    5    5    0    0 -0.18037513372E+03  0.31405072923E+03  0.41159963170E+03  0.54824931027E+03  0.00000000000E+00 0.  1.
        -13    1    5    5    0    0 -0.37365914913E+02  0.13994223525E+02  0.69782358512E+02  0.80384248761E+02  0.00000000000E+00 0. -1.
          4    1    6    6  503    0  0.59954780279E+02 -0.63294298395E+02  0.93330463759E+02  0.12771577566E+03  0.00000000000E+00 0. -1.
         -4    1    6    6    0  503  0.30020677215E+03 -0.26430513541E+03  0.76833328394E+03  0.86620860412E+03  0.00000000000E+00 0.  1.
<mgrwt>
<rscale>  0 0.11813614E+04</rscale>
<asrwt>0</asrwt>
<pdfrwt beam="1">  1        2 0.36219261E+00 0.11813614E+04</pdfrwt>
<pdfrwt beam="2">  1       -2 0.22800230E-01 0.11813614E+04</pdfrwt>
<totfact> 0.71006194E+01</totfact>
</mgrwt>
</event>
<event>
12    3  0.4192740E-008  0.3227656E+04  0.7818608E-02  0.8181551E-01
         -1   -1    0    0    0  501 -0.00000000000E+00  0.00000000000E+00  0.15127882141E+04  0.15127882141E+04  0.00000000000E+00 0.  1.
          1   -1    0    0  501    0  0.00000000000E+00 -0.00000000000E+00 -0.17216163026E+04  0.17216163026E+04  0.00000000000E+00 0. -1.
         23    2    1    2    0    0  0.60736652673E+03 -0.10341472794E+04  0.78542993625E+03  0.14364702625E+04  0.90509320007E+02 0.  0.
        254    2    1    2    0    0 -0.60736652673E+03  0.10341472794E+04 -0.99425802475E+03  0.17979342543E+04  0.89758780613E+03 0.  0.
         23    2    4    4    0    0 -0.46263149323E+02  0.46740879794E+03 -0.85945617667E+03  0.98353639885E+03  0.89820180746E+02 0.  0.
         23    2    4    4    0    0 -0.56110337740E+03  0.56673848144E+03 -0.13480184808E+03  0.81439785543E+03  0.95093754832E+02 0.  0.
          1    1    3    3  502    0  0.44191532773E+03 -0.76994810910E+03  0.62654122169E+03  0.10865832458E+04  0.00000000000E+00 0.  1.
         -1    1    3    3    0  502  0.16545119899E+03 -0.26419917029E+03  0.15888871456E+03  0.34988701669E+03  0.00000000000E+00 0. -1.
         13    1    5    5    0    0 -0.51261436511E+02  0.17640247360E+03 -0.39145854802E+03  0.43241804124E+03  0.00000000000E+00 0. -1.
        -13    1    5    5    0    0  0.49982871886E+01  0.29100632434E+03 -0.46799762864E+03  0.55111835761E+03  0.00000000000E+00 0.  1.
          1    1    6    6  503    0 -0.13875888219E+03  0.19621521096E+03 -0.59105577958E+02  0.24748314234E+03  0.00000000000E+00 0. -1.
         -1    1    6    6    0  503 -0.42234449522E+03  0.37052327048E+03 -0.75696270119E+02  0.56691471309E+03  0.00000000000E+00 0.  1.
<mgrwt>
<rscale>  0 0.32276560E+04</rscale>
<asrwt>0</asrwt>
<pdfrwt beam="1">  1        1 0.26486405E+00 0.32276560E+04</pdfrwt>
<pdfrwt beam="2">  1       -1 0.23273665E+00 0.32276560E+04</pdfrwt>
<totfact> 0.34813078E-01</totfact>
</mgrwt>
</event>
<event>
12    3  0.4192740E-008  0.1757002E+04  0.7818608E-02  0.8729505E-01
         -2   -1    0    0    0  501 -0.00000000000E+00  0.00000000000E+00  0.98506760877E+03  0.98506760877E+03  0.00000000000E+00 0.  1.
          2   -1    0    0  501    0  0.00000000000E+00 -0.00000000000E+00 -0.78346326615E+03  0.78346326615E+03  0.00000000000E+00 0. -1.
         23    2    1    2    0    0  0.82756948819E+02  0.17369416855E+03  0.69171374916E+03  0.72558530745E+03  0.10482247298E+03 0.  0.
        254    2    1    2    0    0 -0.82756948819E+02 -0.17369416855E+03 -0.49010940654E+03  0.10429455675E+04  0.90028320521E+03 0.  0.
         23    2    4    4    0    0  0.33727581794E+03  0.54406906792E+02 -0.42342696636E+03  0.55193598985E+03  0.92886232404E+02 0.  0.
         23    2    4    4    0    0 -0.42003276676E+03 -0.22810107535E+03 -0.66682440175E+02  0.49100957763E+03  0.90477797108E+02 0.  0.
          4    1    3    3  502    0 -0.13249096619E+02  0.18962015909E+02  0.23384992525E+02  0.32893076536E+02  0.00000000000E+00 0. -1.
         -4    1    3    3    0  502  0.96006045438E+02  0.15473215265E+03  0.66832875663E+03  0.69269223091E+03  0.00000000000E+00 0.  1.
         13    1    5    5    0    0  0.27767518571E+03  0.13409467058E+02 -0.30102240643E+03  0.40975335476E+03  0.00000000000E+00 0.  1.
        -13    1    5    5    0    0  0.59600632231E+02  0.40997439734E+02 -0.12240455993E+03  0.14218263508E+03  0.00000000000E+00 0. -1.
          4    1    6    6  503    0 -0.42387358885E+03 -0.22263488388E+03 -0.69416655736E+02  0.48379105297E+03  0.00000000000E+00 0. -1.
         -4    1    6    6    0  503  0.38408220879E+01 -0.54661914713E+01  0.27342155607E+01  0.72185246584E+01  0.00000000000E+00 0.  1.
<mgrwt>
<rscale>  0 0.17570023E+04</rscale>
<asrwt>0</asrwt>
<pdfrwt beam="1">  1        2 0.12053281E+00 0.17570023E+04</pdfrwt>
<pdfrwt beam="2">  1       -2 0.15154886E+00 0.17570023E+04</pdfrwt>
<totfact> 0.97766984E+00</totfact>
</mgrwt>
</event>
<event>
12    3  0.4192740E-008  0.1416406E+04  0.7818608E-02  0.8942028E-01
         -2   -1    0    0    0  501 -0.00000000000E+00  0.00000000000E+00  0.43780505198E+03  0.43780505198E+03  0.00000000000E+00 0.  1.
          2   -1    0    0  501    0  0.00000000000E+00 -0.00000000000E+00 -0.11456044882E+04  0.11456044882E+04  0.00000000000E+00 0. -1.
         23    2    1    2    0    0  0.29629006705E+02 -0.33245270999E+03 -0.42706694853E+03  0.54997426463E+03  0.93181708579E+02 0.  0.
        254    2    1    2    0    0 -0.29629006705E+02  0.33245270999E+03 -0.28073248768E+03  0.10334352755E+04  0.93689650264E+03 0.  0.
         23    2    4    4    0    0 -0.34472906481E+03  0.42793642469E+03 -0.38482596805E+03  0.67702908103E+03  0.91157222265E+02 0.  0.
         23    2    4    4    0    0  0.31510005811E+03 -0.95483714700E+02  0.10409348038E+03  0.35640619450E+03  0.88231153395E+02 0.  0.
          3    1    3    3  502    0  0.39416642706E+02 -0.32741500378E+03 -0.42626121533E+03  0.53893680531E+03  0.00000000000E+00 0. -1.
         -3    1    3    3    0  502 -0.97876360016E+01 -0.50377062107E+01 -0.80573320176E+00  0.11037459325E+02  0.00000000000E+00 0.  1.
         13    1    5    5    0    0 -0.66946775847E+01  0.43945371745E+02 -0.42333216671E+02  0.61384978940E+02  0.00000000000E+00 0.  1.
        -13    1    5    5    0    0 -0.33803438723E+03  0.38399105295E+03 -0.34249275138E+03  0.61564410209E+03  0.00000000000E+00 0. -1.
          1    1    6    6  503    0  0.20235488951E+03 -0.10217712652E+03  0.83634346820E+02  0.24162444094E+03  0.00000000000E+00 0. -1.
         -1    1    6    6    0  503  0.11274516860E+03  0.66934118222E+01  0.20459133557E+02  0.11478175356E+03  0.00000000000E+00 0.  1.
<mgrwt>
<rscale>  0 0.14164059E+04</rscale>
<asrwt>0</asrwt>
<pdfrwt beam="1">  1        2 0.17624684E+00 0.14164059E+04</pdfrwt>
<pdfrwt beam="2">  1       -2 0.67354625E-01 0.14164059E+04</pdfrwt>
<totfact> 0.40150910E+01</totfact>
</mgrwt>
</event>
<event>
12    3  0.4192740E-008  0.1490969E+04  0.7818608E-02  0.8890481E-01
         -1   -1    0    0    0  501 -0.00000000000E+00  0.00000000000E+00  0.12278536243E+04  0.12278536243E+04  0.00000000000E+00 0.  1.
          1   -1    0    0  501    0  0.00000000000E+00 -0.00000000000E+00 -0.45261651375E+03  0.45261651375E+03  0.00000000000E+00 0. -1.
         23    2    1    2    0    0 -0.35858367764E+03 -0.25058337925E+03  0.43792335454E+03  0.62620114686E+03  0.94745596496E+02 0.  0.
        254    2    1    2    0    0  0.35858367764E+03  0.25058337925E+03  0.33731375600E+03  0.10542689912E+04  0.89795782302E+03 0.  0.
         23    2    4    4    0    0  0.42213965722E+03  0.50817848064E+03  0.75796658142E+02  0.67099065669E+03  0.89644127500E+02 0.  0.
         23    2    4    4    0    0 -0.63555979580E+02 -0.25759510138E+03  0.26151709786E+03  0.38327833448E+03  0.90091566824E+02 0.  0.
          3    1    3    3  502    0 -0.14661893637E+03 -0.15368122086E+03  0.17836705593E+03  0.27736228437E+03  0.00000000000E+00 0. -1.
         -3    1    3    3    0  502 -0.21196474127E+03 -0.96902158398E+02  0.25955629860E+03  0.34883886250E+03  0.00000000000E+00 0.  1.
         13    1    5    5    0    0  0.15082867919E+03  0.11919279895E+03  0.29299808719E+02  0.19446000252E+03  0.00000000000E+00 0. -1.
        -13    1    5    5    0    0  0.27131097803E+03  0.38898568169E+03  0.46496849423E+02  0.47653065417E+03  0.00000000000E+00 0.  1.
          4    1    6    6  503    0  0.74330821827E+01  0.42610674465E+01  0.11481249096E+02  0.14325728160E+02  0.00000000000E+00 0. -1.
         -4    1    6    6    0  503 -0.70989061763E+02 -0.26185616883E+03  0.25003584876E+03  0.36895260632E+03  0.00000000000E+00 0.  1.
<mgrwt>
<rscale>  0 0.14909686E+04</rscale>
<asrwt>0</asrwt>
<pdfrwt beam="1">  1        1 0.69633310E-01 0.14909686E+04</pdfrwt>
<pdfrwt beam="2">  1       -1 0.18890056E+00 0.14909686E+04</pdfrwt>
<totfact> 0.88446531E+00</totfact>
</mgrwt>
</event>
<event>
12    3  0.4192740E-008  0.1250642E+04  0.7818608E-02  0.9069649E-01
          2   -1    0    0  501    0  0.00000000000E+00  0.00000000000E+00  0.80664467785E+03  0.80664467785E+03  0.00000000000E+00 0. -1.
         -2   -1    0    0    0  501 -0.00000000000E+00 -0.00000000000E+00 -0.48475637859E+03  0.48475637859E+03  0.00000000000E+00 0.  1.
         23    2    1    2    0    0  0.21952824190E+03  0.17980767151E+03  0.98152406253E+02  0.31396360006E+03  0.91737667198E+02 0.  0.
        254    2    1    2    0    0 -0.21952824190E+03 -0.17980767151E+03  0.22373589301E+03  0.97743745639E+03  0.90818653569E+03 0.  0.
         23    2    4    4    0    0  0.28239092989E+03 -0.62457608177E+02 -0.14640305362E+03  0.33656335329E+03  0.90528705757E+02 0.  0.
         23    2    4    4    0    0 -0.50191917180E+03 -0.11735006333E+03  0.37013894663E+03  0.64087410309E+03  0.89570552210E+02 0.  0.
          3    1    3    3  502    0  0.13111924105E+03  0.85160123741E+02  0.97859148879E+02  0.18444759437E+03  0.00000000000E+00 0. -1.
         -3    1    3    3    0  502  0.88409000856E+02  0.94647547768E+02  0.29325737351E+00  0.12951600569E+03  0.00000000000E+00 0.  1.
         13    1    5    5    0    0  0.37479689014E+02  0.12591905545E+02  0.36334450074E+01  0.39704975714E+02  0.00000000000E+00 0.  1.
        -13    1    5    5    0    0  0.24491124088E+03 -0.75049513722E+02 -0.15003649863E+03  0.29685837758E+03  0.00000000000E+00 0. -1.
          4    1    6    6  503    0 -0.20494303155E+03 -0.41928212815E+02  0.20460806597E+03  0.29261592895E+03  0.00000000000E+00 0. -1.
         -4    1    6    6    0  503 -0.29697614024E+03 -0.75421850517E+02  0.16553088066E+03  0.34825817415E+03  0.00000000000E+00 0.  1.
<mgrwt>
<rscale>  0 0.12506417E+04</rscale>
<asrwt>0</asrwt>
<pdfrwt beam="1">  1        2 0.12409918E+00 0.12506417E+04</pdfrwt>
<pdfrwt beam="2">  1       -2 0.74577905E-01 0.12506417E+04</pdfrwt>
<totfact> 0.54197472E+01</totfact>
</mgrwt>
</event>
<event>
12    3  0.4192740E-008  0.1268958E+04  0.7818608E-02  0.9054550E-01
         -2   -1    0    0    0  501 -0.00000000000E+00  0.00000000000E+00  0.26564760959E+03  0.26564760959E+03  0.00000000000E+00 0.  1.
          2   -1    0    0  501    0  0.00000000000E+00 -0.00000000000E+00 -0.15154056028E+04  0.15154056028E+04  0.00000000000E+00 0. -1.
         23    2    1    2    0    0  0.10282356167E+03  0.28437869609E+03 -0.39570594093E+03  0.50687468726E+03  0.94312402578E+02 0.  0.
        254    2    1    2    0    0 -0.10282356167E+03 -0.28437869609E+03 -0.85405205225E+03  0.12741785251E+04  0.89592526375E+03 0.  0.
         23    2    4    4    0    0  0.13390137476E+03 -0.54622803995E+03 -0.61793039771E+03  0.84046989895E+03  0.90868172804E+02 0.  0.
         23    2    4    4    0    0 -0.23672493642E+03  0.26184934387E+03 -0.23612165454E+03  0.43370862614E+03  0.88011148394E+02 0.  0.
          3    1    3    3  502    0  0.10725484316E+03  0.26187440549E+03 -0.39225602967E+03  0.48368026469E+03  0.00000000000E+00 0. -1.
         -3    1    3    3    0  502 -0.44312814923E+01  0.22504290594E+02 -0.34499112509E+01  0.23194422572E+02  0.00000000000E+00 0.  1.
         13    1    5    5    0    0 -0.13564964566E+02 -0.32437251211E+02 -0.38349091796E+02  0.52027265654E+02  0.00000000000E+00 0. -1.
        -13    1    5    5    0    0  0.14746633932E+03 -0.51379078874E+03 -0.57958130592E+03  0.78844263330E+03  0.00000000000E+00 0.  1.
          4    1    6    6  503    0 -0.18669830087E+03  0.21065663968E+03 -0.14145255207E+03  0.31502587176E+03  0.00000000000E+00 0.  1.
         -4    1    6    6    0  503 -0.50026635552E+02  0.51192704189E+02 -0.94669102469E+02  0.11868275439E+03  0.00000000000E+00 0. -1.
<mgrwt>
<rscale>  0 0.12689584E+04</rscale>
<asrwt>0</asrwt>
<pdfrwt beam="1">  1        2 0.23313932E+00 0.12689584E+04</pdfrwt>
<pdfrwt beam="2">  1       -2 0.40868863E-01 0.12689584E+04</pdfrwt>
<totfact> 0.69261813E+01</totfact>
</mgrwt>
</event>
<event>
12    3  0.4192740E-008  0.1448953E+04  0.7818608E-02  0.8919127E-01
          1   -1    0    0  501    0  0.00000000000E+00  0.00000000000E+00  0.27009591216E+04  0.27009591216E+04  0.00000000000E+00 0. -1.
         -1   -1    0    0    0  501 -0.00000000000E+00 -0.00000000000E+00 -0.19432582467E+03  0.19432582467E+03  0.00000000000E+00 0.  1.
         23    2    1    2    0    0 -0.52748019934E+02 -0.18028489216E+03  0.16109277531E+04  0.16244282347E+04  0.91618056414E+02 0.  0.
        254    2    1    2    0    0  0.52748019934E+02  0.18028489216E+03  0.89570554389E+03  0.12708567116E+04  0.88176151200E+03 0.  0.
         23    2    4    4    0    0 -0.28443162028E+03  0.18132933466E+03  0.84929880223E+03  0.91830662919E+03  0.90536929101E+02 0.  0.
         23    2    4    4    0    0  0.33717964021E+03 -0.10444424979E+01  0.46406741657E+02  0.35255008237E+03  0.91906334258E+02 0.  0.
          4    1    3    3  502    0 -0.29117100558E+02 -0.12073847459E+03  0.13520033613E+04  0.13576960904E+04  0.00000000000E+00 0. -1.
         -4    1    3    3    0  502 -0.23630919376E+02 -0.59546417566E+02  0.25892439173E+03  0.26673214435E+03  0.00000000000E+00 0.  1.
         13    1    5    5    0    0 -0.10859076209E+03  0.11819706058E+03  0.34491764797E+03  0.38043485989E+03  0.00000000000E+00 0. -1.
        -13    1    5    5    0    0 -0.17584085819E+03  0.63132274080E+02  0.50438115426E+03  0.53787176930E+03  0.00000000000E+00 0.  1.
          1    1    6    6  503    0  0.26650477429E+02 -0.24348265820E+02  0.16576042241E+02  0.39722174815E+02  0.00000000000E+00 0. -1.
         -1    1    6    6    0  503  0.31052916278E+03  0.23303823322E+02  0.29830699416E+02  0.31282790756E+03  0.00000000000E+00 0.  1.
<mgrwt>
<rscale>  0 0.14489529E+04</rscale>
<asrwt>0</asrwt>
<pdfrwt beam="1">  1        1 0.41553215E+00 0.14489529E+04</pdfrwt>
<pdfrwt beam="2">  1       -1 0.29896283E-01 0.14489529E+04</pdfrwt>
<totfact> 0.98143341E+00</totfact>
</mgrwt>
</event>
<event>
12    3  0.4192740E-008  0.1350696E+04  0.7818608E-02  0.8990302E-01
          2   -1    0    0  501    0  0.00000000000E+00  0.00000000000E+00  0.21592592041E+04  0.21592592041E+04  0.00000000000E+00 0. -1.
         -2   -1    0    0    0  501 -0.00000000000E+00 -0.00000000000E+00 -0.21122742197E+03  0.21122742197E+03  0.00000000000E+00 0.  1.
         23    2    1    2    0    0 -0.20820526184E+01  0.36225784966E+03  0.48730548164E+03  0.61501296357E+03  0.97668973279E+02 0.  0.
        254    2    1    2    0    0  0.20820526184E+01 -0.36225784966E+03  0.14607263005E+04  0.17554736625E+04  0.90373191279E+03 0.  0.
         23    2    4    4    0    0 -0.28327559950E+03 -0.12041423251E+03  0.12987925450E+04  0.13378582365E+04  0.90873171307E+02 0.  0.
         23    2    4    4    0    0  0.28535765211E+03 -0.24184361715E+03  0.16193375551E+03  0.41761542605E+03  0.90899824690E+02 0.  0.
          1    1    3    3  502    0  0.37272666337E+02  0.17185716978E+03  0.18216976659E+03  0.25319945166E+03  0.00000000000E+00 0. -1.
         -1    1    3    3    0  502 -0.39354718955E+02  0.19040067987E+03  0.30513571506E+03  0.36181351192E+03  0.00000000000E+00 0.  1.
         13    1    5    5    0    0 -0.20511763813E+03 -0.78414807516E+02  0.10733616388E+04  0.10955945122E+04  0.00000000000E+00 0. -1.
        -13    1    5    5    0    0 -0.78157961367E+02 -0.41999424995E+02  0.22543090620E+03  0.24226372426E+03  0.00000000000E+00 0.  1.
          4    1    6    6  503    0  0.19816272281E+03 -0.17439621810E+03  0.15728654182E+03  0.30728091681E+03  0.00000000000E+00 0. -1.
         -4    1    6    6    0  503  0.87194929306E+02 -0.67447399047E+02  0.46472136932E+01  0.11033450924E+03  0.00000000000E+00 0.  1.
<mgrwt>
<rscale>  0 0.13506958E+04</rscale>
<asrwt>0</asrwt>
<pdfrwt beam="1">  1        2 0.33219371E+00 0.13506958E+04</pdfrwt>
<pdfrwt beam="2">  1       -2 0.32496528E-01 0.13506958E+04</pdfrwt>
<totfact> 0.46985409E+01</totfact>
</mgrwt>
</event>
<event>
12    3  0.4192740E-008  0.1779235E+04  0.7818608E-02  0.8717421E-01
         -2   -1    0    0    0  501 -0.00000000000E+00  0.00000000000E+00  0.87502076943E+03  0.87502076943E+03  0.00000000000E+00 0.  1.
          2   -1    0    0  501    0  0.00000000000E+00 -0.00000000000E+00 -0.90445763827E+03  0.90445763827E+03  0.00000000000E+00 0. -1.
         23    2    1    2    0    0 -0.50048716320E+03  0.39508714656E+03 -0.16292603777E+03  0.66257563476E+03  0.76683271309E+02 0.  0.
        254    2    1    2    0    0  0.50048716320E+03 -0.39508714656E+03  0.13348916893E+03  0.11169027729E+04  0.90723271109E+03 0.  0.
         23    2    4    4    0    0  0.54170880020E+03  0.37697776855E+02 -0.17055009488E+03  0.57836346856E+03  0.10270063442E+03 0.  0.
         23    2    4    4    0    0 -0.41221637000E+02 -0.43278492341E+03  0.30403926381E+03  0.53853930438E+03  0.92642836412E+02 0.  0.
          2    1    3    3  502    0 -0.83974464017E+02  0.66147993550E+02  0.16325890433E+01  0.10691086476E+03  0.00000000000E+00 0.  1.
         -2    1    3    3    0  502 -0.41651269918E+03  0.32893915301E+03 -0.16455862681E+03  0.55566477000E+03  0.00000000000E+00 0. -1.
         13    1    5    5    0    0  0.76424758312E+02  0.80511127245E+01  0.11791845276E+02  0.77747101002E+02  0.00000000000E+00 0.  1.
        -13    1    5    5    0    0  0.46528404188E+03  0.29646664130E+02 -0.18234194015E+03  0.50061636756E+03  0.00000000000E+00 0. -1.
          4    1    6    6  503    0 -0.45353312719E+02 -0.12663993780E+03  0.61341249406E+02  0.14784230011E+03  0.00000000000E+00 0.  1.
         -4    1    6    6    0  503  0.41316757195E+01 -0.30614498561E+03  0.24269801440E+03  0.39069700427E+03  0.00000000000E+00 0. -1.
<mgrwt>
<rscale>  0 0.17792349E+04</rscale>
<asrwt>0</asrwt>
<pdfrwt beam="1">  1        2 0.13914733E+00 0.17792349E+04</pdfrwt>
<pdfrwt beam="2">  1       -2 0.13461858E+00 0.17792349E+04</pdfrwt>
<totfact> 0.10940608E+01</totfact>
</mgrwt>
</event>
<event>
12    3  0.4192740E-008  0.2594658E+04  0.7818608E-02  0.8370018E-01
         -2   -1    0    0    0  501 -0.00000000000E+00  0.00000000000E+00  0.81238779532E+03  0.81238779532E+03  0.00000000000E+00 0.  1.
          2   -1    0    0  501    0  0.00000000000E+00 -0.00000000000E+00 -0.20717477975E+04  0.20717477975E+04  0.00000000000E+00 0. -1.
         23    2    1    2    0    0 -0.43182373847E+02  0.11319548329E+04 -0.43387947585E+03  0.12165262042E+04  0.92185382710E+02 0.  0.
        254    2    1    2    0    0  0.43182373847E+02 -0.11319548329E+04 -0.82548052634E+03  0.16676093886E+04  0.90350235887E+03 0.  0.
         23    2    4    4    0    0 -0.30338977643E+02  0.63716081552E+02 -0.36001756498E+03  0.37923762724E+03  0.96064239986E+02 0.  0.
         23    2    4    4    0    0  0.73521351490E+02 -0.11956709145E+04 -0.46546296136E+03  0.12883717614E+04  0.90618443520E+02 0.  0.
          3    1    3    3  502    0 -0.20629248095E+02  0.77153597929E+03 -0.25005602689E+03  0.81130841842E+03  0.00000000000E+00 0. -1.
         -3    1    3    3    0  502 -0.22553125752E+02  0.36041885363E+03 -0.18382344896E+03  0.40521778579E+03  0.00000000000E+00 0.  1.
         13    1    5    5    0    0 -0.64069834509E+02  0.54299433363E+02 -0.26370426880E+03  0.27675497021E+03  0.00000000000E+00 0.  1.
        -13    1    5    5    0    0  0.33730856866E+02  0.94166481898E+01 -0.96313296186E+02  0.10248265702E+03  0.00000000000E+00 0. -1.
          2    1    6    6  503    0 -0.90141769804E+01 -0.41509027416E+02 -0.40919293282E+01  0.42673160526E+02  0.00000000000E+00 0. -1.
         -2    1    6    6    0  503  0.82535528470E+02 -0.11541618871E+04 -0.46137103203E+03  0.12456986009E+04  0.00000000000E+00 0.  1.
<mgrwt>
<rscale>  0 0.25946581E+04</rscale>
<asrwt>0</asrwt>
<pdfrwt beam="1">  1        2 0.31873042E+00 0.25946581E+04</pdfrwt>
<pdfrwt beam="2">  1       -2 0.12498274E+00 0.25946581E+04</pdfrwt>
<totfact> 0.25863847E+00</totfact>
</mgrwt>
</event>
<event>
12    3  0.4192740E-008  0.2504799E+04  0.7818608E-02  0.8401278E-01
         -1   -1    0    0    0  501 -0.00000000000E+00  0.00000000000E+00  0.78227008229E+03  0.78227008229E+03  0.00000000000E+00 0.  1.
          1   -1    0    0  501    0  0.00000000000E+00 -0.00000000000E+00 -0.20050672195E+04  0.20050672195E+04  0.00000000000E+00 0. -1.
         23    2    1    2    0    0 -0.82153952362E+03 -0.86316445463E+02 -0.13216474191E+04  0.15613042104E+04  0.92418717518E+02 0.  0.
        254    2    1    2    0    0  0.82153952362E+03  0.86316445463E+02  0.98850281876E+02  0.12260330914E+04  0.90055985108E+03 0.  0.
         23    2    4    4    0    0 -0.48297365512E+02  0.13055825421E+03  0.28532346888E+03  0.33062675991E+03  0.92338936627E+02 0.  0.
         23    2    4    4    0    0  0.86983688913E+03 -0.44241808743E+02 -0.18647318700E+03  0.89540633150E+03  0.91688045508E+02 0.  0.
          1    1    3    3  502    0 -0.11859352102E+03 -0.38943246257E+02 -0.23828486429E+03  0.26899939815E+03  0.00000000000E+00 0. -1.
         -1    1    3    3    0  502 -0.70294600260E+03 -0.47373199206E+02 -0.10833625548E+04  0.12923048123E+04  0.00000000000E+00 0.  1.
         13    1    5    5    0    0 -0.35503602184E+02  0.40778619193E+02  0.35064050533E+02  0.64442914203E+02  0.00000000000E+00 0. -1.
        -13    1    5    5    0    0 -0.12793763329E+02  0.89779635014E+02  0.25025941835E+03  0.26618384570E+03  0.00000000000E+00 0.  1.
          3    1    6    6  503    0  0.12886392757E+03 -0.30302410923E+02 -0.53325072080E+01  0.13248616369E+03  0.00000000000E+00 0. -1.
         -3    1    6    6    0  503  0.74097296156E+03 -0.13939397821E+02 -0.18114067979E+03  0.76292016781E+03  0.00000000000E+00 0.  1.
<mgrwt>
<rscale>  0 0.25047987E+04</rscale>
<asrwt>0</asrwt>
<pdfrwt beam="1">  1        1 0.30847187E+00 0.25047987E+04</pdfrwt>
<pdfrwt beam="2">  1       -1 0.12034925E+00 0.25047987E+04</pdfrwt>
<totfact> 0.16135385E+00</totfact>
</mgrwt>
</event>
<event>
12    3  0.4192740E-008  0.1199672E+04  0.7818608E-02  0.9113143E-01
         -2   -1    0    0    0  501 -0.00000000000E+00  0.00000000000E+00  0.31112608874E+03  0.31112608874E+03  0.00000000000E+00 0. -1.
          2   -1    0    0  501    0  0.00000000000E+00 -0.00000000000E+00 -0.11564552644E+04  0.11564552644E+04  0.00000000000E+00 0.  1.
         23    2    1    2    0    0  0.14852541687E+03  0.16293094756E+03 -0.46650761405E+02  0.24437885396E+03  0.94543310675E+02 0.  0.
        254    2    1    2    0    0 -0.14852541687E+03 -0.16293094756E+03 -0.79867841422E+03  0.12232024992E+04  0.89985046062E+03 0.  0.
         23    2    4    4    0    0  0.11181232493E+02  0.33613693943E+03 -0.13694003966E+03  0.37458555685E+03  0.91916826138E+02 0.  0.
         23    2    4    4    0    0 -0.15970664936E+03 -0.49906788699E+03 -0.66173837456E+03  0.84861694231E+03  0.87624589760E+02 0.  0.
          3    1    3    3  502    0  0.15134870181E+03  0.11521513933E+03 -0.24802967519E+02  0.19182321306E+03  0.00000000000E+00 0. -1.
         -3    1    3    3    0  502 -0.28232849399E+01  0.47715808227E+02 -0.21847793886E+02  0.52555640899E+02  0.00000000000E+00 0.  1.
         13    1    5    5    0    0  0.11332123191E+02  0.23639988011E+03 -0.13967024560E+03  0.27481102205E+03  0.00000000000E+00 0.  1.
        -13    1    5    5    0    0 -0.15089069781E+00  0.99737059320E+02  0.27302059470E+01  0.99774534798E+02  0.00000000000E+00 0. -1.
          4    1    6    6  503    0  0.10223134908E+02 -0.16576486938E+02 -0.29559094949E+02  0.35398199117E+02  0.00000000000E+00 0. -1.
         -4    1    6    6    0  503 -0.16992978427E+03 -0.48249140005E+03 -0.63217927962E+03  0.81321874319E+03  0.00000000000E+00 0.  1.
<mgrwt>
<rscale>  0 0.11996723E+04</rscale>
<asrwt>0</asrwt>
<pdfrwt beam="1">  1        2 0.17791620E+00 0.11996723E+04</pdfrwt>
<pdfrwt beam="2">  1       -2 0.47865551E-01 0.11996723E+04</pdfrwt>
<totfact> 0.82077656E+01</totfact>
</mgrwt>
</event>
<event>
12    3  0.4192740E-008  0.2226770E+04  0.7818608E-02  0.8507368E-01
         -1   -1    0    0    0  501 -0.00000000000E+00  0.00000000000E+00  0.10135547693E+04  0.10135547693E+04  0.00000000000E+00 0.  1.
          1   -1    0    0  501    0  0.00000000000E+00 -0.00000000000E+00 -0.12230475627E+04  0.12230475627E+04  0.00000000000E+00 0. -1.
         23    2    1    2    0    0 -0.22316024105E+03  0.42586529150E+03 -0.88787438559E+03  0.10137387437E+04  0.90463120522E+02 0.  0.
        254    2    1    2    0    0  0.22316024105E+03 -0.42586529150E+03  0.67838159215E+03  0.12228635883E+04  0.89667833216E+03 0.  0.
         23    2    4    4    0    0 -0.22382309203E+03 -0.20666977248E+02  0.54746496212E+03  0.59895792006E+03  0.92243182811E+02 0.  0.
         23    2    4    4    0    0  0.44698333308E+03 -0.40519831426E+03  0.13091663003E+03  0.62390566825E+03  0.90218318164E+02 0.  0.
          1    1    3    3  502    0 -0.18219069134E+03  0.29994961577E+03 -0.56982101150E+03  0.66922283670E+03  0.00000000000E+00 0. -1.
         -1    1    3    3    0  502 -0.40969549705E+02  0.12591567574E+03 -0.31805337409E+03  0.34451590699E+03  0.00000000000E+00 0.  1.
         13    1    5    5    0    0 -0.18300881410E+03 -0.12232327674E+00  0.50276090269E+03  0.53503342538E+03  0.00000000000E+00 0. -1.
        -13    1    5    5    0    0 -0.40814277937E+02 -0.20544653971E+02  0.44704059430E+02  0.63924494678E+02  0.00000000000E+00 0.  1.
          3    1    6    6  503    0  0.42673419437E+03 -0.40651303821E+03  0.13032408722E+03  0.60360524401E+03  0.00000000000E+00 0. -1.
         -3    1    6    6    0  503  0.20249138710E+02  0.13147239578E+01  0.59254280821E+00  0.20300424246E+02  0.00000000000E+00 0.  1.
<mgrwt>
<rscale>  0 0.22267696E+04</rscale>
<asrwt>0</asrwt>
<pdfrwt beam="1">  1        1 0.18816116E+00 0.22267696E+04</pdfrwt>
<pdfrwt beam="2">  1       -1 0.15593150E+00 0.22267696E+04</pdfrwt>
<totfact> 0.29353222E+00</totfact>
</mgrwt>
</event>
<event>
12    3  0.4192740E-008  0.2245836E+04  0.7818608E-02  0.8499589E-01
         -3   -1    0    0    0  501 -0.00000000000E+00  0.00000000000E+00  0.81384563613E+03  0.81384563613E+03  0.00000000000E+00 0.  1.
          3   -1    0    0  501    0  0.00000000000E+00 -0.00000000000E+00 -0.15493660577E+04  0.15493660577E+04  0.00000000000E+00 0. -1.
         23    2    1    2    0    0 -0.86580324582E+03 -0.11080958540E+03 -0.67526361354E+03  0.11072946164E+04  0.90699476378E+02 0.  0.
        254    2    1    2    0    0  0.86580324582E+03  0.11080958540E+03 -0.60256808016E+02  0.12559170774E+04  0.90100099767E+03 0.  0.
         23    2    4    4    0    0  0.67461298583E+02  0.54678043678E+02  0.33572016444E+03  0.35828833219E+03  0.90120945993E+02 0.  0.
         23    2    4    4    0    0  0.79834194724E+03  0.56131541720E+02 -0.39597697245E+03  0.89762874525E+03  0.91863958558E+02 0.  0.
          2    1    3    3  502    0 -0.58613753574E+03 -0.10517535872E+03 -0.49652496143E+03  0.77534257217E+03  0.00000000000E+00 0. -1.
         -2    1    3    3    0  502 -0.27966571008E+03 -0.56342266757E+01 -0.17873865211E+03  0.33195204422E+03  0.00000000000E+00 0.  1.
         13    1    5    5    0    0  0.24511487891E+02 -0.10299613959E+02  0.20459324723E+02  0.33548160225E+02  0.00000000000E+00 0. -1.
        -13    1    5    5    0    0  0.42949810691E+02  0.64977657637E+02  0.31526083972E+03  0.32474017197E+03  0.00000000000E+00 0.  1.
          1    1    6    6  503    0  0.43868502420E+03  0.98562799202E+01 -0.17131696161E+03  0.47105328578E+03  0.00000000000E+00 0. -1.
         -1    1    6    6    0  503  0.35965692304E+03  0.46275261799E+02 -0.22466001085E+03  0.42657545947E+03  0.00000000000E+00 0.  1.
<mgrwt>
<rscale>  0 0.22458360E+04</rscale>
<asrwt>0</asrwt>
<pdfrwt beam="1">  1        3 0.23836401E+00 0.22458360E+04</pdfrwt>
<pdfrwt beam="2">  1       -3 0.12520702E+00 0.22458360E+04</pdfrwt>
<totfact> 0.10443888E-01</totfact>
</mgrwt>
</event>
<event>
12    3  0.4192740E-008  0.3828742E+04  0.7818608E-02  0.8040015E-01
          2   -1    0    0  501    0  0.00000000000E+00  0.00000000000E+00  0.42560350282E+04  0.42560350282E+04  0.00000000000E+00 0. -1.
         -2   -1    0    0    0  501 -0.00000000000E+00 -0.00000000000E+00 -0.86108711877E+03  0.86108711877E+03  0.00000000000E+00 0.  1.
         23    2    1    2    0    0  0.12768065050E+04  0.19066689231E+03 -0.88545645409E+02  0.12971694209E+04  0.90661238252E+02 0.  0.
        254    2    1    2    0    0 -0.12768065050E+04 -0.19066689231E+03  0.34834935548E+04  0.38199527260E+04  0.88922593738E+03 0.  0.
         23    2    4    4    0    0 -0.54723989962E+03 -0.23329845602E+03  0.62349307836E+03  0.86667371871E+03  0.92087125219E+02 0.  0.
         23    2    4    4    0    0 -0.72956660540E+03  0.42631563708E+02  0.28600004765E+04  0.29532790073E+04  0.90384113014E+02 0.  0.
          3    1    3    3  502    0  0.30302366501E+03  0.17523285570E+02 -0.47833790105E+02  0.30727589976E+03  0.00000000000E+00 0. -1.
         -3    1    3    3    0  502  0.97378284000E+03  0.17314360674E+03 -0.40711855305E+02  0.98989352114E+03  0.00000000000E+00 0.  1.
         13    1    5    5    0    0 -0.12642792431E+03 -0.40136239724E+02  0.19474191968E+03  0.23562545080E+03  0.00000000000E+00 0. -1.
        -13    1    5    5    0    0 -0.42081197530E+03 -0.19316221630E+03  0.42875115868E+03  0.63104826791E+03  0.00000000000E+00 0.  1.
          2    1    6    6  503    0 -0.34588555361E+03  0.36194265842E+02  0.15299692460E+04  0.15689973661E+04  0.00000000000E+00 0. -1.
         -2    1    6    6    0  503 -0.38368105179E+03  0.64372978663E+01  0.13300312304E+04  0.13842816412E+04  0.00000000000E+00 0.  1.
<mgrwt>
<rscale>  0 0.38287423E+04</rscale>
<asrwt>0</asrwt>
<pdfrwt beam="1">  1        2 0.65477461E+00 0.38287423E+04</pdfrwt>
<pdfrwt beam="2">  1       -2 0.13247494E+00 0.38287423E+04</pdfrwt>
<totfact> 0.68435892E-02</totfact>
</mgrwt>
</event>
<event>
12    3  0.4192740E-008  0.1744561E+04  0.7818608E-02  0.8736350E-01
          1   -1    0    0  501    0  0.00000000000E+00  0.00000000000E+00  0.13172836885E+04  0.13172836885E+04  0.00000000000E+00 0. -1.
         -1   -1    0    0    0  501 -0.00000000000E+00 -0.00000000000E+00 -0.57760748496E+03  0.57760748496E+03  0.00000000000E+00 0.  1.
         23    2    1    2    0    0  0.23710182041E+03 -0.19024301239E+03 -0.33465686682E+03  0.46091424963E+03  0.89649595622E+02 0.  0.
        254    2    1    2    0    0 -0.23710182041E+03  0.19024301239E+03  0.10743330704E+04  0.14339769238E+04  0.89982698057E+03 0.  0.
         23    2    4    4    0    0 -0.75083542009E+02  0.33100318110E+03  0.11404463681E+04  0.11933168859E+04  0.90479983791E+02 0.  0.
         23    2    4    4    0    0 -0.16201827840E+03 -0.14076016872E+03 -0.66113297707E+02  0.24066003795E+03  0.86503977380E+02 0.  0.
          3    1    3    3  502    0  0.10365302170E+03 -0.53787847493E+02 -0.75499422198E+02  0.13905842009E+03  0.00000000000E+00 0. -1.
         -3    1    3    3    0  502  0.13344879870E+03 -0.13645516490E+03 -0.25915744463E+03  0.32185582954E+03  0.00000000000E+00 0.  1.
         13    1    5    5    0    0 -0.43244503860E+02  0.54764106879E+02  0.16853234122E+03  0.18240708471E+03  0.00000000000E+00 0. -1.
        -13    1    5    5    0    0 -0.31839038149E+02  0.27623907422E+03  0.97191402685E+03  0.10109098012E+04  0.00000000000E+00 0.  1.
          1    1    6    6  503    0 -0.75394986258E+02 -0.82357944043E+02  0.89538593038E+01  0.11201520654E+03  0.00000000000E+00 0. -1.
         -1    1    6    6    0  503 -0.86623292140E+02 -0.58402224672E+02 -0.75067157011E+02  0.12864483141E+03  0.00000000000E+00 0.  1.
<mgrwt>
<rscale>  0 0.17445606E+04</rscale>
<asrwt>0</asrwt>
<pdfrwt beam="1">  1        1 0.20265903E+00 0.17445606E+04</pdfrwt>
<pdfrwt beam="2">  1       -1 0.88862691E-01 0.17445606E+04</pdfrwt>
<totfact> 0.10355484E+01</totfact>
</mgrwt>
</event>
<event>
12    3  0.4192740E-008  0.2463588E+04  0.7818608E-02  0.8416074E-01
          2   -1    0    0  501    0  0.00000000000E+00  0.00000000000E+00  0.21470661975E+04  0.21470661975E+04  0.00000000000E+00 0. -1.
         -2   -1    0    0    0  501 -0.00000000000E+00 -0.00000000000E+00 -0.70669272075E+03  0.70669272075E+03  0.00000000000E+00 0.  1.
         23    2    1    2    0    0 -0.56915956371E+03  0.14158138869E+02 -0.41583307985E+03  0.71086136371E+03  0.90904709791E+02 0.  0.
        254    2    1    2    0    0  0.56915956371E+03 -0.14158138869E+02  0.18562065566E+04  0.21428975545E+04  0.90684292281E+03 0.  0.
         23    2    4    4    0    0 -0.15529433725E+03 -0.22751624956E+03  0.34338720109E+03  0.44949751206E+03  0.90847501235E+02 0.  0.
         23    2    4    4    0    0  0.72445390096E+03  0.21335811069E+03  0.15128193555E+04  0.16934000425E+04  0.92877141749E+02 0.  0.
          3    1    3    3  502    0 -0.30220723221E+03  0.30767641287E+02 -0.17285769388E+03  0.34950771277E+03  0.00000000000E+00 0. -1.
         -3    1    3    3    0  502 -0.26695233150E+03 -0.16609502418E+02 -0.24297538597E+03  0.36135365094E+03  0.00000000000E+00 0.  1.
         13    1    5    5    0    0 -0.47415431267E+02 -0.23059861924E+02  0.31986659875E+02  0.61669496220E+02  0.00000000000E+00 0. -1.
        -13    1    5    5    0    0 -0.10787890598E+03 -0.20445638764E+03  0.31140054121E+03  0.38782801584E+03  0.00000000000E+00 0.  1.
          1    1    6    6  503    0  0.39836145329E+02  0.86107372198E+01  0.13899497645E+03  0.14484704605E+03  0.00000000000E+00 0. -1.
         -1    1    6    6    0  503  0.68461775563E+03  0.20474737347E+03  0.13738243790E+04  0.15485529964E+04  0.00000000000E+00 0.  1.
<mgrwt>
<rscale>  0 0.24635877E+04</rscale>
<asrwt>0</asrwt>
<pdfrwt beam="1">  1        2 0.33031787E+00 0.24635877E+04</pdfrwt>
<pdfrwt beam="2">  1       -2 0.10872196E+00 0.24635877E+04</pdfrwt>
<totfact> 0.33430523E+00</totfact>
</mgrwt>
</event>
<event>
12    3  0.4192740E-008  0.1099727E+04  0.7818608E-02  0.9205458E-01
         -2   -1    0    0    0  501 -0.00000000000E+00  0.00000000000E+00  0.11158644513E+03  0.11158644513E+03  0.00000000000E+00 0.  1.
          2   -1    0    0  501    0  0.00000000000E+00 -0.00000000000E+00 -0.27095559885E+04  0.27095559885E+04  0.00000000000E+00 0. -1.
         23    2    1    2    0    0 -0.12047928754E+03 -0.11155206467E+03 -0.46812482986E+03  0.50466906274E+03  0.92687025497E+02 0.  0.
        254    2    1    2    0    0  0.12047928754E+03  0.11155206467E+03 -0.21298447135E+04  0.23164733709E+04  0.89601967193E+03 0.  0.
         23    2    4    4    0    0 -0.10675180477E+03  0.43884731465E+03 -0.78117126303E+03  0.90699821100E+03  0.91838440640E+02 0.  0.
         23    2    4    4    0    0  0.22723109231E+03 -0.32729524998E+03 -0.13486734505E+04  0.14094751599E+04  0.94572724995E+02 0.  0.
          4    1    3    3  502    0 -0.12170208357E+03 -0.10073900653E+03 -0.46782679505E+03  0.49378300371E+03  0.00000000000E+00 0. -1.
         -4    1    3    3    0  502  0.12227960297E+01 -0.10813058146E+02 -0.29803481249E+00  0.10886059036E+02  0.00000000000E+00 0.  1.
         13    1    5    5    0    0  0.11039390642E+02  0.48036616900E+02 -0.54089309646E+02  0.73178126013E+02  0.00000000000E+00 0.  1.
        -13    1    5    5    0    0 -0.11779119541E+03  0.39081069775E+03 -0.72708195338E+03  0.83382008499E+03  0.00000000000E+00 0. -1.
          2    1    6    6  503    0  0.13170665069E+03 -0.25185775025E+03 -0.10248788988E+04  0.10635580498E+04  0.00000000000E+00 0. -1.
         -2    1    6    6    0  503  0.95524441623E+02 -0.75437499725E+02 -0.32379455170E+03  0.34591711005E+03  0.00000000000E+00 0.  1.
<mgrwt>
<rscale>  0 0.10997267E+04</rscale>
<asrwt>0</asrwt>
<pdfrwt beam="1">  1        2 0.41685476E+00 0.10997267E+04</pdfrwt>
<pdfrwt beam="2">  1       -2 0.17167146E-01 0.10997267E+04</pdfrwt>
<totfact> 0.73482009E+01</totfact>
</mgrwt>
</event>
<event>
12    3  0.4192740E-008  0.2113156E+04  0.7818608E-02  0.8555470E-01
         -1   -1    0    0    0  501 -0.00000000000E+00  0.00000000000E+00  0.85571099096E+03  0.85571099096E+03  0.00000000000E+00 0.  1.
          1   -1    0    0  501    0  0.00000000000E+00 -0.00000000000E+00 -0.13045953754E+04  0.13045953754E+04  0.00000000000E+00 0. -1.
         23    2    1    2    0    0  0.46379389224E+03  0.67639076946E+03  0.89821129051E+02  0.82994281166E+03  0.90155354354E+02 0.  0.
        254    2    1    2    0    0 -0.46379389224E+03 -0.67639076946E+03 -0.53870551346E+03  0.13303635547E+04  0.89836201492E+03 0.  0.
         23    2    4    4    0    0 -0.46528751652E+03  0.48011715818E+02 -0.29556455038E+03  0.56087997282E+03  0.91816897021E+02 0.  0.
         23    2    4    4    0    0  0.14936242840E+01 -0.72440248528E+03 -0.24314096308E+03  0.76948358184E+03  0.90698749740E+02 0.  0.
          4    1    3    3  502    0  0.10089618118E+03  0.14442976169E+03  0.56920769207E+02  0.18514850636E+03  0.00000000000E+00 0. -1.
         -4    1    3    3    0  502  0.36289771106E+03  0.53196100777E+03  0.32900359843E+02  0.64479430531E+03  0.00000000000E+00 0.  1.
         13    1    5    5    0    0 -0.32915813022E+02  0.21701212661E+02 -0.61043301728E+01  0.39895566480E+02  0.00000000000E+00 0.  1.
        -13    1    5    5    0    0 -0.43237170350E+03  0.26310503156E+02 -0.28946022021E+03  0.52098440634E+03  0.00000000000E+00 0. -1.
          4    1    6    6  503    0  0.40154512690E+02 -0.27114968918E+03 -0.71480977417E+02  0.28327384095E+03  0.00000000000E+00 0. -1.
         -4    1    6    6    0  503 -0.38660888406E+02 -0.45325279609E+03 -0.17165998566E+03  0.48620974089E+03  0.00000000000E+00 0.  1.
<mgrwt>
<rscale>  0 0.21131556E+04</rscale>
<asrwt>0</asrwt>
<pdfrwt beam="1">  1        1 0.20070698E+00 0.21131556E+04</pdfrwt>
<pdfrwt beam="2">  1       -1 0.13164785E+00 0.21131556E+04</pdfrwt>
<totfact> 0.40511755E+00</totfact>
</mgrwt>
</event>
<event>
12    3  0.4192740E-008  0.1361501E+04  0.7818608E-02  0.8982167E-01
         -1   -1    0    0    0  501 -0.00000000000E+00  0.00000000000E+00  0.16854323369E+03  0.16854323369E+03  0.00000000000E+00 0.  1.
          1   -1    0    0  501    0  0.00000000000E+00 -0.00000000000E+00 -0.27495702287E+04  0.27495702287E+04  0.00000000000E+00 0. -1.
         23    2    1    2    0    0 -0.10061552113E+03 -0.15869110937E+03 -0.14320373677E+04  0.14473492182E+04  0.93714382874E+02 0.  0.
        254    2    1    2    0    0  0.10061552113E+03  0.15869110937E+03 -0.11489896273E+04  0.14707642442E+04  0.89870125577E+03 0.  0.
         23    2    4    4    0    0  0.27163506079E+03 -0.19699592422E+03 -0.96311026099E+03  0.10245823578E+04  0.97952196288E+02 0.  0.
         23    2    4    4    0    0 -0.17101953966E+03  0.35568703359E+03 -0.18587936629E+03  0.44618188636E+03  0.93627923652E+02 0.  0.
          4    1    3    3  502    0 -0.10115576517E+03 -0.11619596609E+03 -0.85650221030E+03  0.87024710722E+03  0.00000000000E+00 0. -1.
         -4    1    3    3    0  502  0.54024403636E+00 -0.42495143277E+02 -0.57553515743E+03  0.57710211099E+03  0.00000000000E+00 0.  1.
         13    1    5    5    0    0  0.75215580207E+02 -0.10027052373E+03 -0.43988895043E+03  0.45739900540E+03  0.00000000000E+00 0. -1.
        -13    1    5    5    0    0  0.19641948059E+03 -0.96725400494E+02 -0.52322131057E+03  0.56718335244E+03  0.00000000000E+00 0.  1.
          1    1    6    6  503    0 -0.16123208445E+03  0.24623872843E+03 -0.15158308908E+03  0.33106907033E+03  0.00000000000E+00 0. -1.
         -1    1    6    6    0  503 -0.97874552062E+01  0.10944830516E+03 -0.34296277218E+02  0.11511281602E+03  0.00000000000E+00 0.  1.
<mgrwt>
<rscale>  0 0.13615013E+04</rscale>
<asrwt>0</asrwt>
<pdfrwt beam="1">  1        1 0.42301074E+00 0.13615013E+04</pdfrwt>
<pdfrwt beam="2">  1       -1 0.25929732E-01 0.13615013E+04</pdfrwt>
<totfact> 0.11714883E+01</totfact>
</mgrwt>
</event>
<event>
12    3  0.4192740E-008  0.2088455E+04  0.7818608E-02  0.8566346E-01
         -2   -1    0    0    0  501 -0.00000000000E+00  0.00000000000E+00  0.57416474968E+03  0.57416474968E+03  0.00000000000E+00 0. -1.
          2   -1    0    0  501    0  0.00000000000E+00 -0.00000000000E+00 -0.18991256466E+04  0.18991256466E+04  0.00000000000E+00 0.  1.
         23    2    1    2    0    0  0.72750326021E+03  0.41289261315E+03 -0.36547291790E+03  0.91701944202E+03  0.87251932552E+02 0.  0.
        254    2    1    2    0    0 -0.72750326021E+03 -0.41289261315E+03 -0.95948797901E+03  0.15562709542E+04  0.89533278592E+03 0.  0.
         23    2    4    4    0    0 -0.76530159229E+03  0.24011120955E+02 -0.52821927590E+03  0.93443684843E+03  0.88845704321E+02 0.  0.
         23    2    4    4    0    0  0.37798332088E+02 -0.43690373410E+03 -0.43126870311E+03  0.62183410581E+03  0.91495213460E+02 0.  0.
          2    1    3    3  502    0  0.88214824247E+02  0.85235609724E+02 -0.51574302740E+02  0.13306717509E+03  0.00000000000E+00 0. -1.
         -2    1    3    3    0  502  0.63928843596E+03  0.32765700342E+03 -0.31389861515E+03  0.78395226694E+03  0.00000000000E+00 0.  1.
         13    1    5    5    0    0 -0.21168636343E+03  0.37502527628E+02 -0.17894581118E+03  0.27971263714E+03  0.00000000000E+00 0.  1.
        -13    1    5    5    0    0 -0.55361522887E+03 -0.13491406673E+02 -0.34927346472E+03  0.65472421129E+03  0.00000000000E+00 0. -1.
          4    1    6    6  503    0  0.51091487010E+02 -0.26782469703E+03 -0.31281865782E+03  0.41496496366E+03  0.00000000000E+00 0. -1.
         -4    1    6    6    0  503 -0.13293154922E+02 -0.16907903708E+03 -0.11845004529E+03  0.20686914215E+03  0.00000000000E+00 0.  1.
<mgrwt>
<rscale>  0 0.20884549E+04</rscale>
<asrwt>0</asrwt>
<pdfrwt beam="1">  1        2 0.29217318E+00 0.20884549E+04</pdfrwt>
<pdfrwt beam="2">  1       -2 0.88333038E-01 0.20884549E+04</pdfrwt>
<totfact> 0.77362736E+00</totfact>
</mgrwt>
</event>
<event>
12    3  0.4192740E-008  0.1506264E+04  0.7818608E-02  0.8880298E-01
         -2   -1    0    0    0  501 -0.00000000000E+00  0.00000000000E+00  0.58325902787E+03  0.58325902787E+03  0.00000000000E+00 0.  1.
          2   -1    0    0  501    0  0.00000000000E+00 -0.00000000000E+00 -0.97248027323E+03  0.97248027323E+03  0.00000000000E+00 0. -1.
         23    2    1    2    0    0  0.15642045980E+03  0.40816912746E+03 -0.33096940591E+03  0.55663292167E+03  0.96073227211E+02 0.  0.
        254    2    1    2    0    0 -0.15642045980E+03 -0.40816912746E+03 -0.58251839446E+02  0.99910637942E+03  0.89652154673E+03 0.  0.
         23    2    4    4    0    0 -0.42945073815E+03 -0.51863372391E+03 -0.97145178352E+02  0.68631491629E+03  0.90454975368E+02 0.  0.
         23    2    4    4    0    0  0.27303027836E+03  0.11046459645E+03  0.38893338906E+02  0.31279146313E+03  0.97866478587E+02 0.  0.
          3    1    3    3  502    0  0.15928992743E+03  0.34946353303E+03 -0.31217482099E+03  0.49492540929E+03  0.00000000000E+00 0. -1.
         -3    1    3    3    0  502 -0.28694676379E+01  0.58705594436E+02 -0.18794584917E+02  0.61707512385E+02  0.00000000000E+00 0.  1.
         13    1    5    5    0    0 -0.31143389503E+03 -0.36325497805E+03 -0.27971424948E+02  0.47929912442E+03  0.00000000000E+00 0.  1.
        -13    1    5    5    0    0 -0.11801684313E+03 -0.15537874586E+03 -0.69173753404E+02  0.20701579187E+03  0.00000000000E+00 0. -1.
          3    1    6    6  503    0  0.25402498591E+03  0.11498531224E+03  0.58724531184E+02  0.28495418239E+03  0.00000000000E+00 0. -1.
         -3    1    6    6    0  503  0.19005292447E+02 -0.45207157908E+01 -0.19831192279E+02  0.27837280748E+02  0.00000000000E+00 0.  1.
<mgrwt>
<rscale>  0 0.15062641E+04</rscale>
<asrwt>0</asrwt>
<pdfrwt beam="1">  1        2 0.14961235E+00 0.15062641E+04</pdfrwt>
<pdfrwt beam="2">  1       -2 0.89732159E-01 0.15062641E+04</pdfrwt>
<totfact> 0.26976320E+01</totfact>
</mgrwt>
</event>
<event>
12    3  0.4192740E-008  0.1440316E+04  0.7818608E-02  0.8925142E-01
          2   -1    0    0  501    0  0.00000000000E+00  0.00000000000E+00  0.57087058177E+03  0.57087058177E+03  0.00000000000E+00 0. -1.
         -2   -1    0    0    0  501 -0.00000000000E+00 -0.00000000000E+00 -0.90848530094E+03  0.90848530094E+03  0.00000000000E+00 0.  1.
         23    2    1    2    0    0 -0.16565265170E+03 -0.34502605404E+03 -0.30112226952E+03  0.49547545754E+03  0.91310069780E+02 0.  0.
        254    2    1    2    0    0  0.16565265170E+03  0.34502605404E+03 -0.36492449643E+02  0.98388042517E+03  0.90565181675E+03 0.  0.
         23    2    4    4    0    0 -0.17475010668E+03  0.17757168101E+03 -0.37941934861E+03  0.46317778203E+03  0.92224259192E+02 0.  0.
         23    2    4    4    0    0  0.34040275838E+03  0.16745437303E+03  0.34292689896E+03  0.52070264315E+03  0.98068239455E+02 0.  0.
          4    1    3    3  502    0 -0.13180505187E+03 -0.21545150377E+03 -0.15086134275E+03  0.29419562694E+03  0.00000000000E+00 0. -1.
         -4    1    3    3    0  502 -0.33847599826E+02 -0.12957455026E+03 -0.15026092677E+03  0.20127983059E+03  0.00000000000E+00 0.  1.
         13    1    5    5    0    0 -0.17350231806E+03  0.15412008205E+03 -0.37217625332E+03  0.43860143365E+03  0.00000000000E+00 0.  1.
        -13    1    5    5    0    0 -0.12477886208E+01  0.23451598960E+02 -0.72430952864E+01  0.24576348377E+02  0.00000000000E+00 0. -1.
          1    1    6    6  503    0  0.96609592626E+02  0.17225600715E+02  0.46659350063E+02  0.10866107700E+03  0.00000000000E+00 0. -1.
         -1    1    6    6    0  503  0.24379316575E+03  0.15022877231E+03  0.29626754890E+03  0.41204156614E+03  0.00000000000E+00 0.  1.
<mgrwt>
<rscale>  0 0.14403160E+04</rscale>
<asrwt>0</asrwt>
<pdfrwt beam="1">  1        2 0.87826243E-01 0.14403160E+04</pdfrwt>
<pdfrwt beam="2">  1       -2 0.13976697E+00 0.14403160E+04</pdfrwt>
<totfact> 0.18423122E+01</totfact>
</mgrwt>
</event>
<event>
12    3  0.4192740E-008  0.2428640E+04  0.7818608E-02  0.8428859E-01
          2   -1    0    0  501    0  0.00000000000E+00  0.00000000000E+00  0.11275299228E+04  0.11275299228E+04  0.00000000000E+00 0. -1.
         -2   -1    0    0    0  501 -0.00000000000E+00 -0.00000000000E+00 -0.13077902408E+04  0.13077902408E+04  0.00000000000E+00 0.  1.
         23    2    1    2    0    0  0.15355252388E+03  0.10306037465E+04 -0.53363687009E+02  0.10473117752E+04  0.91059384651E+02 0.  0.
        254    2    1    2    0    0 -0.15355252388E+03 -0.10306037465E+04 -0.12689663101E+03  0.13880083883E+04  0.90815311005E+03 0.  0.
         23    2    4    4    0    0 -0.93458312655E+02 -0.42073865777E+02 -0.34395275339E+03  0.36995084417E+03  0.89752237577E+02 0.  0.
         23    2    4    4    0    0 -0.60094211228E+02 -0.98852988070E+03  0.21705612238E+03  0.10180575442E+04  0.92331813084E+02 0.  0.
          2    1    3    3  502    0  0.13883560561E+02  0.36931944014E+03 -0.34321684950E+02  0.37117055403E+03  0.00000000000E+00 0.  1.
         -2    1    3    3    0  502  0.13966896332E+03  0.66128430634E+03 -0.19042002059E+02  0.67614122117E+03  0.00000000000E+00 0. -1.
         13    1    5    5    0    0  0.71131773947E+01  0.20489866743E+01  0.14196764183E+01  0.75373151833E+01  0.00000000000E+00 0. -1.
        -13    1    5    5    0    0 -0.10057149005E+03 -0.44122852452E+02 -0.34537242981E+03  0.36241352899E+03  0.00000000000E+00 0.  1.
          4    1    6    6  503    0  0.13441252480E+02 -0.87942471963E+02  0.38806131493E+02  0.97059061837E+02  0.00000000000E+00 0. -1.
         -4    1    6    6    0  503 -0.73535463708E+02 -0.90058740874E+03  0.17824999089E+03  0.92099848233E+03  0.00000000000E+00 0.  1.
<mgrwt>
<rscale>  0 0.24286396E+04</rscale>
<asrwt>0</asrwt>
<pdfrwt beam="1">  1        2 0.17346614E+00 0.24286396E+04</pdfrwt>
<pdfrwt beam="2">  1       -2 0.20119850E+00 0.24286396E+04</pdfrwt>
<totfact> 0.24549706E+00</totfact>
</mgrwt>
</event>
<event>
12    3  0.4192740E-008  0.1590009E+04  0.7818608E-02  0.8826709E-01
          2   -1    0    0  501    0  0.00000000000E+00  0.00000000000E+00  0.34180613379E+03  0.34180613379E+03  0.00000000000E+00 0. -1.
         -2   -1    0    0    0  501 -0.00000000000E+00 -0.00000000000E+00 -0.18490955886E+04  0.18490955886E+04  0.00000000000E+00 0.  1.
         23    2    1    2    0    0 -0.72265619330E+02  0.51034399242E+03 -0.68295053819E+03  0.86120301999E+03  0.97856495406E+02 0.  0.
        254    2    1    2    0    0  0.72265619330E+02 -0.51034399242E+03 -0.82433891660E+03  0.13296987024E+04  0.90713322029E+03 0.  0.
         23    2    4    4    0    0  0.15302070707E+03 -0.28499809814E+03  0.11585355823E+03  0.35538190444E+03  0.90746891454E+02 0.  0.
         23    2    4    4    0    0 -0.80755087743E+02 -0.22534589427E+03 -0.94019247482E+03  0.97431679794E+03  0.89605673731E+02 0.  0.
          4    1    3    3  502    0 -0.31144779629E+02  0.12045599759E+03 -0.10487107960E+03  0.16271935346E+03  0.00000000000E+00 0. -1.
         -4    1    3    3    0  502 -0.41120839702E+02  0.38988799483E+03 -0.57807945859E+03  0.69848366653E+03  0.00000000000E+00 0.  1.
         13    1    5    5    0    0  0.22826394788E+02 -0.57201852105E+02  0.62283786607E+02  0.87592044487E+02  0.00000000000E+00 0.  1.
        -13    1    5    5    0    0  0.13019431229E+03 -0.22779624604E+03  0.53569771621E+02  0.26778985995E+03  0.00000000000E+00 0. -1.
          3    1    6    6  503    0  0.19323501839E+02 -0.51274555829E+02 -0.19723227129E+03  0.20470233667E+03  0.00000000000E+00 0.  1.
         -3    1    6    6    0  503 -0.10007858958E+03 -0.17407133845E+03 -0.74296020354E+03  0.76961446127E+03  0.00000000000E+00 0. -1.
<mgrwt>
<rscale>  0 0.15900091E+04</rscale>
<asrwt>0</asrwt>
<pdfrwt beam="1">  1        2 0.52585560E-01 0.15900091E+04</pdfrwt>
<pdfrwt beam="2">  1       -2 0.28447624E+00 0.15900091E+04</pdfrwt>
<totfact> 0.36087380E+00</totfact>
</mgrwt>
</event>
<event>
12    3  0.4192740E-008  0.1873681E+04  0.7818608E-02  0.8668069E-01
         -2   -1    0    0    0  501 -0.00000000000E+00  0.00000000000E+00  0.45712172457E+03  0.45712172457E+03  0.00000000000E+00 0. -1.
          2   -1    0    0  501    0  0.00000000000E+00 -0.00000000000E+00 -0.19199929936E+04  0.19199929936E+04  0.00000000000E+00 0.  1.
         23    2    1    2    0    0  0.70906202503E+02  0.36230020498E+03 -0.13431443115E+04  0.13957859321E+04  0.88840298564E+02 0.  0.
        254    2    1    2    0    0 -0.70906202503E+02 -0.36230020498E+03 -0.11972695745E+03  0.98132878600E+03  0.90132264690E+03 0.  0.
         23    2    4    4    0    0 -0.56036981483E+02 -0.32824224705E+03  0.35606226700E+03  0.49559291948E+03  0.89156535454E+02 0.  0.
         23    2    4    4    0    0 -0.14869221019E+02 -0.34057957923E+02 -0.47578922445E+03  0.48573586652E+03  0.90459425623E+02 0.  0.
          3    1    3    3  502    0 -0.87641086637E+01  0.35433313207E+02 -0.70075886452E+02  0.79012398696E+02  0.00000000000E+00 0. -1.
         -3    1    3    3    0  502  0.79670311166E+02  0.32686689177E+03 -0.12730684251E+04  0.13167735335E+04  0.00000000000E+00 0.  1.
         13    1    5    5    0    0  0.39351958356E+01 -0.99349193892E+02  0.58286587444E+02  0.11525222067E+03  0.00000000000E+00 0.  1.
        -13    1    5    5    0    0 -0.59972177319E+02 -0.22889305316E+03  0.29777567956E+03  0.38034069881E+03  0.00000000000E+00 0. -1.
          3    1    6    6  503    0 -0.42912366701E+02 -0.38521614779E+02 -0.19049596768E+03  0.19903291115E+03  0.00000000000E+00 0.  1.
         -3    1    6    6    0  503  0.28043145682E+02  0.44636568560E+01 -0.28529325678E+03  0.28670295536E+03  0.00000000000E+00 0. -1.
<mgrwt>
<rscale>  0 0.18736814E+04</rscale>
<asrwt>0</asrwt>
<pdfrwt beam="1">  1        2 0.29538353E+00 0.18736814E+04</pdfrwt>
<pdfrwt beam="2">  1       -2 0.70326420E-01 0.18736814E+04</pdfrwt>
<totfact> 0.12781690E+01</totfact>
</mgrwt>
</event>
<event>
12    3  0.4192740E-008  0.1911605E+04  0.7818608E-02  0.8649101E-01
          1   -1    0    0  501    0  0.00000000000E+00  0.00000000000E+00  0.27654962878E+04  0.27654962878E+04  0.00000000000E+00 0. -1.
         -1   -1    0    0    0  501 -0.00000000000E+00 -0.00000000000E+00 -0.33034162426E+03  0.33034162426E+03  0.00000000000E+00 0.  1.
         23    2    1    2    0    0  0.52979726647E+03  0.30846395084E+03  0.16310922021E+04  0.17449144402E+04  0.91812197110E+02 0.  0.
        254    2    1    2    0    0 -0.52979726647E+03 -0.30846395084E+03  0.80406246146E+03  0.13509234718E+04  0.89590324940E+03 0.  0.
         23    2    4    4    0    0  0.35153512797E+02 -0.32980063102E+03 -0.22511867756E+02  0.34509476496E+03  0.92624980043E+02 0.  0.
         23    2    4    4    0    0 -0.56495077926E+03  0.21336680180E+02  0.82657432922E+03  0.10058287069E+04  0.94029936374E+02 0.  0.
          3    1    3    3  502    0  0.96836937245E+02  0.27379360633E+02  0.20729675487E+03  0.23043212967E+03  0.00000000000E+00 0. -1.
         -3    1    3    3    0  502  0.43296032922E+03  0.28108459020E+03  0.14237954472E+04  0.15144823106E+04  0.00000000000E+00 0.  1.
         13    1    5    5    0    0  0.18907613868E+02 -0.81684470253E+02  0.33377281505E+02  0.90243523110E+02  0.00000000000E+00 0. -1.
        -13    1    5    5    0    0  0.16245898929E+02 -0.24811616076E+03 -0.55889149262E+02  0.25485124184E+03  0.00000000000E+00 0.  1.
          1    1    6    6  503    0 -0.21793713068E+03 -0.31149971752E+02  0.36023220296E+03  0.42217786977E+03  0.00000000000E+00 0. -1.
         -1    1    6    6    0  503 -0.34701364858E+03  0.52486651932E+02  0.46634212625E+03  0.58365083710E+03  0.00000000000E+00 0.  1.
<mgrwt>
<rscale>  0 0.19116051E+04</rscale>
<asrwt>0</asrwt>
<pdfrwt beam="1">  1        1 0.42546095E+00 0.19116051E+04</pdfrwt>
<pdfrwt beam="2">  1       -1 0.50821790E-01 0.19116051E+04</pdfrwt>
<totfact> 0.32120227E+00</totfact>
</mgrwt>
</event>
<event>
12    3  0.4192740E-008  0.1171526E+04  0.7818608E-02  0.9138151E-01
         -1   -1    0    0    0  501 -0.00000000000E+00  0.00000000000E+00  0.18692550809E+03  0.18692550809E+03  0.00000000000E+00 0.  1.
          1   -1    0    0  501    0  0.00000000000E+00 -0.00000000000E+00 -0.18355898114E+04  0.18355898114E+04  0.00000000000E+00 0. -1.
         23    2    1    2    0    0  0.20060791060E+02  0.22317840739E+03 -0.23802776622E+03  0.33879970899E+03  0.88977460391E+02 0.  0.
        254    2    1    2    0    0 -0.20060791060E+02 -0.22317840739E+03 -0.14106365371E+04  0.16837156105E+04  0.89151095359E+03 0.  0.
         23    2    4    4    0    0 -0.22164953316E+03 -0.28572121670E+03 -0.14013536398E+04  0.14503071489E+04  0.93987622483E+02 0.  0.
         23    2    4    4    0    0  0.20158874210E+03  0.62542809313E+02 -0.92828972966E+01  0.23340846159E+03  0.99215491843E+02 0.  0.
          4    1    3    3  502    0 -0.14671251605E+02  0.25633068714E+02 -0.74061311574E+02  0.79733165668E+02  0.00000000000E+00 0. -1.
         -4    1    3    3    0  502  0.34732042664E+02  0.19754533868E+03 -0.16396645464E+03  0.25906654332E+03  0.00000000000E+00 0.  1.
         13    1    5    5    0    0 -0.80331625258E+01 -0.46704219516E+02 -0.28207081966E+03  0.28602406040E+03  0.00000000000E+00 0.  1.
        -13    1    5    5    0    0 -0.21361637063E+03 -0.23901699719E+03 -0.11192828201E+04  0.11642830885E+04  0.00000000000E+00 0. -1.
          3    1    6    6  503    0  0.20112517300E+03  0.76455740289E+02  0.24833957628E+01  0.21518127867E+03  0.00000000000E+00 0. -1.
         -3    1    6    6    0  503  0.46356909837E+00 -0.13912930976E+02 -0.11766293059E+02  0.18227182915E+02  0.00000000000E+00 0.  1.
<mgrwt>
<rscale>  0 0.11715265E+04</rscale>
<asrwt>0</asrwt>
<pdfrwt beam="1">  1        1 0.28239843E+00 0.11715265E+04</pdfrwt>
<pdfrwt beam="2">  1       -1 0.28757771E-01 0.11715265E+04</pdfrwt>
<totfact> 0.42038216E+01</totfact>
</mgrwt>
</event>
<event>
12    3  0.4192740E-008  0.1888032E+04  0.7818608E-02  0.8660836E-01
         -1   -1    0    0    0  501 -0.00000000000E+00  0.00000000000E+00  0.13141880050E+04  0.13141880050E+04  0.00000000000E+00 0.  1.
          1   -1    0    0  501    0  0.00000000000E+00 -0.00000000000E+00 -0.67811188792E+03  0.67811188792E+03  0.00000000000E+00 0. -1.
         23    2    1    2    0    0 -0.46642092672E+03  0.31880190633E+03  0.73674074881E+03  0.93302274658E+03  0.92527716437E+02 0.  0.
        254    2    1    2    0    0  0.46642092672E+03 -0.31880190633E+03 -0.10066463172E+03  0.10592771464E+04  0.89036597440E+03 0.  0.
         23    2    4    4    0    0  0.46659639770E+03 -0.19963651598E+03  0.32389024825E+03  0.60897169084E+03  0.91513334953E+02 0.  0.
         23    2    4    4    0    0 -0.17547098412E+00 -0.11916539035E+03 -0.42455487997E+03  0.45030545552E+03  0.91256430583E+02 0.  0.
          2    1    3    3  502    0 -0.24006535573E+03  0.15922334288E+03  0.30032984248E+03  0.41615076862E+03  0.00000000000E+00 0. -1.
         -2    1    3    3    0  502 -0.22635557099E+03  0.15957856345E+03  0.43641090634E+03  0.51687197796E+03  0.00000000000E+00 0.  1.
         13    1    5    5    0    0  0.21609490907E+03 -0.10116800375E+03  0.20559965880E+03  0.31496538604E+03  0.00000000000E+00 0.  1.
        -13    1    5    5    0    0  0.25050148863E+03 -0.98468512235E+02  0.11829058945E+03  0.29400630480E+03  0.00000000000E+00 0. -1.
          4    1    6    6  503    0 -0.19119478060E+02 -0.98023054478E+01 -0.15587872118E+02  0.26544705509E+02  0.00000000000E+00 0. -1.
         -4    1    6    6    0  503  0.18944007076E+02 -0.10936308490E+03 -0.40896700785E+03  0.42376075001E+03  0.00000000000E+00 0.  1.
<mgrwt>
<rscale>  0 0.18880323E+04</rscale>
<asrwt>0</asrwt>
<pdfrwt beam="1">  1        1 0.10432491E+00 0.18880323E+04</pdfrwt>
<pdfrwt beam="2">  1       -1 0.20218277E+00 0.18880323E+04</pdfrwt>
<totfact> 0.38918113E+00</totfact>
</mgrwt>
</event>
<event>
12    3  0.4192740E-008  0.1995230E+04  0.7818608E-02  0.8608854E-01
          1   -1    0    0  501    0  0.00000000000E+00  0.00000000000E+00  0.73962135936E+03  0.73962135936E+03  0.00000000000E+00 0. -1.
         -1   -1    0    0    0  501 -0.00000000000E+00 -0.00000000000E+00 -0.13456020497E+04  0.13456020497E+04  0.00000000000E+00 0.  1.
         23    2    1    2    0    0  0.70113765350E+03  0.35160880261E+03 -0.39311241486E+03  0.88212482047E+03  0.91564561585E+02 0.  0.
        254    2    1    2    0    0 -0.70113765350E+03 -0.35160880261E+03 -0.21286827551E+03  0.12030985886E+04  0.88707978899E+03 0.  0.
         23    2    4    4    0    0  0.81049592796E+02  0.16960577974E+03 -0.14931128879E+03  0.25615359794E+03  0.89362451642E+02 0.  0.
         23    2    4    4    0    0 -0.78218724629E+03 -0.52121458235E+03 -0.63556986721E+02  0.94694499070E+03  0.95832122612E+02 0.  0.
          4    1    3    3  502    0  0.59548220009E+02  0.28226808153E+02 -0.63969349286E+02  0.91841280766E+02  0.00000000000E+00 0. -1.
         -4    1    3    3    0  502  0.64158943349E+03  0.32338199446E+03 -0.32914306558E+03  0.79028353970E+03  0.00000000000E+00 0.  1.
         13    1    5    5    0    0  0.88542901001E+02  0.16278646653E+03 -0.15744341887E+03  0.24316189905E+03  0.00000000000E+00 0.  1.
        -13    1    5    5    0    0 -0.74933082049E+01  0.68193132083E+01  0.81321300779E+01  0.12991698892E+02  0.00000000000E+00 0. -1.
          4    1    6    6  503    0  0.15994338777E+01  0.17003734227E+01  0.96797027013E+00  0.25271376990E+01  0.00000000000E+00 0. -1.
         -4    1    6    6    0  503 -0.78378668017E+03 -0.52291495578E+03 -0.64524956991E+02  0.94441785300E+03  0.00000000000E+00 0.  1.
<mgrwt>
<rscale>  0 0.19952303E+04</rscale>
<asrwt>0</asrwt>
<pdfrwt beam="1">  1        1 0.11378790E+00 0.19952303E+04</pdfrwt>
<pdfrwt beam="2">  1       -1 0.20701570E+00 0.19952303E+04</pdfrwt>
<totfact> 0.31288443E+00</totfact>
</mgrwt>
</event>
<event>
12    3  0.4192740E-008  0.1648644E+04  0.7818608E-02  0.8791209E-01
          1   -1    0    0  501    0  0.00000000000E+00  0.00000000000E+00  0.16485449339E+04  0.16485449339E+04  0.00000000000E+00 0.  1.
         -1   -1    0    0    0  501 -0.00000000000E+00 -0.00000000000E+00 -0.41218558589E+03  0.41218558589E+03  0.00000000000E+00 0. -1.
         23    2    1    2    0    0 -0.32404859276E+03  0.45049758334E+03  0.25267899718E+03  0.61647472164E+03  0.90768076627E+02 0.  0.
        254    2    1    2    0    0  0.32404859276E+03 -0.45049758334E+03  0.98368035086E+03  0.14442557982E+04  0.90016232694E+03 0.  0.
         23    2    4    4    0    0  0.36485638044E+01  0.12440313866E+03 -0.92675406760E+02  0.17951957208E+03  0.90272325842E+02 0.  0.
         23    2    4    4    0    0  0.32040002896E+03 -0.57490072201E+03  0.10763557576E+04  0.12647362261E+04  0.88594502884E+02 0.  0.
          4    1    3    3  502    0 -0.10714804747E+03  0.13263907217E+03  0.12358191374E+03  0.21058565228E+03  0.00000000000E+00 0. -1.
         -4    1    3    3    0  502 -0.21690054530E+03  0.31785851117E+03  0.12909708345E+03  0.40588906936E+03  0.00000000000E+00 0.  1.
         13    1    5    5    0    0  0.34259314018E+01  0.43682010842E+01  0.16409009160E+02  0.17322637452E+02  0.00000000000E+00 0.  1.
        -13    1    5    5    0    0  0.22263240265E+00  0.12003493758E+03 -0.10908441592E+03  0.16219693462E+03  0.00000000000E+00 0. -1.
          4    1    6    6  503    0  0.18491043568E+02 -0.48064752919E+02  0.47495003217E+02  0.70056509305E+02  0.00000000000E+00 0.  1.
         -4    1    6    6    0  503  0.30190898539E+03 -0.52683596909E+03  0.10288607544E+04  0.11946797168E+04  0.00000000000E+00 0. -1.
<mgrwt>
<rscale>  0 0.16486436E+04</rscale>
<asrwt>0</asrwt>
<pdfrwt beam="1">  1        1 0.25362229E+00 0.16486436E+04</pdfrwt>
<pdfrwt beam="2">  1       -1 0.63413168E-01 0.16486436E+04</pdfrwt>
<totfact> 0.12457139E+01</totfact>
</mgrwt>
</event>
<event>
12    3  0.4192740E-008  0.2941261E+04  0.7818608E-02  0.8260706E-01
          1   -1    0    0  501    0  0.00000000000E+00  0.00000000000E+00  0.17553823528E+04  0.17553823528E+04  0.00000000000E+00 0. -1.
         -1   -1    0    0    0  501 -0.00000000000E+00 -0.00000000000E+00 -0.12320704441E+04  0.12320704441E+04  0.00000000000E+00 0.  1.
         23    2    1    2    0    0 -0.25428282482E+03  0.55035591449E+03  0.14128661293E+04  0.15407021449E+04  0.10010500660E+03 0.  0.
        254    2    1    2    0    0  0.25428282482E+03 -0.55035591449E+03 -0.88955422063E+03  0.14467506520E+04  0.96655540458E+03 0.  0.
         23    2    4    4    0    0 -0.51394250440E+01 -0.66292730991E+03 -0.93010695059E+03  0.11460855722E+04  0.94414868766E+02 0.  0.
         23    2    4    4    0    0  0.25942224986E+03  0.11257139542E+03  0.40552729962E+02  0.30066507980E+03  0.93716292667E+02 0.  0.
          3    1    3    3  502    0 -0.12900061448E+03  0.19985581839E+03  0.46350148020E+03  0.52097709050E+03  0.00000000000E+00 0.  1.
         -3    1    3    3    0  502 -0.12528221034E+03  0.35050009610E+03  0.94936464913E+03  0.10197250544E+04  0.00000000000E+00 0. -1.
         13    1    5    5    0    0 -0.46441386892E+02 -0.37157930638E+03 -0.55025678410E+03  0.66559034833E+03  0.00000000000E+00 0. -1.
        -13    1    5    5    0    0  0.41301961848E+02 -0.29134800354E+03 -0.37985016649E+03  0.48049522391E+03  0.00000000000E+00 0.  1.
          2    1    6    6  503    0  0.18004618667E+03  0.51455508309E+02 -0.11810933376E+02  0.18762674867E+03  0.00000000000E+00 0. -1.
         -2    1    6    6    0  503  0.79376063193E+02  0.61115887114E+02  0.52363663338E+02  0.11303833113E+03  0.00000000000E+00 0.  1.
<mgrwt>
<rscale>  0 0.29412614E+04</rscale>
<asrwt>0</asrwt>
<pdfrwt beam="1">  1        1 0.27005882E+00 0.29412614E+04</pdfrwt>
<pdfrwt beam="2">  1       -1 0.18954930E+00 0.29412614E+04</pdfrwt>
<totfact> 0.66519605E-01</totfact>
</mgrwt>
</event>
<event>
12    3  0.4192740E-008  0.1234270E+04  0.7818608E-02  0.9083378E-01
         -2   -1    0    0    0  501 -0.00000000000E+00  0.00000000000E+00  0.12239400525E+03  0.12239400525E+03  0.00000000000E+00 0. -1.
          2   -1    0    0  501    0  0.00000000000E+00 -0.00000000000E+00 -0.31117179898E+04  0.31117179898E+04  0.00000000000E+00 0.  1.
         23    2    1    2    0    0 -0.60398690551E+02  0.30553522383E+02 -0.13889711421E+04  0.13946948030E+04  0.10654220009E+03 0.  0.
        254    2    1    2    0    0  0.60398690551E+02 -0.30553522383E+02 -0.16003528425E+04  0.18394171921E+04  0.90429246737E+03 0.  0.
         23    2    4    4    0    0 -0.37836200370E+03 -0.65460529659E+02 -0.41644126208E+03  0.57305587214E+03  0.86757253576E+02 0.  0.
         23    2    4    4    0    0  0.43876069425E+03  0.34907007276E+02 -0.11839115805E+04  0.12663613200E+04  0.91076431932E+02 0.  0.
          1    1    3    3  502    0  0.62289854361E+01 -0.26192817819E+02 -0.13412924054E+03  0.13680466780E+03  0.00000000000E+00 0. -1.
         -1    1    3    3    0  502 -0.66627675987E+02  0.56746340202E+02 -0.12548419015E+04  0.12578901352E+04  0.00000000000E+00 0.  1.
         13    1    5    5    0    0 -0.75370866450E+02 -0.14828324449E+02 -0.14049307312E+03  0.16012167345E+03  0.00000000000E+00 0.  1.
        -13    1    5    5    0    0 -0.30299113725E+03 -0.50632205209E+02 -0.27594818896E+03  0.41293419869E+03  0.00000000000E+00 0. -1.
          3    1    6    6  503    0  0.37088730371E+03 -0.37942171441E+01 -0.99824552084E+03  0.10649253063E+04  0.00000000000E+00 0. -1.
         -3    1    6    6    0  503  0.67873390535E+02  0.38701224420E+02 -0.18566605962E+03  0.20143601369E+03  0.00000000000E+00 0.  1.
<mgrwt>
<rscale>  0 0.12342700E+04</rscale>
<asrwt>0</asrwt>
<pdfrwt beam="1">  1        2 0.47872581E+00 0.12342700E+04</pdfrwt>
<pdfrwt beam="2">  1       -2 0.18829848E-01 0.12342700E+04</pdfrwt>
<totfact> 0.35132093E+01</totfact>
</mgrwt>
</event>
<event>
12    3  0.4192740E-008  0.1572677E+04  0.7818608E-02  0.8837512E-01
         -2   -1    0    0    0  501 -0.00000000000E+00  0.00000000000E+00  0.77709405486E+03  0.77709405486E+03  0.00000000000E+00 0.  1.
          2   -1    0    0  501    0  0.00000000000E+00 -0.00000000000E+00 -0.79569260685E+03  0.79569260685E+03  0.00000000000E+00 0. -1.
         23    2    1    2    0    0 -0.50921312778E+03  0.16733255713E+02  0.10944664823E+03  0.52923436429E+03  0.92371165362E+02 0.  0.
        254    2    1    2    0    0  0.50921312778E+03 -0.16733255713E+02 -0.12804520021E+03  0.10435522974E+04  0.90168054919E+03 0.  0.
         23    2    4    4    0    0 -0.10278968867E+03  0.25139426023E+03 -0.22184286058E+03  0.36261700327E+03  0.92260728913E+02 0.  0.
         23    2    4    4    0    0  0.61200281646E+03 -0.26812751595E+03  0.93797660365E+02  0.68093529414E+03  0.91842591207E+02 0.  0.
          4    1    3    3  502    0 -0.28833638795E+03  0.12632273394E+02  0.10845333095E+03  0.30831732345E+03  0.00000000000E+00 0. -1.
         -4    1    3    3    0  502 -0.22087673983E+03  0.41009823193E+01  0.99331727564E+00  0.22091704084E+03  0.00000000000E+00 0.  1.
         13    1    5    5    0    0 -0.57655776367E+02  0.47299472639E+02 -0.35516875084E+02  0.82600708691E+02  0.00000000000E+00 0.  1.
        -13    1    5    5    0    0 -0.45133912307E+02  0.20409478759E+03 -0.18632598549E+03  0.28001629458E+03  0.00000000000E+00 0. -1.
          2    1    6    6  503    0 -0.13638577878E+01 -0.74973116974E+01 -0.13343756528E+01  0.77363007398E+01  0.00000000000E+00 0. -1.
         -2    1    6    6    0  503  0.61336667424E+03 -0.26063020425E+03  0.95132036018E+02  0.67319899340E+03  0.00000000000E+00 0.  1.
<mgrwt>
<rscale>  0 0.15726767E+04</rscale>
<asrwt>0</asrwt>
<pdfrwt beam="1">  1        2 0.12241425E+00 0.15726767E+04</pdfrwt>
<pdfrwt beam="2">  1       -2 0.11955293E+00 0.15726767E+04</pdfrwt>
<totfact> 0.17867194E+01</totfact>
</mgrwt>
</event>
<event>
12    3  0.4192740E-008  0.1501167E+04  0.7818608E-02  0.8883678E-01
         -1   -1    0    0    0  501 -0.00000000000E+00  0.00000000000E+00  0.52747680506E+03  0.52747680506E+03  0.00000000000E+00 0.  1.
          1   -1    0    0  501    0  0.00000000000E+00 -0.00000000000E+00 -0.10680569386E+04  0.10680569386E+04  0.00000000000E+00 0. -1.
         23    2    1    2    0    0 -0.15013011237E+03 -0.92464579260E+02 -0.66583546898E+03  0.69471876423E+03  0.90600996469E+02 0.  0.
        254    2    1    2    0    0  0.15013011237E+03  0.92464579260E+02  0.12525533542E+03  0.90081497946E+03  0.87446553912E+03 0.  0.
         23    2    4    4    0    0  0.32656494435E+03 -0.91558541343E+02 -0.25347675847E+03  0.43288589446E+03  0.90067203635E+02 0.  0.
         23    2    4    4    0    0 -0.17643483198E+03  0.18402312060E+03  0.37873209388E+03  0.46792908500E+03  0.10259566655E+03 0.  0.
          2    1    3    3  502    0 -0.74398293298E+02 -0.58584381493E+02 -0.50440309213E+03  0.51321507690E+03  0.00000000000E+00 0. -1.
         -2    1    3    3    0  502 -0.75731819072E+02 -0.33880197767E+02 -0.16143237685E+03  0.18150368734E+03  0.00000000000E+00 0.  1.
         13    1    5    5    0    0  0.11047046412E+03 -0.20645164705E+02 -0.35483716696E+02  0.11785177308E+03  0.00000000000E+00 0.  1.
        -13    1    5    5    0    0  0.21609448023E+03 -0.70913376638E+02 -0.21799304177E+03  0.31503412138E+03  0.00000000000E+00 0. -1.
          3    1    6    6  503    0 -0.12109629748E+03  0.15568488561E+03  0.34447171820E+03  0.39694188682E+03  0.00000000000E+00 0. -1.
         -3    1    6    6    0  503 -0.55338534502E+02  0.28338234991E+02  0.34260375686E+02  0.70987198180E+02  0.00000000000E+00 0.  1.
<mgrwt>
<rscale>  0 0.15011666E+04</rscale>
<asrwt>0</asrwt>
<pdfrwt beam="1">  1        1 0.16431645E+00 0.15011666E+04</pdfrwt>
<pdfrwt beam="2">  1       -1 0.81150279E-01 0.15011666E+04</pdfrwt>
<totfact> 0.19622952E+01</totfact>
</mgrwt>
</event>
<event>
12    3  0.4192740E-008  0.2498111E+04  0.7818608E-02  0.8403659E-01
          1   -1    0    0  501    0  0.00000000000E+00  0.00000000000E+00  0.11134828197E+04  0.11134828197E+04  0.00000000000E+00 0. -1.
         -1   -1    0    0    0  501 -0.00000000000E+00 -0.00000000000E+00 -0.14011345121E+04  0.14011345121E+04  0.00000000000E+00 0.  1.
         23    2    1    2    0    0  0.25209208858E+03  0.10093657711E+04 -0.42922377206E+03  0.11305793020E+04  0.10773500195E+03 0.  0.
        254    2    1    2    0    0 -0.25209208858E+03 -0.10093657711E+04  0.14157207965E+03  0.13840380298E+04  0.90174771041E+03 0.  0.
         23    2    4    4    0    0 -0.26370632403E+03 -0.11634467901E+04  0.10784630671E+03  0.12012950769E+04  0.91266516537E+02 0.  0.
         23    2    4    4    0    0  0.11614235448E+02  0.15408101902E+03  0.33725772941E+02  0.18274295295E+03  0.91551669582E+02 0.  0.
          3    1    3    3  502    0  0.51071697440E+02  0.78836383371E+02 -0.37545574612E+02  0.10115910140E+03  0.00000000000E+00 0. -1.
         -3    1    3    3    0  502  0.20102039114E+03  0.93052938772E+03 -0.39167819745E+03  0.10294202006E+04  0.00000000000E+00 0.  1.
         13    1    5    5    0    0 -0.41000129173E+02 -0.30574657718E+03 -0.10654980450E+01  0.30848519468E+03  0.00000000000E+00 0.  1.
        -13    1    5    5    0    0 -0.22270619486E+03 -0.85770021294E+03  0.10891180475E+03  0.89280988218E+03  0.00000000000E+00 0. -1.
          4    1    6    6  503    0  0.10580503529E+02  0.15734839713E+01 -0.18640859880E+02  0.21491965098E+02  0.00000000000E+00 0. -1.
         -4    1    6    6    0  503  0.10337319191E+01  0.15250753505E+03  0.52366632820E+02  0.16125098785E+03  0.00000000000E+00 0.  1.
<mgrwt>
<rscale>  0 0.24981107E+04</rscale>
<asrwt>0</asrwt>
<pdfrwt beam="1">  1        1 0.17130505E+00 0.24981107E+04</pdfrwt>
<pdfrwt beam="2">  1       -1 0.21555916E+00 0.24981107E+04</pdfrwt>
<totfact> 0.12973701E+00</totfact>
</mgrwt>
</event>
<event>
12    3  0.4192740E-008  0.1178037E+04  0.7818608E-02  0.9132301E-01
          2   -1    0    0  501    0  0.00000000000E+00  0.00000000000E+00  0.57398774377E+03  0.57398774377E+03  0.00000000000E+00 0.  1.
         -2   -1    0    0    0  501 -0.00000000000E+00 -0.00000000000E+00 -0.60444263158E+03  0.60444263158E+03  0.00000000000E+00 0. -1.
         23    2    1    2    0    0 -0.19211010206E+03  0.12615744112E+03  0.83644496282E+01  0.24942064842E+03  0.96533437627E+02 0.  0.
        254    2    1    2    0    0  0.19211010206E+03 -0.12615744112E+03 -0.38819337432E+02  0.92900972693E+03  0.89929424579E+03 0.  0.
         23    2    4    4    0    0  0.42241461077E+03  0.14083266050E+03 -0.23923976509E+03  0.51355573142E+03  0.90751762625E+02 0.  0.
         23    2    4    4    0    0 -0.23030450871E+03 -0.26699010162E+03  0.20042042766E+03  0.41545399550E+03  0.90054391707E+02 0.  0.
          3    1    3    3  502    0 -0.42119712379E+02  0.68311416329E+02  0.33023872337E+02  0.86781887026E+02  0.00000000000E+00 0. -1.
         -3    1    3    3    0  502 -0.14999038968E+03  0.57846024787E+02 -0.24659422709E+02  0.16263876140E+03  0.00000000000E+00 0.  1.
         13    1    5    5    0    0  0.78223231842E+02  0.39153124937E+02 -0.10833350819E+02  0.88143080739E+02  0.00000000000E+00 0. -1.
        -13    1    5    5    0    0  0.34419137893E+03  0.10167953556E+03 -0.22840641427E+03  0.42541265068E+03  0.00000000000E+00 0.  1.
          2    1    6    6  503    0 -0.11204487955E+03 -0.67813795191E+02  0.55685312986E+02  0.14231521329E+03  0.00000000000E+00 0.  1.
         -2    1    6    6    0  503 -0.11825962916E+03 -0.19917630642E+03  0.14473511467E+03  0.27313878221E+03  0.00000000000E+00 0. -1.
<mgrwt>
<rscale>  0 0.11780368E+04</rscale>
<asrwt>0</asrwt>
<pdfrwt beam="1">  1        2 0.88305807E-01 0.11780368E+04</pdfrwt>
<pdfrwt beam="2">  1       -2 0.92991174E-01 0.11780368E+04</pdfrwt>
<totfact> 0.50665708E+01</totfact>
</mgrwt>
</event>
<event>
12    3  0.4192740E-008  0.1445660E+04  0.7818608E-02  0.8921415E-01
         -2   -1    0    0    0  501 -0.00000000000E+00  0.00000000000E+00  0.41740927896E+03  0.41740927896E+03  0.00000000000E+00 0.  1.
          2   -1    0    0  501    0  0.00000000000E+00 -0.00000000000E+00 -0.12517296138E+04  0.12517296138E+04  0.00000000000E+00 0. -1.
         23    2    1    2    0    0 -0.19630534869E+03  0.34209074886E+02 -0.69819853415E+03  0.72968845546E+03  0.72512055582E+02 0.  0.
        254    2    1    2    0    0  0.19630534869E+03 -0.34209074886E+02 -0.13612180072E+03  0.93945043734E+03  0.90792727069E+03 0.  0.
         23    2    4    4    0    0 -0.10502455051E+02 -0.41206027009E+03 -0.24237597537E+03  0.48608203203E+03  0.87325028948E+02 0.  0.
         23    2    4    4    0    0  0.20680780374E+03  0.37785119520E+03  0.10625417465E+03  0.45336840531E+03  0.93337923173E+02 0.  0.
          1    1    3    3  502    0 -0.11182485610E+03  0.35723570005E+02 -0.29043177357E+03  0.31325961596E+03  0.00000000000E+00 0. -1.
         -1    1    3    3    0  502 -0.84480492588E+02 -0.15144951194E+01 -0.40776676059E+03  0.41642883950E+03  0.00000000000E+00 0.  1.
         13    1    5    5    0    0 -0.28090686172E+01 -0.17288393555E+03 -0.15221360294E+03  0.23035999426E+03  0.00000000000E+00 0. -1.
        -13    1    5    5    0    0 -0.76933864343E+01 -0.23917633454E+03 -0.90162372430E+02  0.25572203777E+03  0.00000000000E+00 0.  1.
          2    1    6    6  503    0  0.18771470540E+03  0.31713374592E+03  0.57041828067E+02  0.37291338616E+03  0.00000000000E+00 0.  1.
         -2    1    6    6    0  503  0.19093098336E+02  0.60717449282E+02  0.49212346580E+02  0.80455019155E+02  0.00000000000E+00 0. -1.
<mgrwt>
<rscale>  0 0.14456605E+04</rscale>
<asrwt>0</asrwt>
<pdfrwt beam="1">  1        2 0.19257379E+00 0.14456605E+04</pdfrwt>
<pdfrwt beam="2">  1       -2 0.64216812E-01 0.14456605E+04</pdfrwt>
<totfact> 0.38358764E+01</totfact>
</mgrwt>
</event>
<event>
12    3  0.4192740E-008  0.1875760E+04  0.7818608E-02  0.8667017E-01
          2   -1    0    0  501    0  0.00000000000E+00  0.00000000000E+00  0.18629188406E+04  0.18629188406E+04  0.00000000000E+00 0. -1.
         -2   -1    0    0    0  501 -0.00000000000E+00 -0.00000000000E+00 -0.47217227682E+03  0.47217227682E+03  0.00000000000E+00 0.  1.
         23    2    1    2    0    0  0.44119547897E+03 -0.44024686881E+03  0.85896414806E+02  0.63490872821E+03  0.85206472230E+02 0.  0.
        254    2    1    2    0    0 -0.44119547897E+03  0.44024686881E+03  0.13048501490E+04  0.17001823892E+04  0.89415630017E+03 0.  0.
         23    2    4    4    0    0  0.11900179643E+03 -0.18545584594E+03  0.22451706915E+03  0.32860086685E+03  0.94949023227E+02 0.  0.
         23    2    4    4    0    0 -0.56019727540E+03  0.62570271475E+03  0.10803330798E+04  0.13715815224E+04  0.93762649852E+02 0.  0.
          3    1    3    3  502    0  0.25973572938E+02 -0.58843895275E+02  0.19466377246E+02  0.67202457882E+02  0.00000000000E+00 0. -1.
         -3    1    3    3    0  502  0.41522190604E+03 -0.38140297354E+03  0.66430037561E+02  0.56770627032E+03  0.00000000000E+00 0.  1.
         13    1    5    5    0    0 -0.88166528382E+01 -0.53799821533E+02  0.34883568950E+02  0.64722620056E+02  0.00000000000E+00 0. -1.
        -13    1    5    5    0    0  0.12781844926E+03 -0.13165602440E+03  0.18963350020E+03  0.26387824679E+03  0.00000000000E+00 0.  1.
          1    1    6    6  503    0 -0.76269928356E+02  0.44826313414E+02  0.12877839896E+03  0.15623820398E+03  0.00000000000E+00 0. -1.
         -1    1    6    6    0  503 -0.48392734704E+03  0.58087640133E+03  0.95155468088E+03  0.12153433184E+04  0.00000000000E+00 0.  1.
<mgrwt>
<rscale>  0 0.18757597E+04</rscale>
<asrwt>0</asrwt>
<pdfrwt beam="1">  1        2 0.28660289E+00 0.18757597E+04</pdfrwt>
<pdfrwt beam="2">  1       -2 0.72641890E-01 0.18757597E+04</pdfrwt>
<totfact> 0.12802606E+01</totfact>
</mgrwt>
</event>
<event>
12    3  0.4192740E-008  0.1575772E+04  0.7818608E-02  0.8835572E-01
         -1   -1    0    0    0  501 -0.00000000000E+00  0.00000000000E+00  0.44296252523E+03  0.44296252523E+03  0.00000000000E+00 0.  1.
          1   -1    0    0  501    0  0.00000000000E+00 -0.00000000000E+00 -0.14013921268E+04  0.14013921268E+04  0.00000000000E+00 0. -1.
         23    2    1    2    0    0  0.43967202123E+03 -0.34413262894E+02  0.21592545811E+02  0.44778077479E+03  0.74468955455E+02 0.  0.
        254    2    1    2    0    0 -0.43967202123E+03  0.34413262894E+02 -0.98002214735E+03  0.13965738772E+04  0.89189653341E+03 0.  0.
         23    2    4    4    0    0 -0.17132283525E+03 -0.36593221948E+03 -0.74454958873E+03  0.85202100905E+03  0.91256817030E+02 0.  0.
         23    2    4    4    0    0 -0.26834918598E+03  0.40034548237E+03 -0.23547255862E+03  0.54455286816E+03  0.93822755695E+02 0.  0.
          1    1    3    3  502    0  0.13069375761E+03 -0.41388075013E+02 -0.79115151844E+01  0.13731869175E+03  0.00000000000E+00 0. -1.
         -1    1    3    3    0  502  0.30897826362E+03  0.69748121192E+01  0.29504060996E+02  0.31046208304E+03  0.00000000000E+00 0.  1.
         13    1    5    5    0    0 -0.41593114697E+01  0.13816727822E+01  0.77690205194E+00  0.44511199015E+01  0.00000000000E+00 0.  1.
        -13    1    5    5    0    0 -0.16716352378E+03 -0.36731389226E+03 -0.74532649079E+03  0.84756988915E+03  0.00000000000E+00 0. -1.
          4    1    6    6  503    0 -0.15662037233E+03  0.27695391174E+03 -0.19524461857E+03  0.37330131441E+03  0.00000000000E+00 0.  1.
         -4    1    6    6    0  503 -0.11172881364E+03  0.12339157063E+03 -0.40227940048E+02  0.17125155375E+03  0.00000000000E+00 0. -1.
<mgrwt>
<rscale>  0 0.15757718E+04</rscale>
<asrwt>0</asrwt>
<pdfrwt beam="1">  1        1 0.21559879E+00 0.15757718E+04</pdfrwt>
<pdfrwt beam="2">  1       -1 0.68148081E-01 0.15757718E+04</pdfrwt>
<totfact> 0.16064731E+01</totfact>
</mgrwt>
</event>
<event>
12    3  0.4192740E-008  0.1931697E+04  0.7818608E-02  0.8639237E-01
          1   -1    0    0  501    0  0.00000000000E+00  0.00000000000E+00  0.14016958915E+04  0.14016958915E+04  0.00000000000E+00 0. -1.
         -1   -1    0    0    0  501 -0.00000000000E+00 -0.00000000000E+00 -0.66552499529E+03  0.66552499529E+03  0.00000000000E+00 0.  1.
         23    2    1    2    0    0 -0.33692010903E+03 -0.55056366876E+03  0.70898987379E+03  0.96311295233E+03  0.91018704536E+02 0.  0.
        254    2    1    2    0    0  0.33692010903E+03  0.55056366876E+03  0.27181022419E+02  0.11041079345E+04  0.89536585245E+03 0.  0.
         23    2    4    4    0    0 -0.10645904845E+03 -0.18109950504E+03 -0.65761336887E+02  0.23878607527E+03  0.92540135055E+02 0.  0.
         23    2    4    4    0    0  0.44337915748E+03  0.73166317379E+03  0.92942359306E+02  0.86532185919E+03  0.90705901992E+02 0.  0.
          2    1    3    3  502    0 -0.14733894651E+03 -0.25196168461E+03  0.38757618039E+03  0.48518939733E+03  0.00000000000E+00 0. -1.
         -2    1    3    3    0  502 -0.18958116252E+03 -0.29860198415E+03  0.32141369340E+03  0.47792355500E+03  0.00000000000E+00 0.  1.
         13    1    5    5    0    0 -0.56543138077E+02 -0.16719935032E+03 -0.40257098657E+02  0.18103420451E+03  0.00000000000E+00 0. -1.
        -13    1    5    5    0    0 -0.49915910369E+02 -0.13900154717E+02 -0.25504238230E+02  0.57751870765E+02  0.00000000000E+00 0.  1.
          1    1    6    6  503    0  0.20774857976E+03  0.39755731215E+03  0.13078334055E+02  0.44875642799E+03  0.00000000000E+00 0. -1.
         -1    1    6    6    0  503  0.23563057772E+03  0.33410586164E+03  0.79864025251E+02  0.41656543120E+03  0.00000000000E+00 0.  1.
<mgrwt>
<rscale>  0 0.19316973E+04</rscale>
<asrwt>0</asrwt>
<pdfrwt beam="1">  1        1 0.21564552E+00 0.19316973E+04</pdfrwt>
<pdfrwt beam="2">  1       -1 0.10238846E+00 0.19316973E+04</pdfrwt>
<totfact> 0.64533396E+00</totfact>
</mgrwt>
</event>
<event>
12    3  0.4192740E-008  0.1294719E+04  0.7818608E-02  0.9033763E-01
         -2   -1    0    0    0  501 -0.00000000000E+00  0.00000000000E+00  0.25285359296E+03  0.25285359296E+03  0.00000000000E+00 0.  1.
          2   -1    0    0  501    0  0.00000000000E+00 -0.00000000000E+00 -0.16573804061E+04  0.16573804061E+04  0.00000000000E+00 0. -1.
         23    2    1    2    0    0 -0.37886632108E+02 -0.27705181668E+03 -0.64469732550E+03  0.70908854036E+03  0.94756585749E+02 0.  0.
        254    2    1    2    0    0  0.37886632108E+02  0.27705181668E+03 -0.75982948767E+03  0.12011454587E+04  0.88725219452E+03 0.  0.
         23    2    4    4    0    0 -0.21332582052E+03  0.68573835169E+02  0.11125430358E+03  0.26641865410E+03  0.91602961816E+02 0.  0.
         23    2    4    4    0    0  0.25121245263E+03  0.20847798151E+03 -0.87108379125E+03  0.93472680464E+03  0.91413690406E+02 0.  0.
          4    1    3    3  502    0  0.18632392325E+02 -0.15303422963E+02 -0.89441284204E+02  0.92634249164E+02  0.00000000000E+00 0. -1.
         -4    1    3    3    0  502 -0.56519024432E+02 -0.26174839372E+03 -0.55525604129E+03  0.61645429119E+03  0.00000000000E+00 0.  1.
         13    1    5    5    0    0 -0.10837649171E+03  0.11746010855E+02  0.92201184978E+01  0.10940038076E+03  0.00000000000E+00 0. -1.
        -13    1    5    5    0    0 -0.10494932882E+03  0.56827824315E+02  0.10203418508E+03  0.15701827333E+03  0.00000000000E+00 0.  1.
          2    1    6    6  503    0  0.22330981126E+03  0.13788449696E+03 -0.65053831451E+03  0.70148378809E+03  0.00000000000E+00 0. -1.
         -2    1    6    6    0  503  0.27902641370E+02  0.70593484558E+02 -0.22054547674E+03  0.23324301655E+03  0.00000000000E+00 0.  1.
<mgrwt>
<rscale>  0 0.12947194E+04</rscale>
<asrwt>0</asrwt>
<pdfrwt beam="1">  1        2 0.25498159E+00 0.12947194E+04</pdfrwt>
<pdfrwt beam="2">  1       -2 0.38900554E-01 0.12947194E+04</pdfrwt>
<totfact> 0.63417874E+01</totfact>
</mgrwt>
</event>
<event>
12    3  0.4192740E-008  0.1366666E+04  0.7818608E-02  0.8978307E-01
         -1   -1    0    0    0  501 -0.00000000000E+00  0.00000000000E+00  0.42118205744E+03  0.42118205744E+03  0.00000000000E+00 0.  1.
          1   -1    0    0  501    0  0.00000000000E+00 -0.00000000000E+00 -0.11086518524E+04  0.11086518524E+04  0.00000000000E+00 0. -1.
         23    2    1    2    0    0 -0.18390785559E+03  0.28932366192E+03 -0.42048388440E+03  0.55000742945E+03  0.90394660864E+02 0.  0.
        254    2    1    2    0    0  0.18390785559E+03 -0.28932366192E+03 -0.26698591053E+03  0.97982648036E+03  0.87820736418E+03 0.  0.
         23    2    4    4    0    0  0.41544998317E+03 -0.18037356897E+03  0.14736838038E+03  0.48467480875E+03  0.89771475462E+02 0.  0.
         23    2    4    4    0    0 -0.23154212758E+03 -0.10895009295E+03 -0.41435429091E+03  0.49515167161E+03  0.89464070494E+02 0.  0.
          4    1    3    3  502    0 -0.17623785464E+03  0.25856615623E+03 -0.41168767431E+03  0.51711022010E+03  0.00000000000E+00 0. -1.
         -4    1    3    3    0  502 -0.76700009483E+01  0.30757505692E+02 -0.87962100955E+01  0.32897209350E+02  0.00000000000E+00 0.  1.
         13    1    5    5    0    0  0.11274487032E+03 -0.90096834509E+02  0.28124321339E+02  0.14703680771E+03  0.00000000000E+00 0. -1.
        -13    1    5    5    0    0  0.30270511284E+03 -0.90276734463E+02  0.11924405904E+03  0.33763800104E+03  0.00000000000E+00 0.  1.
          3    1    6    6  503    0 -0.46086824791E+02  0.59234757389E+01 -0.37498403126E+02  0.59709406471E+02  0.00000000000E+00 0. -1.
         -3    1    6    6    0  503 -0.18545530279E+03 -0.11487356869E+03 -0.37685588778E+03  0.43544226514E+03  0.00000000000E+00 0.  1.
<mgrwt>
<rscale>  0 0.13666664E+04</rscale>
<asrwt>0</asrwt>
<pdfrwt beam="1">  1        1 0.17056182E+00 0.13666664E+04</pdfrwt>
<pdfrwt beam="2">  1       -1 0.64797240E-01 0.13666664E+04</pdfrwt>
<totfact> 0.29486804E+01</totfact>
</mgrwt>
</event>
<event>
12    3  0.4192740E-008  0.2416947E+04  0.7818608E-02  0.8433186E-01
          2   -1    0    0  501    0  0.00000000000E+00  0.00000000000E+00  0.15118084409E+04  0.15118084409E+04  0.00000000000E+00 0.  1.
         -2   -1    0    0    0  501 -0.00000000000E+00 -0.00000000000E+00 -0.96600060331E+03  0.96600060331E+03  0.00000000000E+00 0. -1.
         23    2    1    2    0    0 -0.52327677454E+03 -0.87943976251E+03  0.18074195498E+03  0.10454361821E+04  0.11417652118E+03 0.  0.
        254    2    1    2    0    0  0.52327677454E+03  0.87943976251E+03  0.36506588262E+03  0.14323728621E+04  0.93337347225E+03 0.  0.
         23    2    4    4    0    0 -0.33793571076E+02  0.80887794879E+03  0.24363951476E+03  0.85053398707E+03  0.92856386566E+02 0.  0.
         23    2    4    4    0    0  0.55707034561E+03  0.70561813718E+02  0.12142636786E+03  0.58183887500E+03  0.92118261680E+02 0.  0.
          4    1    3    3  502    0 -0.37779382837E+03 -0.67649751095E+03  0.18115206380E+03  0.79573433336E+03  0.00000000000E+00 0. -1.
         -4    1    3    3    0  502 -0.14548294617E+03 -0.20294225157E+03 -0.41010882378E+00  0.24970184878E+03  0.00000000000E+00 0.  1.
         13    1    5    5    0    0  0.18271931151E+02  0.16461837086E+03  0.21256403995E+02  0.16698774267E+03  0.00000000000E+00 0. -1.
        -13    1    5    5    0    0 -0.52065502227E+02  0.64425957794E+03  0.22238311076E+03  0.68354624440E+03  0.00000000000E+00 0.  1.
          3    1    6    6  503    0  0.52805610541E+02 -0.30366680058E+01  0.38750341539E+02  0.65568611595E+02  0.00000000000E+00 0. -1.
         -3    1    6    6    0  503  0.50426473507E+03  0.73598481724E+02  0.82676026322E+02  0.51627026341E+03  0.00000000000E+00 0.  1.
<mgrwt>
<rscale>  0 0.24169467E+04</rscale>
<asrwt>0</asrwt>
<pdfrwt beam="1">  1        2 0.23258591E+00 0.24169467E+04</pdfrwt>
<pdfrwt beam="2">  1       -2 0.14861548E+00 0.24169467E+04</pdfrwt>
<totfact> 0.34475038E+00</totfact>
</mgrwt>
</event>
<event>
12    3  0.4192740E-008  0.1734974E+04  0.7818608E-02  0.8741665E-01
          2   -1    0    0  501    0  0.00000000000E+00  0.00000000000E+00  0.90411019707E+03  0.90411019707E+03  0.00000000000E+00 0. -1.
         -2   -1    0    0    0  501 -0.00000000000E+00 -0.00000000000E+00 -0.83234689870E+03  0.83234689870E+03  0.00000000000E+00 0.  1.
         23    2    1    2    0    0 -0.14592833715E+03  0.59671253823E+03 -0.10390111707E+03  0.62966626262E+03  0.91231722991E+02 0.  0.
        254    2    1    2    0    0  0.14592833715E+03 -0.59671253823E+03  0.17566441544E+03  0.11067908332E+04  0.90375164101E+03 0.  0.
         23    2    4    4    0    0  0.21939694531E+03  0.70042197681E+02 -0.21209427222E+03  0.32573707417E+03  0.89887330111E+02 0.  0.
         23    2    4    4    0    0 -0.73468608158E+02 -0.66675473591E+03  0.38775868765E+03  0.78105375898E+03  0.98633971433E+02 0.  0.
          2    1    3    3  502    0 -0.39810516304E+01  0.18993781631E+03 -0.24000125353E+02  0.19148950063E+03  0.00000000000E+00 0. -1.
         -2    1    3    3    0  502 -0.14194728552E+03  0.40677472193E+03 -0.79900991716E+02  0.43817676198E+03  0.00000000000E+00 0.  1.
         13    1    5    5    0    0  0.78015210929E+02 -0.15807274278E+02 -0.49147878122E+02  0.93550825653E+02  0.00000000000E+00 0.  1.
        -13    1    5    5    0    0  0.14138173438E+03  0.85849471959E+02 -0.16294639409E+03  0.23218624852E+03  0.00000000000E+00 0. -1.
          3    1    6    6  503    0 -0.26828067564E+02 -0.49681228123E+03  0.32358631614E+03  0.59350677501E+03  0.00000000000E+00 0. -1.
         -3    1    6    6    0  503 -0.46640540594E+02 -0.16994245469E+03  0.64172371510E+02  0.18754698397E+03  0.00000000000E+00 0.  1.
<mgrwt>
<rscale>  0 0.17349736E+04</rscale>
<asrwt>0</asrwt>
<pdfrwt beam="1">  1        2 0.13909388E+00 0.17349736E+04</pdfrwt>
<pdfrwt beam="2">  1       -2 0.12805337E+00 0.17349736E+04</pdfrwt>
<totfact> 0.12473450E+01</totfact>
</mgrwt>
</event>
<event>
12    3  0.4192740E-008  0.1661839E+04  0.7818608E-02  0.8783433E-01
         -2   -1    0    0    0  501 -0.00000000000E+00  0.00000000000E+00  0.40488967218E+03  0.40488967218E+03  0.00000000000E+00 0.  1.
          2   -1    0    0  501    0  0.00000000000E+00 -0.00000000000E+00 -0.17052233350E+04  0.17052233350E+04  0.00000000000E+00 0. -1.
         23    2    1    2    0    0 -0.18458213283E+03 -0.51559903686E+03 -0.73718832655E+03  0.92303997377E+03  0.92968993851E+02 0.  0.
        254    2    1    2    0    0  0.18458213283E+03  0.51559903686E+03 -0.56314533632E+03  0.11870730334E+04  0.88999819458E+03 0.  0.
         23    2    4    4    0    0 -0.31956399589E+03  0.10708370192E+03 -0.35827178314E+03  0.50046009068E+03  0.92268982248E+02 0.  0.
         23    2    4    4    0    0  0.50414612872E+03  0.40851533493E+03 -0.20487355318E+03  0.68661294276E+03  0.91739099597E+02 0.  0.
          1    1    3    3  502    0 -0.10087055164E+03 -0.39727367000E+03 -0.56389085309E+03  0.69711844852E+03  0.00000000000E+00 0. -1.
         -1    1    3    3    0  502 -0.83711581193E+02 -0.11832536685E+03 -0.17329747345E+03  0.22592152525E+03  0.00000000000E+00 0.  1.
         13    1    5    5    0    0 -0.17469146227E+02 -0.82181044560E+01 -0.50453492813E+02  0.54020951933E+02  0.00000000000E+00 0. -1.
        -13    1    5    5    0    0 -0.30209484967E+03  0.11530180638E+03 -0.30781829033E+03  0.44643913875E+03  0.00000000000E+00 0.  1.
          3    1    6    6  503    0  0.33256167772E+03  0.29453970366E+03 -0.17922464224E+03  0.47903275348E+03  0.00000000000E+00 0. -1.
         -3    1    6    6    0  503  0.17158445100E+03  0.11397563127E+03 -0.25648910936E+02  0.20758018928E+03  0.00000000000E+00 0.  1.
<mgrwt>
<rscale>  0 0.16618391E+04</rscale>
<asrwt>0</asrwt>
<pdfrwt beam="1">  1        2 0.26234205E+00 0.16618391E+04</pdfrwt>
<pdfrwt beam="2">  1       -2 0.62290720E-01 0.16618391E+04</pdfrwt>
<totfact> 0.22233328E+01</totfact>
</mgrwt>
</event>
<event>
12    3  0.4192740E-008  0.1076428E+04  0.7818608E-02  0.9228476E-01
          2   -1    0    0  501    0  0.00000000000E+00  0.00000000000E+00  0.72989981403E+03  0.72989981403E+03  0.00000000000E+00 0. -1.
         -2   -1    0    0    0  501 -0.00000000000E+00 -0.00000000000E+00 -0.39686850129E+03  0.39686850129E+03  0.00000000000E+00 0.  1.
         23    2    1    2    0    0 -0.13010892878E+03 -0.32079119958E+02  0.15334159479E+02  0.16361069109E+03  0.92606255217E+02 0.  0.
        254    2    1    2    0    0  0.13010892878E+03  0.32079119958E+02  0.31769715326E+03  0.96315762424E+03  0.89932403763E+03 0.  0.
         23    2    4    4    0    0 -0.71433975076E+02 -0.36376235191E+03  0.33866185814E+03  0.50964451377E+03  0.87291550499E+02 0.  0.
         23    2    4    4    0    0  0.20154290386E+03  0.39584147187E+03 -0.20964704886E+02  0.45351311047E+03  0.89020276196E+02 0.  0.
          2    1    3    3  502    0 -0.10834913014E+03 -0.62061976663E+02  0.19318121190E+02  0.12635035717E+03  0.00000000000E+00 0. -1.
         -2    1    3    3    0  502 -0.21759798639E+02  0.29982856705E+02 -0.39839617112E+01  0.37260333921E+02  0.00000000000E+00 0.  1.
         13    1    5    5    0    0 -0.10403833470E+02 -0.31342847148E+02  0.27608554402E+01  0.33139646060E+02  0.00000000000E+00 0.  1.
        -13    1    5    5    0    0 -0.61030141607E+02 -0.33241950476E+03  0.33590100270E+03  0.47650486771E+03  0.00000000000E+00 0. -1.
          2    1    6    6  503    0  0.71519688722E+02  0.10484393316E+03 -0.43067041428E+02  0.13402270797E+03  0.00000000000E+00 0. -1.
         -2    1    6    6    0  503  0.13002321514E+03  0.29099753871E+03  0.22102336543E+02  0.31949040250E+03  0.00000000000E+00 0.  1.
<mgrwt>
<rscale>  0 0.10764279E+04</rscale>
<asrwt>0</asrwt>
<pdfrwt beam="1">  1        2 0.11229228E+00 0.10764279E+04</pdfrwt>
<pdfrwt beam="2">  1       -2 0.61056693E-01 0.10764279E+04</pdfrwt>
<totfact> 0.96423515E+01</totfact>
</mgrwt>
</event>
<event>
12    3  0.4192740E-008  0.1675326E+04  0.7818608E-02  0.8775563E-01
          2   -1    0    0  501    0  0.00000000000E+00  0.00000000000E+00  0.18752991672E+04  0.18752991672E+04  0.00000000000E+00 0. -1.
         -2   -1    0    0    0  501 -0.00000000000E+00 -0.00000000000E+00 -0.37416926554E+03  0.37416926554E+03  0.00000000000E+00 0.  1.
         23    2    1    2    0    0  0.33061857210E+02  0.39268248825E+02  0.13059289417E+04  0.13100530271E+04  0.90296462631E+02 0.  0.
        254    2    1    2    0    0 -0.33061857210E+02 -0.39268248825E+02  0.19520095988E+03  0.93941540560E+03  0.91747632545E+03 0.  0.
         23    2    4    4    0    0 -0.44322109196E+03 -0.15948874329E+03  0.13262659242E+03  0.49807598347E+03  0.92780799175E+02 0.  0.
         23    2    4    4    0    0  0.41015923475E+03  0.12022049447E+03  0.62574367462E+02  0.44133942213E+03  0.90450919930E+02 0.  0.
          4    1    3    3  502    0  0.57276025562E+02  0.33438123230E+02  0.11688313490E+04  0.11707114818E+04  0.00000000000E+00 0. -1.
         -4    1    3    3    0  502 -0.24214168352E+02  0.58301255949E+01  0.13709759273E+03  0.13934154530E+03  0.00000000000E+00 0.  1.
         13    1    5    5    0    0 -0.12475038719E+03 -0.38687357395E+01  0.21837554846E+02  0.12670637325E+03  0.00000000000E+00 0. -1.
        -13    1    5    5    0    0 -0.31847070477E+03 -0.15562000755E+03  0.11078903757E+03  0.37136961022E+03  0.00000000000E+00 0.  1.
          2    1    6    6  503    0  0.16990725578E+03  0.93278569978E+01  0.45696999550E+02  0.17619222528E+03  0.00000000000E+00 0. -1.
         -2    1    6    6    0  503  0.24025197897E+03  0.11089263747E+03  0.16877367913E+02  0.26514719684E+03  0.00000000000E+00 0.  1.
<mgrwt>
<rscale>  0 0.16753260E+04</rscale>
<asrwt>0</asrwt>
<pdfrwt beam="1">  1        2 0.28850756E+00 0.16753260E+04</pdfrwt>
<pdfrwt beam="2">  1       -2 0.57564504E-01 0.16753260E+04</pdfrwt>
<totfact> 0.21117413E+01</totfact>
</mgrwt>
</event>
<event>
12    3  0.4192740E-008  0.1639522E+04  0.7818608E-02  0.8796630E-01
         -2   -1    0    0    0  501 -0.00000000000E+00  0.00000000000E+00  0.20662929443E+03  0.20662929443E+03  0.00000000000E+00 0. -1.
          2   -1    0    0  501    0  0.00000000000E+00 -0.00000000000E+00 -0.32522382524E+04  0.32522382524E+04  0.00000000000E+00 0.  1.
         23    2    1    2    0    0 -0.19289695099E+03  0.14438462724E+03 -0.21509771223E+04  0.21663469068E+04  0.91105354821E+02 0.  0.
        254    2    1    2    0    0  0.19289695099E+03 -0.14438462724E+03 -0.89463183561E+03  0.12925206400E+04  0.90121436360E+03 0.  0.
         23    2    4    4    0    0  0.49711291237E+03  0.11179461170E+03 -0.57680921883E+03  0.77531401111E+03  0.93721171746E+02 0.  0.
         23    2    4    4    0    0 -0.30421596138E+03 -0.25617923894E+03 -0.31782261678E+03  0.51720662886E+03  0.91193901011E+02 0.  0.
          4    1    3    3  502    0 -0.18451516412E+03  0.11203944622E+03 -0.20053766797E+04  0.20169616533E+04  0.00000000000E+00 0.  1.
         -4    1    3    3    0  502 -0.83817868748E+01  0.32345181022E+02 -0.14560044259E+03  0.14938525352E+03  0.00000000000E+00 0. -1.
         13    1    5    5    0    0  0.55019761159E+02  0.10556349689E+02 -0.25861881545E+02  0.61704518098E+02  0.00000000000E+00 0.  1.
        -13    1    5    5    0    0  0.44209315122E+03  0.10123826201E+03 -0.55094733729E+03  0.71360949301E+03  0.00000000000E+00 0. -1.
          2    1    6    6  503    0 -0.25082202841E+03 -0.24220281450E+03 -0.29765138915E+03  0.45844328194E+03  0.00000000000E+00 0. -1.
         -2    1    6    6    0  503 -0.53393932968E+02 -0.13976424436E+02 -0.20171227626E+02  0.58763346924E+02  0.00000000000E+00 0.  1.
<mgrwt>
<rscale>  0 0.16395215E+04</rscale>
<asrwt>0</asrwt>
<pdfrwt beam="1">  1        2 0.50034431E+00 0.16395215E+04</pdfrwt>
<pdfrwt beam="2">  1       -2 0.31789124E-01 0.16395215E+04</pdfrwt>
<totfact> 0.10622216E+01</totfact>
</mgrwt>
</event>
<event>
12    3  0.4192740E-008  0.1097943E+04  0.7818608E-02  0.9207199E-01
         -1   -1    0    0    0  501 -0.00000000000E+00  0.00000000000E+00  0.64434901781E+03  0.64434901781E+03  0.00000000000E+00 0. -1.
          1   -1    0    0  501    0  0.00000000000E+00 -0.00000000000E+00 -0.46771229280E+03  0.46771229280E+03  0.00000000000E+00 0.  1.
         23    2    1    2    0    0 -0.65149097112E+02  0.11752202954E+03  0.11369989058E+03  0.19706094904E+03  0.88597518223E+02 0.  0.
        254    2    1    2    0    0  0.65149097112E+02 -0.11752202954E+03  0.62936834429E+02  0.91500036158E+03  0.90288913178E+03 0.  0.
         23    2    4    4    0    0  0.16885668755E+03 -0.17092022977E+03 -0.37344207817E+03  0.45305996306E+03  0.89877908862E+02 0.  0.
         23    2    4    4    0    0 -0.10370759044E+03  0.53398200226E+02  0.43637891260E+03  0.46194039852E+03  0.96725096631E+02 0.  0.
          4    1    3    3  502    0 -0.30300308024E+02  0.88468640811E+02  0.24007871442E+02  0.96546294411E+02  0.00000000000E+00 0. -1.
         -4    1    3    3    0  502 -0.34848789088E+02  0.29053388732E+02  0.89692019138E+02  0.10051465463E+03  0.00000000000E+00 0.  1.
         13    1    5    5    0    0  0.31251216563E+02  0.33366789611E+01 -0.72967350350E+02  0.79448135159E+02  0.00000000000E+00 0. -1.
        -13    1    5    5    0    0  0.13760547099E+03 -0.17425690873E+03 -0.30047472782E+03  0.37361182790E+03  0.00000000000E+00 0.  1.
          3    1    6    6  503    0 -0.56875144042E+02 -0.17834003200E+02  0.11605489704E+03  0.13046674981E+03  0.00000000000E+00 0. -1.
         -3    1    6    6    0  503 -0.46832446401E+02  0.71232203427E+02  0.32032401557E+03  0.33147364871E+03  0.00000000000E+00 0.  1.
<mgrwt>
<rscale>  0 0.10979435E+04</rscale>
<asrwt>0</asrwt>
<pdfrwt beam="1">  1        1 0.71955737E-01 0.10979435E+04</pdfrwt>
<pdfrwt beam="2">  1       -1 0.99130618E-01 0.10979435E+04</pdfrwt>
<totfact> 0.47105532E+01</totfact>
</mgrwt>
</event>
<event>
12    3  0.4192740E-008  0.2110750E+04  0.7818608E-02  0.8556523E-01
          2   -1    0    0  501    0  0.00000000000E+00  0.00000000000E+00  0.92300754226E+03  0.92300754226E+03  0.00000000000E+00 0. -1.
         -2   -1    0    0    0  501 -0.00000000000E+00 -0.00000000000E+00 -0.12067252212E+04  0.12067252212E+04  0.00000000000E+00 0.  1.
         23    2    1    2    0    0 -0.55925377583E+03 -0.42403277005E+03 -0.61129674367E+03  0.93494941592E+03  0.88758806082E+02 0.  0.
        254    2    1    2    0    0  0.55925377583E+03  0.42403277005E+03  0.32757906472E+03  0.11947833475E+04  0.90974206677E+03 0.  0.
         23    2    4    4    0    0  0.79675210084E+03  0.27560673589E+03  0.29840785146E+03  0.89863178816E+03  0.87857053380E+02 0.  0.
         23    2    4    4    0    0 -0.23749832501E+03  0.14842603416E+03  0.29171213257E+02  0.29615155937E+03  0.91755351013E+02 0.  0.
          2    1    3    3  502    0 -0.37591976232E+03 -0.27125354791E+03 -0.34843021144E+03  0.57991186158E+03  0.00000000000E+00 0. -1.
         -2    1    3    3    0  502 -0.18333401351E+03 -0.15277922214E+03 -0.26286653223E+03  0.35503755434E+03  0.00000000000E+00 0.  1.
         13    1    5    5    0    0  0.53249547328E+03  0.21260237068E+03  0.16924048874E+03  0.59782400429E+03  0.00000000000E+00 0. -1.
        -13    1    5    5    0    0  0.26425662756E+03  0.63004365213E+02  0.12916736273E+03  0.30080778387E+03  0.00000000000E+00 0.  1.
          3    1    6    6  503    0 -0.18757695904E+03  0.13188423389E+03 -0.11621785459E+02  0.22959449604E+03  0.00000000000E+00 0. -1.
         -3    1    6    6    0  503 -0.49921365964E+02  0.16541800264E+02  0.40792998715E+02  0.66557063336E+02  0.00000000000E+00 0.  1.
<mgrwt>
<rscale>  0 0.21107501E+04</rscale>
<asrwt>0</asrwt>
<pdfrwt beam="1">  1        2 0.14200116E+00 0.21107501E+04</pdfrwt>
<pdfrwt beam="2">  1       -2 0.18565003E+00 0.21107501E+04</pdfrwt>
<totfact> 0.43193495E+00</totfact>
</mgrwt>
</event>
<event>
12    3  0.4192740E-008  0.1478532E+04  0.7818608E-02  0.8898856E-01
         -2   -1    0    0    0  501 -0.00000000000E+00  0.00000000000E+00  0.39738541368E+03  0.39738541368E+03  0.00000000000E+00 0.  1.
          2   -1    0    0  501    0  0.00000000000E+00 -0.00000000000E+00 -0.13752741719E+04  0.13752741719E+04  0.00000000000E+00 0. -1.
         23    2    1    2    0    0  0.47486548471E+02 -0.40658979111E+03 -0.60036209313E+03  0.73170772593E+03  0.85972802676E+02 0.  0.
        254    2    1    2    0    0 -0.47486548471E+02  0.40658979111E+03 -0.37752666513E+03  0.10409518597E+04  0.87947948286E+03 0.  0.
         23    2    4    4    0    0 -0.29933048083E+03  0.41425022885E+03  0.65409795989E+02  0.52330083536E+03  0.91451265845E+02 0.  0.
         23    2    4    4    0    0  0.25184393236E+03 -0.76604377464E+01 -0.44293646112E+03  0.51765102432E+03  0.91026511637E+02 0.  0.
          4    1    3    3  502    0  0.20612647209E+02 -0.28652688000E+03 -0.35037086510E+03  0.45308087280E+03  0.00000000000E+00 0. -1.
         -4    1    3    3    0  502  0.26873901262E+02 -0.12006291110E+03 -0.24999122802E+03  0.27862685312E+03  0.00000000000E+00 0.  1.
         13    1    5    5    0    0 -0.23809474938E+03  0.26555112338E+03  0.25279324527E+02  0.35755496509E+03  0.00000000000E+00 0.  1.
        -13    1    5    5    0    0 -0.61235731452E+02  0.14869910547E+03  0.40130471462E+02  0.16574587028E+03  0.00000000000E+00 0. -1.
          3    1    6    6  503    0  0.32321671120E+02 -0.29572559541E+02 -0.45976884666E+02  0.63506697485E+02  0.00000000000E+00 0. -1.
         -3    1    6    6    0  503  0.21952226124E+03  0.21912121795E+02 -0.39695957645E+03  0.45414432683E+03  0.00000000000E+00 0.  1.
<mgrwt>
<rscale>  0 0.14785316E+04</rscale>
<asrwt>0</asrwt>
<pdfrwt beam="1">  1        2 0.21158064E+00 0.14785316E+04</pdfrwt>
<pdfrwt beam="2">  1       -2 0.61136218E-01 0.14785316E+04</pdfrwt>
<totfact> 0.36009281E+01</totfact>
</mgrwt>
</event>
<event>
12    3  0.4192740E-008  0.2224398E+04  0.7818608E-02  0.8508341E-01
         -1   -1    0    0    0  501 -0.00000000000E+00  0.00000000000E+00  0.66959804993E+03  0.66959804993E+03  0.00000000000E+00 0.  1.
          1   -1    0    0  501    0  0.00000000000E+00 -0.00000000000E+00 -0.18473567398E+04  0.18473567398E+04  0.00000000000E+00 0. -1.
         23    2    1    2    0    0  0.27013601014E+02 -0.82220601721E+03 -0.77386885684E+01  0.82723502313E+03  0.86633866420E+02 0.  0.
        254    2    1    2    0    0 -0.27013601014E+02  0.82220601721E+03 -0.11700200013E+04  0.16897197666E+04  0.89969640259E+03 0.  0.
         23    2    4    4    0    0  0.30117809047E+03  0.17404171035E+02 -0.15863719682E+03  0.35317640334E+03  0.92502239510E+02 0.  0.
         23    2    4    4    0    0 -0.32819169148E+03  0.80480184617E+03 -0.10113828045E+04  0.13365433633E+04  0.89650358145E+02 0.  0.
          3    1    3    3  502    0  0.12575732209E+02 -0.40841909197E+02  0.15320405831E+02  0.45397416471E+02  0.00000000000E+00 0. -1.
         -3    1    3    3    0  502  0.14437868805E+02 -0.78136410801E+03 -0.23059094399E+02  0.78183760666E+03  0.00000000000E+00 0.  1.
         13    1    5    5    0    0  0.22708859519E+03  0.29955249066E+02 -0.15757765391E+03  0.27802385513E+03  0.00000000000E+00 0.  1.
        -13    1    5    5    0    0  0.74089495281E+02 -0.12551078031E+02 -0.10595429049E+01  0.75152548206E+02  0.00000000000E+00 0. -1.
          2    1    6    6  503    0 -0.91940041074E+02  0.17285056555E+03 -0.27817913027E+03  0.34016748475E+03  0.00000000000E+00 0. -1.
         -2    1    6    6    0  503 -0.23625165041E+03  0.63195128062E+03 -0.73320367421E+03  0.99637587851E+03  0.00000000000E+00 0.  1.
<mgrwt>
<rscale>  0 0.22243979E+04</rscale>
<asrwt>0</asrwt>
<pdfrwt beam="1">  1        1 0.28420873E+00 0.22243979E+04</pdfrwt>
<pdfrwt beam="2">  1       -1 0.10301508E+00 0.22243979E+04</pdfrwt>
<totfact> 0.30626791E+00</totfact>
</mgrwt>
</event>
<event>
12    3  0.4192740E-008  0.1786658E+04  0.7818608E-02  0.8713427E-01
         -2   -1    0    0    0  501 -0.00000000000E+00  0.00000000000E+00  0.25510904841E+03  0.25510904841E+03  0.00000000000E+00 0.  1.
          2   -1    0    0  501    0  0.00000000000E+00 -0.00000000000E+00 -0.31282191875E+04  0.31282191875E+04  0.00000000000E+00 0. -1.
         23    2    1    2    0    0 -0.14448829376E+03 -0.65104880682E+03 -0.10617982301E+04  0.12571566637E+04  0.91027356917E+02 0.  0.
        254    2    1    2    0    0  0.14448829376E+03  0.65104880682E+03 -0.18113119090E+04  0.21261715722E+04  0.89163518717E+03 0.  0.
         23    2    4    4    0    0  0.49276488623E+03  0.50833740175E+03 -0.13190190453E+04  0.14998427806E+04  0.92157352172E+02 0.  0.
         23    2    4    4    0    0 -0.34827659247E+03  0.14271140507E+03 -0.49229286365E+03  0.62632879158E+03  0.90952523716E+02 0.  0.
          1    1    3    3  502    0 -0.14245365240E+03 -0.65388470863E+03 -0.10587568921E+04  0.12525272100E+04  0.00000000000E+00 0. -1.
         -1    1    3    3    0  502 -0.20346413626E+01  0.28359018058E+01 -0.30413380402E+01  0.46294537044E+01  0.00000000000E+00 0.  1.
         13    1    5    5    0    0  0.59419931862E+02  0.24651206808E+02 -0.12933227190E+03  0.14444807667E+03  0.00000000000E+00 0.  1.
        -13    1    5    5    0    0  0.43334495436E+03  0.48368619495E+03 -0.11896867734E+04  0.13553947039E+04  0.00000000000E+00 0. -1.
          3    1    6    6  503    0 -0.10563680357E+03  0.47283241487E-01 -0.14090103869E+03  0.17610292220E+03  0.00000000000E+00 0. -1.
         -3    1    6    6    0  503 -0.24263978890E+03  0.14266412183E+03 -0.35139182496E+03  0.45022586938E+03  0.00000000000E+00 0.  1.
<mgrwt>
<rscale>  0 0.17866584E+04</rscale>
<asrwt>0</asrwt>
<pdfrwt beam="1">  1        2 0.48126450E+00 0.17866584E+04</pdfrwt>
<pdfrwt beam="2">  1       -2 0.39247545E-01 0.17866584E+04</pdfrwt>
<totfact> 0.84149618E+00</totfact>
</mgrwt>
</event>
<event>
12    3  0.4192740E-008  0.1430316E+04  0.7818608E-02  0.8932162E-01
         -3   -1    0    0    0  501 -0.00000000000E+00  0.00000000000E+00  0.44010437144E+03  0.44010437144E+03  0.00000000000E+00 0.  1.
          3   -1    0    0  501    0  0.00000000000E+00 -0.00000000000E+00 -0.11621133426E+04  0.11621133426E+04  0.00000000000E+00 0. -1.
         23    2    1    2    0    0 -0.36490674835E+03  0.34023319068E+02 -0.42996019094E+03  0.57264379604E+03  0.93491337133E+02 0.  0.
        254    2    1    2    0    0  0.36490674835E+03 -0.34023319068E+02 -0.29204878026E+03  0.10295739180E+04  0.91674175285E+03 0.  0.
         23    2    4    4    0    0  0.53769647250E+03  0.94892685393E+02  0.10840721753E+03  0.56562823264E+03  0.10030480780E+03 0.  0.
         23    2    4    4    0    0 -0.17278972415E+03 -0.12891600446E+03 -0.40045599779E+03  0.46394568540E+03  0.91678611772E+02 0.  0.
          1    1    3    3  502    0 -0.55804303441E+01  0.57918470163E+01 -0.43310483643E+02  0.44050932886E+02  0.00000000000E+00 0. -1.
         -1    1    3    3    0  502 -0.35932631800E+03  0.28231472052E+02 -0.38664970730E+03  0.52859286315E+03  0.00000000000E+00 0.  1.
         13    1    5    5    0    0  0.13936665612E+03  0.70197905590E+02  0.30795662970E+02  0.15905717099E+03  0.00000000000E+00 0. -1.
        -13    1    5    5    0    0  0.39832981638E+03  0.24694779804E+02  0.77611554559E+02  0.40657106165E+03  0.00000000000E+00 0.  1.
          4    1    6    6  503    0 -0.96072827622E+01 -0.16896325070E+02 -0.26472318854E+01  0.19616154557E+02  0.00000000000E+00 0. -1.
         -4    1    6    6    0  503 -0.16318244139E+03 -0.11201967939E+03 -0.39780876590E+03  0.44432953084E+03  0.00000000000E+00 0.  1.
<mgrwt>
<rscale>  0 0.14303163E+04</rscale>
<asrwt>0</asrwt>
<pdfrwt beam="1">  1        3 0.17878667E+00 0.14303163E+04</pdfrwt>
<pdfrwt beam="2">  1       -3 0.67708365E-01 0.14303163E+04</pdfrwt>
<totfact> 0.10799679E+00</totfact>
</mgrwt>
</event>
<event>
12    3  0.4192740E-008  0.1257499E+04  0.7818608E-02  0.9063965E-01
         -2   -1    0    0    0  501 -0.00000000000E+00  0.00000000000E+00  0.72500990247E+03  0.72500990247E+03  0.00000000000E+00 0. -1.
          2   -1    0    0  501    0  0.00000000000E+00 -0.00000000000E+00 -0.54526947834E+03  0.54526947834E+03  0.00000000000E+00 0.  1.
         23    2    1    2    0    0  0.10994840482E+03  0.26123610715E+03  0.10722017467E+03  0.31643473392E+03  0.91114321429E+02 0.  0.
        254    2    1    2    0    0 -0.10994840482E+03 -0.26123610715E+03  0.72520249457E+02  0.95384464690E+03  0.90786974200E+03 0.  0.
         23    2    4    4    0    0 -0.41795386681E+03 -0.32688151357E+03 -0.14809206172E+03  0.55896848810E+03  0.94749951210E+02 0.  0.
         23    2    4    4    0    0  0.30800546199E+03  0.65645406415E+02  0.22061231118E+03  0.39487615880E+03  0.89892741354E+02 0.  0.
          4    1    3    3  502    0  0.93443037373E+02  0.17775232411E+03  0.11425484338E+03  0.23104471254E+03  0.00000000000E+00 0. -1.
         -4    1    3    3    0  502  0.16505367444E+02  0.83483783044E+02 -0.70346687077E+01  0.85390021370E+02  0.00000000000E+00 0.  1.
         13    1    5    5    0    0 -0.94036513060E+02 -0.11448455166E+03 -0.12917279997E+02  0.14871595234E+03  0.00000000000E+00 0.  1.
        -13    1    5    5    0    0 -0.32391735375E+03 -0.21239696191E+03 -0.13517478172E+03  0.41025253576E+03  0.00000000000E+00 0. -1.
          1    1    6    6  503    0  0.26280876720E+03  0.55387615707E+02  0.22208262934E+03  0.34850671493E+03  0.00000000000E+00 0. -1.
         -1    1    6    6    0  503  0.45196694786E+02  0.10257790708E+02 -0.14703181661E+01  0.46369443875E+02  0.00000000000E+00 0.  1.
<mgrwt>
<rscale>  0 0.12574987E+04</rscale>
<asrwt>0</asrwt>
<pdfrwt beam="1">  1        2 0.83887612E-01 0.12574987E+04</pdfrwt>
<pdfrwt beam="2">  1       -2 0.11153998E+00 0.12574987E+04</pdfrwt>
<totfact> 0.34728444E+01</totfact>
</mgrwt>
</event>
<event>
12    3  0.4192740E-008  0.2019012E+04  0.7818608E-02  0.8597783E-01
          4   -1    0    0  501    0  0.00000000000E+00  0.00000000000E+00  0.10121019915E+04  0.10121019915E+04  0.00000000000E+00 0. -1.
         -4   -1    0    0    0  501 -0.00000000000E+00 -0.00000000000E+00 -0.10069168233E+04  0.10069168233E+04  0.00000000000E+00 0.  1.
         23    2    1    2    0    0 -0.43539040527E+03 -0.67012107038E+03 -0.10009406092E+03  0.81072129922E+03  0.92860917576E+02 0.  0.
        254    2    1    2    0    0  0.43539040527E+03  0.67012107038E+03  0.10527922909E+03  0.12082975155E+04  0.90015116284E+03 0.  0.
         23    2    4    4    0    0  0.20141380614E+02 -0.45531036991E+02  0.32830812993E+03  0.34593221210E+03  0.96974824809E+02 0.  0.
         23    2    4    4    0    0  0.41524902465E+03  0.71565210737E+03 -0.22302890085E+03  0.86236530342E+03  0.96655753382E+02 0.  0.
          2    1    3    3  502    0 -0.95056795556E+02 -0.17037284459E+03  0.13309423309E+02  0.19555009921E+03  0.00000000000E+00 0. -1.
         -2    1    3    3    0  502 -0.34033360971E+03 -0.49974822579E+03 -0.11340348422E+03  0.61517120001E+03  0.00000000000E+00 0.  1.
         13    1    5    5    0    0 -0.22061390051E+02 -0.50672425222E+02  0.25730808749E+03  0.26317646455E+03  0.00000000000E+00 0. -1.
        -13    1    5    5    0    0  0.42202770666E+02  0.51413882310E+01  0.71000042446E+02  0.82755747547E+02  0.00000000000E+00 0.  1.
          3    1    6    6  503    0  0.17431138233E+03  0.39138221251E+03 -0.13112817480E+03  0.44806148295E+03  0.00000000000E+00 0. -1.
         -3    1    6    6    0  503  0.24093764233E+03  0.32426989486E+03 -0.91900726046E+02  0.41430382046E+03  0.00000000000E+00 0.  1.
<mgrwt>
<rscale>  0 0.20190122E+04</rscale>
<asrwt>0</asrwt>
<pdfrwt beam="1">  1        4 0.15570800E+00 0.20190122E+04</pdfrwt>
<pdfrwt beam="2">  1       -4 0.15491028E+00 0.20190122E+04</pdfrwt>
<totfact> 0.13661013E-01</totfact>
</mgrwt>
</event>
<event>
12    3  0.4192740E-008  0.1387666E+04  0.7818608E-02  0.8962795E-01
         -1   -1    0    0    0  501 -0.00000000000E+00  0.00000000000E+00  0.62225960482E+03  0.62225960482E+03  0.00000000000E+00 0.  1.
          1   -1    0    0  501    0  0.00000000000E+00 -0.00000000000E+00 -0.77363887140E+03  0.77363887140E+03  0.00000000000E+00 0. -1.
         23    2    1    2    0    0 -0.98491669262E+02 -0.13916890968E+03  0.30741731479E+03  0.36495149425E+03  0.98059132079E+02 0.  0.
        254    2    1    2    0    0  0.98491669262E+02  0.13916890968E+03 -0.45879658138E+03  0.10309469820E+04  0.90735262287E+03 0.  0.
         23    2    4    4    0    0  0.32149116650E+03  0.15766590268E+03 -0.63288831713E+03  0.73279928853E+03  0.90730746176E+02 0.  0.
         23    2    4    4    0    0 -0.22299949724E+03 -0.18496992999E+02  0.17409173576E+03  0.29814769344E+03  0.92267004527E+02 0.  0.
          3    1    3    3  502    0  0.14809929250E+02  0.22861418262E+01  0.30757114230E+02  0.34213455315E+02  0.00000000000E+00 0. -1.
         -3    1    3    3    0  502 -0.11330159851E+03 -0.14145505151E+03  0.27666020056E+03  0.33073803894E+03  0.00000000000E+00 0.  1.
         13    1    5    5    0    0  0.29302502811E+03  0.12520024363E+03 -0.49847934745E+03  0.59162524281E+03  0.00000000000E+00 0. -1.
        -13    1    5    5    0    0  0.28466138397E+02  0.32465659056E+02 -0.13440896968E+03  0.14117404572E+03  0.00000000000E+00 0.  1.
          3    1    6    6  503    0 -0.20339449507E+03 -0.45322719290E+02  0.14377802291E+03  0.25317106742E+03  0.00000000000E+00 0. -1.
         -3    1    6    6    0  503 -0.19605002171E+02  0.26825726291E+02  0.30313712849E+02  0.44976626016E+02  0.00000000000E+00 0.  1.
<mgrwt>
<rscale>  0 0.13876660E+04</rscale>
<asrwt>0</asrwt>
<pdfrwt beam="1">  1        1 0.11902136E+00 0.13876660E+04</pdfrwt>
<pdfrwt beam="2">  1       -1 0.95732247E-01 0.13876660E+04</pdfrwt>
<totfact> 0.23968288E+01</totfact>
</mgrwt>
</event>
<event>
12    3  0.4192740E-008  0.2057699E+04  0.7818608E-02  0.8580110E-01
          2   -1    0    0  501    0  0.00000000000E+00  0.00000000000E+00  0.26673948444E+04  0.26673948444E+04  0.00000000000E+00 0. -1.
         -2   -1    0    0    0  501 -0.00000000000E+00 -0.00000000000E+00 -0.39684084350E+03  0.39684084350E+03  0.00000000000E+00 0.  1.
         23    2    1    2    0    0  0.73836467647E+03  0.28889376519E+02  0.35857667837E+03  0.82637225788E+03  0.91087226295E+02 0.  0.
        254    2    1    2    0    0 -0.73836467647E+03 -0.28889376519E+02  0.19119773225E+04  0.22378634300E+04  0.89797464219E+03 0.  0.
         23    2    4    4    0    0 -0.34307396495E+03 -0.16396349414E+03  0.14134901245E+03  0.41633040899E+03  0.93635961549E+02 0.  0.
         23    2    4    4    0    0 -0.39529071152E+03  0.13507411763E+03  0.17706283101E+04  0.18215330210E+04  0.91423029668E+02 0.  0.
          2    1    3    3  502    0  0.48109627297E+03 -0.22211931609E+02  0.21595467687E+03  0.52781001907E+03  0.00000000000E+00 0. -1.
         -2    1    3    3    0  502  0.25726840350E+03  0.51101308128E+02  0.14262200150E+03  0.29856223881E+03  0.00000000000E+00 0.  1.
         13    1    5    5    0    0 -0.25614947532E+03 -0.91783605097E+02  0.64352225483E+02  0.27960327752E+03  0.00000000000E+00 0.  1.
        -13    1    5    5    0    0 -0.86924489629E+02 -0.72179889047E+02  0.76996786963E+02  0.13672713148E+03  0.00000000000E+00 0. -1.
          2    1    6    6  503    0 -0.77385243479E+02  0.51860783306E+02  0.27920371385E+03  0.29433438566E+03  0.00000000000E+00 0. -1.
         -2    1    6    6    0  503 -0.31790546804E+03  0.83213334319E+02  0.14914245962E+04  0.15271986353E+04  0.00000000000E+00 0.  1.
<mgrwt>
<rscale>  0 0.20576989E+04</rscale>
<asrwt>0</asrwt>
<pdfrwt beam="1">  1        2 0.41036843E+00 0.20576989E+04</pdfrwt>
<pdfrwt beam="2">  1       -2 0.61052439E-01 0.20576989E+04</pdfrwt>
<totfact> 0.64147905E+00</totfact>
</mgrwt>
</event>
<event>
12    3  0.4192740E-008  0.1718164E+04  0.7818608E-02  0.8751072E-01
          2   -1    0    0  501    0  0.00000000000E+00  0.00000000000E+00  0.28906671852E+04  0.28906671852E+04  0.00000000000E+00 0. -1.
         -2   -1    0    0    0  501 -0.00000000000E+00 -0.00000000000E+00 -0.25531199855E+03  0.25531199855E+03  0.00000000000E+00 0.  1.
         23    2    1    2    0    0 -0.29131172564E+03 -0.55406276425E+03  0.10324278735E+04  0.12115850984E+04  0.10091119053E+03 0.  0.
        254    2    1    2    0    0  0.29131172564E+03  0.55406276425E+03  0.16029273131E+04  0.19343940854E+04  0.88354764337E+03 0.  0.
         23    2    4    4    0    0  0.10562717341E+03  0.50652668648E+03  0.16368051202E+04  0.17190685954E+04  0.91320591416E+02 0.  0.
         23    2    4    4    0    0  0.18568455223E+03  0.47536077763E+02 -0.33877807048E+02  0.21532548995E+03  0.92081101145E+02 0.  0.
          2    1    3    3  502    0 -0.22105231821E+03 -0.42674685862E+03  0.86728536473E+03  0.99154471034E+03  0.00000000000E+00 0.  1.
         -2    1    3    3    0  502 -0.70259407425E+02 -0.12731590563E+03  0.16514250876E+03  0.22004038802E+03  0.00000000000E+00 0. -1.
         13    1    5    5    0    0  0.29117723997E+02  0.45039077029E+02  0.11306823564E+03  0.12514306302E+03  0.00000000000E+00 0. -1.
        -13    1    5    5    0    0  0.76509449412E+02  0.46148760945E+03  0.15237368845E+04  0.15939255324E+04  0.00000000000E+00 0.  1.
          3    1    6    6  503    0  0.66780615909E+02  0.29665614136E+02  0.30211429394E+02  0.79072307348E+02  0.00000000000E+00 0. -1.
         -3    1    6    6    0  503  0.11890393632E+03  0.17870463627E+02 -0.64089236442E+02  0.13625318260E+03  0.00000000000E+00 0.  1.
<mgrwt>
<rscale>  0 0.17181642E+04</rscale>
<asrwt>0</asrwt>
<pdfrwt beam="1">  1        2 0.44471801E+00 0.17181642E+04</pdfrwt>
<pdfrwt beam="2">  1       -2 0.39278771E-01 0.17181642E+04</pdfrwt>
<totfact> 0.11901006E+01</totfact>
</mgrwt>
</event>
<event>
12    3  0.4192740E-008  0.2520927E+04  0.7818608E-02  0.8395568E-01
          1   -1    0    0  501    0  0.00000000000E+00  0.00000000000E+00  0.26966438700E+04  0.26966438700E+04  0.00000000000E+00 0. -1.
         -1   -1    0    0    0  501 -0.00000000000E+00 -0.00000000000E+00 -0.58916483958E+03  0.58916483958E+03  0.00000000000E+00 0.  1.
         23    2    1    2    0    0 -0.24961396191E+03  0.28191527032E+02  0.23102940119E+04  0.23266342382E+04  0.11254583339E+03 0.  0.
        254    2    1    2    0    0  0.24961396191E+03 -0.28191527032E+02 -0.20281498144E+03  0.95917447146E+03  0.90320532429E+03 0.  0.
         23    2    4    4    0    0  0.14823455515E+03 -0.44476559214E+03 -0.20796938797E+03  0.52087530722E+03  0.90939012780E+02 0.  0.
         23    2    4    4    0    0  0.10137940676E+03  0.41657406511E+03  0.51544065248E+01  0.43829916424E+03  0.90927738524E+02 0.  0.
          3    1    3    3  502    0 -0.25254786055E+03  0.43721307623E+02  0.20674746587E+04  0.20833010917E+04  0.00000000000E+00 0. -1.
         -3    1    3    3    0  502  0.29338986369E+01 -0.15529780591E+02  0.24281935322E+03  0.24333314642E+03  0.00000000000E+00 0.  1.
         13    1    5    5    0    0 -0.10889014310E+02 -0.45811040810E+02 -0.30720529223E+02  0.56222531146E+02  0.00000000000E+00 0. -1.
        -13    1    5    5    0    0  0.15912356946E+03 -0.39895455133E+03 -0.17724885875E+03  0.46465277607E+03  0.00000000000E+00 0.  1.
          1    1    6    6  503    0 -0.16773310477E+02  0.36331153051E+02  0.28216963123E+01  0.40115565513E+02  0.00000000000E+00 0. -1.
         -1    1    6    6    0  503  0.11815271723E+03  0.38024291205E+03  0.23327102125E+01  0.39818359873E+03  0.00000000000E+00 0.  1.
<mgrwt>
<rscale>  0 0.25209266E+04</rscale>
<asrwt>0</asrwt>
<pdfrwt beam="1">  1        1 0.41486828E+00 0.25209266E+04</pdfrwt>
<pdfrwt beam="2">  1       -1 0.90640746E-01 0.25209266E+04</pdfrwt>
<totfact> 0.10402399E+00</totfact>
</mgrwt>
</event>
<event>
12    3  0.4192740E-008  0.2580397E+04  0.7818608E-02  0.8374890E-01
         -2   -1    0    0    0  501 -0.00000000000E+00  0.00000000000E+00  0.82137135618E+03  0.82137135618E+03  0.00000000000E+00 0.  1.
          2   -1    0    0  501    0  0.00000000000E+00 -0.00000000000E+00 -0.20266257990E+04  0.20266257990E+04  0.00000000000E+00 0. -1.
         23    2    1    2    0    0 -0.98003886415E+03 -0.62913037051E+02  0.87517396181E+02  0.99081608717E+03  0.98096883191E+02 0.  0.
        254    2    1    2    0    0  0.98003886415E+03  0.62913037051E+02 -0.12927718390E+04  0.18571810680E+04  0.90190258129E+03 0.  0.
         23    2    4    4    0    0  0.71101981950E+03  0.35795021906E+03 -0.11902871842E+04  0.14347680961E+04  0.89990919984E+02 0.  0.
         23    2    4    4    0    0  0.26901904465E+03 -0.29503718201E+03 -0.10248465479E+03  0.42241297189E+03  0.92257407295E+02 0.  0.
          2    1    3    3  502    0 -0.41389517223E+03 -0.50949368715E+02  0.79266809772E+02  0.42448589953E+03  0.00000000000E+00 0. -1.
         -2    1    3    3    0  502 -0.56614369192E+03 -0.11963668335E+02  0.82505864096E+01  0.56633018764E+03  0.00000000000E+00 0.  1.
         13    1    5    5    0    0  0.65273541903E+02  0.61421375039E+01 -0.89199397803E+02  0.11070182336E+03  0.00000000000E+00 0.  1.
        -13    1    5    5    0    0  0.64574627760E+03  0.35180808156E+03 -0.11010877864E+04  0.13240662727E+04  0.00000000000E+00 0. -1.
          1    1    6    6  503    0  0.21064265094E+03 -0.27800640741E+03 -0.91779255120E+02  0.36066788133E+03  0.00000000000E+00 0. -1.
         -1    1    6    6    0  503  0.58376393708E+02 -0.17030774606E+02 -0.10705399674E+02  0.61745090560E+02  0.00000000000E+00 0.  1.
<mgrwt>
<rscale>  0 0.25803972E+04</rscale>
<asrwt>0</asrwt>
<pdfrwt beam="1">  1        2 0.31178858E+00 0.25803972E+04</pdfrwt>
<pdfrwt beam="2">  1       -2 0.12636483E+00 0.25803972E+04</pdfrwt>
<totfact> 0.26691351E+00</totfact>
</mgrwt>
</event>
<event>
12    3  0.4192740E-008  0.2042732E+04  0.7818608E-02  0.8586899E-01
          2   -1    0    0  501    0  0.00000000000E+00  0.00000000000E+00  0.41245291959E+04  0.41245291959E+04  0.00000000000E+00 0. -1.
         -2   -1    0    0    0  501 -0.00000000000E+00 -0.00000000000E+00 -0.25292310505E+03  0.25292310505E+03  0.00000000000E+00 0.  1.
         23    2    1    2    0    0 -0.13816943074E+03  0.13755595026E+03  0.32826637128E+04  0.32897053196E+04  0.90926382540E+02 0.  0.
        254    2    1    2    0    0  0.13816943074E+03 -0.13755595026E+03  0.58894237807E+03  0.10877469814E+04  0.89349199205E+03 0.  0.
         23    2    4    4    0    0  0.43776322206E+02 -0.20277680735E+03 -0.18937788100E+03  0.29547914441E+03  0.91701379413E+02 0.  0.
         23    2    4    4    0    0  0.94393108534E+02  0.65220857085E+02  0.77832025907E+03  0.79226783701E+03  0.93499094921E+02 0.  0.
          4    1    3    3  502    0 -0.60617454035E+02  0.61791669079E+02  0.21816257488E+04  0.21833422988E+04  0.00000000000E+00 0. -1.
         -4    1    3    3    0  502 -0.77551976705E+02  0.75764281183E+02  0.11010379640E+04  0.11063630207E+04  0.00000000000E+00 0.  1.
         13    1    5    5    0    0  0.60691944892E+02 -0.19528017451E+03 -0.18647506810E+03  0.27675044671E+03  0.00000000000E+00 0. -1.
        -13    1    5    5    0    0 -0.16915622686E+02 -0.74966328339E+01 -0.29028128970E+01  0.18728697697E+02  0.00000000000E+00 0.  1.
          4    1    6    6  503    0  0.10043318293E+03  0.82281848237E+02  0.67466211789E+03  0.68704155631E+03  0.00000000000E+00 0. -1.
         -4    1    6    6    0  503 -0.60400743950E+01 -0.17060991151E+02  0.10365814118E+03  0.10522628070E+03  0.00000000000E+00 0.  1.
<mgrwt>
<rscale>  0 0.20427322E+04</rscale>
<asrwt>0</asrwt>
<pdfrwt beam="1">  1        2 0.63454290E+00 0.20427322E+04</pdfrwt>
<pdfrwt beam="2">  1       -2 0.38911250E-01 0.20427322E+04</pdfrwt>
<totfact> 0.15770639E+00</totfact>
</mgrwt>
</event>
<event>
12    3  0.4192740E-008  0.1597850E+04  0.7818608E-02  0.8821870E-01
          3   -1    0    0  501    0  0.00000000000E+00  0.00000000000E+00  0.93290445440E+03  0.93290445440E+03  0.00000000000E+00 0. -1.
         -3   -1    0    0    0  501 -0.00000000000E+00 -0.00000000000E+00 -0.68418741078E+03  0.68418741078E+03  0.00000000000E+00 0.  1.
         23    2    1    2    0    0  0.37635044057E+03  0.15479719870E+02 -0.30811234546E+03  0.49574565766E+03  0.94611118902E+02 0.  0.
        254    2    1    2    0    0 -0.37635044057E+03 -0.15479719870E+02  0.55682938909E+03  0.11213462075E+04  0.89748485933E+03 0.  0.
         23    2    4    4    0    0 -0.15733473672E+03 -0.16386980104E+03  0.74497910757E+03  0.78413893066E+03  0.90953069097E+02 0.  0.
         23    2    4    4    0    0 -0.21901570385E+03  0.14839008117E+03 -0.18814971849E+03  0.33720727686E+03  0.91219166186E+02 0.  0.
          2    1    3    3  502    0  0.28359190779E+03  0.42579625166E+02 -0.19407361328E+03  0.34626862695E+03  0.00000000000E+00 0. -1.
         -2    1    3    3    0  502  0.92758532782E+02 -0.27099905296E+02 -0.11403873219E+03  0.14947703071E+03  0.00000000000E+00 0.  1.
         13    1    5    5    0    0 -0.16441334278E+03 -0.16380215085E+03  0.73984965450E+03  0.77539693266E+03  0.00000000000E+00 0.  1.
        -13    1    5    5    0    0  0.70786060547E+01 -0.67650191984E-01  0.51294530704E+01  0.87419979997E+01  0.00000000000E+00 0. -1.
          4    1    6    6  503    0 -0.14394137253E+02 -0.43295332073E+00  0.85296788705E+01  0.16737205785E+02  0.00000000000E+00 0. -1.
         -4    1    6    6    0  503 -0.20462156659E+03  0.14882303449E+03 -0.19667939736E+03  0.32047007107E+03  0.00000000000E+00 0.  1.
<mgrwt>
<rscale>  0 0.15978504E+04</rscale>
<asrwt>0</asrwt>
<pdfrwt beam="1">  1        3 0.14352376E+00 0.15978504E+04</pdfrwt>
<pdfrwt beam="2">  1       -3 0.10525960E+00 0.15978504E+04</pdfrwt>
<totfact> 0.70482022E-01</totfact>
</mgrwt>
</event>
<event>
12    3  0.4192740E-008  0.1750049E+04  0.7818608E-02  0.8733323E-01
         -2   -1    0    0    0  501 -0.00000000000E+00  0.00000000000E+00  0.21399313752E+03  0.21399313752E+03  0.00000000000E+00 0.  1.
          2   -1    0    0  501    0  0.00000000000E+00 -0.00000000000E+00 -0.35780034997E+04  0.35780034997E+04  0.00000000000E+00 0. -1.
         23    2    1    2    0    0  0.18727044572E+03  0.51369126719E+03 -0.52351670474E+03  0.76244321210E+03  0.91109679596E+02 0.  0.
        254    2    1    2    0    0 -0.18727044572E+03 -0.51369126719E+03 -0.28404936575E+04  0.30295534251E+04  0.90046698990E+03 0.  0.
         23    2    4    4    0    0 -0.19512084069E+03  0.24107230123E+02 -0.20927718981E+04  0.21039433515E+04  0.90719942924E+02 0.  0.
         23    2    4    4    0    0  0.78503949704E+01 -0.53779849731E+03 -0.74772175941E+03  0.92561007364E+03  0.91527736345E+02 0.  0.
          3    1    3    3  502    0  0.11843363536E+03  0.24629206376E+03 -0.31098949380E+03  0.41400576313E+03  0.00000000000E+00 0. -1.
         -3    1    3    3    0  502  0.68836810366E+02  0.26739920342E+03 -0.21252721094E+03  0.34843744897E+03  0.00000000000E+00 0.  1.
         13    1    5    5    0    0 -0.60780551424E+02  0.21467475619E+02 -0.34191674060E+03  0.34793991643E+03  0.00000000000E+00 0. -1.
        -13    1    5    5    0    0 -0.13434028927E+03  0.26397545037E+01 -0.17508551575E+04  0.17560034351E+04  0.00000000000E+00 0.  1.
          1    1    6    6  503    0  0.48425731975E+02 -0.27587202984E+03 -0.40288680064E+03  0.49068136554E+03  0.00000000000E+00 0. -1.
         -1    1    6    6    0  503 -0.40575337005E+02 -0.26192646747E+03 -0.34483495878E+03  0.43492870810E+03  0.00000000000E+00 0.  1.
<mgrwt>
<rscale>  0 0.17500494E+04</rscale>
<asrwt>0</asrwt>
<pdfrwt beam="1">  1        2 0.55046205E+00 0.17500494E+04</pdfrwt>
<pdfrwt beam="2">  1       -2 0.32922023E-01 0.17500494E+04</pdfrwt>
<totfact> 0.59003393E+00</totfact>
</mgrwt>
</event>
<event>
12    3  0.4192740E-008  0.2383567E+04  0.7818608E-02  0.8445682E-01
          1   -1    0    0  501    0  0.00000000000E+00  0.00000000000E+00  0.15143751409E+04  0.15143751409E+04  0.00000000000E+00 0. -1.
         -1   -1    0    0    0  501 -0.00000000000E+00 -0.00000000000E+00 -0.93791012057E+03  0.93791012057E+03  0.00000000000E+00 0.  1.
         23    2    1    2    0    0  0.95715536585E+02 -0.63527935639E+03 -0.56880518695E+03  0.86294232034E+03  0.91590299292E+02 0.  0.
        254    2    1    2    0    0 -0.95715536585E+02  0.63527935639E+03  0.11452702073E+04  0.15893429412E+04  0.89533558641E+03 0.  0.
         23    2    4    4    0    0  0.38618471246E+03  0.37800701799E+03  0.57555983845E+03  0.79466198503E+03  0.90501961409E+02 0.  0.
         23    2    4    4    0    0 -0.48190024905E+03  0.25727233841E+03  0.56971036887E+03  0.79468095616E+03  0.92363475121E+02 0.  0.
          3    1    3    3  502    0  0.65028448472E+02 -0.22421162188E+03 -0.24812185390E+03  0.34068167676E+03  0.00000000000E+00 0. -1.
         -3    1    3    3    0  502  0.30687088113E+02 -0.41106773451E+03 -0.32068333305E+03  0.52226064357E+03  0.00000000000E+00 0.  1.
         13    1    5    5    0    0  0.36368383023E+02  0.59631906560E+02  0.11450933459E+03  0.13413057545E+03  0.00000000000E+00 0.  1.
        -13    1    5    5    0    0  0.34981632944E+03  0.31837511143E+03  0.46105050387E+03  0.66053140958E+03  0.00000000000E+00 0. -1.
          1    1    6    6  503    0 -0.36120488817E+03  0.18819359888E+03  0.36319422705E+03  0.54570674218E+03  0.00000000000E+00 0. -1.
         -1    1    6    6    0  503 -0.12069536087E+03  0.69078739523E+02  0.20651614183E+03  0.24897421398E+03  0.00000000000E+00 0.  1.
<mgrwt>
<rscale>  0 0.23835669E+04</rscale>
<asrwt>0</asrwt>
<pdfrwt beam="1">  1        1 0.23298079E+00 0.23835669E+04</pdfrwt>
<pdfrwt beam="2">  1       -1 0.14429386E+00 0.23835669E+04</pdfrwt>
<totfact> 0.22207715E+00</totfact>
</mgrwt>
</event>
<event>
12    3  0.4192740E-008  0.2495624E+04  0.7818608E-02  0.8404546E-01
         -1   -1    0    0    0  501 -0.00000000000E+00  0.00000000000E+00  0.14270729111E+04  0.14270729111E+04  0.00000000000E+00 0.  1.
          1   -1    0    0  501    0  0.00000000000E+00 -0.00000000000E+00 -0.10910686335E+04  0.10910686335E+04  0.00000000000E+00 0. -1.
         23    2    1    2    0    0  0.15330806929E+03 -0.10679040166E+04  0.22024386353E+03  0.11049890188E+04  0.92579801487E+02 0.  0.
        254    2    1    2    0    0 -0.15330806929E+03  0.10679040166E+04  0.11576041401E+03  0.14131525257E+04  0.90536027905E+03 0.  0.
         23    2    4    4    0    0  0.20832809223E+03  0.97002435741E+03  0.20657750162E+03  0.10168812487E+04  0.83817431950E+02 0.  0.
         23    2    4    4    0    0 -0.36163616152E+03  0.97879659149E+02 -0.90817087616E+02  0.39627127700E+03  0.91771676321E+02 0.  0.
          3    1    3    3  502    0  0.64670620855E+02 -0.19612481455E+03  0.45325150658E+02  0.21142753219E+03  0.00000000000E+00 0. -1.
         -3    1    3    3    0  502  0.88637448439E+02 -0.87177920201E+03  0.17491871287E+03  0.89356148665E+03  0.00000000000E+00 0.  1.
         13    1    5    5    0    0  0.15256718631E+03  0.81406258767E+03  0.19478103128E+03  0.85083153040E+03  0.00000000000E+00 0. -1.
        -13    1    5    5    0    0  0.55760905925E+02  0.15596176974E+03  0.11796470340E+02  0.16604971835E+03  0.00000000000E+00 0.  1.
          3    1    6    6  503    0 -0.29925631129E+03  0.97799485629E+02 -0.43173659485E+02  0.31777829395E+03  0.00000000000E+00 0. -1.
         -3    1    6    6    0  503 -0.62379850236E+02  0.80173520475E-01 -0.47643428132E+02  0.78492983046E+02  0.00000000000E+00 0.  1.
<mgrwt>
<rscale>  0 0.24956238E+04</rscale>
<asrwt>0</asrwt>
<pdfrwt beam="1">  1        1 0.16785671E+00 0.24956238E+04</pdfrwt>
<pdfrwt beam="2">  1       -1 0.21954968E+00 0.24956238E+04</pdfrwt>
<totfact> 0.12682338E+00</totfact>
</mgrwt>
</event>
<event>
12    3  0.4192740E-008  0.1710785E+04  0.7818608E-02  0.8755237E-01
         -1   -1    0    0    0  501 -0.00000000000E+00  0.00000000000E+00  0.15975172060E+04  0.15975172060E+04  0.00000000000E+00 0.  1.
          1   -1    0    0  501    0  0.00000000000E+00 -0.00000000000E+00 -0.45802093769E+03  0.45802093769E+03  0.00000000000E+00 0. -1.
         23    2    1    2    0    0  0.43273241329E+03  0.34193103941E+02 -0.11062943094E+03  0.45716758721E+03  0.91306198797E+02 0.  0.
        254    2    1    2    0    0 -0.43273241329E+03 -0.34193103941E+02  0.12501256992E+04  0.15983705565E+04  0.89640820054E+03 0.  0.
         23    2    4    4    0    0  0.18144381062E+03 -0.26429160969E+03  0.38031650392E+03  0.50553671099E+03  0.90303995710E+02 0.  0.
         23    2    4    4    0    0 -0.61417622391E+03  0.23009850575E+03  0.86980919533E+03  0.10928338455E+04  0.86948382254E+02 0.  0.
          2    1    3    3  502    0  0.42591472846E+03  0.33157234742E+02 -0.12163306828E+03  0.44418167615E+03  0.00000000000E+00 0. -1.
         -2    1    3    3    0  502  0.68176848297E+01  0.10358691989E+01  0.11003637332E+02  0.12985911057E+02  0.00000000000E+00 0.  1.
         13    1    5    5    0    0  0.23955606964E+02 -0.60661653974E+01  0.60481920180E+02  0.65335535019E+02  0.00000000000E+00 0.  1.
        -13    1    5    5    0    0  0.15748820366E+03 -0.25822544429E+03  0.31983458374E+03  0.44020117597E+03  0.00000000000E+00 0. -1.
          3    1    6    6  503    0 -0.60270997175E+03  0.22678893171E+03  0.86795203949E+03  0.10807558801E+04  0.00000000000E+00 0. -1.
         -3    1    6    6    0  503 -0.11466252157E+02  0.33095740344E+01  0.18571558334E+01  0.12077965334E+02  0.00000000000E+00 0.  1.
<mgrwt>
<rscale>  0 0.17107850E+04</rscale>
<asrwt>0</asrwt>
<pdfrwt beam="1">  1        1 0.70464760E-01 0.17107850E+04</pdfrwt>
<pdfrwt beam="2">  1       -1 0.24577188E+00 0.17107850E+04</pdfrwt>
<totfact> 0.35320289E+00</totfact>
</mgrwt>
</event>
<event>
12    3  0.4192740E-008  0.2373999E+04  0.7818608E-02  0.8449303E-01
          2   -1    0    0  501    0  0.00000000000E+00  0.00000000000E+00  0.73801860162E+03  0.73801860162E+03  0.00000000000E+00 0. -1.
         -2   -1    0    0    0  501 -0.00000000000E+00 -0.00000000000E+00 -0.19091220396E+04  0.19091220396E+04  0.00000000000E+00 0.  1.
         23    2    1    2    0    0 -0.22002648373E+03  0.80980174374E+03 -0.11200986104E+04  0.14023717058E+04  0.88515458506E+02 0.  0.
        254    2    1    2    0    0  0.22002648373E+03 -0.80980174374E+03 -0.51004827567E+02  0.12447689355E+04  0.91796388410E+03 0.  0.
         23    2    4    4    0    0  0.49505557126E+03 -0.19663191782E+03  0.10033495395E+03  0.54979905922E+03  0.92020502002E+02 0.  0.
         23    2    4    4    0    0 -0.27502908753E+03 -0.61316982593E+03 -0.15133978152E+03  0.69496987623E+03  0.91984591018E+02 0.  0.
          4    1    3    3  502    0 -0.43684305272E+02  0.11131053412E+03 -0.20995647526E+03  0.24161969091E+03  0.00000000000E+00 0. -1.
         -4    1    3    3    0  502 -0.17634217846E+03  0.69849120963E+03 -0.91014213518E+03  0.11607520149E+04  0.00000000000E+00 0.  1.
         13    1    5    5    0    0  0.28349612828E+03 -0.99237342911E+02  0.10102141937E+03  0.31689656380E+03  0.00000000000E+00 0. -1.
        -13    1    5    5    0    0  0.21155944298E+03 -0.97394574904E+02 -0.68646541471E+00  0.23290249542E+03  0.00000000000E+00 0.  1.
          2    1    6    6  503    0 -0.15534330345E+03 -0.29868563892E+03 -0.33011596248E+02  0.33828156662E+03  0.00000000000E+00 0.  1.
         -2    1    6    6    0  503 -0.11968578408E+03 -0.31448418700E+03 -0.11832818527E+03  0.35668830962E+03  0.00000000000E+00 0. -1.
<mgrwt>
<rscale>  0 0.23739988E+04</rscale>
<asrwt>0</asrwt>
<pdfrwt beam="1">  1        2 0.11354133E+00 0.23739988E+04</pdfrwt>
<pdfrwt beam="2">  1       -2 0.29371108E+00 0.23739988E+04</pdfrwt>
<totfact> 0.11985872E+00</totfact>
</mgrwt>
</event>
<event>
12    3  0.4192740E-008  0.1296064E+04  0.7818608E-02  0.9032692E-01
         -2   -1    0    0    0  501 -0.00000000000E+00  0.00000000000E+00  0.25232458562E+03  0.25232458562E+03  0.00000000000E+00 0. -1.
          2   -1    0    0  501    0  0.00000000000E+00 -0.00000000000E+00 -0.16643067060E+04  0.16643067060E+04  0.00000000000E+00 0.  1.
         23    2    1    2    0    0  0.13323605753E+03 -0.29045308411E+03 -0.12166955743E+03  0.35384752515E+03  0.91048057372E+02 0.  0.
        254    2    1    2    0    0 -0.13323605753E+03  0.29045308411E+03 -0.12903125629E+04  0.15627837664E+04  0.82174920113E+03 0.  0.
         23    2    4    4    0    0 -0.23237061114E+03  0.52499051835E+03 -0.67773823557E+03  0.89301207117E+03  0.92359612524E+02 0.  0.
         23    2    4    4    0    0  0.99134553609E+02 -0.23453743424E+03 -0.61257432735E+03  0.66977169527E+03  0.92256975269E+02 0.  0.
          4    1    3    3  502    0  0.93543757533E+02 -0.13111256258E+03 -0.24147299998E+02  0.16286199905E+03  0.00000000000E+00 0. -1.
         -4    1    3    3    0  502  0.39692300001E+02 -0.15934052154E+03 -0.97522257436E+02  0.19098552610E+03  0.00000000000E+00 0.  1.
         13    1    5    5    0    0 -0.66034123997E+02  0.10330100721E+03 -0.19878487383E+03  0.23355305540E+03  0.00000000000E+00 0. -1.
        -13    1    5    5    0    0 -0.16633648715E+03  0.42168951114E+03 -0.47895336174E+03  0.65945901577E+03  0.00000000000E+00 0.  1.
          1    1    6    6  503    0  0.11103141277E+03 -0.16025861092E+03 -0.42079373428E+03  0.46376520332E+03  0.00000000000E+00 0. -1.
         -1    1    6    6    0  503 -0.11896859166E+02 -0.74278823319E+02 -0.19178059306E+03  0.20600649195E+03  0.00000000000E+00 0.  1.
<mgrwt>
<rscale>  0 0.12960640E+04</rscale>
<asrwt>0</asrwt>
<pdfrwt beam="1">  1        2 0.25604718E+00 0.12960640E+04</pdfrwt>
<pdfrwt beam="2">  1       -2 0.38819168E-01 0.12960640E+04</pdfrwt>
<totfact> 0.63108525E+01</totfact>
</mgrwt>
</event>
<event>
12    3  0.4192740E-008  0.2116205E+04  0.7818608E-02  0.8554138E-01
         -2   -1    0    0    0  501 -0.00000000000E+00  0.00000000000E+00  0.60803815462E+03  0.60803815462E+03  0.00000000000E+00 0.  1.
          2   -1    0    0  501    0  0.00000000000E+00 -0.00000000000E+00 -0.18412999426E+04  0.18412999426E+04  0.00000000000E+00 0. -1.
         23    2    1    2    0    0 -0.47560324025E+03  0.15156117760E+03 -0.13258551709E+04  0.14195788662E+04  0.90238520905E+02 0.  0.
        254    2    1    2    0    0  0.47560324025E+03 -0.15156117760E+03  0.92593382888E+02  0.10297592310E+04  0.89591367138E+03 0.  0.
         23    2    4    4    0    0 -0.12615187214E+03 -0.34501705673E+03 -0.30439260416E+02  0.37995574117E+03  0.92134425654E+02 0.  0.
         23    2    4    4    0    0  0.60175511240E+03  0.19345587913E+03  0.12303264330E+03  0.64980348983E+03  0.87023856518E+02 0.  0.
          1    1    3    3  502    0 -0.27653572674E+03  0.13405772243E+03 -0.81763595679E+03  0.87348270672E+03  0.00000000000E+00 0. -1.
         -1    1    3    3    0  502 -0.19906751351E+03  0.17503455170E+02 -0.50821921408E+03  0.54609615951E+03  0.00000000000E+00 0.  1.
         13    1    5    5    0    0 -0.12195885584E+03 -0.20852762350E+03 -0.29764922434E+02  0.24340025244E+03  0.00000000000E+00 0. -1.
        -13    1    5    5    0    0 -0.41930163003E+01 -0.13648943323E+03 -0.67433798252E+00  0.13655548872E+03  0.00000000000E+00 0.  1.
          2    1    6    6  503    0  0.14024040605E+03  0.84418397601E+02  0.25613711675E+02  0.16568011217E+03  0.00000000000E+00 0. -1.
         -2    1    6    6    0  503  0.46151470635E+03  0.10903748153E+03  0.97418931629E+02  0.48412337766E+03  0.00000000000E+00 0.  1.
<mgrwt>
<rscale>  0 0.21162047E+04</rscale>
<asrwt>0</asrwt>
<pdfrwt beam="1">  1        2 0.28327691E+00 0.21162047E+04</pdfrwt>
<pdfrwt beam="2">  1       -2 0.93544332E-01 0.21162047E+04</pdfrwt>
<totfact> 0.72783220E+00</totfact>
</mgrwt>
</event>
<event>
12    3  0.4192740E-008  0.1267434E+04  0.7818608E-02  0.9055796E-01
         -3   -1    0    0    0  501 -0.00000000000E+00  0.00000000000E+00  0.18358899557E+03  0.18358899557E+03  0.00000000000E+00 0.  1.
          3   -1    0    0  501    0  0.00000000000E+00 -0.00000000000E+00 -0.21874814987E+04  0.21874814987E+04  0.00000000000E+00 0. -1.
         23    2    1    2    0    0 -0.14578283530E+03  0.25855349023E+03 -0.68144185065E+03  0.74849341802E+03  0.88186499172E+02 0.  0.
        254    2    1    2    0    0  0.14578283530E+03 -0.25855349023E+03 -0.13224506525E+04  0.16225770763E+04  0.89206395383E+03 0.  0.
         23    2    4    4    0    0 -0.27858631531E+03 -0.18397367969E+03 -0.10493560675E+04  0.11052157187E+04  0.94323796775E+02 0.  0.
         23    2    4    4    0    0  0.42436915061E+03 -0.74579810540E+02 -0.27309458505E+03  0.51736135757E+03  0.86202075331E+02 0.  0.
          4    1    3    3  502    0 -0.15159852694E+02  0.35807594889E+02 -0.34732371467E+02  0.52137727349E+02  0.00000000000E+00 0.  1.
         -4    1    3    3    0  502 -0.13062298261E+03  0.22274589534E+03 -0.64670947918E+03  0.69635569067E+03  0.00000000000E+00 0. -1.
         13    1    5    5    0    0 -0.27865390631E+03 -0.16620045623E+03 -0.93988008828E+03  0.99430637708E+03  0.00000000000E+00 0.  1.
        -13    1    5    5    0    0  0.67590994939E-01 -0.17773223455E+02 -0.10947597918E+03  0.11090934162E+03  0.00000000000E+00 0. -1.
          4    1    6    6  503    0  0.44832542531E+02 -0.58380423208E+01 -0.79731906106E+00  0.45218086267E+02  0.00000000000E+00 0. -1.
         -4    1    6    6    0  503  0.37953660808E+03 -0.68741768219E+02 -0.27229726599E+03  0.47214327131E+03  0.00000000000E+00 0.  1.
<mgrwt>
<rscale>  0 0.12674345E+04</rscale>
<asrwt>0</asrwt>
<pdfrwt beam="1">  1        3 0.33653561E+00 0.12674345E+04</pdfrwt>
<pdfrwt beam="2">  1       -3 0.28244461E-01 0.12674345E+04</pdfrwt>
<totfact> 0.77290145E-01</totfact>
</mgrwt>
</event>
<event>
12    3  0.4192740E-008  0.1358060E+04  0.7818608E-02  0.8984749E-01
          1   -1    0    0  501    0  0.00000000000E+00  0.00000000000E+00  0.43031405541E+03  0.43031405541E+03  0.00000000000E+00 0. -1.
         -1   -1    0    0    0  501 -0.00000000000E+00 -0.00000000000E+00 -0.10715010452E+04  0.10715010452E+04  0.00000000000E+00 0.  1.
         23    2    1    2    0    0  0.34566103231E+03  0.13702857620E+03 -0.22183143938E+03  0.44235182363E+03  0.90595631319E+02 0.  0.
        254    2    1    2    0    0 -0.34566103231E+03 -0.13702857620E+03 -0.41935555041E+03  0.10594632770E+04  0.89908007300E+03 0.  0.
         23    2    4    4    0    0  0.13473758466E+03 -0.24434975643E+02 -0.52201257548E+03  0.54636721343E+03  0.85256778037E+02 0.  0.
         23    2    4    4    0    0 -0.48039861697E+03 -0.11259360056E+03  0.10265702506E+03  0.51309606356E+03  0.96275415194E+02 0.  0.
          1    1    3    3  502    0  0.54781965898E+01  0.56694479348E+01 -0.28578097085E+02  0.29645588386E+02  0.00000000000E+00 0. -1.
         -1    1    3    3    0  502  0.34018283572E+03  0.13135912827E+03 -0.19325334230E+03  0.41270623524E+03  0.00000000000E+00 0.  1.
         13    1    5    5    0    0  0.85525762290E+01 -0.11993622884E+02 -0.76344669088E+01  0.16591522987E+02  0.00000000000E+00 0.  1.
        -13    1    5    5    0    0  0.12618500843E+03 -0.12441352759E+02 -0.51437810857E+03  0.52977569044E+03  0.00000000000E+00 0. -1.
          2    1    6    6  503    0 -0.41294002780E+03 -0.72333386707E+02  0.11214012209E+03  0.43396657979E+03  0.00000000000E+00 0. -1.
         -2    1    6    6    0  503 -0.67458589168E+02 -0.40260213851E+02 -0.94830970282E+01  0.79129483767E+02  0.00000000000E+00 0.  1.
<mgrwt>
<rscale>  0 0.13580603E+04</rscale>
<asrwt>0</asrwt>
<pdfrwt beam="1">  1        1 0.66202163E-01 0.13580603E+04</pdfrwt>
<pdfrwt beam="2">  1       -1 0.16484631E+00 0.13580603E+04</pdfrwt>
<totfact> 0.14297324E+01</totfact>
</mgrwt>
</event>
<event>
12    3  0.4192740E-008  0.2080456E+04  0.7818608E-02  0.8569902E-01
          2   -1    0    0  501    0  0.00000000000E+00  0.00000000000E+00  0.13879230119E+04  0.13879230119E+04  0.00000000000E+00 0.  1.
         -2   -1    0    0    0  501 -0.00000000000E+00 -0.00000000000E+00 -0.77963571249E+03  0.77963571249E+03  0.00000000000E+00 0. -1.
         23    2    1    2    0    0  0.62783290598E+03  0.44013761351E+03 -0.11937195457E+03  0.78114546546E+03  0.89684435739E+02 0.  0.
        254    2    1    2    0    0 -0.62783290598E+03 -0.44013761351E+03  0.72765925398E+03  0.13864132589E+04  0.89708330605E+03 0.  0.
         23    2    4    4    0    0 -0.36124592330E+03 -0.20782575694E+03 -0.13729334168E+03  0.44734022656E+03  0.87026744634E+02 0.  0.
         23    2    4    4    0    0 -0.26658698268E+03 -0.23231185657E+03  0.86495259566E+03  0.93907303238E+03  0.93154438212E+02 0.  0.
          1    1    3    3  502    0  0.60584081742E+03  0.43790326538E+03 -0.12598330934E+03  0.75807266150E+03  0.00000000000E+00 0. -1.
         -1    1    3    3    0  502  0.21992088557E+02  0.22343481275E+01  0.66113547618E+01  0.23072803957E+02  0.00000000000E+00 0.  1.
         13    1    5    5    0    0 -0.33165681575E+03 -0.21344903879E+03 -0.11843736640E+03  0.41180595595E+03  0.00000000000E+00 0. -1.
        -13    1    5    5    0    0 -0.29589107544E+02  0.56232818473E+01 -0.18855975285E+02  0.35534270613E+02  0.00000000000E+00 0.  1.
          3    1    6    6  503    0 -0.12870722857E+03 -0.14664428999E+03  0.56903566309E+03  0.60155771489E+03  0.00000000000E+00 0. -1.
         -3    1    6    6    0  503 -0.13787975411E+03 -0.85667566584E+02  0.29591693257E+03  0.33751531749E+03  0.00000000000E+00 0.  1.
<mgrwt>
<rscale>  0 0.20804561E+04</rscale>
<asrwt>0</asrwt>
<pdfrwt beam="1">  1        2 0.21352662E+00 0.20804561E+04</pdfrwt>
<pdfrwt beam="2">  1       -2 0.11994396E+00 0.20804561E+04</pdfrwt>
<totfact> 0.72161215E+00</totfact>
</mgrwt>
</event>
<event>
12    3  0.4192740E-008  0.5731176E+04  0.7818608E-02  0.7724656E-01
          2   -1    0    0  501    0  0.00000000000E+00  0.00000000000E+00  0.19286579023E+04  0.19286579023E+04  0.00000000000E+00 0.  1.
         -2   -1    0    0    0  501 -0.00000000000E+00 -0.00000000000E+00 -0.42576722595E+04  0.42576722595E+04  0.00000000000E+00 0. -1.
         23    2    1    2    0    0 -0.15167715023E+04  0.36444188450E+03  0.13643523842E+04  0.20745398039E+04  0.94044099056E+02 0.  0.
        254    2    1    2    0    0  0.15167715023E+04 -0.36444188450E+03 -0.36933667414E+04  0.41117903578E+04  0.91238609290E+03 0.  0.
         23    2    4    4    0    0  0.12373695322E+04 -0.38353541392E+02 -0.19319802273E+04  0.22964910298E+04  0.93643462257E+02 0.  0.
         23    2    4    4    0    0  0.27940197006E+03 -0.32608834311E+03 -0.17613865142E+04  0.18152993280E+04  0.91815737083E+02 0.  0.
          1    1    3    3  502    0 -0.89921324796E+03  0.25464476839E+03  0.85181223535E+03  0.12645206632E+04  0.00000000000E+00 0. -1.
         -1    1    3    3    0  502 -0.61755825430E+03  0.10979711611E+03  0.51254014888E+03  0.81001914074E+03  0.00000000000E+00 0.  1.
         13    1    5    5    0    0  0.26305961736E+03 -0.16867682855E+02 -0.48345402761E+03  0.55064750778E+03  0.00000000000E+00 0. -1.
        -13    1    5    5    0    0  0.97430991484E+03 -0.21485858536E+02 -0.14485261996E+04  0.17458435220E+04  0.00000000000E+00 0.  1.
          4    1    6    6  503    0  0.28263103569E+02 -0.79593973301E+01 -0.67738450677E+02  0.73828536010E+02  0.00000000000E+00 0. -1.
         -4    1    6    6    0  503  0.25113886649E+03 -0.31812894578E+03 -0.16936480635E+04  0.17414707920E+04  0.00000000000E+00 0.  1.
<mgrwt>
<rscale>  0 0.57311755E+04</rscale>
<asrwt>0</asrwt>
<pdfrwt beam="1">  1        2 0.29671661E+00 0.57311755E+04</pdfrwt>
<pdfrwt beam="2">  1       -2 0.65502648E+00 0.57311755E+04</pdfrwt>
<totfact> 0.16558074E-03</totfact>
</mgrwt>
</event>
<event>
12    3  0.4192740E-008  0.1179302E+04  0.7818608E-02  0.9131169E-01
          2   -1    0    0  501    0  0.00000000000E+00  0.00000000000E+00  0.93399864707E+03  0.93399864707E+03  0.00000000000E+00 0.  1.
         -2   -1    0    0    0  501 -0.00000000000E+00 -0.00000000000E+00 -0.37225770321E+03  0.37225770321E+03  0.00000000000E+00 0. -1.
         23    2    1    2    0    0 -0.35639362182E+02 -0.22101838637E+03  0.16244817531E+03  0.29143960960E+03  0.91806019021E+02 0.  0.
        254    2    1    2    0    0  0.35639362182E+02  0.22101838637E+03  0.39929276855E+03  0.10148167407E+04  0.90570359991E+03 0.  0.
         23    2    4    4    0    0 -0.21431276766E+03  0.16696971712E+03 -0.20527877430E+03  0.35221261762E+03  0.90030572668E+02 0.  0.
         23    2    4    4    0    0  0.24995212984E+03  0.54048669251E+02  0.60457154285E+03  0.66260412306E+03  0.90222766594E+02 0.  0.
          3    1    3    3  502    0 -0.37972951549E+02 -0.24040779660E+02  0.32017247667E+02  0.55181593708E+02  0.00000000000E+00 0. -1.
         -3    1    3    3    0  502  0.23335893664E+01 -0.19697760671E+03  0.13043092764E+03  0.23625801589E+03  0.00000000000E+00 0.  1.
         13    1    5    5    0    0 -0.18629660633E+03  0.15154589195E+03 -0.21105537969E+03  0.31971386612E+03  0.00000000000E+00 0. -1.
        -13    1    5    5    0    0 -0.28016161336E+02  0.15423825176E+02  0.57766053929E+01  0.32498751498E+02  0.00000000000E+00 0.  1.
          1    1    6    6  503    0  0.19399585531E+03  0.81513946343E+01  0.49024867780E+03  0.52729934876E+03  0.00000000000E+00 0. -1.
         -1    1    6    6    0  503  0.55956274530E+02  0.45897274616E+02  0.11432286505E+03  0.13530477430E+03  0.00000000000E+00 0.  1.
<mgrwt>
<rscale>  0 0.11793018E+04</rscale>
<asrwt>0</asrwt>
<pdfrwt beam="1">  1        2 0.14369210E+00 0.11793018E+04</pdfrwt>
<pdfrwt beam="2">  1       -2 0.57270416E-01 0.11793018E+04</pdfrwt>
<totfact> 0.78540866E+01</totfact>
</mgrwt>
</event>
<event>
12    3  0.4192740E-008  0.2093117E+04  0.7818608E-02  0.8564282E-01
         -1   -1    0    0    0  501 -0.00000000000E+00  0.00000000000E+00  0.60775744858E+03  0.60775744858E+03  0.00000000000E+00 0.  1.
          1   -1    0    0  501    0  0.00000000000E+00 -0.00000000000E+00 -0.18021737263E+04  0.18021737263E+04  0.00000000000E+00 0. -1.
         23    2    1    2    0    0  0.52604723862E+03 -0.64816269296E+03 -0.32625645675E+03  0.90161183731E+03  0.98081883142E+02 0.  0.
        254    2    1    2    0    0 -0.52604723862E+03  0.64816269296E+03 -0.86815982100E+03  0.15083193376E+04  0.90801166050E+03 0.  0.
         23    2    4    4    0    0 -0.76901453162E+02 -0.16962801633E+03 -0.42215821855E+03  0.47011937123E+03  0.90039792793E+02 0.  0.
         23    2    4    4    0    0 -0.44914578545E+03  0.81779070929E+03 -0.44600160245E+03  0.10381999664E+04  0.91805010841E+02 0.  0.
          2    1    3    3  502    0  0.21409336903E+03 -0.25057361234E+03 -0.78577829040E+02  0.33881791729E+03  0.00000000000E+00 0. -1.
         -2    1    3    3    0  502  0.31195386959E+03 -0.39758908062E+03 -0.24767862771E+03  0.56279392002E+03  0.00000000000E+00 0.  1.
         13    1    5    5    0    0  0.60570333620E+01 -0.30920905366E+02 -0.15261749874E+03  0.15583610289E+03  0.00000000000E+00 0. -1.
        -13    1    5    5    0    0 -0.82958486524E+02 -0.13870711097E+03 -0.26954071981E+03  0.31428326834E+03  0.00000000000E+00 0.  1.
          3    1    6    6  503    0 -0.37986093884E+03  0.67375697825E+03 -0.33108154808E+03  0.84134284930E+03  0.00000000000E+00 0. -1.
         -3    1    6    6    0  503 -0.69284846611E+02  0.14403373105E+03 -0.11492005437E+03  0.19685711708E+03  0.00000000000E+00 0.  1.
<mgrwt>
<rscale>  0 0.20931168E+04</rscale>
<asrwt>0</asrwt>
<pdfrwt beam="1">  1        1 0.27725750E+00 0.20931168E+04</pdfrwt>
<pdfrwt beam="2">  1       -1 0.93501146E-01 0.20931168E+04</pdfrwt>
<totfact> 0.41454583E+00</totfact>
</mgrwt>
</event>
<event>
12    3  0.4192740E-008  0.9565687E+03  0.7818608E-02  0.9357506E-01
         -2   -1    0    0    0  501 -0.00000000000E+00  0.00000000000E+00  0.50275995789E+03  0.50275995789E+03  0.00000000000E+00 0.  1.
          2   -1    0    0  501    0  0.00000000000E+00 -0.00000000000E+00 -0.45500027934E+03  0.45500027934E+03  0.00000000000E+00 0. -1.
         23    2    1    2    0    0 -0.32350815748E+02  0.15628122815E+03 -0.81370958459E+02  0.20030404666E+03  0.89610717414E+02 0.  0.
        254    2    1    2    0    0  0.32350815748E+02 -0.15628122815E+03  0.12913063701E+03  0.75745619056E+03  0.72910545304E+03 0.  0.
         23    2    4    4    0    0 -0.26279878905E+03 -0.85155489424E+02  0.28255446527E+03  0.40525897623E+03  0.89906346087E+02 0.  0.
         23    2    4    4    0    0  0.29514960480E+03 -0.71125738729E+02 -0.15342382826E+03  0.35219721433E+03  0.91278950367E+02 0.  0.
          2    1    3    3  502    0 -0.25046355784E+02  0.21651977375E+02 -0.53051548698E+02  0.62534749392E+02  0.00000000000E+00 0. -1.
         -2    1    3    3    0  502 -0.73044599643E+01  0.13462925078E+03 -0.28319409761E+02  0.13776929727E+03  0.00000000000E+00 0.  1.
         13    1    5    5    0    0 -0.11958368789E+03 -0.67023196240E+02  0.18807004353E+03  0.23272883044E+03  0.00000000000E+00 0. -1.
        -13    1    5    5    0    0 -0.14321510116E+03 -0.18132293184E+02  0.94484421740E+02  0.17253014579E+03  0.00000000000E+00 0.  1.
          2    1    6    6  503    0  0.19603280291E+03 -0.32607917554E+02 -0.14405668319E+03  0.24544747722E+03  0.00000000000E+00 0. -1.
         -2    1    6    6    0  503  0.99116801894E+02 -0.38517821176E+02 -0.93671450675E+01  0.10674973711E+03  0.00000000000E+00 0.  1.
<mgrwt>
<rscale>  0 0.95656870E+03</rscale>
<asrwt>0</asrwt>
<pdfrwt beam="1">  1        2 0.70000043E-01 0.95656870E+03</pdfrwt>
<pdfrwt beam="2">  1       -2 0.77347686E-01 0.95656870E+03</pdfrwt>
<totfact> 0.10252277E+02</totfact>
</mgrwt>
</event>
<event>
12    3  0.4192740E-008  0.2073177E+04  0.7818608E-02  0.8573152E-01
         -1   -1    0    0    0  501 -0.00000000000E+00  0.00000000000E+00  0.11879720101E+04  0.11879720101E+04  0.00000000000E+00 0.  1.
          1   -1    0    0  501    0  0.00000000000E+00 -0.00000000000E+00 -0.90449575683E+03  0.90449575683E+03  0.00000000000E+00 0. -1.
         23    2    1    2    0    0 -0.85693219096E+02  0.17914835354E+03  0.93068248071E+03  0.95586507239E+03  0.89837054397E+02 0.  0.
        254    2    1    2    0    0  0.85693219096E+02 -0.17914835354E+03 -0.64720622746E+03  0.11366026945E+04  0.91299086738E+03 0.  0.
         23    2    4    4    0    0  0.21988289422E+02 -0.52712701550E+03 -0.52938981896E+03  0.75286948413E+03  0.90622868908E+02 0.  0.
         23    2    4    4    0    0  0.63704929675E+02  0.34797866196E+03 -0.11781640850E+03  0.38373321038E+03  0.90680777426E+02 0.  0.
          1    1    3    3  502    0  0.27409460326E+01 -0.76425226911E+01  0.81173524369E+02  0.81578563341E+02  0.00000000000E+00 0. -1.
         -1    1    3    3    0  502 -0.88434165129E+02  0.18679087623E+03  0.84950895634E+03  0.87428650905E+03  0.00000000000E+00 0.  1.
         13    1    5    5    0    0  0.29943725369E+02 -0.45408123767E+03 -0.40914947378E+03  0.61195562665E+03  0.00000000000E+00 0. -1.
        -13    1    5    5    0    0 -0.79554359474E+01 -0.73045777828E+02 -0.12024034519E+03  0.14091385748E+03  0.00000000000E+00 0.  1.
          1    1    6    6  503    0  0.35633219596E+02  0.30583364797E+03 -0.12553508828E+03  0.33251015768E+03  0.00000000000E+00 0. -1.
         -1    1    6    6    0  503  0.28071710079E+02  0.42145013989E+02  0.77186797786E+01  0.51223052705E+02  0.00000000000E+00 0.  1.
<mgrwt>
<rscale>  0 0.20731769E+04</rscale>
<asrwt>0</asrwt>
<pdfrwt beam="1">  1        1 0.13915319E+00 0.20731769E+04</pdfrwt>
<pdfrwt beam="2">  1       -1 0.18276492E+00 0.20731769E+04</pdfrwt>
<totfact> 0.33068435E+00</totfact>
</mgrwt>
</event>
<event>
12    3  0.4192740E-008  0.2304549E+04  0.7818608E-02  0.8476130E-01
         -2   -1    0    0    0  501 -0.00000000000E+00  0.00000000000E+00  0.77966618532E+03  0.77966618532E+03  0.00000000000E+00 0.  1.
          2   -1    0    0  501    0  0.00000000000E+00 -0.00000000000E+00 -0.17029554069E+04  0.17029554069E+04  0.00000000000E+00 0. -1.
         23    2    1    2    0    0  0.42182382021E+03 -0.78194120164E+03  0.40575602258E+02  0.89430582217E+03  0.93643718201E+02 0.  0.
        254    2    1    2    0    0 -0.42182382021E+03  0.78194120164E+03 -0.96386482382E+03  0.15883157700E+04  0.89685238954E+03 0.  0.
         23    2    4    4    0    0  0.25015273301E+03  0.20956185212E+03 -0.10893951039E+03  0.35580689607E+03  0.90764368949E+02 0.  0.
         23    2    4    4    0    0 -0.67197655322E+03  0.57237934952E+03 -0.85492531343E+03  0.12325088740E+04  0.94922205094E+02 0.  0.
          2    1    3    3  502    0  0.37186332959E+02 -0.10768720585E+03 -0.20105264462E+02  0.11568742076E+03  0.00000000000E+00 0. -1.
         -2    1    3    3    0  502  0.38463748725E+03 -0.67425399578E+03  0.60680866720E+02  0.77861840141E+03  0.00000000000E+00 0.  1.
         13    1    5    5    0    0  0.15367389778E+03  0.17138288766E+03 -0.46913721838E+02  0.23492266459E+03  0.00000000000E+00 0.  1.
        -13    1    5    5    0    0  0.96478835230E+02  0.38178964455E+02 -0.62025788550E+02  0.12088423148E+03  0.00000000000E+00 0. -1.
          4    1    6    6  503    0 -0.11332380672E+03  0.56298954264E+02 -0.13969355362E+03  0.18848380924E+03  0.00000000000E+00 0. -1.
         -4    1    6    6    0  503 -0.55865274650E+03  0.51608039526E+03 -0.71523175981E+03  0.10440250647E+04  0.00000000000E+00 0.  1.
<mgrwt>
<rscale>  0 0.23045492E+04</rscale>
<asrwt>0</asrwt>
<pdfrwt beam="1">  1        2 0.26199314E+00 0.23045492E+04</pdfrwt>
<pdfrwt beam="2">  1       -2 0.11994864E+00 0.23045492E+04</pdfrwt>
<totfact> 0.47071266E+00</totfact>
</mgrwt>
</event>
<event>
12    3  0.4192740E-008  0.1458166E+04  0.7818608E-02  0.8912759E-01
         -2   -1    0    0    0  501 -0.00000000000E+00  0.00000000000E+00  0.60467465581E+03  0.60467465581E+03  0.00000000000E+00 0.  1.
          2   -1    0    0  501    0  0.00000000000E+00 -0.00000000000E+00 -0.87908757136E+03  0.87908757136E+03  0.00000000000E+00 0. -1.
         23    2    1    2    0    0  0.13853676828E+03 -0.16207306016E+03 -0.48478838716E+03  0.53712777164E+03  0.89589897544E+02 0.  0.
        254    2    1    2    0    0 -0.13853676828E+03  0.16207306016E+03  0.21037547161E+03  0.94663445553E+03  0.89799712714E+03 0.  0.
         23    2    4    4    0    0 -0.95233352659E+02 -0.71818082567E+02  0.52277725900E+03  0.54378869421E+03  0.90459123280E+02 0.  0.
         23    2    4    4    0    0 -0.43303415616E+02  0.23389114272E+03 -0.31240178740E+03  0.40284576132E+03  0.90053196485E+02 0.  0.
          2    1    3    3  502    0  0.14446698017E+03 -0.16231587011E+03 -0.48471427362E+03  0.53119212824E+03  0.00000000000E+00 0. -1.
         -2    1    3    3    0  502 -0.59302118905E+01  0.24280995160E+00 -0.74113539613E-01  0.59356433986E+01  0.00000000000E+00 0.  1.
         13    1    5    5    0    0  0.28986129156E+01  0.16984196365E+02  0.53499362274E+02  0.56205396954E+02  0.00000000000E+00 0. -1.
        -13    1    5    5    0    0 -0.98131965575E+02 -0.88802278932E+02  0.46927789673E+03  0.48758329726E+03  0.00000000000E+00 0.  1.
          3    1    6    6  503    0  0.17211642786E+02  0.30274064384E+02 -0.84003195825E+02  0.90935672486E+02  0.00000000000E+00 0. -1.
         -3    1    6    6    0  503 -0.60515058402E+02  0.20361707834E+03 -0.22839859157E+03  0.31191008883E+03  0.00000000000E+00 0.  1.
<mgrwt>
<rscale>  0 0.14581659E+04</rscale>
<asrwt>0</asrwt>
<pdfrwt beam="1">  1        2 0.13524424E+00 0.14581659E+04</pdfrwt>
<pdfrwt beam="2">  1       -2 0.93026871E-01 0.14581659E+04</pdfrwt>
<totfact> 0.28751839E+01</totfact>
</mgrwt>
</event>
<event>
12    3  0.4192740E-008  0.2528563E+04  0.7818608E-02  0.8392880E-01
         -2   -1    0    0    0  501 -0.00000000000E+00  0.00000000000E+00  0.47110957285E+03  0.47110957285E+03  0.00000000000E+00 0.  1.
          2   -1    0    0  501    0  0.00000000000E+00 -0.00000000000E+00 -0.33928578341E+04  0.33928578341E+04  0.00000000000E+00 0. -1.
         23    2    1    2    0    0 -0.42951552552E+03  0.68389114608E+03 -0.12742836238E+03  0.82239082516E+03  0.88870666717E+02 0.  0.
        254    2    1    2    0    0  0.42951552552E+03 -0.68389114608E+03 -0.27943198988E+04  0.30415765818E+04  0.88925458637E+03 0.  0.
         23    2    4    4    0    0  0.48797412385E+03  0.11951212766E+02 -0.11246148438E+04  0.12294678435E+04  0.92579987982E+02 0.  0.
         23    2    4    4    0    0 -0.58458598327E+02 -0.69584235885E+03 -0.16697050550E+04  0.18121087383E+04  0.90604153071E+02 0.  0.
          1    1    3    3  502    0 -0.19618463059E+03  0.31641840665E+03 -0.10359422105E+03  0.38644634812E+03  0.00000000000E+00 0. -1.
         -1    1    3    3    0  502 -0.23333089494E+03  0.36747273944E+03 -0.23834141334E+02  0.43594447703E+03  0.00000000000E+00 0.  1.
         13    1    5    5    0    0  0.45896998863E+03 -0.10099452088E+02 -0.10628267545E+04  0.11577375175E+04  0.00000000000E+00 0.  1.
        -13    1    5    5    0    0  0.29004135222E+02  0.22050664854E+02 -0.61788089341E+02  0.71730325978E+02  0.00000000000E+00 0. -1.
          4    1    6    6  503    0  0.19342369311E+01 -0.24360739097E+02 -0.11415318919E+03  0.11673961403E+03  0.00000000000E+00 0. -1.
         -4    1    6    6    0  503 -0.60392835258E+02 -0.67148161975E+03 -0.15555518658E+04  0.16953691243E+04  0.00000000000E+00 0.  1.
<mgrwt>
<rscale>  0 0.25285631E+04</rscale>
<asrwt>0</asrwt>
<pdfrwt beam="1">  1        2 0.52197813E+00 0.25285631E+04</pdfrwt>
<pdfrwt beam="2">  1       -2 0.72478396E-01 0.25285631E+04</pdfrwt>
<totfact> 0.14787532E+00</totfact>
</mgrwt>
</event>
<event>
12    3  0.4192740E-008  0.2695071E+04  0.7818608E-02  0.8336606E-01
         -1   -1    0    0    0  501 -0.00000000000E+00  0.00000000000E+00  0.11937212329E+04  0.11937212329E+04  0.00000000000E+00 0.  1.
          1   -1    0    0  501    0  0.00000000000E+00 -0.00000000000E+00 -0.15211692276E+04  0.15211692276E+04  0.00000000000E+00 0. -1.
         23    2    1    2    0    0  0.70558285124E+03 -0.97853286370E+02 -0.11126123143E+04  0.13241669530E+04  0.89941824411E+02 0.  0.
        254    2    1    2    0    0 -0.70558285124E+03  0.97853286370E+02  0.78516431963E+03  0.13907235075E+04  0.90011468148E+03 0.  0.
         23    2    4    4    0    0 -0.20518507923E+03 -0.22221256294E+03  0.71997737758E+03  0.78609608881E+03  0.90001648551E+02 0.  0.
         23    2    4    4    0    0 -0.50039777201E+03  0.32006584931E+03  0.65186942049E+02  0.60462741867E+03  0.92113516194E+02 0.  0.
          3    1    3    3  502    0  0.68507359274E+03 -0.92979927627E+02 -0.10421503207E+04  0.12506192008E+04  0.00000000000E+00 0. -1.
         -3    1    3    3    0  502  0.20509258496E+02 -0.48733587440E+01 -0.70461993631E+02  0.73547752215E+02  0.00000000000E+00 0.  1.
         13    1    5    5    0    0 -0.93629863823E+02 -0.48781272837E+02  0.18910205079E+03  0.21657735244E+03  0.00000000000E+00 0. -1.
        -13    1    5    5    0    0 -0.11155521540E+03 -0.17343129011E+03  0.53087532679E+03  0.56951873636E+03  0.00000000000E+00 0.  1.
          3    1    6    6  503    0 -0.24707613002E+03  0.15247295561E+03  0.77949814265E+02  0.30061734774E+03  0.00000000000E+00 0. -1.
         -3    1    6    6    0  503 -0.25332164199E+03  0.16759289370E+03 -0.12762872216E+02  0.30401007093E+03  0.00000000000E+00 0.  1.
<mgrwt>
<rscale>  0 0.26950711E+04</rscale>
<asrwt>0</asrwt>
<pdfrwt beam="1">  1        1 0.23402603E+00 0.26950711E+04</pdfrwt>
<pdfrwt beam="2">  1       -1 0.18364942E+00 0.26950711E+04</pdfrwt>
<totfact> 0.10826356E+00</totfact>
</mgrwt>
</event>
<event>
12    3  0.4192740E-008  0.1663346E+04  0.7818608E-02  0.8782550E-01
          1   -1    0    0  501    0  0.00000000000E+00  0.00000000000E+00  0.15063950146E+04  0.15063950146E+04  0.00000000000E+00 0. -1.
         -1   -1    0    0    0  501 -0.00000000000E+00 -0.00000000000E+00 -0.45916220285E+03  0.45916220285E+03  0.00000000000E+00 0.  1.
         23    2    1    2    0    0 -0.41412364349E+03  0.40647872569E+03  0.45066399831E+03  0.74093348136E+03  0.95713310916E+02 0.  0.
        254    2    1    2    0    0  0.41412364349E+03 -0.40647872569E+03  0.59656881344E+03  0.12246237361E+04  0.89837942946E+03 0.  0.
         23    2    4    4    0    0  0.29159498136E+03 -0.36890985031E+03 -0.11750787206E+03  0.49348170201E+03  0.92703718468E+02 0.  0.
         23    2    4    4    0    0  0.12252866213E+03 -0.37568875378E+02  0.71407668550E+03  0.73114203407E+03  0.90766005611E+02 0.  0.
          1    1    3    3  502    0 -0.13994950622E+03  0.97642324270E+02  0.91538895907E+02  0.19364724951E+03  0.00000000000E+00 0. -1.
         -1    1    3    3    0  502 -0.27417413727E+03  0.30883640142E+03  0.35912510241E+03  0.54728623185E+03  0.00000000000E+00 0.  1.
         13    1    5    5    0    0  0.19083613330E+03 -0.26472203769E+03 -0.39039321504E+02  0.32866435102E+03  0.00000000000E+00 0. -1.
        -13    1    5    5    0    0  0.10075884806E+03 -0.10418781262E+03 -0.78468550556E+02  0.16481735099E+03  0.00000000000E+00 0.  1.
          4    1    6    6  503    0  0.86788973972E+02  0.16737658835E+02  0.48638477817E+03  0.49435071322E+03  0.00000000000E+00 0. -1.
         -4    1    6    6    0  503  0.35739688159E+02 -0.54306534213E+02  0.22769190733E+03  0.23679132085E+03  0.00000000000E+00 0.  1.
<mgrwt>
<rscale>  0 0.16633456E+04</rscale>
<asrwt>0</asrwt>
<pdfrwt beam="1">  1        1 0.23175308E+00 0.16633456E+04</pdfrwt>
<pdfrwt beam="2">  1       -1 0.70640340E-01 0.16633456E+04</pdfrwt>
<totfact> 0.12514792E+01</totfact>
</mgrwt>
</event>
<event>
12    3  0.4192740E-008  0.2144281E+04  0.7818608E-02  0.8541984E-01
         -1   -1    0    0    0  501 -0.00000000000E+00  0.00000000000E+00  0.59797885818E+03  0.59797885818E+03  0.00000000000E+00 0.  1.
          1   -1    0    0  501    0  0.00000000000E+00 -0.00000000000E+00 -0.19222834605E+04  0.19222834605E+04  0.00000000000E+00 0. -1.
         23    2    1    2    0    0 -0.44630007852E+03  0.54226915376E+03  0.88923895809E+02  0.71543907102E+03  0.10346985012E+03 0.  0.
        254    2    1    2    0    0  0.44630007852E+03 -0.54226915376E+03 -0.14132284982E+04  0.18048232477E+04  0.87574686536E+03 0.  0.
         23    2    4    4    0    0  0.53911085695E+03 -0.62343067265E+03 -0.72996409851E+03  0.11047608481E+04  0.91337981209E+02 0.  0.
         23    2    4    4    0    0 -0.92810778432E+02  0.81161518888E+02 -0.68326439966E+03  0.70006239955E+03  0.89644245072E+02 0.  0.
          3    1    3    3  502    0 -0.79107456085E+02  0.98978153741E+02 -0.23703173609E+02  0.12890502304E+03  0.00000000000E+00 0. -1.
         -3    1    3    3    0  502 -0.36719262243E+03  0.44329100002E+03  0.11262706942E+03  0.58653404797E+03  0.00000000000E+00 0.  1.
         13    1    5    5    0    0  0.13769607097E+03 -0.10547048798E+03 -0.16862414373E+03  0.24190562962E+03  0.00000000000E+00 0.  1.
        -13    1    5    5    0    0  0.40141478598E+03 -0.51796018467E+03 -0.56133995478E+03  0.86285521853E+03  0.00000000000E+00 0. -1.
          1    1    6    6  503    0 -0.96616545488E+02  0.52220155049E+02 -0.62831109206E+03  0.63783738513E+03  0.00000000000E+00 0. -1.
         -1    1    6    6    0  503  0.38057670561E+01  0.28941363839E+02 -0.54953307599E+02  0.62225014422E+02  0.00000000000E+00 0.  1.
<mgrwt>
<rscale>  0 0.21442806E+04</rscale>
<asrwt>0</asrwt>
<pdfrwt beam="1">  1        1 0.29573592E+00 0.21442806E+04</pdfrwt>
<pdfrwt beam="2">  1       -1 0.91996748E-01 0.21442806E+04</pdfrwt>
<totfact> 0.35463103E+00</totfact>
</mgrwt>
</event>
<event>
12    3  0.4192740E-008  0.1511660E+04  0.7818608E-02  0.8876736E-01
          2   -1    0    0  501    0  0.00000000000E+00  0.00000000000E+00  0.67059538697E+03  0.67059538697E+03  0.00000000000E+00 0. -1.
         -2   -1    0    0    0  501 -0.00000000000E+00 -0.00000000000E+00 -0.85189781759E+03  0.85189781759E+03  0.00000000000E+00 0.  1.
         23    2    1    2    0    0  0.34998581549E+03 -0.28777931154E+03 -0.19605031824E+03  0.50203725315E+03  0.91097053051E+02 0.  0.
        254    2    1    2    0    0 -0.34998581549E+03  0.28777931154E+03  0.14747887617E+02  0.10204559514E+04  0.91422417676E+03 0.  0.
         23    2    4    4    0    0  0.21136179827E+03  0.87817627975E+02  0.26975484473E+03  0.36576419186E+03  0.92897912973E+02 0.  0.
         23    2    4    4    0    0 -0.56134761376E+03  0.19996168357E+03 -0.25500695711E+03  0.65469175955E+03  0.92178812509E+02 0.  0.
          1    1    3    3  502    0  0.13217259946E+03 -0.69762181941E+02 -0.97664077165E+02  0.17853467463E+03  0.00000000000E+00 0. -1.
         -1    1    3    3    0  502  0.21781321603E+03 -0.21801712960E+03 -0.98386241078E+02  0.32350257852E+03  0.00000000000E+00 0.  1.
         13    1    5    5    0    0  0.19257365831E+03  0.83841861328E+02  0.27483233597E+03  0.34590010766E+03  0.00000000000E+00 0.  1.
        -13    1    5    5    0    0  0.18788139966E+02  0.39757666467E+01 -0.50774912337E+01  0.19864084198E+02  0.00000000000E+00 0. -1.
          1    1    6    6  503    0 -0.55421141909E+03  0.20789470234E+03 -0.24717794809E+03  0.64145728021E+03  0.00000000000E+00 0.  1.
         -1    1    6    6    0  503 -0.71361946722E+01 -0.79330187692E+01 -0.78290090235E+01  0.13234479343E+02  0.00000000000E+00 0. -1.
<mgrwt>
<rscale>  0 0.15116597E+04</rscale>
<asrwt>0</asrwt>
<pdfrwt beam="1">  1        2 0.10316852E+00 0.15116597E+04</pdfrwt>
<pdfrwt beam="2">  1       -2 0.13106120E+00 0.15116597E+04</pdfrwt>
<totfact> 0.17756137E+01</totfact>
</mgrwt>
</event>
<event>
12    3  0.4192740E-008  0.1261734E+04  0.7818608E-02  0.9060473E-01
         -1   -1    0    0    0  501 -0.00000000000E+00  0.00000000000E+00  0.83844545215E+03  0.83844545215E+03  0.00000000000E+00 0.  1.
          1   -1    0    0  501    0  0.00000000000E+00 -0.00000000000E+00 -0.47467978660E+03  0.47467978660E+03  0.00000000000E+00 0. -1.
         23    2    1    2    0    0  0.53361452754E+02 -0.23076032768E+03  0.27101420174E+03  0.37144565358E+03  0.91789991558E+02 0.  0.
        254    2    1    2    0    0 -0.53361452754E+02  0.23076032768E+03  0.92751463818E+02  0.94167958517E+03  0.90667515330E+03 0.  0.
         23    2    4    4    0    0  0.10442694421E+03 -0.67214876771E+02 -0.34676683292E+03  0.38024073444E+03  0.94408439135E+02 0.  0.
         23    2    4    4    0    0 -0.15778839696E+03  0.29797520445E+03  0.43951829674E+03  0.56143885073E+03  0.91382981233E+02 0.  0.
          4    1    3    3  502    0  0.13511719226E+01 -0.18284575650E+03  0.20509779486E+03  0.27477172670E+03  0.00000000000E+00 0. -1.
         -4    1    3    3    0  502  0.52010280831E+02 -0.47914571176E+02  0.65916406874E+02  0.96673926880E+02  0.00000000000E+00 0.  1.
         13    1    5    5    0    0  0.52199006591E+02 -0.16891329961E+02 -0.26638044357E+03  0.27197167873E+03  0.00000000000E+00 0. -1.
        -13    1    5    5    0    0  0.52227937619E+02 -0.50323546809E+02 -0.80386389352E+02  0.10826905571E+03  0.00000000000E+00 0.  1.
          2    1    6    6  503    0 -0.39101981190E+02  0.15819789324E+03  0.24374298917E+03  0.29319990301E+03  0.00000000000E+00 0. -1.
         -2    1    6    6    0  503 -0.11868641577E+03  0.13977731121E+03  0.19577530757E+03  0.26823894772E+03  0.00000000000E+00 0.  1.
<mgrwt>
<rscale>  0 0.12617339E+04</rscale>
<asrwt>0</asrwt>
<pdfrwt beam="1">  1        1 0.73027660E-01 0.12617339E+04</pdfrwt>
<pdfrwt beam="2">  1       -1 0.12899161E+00 0.12617339E+04</pdfrwt>
<totfact> 0.24269762E+01</totfact>
</mgrwt>
</event>
<event>
12    3  0.4192740E-008  0.1149733E+04  0.7818608E-02  0.9158030E-01
          1   -1    0    0  501    0  0.00000000000E+00  0.00000000000E+00  0.95201551948E+03  0.95201551948E+03  0.00000000000E+00 0. -1.
         -1   -1    0    0    0  501 -0.00000000000E+00 -0.00000000000E+00 -0.34712826470E+03  0.34712826470E+03  0.00000000000E+00 0.  1.
         23    2    1    2    0    0 -0.54283055435E+02 -0.19527895218E+03  0.10335842509E+03  0.24526795812E+03  0.91612706385E+02 0.  0.
        254    2    1    2    0    0  0.54283055435E+02  0.19527895218E+03  0.50152882969E+03  0.10538758261E+04  0.90445705840E+03 0.  0.
         23    2    4    4    0    0 -0.30552537806E+03  0.37491407471E+03  0.15699532440E+03  0.51649416855E+03  0.90622150774E+02 0.  0.
         23    2    4    4    0    0  0.35980843350E+03 -0.17963512253E+03  0.34453350529E+03  0.53738165751E+03  0.91350005484E+02 0.  0.
          3    1    3    3  502    0 -0.51612890685E+02 -0.17851316305E+03  0.12023416858E+03  0.22133028523E+03  0.00000000000E+00 0. -1.
         -3    1    3    3    0  502 -0.26701647500E+01 -0.16765789131E+02 -0.16875743490E+02  0.23937672889E+02  0.00000000000E+00 0.  1.
         13    1    5    5    0    0 -0.11821080071E+03  0.10802854568E+03  0.14936722677E+02  0.16083241517E+03  0.00000000000E+00 0. -1.
        -13    1    5    5    0    0 -0.18731457735E+03  0.26688552903E+03  0.14205860172E+03  0.35566175338E+03  0.00000000000E+00 0.  1.
          4    1    6    6  503    0  0.31715305293E+03 -0.13554295491E+03  0.32251700090E+03  0.47220246450E+03  0.00000000000E+00 0.  1.
         -4    1    6    6    0  503  0.42655380562E+02 -0.44092167621E+02  0.22016504396E+02  0.65179193016E+02  0.00000000000E+00 0. -1.
<mgrwt>
<rscale>  0 0.11497330E+04</rscale>
<asrwt>0</asrwt>
<pdfrwt beam="1">  1        1 0.14646392E+00 0.11497330E+04</pdfrwt>
<pdfrwt beam="2">  1       -1 0.53404349E-01 0.11497330E+04</pdfrwt>
<totfact> 0.58002220E+01</totfact>
</mgrwt>
</event>
<event>
12    3  0.4192740E-008  0.1963074E+04  0.7818608E-02  0.8624082E-01
         -1   -1    0    0    0  501 -0.00000000000E+00  0.00000000000E+00  0.60142829214E+03  0.60142829214E+03  0.00000000000E+00 0.  1.
          1   -1    0    0  501    0  0.00000000000E+00 -0.00000000000E+00 -0.16018775171E+04  0.16018775171E+04  0.00000000000E+00 0. -1.
         23    2    1    2    0    0  0.29619880187E+03  0.51153328605E+03 -0.99540043645E+03  0.11612234485E+04  0.90652277494E+02 0.  0.
        254    2    1    2    0    0 -0.29619880187E+03 -0.51153328605E+03 -0.50487885406E+01  0.10420823608E+04  0.85820167994E+03 0.  0.
         23    2    4    4    0    0  0.16140326660E+03  0.12621397700E+03 -0.10712015141E+03  0.24534674157E+03  0.82093326778E+02 0.  0.
         23    2    4    4    0    0 -0.45760206847E+03 -0.63774726305E+03  0.10207136287E+03  0.79673561923E+03  0.90817725267E+02 0.  0.
          3    1    3    3  502    0  0.20835818511E+03  0.42140235857E+03 -0.82256134436E+03  0.94741767260E+03  0.00000000000E+00 0. -1.
         -3    1    3    3    0  502  0.87840616756E+02  0.90130927479E+02 -0.17283909209E+03  0.21380577587E+03  0.00000000000E+00 0.  1.
         13    1    5    5    0    0  0.15238994006E+03  0.11967477957E+03 -0.69080392472E+02  0.20571059117E+03  0.00000000000E+00 0. -1.
        -13    1    5    5    0    0  0.90133265394E+01  0.65391974336E+01 -0.38039758937E+02  0.39636150398E+02  0.00000000000E+00 0.  1.
          3    1    6    6  503    0 -0.44989445623E+03 -0.59249259715E+03  0.10141532375E+03  0.75082459158E+03  0.00000000000E+00 0. -1.
         -3    1    6    6    0  503 -0.77076122423E+01 -0.45254665905E+02  0.65603912013E+00  0.45911027651E+02  0.00000000000E+00 0.  1.
<mgrwt>
<rscale>  0 0.19630736E+04</rscale>
<asrwt>0</asrwt>
<pdfrwt beam="1">  1        1 0.24644269E+00 0.19630736E+04</pdfrwt>
<pdfrwt beam="2">  1       -1 0.92527431E-01 0.19630736E+04</pdfrwt>
<totfact> 0.58806101E+00</totfact>
</mgrwt>
</event>
<event>
12    3  0.4192740E-008  0.1452179E+04  0.7818608E-02  0.8916891E-01
          1   -1    0    0  501    0  0.00000000000E+00  0.00000000000E+00  0.18106731536E+04  0.18106731536E+04  0.00000000000E+00 0. -1.
         -1   -1    0    0    0  501 -0.00000000000E+00 -0.00000000000E+00 -0.29116562669E+03  0.29116562669E+03  0.00000000000E+00 0.  1.
         23    2    1    2    0    0 -0.18155601237E+03 -0.29149875618E+03  0.71895000059E+02  0.36170964391E+03  0.87925337558E+02 0.  0.
        254    2    1    2    0    0  0.18155601237E+03  0.29149875618E+03  0.14476125269E+04  0.17401291364E+04  0.90251497101E+03 0.  0.
         23    2    4    4    0    0  0.43350276419E+03  0.12188611653E+03  0.29748344794E+03  0.54702928978E+03  0.89239958083E+02 0.  0.
         23    2    4    4    0    0 -0.25194675182E+03  0.16961263965E+03  0.11501290789E+04  0.11930998466E+04  0.91895225715E+02 0.  0.
          4    1    3    3  502    0 -0.15445718867E+03 -0.27395302971E+03  0.86650808322E+02  0.32621411404E+03  0.00000000000E+00 0. -1.
         -4    1    3    3    0  502 -0.27098823695E+02 -0.17545726468E+02 -0.14755808263E+02  0.35495529866E+02  0.00000000000E+00 0.  1.
         13    1    5    5    0    0  0.32268996495E+03  0.74233077109E+02  0.17260252999E+03  0.37340460171E+03  0.00000000000E+00 0. -1.
        -13    1    5    5    0    0  0.11081279924E+03  0.47653039422E+02  0.12488091795E+03  0.17362468808E+03  0.00000000000E+00 0.  1.
          1    1    6    6  503    0 -0.21578186179E+03  0.17135645434E+03  0.10742405107E+04  0.11090164657E+04  0.00000000000E+00 0. -1.
         -1    1    6    6    0  503 -0.36164890035E+02 -0.17438146929E+01  0.75888568191E+02  0.84083380897E+02  0.00000000000E+00 0.  1.
<mgrwt>
<rscale>  0 0.14521788E+04</rscale>
<asrwt>0</asrwt>
<pdfrwt beam="1">  1        1 0.27856509E+00 0.14521788E+04</pdfrwt>
<pdfrwt beam="2">  1       -1 0.44794713E-01 0.14521788E+04</pdfrwt>
<totfact> 0.19222903E+01</totfact>
</mgrwt>
</event>
<event>
12    3  0.4192740E-008  0.2996946E+04  0.7818608E-02  0.8244603E-01
         -1   -1    0    0    0  501 -0.00000000000E+00  0.00000000000E+00  0.18998718189E+04  0.18998718189E+04  0.00000000000E+00 0.  1.
          1   -1    0    0  501    0  0.00000000000E+00 -0.00000000000E+00 -0.11818806723E+04  0.11818806723E+04  0.00000000000E+00 0. -1.
         23    2    1    2    0    0 -0.61077500115E+03  0.12144249047E+04  0.26449919390E+03  0.13881376612E+04  0.95354033333E+02 0.  0.
        254    2    1    2    0    0  0.61077500115E+03 -0.12144249047E+04  0.45349195269E+03  0.16936148300E+04  0.90266399622E+03 0.  0.
         23    2    4    4    0    0  0.13217081278E+03 -0.81159788275E+03  0.62746343830E+03  0.10383893814E+04  0.91552684498E+02 0.  0.
         23    2    4    4    0    0  0.47860418837E+03 -0.40282702198E+03 -0.17397148561E+03  0.65522544859E+03  0.87879075517E+02 0.  0.
          4    1    3    3  502    0 -0.54851114359E+03  0.11039952636E+04  0.21163422107E+03  0.12507833786E+04  0.00000000000E+00 0. -1.
         -4    1    3    3    0  502 -0.62263857560E+02  0.11042964115E+03  0.52864972833E+02  0.13735428262E+03  0.00000000000E+00 0.  1.
         13    1    5    5    0    0  0.65074360231E+02 -0.63662352295E+03  0.48914735982E+03  0.80547459423E+03  0.00000000000E+00 0. -1.
        -13    1    5    5    0    0  0.67096452550E+02 -0.17497435980E+03  0.13831607848E+03  0.23291478720E+03  0.00000000000E+00 0.  1.
          3    1    6    6  503    0  0.46609383801E+03 -0.37378072627E+03 -0.17783985165E+03  0.62336386645E+03  0.00000000000E+00 0. -1.
         -3    1    6    6    0  503  0.12510350357E+02 -0.29046295714E+02  0.38683660362E+01  0.31861582142E+02  0.00000000000E+00 0.  1.
<mgrwt>
<rscale>  0 0.29969463E+04</rscale>
<asrwt>0</asrwt>
<pdfrwt beam="1">  1        1 0.18182780E+00 0.29969463E+04</pdfrwt>
<pdfrwt beam="2">  1       -1 0.29228797E+00 0.29969463E+04</pdfrwt>
<totfact> 0.34750531E-01</totfact>
</mgrwt>
</event>
<event>
12    3  0.4192740E-008  0.1519758E+04  0.7818608E-02  0.8871420E-01
         -2   -1    0    0    0  501 -0.00000000000E+00  0.00000000000E+00  0.22898597435E+03  0.22898597435E+03  0.00000000000E+00 0.  1.
          2   -1    0    0  501    0  0.00000000000E+00 -0.00000000000E+00 -0.25216209812E+04  0.25216209812E+04  0.00000000000E+00 0. -1.
         23    2    1    2    0    0 -0.30431875650E+03 -0.20194411396E+03 -0.13203671845E+04  0.13730680187E+04  0.92492980380E+02 0.  0.
        254    2    1    2    0    0  0.30431875650E+03  0.20194411396E+03 -0.97226782244E+03  0.13775389369E+04  0.90494059111E+03 0.  0.
         23    2    4    4    0    0  0.87652214744E+02  0.53961777936E+03 -0.64876733681E+03  0.85321525115E+03  0.90592212357E+02 0.  0.
         23    2    4    4    0    0  0.21666654175E+03 -0.33767366539E+03 -0.32350048563E+03  0.52432368576E+03  0.96409899032E+02 0.  0.
          2    1    3    3  502    0 -0.30962715971E+03 -0.20050909821E+03 -0.12725707012E+04  0.13249562507E+04  0.00000000000E+00 0. -1.
         -2    1    3    3    0  502  0.53084032156E+01 -0.14350157580E+01 -0.47796483212E+02  0.48111768024E+02  0.00000000000E+00 0.  1.
         13    1    5    5    0    0  0.33958626301E+02  0.47709397469E+02 -0.55628030674E+02  0.80770370209E+02  0.00000000000E+00 0.  1.
        -13    1    5    5    0    0  0.53693588443E+02  0.49190838189E+03 -0.59313930613E+03  0.77244488094E+03  0.00000000000E+00 0. -1.
          2    1    6    6  503    0  0.20862310353E+03 -0.30484564577E+03 -0.25786976333E+03  0.45050114530E+03  0.00000000000E+00 0. -1.
         -2    1    6    6    0  503  0.80434382222E+01 -0.32828019617E+02 -0.65630722305E+02  0.73822540464E+02  0.00000000000E+00 0.  1.
<mgrwt>
<rscale>  0 0.15197577E+04</rscale>
<asrwt>0</asrwt>
<pdfrwt beam="1">  1        2 0.38794169E+00 0.15197577E+04</pdfrwt>
<pdfrwt beam="2">  1       -2 0.35228611E-01 0.15197577E+04</pdfrwt>
<totfact> 0.24753980E+01</totfact>
</mgrwt>
</event>
<event>
12    3  0.4192740E-008  0.1644278E+04  0.7818608E-02  0.8793799E-01
         -1   -1    0    0    0  501 -0.00000000000E+00  0.00000000000E+00  0.96404373607E+03  0.96404373607E+03  0.00000000000E+00 0.  1.
          1   -1    0    0  501    0  0.00000000000E+00 -0.00000000000E+00 -0.70112213424E+03  0.70112213424E+03  0.00000000000E+00 0. -1.
         23    2    1    2    0    0  0.15319536484E+03 -0.51034172948E+02  0.64074820789E+03  0.66726073581E+03  0.92764847980E+02 0.  0.
        254    2    1    2    0    0 -0.15319536484E+03  0.51034172948E+02 -0.37782660606E+03  0.99790513451E+03  0.90938902930E+03 0.  0.
         23    2    4    4    0    0  0.63351933710E+02 -0.13511498407E+03  0.24821680562E+03  0.30375648653E+03  0.91579987406E+02 0.  0.
         23    2    4    4    0    0 -0.21654729855E+03  0.18614915702E+03 -0.62604341168E+03  0.69414864797E+03  0.91475412043E+02 0.  0.
          3    1    3    3  502    0 -0.33700316744E+01  0.12968373508E+02  0.21545808382E+02  0.25372380333E+02  0.00000000000E+00 0. -1.
         -3    1    3    3    0  502  0.15656539652E+03 -0.64002546456E+02  0.61920239951E+03  0.64188835547E+03  0.00000000000E+00 0.  1.
         13    1    5    5    0    0 -0.74312826278E+01 -0.63213628008E+02  0.48574319201E+02  0.80066542409E+02  0.00000000000E+00 0. -1.
        -13    1    5    5    0    0  0.70783216337E+02 -0.71901356064E+02  0.19964248642E+03  0.22368994412E+03  0.00000000000E+00 0.  1.
          1    1    6    6  503    0  0.51691700870E+01  0.24202746006E+02 -0.41174040962E+02  0.48039513765E+02  0.00000000000E+00 0. -1.
         -1    1    6    6    0  503 -0.22171646864E+03  0.16194641101E+03 -0.58486937071E+03  0.64610913421E+03  0.00000000000E+00 0.  1.
<mgrwt>
<rscale>  0 0.16442778E+04</rscale>
<asrwt>0</asrwt>
<pdfrwt beam="1">  1        1 0.10786494E+00 0.16442778E+04</pdfrwt>
<pdfrwt beam="2">  1       -1 0.14831442E+00 0.16442778E+04</pdfrwt>
<totfact> 0.93464179E+00</totfact>
</mgrwt>
</event>
<event>
12    3  0.4192740E-008  0.1897842E+04  0.7818608E-02  0.8655931E-01
         -2   -1    0    0    0  501 -0.00000000000E+00  0.00000000000E+00  0.11842001827E+04  0.11842001827E+04  0.00000000000E+00 0.  1.
          2   -1    0    0  501    0  0.00000000000E+00 -0.00000000000E+00 -0.76038766466E+03  0.76038766466E+03  0.00000000000E+00 0. -1.
         23    2    1    2    0    0 -0.33392125506E+03  0.46008838501E+03  0.64335587115E+03  0.86307971315E+03  0.88402984742E+02 0.  0.
        254    2    1    2    0    0  0.33392125506E+03 -0.46008838501E+03 -0.21954335314E+03  0.10815081342E+04  0.89346283289E+03 0.  0.
         23    2    4    4    0    0  0.23309712001E+03 -0.67282210578E+02 -0.51142516249E+03  0.57368496953E+03  0.93260839659E+02 0.  0.
         23    2    4    4    0    0  0.10082413505E+03 -0.39280617443E+03  0.29188180935E+03  0.50782316464E+03  0.90703798363E+02 0.  0.
          1    1    3    3  502    0 -0.31699357656E+02  0.20071559904E+02  0.71803250228E+02  0.81014958718E+02  0.00000000000E+00 0. -1.
         -1    1    3    3    0  502 -0.30222189741E+03  0.44001682510E+03  0.57155262092E+03  0.78206475443E+03  0.00000000000E+00 0.  1.
         13    1    5    5    0    0  0.74654766335E+02 -0.29867278341E+02 -0.27584457299E+03  0.28732493261E+03  0.00000000000E+00 0. -1.
        -13    1    5    5    0    0  0.15844235367E+03 -0.37414932236E+02 -0.23558058950E+03  0.28636003692E+03  0.00000000000E+00 0.  1.
          4    1    6    6  503    0  0.40090007392E+02 -0.31120027528E+03  0.21664820002E+03  0.38129943955E+03  0.00000000000E+00 0.  1.
         -4    1    6    6    0  503  0.60734127660E+02 -0.81605899146E+02  0.75233609329E+02  0.12652372509E+03  0.00000000000E+00 0. -1.
<mgrwt>
<rscale>  0 0.18978422E+04</rscale>
<asrwt>0</asrwt>
<pdfrwt beam="1">  1        2 0.11698272E+00 0.18978422E+04</pdfrwt>
<pdfrwt beam="2">  1       -2 0.18218464E+00 0.18978422E+04</pdfrwt>
<totfact> 0.60395777E+00</totfact>
</mgrwt>
</event>
<event>
12    3  0.4192740E-008  0.1627128E+04  0.7818608E-02  0.8804053E-01
          1   -1    0    0  501    0  0.00000000000E+00  0.00000000000E+00  0.79791129055E+03  0.79791129055E+03  0.00000000000E+00 0. -1.
         -1   -1    0    0    0  501 -0.00000000000E+00 -0.00000000000E+00 -0.82952402824E+03  0.82952402824E+03  0.00000000000E+00 0.  1.
         23    2    1    2    0    0  0.40757877827E+03 -0.16346704305E+03 -0.34471797512E+03  0.56608214501E+03  0.93683391642E+02 0.  0.
        254    2    1    2    0    0 -0.40757877827E+03  0.16346704305E+03  0.31310523743E+03  0.10613531738E+04  0.91410816380E+03 0.  0.
         23    2    4    4    0    0 -0.21547254904E+03  0.50098224127E+03 -0.18047180415E+01  0.55303328792E+03  0.91820123543E+02 0.  0.
         23    2    4    4    0    0 -0.19210622923E+03 -0.33751519822E+03  0.31490995547E+03  0.50831988586E+03  0.91648862307E+02 0.  0.
          3    1    3    3  502    0  0.39401487875E+03 -0.17507759130E+03 -0.33054810410E+03  0.54328807899E+03  0.00000000000E+00 0. -1.
         -3    1    3    3    0  502  0.13563899522E+02  0.11610548252E+02 -0.14169871024E+02  0.22794066021E+02  0.00000000000E+00 0.  1.
         13    1    5    5    0    0 -0.22721694887E+02  0.10555308531E+03 -0.30489365675E+02  0.11219327367E+03  0.00000000000E+00 0. -1.
        -13    1    5    5    0    0 -0.19275085416E+03  0.39542915596E+03  0.28684647633E+02  0.44084001426E+03  0.00000000000E+00 0.  1.
          4    1    6    6  503    0 -0.15587705295E+03 -0.20129251095E+03  0.23399336231E+03  0.34578783120E+03  0.00000000000E+00 0. -1.
         -4    1    6    6    0  503 -0.36229176273E+02 -0.13622268727E+03  0.80916593165E+02  0.16253205466E+03  0.00000000000E+00 0.  1.
<mgrwt>
<rscale>  0 0.16271283E+04</rscale>
<asrwt>0</asrwt>
<pdfrwt beam="1">  1        1 0.12275558E+00 0.16271283E+04</pdfrwt>
<pdfrwt beam="2">  1       -1 0.12761908E+00 0.16271283E+04</pdfrwt>
<totfact> 0.11296878E+01</totfact>
</mgrwt>
</event>
<event>
12    3  0.4192740E-008  0.1770488E+04  0.7818608E-02  0.8722153E-01
          2   -1    0    0  501    0  0.00000000000E+00  0.00000000000E+00  0.22186819570E+04  0.22186819570E+04  0.00000000000E+00 0. -1.
         -2   -1    0    0    0  501 -0.00000000000E+00 -0.00000000000E+00 -0.35320834109E+03  0.35320834109E+03  0.00000000000E+00 0.  1.
         23    2    1    2    0    0  0.31256603590E+03 -0.55521092108E+03  0.79547652567E+03  0.10231429273E+04  0.89899127107E+02 0.  0.
        254    2    1    2    0    0 -0.31256603590E+03  0.55521092108E+03  0.10699970902E+04  0.15487473708E+04  0.92074315193E+03 0.  0.
         23    2    4    4    0    0  0.24330396654E+03  0.42140493736E+03  0.71378064302E+03  0.86906918049E+03  0.94971010129E+02 0.  0.
         23    2    4    4    0    0 -0.55587000244E+03  0.13380598372E+03  0.35621644721E+03  0.67967819032E+03  0.90425572964E+02 0.  0.
          2    1    3    3  502    0  0.20697885887E+03 -0.36441487884E+03  0.45293421547E+03  0.61708010459E+03  0.00000000000E+00 0. -1.
         -2    1    3    3    0  502  0.10558717703E+03 -0.19079604223E+03  0.34254231020E+03  0.40606282268E+03  0.00000000000E+00 0.  1.
         13    1    5    5    0    0  0.20484213883E+03  0.35446262104E+03  0.52980069915E+03  0.66954673651E+03  0.00000000000E+00 0. -1.
        -13    1    5    5    0    0  0.38461827703E+02  0.66942316325E+02  0.18397994387E+03  0.19952244398E+03  0.00000000000E+00 0.  1.
          2    1    6    6  503    0 -0.45523645680E+03  0.14219708414E+03  0.30834334668E+03  0.56792240824E+03  0.00000000000E+00 0. -1.
         -2    1    6    6    0  503 -0.10063354564E+03 -0.83911004293E+01  0.47873100535E+02  0.11175578209E+03  0.00000000000E+00 0.  1.
<mgrwt>
<rscale>  0 0.17704880E+04</rscale>
<asrwt>0</asrwt>
<pdfrwt beam="1">  1        2 0.34133568E+00 0.17704880E+04</pdfrwt>
<pdfrwt beam="2">  1       -2 0.54339746E-01 0.17704880E+04</pdfrwt>
<totfact> 0.15211223E+01</totfact>
</mgrwt>
</event>
<event>
12    3  0.4192740E-008  0.1963187E+04  0.7818608E-02  0.8624028E-01
         -1   -1    0    0    0  501 -0.00000000000E+00  0.00000000000E+00  0.11345693744E+04  0.11345693744E+04  0.00000000000E+00 0.  1.
          1   -1    0    0  501    0  0.00000000000E+00 -0.00000000000E+00 -0.84924342973E+03  0.84924342973E+03  0.00000000000E+00 0. -1.
         23    2    1    2    0    0  0.36647385396E+03 -0.62391446673E+03  0.36552187626E+03  0.81561308081E+03  0.89700101069E+02 0.  0.
        254    2    1    2    0    0 -0.36647385396E+03  0.62391446673E+03 -0.80195931542E+02  0.11681997234E+04  0.91361198482E+03 0.  0.
         23    2    4    4    0    0  0.29467832843E+03  0.19250263946E+03 -0.87865778360E+02  0.37318533296E+03  0.87488938084E+02 0.  0.
         23    2    4    4    0    0 -0.66115218239E+03  0.43141182727E+03  0.76698468184E+01  0.79501439041E+03  0.93545076939E+02 0.  0.
          1    1    3    3  502    0  0.24136893991E+03 -0.42307251014E+03  0.19846403155E+03  0.52596319815E+03  0.00000000000E+00 0. -1.
         -1    1    3    3    0  502  0.12510491405E+03 -0.20084195660E+03  0.16705784470E+03  0.28964988266E+03  0.00000000000E+00 0.  1.
         13    1    5    5    0    0  0.28733416642E+03  0.19807040939E+03 -0.74340061431E+02  0.35681823805E+03  0.00000000000E+00 0. -1.
        -13    1    5    5    0    0  0.73441620039E+01 -0.55677699272E+01 -0.13525716930E+02  0.16367094915E+02  0.00000000000E+00 0.  1.
          3    1    6    6  503    0 -0.44441563964E+03  0.23797022934E+03 -0.65303943672E+01  0.50416042770E+03  0.00000000000E+00 0. -1.
         -3    1    6    6    0  503 -0.21673654275E+03  0.19344159793E+03  0.14200241186E+02  0.29085396271E+03  0.00000000000E+00 0.  1.
<mgrwt>
<rscale>  0 0.19631868E+04</rscale>
<asrwt>0</asrwt>
<pdfrwt beam="1">  1        1 0.13065283E+00 0.19631868E+04</pdfrwt>
<pdfrwt beam="2">  1       -1 0.17454914E+00 0.19631868E+04</pdfrwt>
<totfact> 0.42537442E+00</totfact>
</mgrwt>
</event>
<event>
12    3  0.4192740E-008  0.2209677E+04  0.7818608E-02  0.8514411E-01
          1   -1    0    0  501    0  0.00000000000E+00  0.00000000000E+00  0.12655516904E+04  0.12655516904E+04  0.00000000000E+00 0. -1.
         -1   -1    0    0    0  501 -0.00000000000E+00 -0.00000000000E+00 -0.96453411465E+03  0.96453411465E+03  0.00000000000E+00 0.  1.
         23    2    1    2    0    0 -0.24004813141E+03 -0.81898553877E+03 -0.21772434367E+03  0.88544400543E+03  0.90811776874E+02 0.  0.
        254    2    1    2    0    0  0.24004813141E+03  0.81898553877E+03  0.51874191940E+03  0.13446417996E+04  0.90033769898E+03 0.  0.
         23    2    4    4    0    0  0.53031964671E+03  0.72692442527E+03  0.27315995571E+03  0.94461040669E+03  0.89523244416E+02 0.  0.
         23    2    4    4    0    0 -0.29027151530E+03  0.92061113501E+02  0.24558196370E+03  0.40003139292E+03  0.83557245129E+02 0.  0.
          3    1    3    3  502    0 -0.64301388435E+02 -0.28007987136E+03 -0.11421400158E+03  0.30923169477E+03  0.00000000000E+00 0. -1.
         -3    1    3    3    0  502 -0.17574674297E+03 -0.53890566741E+03 -0.10351034209E+03  0.57621231066E+03  0.00000000000E+00 0.  1.
         13    1    5    5    0    0  0.27175725394E+02  0.18206031707E+02 -0.24468747129E+01  0.32801933434E+02  0.00000000000E+00 0. -1.
        -13    1    5    5    0    0  0.50314392131E+03  0.70871839356E+03  0.27560683042E+03  0.91180847326E+03  0.00000000000E+00 0.  1.
          2    1    6    6  503    0 -0.60912014313E+02  0.39078296209E+02  0.99333265019E+02  0.12290030212E+03  0.00000000000E+00 0. -1.
         -2    1    6    6    0  503 -0.22935950099E+03  0.52982817292E+02  0.14624869868E+03  0.27713109080E+03  0.00000000000E+00 0.  1.
<mgrwt>
<rscale>  0 0.22096767E+04</rscale>
<asrwt>0</asrwt>
<pdfrwt beam="1">  1        1 0.19470026E+00 0.22096767E+04</pdfrwt>
<pdfrwt beam="2">  1       -1 0.14838986E+00 0.22096767E+04</pdfrwt>
<totfact> 0.31335656E+00</totfact>
</mgrwt>
</event>
<event>
12    3  0.4192740E-008  0.1806317E+04  0.7818608E-02  0.8702947E-01
          2   -1    0    0  501    0  0.00000000000E+00  0.00000000000E+00  0.36194186239E+04  0.36194186239E+04  0.00000000000E+00 0. -1.
         -2   -1    0    0    0  501 -0.00000000000E+00 -0.00000000000E+00 -0.22536634052E+03  0.22536634052E+03  0.00000000000E+00 0.  1.
         23    2    1    2    0    0  0.17431836430E+03  0.39871040844E+02 -0.10611545688E+03  0.22750108640E+03  0.92302015664E+02 0.  0.
        254    2    1    2    0    0 -0.17431836430E+03 -0.39871040844E+02  0.35001677403E+04  0.36172838781E+04  0.89531662116E+03 0.  0.
         23    2    4    4    0    0  0.17167227057E+03 -0.36183044276E+01  0.29722217844E+04  0.29784747781E+04  0.87893157333E+02 0.  0.
         23    2    4    4    0    0 -0.34599063487E+03 -0.36252736416E+02  0.52794595587E+03  0.63880909998E+03  0.91248855278E+02 0.  0.
          2    1    3    3  502    0  0.32236684768E+02  0.46288774291E+02 -0.47216574489E+02  0.73561262745E+02  0.00000000000E+00 0. -1.
         -2    1    3    3    0  502  0.14208167953E+03 -0.64177334465E+01 -0.58898882392E+02  0.15393982366E+03  0.00000000000E+00 0.  1.
         13    1    5    5    0    0  0.99583919179E+02 -0.45533030738E+02  0.17024006588E+04  0.17059185845E+04  0.00000000000E+00 0.  1.
        -13    1    5    5    0    0  0.72088351391E+02  0.41914726310E+02  0.12698211256E+04  0.12725561935E+04  0.00000000000E+00 0. -1.
          1    1    6    6  503    0 -0.57655262942E+02 -0.40231837311E+02  0.85574314490E+02  0.11075059087E+03  0.00000000000E+00 0. -1.
         -1    1    6    6    0  503 -0.28833537193E+03  0.39791008946E+01  0.44237164138E+03  0.52805850911E+03  0.00000000000E+00 0.  1.
<mgrwt>
<rscale>  0 0.18063168E+04</rscale>
<asrwt>0</asrwt>
<pdfrwt beam="1">  1        2 0.55683359E+00 0.18063168E+04</pdfrwt>
<pdfrwt beam="2">  1       -2 0.34671747E-01 0.18063168E+04</pdfrwt>
<totfact> 0.49671114E+00</totfact>
</mgrwt>
</event>
<event>
12    3  0.4192740E-008  0.1340833E+04  0.7818608E-02  0.8997796E-01
         -4   -1    0    0    0  501 -0.00000000000E+00  0.00000000000E+00  0.21224521408E+03  0.21224521408E+03  0.00000000000E+00 0.  1.
          4   -1    0    0  501    0  0.00000000000E+00 -0.00000000000E+00 -0.21176381340E+04  0.21176381340E+04  0.00000000000E+00 0. -1.
         23    2    1    2    0    0 -0.50262612326E+02 -0.28234657721E+03 -0.92983025339E+03  0.97743476155E+03  0.92458061352E+02 0.  0.
        254    2    1    2    0    0  0.50262612326E+02  0.28234657721E+03 -0.97556266658E+03  0.13524485866E+04  0.89171113206E+03 0.  0.
         23    2    4    4    0    0  0.20821051389E+03 -0.18365847992E+03 -0.74715331660E+03  0.80232327858E+03  0.91665203367E+02 0.  0.
         23    2    4    4    0    0 -0.15794790156E+03  0.46600505713E+03 -0.22840934998E+03  0.55012530799E+03  0.91426311583E+02 0.  0.
          4    1    3    3  502    0 -0.76995189217E+02 -0.18571073470E+03 -0.61553800424E+03  0.64753669457E+03  0.00000000000E+00 0. -1.
         -4    1    3    3    0  502  0.26732576891E+02 -0.96635842506E+02 -0.31429224915E+03  0.32989806699E+03  0.00000000000E+00 0.  1.
         13    1    5    5    0    0  0.14567920213E+03 -0.73283875898E+02 -0.47085651455E+03  0.49829590977E+03  0.00000000000E+00 0.  1.
        -13    1    5    5    0    0  0.62531311762E+02 -0.11037460403E+03 -0.27629680205E+03  0.30402736881E+03  0.00000000000E+00 0. -1.
          1    1    6    6  503    0 -0.24867308148E+02  0.11751971708E+03 -0.97764327188E+02  0.15487779243E+03  0.00000000000E+00 0. -1.
         -1    1    6    6    0  503 -0.13308059342E+03  0.34848534005E+03 -0.13064502279E+03  0.39524751556E+03  0.00000000000E+00 0.  1.
<mgrwt>
<rscale>  0 0.13408334E+04</rscale>
<asrwt>0</asrwt>
<pdfrwt beam="1">  1        4 0.32579047E+00 0.13408334E+04</pdfrwt>
<pdfrwt beam="2">  1       -4 0.32653111E-01 0.13408334E+04</pdfrwt>
<totfact> 0.38338050E-01</totfact>
</mgrwt>
</event>
<event>
12    3  0.4192740E-008  0.3125197E+04  0.7818608E-02  0.8208857E-01
          1   -1    0    0  501    0  0.00000000000E+00  0.00000000000E+00  0.31559847793E+04  0.31559847793E+04  0.00000000000E+00 0. -1.
         -1   -1    0    0    0  501 -0.00000000000E+00 -0.00000000000E+00 -0.77367729203E+03  0.77367729203E+03  0.00000000000E+00 0.  1.
         23    2    1    2    0    0 -0.61210259466E+03  0.60620693013E+03  0.25359595978E+04  0.26798525495E+04  0.91444939362E+02 0.  0.
        254    2    1    2    0    0  0.61210259466E+03 -0.60620693013E+03 -0.15365211054E+03  0.12498095218E+04  0.89233314473E+03 0.  0.
         23    2    4    4    0    0  0.25683187434E+03  0.17610459629E+03  0.11600546160E+03  0.34462919906E+03  0.91304858649E+02 0.  0.
         23    2    4    4    0    0  0.35527072032E+03 -0.78231152642E+03 -0.26965757213E+03  0.90518032274E+03  0.91692973510E+02 0.  0.
          2    1    3    3  502    0 -0.58431791094E+03  0.59505452028E+03  0.24786979920E+04  0.26152363256E+04  0.00000000000E+00 0. -1.
         -2    1    3    3    0  502 -0.27784683717E+02  0.11152409851E+02  0.57261605757E+02  0.64616223880E+02  0.00000000000E+00 0.  1.
         13    1    5    5    0    0  0.56032943282E+02  0.87650868206E+02  0.50511642413E+02  0.11564510992E+03  0.00000000000E+00 0.  1.
        -13    1    5    5    0    0  0.20079893106E+03  0.88453728083E+02  0.65493819183E+02  0.22898408913E+03  0.00000000000E+00 0. -1.
          4    1    6    6  503    0  0.18091412449E+03 -0.32011651406E+03 -0.81892076182E+02  0.37671051904E+03  0.00000000000E+00 0.  1.
         -4    1    6    6    0  503  0.17435659583E+03 -0.46219501235E+03 -0.18776549595E+03  0.52846980370E+03  0.00000000000E+00 0. -1.
<mgrwt>
<rscale>  0 0.31251968E+04</rscale>
<asrwt>0</asrwt>
<pdfrwt beam="1">  1        1 0.48553611E+00 0.31251968E+04</pdfrwt>
<pdfrwt beam="2">  1       -1 0.11902728E+00 0.31251968E+04</pdfrwt>
<totfact> 0.24362988E-01</totfact>
</mgrwt>
</event>
<event>
12    3  0.4192740E-008  0.2009354E+04  0.7818608E-02  0.8602260E-01
         -1   -1    0    0    0  501 -0.00000000000E+00  0.00000000000E+00  0.51822819275E+03  0.51822819275E+03  0.00000000000E+00 0.  1.
          1   -1    0    0  501    0  0.00000000000E+00 -0.00000000000E+00 -0.19477434322E+04  0.19477434322E+04  0.00000000000E+00 0. -1.
         23    2    1    2    0    0  0.36468120870E+03  0.29618814895E+03  0.22378825716E+03  0.52733517964E+03  0.85331143702E+02 0.  0.
        254    2    1    2    0    0 -0.36468120870E+03 -0.29618814895E+03 -0.16533034966E+04  0.19386364453E+04  0.89676028659E+03 0.  0.
         23    2    4    4    0    0 -0.42017173589E+03  0.34867746308E+02 -0.26358839673E+03  0.50568059691E+03  0.92054200452E+02 0.  0.
         23    2    4    4    0    0  0.55490527196E+02 -0.33105589526E+03 -0.13897150999E+04  0.14329558484E+04  0.96835944915E+02 0.  0.
          4    1    3    3  502    0  0.34120714605E+03  0.24875461118E+03  0.21445289628E+03  0.47359393770E+03  0.00000000000E+00 0.  1.
         -4    1    3    3    0  502  0.23474062643E+02  0.47433537772E+02  0.93353608795E+01  0.53741241941E+02  0.00000000000E+00 0. -1.
         13    1    5    5    0    0 -0.12189443914E+03  0.52279567456E+02 -0.75323581394E+02  0.15252884770E+03  0.00000000000E+00 0. -1.
        -13    1    5    5    0    0 -0.29827729676E+03 -0.17411821147E+02 -0.18826481534E+03  0.35315174921E+03  0.00000000000E+00 0.  1.
          3    1    6    6  503    0 -0.49577263739E+01  0.25874474204E+01 -0.56035525008E+01  0.79166745280E+01  0.00000000000E+00 0. -1.
         -3    1    6    6    0  503  0.60448253570E+02 -0.33364334268E+03 -0.13841115474E+04  0.14250391739E+04  0.00000000000E+00 0.  1.
<mgrwt>
<rscale>  0 0.20093537E+04</rscale>
<asrwt>0</asrwt>
<pdfrwt beam="1">  1        1 0.29965283E+00 0.20093537E+04</pdfrwt>
<pdfrwt beam="2">  1       -1 0.79727415E-01 0.20093537E+04</pdfrwt>
<totfact> 0.47090782E+00</totfact>
</mgrwt>
</event>
<event>
12    3  0.4192740E-008  0.1292345E+04  0.7818608E-02  0.9035658E-01
          2   -1    0    0  501    0  0.00000000000E+00  0.00000000000E+00  0.10605529551E+04  0.10605529551E+04  0.00000000000E+00 0. -1.
         -2   -1    0    0    0  501 -0.00000000000E+00 -0.00000000000E+00 -0.39369942595E+03  0.39369942595E+03  0.00000000000E+00 0.  1.
         23    2    1    2    0    0 -0.19054388663E+03  0.26063130467E+03  0.15172065194E+03  0.36901851289E+03  0.94444994165E+02 0.  0.
        254    2    1    2    0    0  0.19054388663E+03 -0.26063130467E+03  0.51513287720E+03  0.10852338681E+04  0.89896330164E+03 0.  0.
         23    2    4    4    0    0  0.45063910252E+03  0.82251398819E+02  0.43379200931E+03  0.63818384744E+03  0.96240440881E+02 0.  0.
         23    2    4    4    0    0 -0.26009521589E+03 -0.34288270349E+03  0.81340867889E+02  0.44705002071E+03  0.89550625596E+02 0.  0.
          3    1    3    3  502    0 -0.47074034059E+02  0.11847607842E+02  0.30263526189E+02  0.57203247386E+02  0.00000000000E+00 0.  1.
         -3    1    3    3    0  502 -0.14346985257E+03  0.24878369683E+03  0.12145712575E+03  0.31181526550E+03  0.00000000000E+00 0. -1.
         13    1    5    5    0    0  0.13076785166E+03  0.50806485195E+02  0.18252975819E+03  0.23021434055E+03  0.00000000000E+00 0. -1.
        -13    1    5    5    0    0  0.31987125086E+03  0.31444913624E+02  0.25126225112E+03  0.40796950690E+03  0.00000000000E+00 0.  1.
          2    1    6    6  503    0 -0.79953419502E+02 -0.17877829263E+03  0.32496488465E+02  0.19852014751E+03  0.00000000000E+00 0. -1.
         -2    1    6    6    0  503 -0.18014179639E+03 -0.16410441086E+03  0.48844379424E+02  0.24852987320E+03  0.00000000000E+00 0.  1.
<mgrwt>
<rscale>  0 0.12923453E+04</rscale>
<asrwt>0</asrwt>
<pdfrwt beam="1">  1        2 0.16316199E+00 0.12923453E+04</pdfrwt>
<pdfrwt beam="2">  1       -2 0.60569143E-01 0.12923453E+04</pdfrwt>
<totfact> 0.57399294E+01</totfact>
</mgrwt>
</event>
<event>
12    3  0.4192740E-008  0.1376403E+04  0.7818608E-02  0.8971079E-01
          2   -1    0    0  501    0  0.00000000000E+00  0.00000000000E+00  0.15240255833E+04  0.15240255833E+04  0.00000000000E+00 0. -1.
         -2   -1    0    0    0  501 -0.00000000000E+00 -0.00000000000E+00 -0.31076975300E+03  0.31076975300E+03  0.00000000000E+00 0.  1.
         23    2    1    2    0    0 -0.10025470129E+03 -0.24472920105E+03  0.74457001459E+03  0.79541679268E+03  0.91432928765E+02 0.  0.
        254    2    1    2    0    0  0.10025470129E+03  0.24472920105E+03  0.46868581570E+03  0.10393785436E+04  0.88921199727E+03 0.  0.
         23    2    4    4    0    0 -0.22049250633E+03 -0.23538839269E+03  0.12331600662E+03  0.35970723779E+03  0.10078600434E+03 0.  0.
         23    2    4    4    0    0  0.32074720763E+03  0.48011759374E+03  0.34536980908E+03  0.67967130581E+03  0.96338486067E+02 0.  0.
          1    1    3    3  502    0 -0.10200697848E+03 -0.23549687354E+03  0.74275895636E+03  0.78584672065E+03  0.00000000000E+00 0. -1.
         -1    1    3    3    0  502  0.17522771901E+01 -0.92323275119E+01  0.18110582328E+01  0.95700720249E+01  0.00000000000E+00 0.  1.
         13    1    5    5    0    0 -0.14472119572E+03 -0.16263943244E+03  0.31071622041E+02  0.21991192594E+03  0.00000000000E+00 0.  1.
        -13    1    5    5    0    0 -0.75771310608E+02 -0.72748960251E+02  0.92244384580E+02  0.13979531185E+03  0.00000000000E+00 0. -1.
          1    1    6    6  503    0  0.22472667631E+03  0.39283346974E+03  0.23851943755E+03  0.51157769311E+03  0.00000000000E+00 0. -1.
         -1    1    6    6    0  503  0.96020531313E+02  0.87284124005E+02  0.10685037152E+03  0.16809361270E+03  0.00000000000E+00 0.  1.
<mgrwt>
<rscale>  0 0.13764026E+04</rscale>
<asrwt>0</asrwt>
<pdfrwt beam="1">  1        2 0.23446547E+00 0.13764026E+04</pdfrwt>
<pdfrwt beam="2">  1       -2 0.47810732E-01 0.13764026E+04</pdfrwt>
<totfact> 0.49709756E+01</totfact>
</mgrwt>
</event>
<event>
12    3  0.4192740E-008  0.1610203E+04  0.7818608E-02  0.8814305E-01
          1   -1    0    0  501    0  0.00000000000E+00  0.00000000000E+00  0.13773408291E+04  0.13773408291E+04  0.00000000000E+00 0. -1.
         -1   -1    0    0    0  501 -0.00000000000E+00 -0.00000000000E+00 -0.47060831498E+03  0.47060831498E+03  0.00000000000E+00 0.  1.
         23    2    1    2    0    0 -0.18909011191E+03  0.30289216978E+03  0.79213082028E+03  0.87369039384E+03  0.91459996302E+02 0.  0.
        254    2    1    2    0    0  0.18909011191E+03 -0.30289216978E+03  0.11460169379E+03  0.97425875019E+03  0.89919287540E+03 0.  0.
         23    2    4    4    0    0 -0.14204016006E+03 -0.30212056746E+03 -0.28472150254E+03  0.44778784539E+03  0.89416867052E+02 0.  0.
         23    2    4    4    0    0  0.33113027198E+03 -0.77160232293E+00  0.39932319633E+03  0.52647090480E+03  0.89803931352E+02 0.  0.
          3    1    3    3  502    0 -0.53948143195E+02  0.13844360953E+03  0.41271816625E+03  0.43864942714E+03  0.00000000000E+00 0. -1.
         -3    1    3    3    0  502 -0.13514196872E+03  0.16444856026E+03  0.37941265402E+03  0.43504096671E+03  0.00000000000E+00 0.  1.
         13    1    5    5    0    0 -0.74949093247E+02 -0.90599023024E+02 -0.14015104415E+03  0.18294224424E+03  0.00000000000E+00 0. -1.
        -13    1    5    5    0    0 -0.67091066816E+02 -0.21152154444E+03 -0.14457045839E+03  0.26484560115E+03  0.00000000000E+00 0.  1.
          4    1    6    6  503    0  0.33338351405E+03 -0.79062831408E+01  0.37905655313E+03  0.50486725703E+03  0.00000000000E+00 0. -1.
         -4    1    6    6    0  503 -0.22532420762E+01  0.71346808179E+01  0.20266643201E+02  0.21603647768E+02  0.00000000000E+00 0.  1.
<mgrwt>
<rscale>  0 0.16102025E+04</rscale>
<asrwt>0</asrwt>
<pdfrwt beam="1">  1        1 0.21189859E+00 0.16102025E+04</pdfrwt>
<pdfrwt beam="2">  1       -1 0.72401280E-01 0.16102025E+04</pdfrwt>
<totfact> 0.14704649E+01</totfact>
</mgrwt>
</event>
<event>
12    3  0.4192740E-008  0.9331514E+03  0.7818608E-02  0.9385064E-01
          2   -1    0    0  501    0  0.00000000000E+00  0.00000000000E+00  0.23244378730E+04  0.23244378730E+04  0.00000000000E+00 0. -1.
         -2   -1    0    0    0  501 -0.00000000000E+00 -0.00000000000E+00 -0.93653990490E+02  0.93653990490E+02  0.00000000000E+00 0.  1.
         23    2    1    2    0    0  0.87574483513E+02  0.68048608866E+02  0.28673439277E+03  0.32190942262E+03  0.95441925007E+02 0.  0.
        254    2    1    2    0    0 -0.87574483513E+02 -0.68048608866E+02  0.19440494897E+04  0.20961824408E+04  0.77611371813E+03 0.  0.
         23    2    4    4    0    0  0.25697593100E+03 -0.26351945207E+03  0.10077314026E+04  0.10763680352E+04  0.86985266950E+02 0.  0.
         23    2    4    4    0    0 -0.34455041451E+03  0.19547084320E+03  0.93631808707E+03  0.10198144056E+04  0.80037634953E+02 0.  0.
          2    1    3    3  502    0  0.45550638137E+01  0.58665938664E+02  0.15632186854E+03  0.16702984030E+03  0.00000000000E+00 0. -1.
         -2    1    3    3    0  502  0.83019419699E+02  0.93826702020E+01  0.13041252422E+03  0.15487958233E+03  0.00000000000E+00 0.  1.
         13    1    5    5    0    0  0.26716464748E+02 -0.64090311563E+02  0.25634749611E+03  0.26558496999E+03  0.00000000000E+00 0. -1.
        -13    1    5    5    0    0  0.23025946625E+03 -0.19942914051E+03  0.75138390653E+03  0.81078306524E+03  0.00000000000E+00 0.  1.
          1    1    6    6  503    0 -0.44138786418E+02  0.37051306343E+02  0.79907841997E+02  0.98520530758E+02  0.00000000000E+00 0. -1.
         -1    1    6    6    0  503 -0.30041162810E+03  0.15841953686E+03  0.85641024507E+03  0.92129387484E+03  0.00000000000E+00 0.  1.
<mgrwt>
<rscale>  0 0.93315140E+03</rscale>
<asrwt>0</asrwt>
<pdfrwt beam="1">  1        2 0.35760578E+00 0.93315140E+03</pdfrwt>
<pdfrwt beam="2">  1       -2 0.14408308E-01 0.93315140E+03</pdfrwt>
<totfact> 0.16723333E+02</totfact>
</mgrwt>
</event>
<event>
12    3  0.4192740E-008  0.2802967E+04  0.7818608E-02  0.8302348E-01
         -1   -1    0    0    0  501 -0.00000000000E+00  0.00000000000E+00  0.13621923260E+04  0.13621923260E+04  0.00000000000E+00 0.  1.
          1   -1    0    0  501    0  0.00000000000E+00 -0.00000000000E+00 -0.14419076182E+04  0.14419076182E+04  0.00000000000E+00 0. -1.
         23    2    1    2    0    0  0.99624473181E+03 -0.48363228405E+03  0.55338465902E+03  0.12414208667E+04  0.92127279071E+02 0.  0.
        254    2    1    2    0    0 -0.99624473181E+03  0.48363228405E+03 -0.63309995119E+03  0.15626790775E+04  0.90263314759E+03 0.  0.
         23    2    4    4    0    0 -0.84558053895E+03 -0.61658022358E+02 -0.42836549091E+03  0.95405235626E+03  0.88942369675E+02 0.  0.
         23    2    4    4    0    0 -0.15066419286E+03  0.54529030641E+03 -0.20473446028E+03  0.60862672120E+03  0.92027546226E+02 0.  0.
          3    1    3    3  502    0 -0.52484229486E+00 -0.42970785909E+01 -0.65674822281E+00  0.43785456580E+01  0.00000000000E+00 0. -1.
         -3    1    3    3    0  502  0.99676957410E+03 -0.47933520546E+03  0.55404140724E+03  0.12370423210E+04  0.00000000000E+00 0.  1.
         13    1    5    5    0    0 -0.67607762553E+03 -0.83751502584E+02 -0.35242064151E+03  0.76700428845E+03  0.00000000000E+00 0. -1.
        -13    1    5    5    0    0 -0.16950291341E+03  0.22093480226E+02 -0.75944849402E+02  0.18704806782E+03  0.00000000000E+00 0.  1.
          4    1    6    6  503    0  0.85808105343E+01  0.32659221759E+02  0.93168229847E+00  0.33780513721E+02  0.00000000000E+00 0.  1.
         -4    1    6    6    0  503 -0.15924500340E+03  0.51263108465E+03 -0.20566614258E+03  0.57484620748E+03  0.00000000000E+00 0. -1.
<mgrwt>
<rscale>  0 0.28029666E+04</rscale>
<asrwt>0</asrwt>
<pdfrwt beam="1">  1        1 0.22183194E+00 0.28029666E+04</pdfrwt>
<pdfrwt beam="2">  1       -1 0.20956805E+00 0.28029666E+04</pdfrwt>
<totfact> 0.80439606E-01</totfact>
</mgrwt>
</event>
<event>
12    3  0.4192740E-008  0.1764156E+04  0.7818608E-02  0.8725597E-01
         -1   -1    0    0    0  501 -0.00000000000E+00  0.00000000000E+00  0.69884820418E+03  0.69884820418E+03  0.00000000000E+00 0.  1.
          1   -1    0    0  501    0  0.00000000000E+00 -0.00000000000E+00 -0.11133482941E+04  0.11133482941E+04  0.00000000000E+00 0. -1.
         23    2    1    2    0    0  0.31342085746E+03 -0.12003390633E+03 -0.70699920851E+03  0.78777931000E+03  0.90042145006E+02 0.  0.
        254    2    1    2    0    0 -0.31342085746E+03  0.12003390633E+03  0.29249911862E+03  0.10244171883E+04  0.92262347068E+03 0.  0.
         23    2    4    4    0    0  0.65948673675E+02  0.40003151604E+03  0.34699262088E+03  0.54131562558E+03  0.90798051535E+02 0.  0.
         23    2    4    4    0    0 -0.37936953114E+03 -0.27999760971E+03 -0.54493502268E+02  0.48310156268E+03  0.89987085039E+02 0.  0.
          3    1    3    3  502    0  0.14722892875E+03 -0.98824023805E+01 -0.32270188497E+03  0.35483873225E+03  0.00000000000E+00 0. -1.
         -3    1    3    3    0  502  0.16619192871E+03 -0.11015150395E+03 -0.38429732354E+03  0.43294057776E+03  0.00000000000E+00 0.  1.
         13    1    5    5    0    0  0.43526415517E+02  0.13079219070E+03  0.16762455853E+03  0.21702335962E+03  0.00000000000E+00 0. -1.
        -13    1    5    5    0    0  0.22422258159E+02  0.26923932534E+03  0.17936806235E+03  0.32429226596E+03  0.00000000000E+00 0.  1.
          4    1    6    6  503    0 -0.15166811500E+03 -0.59110843749E+02 -0.17815180289E+02  0.16375191482E+03  0.00000000000E+00 0. -1.
         -4    1    6    6    0  503 -0.22770141613E+03 -0.22088676596E+03 -0.36678321979E+02  0.31934964786E+03  0.00000000000E+00 0.  1.
<mgrwt>
<rscale>  0 0.17641558E+04</rscale>
<asrwt>0</asrwt>
<pdfrwt beam="1">  1        1 0.17128435E+00 0.17641558E+04</pdfrwt>
<pdfrwt beam="2">  1       -1 0.10751511E+00 0.17641558E+04</pdfrwt>
<totfact> 0.94460610E+00</totfact>
</mgrwt>
</event>
<event>
12    3  0.4192740E-008  0.1748621E+04  0.7818608E-02  0.8734109E-01
          2   -1    0    0  501    0  0.00000000000E+00  0.00000000000E+00  0.93273349312E+03  0.93273349312E+03  0.00000000000E+00 0. -1.
         -2   -1    0    0    0  501 -0.00000000000E+00 -0.00000000000E+00 -0.81954730961E+03  0.81954730961E+03  0.00000000000E+00 0.  1.
         23    2    1    2    0    0  0.87739053821E+02 -0.44881248922E+03 -0.40535099493E+03  0.61796419928E+03  0.91866917103E+02 0.  0.
        254    2    1    2    0    0 -0.87739053821E+02  0.44881248922E+03  0.51853717844E+03  0.11343166034E+04  0.89925667047E+03 0.  0.
         23    2    4    4    0    0 -0.48141712812E+03  0.29555040845E+03  0.24107110712E+03  0.62129446778E+03  0.93696541120E+02 0.  0.
         23    2    4    4    0    0  0.39367807430E+03  0.15326208077E+03  0.27746607132E+03  0.51302213567E+03  0.87935199796E+02 0.  0.
          3    1    3    3  502    0  0.45947781616E+02 -0.29612690241E+03 -0.20712028789E+03  0.36428169680E+03  0.00000000000E+00 0. -1.
         -3    1    3    3    0  502  0.41791272205E+02 -0.15268558681E+03 -0.19823070704E+03  0.25368250248E+03  0.00000000000E+00 0.  1.
         13    1    5    5    0    0 -0.37904969059E+02  0.43646279482E+02  0.16296705641E+01  0.57831135370E+02  0.00000000000E+00 0.  1.
        -13    1    5    5    0    0 -0.44351215906E+03  0.25190412897E+03  0.23944143656E+03  0.56346333241E+03  0.00000000000E+00 0. -1.
          1    1    6    6  503    0  0.15247702949E+03  0.15665427607E+02  0.86433616064E+02  0.17596994098E+03  0.00000000000E+00 0. -1.
         -1    1    6    6    0  503  0.24120104481E+03  0.13759665316E+03  0.19103245526E+03  0.33705219468E+03  0.00000000000E+00 0.  1.
<mgrwt>
<rscale>  0 0.17486214E+04</rscale>
<asrwt>0</asrwt>
<pdfrwt beam="1">  1        2 0.14349746E+00 0.17486214E+04</pdfrwt>
<pdfrwt beam="2">  1       -2 0.12608420E+00 0.17486214E+04</pdfrwt>
<totfact> 0.12396789E+01</totfact>
</mgrwt>
</event>
<event>
12    3  0.4192740E-008  0.2012145E+04  0.7818608E-02  0.8600963E-01
          3   -1    0    0  501    0  0.00000000000E+00  0.00000000000E+00  0.12697023407E+04  0.12697023407E+04  0.00000000000E+00 0. -1.
         -3   -1    0    0    0  501 -0.00000000000E+00 -0.00000000000E+00 -0.79718042562E+03  0.79718042562E+03  0.00000000000E+00 0.  1.
         23    2    1    2    0    0  0.19806480492E+03 -0.28598198689E+03 -0.55269469825E+03  0.65940309020E+03  0.91244956701E+02 0.  0.
        254    2    1    2    0    0 -0.19806480492E+03  0.28598198689E+03  0.10252166133E+04  0.14074796761E+04  0.89939678156E+03 0.  0.
         23    2    4    4    0    0  0.12789823836E+03  0.32055951652E+03  0.33890370441E+02  0.35921668030E+03  0.93657371230E+02 0.  0.
         23    2    4    4    0    0 -0.32596304327E+03 -0.34577529634E+02  0.99132624286E+03  0.10482629958E+04  0.93166933260E+02 0.  0.
          2    1    3    3  502    0  0.16102753419E+03 -0.18172168336E+03 -0.43281720288E+03  0.49626945109E+03  0.00000000000E+00 0.  1.
         -2    1    3    3    0  502  0.37037270721E+02 -0.10426030353E+03 -0.11987749536E+03  0.16313363911E+03  0.00000000000E+00 0. -1.
         13    1    5    5    0    0  0.61883064246E+02  0.14020209342E+03  0.61599952132E+02  0.16516868572E+03  0.00000000000E+00 0. -1.
        -13    1    5    5    0    0  0.66015174111E+02  0.18035742311E+03 -0.27709581691E+02  0.19404799458E+03  0.00000000000E+00 0.  1.
          4    1    6    6  503    0 -0.70898012355E+02  0.43673193024E+01  0.11910500758E+03  0.13867806050E+03  0.00000000000E+00 0. -1.
         -4    1    6    6    0  503 -0.25506503092E+03 -0.38944848936E+02  0.87222123528E+03  0.90958493531E+03  0.00000000000E+00 0.  1.
<mgrwt>
<rscale>  0 0.20121450E+04</rscale>
<asrwt>0</asrwt>
<pdfrwt beam="1">  1        3 0.19533882E+00 0.20121450E+04</pdfrwt>
<pdfrwt beam="2">  1       -3 0.12264314E+00 0.20121450E+04</pdfrwt>
<totfact> 0.20496302E-01</totfact>
</mgrwt>
</event>
<event>
12    3  0.4192740E-008  0.2468964E+04  0.7818608E-02  0.8414126E-01
         -2   -1    0    0    0  501 -0.00000000000E+00  0.00000000000E+00  0.79595368228E+03  0.79595368228E+03  0.00000000000E+00 0.  1.
          2   -1    0    0  501    0  0.00000000000E+00 -0.00000000000E+00 -0.19146159226E+04  0.19146159226E+04  0.00000000000E+00 0. -1.
         23    2    1    2    0    0 -0.38265590066E+03 -0.92082606531E+03 -0.91570574522E+03  0.13569283058E+04  0.91603681568E+02 0.  0.
        254    2    1    2    0    0  0.38265590066E+03  0.92082606531E+03 -0.20295649513E+03  0.13536412991E+04  0.89264060338E+03 0.  0.
         23    2    4    4    0    0  0.17619810452E+03  0.59162645591E+03  0.31466482188E+03  0.69853490511E+03  0.88709797415E+02 0.  0.
         23    2    4    4    0    0  0.20645779614E+03  0.32919960940E+03 -0.51762131702E+03  0.65510639398E+03  0.10116993220E+03 0.  0.
          3    1    3    3  502    0 -0.28835872485E+03 -0.63899556790E+03 -0.59285108481E+03  0.91811682195E+03  0.00000000000E+00 0. -1.
         -3    1    3    3    0  502 -0.94297175811E+02 -0.28183049741E+03 -0.32285466041E+03  0.43881148389E+03  0.00000000000E+00 0.  1.
         13    1    5    5    0    0  0.16329331931E+03  0.56635484877E+03  0.31838037873E+03  0.66991685186E+03  0.00000000000E+00 0. -1.
        -13    1    5    5    0    0  0.12904785212E+02  0.25271607141E+02 -0.37155568440E+01  0.28618053245E+02  0.00000000000E+00 0.  1.
          1    1    6    6  503    0  0.20324377207E+03  0.31689698653E+03 -0.52019519437E+03  0.64213298560E+03  0.00000000000E+00 0. -1.
         -1    1    6    6    0  503  0.32140240722E+01  0.12302622869E+02  0.25738773503E+01  0.12973408373E+02  0.00000000000E+00 0.  1.
<mgrwt>
<rscale>  0 0.24689638E+04</rscale>
<asrwt>0</asrwt>
<pdfrwt beam="1">  1        2 0.29455630E+00 0.24689638E+04</pdfrwt>
<pdfrwt beam="2">  1       -2 0.12245441E+00 0.24689638E+04</pdfrwt>
<totfact> 0.33645079E+00</totfact>
</mgrwt>
</event>
<event>
12    3  0.4192740E-008  0.4197762E+04  0.7818608E-02  0.7965798E-01
         -1   -1    0    0    0  501 -0.00000000000E+00  0.00000000000E+00  0.20109738973E+04  0.20109738973E+04  0.00000000000E+00 0.  1.
          1   -1    0    0  501    0  0.00000000000E+00 -0.00000000000E+00 -0.21906311064E+04  0.21906311064E+04  0.00000000000E+00 0. -1.
         23    2    1    2    0    0  0.19117680051E+03 -0.80409078343E+03  0.17362084316E+04  0.19250561435E+04  0.91164030330E+02 0.  0.
        254    2    1    2    0    0 -0.19117680051E+03  0.80409078343E+03 -0.19158656408E+04  0.22765488602E+04  0.91050700301E+03 0.  0.
         23    2    4    4    0    0 -0.36525064250E+03  0.61994486497E+03 -0.62274064568E+03  0.95569332058E+03  0.88341064976E+02 0.  0.
         23    2    4    4    0    0  0.17407384199E+03  0.18414591845E+03 -0.12931249951E+04  0.13208555397E+04  0.90970775371E+02 0.  0.
          1    1    3    3  502    0  0.83719000674E+02 -0.25005504855E+03  0.47374292046E+03  0.54218885369E+03  0.00000000000E+00 0. -1.
         -1    1    3    3    0  502  0.10745779983E+03 -0.55403573487E+03  0.12624655112E+04  0.13828672898E+04  0.00000000000E+00 0.  1.
         13    1    5    5    0    0 -0.16363404150E+03  0.19831892624E+03 -0.23777570513E+03  0.35020534261E+03  0.00000000000E+00 0. -1.
        -13    1    5    5    0    0 -0.20161660101E+03  0.42162593873E+03 -0.38496494055E+03  0.60548797797E+03  0.00000000000E+00 0.  1.
          2    1    6    6  503    0  0.79730763672E+02  0.66569316079E+02 -0.32870960439E+03  0.34472956435E+03  0.00000000000E+00 0. -1.
         -2    1    6    6    0  503  0.94343078322E+02  0.11757660237E+03 -0.96441539070E+03  0.97612597531E+03  0.00000000000E+00 0.  1.
<mgrwt>
<rscale>  0 0.41977622E+04</rscale>
<asrwt>0</asrwt>
<pdfrwt beam="1">  1        1 0.33702017E+00 0.41977622E+04</pdfrwt>
<pdfrwt beam="2">  1       -1 0.30938060E+00 0.41977622E+04</pdfrwt>
<totfact> 0.48868048E-02</totfact>
</mgrwt>
</event>
<event>
12    3  0.4192740E-008  0.1334297E+04  0.7818608E-02  0.9002801E-01
          2   -1    0    0  501    0  0.00000000000E+00  0.00000000000E+00  0.29002932249E+03  0.29002932249E+03  0.00000000000E+00 0. -1.
         -2   -1    0    0    0  501 -0.00000000000E+00 -0.00000000000E+00 -0.15346282631E+04  0.15346282631E+04  0.00000000000E+00 0.  1.
         23    2    1    2    0    0  0.25540108984E+03  0.23088234100E+03 -0.23694680672E+03  0.42779198501E+03  0.91245937703E+02 0.  0.
        254    2    1    2    0    0 -0.25540108984E+03 -0.23088234100E+03 -0.10076521339E+04  0.13968656005E+04  0.90406543515E+03 0.  0.
         23    2    4    4    0    0 -0.41303961949E+02  0.85570430403E+02  0.13528815220E+03  0.18837139751E+03  0.90291657643E+02 0.  0.
         23    2    4    4    0    0 -0.21409712789E+03 -0.31645277141E+03 -0.11429402861E+04  0.12084942030E+04  0.90364841459E+02 0.  0.
          1    1    3    3  502    0  0.21946182445E+03  0.18741486202E+03 -0.15296399207E+03  0.32662793170E+03  0.00000000000E+00 0. -1.
         -1    1    3    3    0  502  0.35939265391E+02  0.43467478982E+02 -0.83982814651E+02  0.10116405331E+03  0.00000000000E+00 0.  1.
         13    1    5    5    0    0  0.19947501964E+02  0.33082438251E+02  0.10937942355E+02  0.40149584533E+02  0.00000000000E+00 0. -1.
        -13    1    5    5    0    0 -0.61251463913E+02  0.52487992152E+02  0.12435020985E+03  0.14822181297E+03  0.00000000000E+00 0.  1.
          4    1    6    6  503    0 -0.12632580339E+02 -0.50069714573E+02 -0.88950532121E+02  0.10285307758E+03  0.00000000000E+00 0. -1.
         -4    1    6    6    0  503 -0.20146454755E+03 -0.26638305683E+03 -0.10539897539E+04  0.11056411255E+04  0.00000000000E+00 0.  1.
<mgrwt>
<rscale>  0 0.13342971E+04</rscale>
<asrwt>0</asrwt>
<pdfrwt beam="1">  1        2 0.44619896E-01 0.13342971E+04</pdfrwt>
<pdfrwt beam="2">  1       -2 0.23609665E+00 0.13342971E+04</pdfrwt>
<totfact> 0.87379254E+00</totfact>
</mgrwt>
</event>
<event>
12    3  0.4192740E-008  0.1114586E+04  0.7818608E-02  0.9191091E-01
          2   -1    0    0  501    0  0.00000000000E+00  0.00000000000E+00  0.41317880664E+03  0.41317880664E+03  0.00000000000E+00 0. -1.
         -2   -1    0    0    0  501 -0.00000000000E+00 -0.00000000000E+00 -0.75167381333E+03  0.75167381333E+03  0.00000000000E+00 0.  1.
         23    2    1    2    0    0  0.25419902975E+02  0.12796524613E+03 -0.18754398571E+03  0.24643115692E+03  0.92381236414E+02 0.  0.
        254    2    1    2    0    0 -0.25419902975E+02 -0.12796524613E+03 -0.15095102098E+03  0.91842146304E+03  0.89648786794E+03 0.  0.
         23    2    4    4    0    0  0.27502060821E+03 -0.15333652630E+03 -0.39925762223E+03  0.51713853853E+03  0.94218861642E+02 0.  0.
         23    2    4    4    0    0 -0.30044051118E+03  0.25371280171E+02  0.24830660126E+03  0.40128292451E+03  0.91997905744E+02 0.  0.
          2    1    3    3  502    0 -0.12359014968E+02  0.11697093418E+03 -0.11851059868E+03  0.16697217341E+03  0.00000000000E+00 0.  1.
         -2    1    3    3    0  502  0.37778917944E+02  0.10994311956E+02 -0.69033387032E+02  0.79458983517E+02  0.00000000000E+00 0. -1.
         13    1    5    5    0    0  0.35126271938E+02  0.80511840456E+01 -0.71580537561E+02  0.80140189058E+02  0.00000000000E+00 0.  1.
        -13    1    5    5    0    0  0.23989433627E+03 -0.16138771035E+03 -0.32767708467E+03  0.43699834948E+03  0.00000000000E+00 0. -1.
          3    1    6    6  503    0 -0.30010283692E+03  0.35711061699E+02  0.22829474796E+03  0.37875517766E+03  0.00000000000E+00 0. -1.
         -3    1    6    6    0  503 -0.33767425738E+00 -0.10339781529E+02  0.20011853294E+02  0.22527746852E+02  0.00000000000E+00 0.  1.
<mgrwt>
<rscale>  0 0.11145864E+04</rscale>
<asrwt>0</asrwt>
<pdfrwt beam="1">  1        2 0.63565971E-01 0.11145864E+04</pdfrwt>
<pdfrwt beam="2">  1       -2 0.11564212E+00 0.11145864E+04</pdfrwt>
<totfact> 0.44220497E+01</totfact>
</mgrwt>
</event>
<event>
12    3  0.4192740E-008  0.1965314E+04  0.7818608E-02  0.8623011E-01
         -1   -1    0    0    0  501 -0.00000000000E+00  0.00000000000E+00  0.48713523728E+03  0.48713523728E+03  0.00000000000E+00 0.  1.
          1   -1    0    0  501    0  0.00000000000E+00 -0.00000000000E+00 -0.19822319609E+04  0.19822319609E+04  0.00000000000E+00 0. -1.
         23    2    1    2    0    0  0.64453721143E+03 -0.32792488363E+03 -0.25399928956E+03  0.77171992608E+03  0.89850203058E+02 0.  0.
        254    2    1    2    0    0 -0.64453721143E+03  0.32792488363E+03 -0.12410974340E+04  0.16976472721E+04  0.90483173762E+03 0.  0.
         23    2    4    4    0    0 -0.84824385682E+03  0.17168782083E+03 -0.10549682774E+04  0.13676141546E+04  0.91739091779E+02 0.  0.
         23    2    4    4    0    0  0.20370664539E+03  0.15623706280E+03 -0.18612915663E+03  0.33003311752E+03  0.91495237830E+02 0.  0.
          2    1    3    3  502    0  0.32139034826E+03 -0.17258519944E+03 -0.17487896412E+03  0.40454920481E+03  0.00000000000E+00 0. -1.
         -2    1    3    3    0  502  0.32314686317E+03 -0.15533968420E+03 -0.79120325445E+02  0.36717072127E+03  0.00000000000E+00 0.  1.
         13    1    5    5    0    0 -0.58072313485E+03  0.15660570729E+03 -0.70104890538E+03  0.92370681206E+03  0.00000000000E+00 0.  1.
        -13    1    5    5    0    0 -0.26752072197E+03  0.15082113546E+02 -0.35391937201E+03  0.44390734249E+03  0.00000000000E+00 0. -1.
          4    1    6    6  503    0  0.20920654920E+02 -0.53883283968E+01  0.23328648063E+01  0.21729016163E+02  0.00000000000E+00 0. -1.
         -4    1    6    6    0  503  0.18278599047E+03  0.16162539120E+03 -0.18846202143E+03  0.30830410136E+03  0.00000000000E+00 0.  1.
<mgrwt>
<rscale>  0 0.19653143E+04</rscale>
<asrwt>0</asrwt>
<pdfrwt beam="1">  1        1 0.30495877E+00 0.19653143E+04</pdfrwt>
<pdfrwt beam="2">  1       -1 0.74943882E-01 0.19653143E+04</pdfrwt>
<totfact> 0.51045198E+00</totfact>
</mgrwt>
</event>
<event>
12    3  0.4192740E-008  0.1538815E+04  0.7818608E-02  0.8859044E-01
          1   -1    0    0  501    0  0.00000000000E+00  0.00000000000E+00  0.65417666543E+03  0.65417666543E+03  0.00000000000E+00 0. -1.
         -1   -1    0    0    0  501 -0.00000000000E+00 -0.00000000000E+00 -0.90493561517E+03  0.90493561517E+03  0.00000000000E+00 0.  1.
         23    2    1    2    0    0  0.26869025171E+03  0.29974785267E+03  0.20355595679E+03  0.46040537557E+03  0.92167541818E+02 0.  0.
        254    2    1    2    0    0 -0.26869025171E+03 -0.29974785267E+03 -0.45431490653E+03  0.10987069050E+04  0.91581199070E+03 0.  0.
         23    2    4    4    0    0 -0.58523739835E+03 -0.31517358770E+03 -0.29258721449E+03  0.73163856952E+03  0.88603134866E+02 0.  0.
         23    2    4    4    0    0  0.31654714664E+03  0.15425735027E+02 -0.16172769204E+03  0.36706833551E+03  0.90240053243E+02 0.  0.
          1    1    3    3  502    0  0.21318107348E+03  0.28380179828E+03  0.18062978057E+03  0.39826718220E+03  0.00000000000E+00 0. -1.
         -1    1    3    3    0  502  0.55509178230E+02  0.15946054398E+02  0.22926176225E+02  0.62138193367E+02  0.00000000000E+00 0.  1.
         13    1    5    5    0    0 -0.30051605564E+03 -0.21177635833E+03 -0.16403050428E+03  0.40257313867E+03  0.00000000000E+00 0. -1.
        -13    1    5    5    0    0 -0.28472134271E+03 -0.10339722937E+03 -0.12855671021E+03  0.32906543085E+03  0.00000000000E+00 0.  1.
          4    1    6    6  503    0  0.26339382087E+03  0.46556828402E+02 -0.13875584760E+03  0.30132545260E+03  0.00000000000E+00 0. -1.
         -4    1    6    6    0  503  0.53153325774E+02 -0.31131093375E+02 -0.22971844449E+02  0.65742882907E+02  0.00000000000E+00 0.  1.
<mgrwt>
<rscale>  0 0.15388148E+04</rscale>
<asrwt>0</asrwt>
<pdfrwt beam="1">  1        1 0.10064256E+00 0.15388148E+04</pdfrwt>
<pdfrwt beam="2">  1       -1 0.13922086E+00 0.15388148E+04</pdfrwt>
<totfact> 0.12375340E+01</totfact>
</mgrwt>
</event>
<event>
12    3  0.4192740E-008  0.1348409E+04  0.7818608E-02  0.8992033E-01
          2   -1    0    0  501    0  0.00000000000E+00  0.00000000000E+00  0.22331821884E+04  0.22331821884E+04  0.00000000000E+00 0. -1.
         -2   -1    0    0    0  501 -0.00000000000E+00 -0.00000000000E+00 -0.20354441211E+03  0.20354441211E+03  0.00000000000E+00 0.  1.
         23    2    1    2    0    0 -0.28372949169E+03  0.40851974808E+02  0.13847843619E+03  0.33132022414E+03  0.91790551424E+02 0.  0.
        254    2    1    2    0    0  0.28372949169E+03 -0.40851974808E+02  0.18911593401E+04  0.21054063763E+04  0.87981876072E+03 0.  0.
         23    2    4    4    0    0  0.46115959796E+03  0.25249494708E+03  0.14091159926E+04  0.15067930409E+04  0.91627039867E+02 0.  0.
         23    2    4    4    0    0 -0.17743010627E+03 -0.29334692189E+03  0.48204334743E+03  0.59861333540E+03  0.91860096480E+02 0.  0.
          4    1    3    3  502    0 -0.35569019975E+02  0.10106267291E+02 -0.12721380397E+02  0.39104032270E+02  0.00000000000E+00 0. -1.
         -4    1    3    3    0  502 -0.24816047172E+03  0.30745707518E+02  0.15119981659E+03  0.29221619187E+03  0.00000000000E+00 0.  1.
         13    1    5    5    0    0  0.11872128002E+03  0.36002734767E+02  0.41950854926E+03  0.43746812700E+03  0.00000000000E+00 0. -1.
        -13    1    5    5    0    0  0.34243831794E+03  0.21649221231E+03  0.98960744336E+03  0.10693249139E+04  0.00000000000E+00 0.  1.
          1    1    6    6  503    0 -0.16660956501E+03 -0.22153614098E+03  0.33659174867E+03  0.43604015204E+03  0.00000000000E+00 0. -1.
         -1    1    6    6    0  503 -0.10820541258E+02 -0.71810780905E+02  0.14545159876E+03  0.16257318336E+03  0.00000000000E+00 0.  1.
<mgrwt>
<rscale>  0 0.13484091E+04</rscale>
<asrwt>0</asrwt>
<pdfrwt beam="1">  1        2 0.34356647E+00 0.13484091E+04</pdfrwt>
<pdfrwt beam="2">  1       -2 0.31314526E-01 0.13484091E+04</pdfrwt>
<totfact> 0.45813575E+01</totfact>
</mgrwt>
</event>
<event>
12    3  0.4192740E-008  0.1697612E+04  0.7818608E-02  0.8762727E-01
          2   -1    0    0  501    0  0.00000000000E+00  0.00000000000E+00  0.16209243661E+04  0.16209243661E+04  0.00000000000E+00 0. -1.
         -2   -1    0    0    0  501 -0.00000000000E+00 -0.00000000000E+00 -0.44448197462E+03  0.44448197462E+03  0.00000000000E+00 0.  1.
         23    2    1    2    0    0  0.30794243628E+03  0.29702325469E+02 -0.21438947994E+03  0.38451639715E+03  0.78608131671E+02 0.  0.
        254    2    1    2    0    0 -0.30794243628E+03 -0.29702325469E+02  0.13908318714E+04  0.16808899436E+04  0.89177740251E+03 0.  0.
         23    2    4    4    0    0  0.27896487993E+03  0.30662882477E+02  0.22479045387E+03  0.37130299386E+03  0.92593458217E+02 0.  0.
         23    2    4    4    0    0 -0.58690731622E+03 -0.60365207947E+02  0.11660414176E+04  0.13095869497E+04  0.85212881884E+02 0.  0.
          3    1    3    3  502    0  0.46800898326E+02 -0.44762556114E+01 -0.35476827962E+01  0.47148138899E+02  0.00000000000E+00 0. -1.
         -3    1    3    3    0  502  0.26114153796E+03  0.34178581081E+02 -0.21084179715E+03  0.33736825825E+03  0.00000000000E+00 0.  1.
         13    1    5    5    0    0  0.25379709374E+03  0.55219793871E+01  0.16841644522E+03  0.30464332599E+03  0.00000000000E+00 0.  1.
        -13    1    5    5    0    0  0.25167786187E+02  0.25140903090E+02  0.56374008654E+02  0.66659667877E+02  0.00000000000E+00 0. -1.
          3    1    6    6  503    0 -0.18353544235E+03  0.16228780363E+02  0.32225259865E+03  0.37120798651E+03  0.00000000000E+00 0. -1.
         -3    1    6    6    0  503 -0.40337187387E+03 -0.76593988309E+02  0.84378881892E+03  0.93837896322E+03  0.00000000000E+00 0.  1.
<mgrwt>
<rscale>  0 0.16976120E+04</rscale>
<asrwt>0</asrwt>
<pdfrwt beam="1">  1        2 0.24937298E+00 0.16976120E+04</pdfrwt>
<pdfrwt beam="2">  1       -2 0.68381843E-01 0.16976120E+04</pdfrwt>
<totfact> 0.20208113E+01</totfact>
</mgrwt>
</event>
<event>
12    3  0.4192740E-008  0.1155113E+04  0.7818608E-02  0.9153080E-01
         -2   -1    0    0    0  501 -0.00000000000E+00  0.00000000000E+00  0.72229625809E+03  0.72229625809E+03  0.00000000000E+00 0.  1.
          2   -1    0    0  501    0  0.00000000000E+00 -0.00000000000E+00 -0.46182055307E+03  0.46182055307E+03  0.00000000000E+00 0. -1.
         23    2    1    2    0    0  0.44488194398E+02 -0.15724116170E+03 -0.79499959527E+02  0.20398820939E+03  0.92665870918E+02 0.  0.
        254    2    1    2    0    0 -0.44488194398E+02  0.15724116170E+03  0.33997566455E+03  0.98012860176E+03  0.90463508728E+03 0.  0.
         23    2    4    4    0    0  0.31169028167E+03  0.34058344009E+03  0.31969656528E+03  0.56877067443E+03  0.90256716572E+02 0.  0.
         23    2    4    4    0    0 -0.35617847607E+03 -0.18334227839E+03  0.20279099267E+02  0.41135792733E+03  0.91250230968E+02 0.  0.
          3    1    3    3  502    0  0.91237495701E+01 -0.14792704165E+03 -0.48190714315E+02  0.15584606958E+03  0.00000000000E+00 0. -1.
         -3    1    3    3    0  502  0.35364444828E+02 -0.93141200549E+01 -0.31309245212E+02  0.48142139817E+02  0.00000000000E+00 0.  1.
         13    1    5    5    0    0  0.20016563773E+03  0.27694330200E+03  0.24143668670E+03  0.41839640144E+03  0.00000000000E+00 0. -1.
        -13    1    5    5    0    0  0.11152464394E+03  0.63640138087E+02  0.78259878577E+02  0.15037427299E+03  0.00000000000E+00 0.  1.
          4    1    6    6  503    0 -0.27704912372E+03 -0.16884139297E+03  0.44174414691E+02  0.32743703494E+03  0.00000000000E+00 0. -1.
         -4    1    6    6    0  503 -0.79129352352E+02 -0.14500885415E+02 -0.23895315424E+02  0.83920892397E+02  0.00000000000E+00 0.  1.
<mgrwt>
<rscale>  0 0.11551126E+04</rscale>
<asrwt>0</asrwt>
<pdfrwt beam="1">  1        2 0.71049316E-01 0.11551126E+04</pdfrwt>
<pdfrwt beam="2">  1       -2 0.11112250E+00 0.11551126E+04</pdfrwt>
<totfact> 0.42820278E+01</totfact>
</mgrwt>
</event>
<event>
12    3  0.4192740E-008  0.2055354E+04  0.7818608E-02  0.8581169E-01
         -2   -1    0    0    0  501 -0.00000000000E+00  0.00000000000E+00  0.59259481713E+03  0.59259481713E+03  0.00000000000E+00 0. -1.
          2   -1    0    0  501    0  0.00000000000E+00 -0.00000000000E+00 -0.17821965898E+04  0.17821965898E+04  0.00000000000E+00 0.  1.
         23    2    1    2    0    0  0.58900938528E+03 -0.10884341338E+03  0.17918698342E+03  0.63173126971E+03  0.90539922253E+02 0.  0.
        254    2    1    2    0    0 -0.58900938528E+03  0.10884341338E+03 -0.13687887561E+04  0.17430601372E+04  0.89771768312E+03 0.  0.
         23    2    4    4    0    0 -0.21667229654E+02  0.14307559490E+03 -0.10901444195E+04  0.11034908136E+04  0.91307314303E+02 0.  0.
         23    2    4    4    0    0 -0.56734215563E+03 -0.34232181526E+02 -0.27864433662E+03  0.63956932364E+03  0.91418212669E+02 0.  0.
          4    1    3    3  502    0  0.33502376908E+03 -0.31020903178E+02  0.65440239692E+02  0.34276179374E+03  0.00000000000E+00 0. -1.
         -4    1    3    3    0  502  0.25398561621E+03 -0.77822510198E+02  0.11374674373E+03  0.28896947597E+03  0.00000000000E+00 0.  1.
         13    1    5    5    0    0  0.15848663577E+02  0.12829645633E+03 -0.76340663924E+03  0.77427440723E+03  0.00000000000E+00 0.  1.
        -13    1    5    5    0    0 -0.37515893231E+02  0.14779138571E+02 -0.32673778025E+03  0.32921640638E+03  0.00000000000E+00 0. -1.
          2    1    6    6  503    0 -0.24546985649E+03  0.33518384616E+01 -0.74413989343E+02  0.25652315115E+03  0.00000000000E+00 0. -1.
         -2    1    6    6    0  503 -0.32187229914E+03 -0.37584019988E+02 -0.20423034728E+03  0.38304617249E+03  0.00000000000E+00 0.  1.
<mgrwt>
<rscale>  0 0.20553544E+04</rscale>
<asrwt>0</asrwt>
<pdfrwt beam="1">  1        2 0.27418409E+00 0.20553544E+04</pdfrwt>
<pdfrwt beam="2">  1       -2 0.91168434E-01 0.20553544E+04</pdfrwt>
<totfact> 0.83745312E+00</totfact>
</mgrwt>
</event>
<event>
12    3  0.4192740E-008  0.1554175E+04  0.7818608E-02  0.8849205E-01
         -2   -1    0    0    0  501 -0.00000000000E+00  0.00000000000E+00  0.56813173360E+03  0.56813173360E+03  0.00000000000E+00 0.  1.
          2   -1    0    0  501    0  0.00000000000E+00 -0.00000000000E+00 -0.10628960789E+04  0.10628960789E+04  0.00000000000E+00 0. -1.
         23    2    1    2    0    0  0.39194177055E+03 -0.30075148105E+03 -0.31632681449E+03  0.59353938868E+03  0.90313606390E+02 0.  0.
        254    2    1    2    0    0 -0.39194177055E+03  0.30075148105E+03 -0.17843753077E+03  0.10374884238E+04  0.89469127201E+03 0.  0.
         23    2    4    4    0    0 -0.40327417162E+03 -0.22833833531E+03 -0.16350191087E+03  0.49996198429E+03  0.91981835227E+02 0.  0.
         23    2    4    4    0    0  0.11332401067E+02  0.52908981636E+03 -0.14935619896E+02  0.53752643948E+03  0.92990017252E+02 0.  0.
          1    1    3    3  502    0  0.31412868734E+02 -0.11368409475E+02 -0.49627664866E+02  0.59824026746E+02  0.00000000000E+00 0.  1.
         -1    1    3    3    0  502  0.36052890182E+03 -0.28938307157E+03 -0.26669914962E+03  0.53371536194E+03  0.00000000000E+00 0. -1.
         13    1    5    5    0    0  0.43611708179E+01 -0.17263330574E+01  0.19705561199E+01  0.50875463782E+01  0.00000000000E+00 0. -1.
        -13    1    5    5    0    0 -0.40763534244E+03 -0.22661200225E+03 -0.16547246699E+03  0.49487443792E+03  0.00000000000E+00 0.  1.
          1    1    6    6  503    0 -0.29437087038E+02  0.90370966261E+02 -0.18870894608E+02  0.96899764188E+02  0.00000000000E+00 0. -1.
         -1    1    6    6    0  503  0.40769488105E+02  0.43871885009E+03  0.39352747122E+01  0.44062667529E+03  0.00000000000E+00 0.  1.
<mgrwt>
<rscale>  0 0.15541750E+04</rscale>
<asrwt>0</asrwt>
<pdfrwt beam="1">  1        2 0.16352247E+00 0.15541750E+04</pdfrwt>
<pdfrwt beam="2">  1       -2 0.87404883E-01 0.15541750E+04</pdfrwt>
<totfact> 0.24997983E+01</totfact>
</mgrwt>
</event>
<event>
12    3  0.4192740E-008  0.2257093E+04  0.7818608E-02  0.8495033E-01
          1   -1    0    0  501    0  0.00000000000E+00  0.00000000000E+00  0.58749735731E+03  0.58749735731E+03  0.00000000000E+00 0. -1.
         -1   -1    0    0    0  501 -0.00000000000E+00 -0.00000000000E+00 -0.21678688276E+04  0.21678688276E+04  0.00000000000E+00 0.  1.
         23    2    1    2    0    0  0.39308342638E+03  0.33173997555E+03 -0.16302865935E+04  0.17118271667E+04  0.89173315494E+02 0.  0.
        254    2    1    2    0    0 -0.39308342638E+03 -0.33173997555E+03  0.49915123222E+02  0.10435390182E+04  0.90659592516E+03 0.  0.
         23    2    4    4    0    0 -0.54784938513E+03 -0.11547949868E+03 -0.26045365054E+03  0.62411727959E+03  0.90619044414E+02 0.  0.
         23    2    4    4    0    0  0.15476595874E+03 -0.21626047687E+03  0.31036877376E+03  0.41942173861E+03  0.94152659274E+02 0.  0.
          4    1    3    3  502    0  0.27793251348E+03  0.23624768206E+03 -0.10130664477E+04  0.10767372366E+04  0.00000000000E+00 0.  1.
         -4    1    3    3    0  502  0.11515091291E+03  0.95492293492E+02 -0.61722014585E+03  0.63508993009E+03  0.00000000000E+00 0. -1.
         13    1    5    5    0    0 -0.35222765259E+03 -0.30004398820E+02 -0.17019904860E+03  0.39234206930E+03  0.00000000000E+00 0. -1.
        -13    1    5    5    0    0 -0.19562173253E+03 -0.85475099855E+02 -0.90254601940E+02  0.23177521029E+03  0.00000000000E+00 0.  1.
          2    1    6    6  503    0  0.13161395443E+03 -0.21584716619E+03  0.25347804138E+03  0.35799909164E+03  0.00000000000E+00 0. -1.
         -2    1    6    6    0  503  0.23152004309E+02 -0.41331067991E+00  0.56890732387E+02  0.61422646970E+02  0.00000000000E+00 0.  1.
<mgrwt>
<rscale>  0 0.22570930E+04</rscale>
<asrwt>0</asrwt>
<pdfrwt beam="1">  1        1 0.90384211E-01 0.22570930E+04</pdfrwt>
<pdfrwt beam="2">  1       -1 0.33351827E+00 0.22570930E+04</pdfrwt>
<totfact> 0.63977390E-01</totfact>
</mgrwt>
</event>
<event>
12    3  0.4192740E-008  0.2288031E+04  0.7818608E-02  0.8482655E-01
         -1   -1    0    0    0  501 -0.00000000000E+00  0.00000000000E+00  0.12343850090E+04  0.12343850090E+04  0.00000000000E+00 0.  1.
          1   -1    0    0  501    0  0.00000000000E+00 -0.00000000000E+00 -0.10602616776E+04  0.10602616776E+04  0.00000000000E+00 0. -1.
         23    2    1    2    0    0  0.86502780342E+03  0.35249266032E+03  0.31957522996E+03  0.99127592206E+03  0.89305373738E+02 0.  0.
        254    2    1    2    0    0 -0.86502780342E+03 -0.35249266032E+03 -0.14545189854E+03  0.13033707646E+04  0.89727081696E+03 0.  0.
         23    2    4    4    0    0 -0.73306893034E+02 -0.45424618137E+03 -0.17285003306E+03  0.49984758330E+03  0.90867919207E+02 0.  0.
         23    2    4    4    0    0 -0.79172091038E+03  0.10175352105E+03  0.27398134522E+02  0.80352318131E+03  0.87880977122E+02 0.  0.
          4    1    3    3  502    0  0.12461806486E+02 -0.44373810926E+01 -0.27445197657E+00  0.13231110903E+02  0.00000000000E+00 0. -1.
         -4    1    3    3    0  502  0.85256599693E+03  0.35693004142E+03  0.31984968194E+03  0.97804481115E+03  0.00000000000E+00 0.  1.
         13    1    5    5    0    0  0.58310571904E+01 -0.53098223003E+01  0.62559370630E+01  0.10066389092E+02  0.00000000000E+00 0. -1.
        -13    1    5    5    0    0 -0.79137950224E+02 -0.44893635907E+03 -0.17910597012E+03  0.48978119421E+03  0.00000000000E+00 0.  1.
          1    1    6    6  503    0 -0.67680605144E+02  0.13692979306E+02 -0.22012752700E+02  0.72475673687E+02  0.00000000000E+00 0. -1.
         -1    1    6    6    0  503 -0.72404030524E+03  0.88060541744E+02  0.49410887221E+02  0.73104750762E+03  0.00000000000E+00 0.  1.
<mgrwt>
<rscale>  0 0.22880307E+04</rscale>
<asrwt>0</asrwt>
<pdfrwt beam="1">  1        1 0.16311718E+00 0.22880307E+04</pdfrwt>
<pdfrwt beam="2">  1       -1 0.18990539E+00 0.22880307E+04</pdfrwt>
<totfact> 0.21762773E+00</totfact>
</mgrwt>
</event>
<event>
12    3  0.4192740E-008  0.1334883E+04  0.7818608E-02  0.9002351E-01
         -2   -1    0    0    0  501 -0.00000000000E+00  0.00000000000E+00  0.15441861878E+03  0.15441861878E+03  0.00000000000E+00 0.  1.
          2   -1    0    0  501    0  0.00000000000E+00 -0.00000000000E+00 -0.28848715415E+04  0.28848715415E+04  0.00000000000E+00 0. -1.
         23    2    1    2    0    0 -0.13025536975E+03 -0.32746812105E+03 -0.85151910339E+03  0.92614000022E+03  0.91916728073E+02 0.  0.
        254    2    1    2    0    0  0.13025536975E+03  0.32746812105E+03 -0.18789338193E+04  0.21131501601E+04  0.90044959322E+03 0.  0.
         23    2    4    4    0    0 -0.39159745389E+02  0.44324465786E+03 -0.36640631581E+03  0.58403705424E+03  0.94055196930E+02 0.  0.
         23    2    4    4    0    0  0.16941511514E+03 -0.11577653681E+03 -0.15125275035E+04  0.15291131058E+04  0.91333202235E+02 0.  0.
          1    1    3    3  502    0 -0.13264964828E+03 -0.26926936920E+03 -0.76556462287E+03  0.82230840575E+03  0.00000000000E+00 0. -1.
         -1    1    3    3    0  502  0.23942785302E+01 -0.58198751852E+02 -0.85954480522E+02  0.10383159446E+03  0.00000000000E+00 0.  1.
         13    1    5    5    0    0  0.19403753142E+02  0.16008176953E+03 -0.93319899360E+02  0.18630964062E+03  0.00000000000E+00 0. -1.
        -13    1    5    5    0    0 -0.58563498531E+02  0.28316288833E+03 -0.27308641645E+03  0.39772741361E+03  0.00000000000E+00 0.  1.
          3    1    6    6  503    0  0.44747115089E+02  0.17058002000E+01 -0.51880074590E+03  0.52072970724E+03  0.00000000000E+00 0. -1.
         -3    1    6    6    0  503  0.12466800005E+03 -0.11748233701E+03 -0.99372675761E+03  0.10083833986E+04  0.00000000000E+00 0.  1.
<mgrwt>
<rscale>  0 0.13348826E+04</rscale>
<asrwt>0</asrwt>
<pdfrwt beam="1">  1        2 0.44382636E+00 0.13348826E+04</pdfrwt>
<pdfrwt beam="2">  1       -2 0.23756712E-01 0.13348826E+04</pdfrwt>
<totfact> 0.31859003E+01</totfact>
</mgrwt>
</event>
<event>
12    3  0.4192740E-008  0.1250828E+04  0.7818608E-02  0.9069494E-01
          2   -1    0    0  501    0  0.00000000000E+00  0.00000000000E+00  0.79851993263E+03  0.79851993263E+03  0.00000000000E+00 0. -1.
         -2   -1    0    0    0  501 -0.00000000000E+00 -0.00000000000E+00 -0.48983465158E+03  0.48983465158E+03  0.00000000000E+00 0.  1.
         23    2    1    2    0    0 -0.97034924392E+02  0.22006845862E+03 -0.90034653896E+02  0.27242653555E+03  0.90906959806E+02 0.  0.
        254    2    1    2    0    0  0.97034924392E+02 -0.22006845862E+03  0.39871993494E+03  0.10159280487E+04  0.90293206306E+03 0.  0.
         23    2    4    4    0    0 -0.31068308733E+03  0.10762845871E+03 -0.17526417532E+02  0.34147262671E+03  0.90490406164E+02 0.  0.
         23    2    4    4    0    0  0.40771801172E+03 -0.32769691733E+03  0.41624635247E+03  0.67445542194E+03  0.89497729203E+02 0.  0.
          3    1    3    3  502    0  0.15520742204E+02  0.20340050880E+02  0.13577661922E+01  0.25621370717E+02  0.00000000000E+00 0. -1.
         -3    1    3    3    0  502 -0.11255566660E+03  0.19972840774E+03 -0.91392420088E+02  0.24680516484E+03  0.00000000000E+00 0.  1.
         13    1    5    5    0    0 -0.13542549806E+02 -0.13057798738E+01 -0.20943668108E+02  0.24974846349E+02  0.00000000000E+00 0. -1.
        -13    1    5    5    0    0 -0.29714053752E+03  0.10893423858E+03  0.34172505758E+01  0.31649778037E+03  0.00000000000E+00 0.  1.
          1    1    6    6  503    0  0.21233585439E+02 -0.10854417295E+02  0.48265546934E+02  0.53835365200E+02  0.00000000000E+00 0. -1.
         -1    1    6    6    0  503  0.38648442628E+03 -0.31684250003E+03  0.36798080554E+03  0.62062005674E+03  0.00000000000E+00 0.  1.
<mgrwt>
<rscale>  0 0.12508281E+04</rscale>
<asrwt>0</asrwt>
<pdfrwt beam="1">  1        2 0.12284922E+00 0.12508281E+04</pdfrwt>
<pdfrwt beam="2">  1       -2 0.75359177E-01 0.12508281E+04</pdfrwt>
<totfact> 0.53678599E+01</totfact>
</mgrwt>
</event>
<event>
12    3  0.4192740E-008  0.1521351E+04  0.7818608E-02  0.8870377E-01
         -1   -1    0    0    0  501 -0.00000000000E+00  0.00000000000E+00  0.50518333657E+03  0.50518333657E+03  0.00000000000E+00 0.  1.
          1   -1    0    0  501    0  0.00000000000E+00 -0.00000000000E+00 -0.11453810289E+04  0.11453810289E+04  0.00000000000E+00 0. -1.
         23    2    1    2    0    0  0.43735984591E+03 -0.18318380282E+03 -0.36484035903E+02  0.48441884808E+03  0.92144425055E+02 0.  0.
        254    2    1    2    0    0 -0.43735984591E+03  0.18318380282E+03 -0.60371365641E+03  0.11661455174E+04  0.87782985157E+03 0.  0.
         23    2    4    4    0    0 -0.16778243513E+03 -0.89884440859E+02 -0.72326247053E+03  0.75367307806E+03  0.93189854972E+02 0.  0.
         23    2    4    4    0    0 -0.26957741078E+03  0.27306824368E+03  0.11954881412E+03  0.41247243931E+03  0.92754235053E+02 0.  0.
          1    1    3    3  502    0  0.30310815168E+03 -0.15276126296E+03  0.86972689656E+01  0.33953821223E+03  0.00000000000E+00 0. -1.
         -1    1    3    3    0  502  0.13425169423E+03 -0.30422539865E+02 -0.45181304868E+02  0.14488063585E+03  0.00000000000E+00 0.  1.
         13    1    5    5    0    0 -0.11779029653E+02 -0.31455274031E+00 -0.20011196592E+03  0.20045858272E+03  0.00000000000E+00 0.  1.
        -13    1    5    5    0    0 -0.15600340548E+03 -0.89569888119E+02 -0.52315050461E+03  0.55321449534E+03  0.00000000000E+00 0. -1.
          4    1    6    6  503    0 -0.25263541104E+03  0.26282181481E+03  0.13352376713E+03  0.38823775401E+03  0.00000000000E+00 0. -1.
         -4    1    6    6    0  503 -0.16941999743E+02  0.10246428877E+02 -0.13974953010E+02  0.24234685301E+02  0.00000000000E+00 0.  1.
<mgrwt>
<rscale>  0 0.15213513E+04</rscale>
<asrwt>0</asrwt>
<pdfrwt beam="1">  1        1 0.17621246E+00 0.15213513E+04</pdfrwt>
<pdfrwt beam="2">  1       -1 0.77720515E-01 0.15213513E+04</pdfrwt>
<totfact> 0.18782272E+01</totfact>
</mgrwt>
</event>
<event>
12    3  0.4192740E-008  0.1547666E+04  0.7818608E-02  0.8853360E-01
          1   -1    0    0  501    0  0.00000000000E+00  0.00000000000E+00  0.10404417563E+04  0.10404417563E+04  0.00000000000E+00 0. -1.
         -1   -1    0    0    0  501 -0.00000000000E+00 -0.00000000000E+00 -0.57554137751E+03  0.57554137751E+03  0.00000000000E+00 0.  1.
         23    2    1    2    0    0 -0.52069820858E+02 -0.10338857071E+03  0.67376906207E+03  0.69007925708E+03  0.94043443371E+02 0.  0.
        254    2    1    2    0    0  0.52069820858E+02  0.10338857071E+03 -0.20886868331E+03  0.92590387671E+03  0.89457889492E+03 0.  0.
         23    2    4    4    0    0  0.19713720519E+03 -0.81821201264E+02  0.28747420174E+03  0.36914750027E+03  0.89836928055E+02 0.  0.
         23    2    4    4    0    0 -0.14506738433E+03  0.18520977198E+03 -0.49634288505E+03  0.55675637643E+03  0.90962616110E+02 0.  0.
          3    1    3    3  502    0 -0.33957905859E+02  0.78161383006E+00  0.29098393933E+03  0.29295972972E+03  0.00000000000E+00 0. -1.
         -3    1    3    3    0  502 -0.18111914999E+02 -0.10417018454E+03  0.38278512274E+03  0.39711952735E+03  0.00000000000E+00 0.  1.
         13    1    5    5    0    0  0.15197846177E+03 -0.42597078368E+02  0.14379896612E+03  0.21351839870E+03  0.00000000000E+00 0.  1.
        -13    1    5    5    0    0  0.45158743426E+02 -0.39224122896E+02  0.14367523562E+03  0.15562910157E+03  0.00000000000E+00 0. -1.
          3    1    6    6  503    0 -0.61126907480E+02  0.14522874202E+03 -0.34238273623E+03  0.37690028442E+03  0.00000000000E+00 0. -1.
         -3    1    6    6    0  503 -0.83940476853E+02  0.39981029951E+02 -0.15396014882E+03  0.17985609202E+03  0.00000000000E+00 0.  1.
<mgrwt>
<rscale>  0 0.15476657E+04</rscale>
<asrwt>0</asrwt>
<pdfrwt beam="1">  1        1 0.16006796E+00 0.15476657E+04</pdfrwt>
<pdfrwt beam="2">  1       -1 0.88544827E-01 0.15476657E+04</pdfrwt>
<totfact> 0.16987093E+01</totfact>
</mgrwt>
</event>
<event>
12    3  0.4192740E-008  0.1276086E+04  0.7818608E-02  0.9048747E-01
         -1   -1    0    0    0  501 -0.00000000000E+00  0.00000000000E+00  0.58782179841E+03  0.58782179841E+03  0.00000000000E+00 0.  1.
          1   -1    0    0  501    0  0.00000000000E+00 -0.00000000000E+00 -0.69255504105E+03  0.69255504105E+03  0.00000000000E+00 0. -1.
         23    2    1    2    0    0  0.15552723312E+03 -0.25100378466E+03  0.63093680731E+02  0.31547139799E+03  0.91377077250E+02 0.  0.
        254    2    1    2    0    0 -0.15552723312E+03  0.25100378466E+03 -0.16782692336E+03  0.96490544147E+03  0.90315281908E+03 0.  0.
         23    2    4    4    0    0 -0.44186852633E+02 -0.12698284834E+02 -0.50443602438E+03  0.51425775434E+03  0.88834738838E+02 0.  0.
         23    2    4    4    0    0 -0.11134038048E+03  0.26370206950E+03  0.33660910102E+03  0.45064768713E+03  0.88556136104E+02 0.  0.
          1    1    3    3  502    0  0.22854885127E+02 -0.14563429153E+02 -0.17940158241E+02  0.32500592619E+02  0.00000000000E+00 0. -1.
         -1    1    3    3    0  502  0.13267234799E+03 -0.23644035551E+03  0.81033838972E+02  0.28297080537E+03  0.00000000000E+00 0.  1.
         13    1    5    5    0    0 -0.60132542990E+02 -0.33081516464E+02 -0.27794851734E+03  0.28629650321E+03  0.00000000000E+00 0. -1.
        -13    1    5    5    0    0  0.15945690357E+02  0.20383231631E+02 -0.22648750704E+03  0.22796125113E+03  0.00000000000E+00 0.  1.
          3    1    6    6  503    0 -0.11514340788E+02  0.47554297307E+02  0.16355918595E+02  0.51589798499E+02  0.00000000000E+00 0. -1.
         -3    1    6    6    0  503 -0.99826039695E+02  0.21614777219E+03  0.32025318242E+03  0.39905788863E+03  0.00000000000E+00 0.  1.
<mgrwt>
<rscale>  0 0.12760861E+04</rscale>
<asrwt>0</asrwt>
<pdfrwt beam="1">  1        1 0.10654693E+00 0.12760861E+04</pdfrwt>
<pdfrwt beam="2">  1       -1 0.90434122E-01 0.12760861E+04</pdfrwt>
<totfact> 0.32590765E+01</totfact>
</mgrwt>
</event>
<event>
12    3  0.4192740E-008  0.1686572E+04  0.7818608E-02  0.8769060E-01
          1   -1    0    0  501    0  0.00000000000E+00  0.00000000000E+00  0.14307042742E+04  0.14307042742E+04  0.00000000000E+00 0. -1.
         -1   -1    0    0    0  501 -0.00000000000E+00 -0.00000000000E+00 -0.49704985428E+03  0.49704985428E+03  0.00000000000E+00 0.  1.
         23    2    1    2    0    0  0.17098336467E+03 -0.19295232805E+03 -0.28056695114E+03  0.39168272144E+03  0.90728321423E+02 0.  0.
        254    2    1    2    0    0 -0.17098336467E+03  0.19295232805E+03  0.12142213710E+04  0.15360714070E+04  0.90482922017E+03 0.  0.
         23    2    4    4    0    0 -0.22073734694E+01 -0.13374884748E+03  0.11379240654E+04  0.11493864453E+04  0.91238125095E+02 0.  0.
         23    2    4    4    0    0 -0.16877599120E+03  0.32670117553E+03  0.76297305682E+02  0.38668496169E+03  0.92113991587E+02 0.  0.
          1    1    3    3  502    0  0.14259433711E+02 -0.76955008928E+02 -0.84163295148E+02  0.11492982685E+03  0.00000000000E+00 0. -1.
         -1    1    3    3    0  502  0.15672393095E+03 -0.11599731912E+03 -0.19640365599E+03  0.27675289459E+03  0.00000000000E+00 0.  1.
         13    1    5    5    0    0 -0.68281823423E+00 -0.11366994542E+03  0.11047248561E+04  0.11105576664E+04  0.00000000000E+00 0. -1.
        -13    1    5    5    0    0 -0.15245552352E+01 -0.20078902065E+02  0.33199209268E+02  0.38828778925E+02  0.00000000000E+00 0.  1.
          1    1    6    6  503    0 -0.15575234006E+03  0.25433624937E+03  0.90773428462E+02  0.31174594543E+03  0.00000000000E+00 0. -1.
         -1    1    6    6    0  503 -0.13023651135E+02  0.72364926165E+02 -0.14476122780E+02  0.74939016263E+02  0.00000000000E+00 0.  1.
<mgrwt>
<rscale>  0 0.16865721E+04</rscale>
<asrwt>0</asrwt>
<pdfrwt beam="1">  1        1 0.22010835E+00 0.16865721E+04</pdfrwt>
<pdfrwt beam="2">  1       -1 0.76469209E-01 0.16865721E+04</pdfrwt>
<totfact> 0.11955417E+01</totfact>
</mgrwt>
</event>
<event>
12    3  0.4192740E-008  0.1250706E+04  0.7818608E-02  0.9069596E-01
          1   -1    0    0  501    0  0.00000000000E+00  0.00000000000E+00  0.62228186022E+03  0.62228186022E+03  0.00000000000E+00 0. -1.
         -1   -1    0    0    0  501 -0.00000000000E+00 -0.00000000000E+00 -0.62843898548E+03  0.62843898548E+03  0.00000000000E+00 0.  1.
         23    2    1    2    0    0  0.22379920302E+02 -0.23056428342E+03 -0.19059158517E+03  0.31244629241E+03  0.87388693070E+02 0.  0.
        254    2    1    2    0    0 -0.22379920302E+02  0.23056428342E+03  0.18443445992E+03  0.93827455329E+03  0.89032708469E+03 0.  0.
         23    2    4    4    0    0 -0.11282829946E+03 -0.28279053255E+03  0.25228784437E+03  0.40562871600E+03  0.90469820199E+02 0.  0.
         23    2    4    4    0    0  0.90448379159E+02  0.51335481597E+03 -0.67853384458E+02  0.53264583729E+03  0.85985055849E+02 0.  0.
          2    1    3    3  502    0  0.12194509442E+01  0.69743554970E+01 -0.14046621243E+02  0.15730106915E+02  0.00000000000E+00 0. -1.
         -2    1    3    3    0  502  0.21160469358E+02 -0.23753863892E+03 -0.17654496393E+03  0.29671618549E+03  0.00000000000E+00 0.  1.
         13    1    5    5    0    0 -0.39023769852E+02 -0.12341871458E+03  0.16437602439E+03  0.20922359120E+03  0.00000000000E+00 0. -1.
        -13    1    5    5    0    0 -0.73804529609E+02 -0.15937181797E+03  0.87911819984E+02  0.19640512479E+03  0.00000000000E+00 0.  1.
          3    1    6    6  503    0  0.67291232669E+02  0.48326559225E+03 -0.49376119434E+02  0.49041996678E+03  0.00000000000E+00 0. -1.
         -3    1    6    6    0  503  0.23157146490E+02  0.30089223721E+02 -0.18477265025E+02  0.42225870512E+02  0.00000000000E+00 0.  1.
<mgrwt>
<rscale>  0 0.12507057E+04</rscale>
<asrwt>0</asrwt>
<pdfrwt beam="1">  1        1 0.95735671E-01 0.12507057E+04</pdfrwt>
<pdfrwt beam="2">  1       -1 0.96682921E-01 0.12507057E+04</pdfrwt>
<totfact> 0.32978327E+01</totfact>
</mgrwt>
</event>
<event>
12    3  0.4192740E-008  0.1694526E+04  0.7818608E-02  0.8764493E-01
          1   -1    0    0  501    0  0.00000000000E+00  0.00000000000E+00  0.79411078327E+03  0.79411078327E+03  0.00000000000E+00 0. -1.
         -1   -1    0    0    0  501 -0.00000000000E+00 -0.00000000000E+00 -0.90397245076E+03  0.90397245076E+03  0.00000000000E+00 0.  1.
         23    2    1    2    0    0 -0.56755183904E+03  0.11004948084E+03 -0.22285497792E+03  0.62637965577E+03  0.91984529894E+02 0.  0.
        254    2    1    2    0    0  0.56755183904E+03 -0.11004948084E+03  0.11299331044E+03  0.10717035783E+04  0.89529609249E+03 0.  0.
         23    2    4    4    0    0 -0.15792348020E+03  0.12232179438E+03 -0.14373722106E+03  0.26262572913E+03  0.91702987431E+02 0.  0.
         23    2    4    4    0    0  0.72547531924E+03 -0.23237127522E+03  0.25673053150E+03  0.80907784913E+03  0.91572658445E+02 0.  0.
          1    1    3    3  502    0 -0.46513092067E+03  0.83316176341E+02 -0.21805277775E+03  0.52041845902E+03  0.00000000000E+00 0. -1.
         -1    1    3    3    0  502 -0.10242091837E+03  0.26733304496E+02 -0.48022001723E+01  0.10596119675E+03  0.00000000000E+00 0.  1.
         13    1    5    5    0    0 -0.13859458344E+03  0.13510755372E+03 -0.14062109803E+03  0.23924214270E+03  0.00000000000E+00 0. -1.
        -13    1    5    5    0    0 -0.19328896762E+02 -0.12785759336E+02 -0.31161230305E+01  0.23383586436E+02  0.00000000000E+00 0.  1.
          3    1    6    6  503    0  0.44216009229E+03 -0.17730481968E+03  0.18979354905E+03  0.51280029013E+03  0.00000000000E+00 0. -1.
         -3    1    6    6    0  503  0.28331522695E+03 -0.55066455539E+02  0.66936982446E+02  0.29627755900E+03  0.00000000000E+00 0.  1.
<mgrwt>
<rscale>  0 0.16945256E+04</rscale>
<asrwt>0</asrwt>
<pdfrwt beam="1">  1        1 0.12217089E+00 0.16945256E+04</pdfrwt>
<pdfrwt beam="2">  1       -1 0.13907269E+00 0.16945256E+04</pdfrwt>
<totfact> 0.90862346E+00</totfact>
</mgrwt>
</event>
<event>
12    3  0.4192740E-008  0.1303790E+04  0.7818608E-02  0.9026565E-01
          4   -1    0    0  501    0  0.00000000000E+00  0.00000000000E+00  0.15654348037E+03  0.15654348037E+03  0.00000000000E+00 0. -1.
         -4   -1    0    0    0  501 -0.00000000000E+00 -0.00000000000E+00 -0.27146915545E+04  0.27146915545E+04  0.00000000000E+00 0.  1.
         23    2    1    2    0    0 -0.17445132405E+03 -0.25512511977E+03 -0.39949830852E+03  0.51354592331E+03  0.92781601836E+02 0.  0.
        254    2    1    2    0    0  0.17445132405E+03  0.25512511977E+03 -0.21586497656E+04  0.23576891115E+04  0.89632976355E+03 0.  0.
         23    2    4    4    0    0  0.20393602954E+03 -0.29490095435E+03 -0.11112918320E+04  0.11712348294E+04  0.90912115825E+02 0.  0.
         23    2    4    4    0    0 -0.29484705491E+02  0.55002607412E+03 -0.10473579336E+04  0.11864542821E+04  0.85540004687E+02 0.  0.
          3    1    3    3  502    0 -0.10117696298E+03 -0.21387376439E+03 -0.26837372400E+03  0.35777537739E+03  0.00000000000E+00 0. -1.
         -3    1    3    3    0  502 -0.73274361071E+02 -0.41251355374E+02 -0.13112458452E+03  0.15577054592E+03  0.00000000000E+00 0.  1.
         13    1    5    5    0    0  0.13128146341E+03 -0.12285717137E+03 -0.62375555174E+03  0.64915306016E+03  0.00000000000E+00 0. -1.
        -13    1    5    5    0    0  0.72654566127E+02 -0.17204378299E+03 -0.48753628027E+03  0.52208176929E+03  0.00000000000E+00 0.  1.
          1    1    6    6  503    0 -0.27622334824E+02  0.31289339158E+03 -0.50802726453E+03  0.59729136055E+03  0.00000000000E+00 0. -1.
         -1    1    6    6    0  503 -0.18623706668E+01  0.23713268254E+03 -0.53933066905E+03  0.58916292155E+03  0.00000000000E+00 0.  1.
<mgrwt>
<rscale>  0 0.13037903E+04</rscale>
<asrwt>0</asrwt>
<pdfrwt beam="1">  1        4 0.24083614E-01 0.13037903E+04</pdfrwt>
<pdfrwt beam="2">  1       -4 0.41764483E+00 0.13037903E+04</pdfrwt>
<totfact> 0.16810882E-01</totfact>
</mgrwt>
</event>
<event>
12    3  0.4192740E-008  0.3167947E+04  0.7818608E-02  0.8197334E-01
         -1   -1    0    0    0  501 -0.00000000000E+00  0.00000000000E+00  0.10674138663E+04  0.10674138663E+04  0.00000000000E+00 0.  1.
          1   -1    0    0  501    0  0.00000000000E+00 -0.00000000000E+00 -0.23505145036E+04  0.23505145036E+04  0.00000000000E+00 0. -1.
         23    2    1    2    0    0 -0.10240327572E+04  0.80016635645E+02 -0.17013819118E+04  0.19894748720E+04  0.90907131608E+02 0.  0.
        254    2    1    2    0    0  0.10240327572E+04 -0.80016635645E+02  0.41828127452E+03  0.14284534980E+04  0.90026352884E+03 0.  0.
         23    2    4    4    0    0  0.69416475750E+03 -0.41821579410E+03  0.41256091231E+02  0.81707137252E+03  0.95574064112E+02 0.  0.
         23    2    4    4    0    0  0.32986799973E+03  0.33819915845E+03  0.37702518329E+03  0.61138212544E+03  0.91915974946E+02 0.  0.
          4    1    3    3  502    0 -0.69125937332E+03  0.88609664292E+02 -0.11026614425E+04  0.13044360661E+04  0.00000000000E+00 0. -1.
         -4    1    3    3    0  502 -0.33277338391E+03 -0.85930286468E+01 -0.59872046928E+03  0.68503880585E+03  0.00000000000E+00 0.  1.
         13    1    5    5    0    0  0.63314108306E+03 -0.38679482412E+03  0.64164771351E+02  0.74471134334E+03  0.00000000000E+00 0. -1.
        -13    1    5    5    0    0  0.61023674449E+02 -0.31420969979E+02 -0.22908680121E+02  0.72360029178E+02  0.00000000000E+00 0.  1.
          2    1    6    6  503    0  0.14589826085E+03  0.19093533563E+03  0.23572859853E+03  0.33661636483E+03  0.00000000000E+00 0. -1.
         -2    1    6    6    0  503  0.18396973888E+03  0.14726382282E+03  0.14129658476E+03  0.27476576061E+03  0.00000000000E+00 0.  1.
<mgrwt>
<rscale>  0 0.31679468E+04</rscale>
<asrwt>0</asrwt>
<pdfrwt beam="1">  1        1 0.36161761E+00 0.31679468E+04</pdfrwt>
<pdfrwt beam="2">  1       -1 0.16421752E+00 0.31679468E+04</pdfrwt>
<totfact> 0.39148650E-01</totfact>
</mgrwt>
</event>
<event>
12    3  0.4192740E-008  0.1247331E+04  0.7818608E-02  0.9072408E-01
          1   -1    0    0  501    0  0.00000000000E+00  0.00000000000E+00  0.99042915800E+03  0.99042915800E+03  0.00000000000E+00 0. -1.
         -1   -1    0    0    0  501 -0.00000000000E+00 -0.00000000000E+00 -0.39271729293E+03  0.39271729293E+03  0.00000000000E+00 0.  1.
         23    2    1    2    0    0  0.25611429721E+03  0.92521577139E+02  0.24421797811E+03  0.37701760650E+03  0.91351405612E+02 0.  0.
        254    2    1    2    0    0 -0.25611429721E+03 -0.92521577139E+02  0.35349388697E+03  0.10061288444E+04  0.90176634889E+03 0.  0.
         23    2    4    4    0    0  0.10334887628E+03 -0.42279294391E+03  0.15779515510E+03  0.47203600433E+03  0.92107625963E+02 0.  0.
         23    2    4    4    0    0 -0.35946317349E+03  0.33027136677E+03  0.19569873187E+03  0.53409284010E+03  0.93081788698E+02 0.  0.
          3    1    3    3  502    0  0.25338194059E+03  0.90146891201E+02  0.25192430640E+03  0.36850335950E+03  0.00000000000E+00 0. -1.
         -3    1    3    3    0  502  0.27323566236E+01  0.23746859375E+01 -0.77063282984E+01  0.85142469933E+01  0.00000000000E+00 0.  1.
         13    1    5    5    0    0  0.88039804917E+02 -0.25646929229E+03  0.57430732415E+02  0.27717466364E+03  0.00000000000E+00 0. -1.
        -13    1    5    5    0    0  0.15309071365E+02 -0.16632365161E+03  0.10036442269E+03  0.19486134068E+03  0.00000000000E+00 0.  1.
          2    1    6    6  503    0 -0.75647588706E+01 -0.52399038253E+01  0.10098659340E+02  0.13662543296E+02  0.00000000000E+00 0.  1.
         -2    1    6    6    0  503 -0.35189841462E+03  0.33551127060E+03  0.18560007253E+03  0.52043029681E+03  0.00000000000E+00 0. -1.
<mgrwt>
<rscale>  0 0.12473310E+04</rscale>
<asrwt>0</asrwt>
<pdfrwt beam="1">  1        1 0.15237372E+00 0.12473310E+04</pdfrwt>
<pdfrwt beam="2">  1       -1 0.60418045E-01 0.12473310E+04</pdfrwt>
<totfact> 0.42183811E+01</totfact>
</mgrwt>
</event>
<event>
12    3  0.4192740E-008  0.1320267E+04  0.7818608E-02  0.9013646E-01
          2   -1    0    0  501    0  0.00000000000E+00  0.00000000000E+00  0.40455159503E+03  0.40455159503E+03  0.00000000000E+00 0. -1.
         -2   -1    0    0    0  501 -0.00000000000E+00 -0.00000000000E+00 -0.10771834276E+04  0.10771834276E+04  0.00000000000E+00 0.  1.
         23    2    1    2    0    0 -0.94742816216E+02  0.46498938382E+02 -0.54913706422E+03  0.56657979368E+03  0.91229352802E+02 0.  0.
        254    2    1    2    0    0  0.94742816216E+02 -0.46498938382E+02 -0.12349476833E+03  0.91515522893E+03  0.90062188667E+03 0.  0.
         23    2    4    4    0    0 -0.56471942003E+02 -0.31239308784E+03 -0.38176490797E+03  0.50473109042E+03  0.90722142343E+02 0.  0.
         23    2    4    4    0    0  0.15121475822E+03  0.26589414946E+03  0.25827013964E+03  0.41042413852E+03  0.90437307726E+02 0.  0.
          1    1    3    3  502    0 -0.14136290519E+02 -0.24845297842E+02 -0.17287790614E+03  0.17522526635E+03  0.00000000000E+00 0. -1.
         -1    1    3    3    0  502 -0.80606525697E+02  0.71344236223E+02 -0.37625915808E+03  0.39135452734E+03  0.00000000000E+00 0.  1.
         13    1    5    5    0    0 -0.34125530218E+02 -0.15697012120E+03 -0.12409481040E+03  0.20298692749E+03  0.00000000000E+00 0. -1.
        -13    1    5    5    0    0 -0.22346411784E+02 -0.15542296664E+03 -0.25767009758E+03  0.30174416293E+03  0.00000000000E+00 0.  1.
          4    1    6    6  503    0  0.43100906201E+02  0.15793124922E+03  0.10800684816E+03  0.19612609935E+03  0.00000000000E+00 0. -1.
         -4    1    6    6    0  503  0.10811385202E+03  0.10796290024E+03  0.15026329148E+03  0.21429803917E+03  0.00000000000E+00 0.  1.
<mgrwt>
<rscale>  0 0.13202671E+04</rscale>
<asrwt>0</asrwt>
<pdfrwt beam="1">  1        2 0.62238708E-01 0.13202671E+04</pdfrwt>
<pdfrwt beam="2">  1       -2 0.16572052E+00 0.13202671E+04</pdfrwt>
<totfact> 0.17557667E+01</totfact>
</mgrwt>
</event>
<event>
12    3  0.4192740E-008  0.2110539E+04  0.7818608E-02  0.8556615E-01
         -1   -1    0    0    0  501 -0.00000000000E+00  0.00000000000E+00  0.37735905571E+03  0.37735905571E+03  0.00000000000E+00 0.  1.
          1   -1    0    0  501    0  0.00000000000E+00 -0.00000000000E+00 -0.29510198727E+04  0.29510198727E+04  0.00000000000E+00 0. -1.
         23    2    1    2    0    0 -0.57062845292E+03 -0.48260647898E+03 -0.36384763598E+03  0.83607798909E+03  0.90085830198E+02 0.  0.
        254    2    1    2    0    0  0.57062845292E+03  0.48260647898E+03 -0.22098131810E+04  0.24923009393E+04  0.87736185940E+03 0.  0.
         23    2    4    4    0    0  0.80945582872E+02  0.56586007762E+03 -0.15936710966E+04  0.16955229392E+04  0.90888164966E+02 0.  0.
         23    2    4    4    0    0  0.48968287004E+03 -0.83253598648E+02 -0.61614208446E+03  0.79677800012E+03  0.92215174057E+02 0.  0.
          1    1    3    3  502    0 -0.80189499107E+02 -0.10884983346E+03 -0.81721890436E+02  0.15797819276E+03  0.00000000000E+00 0. -1.
         -1    1    3    3    0  502 -0.49043895381E+03 -0.37375664551E+03 -0.28212574554E+03  0.67809979632E+03  0.00000000000E+00 0.  1.
         13    1    5    5    0    0 -0.17323955808E+02  0.79778721051E+02 -0.18887811826E+03  0.20576614720E+03  0.00000000000E+00 0. -1.
        -13    1    5    5    0    0  0.98269538680E+02  0.48608135657E+03 -0.14047929783E+04  0.14897567920E+04  0.00000000000E+00 0.  1.
          3    1    6    6  503    0  0.18508830742E+03  0.82303388060E+01 -0.26062684763E+03  0.31976831258E+03  0.00000000000E+00 0. -1.
         -3    1    6    6    0  503  0.30459456263E+03 -0.91483937454E+02 -0.35551523683E+03  0.47700968754E+03  0.00000000000E+00 0.  1.
<mgrwt>
<rscale>  0 0.21105393E+04</rscale>
<asrwt>0</asrwt>
<pdfrwt beam="1">  1        1 0.45400306E+00 0.21105393E+04</pdfrwt>
<pdfrwt beam="2">  1       -1 0.58055239E-01 0.21105393E+04</pdfrwt>
<totfact> 0.17943713E+00</totfact>
</mgrwt>
</event>
<event>
12    3  0.4192740E-008  0.2562298E+04  0.7818608E-02  0.8381122E-01
         -2   -1    0    0    0  501 -0.00000000000E+00  0.00000000000E+00  0.55370801829E+03  0.55370801829E+03  0.00000000000E+00 0.  1.
          2   -1    0    0  501    0  0.00000000000E+00 -0.00000000000E+00 -0.29642743670E+04  0.29642743670E+04  0.00000000000E+00 0. -1.
         23    2    1    2    0    0 -0.10073422011E+04 -0.17391662319E+03 -0.16887589637E+04  0.19761621099E+04  0.91238946810E+02 0.  0.
        254    2    1    2    0    0  0.10073422011E+04  0.17391662319E+03 -0.72180738501E+03  0.15418202753E+04  0.90067672257E+03 0.  0.
         23    2    4    4    0    0  0.69084645843E+02 -0.17882977406E+03  0.10987239635E+03  0.23607775128E+03  0.83114287522E+02 0.  0.
         23    2    4    4    0    0  0.93825755522E+03  0.35274639725E+03 -0.83167978136E+03  0.13057425241E+04  0.92276864613E+02 0.  0.
          2    1    3    3  502    0 -0.81005345959E+03 -0.11298542522E+03 -0.12978126930E+04  0.15340371899E+04  0.00000000000E+00 0. -1.
         -2    1    3    3    0  502 -0.19728874147E+03 -0.60931197968E+02 -0.39094627063E+03  0.44212492003E+03  0.00000000000E+00 0.  1.
         13    1    5    5    0    0 -0.16683222254E+02 -0.60818808259E+02  0.33272349622E+02  0.71304323797E+02  0.00000000000E+00 0. -1.
        -13    1    5    5    0    0  0.85767868096E+02 -0.11801096580E+03  0.76600046731E+02  0.16477342749E+03  0.00000000000E+00 0.  1.
          1    1    6    6  503    0  0.71070854177E+03  0.22955566775E+03 -0.59187586108E+03  0.95295302658E+03  0.00000000000E+00 0. -1.
         -1    1    6    6    0  503  0.22754901345E+03  0.12319072950E+03 -0.23980392028E+03  0.35278949749E+03  0.00000000000E+00 0.  1.
<mgrwt>
<rscale>  0 0.25622978E+04</rscale>
<asrwt>0</asrwt>
<pdfrwt beam="1">  1        2 0.45604222E+00 0.25622978E+04</pdfrwt>
<pdfrwt beam="2">  1       -2 0.85185847E-01 0.25622978E+04</pdfrwt>
<totfact> 0.19499836E+00</totfact>
</mgrwt>
</event>
<event>
12    3  0.4192740E-008  0.1557070E+04  0.7818608E-02  0.8847364E-01
          2   -1    0    0  501    0  0.00000000000E+00  0.00000000000E+00  0.58043345695E+03  0.58043345695E+03  0.00000000000E+00 0. -1.
         -2   -1    0    0    0  501 -0.00000000000E+00 -0.00000000000E+00 -0.10442491206E+04  0.10442491206E+04  0.00000000000E+00 0.  1.
         23    2    1    2    0    0 -0.10568796970E+03  0.63525000297E+02 -0.67809328001E+03  0.69530778459E+03  0.91853395788E+02 0.  0.
        254    2    1    2    0    0  0.10568796970E+03 -0.63525000297E+02  0.21427761636E+03  0.92937479295E+03  0.89588907589E+03 0.  0.
         23    2    4    4    0    0 -0.17710412916E+03 -0.86253189146E+02  0.48177384064E+03  0.52836147441E+03  0.90853337342E+02 0.  0.
         23    2    4    4    0    0  0.28279209886E+03  0.22728188849E+02 -0.26749622428E+03  0.40101331855E+03  0.93645661402E+02 0.  0.
          3    1    3    3  502    0  0.15702431780E+02  0.22403148498E+01 -0.11163179682E+03  0.11275301963E+03  0.00000000000E+00 0. -1.
         -3    1    3    3    0  502 -0.12139040148E+03  0.61284685447E+02 -0.56646148319E+03  0.58255476497E+03  0.00000000000E+00 0.  1.
         13    1    5    5    0    0 -0.58206257473E+02 -0.73019567169E+02  0.26189453055E+03  0.27804418845E+03  0.00000000000E+00 0.  1.
        -13    1    5    5    0    0 -0.11889787168E+03 -0.13233621977E+02  0.21987931009E+03  0.25031728596E+03  0.00000000000E+00 0. -1.
          1    1    6    6  503    0  0.13310395695E+03  0.20279920099E+02 -0.65883062573E+02  0.14989501809E+03  0.00000000000E+00 0. -1.
         -1    1    6    6    0  503  0.14968814191E+03  0.24482687497E+01 -0.20161316171E+03  0.25111830046E+03  0.00000000000E+00 0.  1.
<mgrwt>
<rscale>  0 0.15570705E+04</rscale>
<asrwt>0</asrwt>
<pdfrwt beam="1">  1        2 0.89297455E-01 0.15570705E+04</pdfrwt>
<pdfrwt beam="2">  1       -2 0.16065371E+00 0.15570705E+04</pdfrwt>
<totfact> 0.12360588E+01</totfact>
</mgrwt>
</event>
<event>
12    3  0.4192740E-008  0.2666524E+04  0.7818608E-02  0.8345949E-01
         -2   -1    0    0    0  501 -0.00000000000E+00  0.00000000000E+00  0.17193369814E+04  0.17193369814E+04  0.00000000000E+00 0. -1.
          2   -1    0    0  501    0  0.00000000000E+00 -0.00000000000E+00 -0.10338795532E+04  0.10338795532E+04  0.00000000000E+00 0.  1.
         23    2    1    2    0    0 -0.90333528104E+03  0.71287544016E+03  0.28766121962E+02  0.11543710271E+04  0.86827156814E+02 0.  0.
        254    2    1    2    0    0  0.90333528104E+03 -0.71287544016E+03  0.65669130629E+03  0.15988455076E+04  0.89490639857E+03 0.  0.
         23    2    4    4    0    0 -0.86436670133E+02  0.41301821869E+02 -0.75435788596E+02  0.15211796471E+03  0.90951517604E+02 0.  0.
         23    2    4    4    0    0  0.98977195118E+03 -0.75417726203E+03  0.73212709488E+03  0.14467275429E+04  0.92620960520E+02 0.  0.
          1    1    3    3  502    0 -0.88621815678E+02  0.41301999506E+02  0.11051790365E+02  0.98396257284E+02  0.00000000000E+00 0. -1.
         -1    1    3    3    0  502 -0.81471346537E+03  0.67157344065E+03  0.17714331597E+02  0.10559747698E+04  0.00000000000E+00 0.  1.
         13    1    5    5    0    0 -0.60147353488E+02 -0.25379834904E+01 -0.80753831387E+02  0.10072401290E+03  0.00000000000E+00 0. -1.
        -13    1    5    5    0    0 -0.26289316645E+02  0.43839805359E+02  0.53180427907E+01  0.51393951811E+02  0.00000000000E+00 0.  1.
          2    1    6    6  503    0  0.71606794793E+03 -0.49246815330E+03  0.50423198358E+03  0.10047527464E+04  0.00000000000E+00 0. -1.
         -2    1    6    6    0  503  0.27370400325E+03 -0.26170910873E+03  0.22789511130E+03  0.44197479650E+03  0.00000000000E+00 0.  1.
<mgrwt>
<rscale>  0 0.26665238E+04</rscale>
<asrwt>0</asrwt>
<pdfrwt beam="1">  1        2 0.15905839E+00 0.26665238E+04</pdfrwt>
<pdfrwt beam="2">  1       -2 0.26451338E+00 0.26665238E+04</pdfrwt>
<totfact> 0.11037131E+00</totfact>
</mgrwt>
</event>
<event>
12    3  0.4192740E-008  0.1662859E+04  0.7818608E-02  0.8782835E-01
         -2   -1    0    0    0  501 -0.00000000000E+00  0.00000000000E+00  0.55828035613E+03  0.55828035613E+03  0.00000000000E+00 0.  1.
          2   -1    0    0  501    0  0.00000000000E+00 -0.00000000000E+00 -0.12382219310E+04  0.12382219310E+04  0.00000000000E+00 0. -1.
         23    2    1    2    0    0  0.39066875797E+03  0.38106539202E+03 -0.18133719458E+02  0.55474664210E+03  0.97888169310E+02 0.  0.
        254    2    1    2    0    0 -0.39066875797E+03 -0.38106539202E+03 -0.66180785538E+03  0.12417556450E+04  0.89784995016E+03 0.  0.
         23    2    4    4    0    0 -0.21344262418E+02  0.25345828646E+03 -0.34295904670E+03  0.43653699054E+03  0.90812751745E+02 0.  0.
         23    2    4    4    0    0 -0.36932449555E+03 -0.63452367848E+03 -0.31884880868E+03  0.80521865447E+03  0.87701979087E+02 0.  0.
          2    1    3    3  502    0  0.35783240902E+03  0.36505656729E+03  0.55406144413E+01  0.51121524691E+03  0.00000000000E+00 0.  1.
         -2    1    3    3    0  502  0.32836348949E+02  0.16008824734E+02 -0.23674333899E+02  0.43531395191E+02  0.00000000000E+00 0. -1.
         13    1    5    5    0    0 -0.19309135107E+02  0.13483798564E+03 -0.25411529051E+03  0.28832049172E+03  0.00000000000E+00 0. -1.
        -13    1    5    5    0    0 -0.20351273110E+01  0.11862030082E+03 -0.88843756187E+02  0.14821649882E+03  0.00000000000E+00 0.  1.
          4    1    6    6  503    0 -0.33272788438E+02 -0.78494268589E+02 -0.99572631454E+01  0.85834583596E+02  0.00000000000E+00 0. -1.
         -4    1    6    6    0  503 -0.33605170711E+03 -0.55602940989E+03 -0.30889154553E+03  0.71938407087E+03  0.00000000000E+00 0.  1.
<mgrwt>
<rscale>  0 0.16628590E+04</rscale>
<asrwt>0</asrwt>
<pdfrwt beam="1">  1        2 0.19049568E+00 0.16628590E+04</pdfrwt>
<pdfrwt beam="2">  1       -2 0.85889285E-01 0.16628590E+04</pdfrwt>
<totfact> 0.20184700E+01</totfact>
</mgrwt>
</event>
<event>
12    3  0.4192740E-008  0.1504888E+04  0.7818608E-02  0.8881209E-01
         -1   -1    0    0    0  501 -0.00000000000E+00  0.00000000000E+00  0.21141842174E+04  0.21141842174E+04  0.00000000000E+00 0.  1.
          1   -1    0    0  501    0  0.00000000000E+00 -0.00000000000E+00 -0.26779685187E+03  0.26779685187E+03  0.00000000000E+00 0. -1.
         23    2    1    2    0    0 -0.14766111236E+03  0.44994613944E+03  0.50248167513E+03  0.69641172849E+03  0.90808200264E+02 0.  0.
        254    2    1    2    0    0  0.14766111236E+03 -0.44994613944E+03  0.13439056904E+04  0.16855693408E+04  0.90044775829E+03 0.  0.
         23    2    4    4    0    0  0.49953443566E+03 -0.39275748081E+03  0.95589686509E+03  0.11514284062E+04  0.90859599794E+02 0.  0.
         23    2    4    4    0    0 -0.35187332330E+03 -0.57188658627E+02  0.38800882531E+03  0.53414093454E+03  0.87580312321E+02 0.  0.
          1    1    3    3  502    0 -0.54151927113E+02  0.13393967855E+03  0.97533873233E+02  0.17431329590E+03  0.00000000000E+00 0. -1.
         -1    1    3    3    0  502 -0.93509185244E+02  0.31600646089E+03  0.40494780190E+03  0.52209843259E+03  0.00000000000E+00 0.  1.
         13    1    5    5    0    0  0.34638788590E+03 -0.26161644115E+03  0.57492668261E+03  0.72039462807E+03  0.00000000000E+00 0. -1.
        -13    1    5    5    0    0  0.15314654976E+03 -0.13114103966E+03  0.38097018248E+03  0.43103377817E+03  0.00000000000E+00 0.  1.
          1    1    6    6  503    0 -0.33517266405E+03 -0.71500835375E+02  0.34762397438E+03  0.48815521277E+03  0.00000000000E+00 0. -1.
         -1    1    6    6    0  503 -0.16700659256E+02  0.14312176748E+02  0.40384850930E+02  0.45985721778E+02  0.00000000000E+00 0.  1.
<mgrwt>
<rscale>  0 0.15048879E+04</rscale>
<asrwt>0</asrwt>
<pdfrwt beam="1">  1        1 0.41199517E-01 0.15048879E+04</pdfrwt>
<pdfrwt beam="2">  1       -1 0.32525910E+00 0.15048879E+04</pdfrwt>
<totfact> 0.22316957E+00</totfact>
</mgrwt>
</event>
<event>
12    3  0.4192740E-008  0.1909358E+04  0.7818608E-02  0.8650212E-01
         -2   -1    0    0    0  501 -0.00000000000E+00  0.00000000000E+00  0.12620310753E+04  0.12620310753E+04  0.00000000000E+00 0.  1.
          2   -1    0    0  501    0  0.00000000000E+00 -0.00000000000E+00 -0.72217859147E+03  0.72217859147E+03  0.00000000000E+00 0. -1.
         23    2    1    2    0    0  0.45541671790E+03 -0.41782508302E+03 -0.20685132073E+03  0.65799567629E+03  0.90491182941E+02 0.  0.
        254    2    1    2    0    0 -0.45541671790E+03  0.41782508302E+03  0.74670380460E+03  0.13262139905E+04  0.90514904291E+03 0.  0.
         23    2    4    4    0    0  0.89032375243E+02 -0.12092695085E+03 -0.82409002169E+02  0.19377304425E+03  0.90590605228E+02 0.  0.
         23    2    4    4    0    0 -0.54444909315E+03  0.53875203387E+03  0.82911280677E+03  0.11324409463E+04  0.91191454699E+02 0.  0.
          4    1    3    3  502    0  0.45490875327E+03 -0.40056481960E+03 -0.20764149218E+03  0.64070987020E+03  0.00000000000E+00 0. -1.
         -4    1    3    3    0  502  0.50796463669E+00 -0.17260263415E+02  0.79017145421E+00  0.17285806089E+02  0.00000000000E+00 0.  1.
         13    1    5    5    0    0  0.10190169547E+02 -0.41226099784E+02  0.15221382839E+02  0.45112319319E+02  0.00000000000E+00 0. -1.
        -13    1    5    5    0    0  0.78842205696E+02 -0.79700851066E+02 -0.97630385008E+02  0.14866072493E+03  0.00000000000E+00 0.  1.
          2    1    6    6  503    0 -0.57234602796E+01  0.52697643780E+01 -0.14004951734E+01  0.79050490765E+01  0.00000000000E+00 0. -1.
         -2    1    6    6    0  503 -0.53872563287E+03  0.53348226949E+03  0.83051330194E+03  0.11245358972E+04  0.00000000000E+00 0.  1.
<mgrwt>
<rscale>  0 0.19093578E+04</rscale>
<asrwt>0</asrwt>
<pdfrwt beam="1">  1        2 0.11110440E+00 0.19093578E+04</pdfrwt>
<pdfrwt beam="2">  1       -2 0.19415863E+00 0.19093578E+04</pdfrwt>
<totfact> 0.53537135E+00</totfact>
</mgrwt>
</event>
<event>
12    3  0.4192740E-008  0.1952504E+04  0.7818608E-02  0.8629154E-01
         -2   -1    0    0    0  501 -0.00000000000E+00  0.00000000000E+00  0.10115400609E+04  0.10115400609E+04  0.00000000000E+00 0.  1.
          2   -1    0    0  501    0  0.00000000000E+00 -0.00000000000E+00 -0.94219513774E+03  0.94219513774E+03  0.00000000000E+00 0. -1.
         23    2    1    2    0    0  0.19691120163E+02 -0.19649971768E+03 -0.71298494106E+03  0.74579967452E+03  0.94179345266E+02 0.  0.
        254    2    1    2    0    0 -0.19691120163E+02  0.19649971768E+03  0.78232986422E+03  0.12079355241E+04  0.89892621206E+03 0.  0.
         23    2    4    4    0    0 -0.37377241801E+03  0.27514227273E+03  0.66647802052E+03  0.81722115117E+03  0.90820522910E+02 0.  0.
         23    2    4    4    0    0  0.35408129785E+03 -0.78642555044E+02  0.11585184370E+03  0.39071437295E+03  0.87623367843E+02 0.  0.
          1    1    3    3  502    0  0.36067000255E+02 -0.19887786196E+03 -0.66528379174E+03  0.69530982737E+03  0.00000000000E+00 0. -1.
         -1    1    3    3    0  502 -0.16375880092E+02  0.23781442740E+01 -0.47701149314E+02  0.50489847147E+02  0.00000000000E+00 0.  1.
         13    1    5    5    0    0 -0.68842889404E+02  0.83666360163E+02  0.20524213200E+03  0.23208562211E+03  0.00000000000E+00 0. -1.
        -13    1    5    5    0    0 -0.30492952861E+03  0.19147591256E+03  0.46123588853E+03  0.58513552906E+03  0.00000000000E+00 0.  1.
          2    1    6    6  503    0  0.18986937232E+03 -0.21662942942E+01  0.80038647108E+02  0.20606129284E+03  0.00000000000E+00 0.  1.
         -2    1    6    6    0  503  0.16421192553E+03 -0.76476260750E+02  0.35813196587E+02  0.18465308011E+03  0.00000000000E+00 0. -1.
<mgrwt>
<rscale>  0 0.19525042E+04</rscale>
<asrwt>0</asrwt>
<pdfrwt beam="1">  1        2 0.14495310E+00 0.19525042E+04</pdfrwt>
<pdfrwt beam="2">  1       -2 0.15562155E+00 0.19525042E+04</pdfrwt>
<totfact> 0.69572858E+00</totfact>
</mgrwt>
</event>
<event>
12    3  0.4192740E-008  0.1591002E+04  0.7818608E-02  0.8826095E-01
          1   -1    0    0  501    0  0.00000000000E+00  0.00000000000E+00  0.18684694549E+04  0.18684694549E+04  0.00000000000E+00 0. -1.
         -1   -1    0    0    0  501 -0.00000000000E+00 -0.00000000000E+00 -0.33868470772E+03  0.33868470772E+03  0.00000000000E+00 0.  1.
         23    2    1    2    0    0 -0.90097994777E+00 -0.10751258443E+03 -0.20166517743E+03  0.24622523614E+03  0.91641996631E+02 0.  0.
        254    2    1    2    0    0  0.90097994777E+00  0.10751258443E+03  0.17314499246E+04  0.19609289265E+04  0.91420109696E+03 0.  0.
         23    2    4    4    0    0  0.30238514172E+02  0.37923737256E+03  0.15930755907E+04  0.16403756105E+04  0.90592237617E+02 0.  0.
         23    2    4    4    0    0 -0.29337534224E+02 -0.27172478813E+03  0.13837433397E+03  0.32055331598E+03  0.94402969684E+02 0.  0.
          1    1    3    3  502    0 -0.33896325605E+02 -0.95926011873E+01 -0.32111884032E+02  0.47667095392E+02  0.00000000000E+00 0. -1.
         -1    1    3    3    0  502  0.32995345657E+02 -0.97919983244E+02 -0.16955329340E+03  0.19855814075E+03  0.00000000000E+00 0.  1.
         13    1    5    5    0    0 -0.19594089653E+02  0.31091217090E+02  0.10305468801E+03  0.10941142925E+03  0.00000000000E+00 0.  1.
        -13    1    5    5    0    0  0.49832603825E+02  0.34814615547E+03  0.14900209027E+04  0.15309641813E+04  0.00000000000E+00 0. -1.
          3    1    6    6  503    0  0.81851101830E+01 -0.23053245285E+03  0.12821193561E+03  0.26391382737E+03  0.00000000000E+00 0. -1.
         -3    1    6    6    0  503 -0.37522644407E+02 -0.41192335286E+02  0.10162398355E+02  0.56639488610E+02  0.00000000000E+00 0.  1.
<mgrwt>
<rscale>  0 0.15910022E+04</rscale>
<asrwt>0</asrwt>
<pdfrwt beam="1">  1        1 0.28745683E+00 0.15910022E+04</pdfrwt>
<pdfrwt beam="2">  1       -1 0.52105341E-01 0.15910022E+04</pdfrwt>
<totfact> 0.13038863E+01</totfact>
</mgrwt>
</event>
<event>
12    3  0.4192740E-008  0.2024544E+04  0.7818608E-02  0.8595231E-01
          1   -1    0    0  501    0  0.00000000000E+00  0.00000000000E+00  0.16688334643E+04  0.16688334643E+04  0.00000000000E+00 0. -1.
         -1   -1    0    0    0  501 -0.00000000000E+00 -0.00000000000E+00 -0.61401833116E+03  0.61401833116E+03  0.00000000000E+00 0.  1.
         23    2    1    2    0    0 -0.50442867158E+03  0.55272141883E+03  0.75786073943E+03  0.10689244051E+04  0.91089143118E+02 0.  0.
        254    2    1    2    0    0  0.50442867158E+03 -0.55272141883E+03  0.29695439374E+03  0.12139273903E+04  0.90856400189E+03 0.  0.
         23    2    4    4    0    0  0.33028532979E+03  0.13461458207E+03  0.33514361977E+03  0.49806759302E+03  0.92415348108E+02 0.  0.
         23    2    4    4    0    0  0.17414334179E+03 -0.68733600090E+03 -0.38189226027E+02  0.71585979733E+03  0.90775276529E+02 0.  0.
          3    1    3    3  502    0 -0.13374183026E+01  0.23711053489E+02  0.22076719751E+02  0.32425056673E+02  0.00000000000E+00 0. -1.
         -3    1    3    3    0  502 -0.50309125328E+03  0.52901036534E+03  0.73578401968E+03  0.10364993485E+04  0.00000000000E+00 0.  1.
         13    1    5    5    0    0  0.18882753666E+03  0.30476747584E+02  0.15209937620E+03  0.24437448922E+03  0.00000000000E+00 0.  1.
        -13    1    5    5    0    0  0.14145779313E+03  0.10413783449E+03  0.18304424357E+03  0.25369310379E+03  0.00000000000E+00 0. -1.
          1    1    6    6  503    0  0.12524539775E+03 -0.40264668695E+03  0.15924133778E+02  0.42197670813E+03  0.00000000000E+00 0. -1.
         -1    1    6    6    0  503  0.48897944044E+02 -0.28468931395E+03 -0.54113359805E+02  0.29388308920E+03  0.00000000000E+00 0.  1.
<mgrwt>
<rscale>  0 0.20245437E+04</rscale>
<asrwt>0</asrwt>
<pdfrwt beam="1">  1        1 0.25674361E+00 0.20245437E+04</pdfrwt>
<pdfrwt beam="2">  1       -1 0.94464360E-01 0.20245437E+04</pdfrwt>
<totfact> 0.50244562E+00</totfact>
</mgrwt>
</event>
<event>
12    3  0.4192740E-008  0.3514647E+04  0.7818608E-02  0.8110327E-01
         -2   -1    0    0    0  501 -0.00000000000E+00  0.00000000000E+00  0.83475524701E+03  0.83475524701E+03  0.00000000000E+00 0.  1.
          2   -1    0    0  501    0  0.00000000000E+00 -0.00000000000E+00 -0.36995111708E+04  0.36995111708E+04  0.00000000000E+00 0. -1.
         23    2    1    2    0    0 -0.99037797818E+03 -0.36993350525E+03  0.27671175918E+03  0.10965765154E+04  0.90616326027E+02 0.  0.
        254    2    1    2    0    0  0.99037797818E+03  0.36993350525E+03 -0.31414676830E+04  0.34376899024E+04  0.91169804424E+03 0.  0.
         23    2    4    4    0    0  0.31719136990E+03 -0.99905531930E+02 -0.19952849728E+04  0.20249239627E+04  0.92538920159E+02 0.  0.
         23    2    4    4    0    0  0.67318660828E+03  0.46983903718E+03 -0.11461827102E+04  0.14127659397E+04  0.90795730798E+02 0.  0.
          2    1    3    3  502    0 -0.68659288713E+03 -0.29689387854E+03  0.21210515231E+03  0.77752450984E+03  0.00000000000E+00 0.  1.
         -2    1    3    3    0  502 -0.30378509105E+03 -0.73039626717E+02  0.64606606870E+02  0.31905200559E+03  0.00000000000E+00 0. -1.
         13    1    5    5    0    0  0.26202634439E+03 -0.75365173353E+02 -0.13794653280E+04  0.14061515942E+04  0.00000000000E+00 0. -1.
        -13    1    5    5    0    0  0.55165025510E+02 -0.24540358576E+02 -0.61581964474E+03  0.61877236855E+03  0.00000000000E+00 0.  1.
          4    1    6    6  503    0  0.53286631046E+02  0.69578156337E+02 -0.13578645409E+03  0.16161233245E+03  0.00000000000E+00 0.  1.
         -4    1    6    6    0  503  0.61989997724E+03  0.40026088085E+03 -0.10103962561E+04  0.12511536072E+04  0.00000000000E+00 0. -1.
<mgrwt>
<rscale>  0 0.35146473E+04</rscale>
<asrwt>0</asrwt>
<pdfrwt beam="1">  1        2 0.56915558E+00 0.35146473E+04</pdfrwt>
<pdfrwt beam="2">  1       -2 0.12842388E+00 0.35146473E+04</pdfrwt>
<totfact> 0.21432248E-01</totfact>
</mgrwt>
</event>
<event>
12    3  0.4192740E-008  0.1376408E+04  0.7818608E-02  0.8971075E-01
          2   -1    0    0  501    0  0.00000000000E+00  0.00000000000E+00  0.37922057759E+03  0.37922057759E+03  0.00000000000E+00 0. -1.
         -2   -1    0    0    0  501 -0.00000000000E+00 -0.00000000000E+00 -0.12489429816E+04  0.12489429816E+04  0.00000000000E+00 0.  1.
         23    2    1    2    0    0 -0.31300653368E+02  0.37822118413E+03 -0.16623149852E+03  0.42501472108E+03  0.94729124418E+02 0.  0.
        254    2    1    2    0    0  0.31300653368E+02 -0.37822118413E+03 -0.70349090552E+03  0.12031488381E+04  0.89924227965E+03 0.  0.
         23    2    4    4    0    0 -0.64732346667E+01 -0.49353156494E+03 -0.85179881387E+03  0.98869067756E+03  0.91283778555E+02 0.  0.
         23    2    4    4    0    0  0.37773888035E+02  0.11531038081E+03  0.14830790835E+03  0.21445816056E+03  0.96300137140E+02 0.  0.
          3    1    3    3  502    0 -0.46790633118E+02  0.25589895238E+03 -0.72269137618E+02  0.26999345442E+03  0.00000000000E+00 0. -1.
         -3    1    3    3    0  502  0.15489979750E+02  0.12232223175E+03 -0.93962360897E+02  0.15502126666E+03  0.00000000000E+00 0.  1.
         13    1    5    5    0    0  0.18104444786E+02 -0.43212387668E+03 -0.77338503796E+03  0.88610565547E+03  0.00000000000E+00 0. -1.
        -13    1    5    5    0    0 -0.24577679453E+02 -0.61407688262E+02 -0.78413775910E+02  0.10258502209E+03  0.00000000000E+00 0.  1.
          2    1    6    6  503    0 -0.16799680990E+02  0.59709226849E+02  0.21535694450E+02  0.65659783641E+02  0.00000000000E+00 0.  1.
         -2    1    6    6    0  503  0.54573569025E+02  0.55601153965E+02  0.12677221390E+03  0.14879837692E+03  0.00000000000E+00 0. -1.
<mgrwt>
<rscale>  0 0.13764082E+04</rscale>
<asrwt>0</asrwt>
<pdfrwt beam="1">  1        2 0.58341627E-01 0.13764082E+04</pdfrwt>
<pdfrwt beam="2">  1       -2 0.19214507E+00 0.13764082E+04</pdfrwt>
<totfact> 0.12333074E+01</totfact>
</mgrwt>
</event>
<event>
12    3  0.4192740E-008  0.2221321E+04  0.7818608E-02  0.8509606E-01
         -1   -1    0    0    0  501 -0.00000000000E+00  0.00000000000E+00  0.14015019261E+04  0.14015019261E+04  0.00000000000E+00 0.  1.
          1   -1    0    0  501    0  0.00000000000E+00 -0.00000000000E+00 -0.88017467455E+03  0.88017467455E+03  0.00000000000E+00 0. -1.
         23    2    1    2    0    0  0.27407989425E+03 -0.74335240656E+03 -0.27761084166E+03  0.84457995526E+03  0.92492878870E+02 0.  0.
        254    2    1    2    0    0 -0.27407989425E+03  0.74335240656E+03  0.79893809317E+03  0.14370966454E+04  0.89400900588E+03 0.  0.
         23    2    4    4    0    0  0.78517382678E+01  0.14449021461E+03  0.74616512659E+03  0.76676576962E+03  0.10113494650E+03 0.  0.
         23    2    4    4    0    0 -0.28193163251E+03  0.59886219196E+03  0.52772966575E+02  0.67033087574E+03  0.91853832773E+02 0.  0.
          2    1    3    3  502    0  0.23620208003E+03 -0.68632697024E+03 -0.27464109714E+03  0.77605661194E+03  0.00000000000E+00 0. -1.
         -2    1    3    3    0  502  0.37877814212E+02 -0.57025436323E+02 -0.29697445183E+01  0.68523343320E+02  0.00000000000E+00 0.  1.
         13    1    5    5    0    0  0.49522258196E+02  0.11525227601E+03  0.51402314270E+03  0.52910805363E+03  0.00000000000E+00 0.  1.
        -13    1    5    5    0    0 -0.41670519928E+02  0.29237938599E+02  0.23214198389E+03  0.23765771599E+03  0.00000000000E+00 0. -1.
          2    1    6    6  503    0 -0.42873224266E+02  0.16294522625E+03  0.39150333415E+02  0.17297979282E+03  0.00000000000E+00 0. -1.
         -2    1    6    6    0  503 -0.23905840825E+03  0.43591696571E+03  0.13622633159E+02  0.49735108292E+03  0.00000000000E+00 0.  1.
<mgrwt>
<rscale>  0 0.22213208E+04</rscale>
<asrwt>0</asrwt>
<pdfrwt beam="1">  1        1 0.13541149E+00 0.22213208E+04</pdfrwt>
<pdfrwt beam="2">  1       -1 0.21561568E+00 0.22213208E+04</pdfrwt>
<totfact> 0.20251596E+00</totfact>
</mgrwt>
</event>
<event>
12    3  0.4192740E-008  0.2299327E+04  0.7818608E-02  0.8478187E-01
          2   -1    0    0  501    0  0.00000000000E+00  0.00000000000E+00  0.17871016064E+04  0.17871016064E+04  0.00000000000E+00 0. -1.
         -2   -1    0    0    0  501 -0.00000000000E+00 -0.00000000000E+00 -0.73959178840E+03  0.73959178840E+03  0.00000000000E+00 0.  1.
         23    2    1    2    0    0  0.27967756542E+03 -0.74381578213E+02 -0.56342321959E+03  0.63931288135E+03  0.86735668050E+02 0.  0.
        254    2    1    2    0    0 -0.27967756542E+03  0.74381578213E+02  0.16109330376E+04  0.18873805134E+04  0.93986583679E+03 0.  0.
         23    2    4    4    0    0 -0.30459310407E+03  0.46457447154E+03  0.74616157456E+03  0.93387569811E+03  0.82221198737E+02 0.  0.
         23    2    4    4    0    0  0.24915538654E+02 -0.39019289333E+03  0.86477146302E+03  0.95350481532E+03  0.92035164613E+02 0.  0.
          4    1    3    3  502    0  0.15342728960E+03 -0.73809909969E+02 -0.26133274012E+03  0.31190164646E+03  0.00000000000E+00 0. -1.
         -4    1    3    3    0  502  0.12625027582E+03 -0.57166824414E+00 -0.30209047947E+03  0.32741123490E+03  0.00000000000E+00 0.  1.
         13    1    5    5    0    0 -0.14456564454E+03  0.27579933312E+03  0.36984252629E+03  0.48347491350E+03  0.00000000000E+00 0. -1.
        -13    1    5    5    0    0 -0.16002745953E+03  0.18877513842E+03  0.37631904827E+03  0.45040078461E+03  0.00000000000E+00 0.  1.
          3    1    6    6  503    0  0.18481642284E+02 -0.25761087719E+03  0.66758545949E+03  0.71580394025E+03  0.00000000000E+00 0. -1.
         -3    1    6    6    0  503  0.64338963696E+01 -0.13258201614E+03  0.19718600353E+03  0.23770087508E+03  0.00000000000E+00 0.  1.
<mgrwt>
<rscale>  0 0.22993266E+04</rscale>
<asrwt>0</asrwt>
<pdfrwt beam="1">  1        2 0.27493871E+00 0.22993266E+04</pdfrwt>
<pdfrwt beam="2">  1       -2 0.11378335E+00 0.22993266E+04</pdfrwt>
<totfact> 0.48134436E+00</totfact>
</mgrwt>
</event>
<event>
12    3  0.4192740E-008  0.1499877E+04  0.7818608E-02  0.8884535E-01
          1   -1    0    0  501    0  0.00000000000E+00  0.00000000000E+00  0.14076559868E+04  0.14076559868E+04  0.00000000000E+00 0. -1.
         -1   -1    0    0    0  501 -0.00000000000E+00 -0.00000000000E+00 -0.39953469692E+03  0.39953469692E+03  0.00000000000E+00 0.  1.
         23    2    1    2    0    0  0.16311990699E+03 -0.44504642624E+03  0.23081299810E+03  0.53493992469E+03  0.90618195577E+02 0.  0.
        254    2    1    2    0    0 -0.16311990699E+03  0.44504642624E+03  0.77730829177E+03  0.12722507590E+04  0.88867282381E+03 0.  0.
         23    2    4    4    0    0 -0.28942906040E+03 -0.14539942955E+03  0.49836449631E+03  0.60102052424E+03  0.89153374906E+02 0.  0.
         23    2    4    4    0    0  0.12630915341E+03  0.59044585579E+03  0.27894379546E+03  0.67123023477E+03  0.90333140060E+02 0.  0.
          1    1    3    3  502    0  0.76404109363E+02 -0.32813389846E+03  0.16638750888E+03  0.37575822859E+03  0.00000000000E+00 0. -1.
         -1    1    3    3    0  502  0.86715797631E+02 -0.11691252779E+03  0.64425489221E+02  0.15918169610E+03  0.00000000000E+00 0.  1.
         13    1    5    5    0    0 -0.19943565217E+03 -0.12902122145E+03  0.41000981147E+03  0.47384501733E+03  0.00000000000E+00 0.  1.
        -13    1    5    5    0    0 -0.89993408235E+02 -0.16378208099E+02  0.88354684832E+02  0.12717550691E+03  0.00000000000E+00 0. -1.
          3    1    6    6  503    0  0.12801042853E+03  0.42280748940E+03  0.18384869160E+03  0.47849052687E+03  0.00000000000E+00 0. -1.
         -3    1    6    6    0  503 -0.17012751177E+01  0.16763836639E+03  0.95095103867E+02  0.19273970791E+03  0.00000000000E+00 0.  1.
<mgrwt>
<rscale>  0 0.14998765E+04</rscale>
<asrwt>0</asrwt>
<pdfrwt beam="1">  1        1 0.21656246E+00 0.14998765E+04</pdfrwt>
<pdfrwt beam="2">  1       -1 0.61466877E-01 0.14998765E+04</pdfrwt>
<totfact> 0.19704507E+01</totfact>
</mgrwt>
</event>
<event>
12    3  0.4192740E-008  0.1514955E+04  0.7818608E-02  0.8874568E-01
         -1   -1    0    0    0  501 -0.00000000000E+00  0.00000000000E+00  0.27306734358E+03  0.27306734358E+03  0.00000000000E+00 0.  1.
          1   -1    0    0  501    0  0.00000000000E+00 -0.00000000000E+00 -0.21012112554E+04  0.21012112554E+04  0.00000000000E+00 0. -1.
         23    2    1    2    0    0 -0.34835326947E+03 -0.32635716772E+03 -0.66631995204E+03  0.82459871186E+03  0.90120784799E+02 0.  0.
        254    2    1    2    0    0  0.34835326947E+03  0.32635716772E+03 -0.11618239598E+04  0.15496798871E+04  0.90764191053E+03 0.  0.
         23    2    4    4    0    0 -0.20735061116E+03  0.37564597659E+03 -0.35458991281E+03  0.56413496267E+03  0.91706456516E+02 0.  0.
         23    2    4    4    0    0  0.55570388062E+03 -0.49288808873E+02 -0.80723404697E+03  0.98554492444E+03  0.91846621551E+02 0.  0.
          3    1    3    3  502    0 -0.21507307610E+03 -0.17970194315E+03 -0.45899786073E+03  0.53779945387E+03  0.00000000000E+00 0. -1.
         -3    1    3    3    0  502 -0.13328019337E+03 -0.14665522457E+03 -0.20732209131E+03  0.28679925799E+03  0.00000000000E+00 0.  1.
         13    1    5    5    0    0 -0.21595902249E+02  0.11279689813E+03 -0.11809580829E+03  0.16473051678E+03  0.00000000000E+00 0. -1.
        -13    1    5    5    0    0 -0.18575470891E+03  0.26284907846E+03 -0.23649410452E+03  0.39940444590E+03  0.00000000000E+00 0.  1.
          4    1    6    6  503    0  0.37809292228E+03 -0.71835411631E+02 -0.51671684302E+03  0.64429099024E+03  0.00000000000E+00 0. -1.
         -4    1    6    6    0  503  0.17761095834E+03  0.22546602757E+02 -0.29051720395E+03  0.34125393420E+03  0.00000000000E+00 0.  1.
<mgrwt>
<rscale>  0 0.15149550E+04</rscale>
<asrwt>0</asrwt>
<pdfrwt beam="1">  1        1 0.32326328E+00 0.15149550E+04</pdfrwt>
<pdfrwt beam="2">  1       -1 0.42010359E-01 0.15149550E+04</pdfrwt>
<totfact> 0.13688878E+01</totfact>
</mgrwt>
</event>
<event>
12    3  0.4192740E-008  0.1888301E+04  0.7818608E-02  0.8660701E-01
         -1   -1    0    0    0  501 -0.00000000000E+00  0.00000000000E+00  0.26356150712E+04  0.26356150712E+04  0.00000000000E+00 0.  1.
          1   -1    0    0  501    0  0.00000000000E+00 -0.00000000000E+00 -0.33822108626E+03  0.33822108626E+03  0.00000000000E+00 0. -1.
         23    2    1    2    0    0 -0.68956480215E+03  0.23226542783E+03  0.72992120341E+03  0.10348566560E+04  0.93254972601E+02 0.  0.
        254    2    1    2    0    0  0.68956480215E+03 -0.23226542783E+03  0.15674727815E+04  0.19389795014E+04  0.87933141702E+03 0.  0.
         23    2    4    4    0    0  0.79434623776E+03 -0.37633590767E+03  0.98131355161E+03  0.13205263131E+04  0.90547204616E+02 0.  0.
         23    2    4    4    0    0 -0.10478143561E+03  0.14407047983E+03  0.58615922988E+03  0.61845318831E+03  0.84653711952E+02 0.  0.
          3    1    3    3  502    0 -0.46463095185E+03  0.11151793098E+03  0.45811170203E+03  0.66195506032E+03  0.00000000000E+00 0. -1.
         -3    1    3    3    0  502 -0.22493385030E+03  0.12074749686E+03  0.27180950138E+03  0.37290159566E+03  0.00000000000E+00 0.  1.
         13    1    5    5    0    0  0.30613760240E+03 -0.11799841364E+03  0.31228819159E+03  0.45295449201E+03  0.00000000000E+00 0. -1.
        -13    1    5    5    0    0  0.48820863536E+03 -0.25833749402E+03  0.66902536002E+03  0.86757182112E+03  0.00000000000E+00 0.  1.
          3    1    6    6  503    0 -0.66563205980E+02  0.60007074709E+02  0.40864648758E+03  0.41835805385E+03  0.00000000000E+00 0. -1.
         -3    1    6    6    0  503 -0.38218229627E+02  0.84063405121E+02  0.17751274230E+03  0.20009513446E+03  0.00000000000E+00 0.  1.
<mgrwt>
<rscale>  0 0.18883015E+04</rscale>
<asrwt>0</asrwt>
<pdfrwt beam="1">  1        1 0.52034015E-01 0.18883015E+04</pdfrwt>
<pdfrwt beam="2">  1       -1 0.40547923E+00 0.18883015E+04</pdfrwt>
<totfact> 0.46154994E-01</totfact>
</mgrwt>
</event>
<event>
12    3  0.4192740E-008  0.1441987E+04  0.7818608E-02  0.8923975E-01
         -4   -1    0    0    0  501 -0.00000000000E+00  0.00000000000E+00  0.31048738562E+03  0.31048738562E+03  0.00000000000E+00 0.  1.
          4   -1    0    0  501    0  0.00000000000E+00 -0.00000000000E+00 -0.16742434801E+04  0.16742434801E+04  0.00000000000E+00 0. -1.
         23    2    1    2    0    0  0.15731971523E+03 -0.10324481918E+02  0.13785159667E+03  0.22836487034E+03  0.91056924905E+02 0.  0.
        254    2    1    2    0    0 -0.15731971523E+03  0.10324481918E+02 -0.15016076911E+04  0.17563659954E+04  0.89729580625E+03 0.  0.
         23    2    4    4    0    0  0.11479924432E+03  0.39621395585E+03 -0.82407062303E+03  0.92598431888E+03  0.90499733492E+02 0.  0.
         23    2    4    4    0    0 -0.27211895954E+03 -0.38588947394E+03 -0.67753706811E+03  0.83038167650E+03  0.86705454071E+02 0.  0.
          1    1    3    3  502    0  0.62035844037E+02  0.31948927784E+02  0.89415410098E+02  0.11342087768E+03  0.00000000000E+00 0. -1.
         -1    1    3    3    0  502  0.95283871191E+02 -0.42273409702E+02  0.48436186571E+02  0.11494399265E+03  0.00000000000E+00 0.  1.
         13    1    5    5    0    0  0.31533336304E+02  0.23617534230E+03 -0.40787680984E+03  0.47237340697E+03  0.00000000000E+00 0. -1.
        -13    1    5    5    0    0  0.83265908012E+02  0.16003861356E+03 -0.41619381319E+03  0.45361091191E+03  0.00000000000E+00 0.  1.
          1    1    6    6  503    0 -0.25707206764E+03 -0.33985127893E+03 -0.56347742517E+03  0.70646425842E+03  0.00000000000E+00 0. -1.
         -1    1    6    6    0  503 -0.15046891898E+02 -0.46038195007E+02 -0.11405964294E+03  0.12391741807E+03  0.00000000000E+00 0.  1.
<mgrwt>
<rscale>  0 0.14419868E+04</rscale>
<asrwt>0</asrwt>
<pdfrwt beam="1">  1        4 0.25757592E+00 0.14419868E+04</pdfrwt>
<pdfrwt beam="2">  1       -4 0.47767291E-01 0.14419868E+04</pdfrwt>
<totfact> 0.46813611E-01</totfact>
</mgrwt>
</event>
<event>
12    3  0.4192740E-008  0.2440215E+04  0.7818608E-02  0.8424599E-01
          1   -1    0    0  501    0  0.00000000000E+00  0.00000000000E+00  0.11596653815E+04  0.11596653815E+04  0.00000000000E+00 0. -1.
         -1   -1    0    0    0  501 -0.00000000000E+00 -0.00000000000E+00 -0.12836997819E+04  0.12836997819E+04  0.00000000000E+00 0.  1.
         23    2    1    2    0    0 -0.74777943207E+03 -0.35383386769E+03  0.59889282725E+03  0.10258589149E+04  0.96650968669E+02 0.  0.
        254    2    1    2    0    0  0.74777943207E+03  0.35383386769E+03 -0.72292722769E+03  0.14175062485E+04  0.89572747137E+03 0.  0.
         23    2    4    4    0    0  0.43159699801E+03 -0.17877187701E+03 -0.21368246157E+02  0.47758007838E+03  0.96906019526E+02 0.  0.
         23    2    4    4    0    0  0.31618243406E+03  0.53260574470E+03 -0.70155898153E+03  0.93992617009E+03  0.87384150457E+02 0.  0.
          3    1    3    3  502    0 -0.58653332103E+03 -0.28554530607E+03  0.51785920307E+03  0.83290792570E+03  0.00000000000E+00 0. -1.
         -3    1    3    3    0  502 -0.16124611104E+03 -0.68288561621E+02  0.81033624177E+02  0.19295098917E+03  0.00000000000E+00 0.  1.
         13    1    5    5    0    0  0.26405882781E+00 -0.40836897851E+01 -0.11396355727E+02  0.12108805605E+02  0.00000000000E+00 0. -1.
        -13    1    5    5    0    0  0.43133293918E+03 -0.17468818723E+03 -0.99718904295E+01  0.46547127277E+03  0.00000000000E+00 0.  1.
          1    1    6    6  503    0  0.10178082624E+03  0.11860037186E+03 -0.13783005775E+03  0.20838068436E+03  0.00000000000E+00 0. -1.
         -1    1    6    6    0  503  0.21440160782E+03  0.41400537284E+03 -0.56372892379E+03  0.73154548573E+03  0.00000000000E+00 0.  1.
<mgrwt>
<rscale>  0 0.24402149E+04</rscale>
<asrwt>0</asrwt>
<pdfrwt beam="1">  1        1 0.17841006E+00 0.24402149E+04</pdfrwt>
<pdfrwt beam="2">  1       -1 0.19749227E+00 0.24402149E+04</pdfrwt>
<totfact> 0.16005496E+00</totfact>
</mgrwt>
</event>
<event>
12    3  0.4192740E-008  0.1843945E+04  0.7818608E-02  0.8683273E-01
          1   -1    0    0  501    0  0.00000000000E+00  0.00000000000E+00  0.20736787406E+04  0.20736787406E+04  0.00000000000E+00 0. -1.
         -1   -1    0    0    0  501 -0.00000000000E+00 -0.00000000000E+00 -0.40991570644E+03  0.40991570644E+03  0.00000000000E+00 0.  1.
         23    2    1    2    0    0  0.38566891060E+02 -0.69053389489E+03  0.51703124968E+03  0.86809113373E+03  0.89086689511E+02 0.  0.
        254    2    1    2    0    0 -0.38566891060E+02  0.69053389489E+03  0.11467317845E+04  0.16155033133E+04  0.90362199216E+03 0.  0.
         23    2    4    4    0    0  0.64890931340E+02  0.72799493247E+03  0.36733198431E+03  0.82304134336E+03  0.90976983372E+02 0.  0.
         23    2    4    4    0    0 -0.10345782240E+03 -0.37461037589E+02  0.77939980015E+03  0.79246196994E+03  0.91788207133E+02 0.  0.
          1    1    3    3  502    0  0.28261885586E+02 -0.14368648014E+03  0.14859527989E+03  0.20862669043E+03  0.00000000000E+00 0. -1.
         -1    1    3    3    0  502  0.10305005473E+02 -0.54684741475E+03  0.36843596979E+03  0.65946444331E+03  0.00000000000E+00 0.  1.
         13    1    5    5    0    0  0.56795573490E+01  0.13683798084E+03  0.10969058746E+03  0.17546770457E+03  0.00000000000E+00 0.  1.
        -13    1    5    5    0    0  0.59211373991E+02  0.59115695164E+03  0.25764139685E+03  0.64757363879E+03  0.00000000000E+00 0. -1.
          3    1    6    6  503    0 -0.75089592638E+02 -0.55544578235E+02  0.70035976962E+03  0.70656029750E+03  0.00000000000E+00 0. -1.
         -3    1    6    6    0  503 -0.28368229761E+02  0.18083540646E+02  0.79040030530E+02  0.85901672442E+02  0.00000000000E+00 0.  1.
<mgrwt>
<rscale>  0 0.18439452E+04</rscale>
<asrwt>0</asrwt>
<pdfrwt beam="1">  1        1 0.31902749E+00 0.18439452E+04</pdfrwt>
<pdfrwt beam="2">  1       -1 0.63063956E-01 0.18439452E+04</pdfrwt>
<totfact> 0.63675840E+00</totfact>
</mgrwt>
</event>
<event>
12    3  0.4192740E-008  0.1545794E+04  0.7818608E-02  0.8854559E-01
          2   -1    0    0  501    0  0.00000000000E+00  0.00000000000E+00  0.31942676008E+04  0.31942676008E+04  0.00000000000E+00 0. -1.
         -2   -1    0    0    0  501 -0.00000000000E+00 -0.00000000000E+00 -0.18701306079E+03  0.18701306079E+03  0.00000000000E+00 0.  1.
         23    2    1    2    0    0 -0.11320280425E+03 -0.29566103298E+03  0.18282177628E+04  0.18577015532E+04  0.91894238432E+02 0.  0.
        254    2    1    2    0    0  0.11320280425E+03  0.29566103298E+03  0.11790367771E+04  0.15235791084E+04  0.91155650197E+03 0.  0.
         23    2    4    4    0    0  0.36534620377E+03  0.50044383403E+03  0.80771813568E+03  0.10221656194E+04  0.92152521525E+02 0.  0.
         23    2    4    4    0    0 -0.25214339952E+03 -0.20478280105E+03  0.37131864145E+03  0.50141348892E+03  0.89586069565E+02 0.  0.
          1    1    3    3  502    0 -0.71920889817E+02 -0.20647121907E+03  0.99688449572E+03  0.10205790888E+04  0.00000000000E+00 0. -1.
         -1    1    3    3    0  502 -0.41281914434E+02 -0.89189813915E+02  0.83133326712E+03  0.83712246439E+03  0.00000000000E+00 0.  1.
         13    1    5    5    0    0  0.59602698138E+02  0.14350874281E+03  0.17574567835E+03  0.23459280540E+03  0.00000000000E+00 0. -1.
        -13    1    5    5    0    0  0.30574350563E+03  0.35693509122E+03  0.63197245733E+03  0.78757281403E+03  0.00000000000E+00 0.  1.
          1    1    6    6  503    0 -0.38184164859E+01 -0.32195782745E+02  0.54646313062E+02  0.63540288498E+02  0.00000000000E+00 0. -1.
         -1    1    6    6    0  503 -0.24832498303E+03 -0.17258701830E+03  0.31667232839E+03  0.43787320042E+03  0.00000000000E+00 0.  1.
<mgrwt>
<rscale>  0 0.15457940E+04</rscale>
<asrwt>0</asrwt>
<pdfrwt beam="1">  1        2 0.49142574E+00 0.15457940E+04</pdfrwt>
<pdfrwt beam="2">  1       -2 0.28771243E-01 0.15457940E+04</pdfrwt>
<totfact> 0.14085094E+01</totfact>
</mgrwt>
</event>
<event>
12    3  0.4192740E-008  0.1868368E+04  0.7818608E-02  0.8670764E-01
          3   -1    0    0  501    0  0.00000000000E+00  0.00000000000E+00  0.46338991023E+03  0.46338991023E+03  0.00000000000E+00 0. -1.
         -3   -1    0    0    0  501 -0.00000000000E+00 -0.00000000000E+00 -0.18832947986E+04  0.18832947986E+04  0.00000000000E+00 0.  1.
         23    2    1    2    0    0  0.24777074264E+03 -0.37860846296E+03 -0.12458359143E+04  0.13286485318E+04  0.92005904746E+02 0.  0.
        254    2    1    2    0    0 -0.24777074264E+03  0.37860846296E+03 -0.17406897401E+03  0.10180361770E+04  0.89518877384E+03 0.  0.
         23    2    4    4    0    0 -0.37250498016E+03  0.59588664030E+03 -0.20817902343E+02  0.70990147840E+03  0.98416846328E+02 0.  0.
         23    2    4    4    0    0  0.12473423752E+03 -0.21727817733E+03 -0.15325107167E+03  0.30813469859E+03  0.93234463340E+02 0.  0.
          4    1    3    3  502    0  0.14815480070E+02 -0.17923382574E+01 -0.18269351561E+02  0.23589831127E+02  0.00000000000E+00 0. -1.
         -4    1    3    3    0  502  0.23295526257E+03 -0.37681612471E+03 -0.12275665628E+04  0.13050587007E+04  0.00000000000E+00 0.  1.
         13    1    5    5    0    0 -0.15092997945E+02  0.59088193825E+02  0.18711186154E+02  0.63791235477E+02  0.00000000000E+00 0. -1.
        -13    1    5    5    0    0 -0.35741198222E+03  0.53679844647E+03 -0.39529088497E+02  0.64611024292E+03  0.00000000000E+00 0.  1.
          1    1    6    6  503    0 -0.88087097563E+00  0.87176807165E+01 -0.50146319217E+01  0.10095564574E+02  0.00000000000E+00 0. -1.
         -1    1    6    6    0  503  0.12561510850E+03 -0.22599585805E+03 -0.14823643974E+03  0.29803913402E+03  0.00000000000E+00 0.  1.
<mgrwt>
<rscale>  0 0.18683681E+04</rscale>
<asrwt>0</asrwt>
<pdfrwt beam="1">  1        3 0.71290754E-01 0.18683681E+04</pdfrwt>
<pdfrwt beam="2">  1       -3 0.28973767E+00 0.18683681E+04</pdfrwt>
<totfact> 0.20014111E-01</totfact>
</mgrwt>
</event>
<event>
12    3  0.4192740E-008  0.2004693E+04  0.7818608E-02  0.8604430E-01
          2   -1    0    0  501    0  0.00000000000E+00  0.00000000000E+00  0.30164770130E+04  0.30164770130E+04  0.00000000000E+00 0. -1.
         -2   -1    0    0    0  501 -0.00000000000E+00 -0.00000000000E+00 -0.33307011098E+03  0.33307011098E+03  0.00000000000E+00 0.  1.
         23    2    1    2    0    0  0.53909130308E+03  0.38727104139E+03  0.30676783372E+03  0.73687607064E+03  0.91003006133E+02 0.  0.
        254    2    1    2    0    0 -0.53909130308E+03 -0.38727104139E+03  0.23766390683E+04  0.26126710534E+04  0.85850945215E+03 0.  0.
         23    2    4    4    0    0  0.28749311529E+02  0.97040593729E+02  0.19736078748E+02  0.13877967851E+03  0.92881034754E+02 0.  0.
         23    2    4    4    0    0 -0.56784061461E+03 -0.48431163511E+03  0.23569029896E+04  0.24738913749E+04  0.90255796508E+02 0.  0.
          2    1    3    3  502    0  0.25422512483E+03  0.19562432032E+03  0.99615479657E+02  0.33589065570E+03  0.00000000000E+00 0. -1.
         -2    1    3    3    0  502  0.28486617825E+03  0.19164672107E+03  0.20715235406E+03  0.40098541494E+03  0.00000000000E+00 0.  1.
         13    1    5    5    0    0 -0.25828541171E+02  0.54204075281E+02 -0.13966449085E+02  0.61646224671E+02  0.00000000000E+00 0.  1.
        -13    1    5    5    0    0  0.54577852700E+02  0.42836518448E+02  0.33702527833E+02  0.77133453834E+02  0.00000000000E+00 0. -1.
          2    1    6    6  503    0 -0.25889618550E+03 -0.27453225103E+03  0.11216353352E+04  0.11834107557E+04  0.00000000000E+00 0.  1.
         -2    1    6    6    0  503 -0.30894442911E+03 -0.20977938408E+03  0.12352676544E+04  0.12904806191E+04  0.00000000000E+00 0. -1.
<mgrwt>
<rscale>  0 0.20046928E+04</rscale>
<asrwt>0</asrwt>
<pdfrwt beam="1">  1        2 0.46407337E+00 0.20046928E+04</pdfrwt>
<pdfrwt beam="2">  1       -2 0.51241557E-01 0.20046928E+04</pdfrwt>
<totfact> 0.56962738E+00</totfact>
</mgrwt>
</event>
<event>
12    3  0.4192740E-008  0.1545718E+04  0.7818608E-02  0.8854607E-01
          2   -1    0    0  501    0  0.00000000000E+00  0.00000000000E+00  0.19600866360E+04  0.19600866360E+04  0.00000000000E+00 0.  1.
         -2   -1    0    0    0  501 -0.00000000000E+00 -0.00000000000E+00 -0.30473719663E+03  0.30473719663E+03  0.00000000000E+00 0. -1.
         23    2    1    2    0    0 -0.12202385700E+03 -0.29849050646E+03  0.36324539825E+02  0.33688925038E+03  0.90490279624E+02 0.  0.
        254    2    1    2    0    0  0.12202385700E+03  0.29849050646E+03  0.16190248996E+04  0.19279345823E+04  0.99584322260E+03 0.  0.
         23    2    4    4    0    0 -0.12396610640E+03 -0.24788383300E+03  0.10736133757E+04  0.11125233478E+04  0.90821411186E+02 0.  0.
         23    2    4    4    0    0  0.24598996340E+03  0.54637433945E+03  0.54541152384E+03  0.81541123445E+03  0.91573850117E+02 0.  0.
          4    1    3    3  502    0 -0.95967302855E+02 -0.22540799142E+03 -0.12347990253E+02  0.24529769399E+03  0.00000000000E+00 0. -1.
         -4    1    3    3    0  502 -0.26056554145E+02 -0.73082515039E+02  0.48672530078E+02  0.91591556393E+02  0.00000000000E+00 0.  1.
         13    1    5    5    0    0 -0.10278583530E+03 -0.14061261647E+03  0.52558372196E+03  0.55369222916E+03  0.00000000000E+00 0. -1.
        -13    1    5    5    0    0 -0.21180271093E+02 -0.10727121653E+03  0.54802965377E+03  0.55883111866E+03  0.00000000000E+00 0.  1.
          3    1    6    6  503    0  0.13522064265E+03  0.35367591877E+03  0.39414485818E+03  0.54655415738E+03  0.00000000000E+00 0. -1.
         -3    1    6    6    0  503  0.11076932074E+03  0.19269842069E+03  0.15126666566E+03  0.26885707708E+03  0.00000000000E+00 0.  1.
<mgrwt>
<rscale>  0 0.15457184E+04</rscale>
<asrwt>0</asrwt>
<pdfrwt beam="1">  1        2 0.30155178E+00 0.15457184E+04</pdfrwt>
<pdfrwt beam="2">  1       -2 0.46882647E-01 0.15457184E+04</pdfrwt>
<totfact> 0.29206185E+01</totfact>
</mgrwt>
</event>
<event>
12    3  0.4192740E-008  0.2196954E+04  0.7818608E-02  0.8519697E-01
          2   -1    0    0  501    0  0.00000000000E+00  0.00000000000E+00  0.22537078849E+04  0.22537078849E+04  0.00000000000E+00 0.  1.
         -2   -1    0    0    0  501 -0.00000000000E+00 -0.00000000000E+00 -0.53540716380E+03  0.53540716380E+03  0.00000000000E+00 0. -1.
         23    2    1    2    0    0  0.18475578081E+03 -0.13251790419E+03 -0.40263000591E+03  0.47114445734E+03  0.90390732655E+02 0.  0.
        254    2    1    2    0    0 -0.18475578081E+03  0.13251790419E+03  0.21209307270E+04  0.23179705913E+04  0.90716306153E+03 0.  0.
         23    2    4    4    0    0  0.30397011672E+03  0.24754122133E+03  0.11939479852E+04  0.12600180266E+04  0.91973625193E+02 0.  0.
         23    2    4    4    0    0 -0.48872589754E+03 -0.11502331714E+03  0.92698274174E+03  0.10579525648E+04  0.88787720945E+02 0.  0.
          2    1    3    3  502    0  0.16906339489E+03 -0.10981307006E+03 -0.39339253605E+03  0.44203962409E+03  0.00000000000E+00 0. -1.
         -2    1    3    3    0  502  0.15692385926E+02 -0.22704834134E+02 -0.92374698571E+01  0.29104833249E+02  0.00000000000E+00 0.  1.
         13    1    5    5    0    0  0.27963821707E+03  0.25320447740E+03  0.11044624786E+04  0.11671107088E+04  0.00000000000E+00 0.  1.
        -13    1    5    5    0    0  0.24331899652E+02 -0.56632560658E+01  0.89485506574E+02  0.92907317778E+02  0.00000000000E+00 0. -1.
          1    1    6    6  503    0 -0.30890085480E+03 -0.49927624049E+02  0.64954658300E+03  0.72098770393E+03  0.00000000000E+00 0. -1.
         -1    1    6    6    0  503 -0.17982504274E+03 -0.65095693092E+02  0.27743615874E+03  0.33696486083E+03  0.00000000000E+00 0.  1.
<mgrwt>
<rscale>  0 0.21969537E+04</rscale>
<asrwt>0</asrwt>
<pdfrwt beam="1">  1        2 0.34672428E+00 0.21969537E+04</pdfrwt>
<pdfrwt beam="2">  1       -2 0.82370334E-01 0.21969537E+04</pdfrwt>
<totfact> 0.56972552E+00</totfact>
</mgrwt>
</event>
<event>
12    3  0.4192740E-008  0.1998203E+04  0.7818608E-02  0.8607461E-01
         -1   -1    0    0    0  501 -0.00000000000E+00  0.00000000000E+00  0.74366279318E+03  0.74366279318E+03  0.00000000000E+00 0.  1.
          1   -1    0    0  501    0  0.00000000000E+00 -0.00000000000E+00 -0.13422797918E+04  0.13422797918E+04  0.00000000000E+00 0. -1.
         23    2    1    2    0    0  0.31548051259E+03  0.19759378180E+03 -0.96789259257E+03  0.10412338845E+04  0.93705255935E+02 0.  0.
        254    2    1    2    0    0 -0.31548051259E+03 -0.19759378180E+03  0.36927559396E+03  0.10447087005E+04  0.90359313200E+03 0.  0.
         23    2    4    4    0    0  0.22279785332E+03 -0.17433846257E+03  0.39959863405E+03  0.49768009604E+03  0.89295166076E+02 0.  0.
         23    2    4    4    0    0 -0.53827836591E+03 -0.23255319230E+02 -0.30323040091E+02  0.54702860447E+03  0.89645960723E+02 0.  0.
          1    1    3    3  502    0  0.23427492917E+03  0.15748285996E+03 -0.82594740069E+03  0.87285434199E+03  0.00000000000E+00 0. -1.
         -1    1    3    3    0  502  0.81205583417E+02  0.40110921843E+02 -0.14194519187E+03  0.16837954248E+03  0.00000000000E+00 0.  1.
         13    1    5    5    0    0  0.82536230248E+02 -0.25995103764E+02  0.16777957725E+03  0.18878019299E+03  0.00000000000E+00 0.  1.
        -13    1    5    5    0    0  0.14026162307E+03 -0.14834335880E+03  0.23181905680E+03  0.30889990305E+03  0.00000000000E+00 0. -1.
          4    1    6    6  503    0 -0.11691581189E+03 -0.25767686660E+02  0.24208189757E+02  0.12214465685E+03  0.00000000000E+00 0.  1.
         -4    1    6    6    0  503 -0.42136255402E+03  0.25123674299E+01 -0.54531229848E+02  0.42488394763E+03  0.00000000000E+00 0. -1.
<mgrwt>
<rscale>  0 0.19982027E+04</rscale>
<asrwt>0</asrwt>
<pdfrwt beam="1">  1        1 0.20650458E+00 0.19982027E+04</pdfrwt>
<pdfrwt beam="2">  1       -1 0.11440966E+00 0.19982027E+04</pdfrwt>
<totfact> 0.54414745E+00</totfact>
</mgrwt>
</event>
<event>
12    3  0.4192740E-008  0.1953933E+04  0.7818608E-02  0.8628467E-01
         -1   -1    0    0    0  501 -0.00000000000E+00  0.00000000000E+00  0.54374583867E+03  0.54374583867E+03  0.00000000000E+00 0.  1.
          1   -1    0    0  501    0  0.00000000000E+00 -0.00000000000E+00 -0.17553482280E+04  0.17553482280E+04  0.00000000000E+00 0. -1.
         23    2    1    2    0    0  0.74745785040E+03 -0.18932653403E+03 -0.45985831797E+03  0.90223365222E+03  0.89543933286E+02 0.  0.
        254    2    1    2    0    0 -0.74745785040E+03  0.18932653403E+03 -0.75174407140E+03  0.13968604145E+04  0.88969775432E+03 0.  0.
         23    2    4    4    0    0 -0.18455470166E+03  0.40904457784E+03 -0.62131025651E+03  0.77190435555E+03  0.91825893468E+02 0.  0.
         23    2    4    4    0    0 -0.56290314874E+03 -0.21971804380E+03 -0.13043381489E+03  0.62495605893E+03  0.91766670930E+02 0.  0.
          3    1    3    3  502    0  0.71024796192E+03 -0.16257175649E+03 -0.41710733242E+03  0.83955956916E+03  0.00000000000E+00 0. -1.
         -3    1    3    3    0  502  0.37209888484E+02 -0.26754777538E+02 -0.42750985552E+02  0.62674083063E+02  0.00000000000E+00 0.  1.
         13    1    5    5    0    0 -0.19313169078E+03  0.36424782843E+03 -0.56532147972E+03  0.69968900659E+03  0.00000000000E+00 0. -1.
        -13    1    5    5    0    0  0.85769891264E+01  0.44796749408E+02 -0.55988776784E+02  0.72215348962E+02  0.00000000000E+00 0.  1.
          1    1    6    6  503    0 -0.20660053799E+03 -0.11538456881E+03 -0.19338877203E+02  0.23742656379E+03  0.00000000000E+00 0. -1.
         -1    1    6    6    0  503 -0.35630261075E+03 -0.10433347499E+03 -0.11109493769E+03  0.38752949515E+03  0.00000000000E+00 0.  1.
<mgrwt>
<rscale>  0 0.19539327E+04</rscale>
<asrwt>0</asrwt>
<pdfrwt beam="1">  1        1 0.27005358E+00 0.19539327E+04</pdfrwt>
<pdfrwt beam="2">  1       -1 0.83653204E-01 0.19539327E+04</pdfrwt>
<totfact> 0.57666986E+00</totfact>
</mgrwt>
</event>
<event>
12    3  0.4192740E-008  0.2245861E+04  0.7818608E-02  0.8499579E-01
          2   -1    0    0  501    0  0.00000000000E+00  0.00000000000E+00  0.13458798318E+04  0.13458798318E+04  0.00000000000E+00 0. -1.
         -2   -1    0    0    0  501 -0.00000000000E+00 -0.00000000000E+00 -0.93691317901E+03  0.93691317901E+03  0.00000000000E+00 0.  1.
         23    2    1    2    0    0  0.47741053871E+03  0.74347594171E+03  0.42882182413E+03  0.98635790536E+03  0.91304229076E+02 0.  0.
        254    2    1    2    0    0 -0.47741053871E+03 -0.74347594171E+03 -0.19855171351E+02  0.12964351054E+04  0.94851065170E+03 0.  0.
         23    2    4    4    0    0 -0.13181294306E+03 -0.11921530323E+03 -0.42584231952E+03  0.47045236410E+03  0.91634083765E+02 0.  0.
         23    2    4    4    0    0 -0.34559759566E+03 -0.62426063848E+03  0.40598714817E+03  0.82598274134E+03  0.91010338054E+02 0.  0.
          4    1    3    3  502    0  0.40640484989E+03  0.66367052425E+03  0.34839298372E+03  0.85264361715E+03  0.00000000000E+00 0. -1.
         -4    1    3    3    0  502  0.71005688829E+02  0.79805417462E+02  0.80428840407E+02  0.13371428821E+03  0.00000000000E+00 0.  1.
         13    1    5    5    0    0 -0.87364074096E+02 -0.23960911242E+02 -0.14964784300E+03  0.17493165416E+03  0.00000000000E+00 0.  1.
        -13    1    5    5    0    0 -0.44448868961E+02 -0.95254391992E+02 -0.27619447652E+03  0.29552070994E+03  0.00000000000E+00 0. -1.
          2    1    6    6  503    0 -0.30130110249E+02 -0.16076824718E+02  0.17525545758E+02  0.38385317385E+02  0.00000000000E+00 0. -1.
         -2    1    6    6    0  503 -0.31546748541E+03 -0.60818381376E+03  0.38846160241E+03  0.78759742395E+03  0.00000000000E+00 0.  1.
<mgrwt>
<rscale>  0 0.22458607E+04</rscale>
<asrwt>0</asrwt>
<pdfrwt beam="1">  1        2 0.20705844E+00 0.22458607E+04</pdfrwt>
<pdfrwt beam="2">  1       -2 0.14414049E+00 0.22458607E+04</pdfrwt>
<totfact> 0.47127909E+00</totfact>
</mgrwt>
</event>
<event>
12    3  0.4192740E-008  0.1913461E+04  0.7818608E-02  0.8648185E-01
         -1   -1    0    0    0  501 -0.00000000000E+00  0.00000000000E+00  0.47617040781E+03  0.47617040781E+03  0.00000000000E+00 0.  1.
          1   -1    0    0  501    0  0.00000000000E+00 -0.00000000000E+00 -0.19222816993E+04  0.19222816993E+04  0.00000000000E+00 0. -1.
         23    2    1    2    0    0  0.21464552896E+03 -0.17773587088E+03 -0.14269642065E+04  0.14567277537E+04  0.90366802216E+02 0.  0.
        254    2    1    2    0    0 -0.21464552896E+03  0.17773587088E+03 -0.19147084980E+02  0.94172435337E+03  0.89934165030E+03 0.  0.
         23    2    4    4    0    0 -0.18912609883E+03  0.43061412427E+03  0.26690244164E+03  0.54826757901E+03  0.90350537160E+02 0.  0.
         23    2    4    4    0    0 -0.25519430137E+02 -0.25287825339E+03 -0.28604952662E+03  0.39345677436E+03  0.91571006654E+02 0.  0.
          1    1    3    3  502    0  0.15735821329E+03 -0.93852653355E+02 -0.10707752637E+04  0.10863376976E+04  0.00000000000E+00 0. -1.
         -1    1    3    3    0  502  0.57287315675E+02 -0.83883217522E+02 -0.35618894281E+03  0.37039005616E+03  0.00000000000E+00 0.  1.
         13    1    5    5    0    0 -0.12231993578E+03  0.33385167683E+03  0.16212296562E+03  0.39077226718E+03  0.00000000000E+00 0. -1.
        -13    1    5    5    0    0 -0.66806163044E+02  0.96762447434E+02  0.10477947602E+03  0.15749531183E+03  0.00000000000E+00 0.  1.
          1    1    6    6  503    0  0.29931902484E+00 -0.24126796081E+03 -0.26344208662E+03  0.35722829047E+03  0.00000000000E+00 0. -1.
         -1    1    6    6    0  503 -0.25818749161E+02 -0.11610292577E+02 -0.22607439994E+02  0.36228483891E+02  0.00000000000E+00 0.  1.
<mgrwt>
<rscale>  0 0.19134614E+04</rscale>
<asrwt>0</asrwt>
<pdfrwt beam="1">  1        1 0.29573565E+00 0.19134614E+04</pdfrwt>
<pdfrwt beam="2">  1       -1 0.73256986E-01 0.19134614E+04</pdfrwt>
<totfact> 0.59049616E+00</totfact>
</mgrwt>
</event>
<event>
12    3  0.4192740E-008  0.1644398E+04  0.7818608E-02  0.8793727E-01
          2   -1    0    0  501    0  0.00000000000E+00  0.00000000000E+00  0.34743261147E+04  0.34743261147E+04  0.00000000000E+00 0.  1.
         -2   -1    0    0    0  501 -0.00000000000E+00 -0.00000000000E+00 -0.19457333125E+03  0.19457333125E+03  0.00000000000E+00 0. -1.
         23    2    1    2    0    0 -0.67064394400E+02  0.18543047538E+03  0.23624364193E+04  0.23723306498E+04  0.89245630180E+02 0.  0.
        254    2    1    2    0    0  0.67064394400E+02 -0.18543047538E+03  0.91731636415E+03  0.12965687962E+04  0.89484034166E+03 0.  0.
         23    2    4    4    0    0 -0.16003281195E+03 -0.47222248988E+02 -0.11803062388E+03  0.22369705833E+03  0.90932414639E+02 0.  0.
         23    2    4    4    0    0  0.22709720635E+03 -0.13820822639E+03  0.10353469880E+04  0.10728717378E+04  0.91846204365E+02 0.  0.
          1    1    3    3  502    0 -0.10175932335E+02  0.27342266176E+02  0.86612005753E+03  0.86661127570E+03  0.00000000000E+00 0. -1.
         -1    1    3    3    0  502 -0.56888462064E+02  0.15808820920E+03  0.14963163618E+04  0.15057193741E+04  0.00000000000E+00 0.  1.
         13    1    5    5    0    0 -0.10287735467E+03 -0.13350610858E+00 -0.10767521565E+03  0.14892185868E+03  0.00000000000E+00 0. -1.
        -13    1    5    5    0    0 -0.57155457283E+02 -0.47088742880E+02 -0.10355408228E+02  0.74775199650E+02  0.00000000000E+00 0.  1.
          1    1    6    6  503    0  0.19564396028E+03 -0.14285917729E+03  0.97519386071E+03  0.10048325083E+04  0.00000000000E+00 0. -1.
         -1    1    6    6    0  503  0.31453246068E+02  0.46509508991E+01  0.60153127317E+02  0.68039229556E+02  0.00000000000E+00 0.  1.
<mgrwt>
<rscale>  0 0.16443980E+04</rscale>
<asrwt>0</asrwt>
<pdfrwt beam="1">  1        2 0.53451166E+00 0.16443980E+04</pdfrwt>
<pdfrwt beam="2">  1       -2 0.29934361E-01 0.16443980E+04</pdfrwt>
<totfact> 0.84262631E+00</totfact>
</mgrwt>
</event>
<event>
12    3  0.4192740E-008  0.1316088E+04  0.7818608E-02  0.9016903E-01
         -1   -1    0    0    0  501 -0.00000000000E+00  0.00000000000E+00  0.17061568194E+03  0.17061568194E+03  0.00000000000E+00 0.  1.
          1   -1    0    0  501    0  0.00000000000E+00 -0.00000000000E+00 -0.25379973013E+04  0.25379973013E+04  0.00000000000E+00 0. -1.
         23    2    1    2    0    0  0.26352843782E+03 -0.19202137203E+03 -0.78008944421E+03  0.85004323331E+03  0.87832298650E+02 0.  0.
        254    2    1    2    0    0 -0.26352843782E+03  0.19202137203E+03 -0.15872921751E+04  0.18585697499E+04  0.91020086858E+03 0.  0.
         23    2    4    4    0    0  0.22773679261E+03  0.36088356773E+03 -0.63309704542E+03  0.76892640149E+03  0.91295924493E+02 0.  0.
         23    2    4    4    0    0 -0.49126523043E+03 -0.16886219570E+03 -0.95419512971E+03  0.10896433484E+04  0.83536299893E+02 0.  0.
          3    1    3    3  502    0  0.25432588724E+02 -0.50442071480E+02 -0.18903685090E+03  0.19729711134E+03  0.00000000000E+00 0. -1.
         -3    1    3    3    0  502  0.23809584909E+03 -0.14157930055E+03 -0.59105259330E+03  0.65274612197E+03  0.00000000000E+00 0.  1.
         13    1    5    5    0    0  0.32070265656E+02  0.89678810464E+02 -0.89477209372E+02  0.13067885056E+03  0.00000000000E+00 0. -1.
        -13    1    5    5    0    0  0.19566652696E+03  0.27120475726E+03 -0.54361983605E+03  0.63824755094E+03  0.00000000000E+00 0.  1.
          1    1    6    6  503    0 -0.13847973360E+03 -0.80382275771E+02 -0.24617301451E+03  0.29366494504E+03  0.00000000000E+00 0. -1.
         -1    1    6    6    0  503 -0.35278549683E+03 -0.88479919925E+02 -0.70802211521E+03  0.79597840336E+03  0.00000000000E+00 0.  1.
<mgrwt>
<rscale>  0 0.13160884E+04</rscale>
<asrwt>0</asrwt>
<pdfrwt beam="1">  1        1 0.39046115E+00 0.13160884E+04</pdfrwt>
<pdfrwt beam="2">  1       -1 0.26248565E-01 0.13160884E+04</pdfrwt>
<totfact> 0.16188710E+01</totfact>
</mgrwt>
</event>
<event>
12    3  0.4192740E-008  0.2652599E+04  0.7818608E-02  0.8350551E-01
          2   -1    0    0  501    0  0.00000000000E+00  0.00000000000E+00  0.30714532060E+04  0.30714532060E+04  0.00000000000E+00 0. -1.
         -2   -1    0    0    0  501 -0.00000000000E+00 -0.00000000000E+00 -0.57271605408E+03  0.57271605408E+03  0.00000000000E+00 0.  1.
         23    2    1    2    0    0 -0.55637735120E+03 -0.38302480299E+03 -0.21246001388E+03  0.71425554238E+03  0.93584003375E+02 0.  0.
        254    2    1    2    0    0  0.55637735120E+03  0.38302480299E+03  0.27111971658E+04  0.29299137177E+04  0.88178260622E+03 0.  0.
         23    2    4    4    0    0 -0.13898203043E+03 -0.14264307700E+03  0.75737826693E+03  0.78846925458E+03  0.91645370855E+02 0.  0.
         23    2    4    4    0    0  0.69535938163E+03  0.52566787999E+03  0.19538188988E+04  0.21414444631E+04  0.92329352409E+02 0.  0.
          4    1    3    3  502    0 -0.82570549356E+01 -0.26824920487E+02 -0.56656685241E+01  0.28633112216E+02  0.00000000000E+00 0. -1.
         -4    1    3    3    0  502 -0.54812029626E+03 -0.35619988250E+03 -0.20679434536E+03  0.68562243016E+03  0.00000000000E+00 0.  1.
         13    1    5    5    0    0 -0.13480611729E+03 -0.10438757532E+03  0.69117832044E+03  0.71189671005E+03  0.00000000000E+00 0.  1.
        -13    1    5    5    0    0 -0.41759131471E+01 -0.38255501689E+02  0.66199946494E+02  0.76572544531E+02  0.00000000000E+00 0. -1.
          3    1    6    6  503    0  0.59551567987E+03  0.47717818526E+03  0.17552420513E+04  0.19139520904E+04  0.00000000000E+00 0. -1.
         -3    1    6    6    0  503  0.99843701757E+02  0.48489694734E+02  0.19857684751E+03  0.22749237271E+03  0.00000000000E+00 0.  1.
<mgrwt>
<rscale>  0 0.26525991E+04</rscale>
<asrwt>0</asrwt>
<pdfrwt beam="1">  1        2 0.47253125E+00 0.26525991E+04</pdfrwt>
<pdfrwt beam="2">  1       -2 0.88110164E-01 0.26525991E+04</pdfrwt>
<totfact> 0.15335911E+00</totfact>
</mgrwt>
</event>
<event>
12    3  0.4192740E-008  0.1306853E+04  0.7818608E-02  0.9024148E-01
          2   -1    0    0  501    0  0.00000000000E+00  0.00000000000E+00  0.15040812474E+04  0.15040812474E+04  0.00000000000E+00 0. -1.
         -2   -1    0    0    0  501 -0.00000000000E+00 -0.00000000000E+00 -0.28387180282E+03  0.28387180282E+03  0.00000000000E+00 0.  1.
         23    2    1    2    0    0 -0.23072207126E+03  0.13744453599E+03  0.63018505974E+03  0.69112361675E+03  0.91624066041E+02 0.  0.
        254    2    1    2    0    0  0.23072207126E+03 -0.13744453599E+03  0.59002438486E+03  0.10968294335E+04  0.88474988374E+03 0.  0.
         23    2    4    4    0    0 -0.20386336226E+03 -0.36102104653E+03  0.30433215441E+03  0.52320318059E+03  0.96057490381E+02 0.  0.
         23    2    4    4    0    0  0.43458543352E+03  0.22357651054E+03  0.28569223045E+03  0.57362625290E+03  0.92607086011E+02 0.  0.
          1    1    3    3  502    0 -0.14907662714E+03  0.56899659600E+02  0.27569125114E+03  0.31853897404E+03  0.00000000000E+00 0. -1.
         -1    1    3    3    0  502 -0.81645444120E+02  0.80544876390E+02  0.35449380859E+03  0.37258464272E+03  0.00000000000E+00 0.  1.
         13    1    5    5    0    0 -0.19134955025E+03 -0.36430988038E+03  0.30100504087E+03  0.50984347985E+03  0.00000000000E+00 0.  1.
        -13    1    5    5    0    0 -0.12513812009E+02  0.32888338508E+01  0.33271135443E+01  0.13359700731E+02  0.00000000000E+00 0. -1.
          3    1    6    6  503    0  0.15996238245E+03  0.57584134249E+02  0.14418190993E+03  0.22291774148E+03  0.00000000000E+00 0. -1.
         -3    1    6    6    0  503  0.27462305106E+03  0.16599237629E+03  0.14151032052E+03  0.35070851141E+03  0.00000000000E+00 0.  1.
<mgrwt>
<rscale>  0 0.13068531E+04</rscale>
<asrwt>0</asrwt>
<pdfrwt beam="1">  1        2 0.23139711E+00 0.13068531E+04</pdfrwt>
<pdfrwt beam="2">  1       -2 0.43672586E-01 0.13068531E+04</pdfrwt>
<totfact> 0.61481227E+01</totfact>
</mgrwt>
</event>
<event>
12    3  0.4192740E-008  0.1641775E+04  0.7818608E-02  0.8795287E-01
         -2   -1    0    0    0  501 -0.00000000000E+00  0.00000000000E+00  0.92714023768E+03  0.92714023768E+03  0.00000000000E+00 0.  1.
          2   -1    0    0  501    0  0.00000000000E+00 -0.00000000000E+00 -0.72681133128E+03  0.72681133128E+03  0.00000000000E+00 0. -1.
         23    2    1    2    0    0  0.18785941628E+03  0.17000357821E+02  0.61024615049E+03  0.64493541119E+03  0.89225265257E+02 0.  0.
        254    2    1    2    0    0 -0.18785941628E+03 -0.17000357821E+02 -0.40991724410E+03  0.10090161578E+04  0.90249725051E+03 0.  0.
         23    2    4    4    0    0  0.68569757798E+02  0.39992536886E+03 -0.11324179063E+03  0.43067761248E+03  0.89539881644E+02 0.  0.
         23    2    4    4    0    0 -0.25642917408E+03 -0.41692572668E+03 -0.29667545347E+03  0.57833854529E+03  0.82922647036E+02 0.  0.
          1    1    3    3  502    0  0.26056348669E+02 -0.28735548234E+02  0.85005486453E+02  0.93437667808E+02  0.00000000000E+00 0. -1.
         -1    1    3    3    0  502  0.16180306761E+03  0.45735906055E+02  0.52524066404E+03  0.55149774338E+03  0.00000000000E+00 0.  1.
         13    1    5    5    0    0  0.25623877967E+02  0.29982349134E+03 -0.11389702997E+03  0.32175027974E+03  0.00000000000E+00 0. -1.
        -13    1    5    5    0    0  0.42945879831E+02  0.10010187752E+03  0.65523934614E+00  0.10892733274E+03  0.00000000000E+00 0.  1.
          4    1    6    6  503    0 -0.50717326962E+02 -0.57083080595E+02 -0.16745681455E+02  0.78173801185E+02  0.00000000000E+00 0. -1.
         -4    1    6    6    0  503 -0.20571184711E+03 -0.35984264609E+03 -0.27992977202E+03  0.50016474411E+03  0.00000000000E+00 0.  1.
<mgrwt>
<rscale>  0 0.16417747E+04</rscale>
<asrwt>0</asrwt>
<pdfrwt beam="1">  1        2 0.11181713E+00 0.16417747E+04</pdfrwt>
<pdfrwt beam="2">  1       -2 0.14263696E+00 0.16417747E+04</pdfrwt>
<totfact> 0.12764839E+01</totfact>
</mgrwt>
</event>
<event>
12    3  0.4192740E-008  0.1806235E+04  0.7818608E-02  0.8702991E-01
          2   -1    0    0  501    0  0.00000000000E+00  0.00000000000E+00  0.27317872277E+04  0.27317872277E+04  0.00000000000E+00 0. -1.
         -2   -1    0    0    0  501 -0.00000000000E+00 -0.00000000000E+00 -0.29856693383E+03  0.29856693383E+03  0.00000000000E+00 0.  1.
         23    2    1    2    0    0  0.33549190195E+03  0.93547694350E+02  0.18796529524E+04  0.19138049024E+04  0.90818477017E+02 0.  0.
        254    2    1    2    0    0 -0.33549190195E+03 -0.93547694350E+02  0.55356734144E+03  0.11165492591E+04  0.90495273855E+03 0.  0.
         23    2    4    4    0    0 -0.47449429538E+03 -0.30660154916E+03  0.61579961427E+03  0.84087710058E+03  0.93358379659E+02 0.  0.
         23    2    4    4    0    0  0.13900239343E+03  0.21305385481E+03 -0.62232272822E+02  0.27567215848E+03  0.86073647270E+02 0.  0.
          3    1    3    3  502    0  0.16258248646E+03  0.15944229469E+02  0.68491066833E+03  0.70412350262E+03  0.00000000000E+00 0. -1.
         -3    1    3    3    0  502  0.17290941549E+03  0.77603464881E+02  0.11947422841E+04  0.12096813998E+04  0.00000000000E+00 0.  1.
         13    1    5    5    0    0 -0.39595200209E+03 -0.22159617611E+03  0.45330972317E+03  0.64138331623E+03  0.00000000000E+00 0. -1.
        -13    1    5    5    0    0 -0.78542293288E+02 -0.85005373051E+02  0.16248989110E+03  0.19949378434E+03  0.00000000000E+00 0.  1.
          4    1    6    6  503    0  0.21689949275E+02  0.11054089787E+03 -0.30104928444E+02  0.11660210426E+03  0.00000000000E+00 0.  1.
         -4    1    6    6    0  503  0.11731244415E+03  0.10251295694E+03 -0.32127344379E+02  0.15907005423E+03  0.00000000000E+00 0. -1.
<mgrwt>
<rscale>  0 0.18062351E+04</rscale>
<asrwt>0</asrwt>
<pdfrwt beam="1">  1        2 0.42027494E+00 0.18062351E+04</pdfrwt>
<pdfrwt beam="2">  1       -2 0.45933376E-01 0.18062351E+04</pdfrwt>
<totfact> 0.10802870E+01</totfact>
</mgrwt>
</event>
<event>
12    3  0.4192740E-008  0.1504906E+04  0.7818608E-02  0.8881197E-01
          2   -1    0    0  501    0  0.00000000000E+00  0.00000000000E+00  0.51755308754E+03  0.51755308754E+03  0.00000000000E+00 0. -1.
         -2   -1    0    0    0  501 -0.00000000000E+00 -0.00000000000E+00 -0.10939662948E+04  0.10939662948E+04  0.00000000000E+00 0.  1.
         23    2    1    2    0    0 -0.40807817729E+03  0.13510320276E+03  0.46638313537E+02  0.44171710854E+03  0.90322740808E+02 0.  0.
        254    2    1    2    0    0  0.40807817729E+03 -0.13510320276E+03 -0.62305152075E+03  0.11698022738E+04  0.89188759830E+03 0.  0.
         23    2    4    4    0    0  0.26494569873E+03  0.36575573650E+03 -0.26984619792E+03  0.53373708494E+03  0.89915645160E+02 0.  0.
         23    2    4    4    0    0  0.14313247856E+03 -0.50085893927E+03 -0.35320532282E+03  0.63606518882E+03  0.92077906641E+02 0.  0.
          1    1    3    3  502    0 -0.39433051482E+03  0.14443077771E+03  0.54259071548E+02  0.42343931243E+03  0.00000000000E+00 0. -1.
         -1    1    3    3    0  502 -0.13747662479E+02 -0.93275749477E+01 -0.76207580112E+01  0.18277796112E+02  0.00000000000E+00 0.  1.
         13    1    5    5    0    0  0.55751167787E+02  0.14507788352E+03 -0.10812065894E+03  0.18933003429E+03  0.00000000000E+00 0.  1.
        -13    1    5    5    0    0  0.20919453095E+03  0.22067785299E+03 -0.16172553898E+03  0.34440705065E+03  0.00000000000E+00 0. -1.
          3    1    6    6  503    0  0.14539695583E+03 -0.50363147341E+03 -0.35381782920E+03  0.63243338941E+03  0.00000000000E+00 0. -1.
         -3    1    6    6    0  503 -0.22644772659E+01  0.27725341474E+01  0.61250637761E+00  0.36317994093E+01  0.00000000000E+00 0.  1.
<mgrwt>
<rscale>  0 0.15049062E+04</rscale>
<asrwt>0</asrwt>
<pdfrwt beam="1">  1        2 0.79623553E-01 0.15049062E+04</pdfrwt>
<pdfrwt beam="2">  1       -2 0.16830250E+00 0.15049062E+04</pdfrwt>
<totfact> 0.12507130E+01</totfact>
</mgrwt>
</event>
<event>
12    3  0.4192740E-008  0.2018973E+04  0.7818608E-02  0.8597801E-01
          1   -1    0    0  501    0  0.00000000000E+00  0.00000000000E+00  0.66761352928E+03  0.66761352928E+03  0.00000000000E+00 0. -1.
         -1   -1    0    0    0  501 -0.00000000000E+00 -0.00000000000E+00 -0.15264263067E+04  0.15264263067E+04  0.00000000000E+00 0.  1.
         23    2    1    2    0    0  0.77489996776E+03 -0.19078482318E+03 -0.22900288754E+03  0.83541741191E+03  0.92796125119E+02 0.  0.
        254    2    1    2    0    0 -0.77489996776E+03  0.19078482318E+03 -0.62980988992E+03  0.13586224241E+04  0.90129106569E+03 0.  0.
         23    2    4    4    0    0 -0.60397580827E+03  0.17496308736E+03  0.63294254804E+02  0.63873954612E+03  0.92645486540E+02 0.  0.
         23    2    4    4    0    0 -0.17092415949E+03  0.15821735819E+02 -0.69310414472E+03  0.71988287800E+03  0.91501950665E+02 0.  0.
          3    1    3    3  502    0  0.16924493914E+03 -0.48338030760E+02 -0.11777809048E+02  0.17640615473E+03  0.00000000000E+00 0. -1.
         -3    1    3    3    0  502  0.60565502862E+03 -0.14244679242E+03 -0.21722507849E+03  0.65901125718E+03  0.00000000000E+00 0.  1.
         13    1    5    5    0    0 -0.59294828372E+03  0.17498954274E+03  0.74875137739E+02  0.62274817823E+03  0.00000000000E+00 0.  1.
        -13    1    5    5    0    0 -0.11027524551E+02 -0.26455381084E-01 -0.11580882935E+02  0.15991367896E+02  0.00000000000E+00 0. -1.
          3    1    6    6  503    0 -0.30450463490E+02 -0.29423275019E+02 -0.22891085850E+03  0.23279420306E+03  0.00000000000E+00 0. -1.
         -3    1    6    6    0  503 -0.14047369600E+03  0.45245010838E+02 -0.46419328622E+03  0.48708867493E+03  0.00000000000E+00 0.  1.
<mgrwt>
<rscale>  0 0.20189729E+04</rscale>
<asrwt>0</asrwt>
<pdfrwt beam="1">  1        1 0.10270978E+00 0.20189729E+04</pdfrwt>
<pdfrwt beam="2">  1       -1 0.23483481E+00 0.20189729E+04</pdfrwt>
<totfact> 0.23763486E+00</totfact>
</mgrwt>
</event>
<event>
12    3  0.4192740E-008  0.1290014E+04  0.7818608E-02  0.9037522E-01
          1   -1    0    0  501    0  0.00000000000E+00  0.00000000000E+00  0.21043252574E+04  0.21043252574E+04  0.00000000000E+00 0. -1.
         -1   -1    0    0    0  501 -0.00000000000E+00 -0.00000000000E+00 -0.19770419107E+03  0.19770419107E+03  0.00000000000E+00 0.  1.
         23    2    1    2    0    0  0.11930706043E+02  0.27393163235E+03  0.79581067656E+03  0.84645325915E+03  0.89373407898E+02 0.  0.
        254    2    1    2    0    0 -0.11930706043E+02 -0.27393163235E+03  0.11108103898E+04  0.14555761894E+04  0.89978966429E+03 0.  0.
         23    2    4    4    0    0 -0.10522124554E+03  0.31074969212E+03  0.40647598730E+03  0.53118239435E+03  0.96411234595E+02 0.  0.
         23    2    4    4    0    0  0.93290539497E+02 -0.58468132447E+03  0.70433440251E+03  0.92439379500E+03  0.88665448391E+02 0.  0.
          2    1    3    3  502    0 -0.25973890394E+02  0.20333112123E+03  0.62553452221E+03  0.65826410074E+03  0.00000000000E+00 0. -1.
         -2    1    3    3    0  502  0.37904596436E+02  0.70600511125E+02  0.17027615435E+03  0.18818915841E+03  0.00000000000E+00 0.  1.
         13    1    5    5    0    0 -0.11980476991E+03  0.23350561287E+03  0.29599260656E+03  0.39558776179E+03  0.00000000000E+00 0.  1.
        -13    1    5    5    0    0  0.14583524373E+02  0.77244079244E+02  0.11048338074E+03  0.13559463257E+03  0.00000000000E+00 0. -1.
          1    1    6    6  503    0  0.21602166969E+02 -0.16327662004E+03  0.13815572666E+03  0.21497188904E+03  0.00000000000E+00 0. -1.
         -1    1    6    6    0  503  0.71688372528E+02 -0.42140470443E+03  0.56617867585E+03  0.70942190596E+03  0.00000000000E+00 0.  1.
<mgrwt>
<rscale>  0 0.12900138E+04</rscale>
<asrwt>0</asrwt>
<pdfrwt beam="1">  1        1 0.32374233E+00 0.12900138E+04</pdfrwt>
<pdfrwt beam="2">  1       -1 0.30416031E-01 0.12900138E+04</pdfrwt>
<totfact> 0.24834916E+01</totfact>
</mgrwt>
</event>
<event>
12    3  0.4192740E-008  0.1123832E+04  0.7818608E-02  0.9182270E-01
         -2   -1    0    0    0  501 -0.00000000000E+00  0.00000000000E+00  0.45324287701E+03  0.45324287701E+03  0.00000000000E+00 0.  1.
          2   -1    0    0  501    0  0.00000000000E+00 -0.00000000000E+00 -0.69664536639E+03  0.69664536639E+03  0.00000000000E+00 0. -1.
         23    2    1    2    0    0  0.17908153331E+03  0.23842932139E+02 -0.20652549148E+02  0.20472369281E+03  0.94056268403E+02 0.  0.
        254    2    1    2    0    0 -0.17908153331E+03 -0.23842932139E+02 -0.22274994023E+03  0.94516455059E+03  0.90059969511E+03 0.  0.
         23    2    4    4    0    0  0.66375805821E+02 -0.10306650191E+03 -0.51932746982E+03  0.54146686644E+03  0.91961378435E+02 0.  0.
         23    2    4    4    0    0 -0.24545733913E+03  0.79223569769E+02  0.29657752959E+03  0.40369768415E+03  0.92129852862E+02 0.  0.
          4    1    3    3  502    0  0.53862187822E+02  0.27909139968E+02 -0.46948287666E+02  0.76708520293E+02  0.00000000000E+00 0. -1.
         -4    1    3    3    0  502  0.12521934549E+03 -0.40662078286E+01  0.26295738518E+02  0.12801517252E+03  0.00000000000E+00 0.  1.
         13    1    5    5    0    0 -0.71123011582E+01  0.20980057866E+01 -0.98217316165E+00  0.74800481392E+01  0.00000000000E+00 0.  1.
        -13    1    5    5    0    0  0.73488106979E+02 -0.10516450770E+03 -0.51834529666E+03  0.53398681830E+03  0.00000000000E+00 0. -1.
          3    1    6    6  503    0 -0.22223595030E+03  0.95591563553E+02  0.28268768062E+03  0.37207376877E+03  0.00000000000E+00 0. -1.
         -3    1    6    6    0  503 -0.23221388832E+02 -0.16367993784E+02  0.13889848969E+02  0.31623915384E+02  0.00000000000E+00 0.  1.
<mgrwt>
<rscale>  0 0.11238319E+04</rscale>
<asrwt>0</asrwt>
<pdfrwt beam="1">  1        2 0.10717621E+00 0.11238319E+04</pdfrwt>
<pdfrwt beam="2">  1       -2 0.69729673E-01 0.11238319E+04</pdfrwt>
<totfact> 0.76665029E+01</totfact>
</mgrwt>
</event>
<event>
12    3  0.4192740E-008  0.1592025E+04  0.7818608E-02  0.8825462E-01
         -2   -1    0    0    0  501 -0.00000000000E+00  0.00000000000E+00  0.27092793194E+03  0.27092793194E+03  0.00000000000E+00 0.  1.
          2   -1    0    0  501    0  0.00000000000E+00 -0.00000000000E+00 -0.23387613749E+04  0.23387613749E+04  0.00000000000E+00 0. -1.
         23    2    1    2    0    0  0.78998060127E+02 -0.29870217578E+02 -0.15785777742E+04  0.15839192160E+04  0.98789524525E+02 0.  0.
        254    2    1    2    0    0 -0.78998060127E+02  0.29870217578E+02 -0.48925566874E+03  0.10257700908E+04  0.89760806951E+03 0.  0.
         23    2    4    4    0    0  0.75747107935E+02 -0.40874275636E+03 -0.26503583163E+03  0.50138632373E+03  0.91301633822E+02 0.  0.
         23    2    4    4    0    0 -0.15474516806E+03  0.43861297393E+03 -0.22421983712E+03  0.52438376711E+03  0.91522630573E+02 0.  0.
          3    1    3    3  502    0  0.29721483465E+00 -0.25679255852E+02 -0.95967591328E+03  0.96001946389E+03  0.00000000000E+00 0. -1.
         -3    1    3    3    0  502  0.78700845292E+02 -0.41909617264E+01 -0.61890186092E+03  0.62389975209E+03  0.00000000000E+00 0.  1.
         13    1    5    5    0    0  0.75910227993E+02 -0.37789588715E+03 -0.21165482628E+03  0.43973336208E+03  0.00000000000E+00 0. -1.
        -13    1    5    5    0    0 -0.16312005751E+00 -0.30846869205E+02 -0.53381005341E+02  0.61652961641E+02  0.00000000000E+00 0.  1.
          4    1    6    6  503    0 -0.14563036882E+03  0.28561679779E+03 -0.15805740751E+03  0.35744552532E+03  0.00000000000E+00 0. -1.
         -4    1    6    6    0  503 -0.91147992457E+01  0.15299617614E+03 -0.66162429603E+02  0.16693824179E+03  0.00000000000E+00 0.  1.
<mgrwt>
<rscale>  0 0.15920249E+04</rscale>
<asrwt>0</asrwt>
<pdfrwt beam="1">  1        2 0.35980944E+00 0.15920249E+04</pdfrwt>
<pdfrwt beam="2">  1       -2 0.41681221E-01 0.15920249E+04</pdfrwt>
<totfact> 0.22581526E+01</totfact>
</mgrwt>
</event>
<event>
12    3  0.4192740E-008  0.1662589E+04  0.7818608E-02  0.8782994E-01
          2   -1    0    0  501    0  0.00000000000E+00  0.00000000000E+00  0.64739948361E+03  0.64739948361E+03  0.00000000000E+00 0. -1.
         -2   -1    0    0    0  501 -0.00000000000E+00 -0.00000000000E+00 -0.10674250293E+04  0.10674250293E+04  0.00000000000E+00 0.  1.
         23    2    1    2    0    0 -0.57677833100E+03  0.41876536897E+02 -0.11429009789E+03  0.59639590905E+03  0.90548144136E+02 0.  0.
        254    2    1    2    0    0  0.57677833100E+03 -0.41876536897E+02 -0.30573544777E+03  0.11184286038E+04  0.90718327277E+03 0.  0.
         23    2    4    4    0    0  0.78328604169E+03 -0.47731460480E+02 -0.38415543433E+03  0.87848780188E+03  0.91378908440E+02 0.  0.
         23    2    4    4    0    0 -0.20650771069E+03  0.58549235822E+01  0.78419986563E+02  0.23994080194E+03  0.93499622669E+02 0.  0.
          3    1    3    3  502    0 -0.16005178401E+03  0.28903319411E+02  0.50660728775E+01  0.16271951491E+03  0.00000000000E+00 0. -1.
         -3    1    3    3    0  502 -0.41672654698E+03  0.12973217486E+02 -0.11935617077E+03  0.43367639414E+03  0.00000000000E+00 0.  1.
         13    1    5    5    0    0  0.63730904207E+01 -0.10385805870E+02 -0.47766609532E+01  0.13088076059E+02  0.00000000000E+00 0. -1.
        -13    1    5    5    0    0  0.77691295127E+03 -0.37345654610E+02 -0.37937877338E+03  0.86539972582E+03  0.00000000000E+00 0.  1.
          1    1    6    6  503    0 -0.12667799546E+03  0.18281239774E+02  0.92828885745E+00  0.12799367165E+03  0.00000000000E+00 0. -1.
         -1    1    6    6    0  503 -0.79829715228E+02 -0.12426316192E+02  0.77491697706E+02  0.11194713029E+03  0.00000000000E+00 0.  1.
<mgrwt>
<rscale>  0 0.16625888E+04</rscale>
<asrwt>0</asrwt>
<pdfrwt beam="1">  1        2 0.99599922E-01 0.16625888E+04</pdfrwt>
<pdfrwt beam="2">  1       -2 0.16421923E+00 0.16625888E+04</pdfrwt>
<totfact> 0.10107078E+01</totfact>
</mgrwt>
</event>
<event>
12    3  0.4192740E-008  0.1633733E+04  0.7818608E-02  0.8800089E-01
         -1   -1    0    0    0  501 -0.00000000000E+00  0.00000000000E+00  0.51971578739E+03  0.51971578739E+03  0.00000000000E+00 0.  1.
          1   -1    0    0  501    0  0.00000000000E+00 -0.00000000000E+00 -0.12839142899E+04  0.12839142899E+04  0.00000000000E+00 0. -1.
         23    2    1    2    0    0 -0.11856545768E+03 -0.93189257366E+02 -0.84080145085E+03  0.85910243484E+03  0.91476272112E+02 0.  0.
        254    2    1    2    0    0  0.11856545768E+03  0.93189257366E+02  0.76602948304E+02  0.94452764249E+03  0.92925908674E+03 0.  0.
         23    2    4    4    0    0  0.31574625714E+03  0.36783073595E+03 -0.16308872232E+03  0.52024351059E+03  0.95185239186E+02 0.  0.
         23    2    4    4    0    0 -0.19718079946E+03 -0.27464147858E+03  0.23969167062E+03  0.42428413190E+03  0.90866485471E+02 0.  0.
          1    1    3    3  502    0 -0.65485325818E+02 -0.10126473339E+03 -0.63904935517E+03  0.65032834204E+03  0.00000000000E+00 0. -1.
         -1    1    3    3    0  502 -0.53080131866E+02  0.80754760265E+01 -0.20175209568E+03  0.20877409280E+03  0.00000000000E+00 0.  1.
         13    1    5    5    0    0  0.30676817549E+00  0.21744963266E+02  0.56995568742E+01  0.22481603206E+02  0.00000000000E+00 0.  1.
        -13    1    5    5    0    0  0.31543948896E+03  0.34608577268E+03 -0.16878827919E+03  0.49776190739E+03  0.00000000000E+00 0. -1.
          2    1    6    6  503    0 -0.12888329289E+03 -0.21268565050E+03  0.21520607813E+03  0.32887648925E+03  0.00000000000E+00 0. -1.
         -2    1    6    6    0  503 -0.68297506561E+02 -0.61955828081E+02  0.24485592489E+02  0.95407642646E+02  0.00000000000E+00 0.  1.
<mgrwt>
<rscale>  0 0.16337326E+04</rscale>
<asrwt>0</asrwt>
<pdfrwt beam="1">  1        1 0.19752527E+00 0.16337326E+04</pdfrwt>
<pdfrwt beam="2">  1       -1 0.79956275E-01 0.16337326E+04</pdfrwt>
<totfact> 0.13881829E+01</totfact>
</mgrwt>
</event>
<event>
12    3  0.4192740E-008  0.1636552E+04  0.7818608E-02  0.8798402E-01
          1   -1    0    0  501    0  0.00000000000E+00  0.00000000000E+00  0.10771754701E+04  0.10771754701E+04  0.00000000000E+00 0. -1.
         -1   -1    0    0    0  501 -0.00000000000E+00 -0.00000000000E+00 -0.62160277163E+03  0.62160277163E+03  0.00000000000E+00 0.  1.
         23    2    1    2    0    0 -0.42911991755E+01 -0.44677564079E+02 -0.43182839911E+03  0.44411100113E+03  0.93511047054E+02 0.  0.
        254    2    1    2    0    0  0.42911991755E+01  0.44677564079E+02  0.88740109761E+03  0.12546672406E+04  0.88582993715E+03 0.  0.
         23    2    4    4    0    0  0.68451709426E+01 -0.23647348528E+03 -0.60666205483E+02  0.26156665711E+03  0.93649143194E+02 0.  0.
         23    2    4    4    0    0 -0.25539717671E+01  0.28115104936E+03  0.94806730310E+03  0.99310058352E+03  0.91458856659E+02 0.  0.
          1    1    3    3  502    0 -0.30711927244E+02 -0.42783340181E+02 -0.11863506776E+03  0.12979952224E+03  0.00000000000E+00 0. -1.
         -1    1    3    3    0  502  0.26420728068E+02 -0.18942238988E+01 -0.31319333135E+03  0.31431147889E+03  0.00000000000E+00 0.  1.
         13    1    5    5    0    0  0.21083694074E+02 -0.21803701550E+03 -0.27121098412E+02  0.22072656447E+03  0.00000000000E+00 0. -1.
        -13    1    5    5    0    0 -0.14238523131E+02 -0.18436469782E+02 -0.33545107071E+02  0.40840092646E+02  0.00000000000E+00 0.  1.
          1    1    6    6  503    0 -0.99525564527E+01  0.13831029440E+03  0.31658681771E+03  0.34562407912E+03  0.00000000000E+00 0. -1.
         -1    1    6    6    0  503  0.73985846856E+01  0.14284075496E+03  0.63148048538E+03  0.64747650440E+03  0.00000000000E+00 0.  1.
<mgrwt>
<rscale>  0 0.16365516E+04</rscale>
<asrwt>0</asrwt>
<pdfrwt beam="1">  1        1 0.16571930E+00 0.16365516E+04</pdfrwt>
<pdfrwt beam="2">  1       -1 0.95631195E-01 0.16365516E+04</pdfrwt>
<totfact> 0.13316940E+01</totfact>
</mgrwt>
</event>
<event>
12    3  0.4192740E-008  0.2087051E+04  0.7818608E-02  0.8566969E-01
         -1   -1    0    0    0  501 -0.00000000000E+00  0.00000000000E+00  0.52951909997E+03  0.52951909997E+03  0.00000000000E+00 0.  1.
          1   -1    0    0  501    0  0.00000000000E+00 -0.00000000000E+00 -0.20564809291E+04  0.20564809291E+04  0.00000000000E+00 0. -1.
         23    2    1    2    0    0 -0.61913444726E+03  0.18307127332E+03  0.50903555152E+02  0.65349440119E+03  0.87299516395E+02 0.  0.
        254    2    1    2    0    0  0.61913444726E+03 -0.18307127332E+03 -0.15778653842E+04  0.19325056278E+04  0.90998696472E+03 0.  0.
         23    2    4    4    0    0  0.46025170483E+03  0.30060429288E+03 -0.55421126212E+03  0.78565465565E+03  0.88929984706E+02 0.  0.
         23    2    4    4    0    0  0.15888274243E+03 -0.48367556620E+03 -0.10236541221E+04  0.11468509722E+04  0.90628977236E+02 0.  0.
          3    1    3    3  502    0 -0.22487629912E+03  0.96214278999E+02 -0.12108543449E+02  0.24489416942E+03  0.00000000000E+00 0. -1.
         -3    1    3    3    0  502 -0.39425814814E+03  0.86856994317E+02  0.63012098601E+02  0.40860023178E+03  0.00000000000E+00 0.  1.
         13    1    5    5    0    0  0.45672544228E+03  0.30602749547E+03 -0.54307020723E+03  0.77277176940E+03  0.00000000000E+00 0. -1.
        -13    1    5    5    0    0  0.35262625470E+01 -0.54232025836E+01 -0.11141054892E+02  0.12882886242E+02  0.00000000000E+00 0.  1.
          4    1    6    6  503    0  0.66389326748E+02 -0.21693675781E+03 -0.35839067805E+03  0.42416149956E+03  0.00000000000E+00 0.  1.
         -4    1    6    6    0  503  0.92493415682E+02 -0.26673880839E+03 -0.66526344406E+03  0.72268947263E+03  0.00000000000E+00 0. -1.
<mgrwt>
<rscale>  0 0.20870514E+04</rscale>
<asrwt>0</asrwt>
<pdfrwt beam="1">  1        1 0.31638168E+00 0.20870514E+04</pdfrwt>
<pdfrwt beam="2">  1       -1 0.81464476E-01 0.20870514E+04</pdfrwt>
<totfact> 0.37686199E+00</totfact>
</mgrwt>
</event>
<event>
12    3  0.4192740E-008  0.1189814E+04  0.7818608E-02  0.9121819E-01
         -2   -1    0    0    0  501 -0.00000000000E+00  0.00000000000E+00  0.52166799910E+03  0.52166799910E+03  0.00000000000E+00 0.  1.
          2   -1    0    0  501    0  0.00000000000E+00 -0.00000000000E+00 -0.67842872429E+03  0.67842872429E+03  0.00000000000E+00 0. -1.
         23    2    1    2    0    0 -0.12269353510E+03 -0.18352996467E+03 -0.31814955555E+01  0.23898525765E+03  0.91470650882E+02 0.  0.
        254    2    1    2    0    0  0.12269353510E+03  0.18352996467E+03 -0.15357922964E+03  0.96111146574E+03  0.92271973985E+03 0.  0.
         23    2    4    4    0    0 -0.24289563898E+03 -0.20851139585E+03 -0.24125409351E+03  0.41045486016E+03  0.88285678098E+02 0.  0.
         23    2    4    4    0    0  0.36558917408E+03  0.39204136052E+03  0.87674863865E+02  0.55065660558E+03  0.90465147713E+02 0.  0.
          1    1    3    3  502    0 -0.16274432106E+02  0.10466596968E-01 -0.20435690870E+02  0.26124216950E+02  0.00000000000E+00 0. -1.
         -1    1    3    3    0  502 -0.10641910300E+03 -0.18354043127E+03  0.17254195314E+02  0.21286104070E+03  0.00000000000E+00 0.  1.
         13    1    5    5    0    0 -0.20213329812E+03 -0.15788653384E+03 -0.22996700139E+03  0.34448635605E+03  0.00000000000E+00 0. -1.
        -13    1    5    5    0    0 -0.40762340857E+02 -0.50624862005E+02 -0.11287092121E+02  0.65968504104E+02  0.00000000000E+00 0.  1.
          1    1    6    6  503    0  0.29609236652E+03  0.32939777194E+03  0.10574860497E+03  0.45536397434E+03  0.00000000000E+00 0. -1.
         -1    1    6    6    0  503  0.69496807563E+02  0.62643588581E+02 -0.18073741109E+02  0.95292631244E+02  0.00000000000E+00 0.  1.
<mgrwt>
<rscale>  0 0.11898144E+04</rscale>
<asrwt>0</asrwt>
<pdfrwt beam="1">  1        2 0.10437365E+00 0.11898144E+04</pdfrwt>
<pdfrwt beam="2">  1       -2 0.80256615E-01 0.11898144E+04</pdfrwt>
<totfact> 0.57788644E+01</totfact>
</mgrwt>
</event>
<event>
12    3  0.4192740E-008  0.2593783E+04  0.7818608E-02  0.8370316E-01
          1   -1    0    0  501    0  0.00000000000E+00  0.00000000000E+00  0.24639306878E+04  0.24639306878E+04  0.00000000000E+00 0. -1.
         -1   -1    0    0    0  501 -0.00000000000E+00 -0.00000000000E+00 -0.68261972684E+03  0.68261972684E+03  0.00000000000E+00 0.  1.
         23    2    1    2    0    0 -0.17525116782E+03  0.96784271393E+03  0.14658984573E+04  0.17676067935E+04  0.90238566440E+02 0.  0.
        254    2    1    2    0    0  0.17525116782E+03 -0.96784271393E+03  0.31541250369E+03  0.13789436211E+04  0.91354691829E+03 0.  0.
         23    2    4    4    0    0  0.37147340095E+03 -0.72173304200E+03 -0.12961242975E+03  0.82706583105E+03  0.91364300546E+02 0.  0.
         23    2    4    4    0    0 -0.19622223313E+03 -0.24610967193E+03  0.44502493344E+03  0.55187779004E+03  0.86306247490E+02 0.  0.
          3    1    3    3  502    0 -0.18149189442E+03  0.91015198160E+03  0.14014315291E+04  0.16808706875E+04  0.00000000000E+00 0. -1.
         -3    1    3    3    0  502  0.62407265993E+01  0.57690732335E+02  0.64466928141E+02  0.86736106033E+02  0.00000000000E+00 0.  1.
         13    1    5    5    0    0  0.26079114349E+03 -0.42465366325E+03 -0.10341611583E+03  0.50895741202E+03  0.00000000000E+00 0. -1.
        -13    1    5    5    0    0  0.11068225746E+03 -0.29707937876E+03 -0.26196313919E+02  0.31810841904E+03  0.00000000000E+00 0.  1.
          4    1    6    6  503    0 -0.56237283263E+02 -0.48513134043E+02  0.16952236737E+03  0.18507833272E+03  0.00000000000E+00 0.  1.
         -4    1    6    6    0  503 -0.13998494987E+03 -0.19759653789E+03  0.27550256607E+03  0.36679945732E+03  0.00000000000E+00 0. -1.
<mgrwt>
<rscale>  0 0.25937831E+04</rscale>
<asrwt>0</asrwt>
<pdfrwt beam="1">  1        1 0.37906626E+00 0.25937831E+04</pdfrwt>
<pdfrwt beam="2">  1       -1 0.10501842E+00 0.25937831E+04</pdfrwt>
<totfact> 0.10757682E+00</totfact>
</mgrwt>
</event>
<event>
12    3  0.4192740E-008  0.1177647E+04  0.7818608E-02  0.9132650E-01
         -2   -1    0    0    0  501 -0.00000000000E+00  0.00000000000E+00  0.33842093735E+03  0.33842093735E+03  0.00000000000E+00 0.  1.
          2   -1    0    0  501    0  0.00000000000E+00 -0.00000000000E+00 -0.10245026774E+04  0.10245026774E+04  0.00000000000E+00 0. -1.
         23    2    1    2    0    0  0.18009693904E+02  0.26228285676E+02  0.11882679763E+03  0.15069866178E+03  0.87051747724E+02 0.  0.
        254    2    1    2    0    0 -0.18009693904E+02 -0.26228285676E+02 -0.80490853765E+03  0.12122249529E+04  0.90586936723E+03 0.  0.
         23    2    4    4    0    0  0.28493863765E+03 -0.28171103483E+03 -0.66481499245E+03  0.78161305828E+03  0.91590743624E+02 0.  0.
         23    2    4    4    0    0 -0.30294833156E+03  0.25548274915E+03 -0.14009354520E+03  0.43061189466E+03  0.93548253348E+02 0.  0.
          1    1    3    3  502    0  0.15020433158E+02 -0.17070466860E+02  0.10141787332E+03  0.10393555349E+03  0.00000000000E+00 0. -1.
         -1    1    3    3    0  502  0.29892607461E+01  0.43298752536E+02  0.17408924318E+02  0.46763108290E+02  0.00000000000E+00 0.  1.
         13    1    5    5    0    0  0.25855451906E+03 -0.28456570520E+03 -0.62150180752E+03  0.73081637683E+03  0.00000000000E+00 0.  1.
        -13    1    5    5    0    0  0.26384118594E+02  0.28546703738E+01 -0.43313184929E+02  0.50796681443E+02  0.00000000000E+00 0. -1.
          2    1    6    6  503    0 -0.11229523030E+03  0.88316787086E+02 -0.41870083957E+01  0.14292517157E+03  0.00000000000E+00 0. -1.
         -2    1    6    6    0  503 -0.19065310126E+03  0.16716596206E+03 -0.13590653681E+03  0.28768672309E+03  0.00000000000E+00 0.  1.
<mgrwt>
<rscale>  0 0.11776471E+04</rscale>
<asrwt>0</asrwt>
<pdfrwt beam="1">  1        2 0.15761580E+00 0.11776471E+04</pdfrwt>
<pdfrwt beam="2">  1       -2 0.52064760E-01 0.11776471E+04</pdfrwt>
<totfact> 0.83603050E+01</totfact>
</mgrwt>
</event>
<event>
12    3  0.4192740E-008  0.1586576E+04  0.7818608E-02  0.8828838E-01
         -2   -1    0    0    0  501 -0.00000000000E+00  0.00000000000E+00  0.80839425531E+03  0.80839425531E+03  0.00000000000E+00 0.  1.
          2   -1    0    0  501    0  0.00000000000E+00 -0.00000000000E+00 -0.77846385651E+03  0.77846385651E+03  0.00000000000E+00 0. -1.
         23    2    1    2    0    0  0.29171806016E+03  0.24959903925E+03 -0.36062937008E+03  0.53463369977E+03  0.91545307633E+02 0.  0.
        254    2    1    2    0    0 -0.29171806016E+03 -0.24959903925E+03  0.39055976888E+03  0.10522244121E+04  0.89846545467E+03 0.  0.
         23    2    4    4    0    0  0.29757312522E+03 -0.17800309759E+03  0.23986759663E+03  0.43267037871E+03  0.97120158049E+02 0.  0.
         23    2    4    4    0    0 -0.58929118537E+03 -0.71595941657E+02  0.15069217226E+03  0.61955403335E+03  0.93536032821E+02 0.  0.
          1    1    3    3  502    0  0.50980625248E+02  0.67088221654E+02 -0.37343260285E+02  0.92164921332E+02  0.00000000000E+00 0. -1.
         -1    1    3    3    0  502  0.24073743491E+03  0.18251081759E+03 -0.32328610980E+03  0.44246877844E+03  0.00000000000E+00 0.  1.
         13    1    5    5    0    0  0.23660792905E+03 -0.17701506470E+03  0.22049167755E+03  0.36869258887E+03  0.00000000000E+00 0.  1.
        -13    1    5    5    0    0  0.60965196167E+02 -0.98803289194E+00  0.19375919073E+02  0.63977789838E+02  0.00000000000E+00 0. -1.
          2    1    6    6  503    0 -0.54037881846E+03 -0.44973973676E+02  0.15422878523E+03  0.56375388597E+03  0.00000000000E+00 0.  1.
         -2    1    6    6    0  503 -0.48912366909E+02 -0.26621967981E+02 -0.35366129739E+01  0.55800147376E+02  0.00000000000E+00 0. -1.
<mgrwt>
<rscale>  0 0.15865758E+04</rscale>
<asrwt>0</asrwt>
<pdfrwt beam="1">  1        2 0.11976367E+00 0.15865758E+04</pdfrwt>
<pdfrwt beam="2">  1       -2 0.12436835E+00 0.15865758E+04</pdfrwt>
<totfact> 0.16646558E+01</totfact>
</mgrwt>
</event>
<event>
12    3  0.4192740E-008  0.1674502E+04  0.7818608E-02  0.8776042E-01
         -2   -1    0    0    0  501 -0.00000000000E+00  0.00000000000E+00  0.55861174677E+03  0.55861174677E+03  0.00000000000E+00 0.  1.
          2   -1    0    0  501    0  0.00000000000E+00 -0.00000000000E+00 -0.12548780846E+04  0.12548780846E+04  0.00000000000E+00 0. -1.
         23    2    1    2    0    0 -0.28764377902E+03 -0.42958088921E+02  0.31017031066E+03  0.43451050534E+03  0.89495344118E+02 0.  0.
        254    2    1    2    0    0  0.28764377902E+03  0.42958088921E+02 -0.10064366485E+04  0.13789793260E+04  0.89670781931E+03 0.  0.
         23    2    4    4    0    0  0.23192625941E+03 -0.12987279644E+03  0.65025580759E+02  0.28851075636E+03  0.91396921852E+02 0.  0.
         23    2    4    4    0    0  0.55717519611E+02  0.17283088536E+03 -0.10714622292E+04  0.10904685697E+04  0.90085713784E+02 0.  0.
          4    1    3    3  502    0 -0.86980027361E+02  0.67992104530E+01  0.14780557894E+03  0.17163403972E+03  0.00000000000E+00 0. -1.
         -4    1    3    3    0  502 -0.20066375166E+03 -0.49757299374E+02  0.16236473172E+03  0.26287646562E+03  0.00000000000E+00 0.  1.
         13    1    5    5    0    0  0.11879791024E+03 -0.18394427666E+02  0.10859363608E+02  0.12070304149E+03  0.00000000000E+00 0. -1.
        -13    1    5    5    0    0  0.11312834917E+03 -0.11147836877E+03  0.54166217151E+02  0.16780771487E+03  0.00000000000E+00 0.  1.
          4    1    6    6  503    0 -0.20861328483E+02  0.16649687715E+02 -0.20396733848E+03  0.20570630106E+03  0.00000000000E+00 0. -1.
         -4    1    6    6    0  503  0.76578848094E+02  0.15618119764E+03 -0.86749489076E+03  0.88476226862E+03  0.00000000000E+00 0.  1.
<mgrwt>
<rscale>  0 0.16745025E+04</rscale>
<asrwt>0</asrwt>
<pdfrwt beam="1">  1        2 0.19305816E+00 0.16745025E+04</pdfrwt>
<pdfrwt beam="2">  1       -2 0.85940270E-01 0.16745025E+04</pdfrwt>
<totfact> 0.19687482E+01</totfact>
</mgrwt>
</event>
<event>
12    3  0.4192740E-008  0.3062918E+04  0.7818608E-02  0.8225989E-01
          2   -1    0    0  501    0  0.00000000000E+00  0.00000000000E+00  0.42379062687E+04  0.42379062687E+04  0.00000000000E+00 0. -1.
         -2   -1    0    0    0  501 -0.00000000000E+00 -0.00000000000E+00 -0.55342595117E+03  0.55342595117E+03  0.00000000000E+00 0.  1.
         23    2    1    2    0    0 -0.29118349884E+03 -0.31685375849E+02 -0.45298934688E+03  0.54705556033E+03  0.90987057650E+02 0.  0.
        254    2    1    2    0    0  0.29118349884E+03  0.31685375849E+02  0.41374696644E+04  0.42442766595E+04  0.89968735997E+03 0.  0.
         23    2    4    4    0    0  0.40646083025E+03 -0.34375784825E+03  0.22157762239E+04  0.22808491939E+04  0.96067194858E+02 0.  0.
         23    2    4    4    0    0 -0.11527733141E+03  0.37544322410E+03  0.19216934405E+04  0.19634274657E+04  0.88855253247E+02 0.  0.
          4    1    3    3  502    0 -0.31225553187E+02  0.25528878776E+02 -0.53200858535E+02  0.66761442257E+02  0.00000000000E+00 0. -1.
         -4    1    3    3    0  502 -0.25995794565E+03 -0.57214254625E+02 -0.39978848835E+03  0.48029411807E+03  0.00000000000E+00 0.  1.
         13    1    5    5    0    0  0.29282104003E+03 -0.20686052883E+03  0.16130222621E+04  0.16523850211E+04  0.00000000000E+00 0. -1.
        -13    1    5    5    0    0  0.11363979023E+03 -0.13689731942E+03  0.60275396179E+03  0.62846417276E+03  0.00000000000E+00 0.  1.
          2    1    6    6  503    0 -0.58828430243E+02  0.29655480336E+03  0.15551384005E+04  0.15842540769E+04  0.00000000000E+00 0. -1.
         -2    1    6    6    0  503 -0.56448901170E+02  0.78888420745E+02  0.36655504002E+03  0.37917338875E+03  0.00000000000E+00 0.  1.
<mgrwt>
<rscale>  0 0.30629184E+04</rscale>
<asrwt>0</asrwt>
<pdfrwt beam="1">  1        2 0.65198556E+00 0.30629184E+04</pdfrwt>
<pdfrwt beam="2">  1       -2 0.85142457E-01 0.30629184E+04</pdfrwt>
<totfact> 0.21998643E-01</totfact>
</mgrwt>
</event>
<event>
12    3  0.4192740E-008  0.1361732E+04  0.7818608E-02  0.8981994E-01
         -2   -1    0    0    0  501 -0.00000000000E+00  0.00000000000E+00  0.25613622275E+03  0.25613622275E+03  0.00000000000E+00 0. -1.
          2   -1    0    0  501    0  0.00000000000E+00 -0.00000000000E+00 -0.18098917605E+04  0.18098917605E+04  0.00000000000E+00 0.  1.
         23    2    1    2    0    0 -0.10413347428E+03 -0.13271276217E+03 -0.98891550592E+03  0.10075735343E+04  0.93776817610E+02 0.  0.
        254    2    1    2    0    0  0.10413347428E+03  0.13271276217E+03 -0.56484003178E+03  0.10584544489E+04  0.87910471569E+03 0.  0.
         23    2    4    4    0    0 -0.15895395459E+03  0.35960766093E+03 -0.17807802296E+02  0.40398641489E+03  0.91125606281E+02 0.  0.
         23    2    4    4    0    0  0.26308742886E+03 -0.22689489876E+03 -0.54703222948E+03  0.65446803399E+03  0.91585245030E+02 0.  0.
          1    1    3    3  502    0 -0.39508415323E+01  0.19454051857E+00  0.73669148617E+00  0.40236437681E+01  0.00000000000E+00 0. -1.
         -1    1    3    3    0  502 -0.10018263274E+03 -0.13290730269E+03 -0.98965219741E+03  0.10035498906E+04  0.00000000000E+00 0.  1.
         13    1    5    5    0    0 -0.86409658928E+02  0.26385621069E+03  0.19139296173E+02  0.27830386582E+03  0.00000000000E+00 0.  1.
        -13    1    5    5    0    0 -0.72544295658E+02  0.95751450240E+02 -0.36947098469E+02  0.12568254907E+03  0.00000000000E+00 0. -1.
          1    1    6    6  503    0  0.79084940453E+02 -0.49541390462E+02 -0.83835771623E+02  0.12544805211E+03  0.00000000000E+00 0. -1.
         -1    1    6    6    0  503  0.18400248841E+03 -0.17735350830E+03 -0.46319645786E+03  0.52901998187E+03  0.00000000000E+00 0.  1.
<mgrwt>
<rscale>  0 0.13617325E+04</rscale>
<asrwt>0</asrwt>
<pdfrwt beam="1">  1        2 0.27844488E+00 0.13617325E+04</pdfrwt>
<pdfrwt beam="2">  1       -2 0.39405573E-01 0.13617325E+04</pdfrwt>
<totfact> 0.50647843E+01</totfact>
</mgrwt>
</event>
<event>
12    3  0.4192740E-008  0.1836821E+04  0.7818608E-02  0.8686960E-01
          2   -1    0    0  501    0  0.00000000000E+00  0.00000000000E+00  0.90777013036E+03  0.90777013036E+03  0.00000000000E+00 0. -1.
         -2   -1    0    0    0  501 -0.00000000000E+00 -0.00000000000E+00 -0.92917519990E+03  0.92917519990E+03  0.00000000000E+00 0.  1.
         23    2    1    2    0    0  0.37545887835E+03 -0.50976937321E+03  0.26756184621E+03  0.69243323067E+03  0.83906222626E+02 0.  0.
        254    2    1    2    0    0 -0.37545887835E+03  0.50976937321E+03 -0.28896691575E+03  0.11445120996E+04  0.90860986375E+03 0.  0.
         23    2    4    4    0    0 -0.66068845453E+03  0.42202038545E+03 -0.17427863465E+03  0.80845506823E+03  0.92823031497E+02 0.  0.
         23    2    4    4    0    0  0.28522957618E+03  0.87748987765E+02 -0.11468828110E+03  0.33605703135E+03  0.10356220604E+03 0.  0.
          1    1    3    3  502    0  0.10597822715E+03 -0.13115830101E+03  0.32813351379E+02  0.17178649709E+03  0.00000000000E+00 0. -1.
         -1    1    3    3    0  502  0.26948065120E+03 -0.37861107221E+03  0.23474849483E+03  0.52064673359E+03  0.00000000000E+00 0.  1.
         13    1    5    5    0    0 -0.64538433068E+02  0.47294015855E+02 -0.47327227120E+02  0.92961280679E+02  0.00000000000E+00 0.  1.
        -13    1    5    5    0    0 -0.59615002146E+03  0.37472636959E+03 -0.12695140753E+03  0.71549378755E+03  0.00000000000E+00 0. -1.
          3    1    6    6  503    0  0.25507408817E+03  0.10560576851E+03 -0.11923053703E+03  0.30071795716E+03  0.00000000000E+00 0. -1.
         -3    1    6    6    0  503  0.30155488009E+02 -0.17856780747E+02  0.45422559330E+01  0.35339074191E+02  0.00000000000E+00 0.  1.
<mgrwt>
<rscale>  0 0.18368206E+04</rscale>
<asrwt>0</asrwt>
<pdfrwt beam="1">  1        2 0.13965694E+00 0.18368206E+04</pdfrwt>
<pdfrwt beam="2">  1       -2 0.14295003E+00 0.18368206E+04</pdfrwt>
<totfact> 0.92734838E+00</totfact>
</mgrwt>
</event>
<event>
12    3  0.4192740E-008  0.2481961E+04  0.7818608E-02  0.8409440E-01
         -2   -1    0    0    0  501 -0.00000000000E+00  0.00000000000E+00  0.23617192861E+04  0.23617192861E+04  0.00000000000E+00 0.  1.
          2   -1    0    0  501    0  0.00000000000E+00 -0.00000000000E+00 -0.65208118455E+03  0.65208118455E+03  0.00000000000E+00 0. -1.
         23    2    1    2    0    0 -0.52515016774E+03  0.93204909472E+03  0.83828350112E+03  0.13638882956E+04  0.11390276952E+03 0.  0.
        254    2    1    2    0    0  0.52515016774E+03 -0.93204909472E+03  0.87135460047E+03  0.16499121751E+04  0.90468399577E+03 0.  0.
         23    2    4    4    0    0 -0.19148187278E+03 -0.42261585577E+01  0.22222022067E+03  0.30664168743E+03  0.89241974277E+02 0.  0.
         23    2    4    4    0    0  0.71663204052E+03 -0.92782293616E+03  0.64913437980E+03  0.13432704877E+04  0.92645980555E+02 0.  0.
          3    1    3    3  502    0 -0.26935014270E+03  0.54794848254E+03  0.42027420410E+03  0.74123373204E+03  0.00000000000E+00 0. -1.
         -3    1    3    3    0  502 -0.25580002505E+03  0.38410061219E+03  0.41800929701E+03  0.62265456353E+03  0.00000000000E+00 0.  1.
         13    1    5    5    0    0 -0.44943851577E+02  0.35831099121E+02  0.80279769517E+02  0.98735296893E+02  0.00000000000E+00 0.  1.
        -13    1    5    5    0    0 -0.14653802120E+03 -0.40057257679E+02  0.14194045116E+03  0.20790639053E+03  0.00000000000E+00 0. -1.
          1    1    6    6  503    0  0.19070129001E+03 -0.19458243391E+03  0.12523375810E+03  0.29985463105E+03  0.00000000000E+00 0. -1.
         -1    1    6    6    0  503  0.52593075051E+03 -0.73324050225E+03  0.52390062170E+03  0.10434158566E+04  0.00000000000E+00 0.  1.
<mgrwt>
<rscale>  0 0.24819611E+04</rscale>
<asrwt>0</asrwt>
<pdfrwt beam="1">  1        2 0.10032018E+00 0.24819611E+04</pdfrwt>
<pdfrwt beam="2">  1       -2 0.36334142E+00 0.24819611E+04</pdfrwt>
<totfact> 0.51250718E-01</totfact>
</mgrwt>
</event>
<event>
12    3  0.4192740E-008  0.2101055E+04  0.7818608E-02  0.8560779E-01
         -2   -1    0    0    0  501 -0.00000000000E+00  0.00000000000E+00  0.49369237662E+03  0.49369237662E+03  0.00000000000E+00 0. -1.
          2   -1    0    0  501    0  0.00000000000E+00 -0.00000000000E+00 -0.22354165007E+04  0.22354165007E+04  0.00000000000E+00 0.  1.
         23    2    1    2    0    0  0.67370237778E+03 -0.31785293169E+03 -0.12190871416E+04  0.14317159691E+04  0.93443979979E+02 0.  0.
        254    2    1    2    0    0 -0.67370237778E+03  0.31785293169E+03 -0.52263698249E+03  0.12973929082E+04  0.92475594770E+03 0.  0.
         23    2    4    4    0    0  0.43958433071E+02 -0.18914621299E+03 -0.33033577893E+03  0.39300348202E+03  0.87300494329E+02 0.  0.
         23    2    4    4    0    0 -0.71766081085E+03  0.50699914468E+03 -0.19230120356E+03  0.90438942620E+03  0.94102652380E+02 0.  0.
          2    1    3    3  502    0  0.64949347265E+03 -0.30697882382E+03 -0.11323086629E+04  0.13409700509E+04  0.00000000000E+00 0.  1.
         -2    1    3    3    0  502  0.24208905130E+02 -0.10874107875E+02 -0.86778478734E+02  0.90745918262E+02  0.00000000000E+00 0. -1.
         13    1    5    5    0    0  0.70469981367E+02 -0.13930986270E+03 -0.25217160475E+03  0.29658687490E+03  0.00000000000E+00 0. -1.
        -13    1    5    5    0    0 -0.26511548296E+02 -0.49836350289E+02 -0.78164174183E+02  0.96416607122E+02  0.00000000000E+00 0.  1.
          4    1    6    6  503    0 -0.17714160944E+03  0.77664889305E+02 -0.43622350429E+02  0.19827731661E+03  0.00000000000E+00 0. -1.
         -4    1    6    6    0  503 -0.54051920141E+03  0.42933425538E+03 -0.14867885313E+03  0.70611210959E+03  0.00000000000E+00 0.  1.
<mgrwt>
<rscale>  0 0.21010551E+04</rscale>
<asrwt>0</asrwt>
<pdfrwt beam="1">  1        2 0.34391024E+00 0.21010551E+04</pdfrwt>
<pdfrwt beam="2">  1       -2 0.75952671E-01 0.21010551E+04</pdfrwt>
<totfact> 0.70557017E+00</totfact>
</mgrwt>
</event>
<event>
12    3  0.4192740E-008  0.2346015E+04  0.7818608E-02  0.8459996E-01
          2   -1    0    0  501    0  0.00000000000E+00  0.00000000000E+00  0.17166893460E+04  0.17166893460E+04  0.00000000000E+00 0.  1.
         -2   -1    0    0    0  501 -0.00000000000E+00 -0.00000000000E+00 -0.80151154744E+03  0.80151154744E+03  0.00000000000E+00 0. -1.
         23    2    1    2    0    0 -0.76289325299E+03 -0.17903679103E+03  0.10131625909E+04  0.12840356828E+04  0.90492601904E+02 0.  0.
        254    2    1    2    0    0  0.76289325299E+03  0.17903679103E+03 -0.97984792382E+02  0.12341652106E+04  0.94842103500E+03 0.  0.
         23    2    4    4    0    0  0.61346060395E+03  0.34334957222E+03 -0.42648796512E+03  0.82732796110E+03  0.91415149124E+02 0.  0.
         23    2    4    4    0    0  0.14943264904E+03 -0.16431278118E+03  0.32850317274E+03  0.40683724954E+03  0.90958267653E+02 0.  0.
          3    1    3    3  502    0 -0.29379717593E+03 -0.11154874329E+03  0.37878832422E+03  0.49217933447E+03  0.00000000000E+00 0. -1.
         -3    1    3    3    0  502 -0.46909607706E+03 -0.67488047746E+02  0.63437426667E+03  0.79185634828E+03  0.00000000000E+00 0.  1.
         13    1    5    5    0    0  0.11254804354E+03  0.56854433772E+02 -0.38026892518E+02  0.13170244227E+03  0.00000000000E+00 0. -1.
        -13    1    5    5    0    0  0.50091256041E+03  0.28649513844E+03 -0.38846107260E+03  0.69562551884E+03  0.00000000000E+00 0.  1.
          4    1    6    6  503    0 -0.80433389062E-02  0.18022410675E+01 -0.50485711134E+01  0.53606163683E+01  0.00000000000E+00 0. -1.
         -4    1    6    6    0  503  0.14944069237E+03 -0.16611502225E+03  0.33355174385E+03  0.40147663317E+03  0.00000000000E+00 0.  1.
<mgrwt>
<rscale>  0 0.23460148E+04</rscale>
<asrwt>0</asrwt>
<pdfrwt beam="1">  1        2 0.26410605E+00 0.23460148E+04</pdfrwt>
<pdfrwt beam="2">  1       -2 0.12330947E+00 0.23460148E+04</pdfrwt>
<totfact> 0.43021799E+00</totfact>
</mgrwt>
</event>
<event>
12    3  0.4192740E-008  0.2176112E+04  0.7818608E-02  0.8528437E-01
          2   -1    0    0  501    0  0.00000000000E+00  0.00000000000E+00  0.10072561669E+04  0.10072561669E+04  0.00000000000E+00 0. -1.
         -2   -1    0    0    0  501 -0.00000000000E+00 -0.00000000000E+00 -0.11753374015E+04  0.11753374015E+04  0.00000000000E+00 0.  1.
         23    2    1    2    0    0  0.14260369327E+03  0.23933082135E+02 -0.95873331702E+03  0.97350857066E+03  0.87411430727E+02 0.  0.
        254    2    1    2    0    0 -0.14260369327E+03 -0.23933082135E+02  0.79065208244E+03  0.12090849978E+04  0.90324260899E+03 0.  0.
         23    2    4    4    0    0 -0.45044164417E+03 -0.23938759993E+03  0.54467606464E+03  0.75093399709E+03  0.83819775670E+02 0.  0.
         23    2    4    4    0    0  0.30783795090E+03  0.21545451780E+03  0.24597601781E+03  0.45815100072E+03  0.90627175135E+02 0.  0.
          3    1    3    3  502    0  0.93414443303E+02  0.17728292259E+02 -0.34766900972E+03  0.36043625079E+03  0.00000000000E+00 0. -1.
         -3    1    3    3    0  502  0.49189249968E+02  0.62047898755E+01 -0.61106430730E+03  0.61307231986E+03  0.00000000000E+00 0.  1.
         13    1    5    5    0    0 -0.42435119438E+03 -0.23626084367E+03  0.53586704250E+03  0.72321961371E+03  0.00000000000E+00 0. -1.
        -13    1    5    5    0    0 -0.26090449786E+02 -0.31267562643E+01  0.88090221358E+01  0.27714383373E+02  0.00000000000E+00 0.  1.
          3    1    6    6  503    0  0.25447912760E+03  0.20348771738E+03  0.23658724031E+03  0.40266661121E+03  0.00000000000E+00 0. -1.
         -3    1    6    6    0  503  0.53358823302E+02  0.11966800414E+02  0.93887774995E+01  0.55484389510E+02  0.00000000000E+00 0.  1.
<mgrwt>
<rscale>  0 0.21761120E+04</rscale>
<asrwt>0</asrwt>
<pdfrwt beam="1">  1        2 0.15496249E+00 0.21761120E+04</pdfrwt>
<pdfrwt beam="2">  1       -2 0.18082114E+00 0.21761120E+04</pdfrwt>
<totfact> 0.40837724E+00</totfact>
</mgrwt>
</event>
<event>
12    3  0.4192740E-008  0.1915426E+04  0.7818608E-02  0.8647216E-01
         -1   -1    0    0    0  501 -0.00000000000E+00  0.00000000000E+00  0.71413328392E+03  0.71413328392E+03  0.00000000000E+00 0.  1.
          1   -1    0    0  501    0  0.00000000000E+00 -0.00000000000E+00 -0.12843735461E+04  0.12843735461E+04  0.00000000000E+00 0. -1.
         23    2    1    2    0    0  0.19136991179E+03  0.50710291323E+03  0.30874376792E+03  0.63051198435E+03  0.91906694185E+02 0.  0.
        254    2    1    2    0    0 -0.19136991179E+03 -0.50710291323E+03 -0.87898403008E+03  0.13679948457E+04  0.89722971690E+03 0.  0.
         23    2    4    4    0    0 -0.76386632800E+02  0.22440384616E+03 -0.42132669741E+03  0.49267410793E+03  0.94971505362E+02 0.  0.
         23    2    4    4    0    0 -0.11498327899E+03 -0.73150675939E+03 -0.45765733267E+03  0.87532073773E+03  0.91721678340E+02 0.  0.
          4    1    3    3  502    0  0.32865407100E+02  0.28047347849E+02  0.39674000304E+02  0.58658460646E+02  0.00000000000E+00 0. -1.
         -4    1    3    3    0  502  0.15850450469E+03  0.47905556538E+03  0.26906976762E+03  0.57185352370E+03  0.00000000000E+00 0.  1.
         13    1    5    5    0    0 -0.20955097469E+01  0.55913061311E+01  0.49741765951E+01  0.77715055266E+01  0.00000000000E+00 0. -1.
        -13    1    5    5    0    0 -0.74291123053E+02  0.21881254003E+03 -0.42630087401E+03  0.48490260240E+03  0.00000000000E+00 0.  1.
          3    1    6    6  503    0 -0.10450761605E+03 -0.36971168013E+03 -0.23672315326E+03  0.45127200171E+03  0.00000000000E+00 0. -1.
         -3    1    6    6    0  503 -0.10475662932E+02 -0.36179507926E+03 -0.22093417941E+03  0.42404873602E+03  0.00000000000E+00 0.  1.
<mgrwt>
<rscale>  0 0.19154257E+04</rscale>
<asrwt>0</asrwt>
<pdfrwt beam="1">  1        1 0.19759593E+00 0.19154257E+04</pdfrwt>
<pdfrwt beam="2">  1       -1 0.10986666E+00 0.19154257E+04</pdfrwt>
<totfact> 0.66385039E+00</totfact>
</mgrwt>
</event>
<event>
12    3  0.4192740E-008  0.1425975E+04  0.7818608E-02  0.8935228E-01
         -1   -1    0    0    0  501 -0.00000000000E+00  0.00000000000E+00  0.83086234865E+03  0.83086234865E+03  0.00000000000E+00 0.  1.
          1   -1    0    0  501    0  0.00000000000E+00 -0.00000000000E+00 -0.61183602678E+03  0.61183602678E+03  0.00000000000E+00 0. -1.
         23    2    1    2    0    0  0.38573435028E+02 -0.35643932600E+03  0.27572645051E+03  0.46148810299E+03  0.91702184722E+02 0.  0.
        254    2    1    2    0    0 -0.38573435028E+02  0.35643932600E+03 -0.56700128641E+02  0.98121027244E+03  0.91160396618E+03 0.  0.
         23    2    4    4    0    0  0.32208596660E+03  0.38035527662E+03  0.18178840116E+03  0.53818580885E+03  0.90484450133E+02 0.  0.
         23    2    4    4    0    0 -0.36065940163E+03 -0.23915950621E+02 -0.23848852980E+03  0.44302446359E+03  0.93523899702E+02 0.  0.
          4    1    3    3  502    0  0.16625462926E+02 -0.21761398318E+03  0.11068881182E+03  0.24471261667E+03  0.00000000000E+00 0. -1.
         -4    1    3    3    0  502  0.21947972103E+02 -0.13882534282E+03  0.16503763868E+03  0.21677548632E+03  0.00000000000E+00 0.  1.
         13    1    5    5    0    0  0.73425628774E+02  0.76899946322E+02  0.79465108823E+02  0.13273894766E+03  0.00000000000E+00 0. -1.
        -13    1    5    5    0    0  0.24866033783E+03  0.30345533030E+03  0.10232329234E+03  0.40544686119E+03  0.00000000000E+00 0.  1.
          2    1    6    6  503    0 -0.33214172591E+03  0.56168300581E+00 -0.23134306063E+03  0.40476913578E+03  0.00000000000E+00 0. -1.
         -2    1    6    6    0  503 -0.28517675715E+02 -0.24477633627E+02 -0.71454691770E+01  0.38255327811E+02  0.00000000000E+00 0.  1.
<mgrwt>
<rscale>  0 0.14259755E+04</rscale>
<asrwt>0</asrwt>
<pdfrwt beam="1">  1        1 0.94128619E-01 0.14259755E+04</pdfrwt>
<pdfrwt beam="2">  1       -1 0.12782498E+00 0.14259755E+04</pdfrwt>
<totfact> 0.17147414E+01</totfact>
</mgrwt>
</event>
<event>
12    3  0.4192740E-008  0.2013272E+04  0.7818608E-02  0.8600441E-01
          2   -1    0    0  501    0  0.00000000000E+00  0.00000000000E+00  0.14540710275E+04  0.14540710275E+04  0.00000000000E+00 0. -1.
         -2   -1    0    0    0  501 -0.00000000000E+00 -0.00000000000E+00 -0.69688215943E+03  0.69688215943E+03  0.00000000000E+00 0.  1.
         23    2    1    2    0    0 -0.30712703023E+03  0.51485444220E+03 -0.27457868468E+03  0.66567863059E+03  0.91282395828E+02 0.  0.
        254    2    1    2    0    0  0.30712703023E+03 -0.51485444220E+03  0.10317675528E+04  0.14852745564E+04  0.88436085140E+03 0.  0.
         23    2    4    4    0    0 -0.12622165291E+02  0.11245399876E+03 -0.82194302210E+02  0.16455629796E+03  0.86704388523E+02 0.  0.
         23    2    4    4    0    0  0.31974919552E+03 -0.62730844096E+03  0.11139618550E+04  0.13207182584E+04  0.87351448785E+02 0.  0.
          2    1    3    3  502    0 -0.20717158011E+03  0.41268789368E+03 -0.23052297456E+03  0.51611258752E+03  0.00000000000E+00 0.  1.
         -2    1    3    3    0  502 -0.99955450119E+02  0.10216654852E+03 -0.44055710123E+02  0.14956604307E+03  0.00000000000E+00 0. -1.
         13    1    5    5    0    0  0.28223217941E+02  0.68061518314E+02 -0.72663074766E+02  0.10348353850E+03  0.00000000000E+00 0.  1.
        -13    1    5    5    0    0 -0.40845383232E+02  0.44392480444E+02 -0.95312274436E+01  0.61072759459E+02  0.00000000000E+00 0. -1.
          2    1    6    6  503    0  0.12075235242E+03 -0.28835302615E+03  0.56224061730E+03  0.64330638894E+03  0.00000000000E+00 0.  1.
         -2    1    6    6    0  503  0.19899684310E+03 -0.33895541481E+03  0.55172123768E+03  0.67741186947E+03  0.00000000000E+00 0. -1.
<mgrwt>
<rscale>  0 0.20132721E+04</rscale>
<asrwt>0</asrwt>
<pdfrwt beam="1">  1        2 0.22370324E+00 0.20132721E+04</pdfrwt>
<pdfrwt beam="2">  1       -2 0.10721264E+00 0.20132721E+04</pdfrwt>
<totfact> 0.87458326E+00</totfact>
</mgrwt>
</event>
<event>
12    3  0.4192740E-008  0.2199367E+04  0.7818608E-02  0.8518692E-01
         -1   -1    0    0    0  501 -0.00000000000E+00  0.00000000000E+00  0.49429263073E+03  0.49429263073E+03  0.00000000000E+00 0.  1.
          1   -1    0    0  501    0  0.00000000000E+00 -0.00000000000E+00 -0.24465338089E+04  0.24465338089E+04  0.00000000000E+00 0. -1.
         23    2    1    2    0    0  0.22531931099E+02  0.65196690308E+03 -0.17174697877E+04  0.18394719678E+04  0.91575750393E+02 0.  0.
        254    2    1    2    0    0 -0.22531931099E+02 -0.65196690308E+03 -0.23477139050E+03  0.11013544718E+04  0.85574268109E+03 0.  0.
         23    2    4    4    0    0 -0.13835472360E+03  0.14746350074E+03 -0.17430218698E+03  0.28574469002E+03  0.10188847774E+03 0.  0.
         23    2    4    4    0    0  0.11582279251E+03 -0.79943040382E+03 -0.60469203520E+02  0.81560978183E+03  0.95178263421E+02 0.  0.
          2    1    3    3  502    0  0.57486974397E+02  0.43362898466E+03 -0.11626049546E+04  0.12421711352E+04  0.00000000000E+00 0. -1.
         -2    1    3    3    0  502 -0.34955043298E+02  0.21833791842E+03 -0.55486483306E+03  0.59730083262E+03  0.00000000000E+00 0.  1.
         13    1    5    5    0    0 -0.38666844171E+01  0.71494837683E+02 -0.62861325838E+02  0.95278588098E+02  0.00000000000E+00 0.  1.
        -13    1    5    5    0    0 -0.13448803919E+03  0.75968663056E+02 -0.11144086114E+03  0.19046610193E+03  0.00000000000E+00 0. -1.
          1    1    6    6  503    0  0.79646671664E+02 -0.24224072653E+03 -0.20132421315E+02  0.25579186126E+03  0.00000000000E+00 0. -1.
         -1    1    6    6    0  503  0.36176120841E+02 -0.55718967729E+03 -0.40336782206E+02  0.55981792057E+03  0.00000000000E+00 0.  1.
<mgrwt>
<rscale>  0 0.21993668E+04</rscale>
<asrwt>0</asrwt>
<pdfrwt beam="1">  1        1 0.37638982E+00 0.21993668E+04</pdfrwt>
<pdfrwt beam="2">  1       -1 0.76045019E-01 0.21993668E+04</pdfrwt>
<totfact> 0.23362319E+00</totfact>
</mgrwt>
</event>
<event>
12    3  0.4192740E-008  0.2355018E+04  0.7818608E-02  0.8456539E-01
          1   -1    0    0  501    0  0.00000000000E+00  0.00000000000E+00  0.15559132540E+04  0.15559132540E+04  0.00000000000E+00 0. -1.
         -1   -1    0    0    0  501 -0.00000000000E+00 -0.00000000000E+00 -0.89113436316E+03  0.89113436316E+03  0.00000000000E+00 0.  1.
         23    2    1    2    0    0  0.30016664435E+03 -0.43689651557E+03  0.11623321123E+04  0.12809420725E+04  0.93904600343E+02 0.  0.
        254    2    1    2    0    0 -0.30016664435E+03  0.43689651557E+03 -0.49755322146E+03  0.11661055447E+04  0.91173699801E+03 0.  0.
         23    2    4    4    0    0 -0.10864586077E+03 -0.13212562865E+03  0.17264978559E+03  0.26098321551E+03  0.95095665010E+02 0.  0.
         23    2    4    4    0    0 -0.19152078357E+03  0.56902214422E+03 -0.67020300705E+03  0.90512232921E+03  0.98020146002E+02 0.  0.
          1    1    3    3  502    0  0.24179659507E+03 -0.40329590542E+03  0.10379206748E+04  0.11394702751E+04  0.00000000000E+00 0. -1.
         -1    1    3    3    0  502  0.58370049274E+02 -0.33600610153E+02  0.12441143753E+03  0.14147179735E+03  0.00000000000E+00 0.  1.
         13    1    5    5    0    0 -0.35440042938E+02  0.78982489530E+01  0.20830994964E+02  0.41860594014E+02  0.00000000000E+00 0. -1.
        -13    1    5    5    0    0 -0.73205817835E+02 -0.14002387760E+03  0.15181879062E+03  0.21912262149E+03  0.00000000000E+00 0.  1.
          2    1    6    6  503    0 -0.20400347965E+02  0.94035588614E+02 -0.16426044473E+03  0.19036900962E+03  0.00000000000E+00 0. -1.
         -2    1    6    6    0  503 -0.17112043561E+03  0.47498655561E+03 -0.50594256232E+03  0.71475331959E+03  0.00000000000E+00 0.  1.
<mgrwt>
<rscale>  0 0.23550183E+04</rscale>
<asrwt>0</asrwt>
<pdfrwt beam="1">  1        1 0.23937127E+00 0.23550183E+04</pdfrwt>
<pdfrwt beam="2">  1       -1 0.13709759E+00 0.23550183E+04</pdfrwt>
<totfact> 0.23832114E+00</totfact>
</mgrwt>
</event>
<event>
12    3  0.4192740E-008  0.4464396E+04  0.7818608E-02  0.7916900E-01
         -1   -1    0    0    0  501 -0.00000000000E+00  0.00000000000E+00  0.17624882291E+04  0.17624882291E+04  0.00000000000E+00 0.  1.
          1   -1    0    0  501    0  0.00000000000E+00 -0.00000000000E+00 -0.28270867555E+04  0.28270867555E+04  0.00000000000E+00 0. -1.
         23    2    1    2    0    0 -0.10449332100E+04  0.11919140995E+04 -0.19951533701E+04  0.25498350238E+04  0.92070865599E+02 0.  0.
        254    2    1    2    0    0  0.10449332100E+04 -0.11919140995E+04  0.93055484373E+03  0.20397399608E+04  0.88434278209E+03 0.  0.
         23    2    4    4    0    0  0.87091119581E+03 -0.12751901880E+04  0.96608154197E+03  0.18238444160E+04  0.92187752744E+02 0.  0.
         23    2    4    4    0    0  0.17402201421E+03  0.83276088422E+02 -0.35526698237E+02  0.21589554471E+03  0.90167464227E+02 0.  0.
          4    1    3    3  502    0 -0.91317676316E+03  0.10234261933E+04 -0.17706751585E+04  0.22397730891E+04  0.00000000000E+00 0. -1.
         -4    1    3    3    0  502 -0.13175644686E+03  0.16848790628E+03 -0.22447821157E+03  0.31006193465E+03  0.00000000000E+00 0.  1.
         13    1    5    5    0    0  0.29683398364E+02 -0.80647816234E+02  0.53323126685E+02  0.10113619649E+03  0.00000000000E+00 0. -1.
        -13    1    5    5    0    0  0.84122779744E+03 -0.11945423717E+04  0.91275841528E+03  0.17227082196E+04  0.00000000000E+00 0.  1.
          3    1    6    6  503    0  0.31851961137E+02 -0.21107290468E+01  0.23740861470E+02  0.39782296423E+02  0.00000000000E+00 0. -1.
         -3    1    6    6    0  503  0.14217005308E+03  0.85386817469E+02 -0.59267559706E+02  0.17611324829E+03  0.00000000000E+00 0.  1.
<mgrwt>
<rscale>  0 0.44643956E+04</rscale>
<asrwt>0</asrwt>
<pdfrwt beam="1">  1        1 0.43493642E+00 0.44643956E+04</pdfrwt>
<pdfrwt beam="2">  1       -1 0.27115204E+00 0.44643956E+04</pdfrwt>
<totfact> 0.30504333E-02</totfact>
</mgrwt>
</event>
<event>
12    3  0.4192740E-008  0.1156036E+04  0.7818608E-02  0.9152233E-01
         -1   -1    0    0    0  501 -0.00000000000E+00  0.00000000000E+00  0.26508047403E+03  0.26508047403E+03  0.00000000000E+00 0.  1.
          1   -1    0    0  501    0  0.00000000000E+00 -0.00000000000E+00 -0.12603900101E+04  0.12603900101E+04  0.00000000000E+00 0. -1.
         23    2    1    2    0    0  0.12521358471E+03 -0.20078033401E+02  0.33950564387E+02  0.15969517469E+03  0.90930406229E+02 0.  0.
        254    2    1    2    0    0 -0.12521358471E+03  0.20078033401E+02 -0.10292601004E+04  0.13657753094E+04  0.88875433740E+03 0.  0.
         23    2    4    4    0    0 -0.21083067085E+03  0.32410630714E+03 -0.14533966740E+03  0.42290731655E+03  0.90733176807E+02 0.  0.
         23    2    4    4    0    0  0.85617086142E+02 -0.30402827374E+03 -0.88392043300E+03  0.94286799284E+03  0.89001367283E+02 0.  0.
          2    1    3    3  502    0 -0.12341101625E+02  0.71172927242E+01 -0.32806115098E+01  0.14619201651E+02  0.00000000000E+00 0. -1.
         -2    1    3    3    0  502  0.13755468633E+03 -0.27195326125E+02  0.37231175896E+02  0.14507597304E+03  0.00000000000E+00 0.  1.
         13    1    5    5    0    0 -0.42020466293E+02  0.13720769752E+03 -0.72288085874E+02  0.16067743838E+03  0.00000000000E+00 0. -1.
        -13    1    5    5    0    0 -0.16881020456E+03  0.18689860962E+03 -0.73051581531E+02  0.26222987817E+03  0.00000000000E+00 0.  1.
          1    1    6    6  503    0 -0.49094117269E+01 -0.14185683952E+03 -0.40845494608E+03  0.43241520350E+03  0.00000000000E+00 0. -1.
         -1    1    6    6    0  503  0.90526497869E+02 -0.16217143421E+03 -0.47546548693E+03  0.51045278935E+03  0.00000000000E+00 0.  1.
<mgrwt>
<rscale>  0 0.11560360E+04</rscale>
<asrwt>0</asrwt>
<pdfrwt beam="1">  1        1 0.19390615E+00 0.11560360E+04</pdfrwt>
<pdfrwt beam="2">  1       -1 0.40781612E-01 0.11560360E+04</pdfrwt>
<totfact> 0.56333333E+01</totfact>
</mgrwt>
</event>
<event>
12    3  0.4192740E-008  0.1388787E+04  0.7818608E-02  0.8961975E-01
         -2   -1    0    0    0  501 -0.00000000000E+00  0.00000000000E+00  0.15998743700E+03  0.15998743700E+03  0.00000000000E+00 0.  1.
          2   -1    0    0  501    0  0.00000000000E+00 -0.00000000000E+00 -0.30138772957E+04  0.30138772957E+04  0.00000000000E+00 0. -1.
         23    2    1    2    0    0 -0.52010670305E+02  0.24748652944E+03 -0.14854950798E+04  0.15096205788E+04  0.91126109169E+02 0.  0.
        254    2    1    2    0    0  0.52010670305E+02 -0.24748652944E+03 -0.13683947789E+04  0.16642441539E+04  0.91282508771E+03 0.  0.
         23    2    4    4    0    0  0.19609300992E+03 -0.50423358447E+03 -0.11828116593E+04  0.13041875419E+04  0.95696117174E+02 0.  0.
         23    2    4    4    0    0 -0.14408233961E+03  0.25674705502E+03 -0.18558311965E+03  0.36005661203E+03  0.92308714178E+02 0.  0.
          1    1    3    3  502    0 -0.46035507019E+02  0.14121819425E+03 -0.10892099266E+04  0.10992907307E+04  0.00000000000E+00 0. -1.
         -1    1    3    3    0  502 -0.59751632855E+01  0.10626833520E+03 -0.39628515319E+03  0.41032984814E+03  0.00000000000E+00 0.  1.
         13    1    5    5    0    0  0.69072197103E+02 -0.20464124849E+03 -0.58418606173E+03  0.62283413820E+03  0.00000000000E+00 0. -1.
        -13    1    5    5    0    0  0.12702081281E+03 -0.29959233598E+03 -0.59862559755E+03  0.68135340368E+03  0.00000000000E+00 0.  1.
          2    1    6    6  503    0  0.98180262406E+01  0.25653639024E+02 -0.27290384517E+01  0.27603450605E+02  0.00000000000E+00 0. -1.
         -2    1    6    6    0  503 -0.15390036585E+03  0.23109341600E+03 -0.18285408120E+03  0.33245316142E+03  0.00000000000E+00 0.  1.
<mgrwt>
<rscale>  0 0.13887872E+04</rscale>
<asrwt>0</asrwt>
<pdfrwt beam="1">  1        2 0.46367344E+00 0.13887872E+04</pdfrwt>
<pdfrwt beam="2">  1       -2 0.24613451E-01 0.13887872E+04</pdfrwt>
<totfact> 0.24767709E+01</totfact>
</mgrwt>
</event>
<event>
12    3  0.4192740E-008  0.1528034E+04  0.7818608E-02  0.8866022E-01
         -1   -1    0    0    0  501 -0.00000000000E+00  0.00000000000E+00  0.69941290880E+03  0.69941290880E+03  0.00000000000E+00 0.  1.
          1   -1    0    0  501    0  0.00000000000E+00 -0.00000000000E+00 -0.83458858589E+03  0.83458858589E+03  0.00000000000E+00 0. -1.
         23    2    1    2    0    0  0.12099642036E+03 -0.12974293768E+03  0.43534522153E+03  0.47903954909E+03  0.92087263358E+02 0.  0.
        254    2    1    2    0    0 -0.12099642036E+03  0.12974293768E+03 -0.57052089862E+03  0.10549619456E+04  0.86946952062E+03 0.  0.
         23    2    4    4    0    0 -0.22853242527E+03  0.43201695245E+03 -0.15478275782E+03  0.52210518903E+03  0.98845382745E+02 0.  0.
         23    2    4    4    0    0  0.10753600492E+03 -0.30227401476E+03 -0.41573814079E+03  0.53285675657E+03  0.90357893731E+02 0.  0.
          3    1    3    3  502    0 -0.13620128726E+02 -0.23650078597E+02  0.43564742418E+02  0.51407401278E+02  0.00000000000E+00 0. -1.
         -3    1    3    3    0  502  0.13461654908E+03 -0.10609285909E+03  0.39178047911E+03  0.42763214782E+03  0.00000000000E+00 0.  1.
         13    1    5    5    0    0 -0.16434494683E+03  0.30634782473E+03 -0.15586516226E+03  0.38098845137E+03  0.00000000000E+00 0. -1.
        -13    1    5    5    0    0 -0.64187478441E+02  0.12566912771E+03  0.10824044419E+01  0.14111673766E+03  0.00000000000E+00 0.  1.
          4    1    6    6  503    0  0.76803618498E+02 -0.27733573956E+03 -0.39337147971E+03  0.48739617284E+03  0.00000000000E+00 0.  1.
         -4    1    6    6    0  503  0.30732386418E+02 -0.24938275205E+02 -0.22366661084E+02  0.45460583732E+02  0.00000000000E+00 0. -1.
<mgrwt>
<rscale>  0 0.15280341E+04</rscale>
<asrwt>0</asrwt>
<pdfrwt beam="1">  1        1 0.12839824E+00 0.15280341E+04</pdfrwt>
<pdfrwt beam="2">  1       -1 0.10760199E+00 0.15280341E+04</pdfrwt>
<totfact> 0.16020556E+01</totfact>
</mgrwt>
</event>
<event>
12    3  0.4192740E-008  0.1895860E+04  0.7818608E-02  0.8656920E-01
         -2   -1    0    0    0  501 -0.00000000000E+00  0.00000000000E+00  0.35360879056E+03  0.35360879056E+03  0.00000000000E+00 0.  1.
          2   -1    0    0  501    0  0.00000000000E+00 -0.00000000000E+00 -0.25411453265E+04  0.25411453265E+04  0.00000000000E+00 0. -1.
         23    2    1    2    0    0 -0.23160548886E+03  0.68004957626E+03 -0.67247824556E+03  0.98774756631E+03  0.85496990300E+02 0.  0.
        254    2    1    2    0    0  0.23160548886E+03 -0.68004957626E+03 -0.15150582904E+04  0.19070065507E+04  0.90838528867E+03 0.  0.
         23    2    4    4    0    0 -0.74554812750E+02 -0.48100168942E+03 -0.19065905015E+03  0.53036802940E+03  0.89545116460E+02 0.  0.
         23    2    4    4    0    0  0.30616030161E+03 -0.19904788685E+03 -0.13243992402E+04  0.13766385213E+04  0.88011813915E+02 0.  0.
          1    1    3    3  502    0 -0.88799148534E+02  0.38615053209E+03 -0.35041240779E+03  0.52894836964E+03  0.00000000000E+00 0. -1.
         -1    1    3    3    0  502 -0.14280634033E+03  0.29389904418E+03 -0.32206583776E+03  0.45879919667E+03  0.00000000000E+00 0.  1.
         13    1    5    5    0    0 -0.15140821400E+02 -0.17009659108E+03 -0.11196421820E+03  0.20420107964E+03  0.00000000000E+00 0. -1.
        -13    1    5    5    0    0 -0.59413991350E+02 -0.31090509834E+03 -0.78694831950E+02  0.32616694976E+03  0.00000000000E+00 0.  1.
          4    1    6    6  503    0  0.26089627795E+03 -0.17292039058E+03 -0.99353124922E+03  0.10416682161E+04  0.00000000000E+00 0.  1.
         -4    1    6    6    0  503  0.45264023665E+02 -0.26127496265E+02 -0.33086799098E+03  0.33497030518E+03  0.00000000000E+00 0. -1.
<mgrwt>
<rscale>  0 0.18958600E+04</rscale>
<asrwt>0</asrwt>
<pdfrwt beam="1">  1        2 0.39094543E+00 0.18958600E+04</pdfrwt>
<pdfrwt beam="2">  1       -2 0.54401353E-01 0.18958600E+04</pdfrwt>
<totfact> 0.98263794E+00</totfact>
</mgrwt>
</event>
<event>
12    3  0.4192740E-008  0.1063520E+04  0.7818608E-02  0.9241495E-01
         -2   -1    0    0    0  501 -0.00000000000E+00  0.00000000000E+00  0.31323391851E+03  0.31323391851E+03  0.00000000000E+00 0.  1.
          2   -1    0    0  501    0  0.00000000000E+00 -0.00000000000E+00 -0.90274037367E+03  0.90274037367E+03  0.00000000000E+00 0. -1.
         23    2    1    2    0    0  0.89813134260E+02  0.16408816853E+02  0.10661643407E+02  0.12927327236E+03  0.90896974381E+02 0.  0.
        254    2    1    2    0    0 -0.89813134260E+02 -0.16408816853E+02 -0.60016809857E+03  0.10867010198E+04  0.90132220186E+03 0.  0.
         23    2    4    4    0    0  0.17584887239E+03  0.10737778347E+03  0.15374621081E+03  0.27256377970E+03  0.90555520885E+02 0.  0.
         23    2    4    4    0    0 -0.26566200665E+03 -0.12378660032E+03 -0.75391430939E+03  0.81413724011E+03  0.92375514272E+02 0.  0.
          2    1    3    3  502    0 -0.12302148816E+02 -0.11069978395E+02 -0.12838679283E+02  0.20945619420E+02  0.00000000000E+00 0. -1.
         -2    1    3    3    0  502  0.10211528308E+03  0.27478795248E+02  0.23500322690E+02  0.10832765294E+03  0.00000000000E+00 0.  1.
         13    1    5    5    0    0  0.18603141407E+03  0.98807895339E+02  0.13744234670E+03  0.25151756573E+03  0.00000000000E+00 0. -1.
        -13    1    5    5    0    0 -0.10182541682E+02  0.85698881287E+01  0.16303864114E+02  0.21046213975E+02  0.00000000000E+00 0.  1.
          2    1    6    6  503    0 -0.95359533850E+02 -0.14727319496E+02 -0.34055236760E+03  0.35395797733E+03  0.00000000000E+00 0. -1.
         -2    1    6    6    0  503 -0.17030247280E+03 -0.10905928082E+03 -0.41336194178E+03  0.46017926278E+03  0.00000000000E+00 0.  1.
<mgrwt>
<rscale>  0 0.10635204E+04</rscale>
<asrwt>0</asrwt>
<pdfrwt beam="1">  1        2 0.13888313E+00 0.10635204E+04</pdfrwt>
<pdfrwt beam="2">  1       -2 0.48189834E-01 0.10635204E+04</pdfrwt>
<totfact> 0.11847521E+02</totfact>
</mgrwt>
</event>
<event>
12    3  0.4192740E-008  0.1358883E+04  0.7818608E-02  0.8984131E-01
         -1   -1    0    0    0  501 -0.00000000000E+00  0.00000000000E+00  0.95663167855E+03  0.95663167855E+03  0.00000000000E+00 0.  1.
          1   -1    0    0  501    0  0.00000000000E+00 -0.00000000000E+00 -0.48256921297E+03  0.48256921297E+03  0.00000000000E+00 0. -1.
         23    2    1    2    0    0 -0.26182645913E+03  0.23219589138E+03  0.17092971517E+03  0.40023041639E+03  0.92192147195E+02 0.  0.
        254    2    1    2    0    0  0.26182645913E+03 -0.23219589138E+03  0.30313275042E+03  0.10389704751E+04  0.93010868028E+03 0.  0.
         23    2    4    4    0    0  0.19786361298E+03  0.14980432786E+03 -0.24488528576E+03  0.36184852230E+03  0.96820472645E+02 0.  0.
         23    2    4    4    0    0  0.63962846152E+02 -0.38200021924E+03  0.54801803617E+03  0.67712195282E+03  0.90304805182E+02 0.  0.
          1    1    3    3  502    0 -0.16890271989E+03  0.10206827392E+03  0.62401535168E+02  0.20697829094E+03  0.00000000000E+00 0. -1.
         -1    1    3    3    0  502 -0.92923739240E+02  0.13012761745E+03  0.10852818000E+03  0.19325212546E+03  0.00000000000E+00 0.  1.
         13    1    5    5    0    0  0.17126426907E+03  0.15214372093E+03 -0.24462867793E+03  0.33514526961E+03  0.00000000000E+00 0. -1.
        -13    1    5    5    0    0  0.26599343912E+02 -0.23393930699E+01 -0.25660782593E+00  0.26703252686E+02  0.00000000000E+00 0.  1.
          4    1    6    6  503    0  0.49135460268E+02 -0.30942474339E+03  0.49579161052E+03  0.58648724312E+03  0.00000000000E+00 0. -1.
         -4    1    6    6    0  503  0.14827385884E+02 -0.72575475851E+02  0.52226425650E+02  0.90634709705E+02  0.00000000000E+00 0.  1.
<mgrwt>
<rscale>  0 0.13588834E+04</rscale>
<asrwt>0</asrwt>
<pdfrwt beam="1">  1        1 0.74241417E-01 0.13588834E+04</pdfrwt>
<pdfrwt beam="2">  1       -1 0.14717410E+00 0.13588834E+04</pdfrwt>
<totfact> 0.16719899E+01</totfact>
</mgrwt>
</event>
<event>
12    3  0.4192740E-008  0.1143804E+04  0.7818608E-02  0.9163519E-01
          3   -1    0    0  501    0  0.00000000000E+00  0.00000000000E+00  0.46340383520E+03  0.46340383520E+03  0.00000000000E+00 0.  1.
         -3   -1    0    0    0  501 -0.00000000000E+00 -0.00000000000E+00 -0.70580334884E+03  0.70580334884E+03  0.00000000000E+00 0. -1.
         23    2    1    2    0    0  0.42061624334E+02 -0.18833346967E+03 -0.16500730912E+03  0.27263929341E+03  0.99328224645E+02 0.  0.
        254    2    1    2    0    0 -0.42061624334E+02  0.18833346967E+03 -0.77392204527E+02  0.89656789063E+03  0.87212714276E+03 0.  0.
         23    2    4    4    0    0 -0.39900656043E+03  0.30122567596E+03 -0.34901587170E+02  0.50944452995E+03  0.91501175811E+02 0.  0.
         23    2    4    4    0    0  0.35694493610E+03 -0.11289220630E+03 -0.42490617357E+02  0.38712336068E+03  0.88908414516E+02 0.  0.
          2    1    3    3  502    0  0.49753919728E+02 -0.17180114354E+03 -0.17633938809E+03  0.25117058992E+03  0.00000000000E+00 0. -1.
         -2    1    3    3    0  502 -0.76922953933E+01 -0.16532326126E+02  0.11332078974E+02  0.21468703487E+02  0.00000000000E+00 0.  1.
         13    1    5    5    0    0 -0.12774091692E+03  0.14098696373E+03 -0.39709301178E+02  0.19434992770E+03  0.00000000000E+00 0.  1.
        -13    1    5    5    0    0 -0.27126564352E+03  0.16023871224E+03  0.48077140073E+01  0.31509460225E+03  0.00000000000E+00 0. -1.
          1    1    6    6  503    0  0.29110033939E+03 -0.67857414380E+02 -0.61387320297E+02  0.30514330957E+03  0.00000000000E+00 0. -1.
         -1    1    6    6    0  503  0.65844596708E+02 -0.45034791917E+02  0.18896702940E+02  0.81980051114E+02  0.00000000000E+00 0.  1.
<mgrwt>
<rscale>  0 0.11438041E+04</rscale>
<asrwt>0</asrwt>
<pdfrwt beam="1">  1        3 0.71292898E-01 0.11438041E+04</pdfrwt>
<pdfrwt beam="2">  1       -3 0.10858513E+00 0.11438041E+04</pdfrwt>
<totfact> 0.35012049E+00</totfact>
</mgrwt>
</event>
<event>
12    3  0.4192740E-008  0.1999792E+04  0.7818608E-02  0.8606718E-01
          1   -1    0    0  501    0  0.00000000000E+00  0.00000000000E+00  0.13417125605E+04  0.13417125605E+04  0.00000000000E+00 0. -1.
         -1   -1    0    0    0  501 -0.00000000000E+00 -0.00000000000E+00 -0.74516133517E+03  0.74516133517E+03  0.00000000000E+00 0.  1.
         23    2    1    2    0    0 -0.59220588579E+03  0.51618139651E+03  0.29602461329E+03  0.84447780207E+03  0.91439276324E+02 0.  0.
        254    2    1    2    0    0  0.59220588579E+03 -0.51618139651E+03  0.30052661204E+03  0.12423960936E+04  0.91437452042E+03 0.  0.
         23    2    4    4    0    0  0.27199578941E+03  0.20186704659E+03 -0.88238228447E+02  0.36136384262E+03  0.89809953986E+02 0.  0.
         23    2    4    4    0    0  0.32021009638E+03 -0.71804844310E+03  0.38876484049E+03  0.88103225098E+03  0.83376577135E+02 0.  0.
          3    1    3    3  502    0 -0.51351849423E+03  0.48150274200E+03  0.25059106580E+03  0.74722286952E+03  0.00000000000E+00 0. -1.
         -3    1    3    3    0  502 -0.78687391554E+02  0.34678654504E+02  0.45433547485E+02  0.97254932548E+02  0.00000000000E+00 0.  1.
         13    1    5    5    0    0  0.96995170553E+02  0.93691644134E+02  0.61785360280E+01  0.13499763553E+03  0.00000000000E+00 0.  1.
        -13    1    5    5    0    0  0.17500061886E+03  0.10817540246E+03 -0.94416764475E+02  0.22636620709E+03  0.00000000000E+00 0. -1.
          1    1    6    6  503    0  0.12284910728E+03 -0.26459536153E+03  0.18942037400E+03  0.34782565545E+03  0.00000000000E+00 0. -1.
         -1    1    6    6    0  503  0.19736098910E+03 -0.45345308157E+03  0.19934446649E+03  0.53320659554E+03  0.00000000000E+00 0.  1.
<mgrwt>
<rscale>  0 0.19997923E+04</rscale>
<asrwt>0</asrwt>
<pdfrwt beam="1">  1        1 0.20641732E+00 0.19997923E+04</pdfrwt>
<pdfrwt beam="2">  1       -1 0.11464021E+00 0.19997923E+04</pdfrwt>
<totfact> 0.54195404E+00</totfact>
</mgrwt>
</event>
<event>
12    3  0.4192740E-008  0.2872993E+04  0.7818608E-02  0.8280958E-01
          2   -1    0    0  501    0  0.00000000000E+00  0.00000000000E+00  0.16999838338E+04  0.16999838338E+04  0.00000000000E+00 0.  1.
         -2   -1    0    0    0  501 -0.00000000000E+00 -0.00000000000E+00 -0.12138481852E+04  0.12138481852E+04  0.00000000000E+00 0. -1.
         23    2    1    2    0    0 -0.12021072368E+04  0.37754383254E+02  0.70564902840E+03  0.13974372007E+04  0.91667749710E+02 0.  0.
        254    2    1    2    0    0  0.12021072368E+04 -0.37754383254E+02 -0.21951337986E+03  0.15163948183E+04  0.89709526744E+03 0.  0.
         23    2    4    4    0    0 -0.12548612471E+03 -0.62622976533E+02 -0.69729643604E+01  0.16911671561E+03  0.94251984511E+02 0.  0.
         23    2    4    4    0    0  0.13275933615E+04  0.24868593280E+02 -0.21254041550E+03  0.13472781027E+04  0.82838863739E+02 0.  0.
          1    1    3    3  502    0 -0.34997145361E+03  0.34389481033E+02  0.24670724201E+03  0.42956619747E+03  0.00000000000E+00 0. -1.
         -1    1    3    3    0  502 -0.85213578319E+03  0.33649022201E+01  0.45894178639E+03  0.96787100321E+03  0.00000000000E+00 0.  1.
         13    1    5    5    0    0 -0.47373729742E+02 -0.31367549652E+01  0.38297467934E+02  0.60998406139E+02  0.00000000000E+00 0.  1.
        -13    1    5    5    0    0 -0.78112394965E+02 -0.59486221568E+02 -0.45270432294E+02  0.10811830947E+03  0.00000000000E+00 0. -1.
          1    1    6    6  503    0  0.66400154210E+03  0.39830835264E-01 -0.66243757626E+02  0.66729774833E+03  0.00000000000E+00 0. -1.
         -1    1    6    6    0  503  0.66359181941E+03  0.24828762444E+02 -0.14629665788E+03  0.67998035438E+03  0.00000000000E+00 0.  1.
<mgrwt>
<rscale>  0 0.28729931E+04</rscale>
<asrwt>0</asrwt>
<pdfrwt beam="1">  1        2 0.26153597E+00 0.28729931E+04</pdfrwt>
<pdfrwt beam="2">  1       -2 0.18674587E+00 0.28729931E+04</pdfrwt>
<totfact> 0.13832209E+00</totfact>
</mgrwt>
</event>
<event>
12    3  0.4192740E-008  0.1855764E+04  0.7818608E-02  0.8677194E-01
          2   -1    0    0  501    0  0.00000000000E+00  0.00000000000E+00  0.14712212607E+04  0.14712212607E+04  0.00000000000E+00 0. -1.
         -2   -1    0    0    0  501 -0.00000000000E+00 -0.00000000000E+00 -0.58520441257E+03  0.58520441257E+03  0.00000000000E+00 0.  1.
         23    2    1    2    0    0 -0.62569539907E+03 -0.13695377231E+03  0.64535860199E+03  0.91572676671E+03  0.10870472822E+03 0.  0.
        254    2    1    2    0    0  0.62569539907E+03  0.13695377231E+03  0.24065824614E+03  0.11406989066E+04  0.91270287380E+03 0.  0.
         23    2    4    4    0    0  0.18253880352E+03  0.30123436558E+03  0.48065374050E+03  0.60280270670E+03  0.90997401889E+02 0.  0.
         23    2    4    4    0    0  0.44315659555E+03 -0.16428059328E+03 -0.23999549436E+03  0.53789619987E+03  0.91425395889E+02 0.  0.
          4    1    3    3  502    0 -0.30089833603E+03 -0.10041540215E+03  0.25789974047E+03  0.40882189001E+03  0.00000000000E+00 0. -1.
         -4    1    3    3    0  502 -0.32479706303E+03 -0.36538370158E+02  0.38745886152E+03  0.50690487670E+03  0.00000000000E+00 0.  1.
         13    1    5    5    0    0  0.14174577238E+03  0.28523368061E+03  0.43874521341E+03  0.54216923449E+03  0.00000000000E+00 0. -1.
        -13    1    5    5    0    0  0.40793031140E+02  0.16000684979E+02  0.41908527091E+02  0.60633472210E+02  0.00000000000E+00 0.  1.
          3    1    6    6  503    0  0.37052080940E+03 -0.12109888480E+03 -0.23050919265E+03  0.45286322217E+03  0.00000000000E+00 0. -1.
         -3    1    6    6    0  503  0.72635786144E+02 -0.43181708474E+02 -0.94863017145E+01  0.85032977695E+02  0.00000000000E+00 0.  1.
<mgrwt>
<rscale>  0 0.18557642E+04</rscale>
<asrwt>0</asrwt>
<pdfrwt beam="1">  1        2 0.22634173E+00 0.18557642E+04</pdfrwt>
<pdfrwt beam="2">  1       -2 0.90031448E-01 0.18557642E+04</pdfrwt>
<totfact> 0.13080700E+01</totfact>
</mgrwt>
</event>
<event>
12    3  0.4192740E-008  0.2137272E+04  0.7818608E-02  0.8545000E-01
         -2   -1    0    0    0  501 -0.00000000000E+00  0.00000000000E+00  0.84023718211E+03  0.84023718211E+03  0.00000000000E+00 0.  1.
          2   -1    0    0  501    0  0.00000000000E+00 -0.00000000000E+00 -0.13591199446E+04  0.13591199446E+04  0.00000000000E+00 0. -1.
         23    2    1    2    0    0  0.44365894344E+03 -0.13978091246E+03 -0.96412650712E+03  0.10744343935E+04  0.92181248603E+02 0.  0.
        254    2    1    2    0    0 -0.44365894344E+03  0.13978091246E+03  0.44524374460E+03  0.11249227333E+04  0.92240837059E+03 0.  0.
         23    2    4    4    0    0  0.70728585463E+02  0.26872958085E+03 -0.14486314709E+03  0.32655517937E+03  0.91841348864E+02 0.  0.
         23    2    4    4    0    0 -0.51438752890E+03 -0.12894866840E+03  0.59010689169E+03  0.79836755389E+03  0.89119686459E+02 0.  0.
          3    1    3    3  502    0  0.45397406471E+02  0.75790612182E+01 -0.13941306919E+03  0.14681406794E+03  0.00000000000E+00 0.  1.
         -3    1    3    3    0  502  0.39826153697E+03 -0.14735997368E+03 -0.82471343793E+03  0.92762032555E+03  0.00000000000E+00 0. -1.
         13    1    5    5    0    0  0.11305911018E+02  0.18858031393E+03 -0.11972898354E+03  0.22366355967E+03  0.00000000000E+00 0.  1.
        -13    1    5    5    0    0  0.59422674444E+02  0.80149266926E+02 -0.25134163550E+02  0.10289161970E+03  0.00000000000E+00 0. -1.
          4    1    6    6  503    0 -0.50138339076E+03 -0.10874007661E+03  0.55475090711E+03  0.75561781194E+03  0.00000000000E+00 0. -1.
         -4    1    6    6    0  503 -0.13004138144E+02 -0.20208591784E+02  0.35355984583E+02  0.42749741948E+02  0.00000000000E+00 0.  1.
<mgrwt>
<rscale>  0 0.21372722E+04</rscale>
<asrwt>0</asrwt>
<pdfrwt beam="1">  1        2 0.20909537E+00 0.21372722E+04</pdfrwt>
<pdfrwt beam="2">  1       -2 0.12926726E+00 0.21372722E+04</pdfrwt>
<totfact> 0.61841444E+00</totfact>
</mgrwt>
</event>
<event>
12    3  0.4192740E-008  0.1586831E+04  0.7818608E-02  0.8828679E-01
          2   -1    0    0  501    0  0.00000000000E+00  0.00000000000E+00  0.70173011923E+03  0.70173011923E+03  0.00000000000E+00 0. -1.
         -2   -1    0    0    0  501 -0.00000000000E+00 -0.00000000000E+00 -0.89707979862E+03  0.89707979862E+03  0.00000000000E+00 0.  1.
         23    2    1    2    0    0  0.46392391646E+03  0.18642524554E+03  0.12974790399E+03  0.52372925905E+03  0.86475694642E+02 0.  0.
        254    2    1    2    0    0 -0.46392391646E+03 -0.18642524554E+03 -0.32509758338E+03  0.10750806588E+04  0.89449997863E+03 0.  0.
         23    2    4    4    0    0 -0.79559646027E+02 -0.23993081175E+03 -0.55399106258E+03  0.61557769733E+03  0.90184656826E+02 0.  0.
         23    2    4    4    0    0 -0.38436427043E+03  0.53505566214E+02  0.22889347920E+03  0.45950296147E+03  0.90288475341E+02 0.  0.
          1    1    3    3  502    0  0.46424630868E+03  0.17905857232E+03  0.12061425185E+03  0.51199062998E+03  0.00000000000E+00 0. -1.
         -1    1    3    3    0  502 -0.32239221958E+00  0.73666732181E+01  0.91336521390E+01  0.11738629070E+02  0.00000000000E+00 0.  1.
         13    1    5    5    0    0 -0.61326768705E+02 -0.15321413795E+03 -0.44796660411E+03  0.47739880920E+03  0.00000000000E+00 0. -1.
        -13    1    5    5    0    0 -0.18232877322E+02 -0.86716673803E+02 -0.10602445847E+03  0.13817888813E+03  0.00000000000E+00 0.  1.
          3    1    6    6  503    0 -0.34442128329E+03  0.68542325509E+02  0.22402444547E+03  0.41654654354E+03  0.00000000000E+00 0. -1.
         -3    1    6    6    0  503 -0.39942987140E+02 -0.15036759296E+02  0.48690337358E+01  0.42956417930E+02  0.00000000000E+00 0.  1.
<mgrwt>
<rscale>  0 0.15868307E+04</rscale>
<asrwt>0</asrwt>
<pdfrwt beam="1">  1        2 0.10795848E+00 0.15868307E+04</pdfrwt>
<pdfrwt beam="2">  1       -2 0.13801228E+00 0.15868307E+04</pdfrwt>
<totfact> 0.14607947E+01</totfact>
</mgrwt>
</event>
<event>
12    3  0.4192740E-008  0.1971776E+04  0.7818608E-02  0.8619931E-01
          1   -1    0    0  501    0  0.00000000000E+00  0.00000000000E+00  0.16249627256E+04  0.16249627256E+04  0.00000000000E+00 0. -1.
         -1   -1    0    0    0  501 -0.00000000000E+00 -0.00000000000E+00 -0.59815247104E+03  0.59815247104E+03  0.00000000000E+00 0.  1.
         23    2    1    2    0    0 -0.38968121128E+03 -0.66281469011E+03  0.56442053672E+03  0.95926254610E+03  0.10217304062E+03 0.  0.
        254    2    1    2    0    0  0.38968121128E+03  0.66281469011E+03  0.46238971779E+03  0.12638526505E+04  0.89013735523E+03 0.  0.
         23    2    4    4    0    0  0.50643736761E+03  0.81406709885E+03  0.40399404702E+03  0.10441095332E+04  0.88144645175E+02 0.  0.
         23    2    4    4    0    0 -0.11675615633E+03 -0.15125240874E+03  0.58395670771E+02  0.21974311732E+03  0.91475089813E+02 0.  0.
          2    1    3    3  502    0 -0.15125571449E+03 -0.22519035861E+03  0.25718758184E+03  0.37381070213E+03  0.00000000000E+00 0. -1.
         -2    1    3    3    0  502 -0.23842549679E+03 -0.43762433151E+03  0.30723295488E+03  0.58545184397E+03  0.00000000000E+00 0.  1.
         13    1    5    5    0    0  0.26662850749E+03  0.50078736788E+03  0.21586557696E+03  0.60702281354E+03  0.00000000000E+00 0. -1.
        -13    1    5    5    0    0  0.23980886012E+03  0.31327973097E+03  0.18812847006E+03  0.43708671963E+03  0.00000000000E+00 0.  1.
          1    1    6    6  503    0 -0.10902841808E+03 -0.15510368409E+03  0.32383952817E+02  0.19233582393E+03  0.00000000000E+00 0. -1.
         -1    1    6    6    0  503 -0.77277382509E+01  0.38512753496E+01  0.26011717954E+02  0.27407293394E+02  0.00000000000E+00 0.  1.
<mgrwt>
<rscale>  0 0.19717763E+04</rscale>
<asrwt>0</asrwt>
<pdfrwt beam="1">  1        1 0.24999426E+00 0.19717763E+04</pdfrwt>
<pdfrwt beam="2">  1       -1 0.92023458E-01 0.19717763E+04</pdfrwt>
<totfact> 0.57349587E+00</totfact>
</mgrwt>
</event>
<event>
12    3  0.4192740E-008  0.2747530E+04  0.7818608E-02  0.8319746E-01
         -2   -1    0    0    0  501 -0.00000000000E+00  0.00000000000E+00  0.44837143465E+04  0.44837143465E+04  0.00000000000E+00 0.  1.
          2   -1    0    0  501    0  0.00000000000E+00 -0.00000000000E+00 -0.42090778538E+03  0.42090778538E+03  0.00000000000E+00 0. -1.
         23    2    1    2    0    0  0.11680553989E+04  0.34736913337E+03  0.16650422570E+04  0.20653149779E+04  0.90230318846E+02 0.  0.
        254    2    1    2    0    0 -0.11680553989E+04 -0.34736913337E+03  0.23977643041E+04  0.28393071540E+04  0.90960031178E+03 0.  0.
         23    2    4    4    0    0 -0.99870695203E+03  0.62567490792E+02  0.19905151801E+04  0.22297157722E+04  0.90285523472E+02 0.  0.
         23    2    4    4    0    0 -0.16934844685E+03 -0.40993662416E+03  0.40724912401E+03  0.60959138181E+03  0.94988796653E+02 0.  0.
          2    1    3    3  502    0  0.49877568663E+02  0.25325809706E+02  0.52111163315E+02  0.76450911277E+02  0.00000000000E+00 0. -1.
         -2    1    3    3    0  502  0.11181778302E+04  0.32204332367E+03  0.16129310937E+04  0.19888640666E+04  0.00000000000E+00 0.  1.
         13    1    5    5    0    0 -0.89965302555E+03  0.66207521350E+02  0.18439324137E+04  0.20527653906E+04  0.00000000000E+00 0. -1.
        -13    1    5    5    0    0 -0.99053926481E+02 -0.36400305585E+01  0.14658276633E+03  0.17695038163E+03  0.00000000000E+00 0.  1.
          4    1    6    6  503    0 -0.14256080193E+03 -0.23868076322E+03  0.27984384389E+03  0.39446757274E+03  0.00000000000E+00 0. -1.
         -4    1    6    6    0  503 -0.26787644922E+02 -0.17125586094E+03  0.12740528013E+03  0.21512380908E+03  0.00000000000E+00 0.  1.
<mgrwt>
<rscale>  0 0.27475300E+04</rscale>
<asrwt>0</asrwt>
<pdfrwt beam="1">  1        2 0.64755047E-01 0.27475300E+04</pdfrwt>
<pdfrwt beam="2">  1       -2 0.68980218E+00 0.27475300E+04</pdfrwt>
<totfact> 0.16042088E-02</totfact>
</mgrwt>
</event>
<event>
12    3  0.4192740E-008  0.1278563E+04  0.7818608E-02  0.9046740E-01
         -2   -1    0    0    0  501 -0.00000000000E+00  0.00000000000E+00  0.33513119875E+03  0.33513119875E+03  0.00000000000E+00 0.  1.
          2   -1    0    0  501    0  0.00000000000E+00 -0.00000000000E+00 -0.12194657889E+04  0.12194657889E+04  0.00000000000E+00 0. -1.
         23    2    1    2    0    0  0.32773197280E+03  0.36541058952E+02 -0.19564397344E+03  0.39404288451E+03  0.90828054617E+02 0.  0.
        254    2    1    2    0    0 -0.32773197280E+03 -0.36541058952E+02 -0.68869061673E+03  0.11605541032E+04  0.87398373314E+03 0.  0.
         23    2    4    4    0    0 -0.37352496221E+03 -0.16249599562E+03  0.34486495503E+02  0.41907545728E+03  0.92244645014E+02 0.  0.
         23    2    4    4    0    0  0.45792989407E+02  0.12595493667E+03 -0.72317711223E+03  0.74147864587E+03  0.94041494456E+02 0.  0.
          3    1    3    3  502    0  0.86649263905E+02 -0.22562783434E+02 -0.80538944642E+02  0.12043129052E+03  0.00000000000E+00 0. -1.
         -3    1    3    3    0  502  0.24108270890E+03  0.59103842386E+02 -0.11510502880E+03  0.27361159400E+03  0.00000000000E+00 0.  1.
         13    1    5    5    0    0 -0.12794950388E+03 -0.14599155159E+02 -0.91368914805E+01  0.12910342234E+03  0.00000000000E+00 0. -1.
        -13    1    5    5    0    0 -0.24557545833E+03 -0.14789684046E+03  0.43623386984E+02  0.28997203494E+03  0.00000000000E+00 0.  1.
          4    1    6    6  503    0  0.26006887780E+02  0.74007523325E+02 -0.19208340225E+03  0.20748374669E+03  0.00000000000E+00 0. -1.
         -4    1    6    6    0  503  0.19786101628E+02  0.51947413346E+02 -0.53109370998E+03  0.53399489918E+03  0.00000000000E+00 0.  1.
<mgrwt>
<rscale>  0 0.12785633E+04</rscale>
<asrwt>0</asrwt>
<pdfrwt beam="1">  1        2 0.18761012E+00 0.12785633E+04</pdfrwt>
<pdfrwt beam="2">  1       -2 0.51558646E-01 0.12785633E+04</pdfrwt>
<totfact> 0.64310874E+01</totfact>
</mgrwt>
</event>
<event>
12    3  0.4192740E-008  0.1671449E+04  0.7818608E-02  0.8777818E-01
          2   -1    0    0  501    0  0.00000000000E+00  0.00000000000E+00  0.19420074460E+04  0.19420074460E+04  0.00000000000E+00 0. -1.
         -2   -1    0    0    0  501 -0.00000000000E+00 -0.00000000000E+00 -0.35964620226E+03  0.35964620226E+03  0.00000000000E+00 0.  1.
         23    2    1    2    0    0  0.27261545844E+03  0.11551181404E+03 -0.13549671616E+03  0.33817554982E+03  0.91330033647E+02 0.  0.
        254    2    1    2    0    0 -0.27261545844E+03 -0.11551181404E+03  0.17178579599E+04  0.19634780985E+04  0.90363051371E+03 0.  0.
         23    2    4    4    0    0 -0.54175514184E+03 -0.24440276111E+03  0.13678520812E+04  0.14940611284E+04  0.89263632945E+02 0.  0.
         23    2    4    4    0    0  0.26913968340E+03  0.12889094707E+03  0.35000587878E+03  0.46941697006E+03  0.93803684269E+02 0.  0.
          1    1    3    3  502    0  0.70045827491E+02 -0.78962695469E+01 -0.14772473746E+02  0.72020795624E+02  0.00000000000E+00 0. -1.
         -1    1    3    3    0  502  0.20256963095E+03  0.12340808359E+03 -0.12072424242E+03  0.26615475420E+03  0.00000000000E+00 0.  1.
         13    1    5    5    0    0 -0.51954603411E+03 -0.24967597046E+03  0.13342345187E+04  0.14534262701E+04  0.00000000000E+00 0.  1.
        -13    1    5    5    0    0 -0.22209107727E+02  0.52732093574E+01  0.33617562464E+02  0.40634858299E+02  0.00000000000E+00 0. -1.
          4    1    6    6  503    0  0.28670461140E+02  0.48905539307E+02  0.89784961141E+02  0.10618420958E+03  0.00000000000E+00 0. -1.
         -4    1    6    6    0  503  0.24046922226E+03  0.79985407761E+02  0.26022091764E+03  0.36323276048E+03  0.00000000000E+00 0.  1.
<mgrwt>
<rscale>  0 0.16714492E+04</rscale>
<asrwt>0</asrwt>
<pdfrwt beam="1">  1        2 0.29877037E+00 0.16714492E+04</pdfrwt>
<pdfrwt beam="2">  1       -2 0.55330186E-01 0.16714492E+04</pdfrwt>
<totfact> 0.21073169E+01</totfact>
</mgrwt>
</event>
<event>
12    3  0.4192740E-008  0.1445110E+04  0.7818608E-02  0.8921798E-01
         -1   -1    0    0    0  501 -0.00000000000E+00  0.00000000000E+00  0.47303447054E+03  0.47303447054E+03  0.00000000000E+00 0.  1.
          1   -1    0    0  501    0  0.00000000000E+00 -0.00000000000E+00 -0.11036941594E+04  0.11036941594E+04  0.00000000000E+00 0. -1.
         23    2    1    2    0    0 -0.17093004648E+03 -0.20345103904E+03  0.19101513768E+03  0.34089958903E+03  0.95479531327E+02 0.  0.
        254    2    1    2    0    0  0.17093004648E+03  0.20345103904E+03 -0.82167482655E+03  0.12358290409E+04  0.88403308293E+03 0.  0.
         23    2    4    4    0    0  0.74347998390E+02 -0.21605677929E+03  0.57605892006E+02  0.25242943694E+03  0.90520854485E+02 0.  0.
         23    2    4    4    0    0  0.96582048088E+02  0.41950781833E+03 -0.87928071855E+03  0.98339960398E+03  0.92872479429E+02 0.  0.
          4    1    3    3  502    0  0.12173862167E+02 -0.10265201515E+02  0.14331667026E+02  0.21423677601E+02  0.00000000000E+00 0. -1.
         -4    1    3    3    0  502 -0.18310390864E+03 -0.19318583752E+03  0.17668347065E+03  0.31947591143E+03  0.00000000000E+00 0.  1.
         13    1    5    5    0    0  0.31640117483E+02 -0.18374946752E+03  0.21155155445E+02  0.18764995190E+03  0.00000000000E+00 0. -1.
        -13    1    5    5    0    0  0.42707880907E+02 -0.32307311774E+02  0.36450736561E+02  0.64779485035E+02  0.00000000000E+00 0.  1.
          3    1    6    6  503    0 -0.17311232611E+02  0.40333209218E+02 -0.10390377888E+03  0.11279380216E+03  0.00000000000E+00 0.  1.
         -3    1    6    6    0  503  0.11389328070E+03  0.37917460911E+03 -0.77537693967E+03  0.87060580182E+03  0.00000000000E+00 0. -1.
<mgrwt>
<rscale>  0 0.14451095E+04</rscale>
<asrwt>0</asrwt>
<pdfrwt beam="1">  1        1 0.16979910E+00 0.14451095E+04</pdfrwt>
<pdfrwt beam="2">  1       -1 0.72774535E-01 0.14451095E+04</pdfrwt>
<totfact> 0.23306542E+01</totfact>
</mgrwt>
</event>
<event>
12    3  0.4192740E-008  0.2040075E+04  0.7818608E-02  0.8588110E-01
         -2   -1    0    0    0  501 -0.00000000000E+00  0.00000000000E+00  0.16038393824E+04  0.16038393824E+04  0.00000000000E+00 0.  1.
          2   -1    0    0  501    0  0.00000000000E+00 -0.00000000000E+00 -0.64874131522E+03  0.64874131522E+03  0.00000000000E+00 0. -1.
         23    2    1    2    0    0 -0.52958556675E+03  0.39214253258E+03 -0.14864862046E+03  0.68240811464E+03  0.96683939734E+02 0.  0.
        254    2    1    2    0    0  0.52958556675E+03 -0.39214253258E+03  0.11037466877E+04  0.15701725830E+04  0.90163659614E+03 0.  0.
         23    2    4    4    0    0  0.67033590077E+03 -0.14138227640E+03  0.38626999096E+03  0.79197627509E+03  0.93181255842E+02 0.  0.
         23    2    4    4    0    0 -0.14075033402E+03 -0.25076025618E+03  0.71747669669E+03  0.77819630790E+03  0.90140560980E+02 0.  0.
          2    1    3    3  502    0 -0.35221069986E+03  0.26451160144E+03 -0.14543168169E+03  0.46386327558E+03  0.00000000000E+00 0. -1.
         -2    1    3    3    0  502 -0.17737486689E+03  0.12763093114E+03 -0.32169387714E+01  0.21854483907E+03  0.00000000000E+00 0.  1.
         13    1    5    5    0    0  0.10004855863E+03 -0.51802855833E+02  0.44656994966E+02  0.12119198470E+03  0.00000000000E+00 0. -1.
        -13    1    5    5    0    0  0.57028734215E+03 -0.89579420571E+02  0.34161299600E+03  0.67078429039E+03  0.00000000000E+00 0.  1.
          1    1    6    6  503    0 -0.25022923025E+02 -0.52928522459E+02  0.69459618176E+02  0.90841695953E+02  0.00000000000E+00 0. -1.
         -1    1    6    6    0  503 -0.11572741100E+03 -0.19783173372E+03  0.64801707852E+03  0.68735461195E+03  0.00000000000E+00 0.  1.
<mgrwt>
<rscale>  0 0.20400754E+04</rscale>
<asrwt>0</asrwt>
<pdfrwt beam="1">  1        2 0.99806357E-01 0.20400754E+04</pdfrwt>
<pdfrwt beam="2">  1       -2 0.24674452E+00 0.20400754E+04</pdfrwt>
<totfact> 0.28082400E+00</totfact>
</mgrwt>
</event>
<event>
12    3  0.4192740E-008  0.1433479E+04  0.7818608E-02  0.8929935E-01
          1   -1    0    0  501    0  0.00000000000E+00  0.00000000000E+00  0.69528647232E+03  0.69528647232E+03  0.00000000000E+00 0. -1.
         -1   -1    0    0    0  501 -0.00000000000E+00 -0.00000000000E+00 -0.73885474798E+03  0.73885474798E+03  0.00000000000E+00 0.  1.
         23    2    1    2    0    0 -0.31746626785E+03  0.18369654571E+02 -0.29895598612E+03  0.44589727846E+03  0.91254730677E+02 0.  0.
        254    2    1    2    0    0  0.31746626785E+03 -0.18369654571E+02  0.25538771046E+03  0.98824394184E+03  0.90015605897E+03 0.  0.
         23    2    4    4    0    0 -0.28552286540E+03 -0.14174739553E+03  0.91541768611E+02  0.34481362556E+03  0.94344635081E+02 0.  0.
         23    2    4    4    0    0  0.60298913325E+03  0.12337774096E+03  0.16384594185E+03  0.64343031628E+03  0.91318768419E+02 0.  0.
          3    1    3    3  502    0 -0.12415846101E+03 -0.18461972672E+02 -0.69010012126E+02  0.14324297417E+03  0.00000000000E+00 0. -1.
         -3    1    3    3    0  502 -0.19330780684E+03  0.36831627243E+02 -0.22994597399E+03  0.30265430429E+03  0.00000000000E+00 0.  1.
         13    1    5    5    0    0 -0.13364766592E+03 -0.14754179857E+02  0.38168373376E+02  0.13977198988E+03  0.00000000000E+00 0.  1.
        -13    1    5    5    0    0 -0.15187519948E+03 -0.12699321568E+03  0.53373395235E+02  0.20504163568E+03  0.00000000000E+00 0. -1.
          1    1    6    6  503    0  0.32058039200E+03  0.85350470214E+02  0.45413493013E+02  0.33484156828E+03  0.00000000000E+00 0. -1.
         -1    1    6    6    0  503  0.28240874124E+03  0.38027270747E+02  0.11843244883E+03  0.30858874799E+03  0.00000000000E+00 0.  1.
<mgrwt>
<rscale>  0 0.14334793E+04</rscale>
<asrwt>0</asrwt>
<pdfrwt beam="1">  1        1 0.10696715E+00 0.14334793E+04</pdfrwt>
<pdfrwt beam="2">  1       -1 0.11366996E+00 0.14334793E+04</pdfrwt>
<totfact> 0.18901252E+01</totfact>
</mgrwt>
</event>
<event>
12    3  0.4192740E-008  0.1264686E+04  0.7818608E-02  0.9058048E-01
         -1   -1    0    0    0  501 -0.00000000000E+00  0.00000000000E+00  0.16848302076E+03  0.16848302076E+03  0.00000000000E+00 0.  1.
          1   -1    0    0  501    0  0.00000000000E+00 -0.00000000000E+00 -0.23732806388E+04  0.23732806388E+04  0.00000000000E+00 0. -1.
         23    2    1    2    0    0 -0.67083376763E+02  0.12452346796E+03 -0.87776028147E+00  0.16804544351E+03  0.90731621342E+02 0.  0.
        254    2    1    2    0    0  0.67083376763E+02 -0.12452346796E+03 -0.22039198578E+04  0.23737182161E+04  0.87021213290E+03 0.  0.
         23    2    4    4    0    0 -0.27926853206E+02  0.28684032384E+03 -0.16171472769E+04  0.16451021937E+04  0.90214365852E+02 0.  0.
         23    2    4    4    0    0  0.95010229969E+02 -0.41136379180E+03 -0.58677258086E+03  0.72861602241E+03  0.91280520675E+02 0.  0.
          2    1    3    3  502    0 -0.34179738454E+02 -0.48022511628E+01  0.19391821153E+01  0.34569879437E+02  0.00000000000E+00 0. -1.
         -2    1    3    3    0  502 -0.32903638309E+02  0.12932571912E+03 -0.28169423968E+01  0.13347556408E+03  0.00000000000E+00 0.  1.
         13    1    5    5    0    0 -0.29674425332E+02  0.18467685260E+03 -0.12532679497E+04  0.12671490304E+04  0.00000000000E+00 0.  1.
        -13    1    5    5    0    0  0.17475721254E+01  0.10216347124E+03 -0.36387932724E+03  0.37795316331E+03  0.00000000000E+00 0. -1.
          2    1    6    6  503    0  0.20702803880E+02 -0.14447058662E+02 -0.17716565679E+02  0.30841535175E+02  0.00000000000E+00 0. -1.
         -2    1    6    6    0  503  0.74307426089E+02 -0.39691673314E+03 -0.56905601518E+03  0.69777448723E+03  0.00000000000E+00 0.  1.
<mgrwt>
<rscale>  0 0.12646857E+04</rscale>
<asrwt>0</asrwt>
<pdfrwt beam="1">  1        1 0.36512008E+00 0.12646857E+04</pdfrwt>
<pdfrwt beam="2">  1       -1 0.25920466E-01 0.12646857E+04</pdfrwt>
<totfact> 0.21576608E+01</totfact>
</mgrwt>
</event>
<event>
12    3  0.4192740E-008  0.1488838E+04  0.7818608E-02  0.8891910E-01
         -2   -1    0    0    0  501 -0.00000000000E+00  0.00000000000E+00  0.40439843546E+03  0.40439843546E+03  0.00000000000E+00 0.  1.
          2   -1    0    0  501    0  0.00000000000E+00 -0.00000000000E+00 -0.13703308390E+04  0.13703308390E+04  0.00000000000E+00 0. -1.
         23    2    1    2    0    0 -0.27344637646E+03  0.75800597041E+02  0.13668561696E+03  0.32785274649E+03  0.91026447735E+02 0.  0.
        254    2    1    2    0    0  0.27344637646E+03 -0.75800597041E+02 -0.11026180205E+04  0.14468765280E+04  0.89284183189E+03 0.  0.
         23    2    4    4    0    0 -0.26348528090E+03  0.20578654994E+02 -0.92161569659E+02  0.29452026671E+03  0.91654014051E+02 0.  0.
         23    2    4    4    0    0  0.53693165736E+03 -0.96379252035E+02 -0.10104564508E+04  0.11523562613E+04  0.96530559535E+02 0.  0.
          4    1    3    3  502    0 -0.40310126624E+02  0.40241688745E+02  0.36290582260E+01  0.57074248879E+02  0.00000000000E+00 0. -1.
         -4    1    3    3    0  502 -0.23313624984E+03  0.35558908296E+02  0.13305655873E+03  0.27077849761E+03  0.00000000000E+00 0.  1.
         13    1    5    5    0    0 -0.15408071429E+02 -0.17220563221E+02 -0.26443587369E+02  0.35117229044E+02  0.00000000000E+00 0.  1.
        -13    1    5    5    0    0 -0.24807720947E+03  0.37799218215E+02 -0.65717982290E+02  0.25940303767E+03  0.00000000000E+00 0. -1.
          3    1    6    6  503    0  0.28468947844E+03 -0.50465693125E+02 -0.43441766130E+03  0.52183674628E+03  0.00000000000E+00 0.  1.
         -3    1    6    6    0  503  0.25224217892E+03 -0.45913558910E+02 -0.57603878955E+03  0.63051951499E+03  0.00000000000E+00 0. -1.
<mgrwt>
<rscale>  0 0.14888380E+04</rscale>
<asrwt>0</asrwt>
<pdfrwt beam="1">  1        2 0.21082013E+00 0.14888380E+04</pdfrwt>
<pdfrwt beam="2">  1       -2 0.62215143E-01 0.14888380E+04</pdfrwt>
<totfact> 0.34894471E+01</totfact>
</mgrwt>
</event>
<event>
12    3  0.4192740E-008  0.1331635E+04  0.7818608E-02  0.9004848E-01
          1   -1    0    0  501    0  0.00000000000E+00  0.00000000000E+00  0.69152205243E+03  0.69152205243E+03  0.00000000000E+00 0. -1.
         -1   -1    0    0    0  501 -0.00000000000E+00 -0.00000000000E+00 -0.64106858519E+03  0.64106858519E+03  0.00000000000E+00 0.  1.
         23    2    1    2    0    0 -0.10571104539E+03  0.32847791027E+03 -0.22736387057E+02  0.35786193477E+03  0.92063339110E+02 0.  0.
        254    2    1    2    0    0  0.10571104539E+03 -0.32847791027E+03  0.73189854293E+02  0.97472870285E+03  0.90866205310E+03 0.  0.
         23    2    4    4    0    0 -0.10551917837E+02  0.91197886551E+02  0.40166330367E+03  0.42198011680E+03  0.91134033033E+02 0.  0.
         23    2    4    4    0    0  0.11626296323E+03 -0.41967579682E+03 -0.32847344937E+03  0.55274858606E+03  0.89394302907E+02 0.  0.
          1    1    3    3  502    0 -0.60600330438E+02  0.13368726116E+03  0.32687178991E+02  0.15037664552E+03  0.00000000000E+00 0. -1.
         -1    1    3    3    0  502 -0.45110714950E+02  0.19479064910E+03 -0.55423566048E+02  0.20748528925E+03  0.00000000000E+00 0.  1.
         13    1    5    5    0    0 -0.21278093620E+02  0.70721324312E+02  0.13141789622E+03  0.15074789029E+03  0.00000000000E+00 0. -1.
        -13    1    5    5    0    0  0.10726175784E+02  0.20476562239E+02  0.27024540745E+03  0.27123222650E+03  0.00000000000E+00 0.  1.
          3    1    6    6  503    0  0.12390281396E+03 -0.38062372097E+03 -0.27314699677E+03  0.48459839674E+03  0.00000000000E+00 0. -1.
         -3    1    6    6    0  503 -0.76398507325E+01 -0.39052075845E+02 -0.55326452601E+02  0.68150189321E+02  0.00000000000E+00 0.  1.
<mgrwt>
<rscale>  0 0.13316352E+04</rscale>
<asrwt>0</asrwt>
<pdfrwt beam="1">  1        1 0.10638801E+00 0.13316352E+04</pdfrwt>
<pdfrwt beam="2">  1       -1 0.98625936E-01 0.13316352E+04</pdfrwt>
<totfact> 0.26773959E+01</totfact>
</mgrwt>
</event>
<event>
12    3  0.4192740E-008  0.1311995E+04  0.7818608E-02  0.9020107E-01
         -2   -1    0    0    0  501 -0.00000000000E+00  0.00000000000E+00  0.10367990774E+04  0.10367990774E+04  0.00000000000E+00 0.  1.
          2   -1    0    0  501    0  0.00000000000E+00 -0.00000000000E+00 -0.41505911131E+03  0.41505911131E+03  0.00000000000E+00 0. -1.
         23    2    1    2    0    0  0.13916849394E+03  0.30771145446E+03  0.11537218304E+03  0.36807613574E+03  0.90083806396E+02 0.  0.
        254    2    1    2    0    0 -0.13916849394E+03 -0.30771145446E+03  0.50636778306E+03  0.10837820530E+04  0.89672793964E+03 0.  0.
         23    2    4    4    0    0 -0.80308969602E+02 -0.61764626010E+03  0.33241164847E+03  0.71212199580E+03  0.93186907005E+02 0.  0.
         23    2    4    4    0    0 -0.58859524337E+02  0.30993480565E+03  0.17395613459E+03  0.37166005719E+03  0.91358819991E+02 0.  0.
          3    1    3    3  502    0  0.39718337101E+02  0.26387515832E+02  0.34712905811E+02  0.58981633783E+02  0.00000000000E+00 0. -1.
         -3    1    3    3    0  502  0.99450156837E+02  0.28132393863E+03  0.80659277227E+02  0.30909450196E+03  0.00000000000E+00 0.  1.
         13    1    5    5    0    0  0.10933710973E+02 -0.13159269614E+03  0.10028349658E+03  0.16581002201E+03  0.00000000000E+00 0. -1.
        -13    1    5    5    0    0 -0.91242680575E+02 -0.48605356396E+03  0.23212815190E+03  0.54631197379E+03  0.00000000000E+00 0.  1.
          1    1    6    6  503    0  0.71175547233E+01  0.37010194994E+02  0.55094761385E+02  0.66752129934E+02  0.00000000000E+00 0. -1.
         -1    1    6    6    0  503 -0.65977079060E+02  0.27292461065E+03  0.11886137321E+03  0.30490792725E+03  0.00000000000E+00 0.  1.
<mgrwt>
<rscale>  0 0.13119953E+04</rscale>
<asrwt>0</asrwt>
<pdfrwt beam="1">  1        2 0.63855248E-01 0.13119953E+04</pdfrwt>
<pdfrwt beam="2">  1       -2 0.15950755E+00 0.13119953E+04</pdfrwt>
<totfact> 0.18950298E+01</totfact>
</mgrwt>
</event>
<event>
12    3  0.4192740E-008  0.1598784E+04  0.7818608E-02  0.8821295E-01
          1   -1    0    0  501    0  0.00000000000E+00  0.00000000000E+00  0.36708077340E+03  0.36708077340E+03  0.00000000000E+00 0. -1.
         -1   -1    0    0    0  501 -0.00000000000E+00 -0.00000000000E+00 -0.17408364266E+04  0.17408364266E+04  0.00000000000E+00 0.  1.
         23    2    1    2    0    0  0.21833794635E+03 -0.42154522633E+03 -0.80078314389E+03  0.93540445567E+03  0.91411243811E+02 0.  0.
        254    2    1    2    0    0 -0.21833794635E+03  0.42154522633E+03 -0.57297250932E+03  0.11725127443E+04  0.90615495504E+03 0.  0.
         23    2    4    4    0    0  0.24636740702E+03  0.38945679202E+03 -0.60348238897E+02  0.47395496333E+03  0.92832673327E+02 0.  0.
         23    2    4    4    0    0 -0.46470535336E+03  0.32088434306E+02 -0.51262427042E+03  0.69855778100E+03  0.90656481914E+02 0.  0.
          1    1    3    3  502    0  0.50007827311E+01 -0.82111758662E+02 -0.14864702165E+03  0.16989198270E+03  0.00000000000E+00 0. -1.
         -1    1    3    3    0  502  0.21333716362E+03 -0.33943346766E+03 -0.65213612224E+03  0.76551247297E+03  0.00000000000E+00 0.  1.
         13    1    5    5    0    0  0.14939760722E+03  0.31201166251E+03 -0.41016694438E+02  0.34835799375E+03  0.00000000000E+00 0.  1.
        -13    1    5    5    0    0  0.96969799794E+02  0.77445129510E+02 -0.19331544460E+02  0.12559696958E+03  0.00000000000E+00 0. -1.
          1    1    6    6  503    0 -0.46402925918E+03  0.39593650667E+02 -0.49637367881E+03  0.68064501730E+03  0.00000000000E+00 0. -1.
         -1    1    6    6    0  503 -0.67609417946E+00 -0.75052163617E+01 -0.16250591607E+02  0.17912763705E+02  0.00000000000E+00 0.  1.
<mgrwt>
<rscale>  0 0.15987840E+04</rscale>
<asrwt>0</asrwt>
<pdfrwt beam="1">  1        1 0.56473964E-01 0.15987840E+04</pdfrwt>
<pdfrwt beam="2">  1       -1 0.26782099E+00 0.15987840E+04</pdfrwt>
<totfact> 0.34477814E+00</totfact>
</mgrwt>
</event>
<event>
12    3  0.4192740E-008  0.1416153E+04  0.7818608E-02  0.8942209E-01
          1   -1    0    0  501    0  0.00000000000E+00  0.00000000000E+00  0.19496962909E+04  0.19496962909E+04  0.00000000000E+00 0. -1.
         -1   -1    0    0    0  501 -0.00000000000E+00 -0.00000000000E+00 -0.25715396891E+03  0.25715396891E+03  0.00000000000E+00 0.  1.
         23    2    1    2    0    0  0.26945004700E+03  0.26190035346E+03  0.21761962989E+03  0.44381221359E+03  0.91737967298E+02 0.  0.
        254    2    1    2    0    0 -0.26945004700E+03 -0.26190035346E+03  0.14749226921E+04  0.17630380462E+04  0.88978147979E+03 0.  0.
         23    2    4    4    0    0 -0.35165011507E+03 -0.54576157328E+03  0.99133755577E+03  0.11885740301E+04  0.91894380747E+02 0.  0.
         23    2    4    4    0    0  0.82200068061E+02  0.28386121982E+03  0.48358513629E+03  0.57446401610E+03  0.93916337522E+02 0.  0.
          3    1    3    3  502    0  0.15825911773E+03  0.12110316401E+03  0.15942317761E+03  0.25520124262E+03  0.00000000000E+00 0. -1.
         -3    1    3    3    0  502  0.11119092928E+03  0.14079718945E+03  0.58196452278E+02  0.18861097097E+03  0.00000000000E+00 0.  1.
         13    1    5    5    0    0 -0.22636702465E+03 -0.41414780394E+03  0.67252910384E+03  0.82161781193E+03  0.00000000000E+00 0.  1.
        -13    1    5    5    0    0 -0.12528309041E+03 -0.13161376933E+03  0.31880845193E+03  0.36695621816E+03  0.00000000000E+00 0. -1.
          3    1    6    6  503    0 -0.18586637183E+02  0.28744497932E+02  0.37355937502E+02  0.50667300203E+02  0.00000000000E+00 0. -1.
         -3    1    6    6    0  503  0.10078670524E+03  0.25511672188E+03  0.44622919878E+03  0.52379671590E+03  0.00000000000E+00 0.  1.
<mgrwt>
<rscale>  0 0.14161527E+04</rscale>
<asrwt>0</asrwt>
<pdfrwt beam="1">  1        1 0.29995327E+00 0.14161527E+04</pdfrwt>
<pdfrwt beam="2">  1       -1 0.39562150E-01 0.14161527E+04</pdfrwt>
<totfact> 0.19524964E+01</totfact>
</mgrwt>
</event>
<event>
12    3  0.4192740E-008  0.1169333E+04  0.7818608E-02  0.9140131E-01
         -1   -1    0    0    0  501 -0.00000000000E+00  0.00000000000E+00  0.44925785611E+03  0.44925785611E+03  0.00000000000E+00 0.  1.
          1   -1    0    0  501    0  0.00000000000E+00 -0.00000000000E+00 -0.76088754651E+03  0.76088754651E+03  0.00000000000E+00 0. -1.
         23    2    1    2    0    0 -0.45761847886E+02  0.12092061016E+03 -0.25878440732E+03  0.30276640005E+03  0.89343062670E+02 0.  0.
        254    2    1    2    0    0  0.45761847886E+02 -0.12092061016E+03 -0.52845283077E+02  0.90737900257E+03  0.89656460429E+03 0.  0.
         23    2    4    4    0    0  0.26784620478E+03  0.30533961025E+03 -0.39761521245E+02  0.41814266143E+03  0.91040868465E+02 0.  0.
         23    2    4    4    0    0 -0.22208435690E+03 -0.42626022042E+03 -0.13083761832E+02  0.48923634114E+03  0.90342545768E+02 0.  0.
          3    1    3    3  502    0 -0.20444892859E+02  0.87950824929E+02 -0.24135279241E+03  0.25769072870E+03  0.00000000000E+00 0. -1.
         -3    1    3    3    0  502 -0.25316955027E+02  0.32969785235E+02 -0.17431614902E+02  0.45075671358E+02  0.00000000000E+00 0.  1.
         13    1    5    5    0    0  0.25875427852E+03  0.31130084290E+03 -0.35113403350E+02  0.40631876961E+03  0.00000000000E+00 0.  1.
        -13    1    5    5    0    0  0.90919262642E+01 -0.59612326464E+01 -0.46481178951E+01  0.11823891822E+02  0.00000000000E+00 0. -1.
          2    1    6    6  503    0 -0.80043311669E+02 -0.10799166293E+03  0.30952679085E+02  0.13793911464E+03  0.00000000000E+00 0. -1.
         -2    1    6    6    0  503 -0.14204104523E+03 -0.31826855749E+03 -0.44036440917E+02  0.35129722650E+03  0.00000000000E+00 0.  1.
<mgrwt>
<rscale>  0 0.11693326E+04</rscale>
<asrwt>0</asrwt>
<pdfrwt beam="1">  1        1 0.11705962E+00 0.11693326E+04</pdfrwt>
<pdfrwt beam="2">  1       -1 0.69116594E-01 0.11693326E+04</pdfrwt>
<totfact> 0.50312843E+01</totfact>
</mgrwt>
</event>
<event>
12    3  0.4192740E-008  0.2446589E+04  0.7818608E-02  0.8422264E-01
          1   -1    0    0  501    0  0.00000000000E+00  0.00000000000E+00  0.17503118154E+04  0.17503118154E+04  0.00000000000E+00 0. -1.
         -1   -1    0    0    0  501 -0.00000000000E+00 -0.00000000000E+00 -0.85496173395E+03  0.85496173395E+03  0.00000000000E+00 0.  1.
         23    2    1    2    0    0 -0.10524428538E+04  0.51155156059E+02  0.30726732607E+03  0.11012077533E+04  0.89400759596E+02 0.  0.
        254    2    1    2    0    0  0.10524428538E+04 -0.51155156059E+02  0.58808275533E+03  0.15040657960E+04  0.89784173497E+03 0.  0.
         23    2    4    4    0    0 -0.47197739347E+02 -0.22490905439E+03  0.20849582673E+03  0.32426565715E+03  0.94159424918E+02 0.  0.
         23    2    4    4    0    0  0.10996405931E+04  0.17375389833E+03  0.37958692860E+03  0.11798001388E+04  0.91881880525E+02 0.  0.
          4    1    3    3  502    0 -0.74693643524E+03  0.61044776352E+02  0.18446228845E+03  0.77179455742E+03  0.00000000000E+00 0.  1.
         -4    1    3    3    0  502 -0.30550641855E+03 -0.98896202938E+01  0.12280503763E+03  0.32941319590E+03  0.00000000000E+00 0. -1.
         13    1    5    5    0    0 -0.74440063975E+02 -0.17495117091E+03  0.17395064062E+03  0.25769761485E+03  0.00000000000E+00 0. -1.
        -13    1    5    5    0    0  0.27242324628E+02 -0.49957883476E+02  0.34545186104E+02  0.66568042299E+02  0.00000000000E+00 0.  1.
          4    1    6    6  503    0  0.42321866400E+03  0.53652989476E+02  0.10056559560E+03  0.43829912144E+03  0.00000000000E+00 0. -1.
         -4    1    6    6    0  503  0.67642192914E+03  0.12010090885E+03  0.27902133300E+03  0.74150101739E+03  0.00000000000E+00 0.  1.
<mgrwt>
<rscale>  0 0.24465892E+04</rscale>
<asrwt>0</asrwt>
<pdfrwt beam="1">  1        1 0.26927874E+00 0.24465892E+04</pdfrwt>
<pdfrwt beam="2">  1       -1 0.13153257E+00 0.24465892E+04</pdfrwt>
<totfact> 0.19349023E+00</totfact>
</mgrwt>
</event>
<event>
12    3  0.4192740E-008  0.3662633E+04  0.7818608E-02  0.8076294E-01
          2   -1    0    0  501    0  0.00000000000E+00  0.00000000000E+00  0.17184473226E+04  0.17184473226E+04  0.00000000000E+00 0.  1.
         -2   -1    0    0    0  501 -0.00000000000E+00 -0.00000000000E+00 -0.19515989474E+04  0.19515989474E+04  0.00000000000E+00 0. -1.
         23    2    1    2    0    0 -0.23580296753E+03 -0.29341205266E+03  0.15698796763E+04  0.16170210863E+04  0.92419280072E+02 0.  0.
        254    2    1    2    0    0  0.23580296753E+03  0.29341205266E+03 -0.18030313011E+04  0.20530251837E+04  0.90680585572E+03 0.  0.
         23    2    4    4    0    0 -0.10815283156E+03  0.30011431523E+03 -0.16183280993E+04  0.16519887951E+04  0.91189391215E+02 0.  0.
         23    2    4    4    0    0  0.34395579909E+03 -0.67022625636E+01 -0.18470320182E+03  0.40103638858E+03  0.91457094615E+02 0.  0.
          2    1    3    3  502    0 -0.50842964628E+02 -0.91373091178E+02  0.29322500488E+03  0.31131166430E+03  0.00000000000E+00 0. -1.
         -2    1    3    3    0  502 -0.18496000290E+03 -0.20203896149E+03  0.12766546714E+04  0.13057094220E+04  0.00000000000E+00 0.  1.
         13    1    5    5    0    0 -0.61806037224E+02  0.26766179388E+03 -0.13745133459E+04  0.14016953165E+04  0.00000000000E+00 0.  1.
        -13    1    5    5    0    0 -0.46346794332E+02  0.32452521349E+02 -0.24381475337E+03  0.25029347863E+03  0.00000000000E+00 0. -1.
          3    1    6    6  503    0  0.74313330934E+02 -0.25632028824E+02 -0.77074969881E+02  0.11009097619E+03  0.00000000000E+00 0. -1.
         -3    1    6    6    0  503  0.26964246815E+03  0.18929766260E+02 -0.10762823194E+03  0.29094541239E+03  0.00000000000E+00 0.  1.
<mgrwt>
<rscale>  0 0.36626329E+04</rscale>
<asrwt>0</asrwt>
<pdfrwt beam="1">  1        2 0.26437651E+00 0.36626329E+04</pdfrwt>
<pdfrwt beam="2">  1       -2 0.30024599E+00 0.36626329E+04</pdfrwt>
<totfact> 0.24597455E-01</totfact>
</mgrwt>
</event>
<event>
12    3  0.4192740E-008  0.1607575E+04  0.7818608E-02  0.8815908E-01
          1   -1    0    0  501    0  0.00000000000E+00  0.00000000000E+00  0.70713605782E+03  0.70713605782E+03  0.00000000000E+00 0. -1.
         -1   -1    0    0    0  501 -0.00000000000E+00 -0.00000000000E+00 -0.91364910359E+03  0.91364910359E+03  0.00000000000E+00 0.  1.
         23    2    1    2    0    0  0.31300599630E+02  0.73447232703E+02 -0.62834006010E+03  0.63987890476E+03  0.90882110987E+02 0.  0.
        254    2    1    2    0    0 -0.31300599630E+02 -0.73447232703E+02  0.42182701433E+03  0.98090625665E+03  0.88196645672E+03 0.  0.
         23    2    4    4    0    0 -0.43628678837E+03 -0.70178201451E+02  0.32090168627E+03  0.55353290129E+03  0.90275350421E+02 0.  0.
         23    2    4    4    0    0  0.40498618874E+03 -0.32690312520E+01  0.10092532806E+03  0.42737335535E+03  0.91856210374E+02 0.  0.
          4    1    3    3  502    0  0.56526812214E+01 -0.20405390380E+02 -0.17088240881E+03  0.17218922847E+03  0.00000000000E+00 0. -1.
         -4    1    3    3    0  502  0.25647918409E+02  0.93852623084E+02 -0.45745765129E+03  0.46768967628E+03  0.00000000000E+00 0.  1.
         13    1    5    5    0    0 -0.35636656636E+03 -0.25756881735E+02  0.23204947924E+03  0.42603697891E+03  0.00000000000E+00 0.  1.
        -13    1    5    5    0    0 -0.79920222011E+02 -0.44421319717E+02  0.88852207028E+02  0.12749592239E+03  0.00000000000E+00 0. -1.
          3    1    6    6  503    0  0.32325084970E+02 -0.95257095253E+01  0.35523630970E+02  0.48965075488E+02  0.00000000000E+00 0. -1.
         -3    1    6    6    0  503  0.37266110377E+03  0.62566782733E+01  0.65401697088E+02  0.37840827987E+03  0.00000000000E+00 0.  1.
<mgrwt>
<rscale>  0 0.16075749E+04</rscale>
<asrwt>0</asrwt>
<pdfrwt beam="1">  1        1 0.10879016E+00 0.16075749E+04</pdfrwt>
<pdfrwt beam="2">  1       -1 0.14056140E+00 0.16075749E+04</pdfrwt>
<totfact> 0.10671509E+01</totfact>
</mgrwt>
</event>
<event>
12    3  0.4192740E-008  0.1491116E+04  0.7818608E-02  0.8890382E-01
          2   -1    0    0  501    0  0.00000000000E+00  0.00000000000E+00  0.24643655061E+04  0.24643655061E+04  0.00000000000E+00 0. -1.
         -2   -1    0    0    0  501 -0.00000000000E+00 -0.00000000000E+00 -0.22555767907E+03  0.22555767907E+03  0.00000000000E+00 0.  1.
         23    2    1    2    0    0 -0.34787674495E+02  0.35250188214E+03  0.22626811793E+03  0.43007339268E+03  0.91093922346E+02 0.  0.
        254    2    1    2    0    0  0.34787674495E+02 -0.35250188214E+03  0.20125397091E+04  0.22598497925E+04  0.96495452987E+03 0.  0.
         23    2    4    4    0    0 -0.27897929238E+03  0.21818471138E+03  0.82239826973E+03  0.90011559602E+03  0.91843117735E+02 0.  0.
         23    2    4    4    0    0  0.31376696687E+03 -0.57068659353E+03  0.11901414394E+04  0.13597341965E+04  0.91145717628E+02 0.  0.
          4    1    3    3  502    0  0.75464900263E+00  0.85828338899E+02  0.13098849235E+02  0.86825417388E+02  0.00000000000E+00 0. -1.
         -4    1    3    3    0  502 -0.35542323498E+02  0.26667354324E+03  0.21316926870E+03  0.34324797529E+03  0.00000000000E+00 0.  1.
         13    1    5    5    0    0 -0.19890957329E+03  0.10849908225E+03  0.57242555907E+03  0.61563632923E+03  0.00000000000E+00 0.  1.
        -13    1    5    5    0    0 -0.80069719088E+02  0.10968562913E+03  0.24997271067E+03  0.28447926679E+03  0.00000000000E+00 0. -1.
          4    1    6    6  503    0  0.27923045225E+03 -0.46512290415E+03  0.92636922343E+03  0.10735310427E+04  0.00000000000E+00 0.  1.
         -4    1    6    6    0  503  0.34536514623E+02 -0.10556368937E+03  0.26377221594E+03  0.28620315382E+03  0.00000000000E+00 0. -1.
<mgrwt>
<rscale>  0 0.14911158E+04</rscale>
<asrwt>0</asrwt>
<pdfrwt beam="1">  1        2 0.37913314E+00 0.14911158E+04</pdfrwt>
<pdfrwt beam="2">  1       -2 0.34701183E-01 0.14911158E+04</pdfrwt>
<totfact> 0.27557470E+01</totfact>
</mgrwt>
</event>
<event>
12    3  0.4192740E-008  0.1728786E+04  0.7818608E-02  0.8745115E-01
          2   -1    0    0  501    0  0.00000000000E+00  0.00000000000E+00  0.19291333664E+04  0.19291333664E+04  0.00000000000E+00 0. -1.
         -2   -1    0    0    0  501 -0.00000000000E+00 -0.00000000000E+00 -0.38731149606E+03  0.38731149606E+03  0.00000000000E+00 0.  1.
         23    2    1    2    0    0  0.22659336239E+03 -0.84135495855E+02 -0.20947269790E+03  0.33228851095E+03  0.90075023179E+02 0.  0.
        254    2    1    2    0    0 -0.22659336239E+03  0.84135495855E+02  0.17512945682E+04  0.19841563515E+04  0.90078878154E+03 0.  0.
         23    2    4    4    0    0  0.17548358749E+03  0.33435271356E+03  0.11442778343E+04  0.12084819604E+04  0.92036188749E+02 0.  0.
         23    2    4    4    0    0 -0.40207694988E+03 -0.25021721770E+03  0.60701673391E+03  0.77567439107E+03  0.94482358424E+02 0.  0.
          4    1    3    3  502    0  0.41126320271E+00 -0.16166557959E+02  0.63171955270E+00  0.16184121949E+02  0.00000000000E+00 0. -1.
         -4    1    3    3    0  502  0.22618209919E+03 -0.67968937896E+02 -0.21010441745E+03  0.31610438900E+03  0.00000000000E+00 0.  1.
         13    1    5    5    0    0 -0.96194773781E+01  0.73861467160E+01  0.24262875615E+02  0.27125203067E+02  0.00000000000E+00 0. -1.
        -13    1    5    5    0    0  0.18510306486E+03  0.32696656684E+03  0.11200149587E+04  0.11813567573E+04  0.00000000000E+00 0.  1.
          4    1    6    6  503    0 -0.62307443815E+02 -0.23027204113E+02  0.42996332432E+02  0.79127455959E+02  0.00000000000E+00 0. -1.
         -4    1    6    6    0  503 -0.33976950606E+03 -0.22719001359E+03  0.56402040148E+03  0.69654693511E+03  0.00000000000E+00 0.  1.
<mgrwt>
<rscale>  0 0.17287863E+04</rscale>
<asrwt>0</asrwt>
<pdfrwt beam="1">  1        2 0.29678974E+00 0.17287863E+04</pdfrwt>
<pdfrwt beam="2">  1       -2 0.59586385E-01 0.17287863E+04</pdfrwt>
<totfact> 0.18253771E+01</totfact>
</mgrwt>
</event>
<event>
12    3  0.4192740E-008  0.1930347E+04  0.7818608E-02  0.8639896E-01
          1   -1    0    0  501    0  0.00000000000E+00  0.00000000000E+00  0.10716265352E+04  0.10716265352E+04  0.00000000000E+00 0. -1.
         -1   -1    0    0    0  501 -0.00000000000E+00 -0.00000000000E+00 -0.86929551561E+03  0.86929551561E+03  0.00000000000E+00 0.  1.
         23    2    1    2    0    0  0.16448578919E+03 -0.41940516871E+03  0.67140297327E+03  0.81382046767E+03  0.92550152390E+02 0.  0.
        254    2    1    2    0    0 -0.16448578919E+03  0.41940516871E+03 -0.46907195365E+03  0.11271015832E+04  0.92052876689E+03 0.  0.
         23    2    4    4    0    0  0.30154859428E+03 -0.43097761445E+02 -0.51722475889E+01  0.31825262269E+03  0.92027213111E+02 0.  0.
         23    2    4    4    0    0 -0.46603438346E+03  0.46250293016E+03 -0.46389970606E+03  0.80884896047E+03  0.89088139448E+02 0.  0.
          2    1    3    3  502    0  0.14398721633E+03 -0.40962945738E+03  0.61334686175E+03  0.75148052778E+03  0.00000000000E+00 0. -1.
         -2    1    3    3    0  502  0.20498572854E+02 -0.97757113345E+01  0.58056111520E+02  0.62339939894E+02  0.00000000000E+00 0.  1.
         13    1    5    5    0    0  0.17446894409E+03  0.72614439268E+01  0.29826828347E+02  0.17714903531E+03  0.00000000000E+00 0. -1.
        -13    1    5    5    0    0  0.12707965019E+03 -0.50359205372E+02 -0.34999075936E+02  0.14110358739E+03  0.00000000000E+00 0.  1.
          3    1    6    6  503    0 -0.19901995588E+03  0.14228257840E+03 -0.15019394370E+03  0.28707402474E+03  0.00000000000E+00 0. -1.
         -3    1    6    6    0  503 -0.26701442758E+03  0.32022035175E+03 -0.31370576236E+03  0.52177493572E+03  0.00000000000E+00 0.  1.
<mgrwt>
<rscale>  0 0.19303473E+04</rscale>
<asrwt>0</asrwt>
<pdfrwt beam="1">  1        1 0.16486562E+00 0.19303473E+04</pdfrwt>
<pdfrwt beam="2">  1       -1 0.13373777E+00 0.19303473E+04</pdfrwt>
<totfact> 0.58670614E+00</totfact>
</mgrwt>
</event>
<event>
12    3  0.4192740E-008  0.1431474E+04  0.7818608E-02  0.8931346E-01
          1   -1    0    0  501    0  0.00000000000E+00  0.00000000000E+00  0.76773959685E+03  0.76773959685E+03  0.00000000000E+00 0. -1.
         -1   -1    0    0    0  501 -0.00000000000E+00 -0.00000000000E+00 -0.66725663722E+03  0.66725663722E+03  0.00000000000E+00 0.  1.
         23    2    1    2    0    0  0.34198479089E+03  0.23556798587E+03  0.17305979274E+03  0.45930096863E+03  0.92530074867E+02 0.  0.
        254    2    1    2    0    0 -0.34198479089E+03 -0.23556798587E+03 -0.72576833107E+02  0.97569526544E+03  0.87992498609E+03 0.  0.
         23    2    4    4    0    0 -0.14011777262E+03  0.29031970921E+03  0.14211846793E+03  0.36411643911E+03  0.92003252880E+02 0.  0.
         23    2    4    4    0    0 -0.20186701827E+03 -0.52588769508E+03 -0.21469530104E+03  0.61157882634E+03  0.10308456547E+03 0.  0.
          2    1    3    3  502    0  0.25174058039E+03  0.19277262804E+03  0.16909874954E+03  0.35934522820E+03  0.00000000000E+00 0. -1.
         -2    1    3    3    0  502  0.90244210502E+02  0.42795357827E+02  0.39610431941E+01  0.99955740425E+02  0.00000000000E+00 0.  1.
         13    1    5    5    0    0 -0.97625000753E+02  0.24362229677E+03  0.77233243873E+02  0.27358259853E+03  0.00000000000E+00 0. -1.
        -13    1    5    5    0    0 -0.42492771868E+02  0.46697412438E+02  0.64885224058E+02  0.90533840582E+02  0.00000000000E+00 0.  1.
          2    1    6    6  503    0 -0.17546162594E+03 -0.36345124888E+03 -0.18656392937E+03  0.44462309008E+03  0.00000000000E+00 0. -1.
         -2    1    6    6    0  503 -0.26405392325E+02 -0.16243644620E+03 -0.28131371666E+02  0.16695573626E+03  0.00000000000E+00 0.  1.
<mgrwt>
<rscale>  0 0.14314738E+04</rscale>
<asrwt>0</asrwt>
<pdfrwt beam="1">  1        1 0.11811378E+00 0.14314738E+04</pdfrwt>
<pdfrwt beam="2">  1       -1 0.10265487E+00 0.14314738E+04</pdfrwt>
<totfact> 0.20612594E+01</totfact>
</mgrwt>
</event>
<event>
12    3  0.4192740E-008  0.2236981E+04  0.7818608E-02  0.8503192E-01
         -1   -1    0    0    0  501 -0.00000000000E+00  0.00000000000E+00  0.13891709662E+04  0.13891709662E+04  0.00000000000E+00 0.  1.
          1   -1    0    0  501    0  0.00000000000E+00 -0.00000000000E+00 -0.90055220437E+03  0.90055220437E+03  0.00000000000E+00 0. -1.
         23    2    1    2    0    0 -0.65937492082E+02 -0.22163219805E+03  0.11366611524E+04  0.11634472676E+04  0.90235166073E+02 0.  0.
        254    2    1    2    0    0  0.65937492082E+02  0.22163219805E+03 -0.64804239058E+03  0.11262759029E+04  0.89166691391E+03 0.  0.
         23    2    4    4    0    0  0.38349407650E+03  0.41038298131E+02 -0.63660473628E+03  0.74966268775E+03  0.89312409702E+02 0.  0.
         23    2    4    4    0    0 -0.31755658441E+03  0.18059389992E+03 -0.11437654296E+02  0.37661321514E+03  0.90831453174E+02 0.  0.
          1    1    3    3  502    0 -0.71345248684E+02 -0.11734572580E+03  0.51105806639E+03  0.52918854021E+03  0.00000000000E+00 0. -1.
         -1    1    3    3    0  502  0.54077566019E+01 -0.10428647226E+03  0.62560308599E+03  0.63425872743E+03  0.00000000000E+00 0.  1.
         13    1    5    5    0    0  0.33523789082E+03  0.43702348169E+02 -0.60125800901E+03  0.68978658444E+03  0.00000000000E+00 0. -1.
        -13    1    5    5    0    0  0.48256185676E+02 -0.26640500378E+01 -0.35346727273E+02  0.59876103310E+02  0.00000000000E+00 0.  1.
          1    1    6    6  503    0 -0.12688692703E+03  0.45894854660E+02  0.33148248691E+02  0.13894400429E+03  0.00000000000E+00 0. -1.
         -1    1    6    6    0  503 -0.19066965738E+03  0.13469904526E+03 -0.44585902987E+02  0.23766921085E+03  0.00000000000E+00 0.  1.
<mgrwt>
<rscale>  0 0.22369810E+04</rscale>
<asrwt>0</asrwt>
<pdfrwt beam="1">  1        1 0.13854649E+00 0.22369810E+04</pdfrwt>
<pdfrwt beam="2">  1       -1 0.21371861E+00 0.22369810E+04</pdfrwt>
<totfact> 0.20038512E+00</totfact>
</mgrwt>
</event>
<event>
12    3  0.4192740E-008  0.2037932E+04  0.7818608E-02  0.8589089E-01
         -1   -1    0    0    0  501 -0.00000000000E+00  0.00000000000E+00  0.86708863394E+03  0.86708863394E+03  0.00000000000E+00 0.  1.
          1   -1    0    0  501    0  0.00000000000E+00 -0.00000000000E+00 -0.11974456935E+04  0.11974456935E+04  0.00000000000E+00 0. -1.
         23    2    1    2    0    0 -0.73546206892E+03  0.22136179013E+03  0.15192130322E+03  0.78916772057E+03  0.98995514390E+02 0.  0.
        254    2    1    2    0    0  0.73546206892E+03 -0.22136179013E+03 -0.48227836275E+03  0.12753666068E+04  0.89669507956E+03 0.  0.
         23    2    4    4    0    0  0.54246714074E+03 -0.55693235397E+03 -0.31958860262E+03  0.84538051037E+03  0.89928230906E+02 0.  0.
         23    2    4    4    0    0  0.19299492819E+03  0.33557056384E+03 -0.16268976013E+03  0.42998609646E+03  0.92549659522E+02 0.  0.
          2    1    3    3  502    0 -0.66914706429E+03  0.22920635709E+03  0.14508974565E+03  0.72204181463E+03  0.00000000000E+00 0. -1.
         -2    1    3    3    0  502 -0.66315004633E+02 -0.78445669590E+01  0.68315575707E+01  0.67125905946E+02  0.00000000000E+00 0.  1.
         13    1    5    5    0    0  0.17682853518E+03 -0.24149358569E+03 -0.10869167136E+03  0.31843580547E+03  0.00000000000E+00 0. -1.
        -13    1    5    5    0    0  0.36563860555E+03 -0.31543876828E+03 -0.21089693127E+03  0.52694470490E+03  0.00000000000E+00 0.  1.
          2    1    6    6  503    0  0.18768216144E+03  0.33292178801E+03 -0.17187492279E+03  0.41904951944E+03  0.00000000000E+00 0. -1.
         -2    1    6    6    0  503  0.53127667414E+01  0.26487758330E+01  0.91851626642E+01  0.10936577025E+02  0.00000000000E+00 0.  1.
<mgrwt>
<rscale>  0 0.20379318E+04</rscale>
<asrwt>0</asrwt>
<pdfrwt beam="1">  1        1 0.18422241E+00 0.20379318E+04</pdfrwt>
<pdfrwt beam="2">  1       -1 0.13339825E+00 0.20379318E+04</pdfrwt>
<totfact> 0.47132238E+00</totfact>
</mgrwt>
</event>
<event>
12    3  0.4192740E-008  0.1431201E+04  0.7818608E-02  0.8931538E-01
          2   -1    0    0  501    0  0.00000000000E+00  0.00000000000E+00  0.44539226295E+04  0.44539226295E+04  0.00000000000E+00 0. -1.
         -2   -1    0    0    0  501 -0.00000000000E+00 -0.00000000000E+00 -0.11497369856E+03  0.11497369856E+03  0.00000000000E+00 0.  1.
         23    2    1    2    0    0 -0.16844885535E+03  0.21964070017E+03  0.23700789425E+04  0.23878746754E+04  0.89745292808E+02 0.  0.
        254    2    1    2    0    0  0.16844885535E+03 -0.21964070017E+03  0.19688699884E+04  0.21810216526E+04  0.89654300736E+03 0.  0.
         23    2    4    4    0    0  0.88752721683E+02  0.34014800696E+03  0.84502748807E+03  0.91971717996E+03  0.90722231415E+02 0.  0.
         23    2    4    4    0    0  0.79696133669E+02 -0.55978870713E+03  0.11238425003E+04  0.12613044727E+04  0.90289184933E+02 0.  0.
          1    1    3    3  502    0 -0.15230451711E+03  0.19455663722E+03  0.22710294632E+04  0.22844307329E+04  0.00000000000E+00 0. -1.
         -1    1    3    3    0  502 -0.16144338241E+02  0.25084062950E+02  0.99049479366E+02  0.10344394247E+03  0.00000000000E+00 0.  1.
         13    1    5    5    0    0  0.79771535763E+02  0.29076400064E+03  0.78818243072E+03  0.84388313532E+03  0.00000000000E+00 0.  1.
        -13    1    5    5    0    0  0.89811859206E+01  0.49384006325E+02  0.56845057356E+02  0.75834044644E+02  0.00000000000E+00 0. -1.
          2    1    6    6  503    0  0.28861471539E+02 -0.23674758721E+03  0.37845122162E+03  0.44733402702E+03  0.00000000000E+00 0. -1.
         -2    1    6    6    0  503  0.50834662129E+02 -0.32304111992E+03  0.74539127867E+03  0.81397044563E+03  0.00000000000E+00 0.  1.
<mgrwt>
<rscale>  0 0.14312008E+04</rscale>
<asrwt>0</asrwt>
<pdfrwt beam="1">  1        2 0.68521873E+00 0.14312008E+04</pdfrwt>
<pdfrwt beam="2">  1       -2 0.17688265E-01 0.14312008E+04</pdfrwt>
<totfact> 0.36457396E+00</totfact>
</mgrwt>
</event>
<event>
12    3  0.4192740E-008  0.1880481E+04  0.7818608E-02  0.8664634E-01
          1   -1    0    0  501    0  0.00000000000E+00  0.00000000000E+00  0.99282942894E+03  0.99282942894E+03  0.00000000000E+00 0. -1.
         -1   -1    0    0    0  501 -0.00000000000E+00 -0.00000000000E+00 -0.89043722698E+03  0.89043722698E+03  0.00000000000E+00 0.  1.
         23    2    1    2    0    0  0.58165572357E+02 -0.71125964676E+03  0.57653941257E+01  0.71921636121E+03  0.89249176722E+02 0.  0.
        254    2    1    2    0    0 -0.58165572357E+02  0.71125964676E+03  0.96626807833E+02  0.11640502947E+04  0.91455061626E+03 0.  0.
         23    2    4    4    0    0  0.30941821265E+03  0.59533167103E+03 -0.15510239888E+03  0.69473100915E+03  0.91842212968E+02 0.  0.
         23    2    4    4    0    0 -0.36758378500E+03  0.11592797573E+03  0.25172920671E+03  0.46931928556E+03  0.91300951438E+02 0.  0.
          4    1    3    3  502    0 -0.21869898789E+02 -0.82719223616E+02  0.22484162134E+01  0.85590991372E+02  0.00000000000E+00 0. -1.
         -4    1    3    3    0  502  0.80035471146E+02 -0.62854042315E+03  0.35169779123E+01  0.63362536984E+03  0.00000000000E+00 0.  1.
         13    1    5    5    0    0  0.11190487010E+03  0.22313217338E+03 -0.10348383164E+03  0.27022133550E+03  0.00000000000E+00 0. -1.
        -13    1    5    5    0    0  0.19751334255E+03  0.37219949765E+03 -0.51618567240E+02  0.42450967365E+03  0.00000000000E+00 0.  1.
          4    1    6    6  503    0 -0.93283047526E+02  0.42944801446E+02  0.11526117669E+03  0.15437331952E+03  0.00000000000E+00 0. -1.
         -4    1    6    6    0  503 -0.27430073748E+03  0.72983174283E+02  0.13646803002E+03  0.31494596604E+03  0.00000000000E+00 0.  1.
<mgrwt>
<rscale>  0 0.18804811E+04</rscale>
<asrwt>0</asrwt>
<pdfrwt beam="1">  1        1 0.15274299E+00 0.18804811E+04</pdfrwt>
<pdfrwt beam="2">  1       -1 0.13699034E+00 0.18804811E+04</pdfrwt>
<totfact> 0.63730458E+00</totfact>
</mgrwt>
</event>
<event>
12    3  0.4192740E-008  0.1207483E+04  0.7818608E-02  0.9106332E-01
          1   -1    0    0  501    0  0.00000000000E+00  0.00000000000E+00  0.12827529260E+04  0.12827529260E+04  0.00000000000E+00 0. -1.
         -1   -1    0    0    0  501 -0.00000000000E+00 -0.00000000000E+00 -0.28415736261E+03  0.28415736261E+03  0.00000000000E+00 0.  1.
         23    2    1    2    0    0 -0.37904767978E+02 -0.12067438235E+03 -0.66678572378E+02  0.16967620722E+03  0.91350453143E+02 0.  0.
        254    2    1    2    0    0  0.37904767978E+02  0.12067438235E+03  0.10652741357E+04  0.13972340814E+04  0.89524020009E+03 0.  0.
         23    2    4    4    0    0 -0.17894564409E+03  0.44987283596E+03  0.66900517641E+03  0.83084264765E+03  0.91238517107E+02 0.  0.
         23    2    4    4    0    0  0.21685041207E+03 -0.32919845361E+03  0.39626895931E+03  0.56639143370E+03  0.91511993691E+02 0.  0.
          3    1    3    3  502    0  0.24455087991E+02 -0.24182169913E+02  0.42538210442E+01  0.34654345526E+02  0.00000000000E+00 0. -1.
         -3    1    3    3    0  502 -0.62359855969E+02 -0.96492212441E+02 -0.70932393422E+02  0.13502186169E+03  0.00000000000E+00 0.  1.
         13    1    5    5    0    0  0.46735916818E+01  0.73181907274E+02  0.10998975506E+03  0.13219372235E+03  0.00000000000E+00 0. -1.
        -13    1    5    5    0    0 -0.18361923578E+03  0.37669092869E+03  0.55901542136E+03  0.69864892529E+03  0.00000000000E+00 0.  1.
          3    1    6    6  503    0 -0.56288976185E+01 -0.29754784593E+02  0.18563317117E+02  0.35519409299E+02  0.00000000000E+00 0. -1.
         -3    1    6    6    0  503  0.22247930969E+03 -0.29944366901E+03  0.37770564219E+03  0.53087202441E+03  0.00000000000E+00 0.  1.
<mgrwt>
<rscale>  0 0.12074828E+04</rscale>
<asrwt>0</asrwt>
<pdfrwt beam="1">  1        1 0.19734660E+00 0.12074828E+04</pdfrwt>
<pdfrwt beam="2">  1       -1 0.43716518E-01 0.12074828E+04</pdfrwt>
<totfact> 0.47569297E+01</totfact>
</mgrwt>
</event>
<event>
12    3  0.4192740E-008  0.2142023E+04  0.7818608E-02  0.8542954E-01
          1   -1    0    0  501    0  0.00000000000E+00  0.00000000000E+00  0.22309746808E+04  0.22309746808E+04  0.00000000000E+00 0. -1.
         -1   -1    0    0    0  501 -0.00000000000E+00 -0.00000000000E+00 -0.51415456308E+03  0.51415456308E+03  0.00000000000E+00 0.  1.
         23    2    1    2    0    0  0.24482880389E+03 -0.13634827524E+03 -0.36088851871E+03  0.46552628255E+03  0.89119029568E+02 0.  0.
        254    2    1    2    0    0 -0.24482880389E+03  0.13634827524E+03  0.20777086365E+04  0.22796029613E+04  0.89508909501E+03 0.  0.
         23    2    4    4    0    0 -0.22021032558E+03 -0.35363651563E+03  0.76582799232E+03  0.87598818079E+03  0.85506762222E+02 0.  0.
         23    2    4    4    0    0 -0.24618478313E+02  0.48998479087E+03  0.13118806441E+04  0.14036147806E+04  0.91719479860E+02 0.  0.
          4    1    3    3  502    0 -0.25817290924E+01  0.97484518214E+00  0.33174816071E+01  0.43152441935E+01  0.00000000000E+00 0. -1.
         -4    1    3    3    0  502  0.24741053298E+03 -0.13732312042E+03 -0.36420600032E+03  0.46121103836E+03  0.00000000000E+00 0.  1.
         13    1    5    5    0    0 -0.62726105200E+02 -0.42320384490E+02  0.11768592382E+03  0.13991267235E+03  0.00000000000E+00 0.  1.
        -13    1    5    5    0    0 -0.15748422038E+03 -0.31131613114E+03  0.64814206850E+03  0.73607550844E+03  0.00000000000E+00 0. -1.
          4    1    6    6  503    0 -0.68364927550E+01  0.35947256167E+03  0.10609350013E+04  0.11202010253E+04  0.00000000000E+00 0. -1.
         -4    1    6    6    0  503 -0.17781985558E+02  0.13051222920E+03  0.25094564288E+03  0.28341375524E+03  0.00000000000E+00 0.  1.
<mgrwt>
<rscale>  0 0.21420232E+04</rscale>
<asrwt>0</asrwt>
<pdfrwt beam="1">  1        1 0.34322687E+00 0.21420232E+04</pdfrwt>
<pdfrwt beam="2">  1       -1 0.79100703E-01 0.21420232E+04</pdfrwt>
<totfact> 0.30379865E+00</totfact>
</mgrwt>
</event>
<event>
12    3  0.4192740E-008  0.1583588E+04  0.7818608E-02  0.8830694E-01
         -1   -1    0    0    0  501 -0.00000000000E+00  0.00000000000E+00  0.11357195672E+04  0.11357195672E+04  0.00000000000E+00 0.  1.
          1   -1    0    0  501    0  0.00000000000E+00 -0.00000000000E+00 -0.55201805896E+03  0.55201805896E+03  0.00000000000E+00 0. -1.
         23    2    1    2    0    0 -0.10317639032E+03  0.37547527819E+03  0.57802996146E+03  0.70297323075E+03  0.91791474315E+02 0.  0.
        254    2    1    2    0    0  0.10317639032E+03 -0.37547527819E+03  0.56715468260E+01  0.98476439545E+03  0.90448974347E+03 0.  0.
         23    2    4    4    0    0  0.15370611063E+03 -0.40159759440E+03  0.38872237202E+03  0.58689385331E+03  0.91832000266E+02 0.  0.
         23    2    4    4    0    0 -0.50529720307E+02  0.26122316212E+02 -0.38305082520E+03  0.39787054214E+03  0.91309394798E+02 0.  0.
          1    1    3    3  502    0 -0.10466096299E+03  0.27303934217E+03  0.37471291081E+03  0.47530428682E+03  0.00000000000E+00 0. -1.
         -1    1    3    3    0  502  0.14845726624E+01  0.10243593602E+03  0.20331705065E+03  0.22766894393E+03  0.00000000000E+00 0.  1.
         13    1    5    5    0    0  0.31879573511E+02 -0.20091647224E+03  0.20478412102E+03  0.28865251125E+03  0.00000000000E+00 0. -1.
        -13    1    5    5    0    0  0.12182653712E+03 -0.20068112216E+03  0.18393825100E+03  0.29824134207E+03  0.00000000000E+00 0.  1.
          2    1    6    6  503    0 -0.42822086367E+02  0.27747543394E+02 -0.81099051256E+02  0.95816039158E+02  0.00000000000E+00 0.  1.
         -2    1    6    6    0  503 -0.77076339393E+01 -0.16252271827E+01 -0.30195177394E+03  0.30205450298E+03  0.00000000000E+00 0. -1.
<mgrwt>
<rscale>  0 0.15835880E+04</rscale>
<asrwt>0</asrwt>
<pdfrwt beam="1">  1        1 0.84925855E-01 0.15835880E+04</pdfrwt>
<pdfrwt beam="2">  1       -1 0.17472609E+00 0.15835880E+04</pdfrwt>
<totfact> 0.84243085E+00</totfact>
</mgrwt>
</event>
<event>
12    3  0.4192740E-008  0.1673206E+04  0.7818608E-02  0.8776795E-01
         -2   -1    0    0    0  501 -0.00000000000E+00  0.00000000000E+00  0.35654828400E+03  0.35654828400E+03  0.00000000000E+00 0.  1.
          2   -1    0    0  501    0  0.00000000000E+00 -0.00000000000E+00 -0.19629997780E+04  0.19629997780E+04  0.00000000000E+00 0. -1.
         23    2    1    2    0    0 -0.52354074778E+03  0.32514534751E+02 -0.96455181777E+03  0.11018031026E+04  0.91966070852E+02 0.  0.
        254    2    1    2    0    0  0.52354074778E+03 -0.32514534751E+02 -0.64189967618E+03  0.12177449593E+04  0.89202885724E+03 0.  0.
         23    2    4    4    0    0  0.25074983717E+02 -0.17760641345E+03 -0.65850605788E+03  0.68852082733E+03  0.90873035000E+02 0.  0.
         23    2    4    4    0    0  0.49846576407E+03  0.14509187870E+03  0.16606381694E+02  0.52922413202E+03  0.10140334700E+03 0.  0.
          1    1    3    3  502    0 -0.48626933510E+03  0.54060874663E+02 -0.89510119727E+03  0.10200914654E+04  0.00000000000E+00 0. -1.
         -1    1    3    3    0  502 -0.37271412683E+02 -0.21546339911E+02 -0.69450620508E+02  0.81711637212E+02  0.00000000000E+00 0.  1.
         13    1    5    5    0    0 -0.12118267678E+02  0.60624718583E+01 -0.38619862759E+02  0.40927982800E+02  0.00000000000E+00 0.  1.
        -13    1    5    5    0    0  0.37193251395E+02 -0.18366888531E+03 -0.61988619512E+03  0.64759284452E+03  0.00000000000E+00 0. -1.
          4    1    6    6  503    0  0.36267346083E+03  0.78951611459E+02  0.50037742075E+02  0.37452526187E+03  0.00000000000E+00 0. -1.
         -4    1    6    6    0  503  0.13579230324E+03  0.66140267242E+02 -0.33431360381E+02  0.15469887015E+03  0.00000000000E+00 0.  1.
<mgrwt>
<rscale>  0 0.16732055E+04</rscale>
<asrwt>0</asrwt>
<pdfrwt beam="1">  1        2 0.30199996E+00 0.16732055E+04</pdfrwt>
<pdfrwt beam="2">  1       -2 0.54853583E-01 0.16732055E+04</pdfrwt>
<totfact> 0.20885143E+01</totfact>
</mgrwt>
</event>
<event>
12    3  0.4192740E-008  0.1256637E+04  0.7818608E-02  0.9064677E-01
         -2   -1    0    0    0  501 -0.00000000000E+00  0.00000000000E+00  0.27608132836E+03  0.27608132836E+03  0.00000000000E+00 0.  1.
          2   -1    0    0  501    0  0.00000000000E+00 -0.00000000000E+00 -0.14299559353E+04  0.14299559353E+04  0.00000000000E+00 0. -1.
         23    2    1    2    0    0 -0.17847644402E+03 -0.23645150036E+03 -0.23356672631E+03  0.38837125190E+03  0.92280336872E+02 0.  0.
        254    2    1    2    0    0  0.17847644402E+03  0.23645150036E+03 -0.92030788067E+03  0.13176660118E+04  0.89527312611E+03 0.  0.
         23    2    4    4    0    0 -0.13808764319E+03  0.28136222480E+03 -0.92943865395E+03  0.98491091808E+03  0.89221109314E+02 0.  0.
         23    2    4    4    0    0  0.31656408721E+03 -0.44910724440E+02  0.91307732803E+01  0.33275509372E+03  0.91721245594E+02 0.  0.
          2    1    3    3  502    0 -0.57883727745E+02 -0.47630744550E+02 -0.10821972028E+03  0.13164619866E+03  0.00000000000E+00 0. -1.
         -2    1    3    3    0  502 -0.12059271627E+03 -0.18882075581E+03 -0.12534700604E+03  0.25672505324E+03  0.00000000000E+00 0.  1.
         13    1    5    5    0    0 -0.10745479860E+03  0.23273175703E+03 -0.63268157020E+03  0.68263941707E+03  0.00000000000E+00 0.  1.
        -13    1    5    5    0    0 -0.30632844590E+02  0.48630467767E+02 -0.29675708376E+03  0.30227150101E+03  0.00000000000E+00 0. -1.
          2    1    6    6  503    0  0.82754931639E+02  0.26593329406E+02  0.14888564649E+02  0.88188736451E+02  0.00000000000E+00 0. -1.
         -2    1    6    6    0  503  0.23380915557E+03 -0.71504053846E+02 -0.57577913689E+01  0.24456635727E+03  0.00000000000E+00 0.  1.
<mgrwt>
<rscale>  0 0.12566370E+04</rscale>
<asrwt>0</asrwt>
<pdfrwt beam="1">  1        2 0.21999322E+00 0.12566370E+04</pdfrwt>
<pdfrwt beam="2">  1       -2 0.42474050E-01 0.12566370E+04</pdfrwt>
<totfact> 0.71822968E+01</totfact>
</mgrwt>
</event>
<event>
12    3  0.4192740E-008  0.2219572E+04  0.7818608E-02  0.8510326E-01
          2   -1    0    0  501    0  0.00000000000E+00  0.00000000000E+00  0.34360136492E+04  0.34360136492E+04  0.00000000000E+00 0. -1.
         -2   -1    0    0    0  501 -0.00000000000E+00 -0.00000000000E+00 -0.35844583929E+03  0.35844583929E+03  0.00000000000E+00 0.  1.
         23    2    1    2    0    0 -0.85550639212E+03 -0.35037837752E+03  0.12070826689E+04  0.15230561741E+04  0.89416695989E+02 0.  0.
        254    2    1    2    0    0  0.85550639212E+03  0.35037837752E+03  0.18704851410E+04  0.22714033144E+04  0.89772053530E+03 0.  0.
         23    2    4    4    0    0  0.41694671133E+03 -0.22351812303E+03  0.11520192605E+04  0.12486606391E+04  0.90554423131E+02 0.  0.
         23    2    4    4    0    0  0.43855968079E+03  0.57389650055E+03  0.71846588048E+03  0.10227426753E+04  0.90097566690E+02 0.  0.
          1    1    3    3  502    0 -0.56185573026E+03 -0.27444439784E+03  0.79868836640E+03  0.10143493953E+04  0.00000000000E+00 0. -1.
         -1    1    3    3    0  502 -0.29365066186E+03 -0.75933979685E+02  0.40839430254E+03  0.50870677883E+03  0.00000000000E+00 0.  1.
         13    1    5    5    0    0  0.12388756816E+02  0.79179436065E+01  0.50437980864E+02  0.52537272865E+02  0.00000000000E+00 0.  1.
        -13    1    5    5    0    0  0.40455795451E+03 -0.23143606664E+03  0.11015812797E+04  0.11961233662E+04  0.00000000000E+00 0. -1.
          3    1    6    6  503    0  0.39909131373E+03  0.52848096960E+03  0.61898681201E+03  0.90648258966E+03  0.00000000000E+00 0. -1.
         -3    1    6    6    0  503  0.39468367061E+02  0.45415530951E+02  0.99479068473E+02  0.11626008565E+03  0.00000000000E+00 0.  1.
<mgrwt>
<rscale>  0 0.22195718E+04</rscale>
<asrwt>0</asrwt>
<pdfrwt beam="1">  1        2 0.52861746E+00 0.22195718E+04</pdfrwt>
<pdfrwt beam="2">  1       -2 0.55145516E-01 0.22195718E+04</pdfrwt>
<totfact> 0.25488321E+00</totfact>
</mgrwt>
</event>
<event>
12    3  0.4192740E-008  0.2055260E+04  0.7818608E-02  0.8581212E-01
          1   -1    0    0  501    0  0.00000000000E+00  0.00000000000E+00  0.13774763630E+04  0.13774763630E+04  0.00000000000E+00 0. -1.
         -1   -1    0    0    0  501 -0.00000000000E+00 -0.00000000000E+00 -0.76663668978E+03  0.76663668978E+03  0.00000000000E+00 0.  1.
         23    2    1    2    0    0  0.68432047275E+02  0.25337458423E+02  0.11048599019E+04  0.11110613488E+04  0.91744134256E+02 0.  0.
        254    2    1    2    0    0 -0.68432047275E+02 -0.25337458423E+02 -0.49402022868E+03  0.10330517039E+04  0.90433119197E+03 0.  0.
         23    2    4    4    0    0 -0.13956857642E+01 -0.33423519223E+03 -0.59534539953E+03  0.68852033113E+03  0.88932502293E+02 0.  0.
         23    2    4    4    0    0 -0.67036361510E+02  0.30889773381E+03  0.10132517085E+03  0.34453137281E+03  0.92322223152E+02 0.  0.
          1    1    3    3  502    0  0.60685366231E+02  0.57729137575E+02  0.76342373092E+03  0.76800466140E+03  0.00000000000E+00 0. -1.
         -1    1    3    3    0  502  0.77466810438E+01 -0.32391679151E+02  0.34143617096E+03  0.34305668743E+03  0.00000000000E+00 0.  1.
         13    1    5    5    0    0  0.22482822019E+02 -0.25672890968E+03 -0.50605041254E+03  0.56789279832E+03  0.00000000000E+00 0. -1.
        -13    1    5    5    0    0 -0.23878507783E+02 -0.77506282553E+02 -0.89294986996E+02  0.12062753281E+03  0.00000000000E+00 0.  1.
          1    1    6    6  503    0 -0.29142132496E+02  0.27539553530E+03  0.98295233536E+02  0.29386037107E+03  0.00000000000E+00 0. -1.
         -1    1    6    6    0  503 -0.37894229014E+02  0.33502198511E+02  0.30299373137E+01  0.50671001744E+02  0.00000000000E+00 0.  1.
<mgrwt>
<rscale>  0 0.20552605E+04</rscale>
<asrwt>0</asrwt>
<pdfrwt beam="1">  1        1 0.21191944E+00 0.20552605E+04</pdfrwt>
<pdfrwt beam="2">  1       -1 0.11794411E+00 0.20552605E+04</pdfrwt>
<totfact> 0.47512257E+00</totfact>
</mgrwt>
</event>
<event>
12    3  0.4192740E-008  0.1699167E+04  0.7818608E-02  0.8761839E-01
          2   -1    0    0  501    0  0.00000000000E+00  0.00000000000E+00  0.15733144105E+04  0.15733144105E+04  0.00000000000E+00 0. -1.
         -2   -1    0    0    0  501 -0.00000000000E+00 -0.00000000000E+00 -0.45877180600E+03  0.45877180600E+03  0.00000000000E+00 0.  1.
         23    2    1    2    0    0 -0.26175304885E+03 -0.25845218141E+03  0.98393373017E+03  0.10541469739E+04  0.88250033980E+02 0.  0.
        254    2    1    2    0    0  0.26175304885E+03  0.25845218141E+03  0.13060887431E+03  0.97793924261E+03  0.89665728989E+03 0.  0.
         23    2    4    4    0    0  0.40441413355E+02 -0.31592530904E+03 -0.37379552999E+02  0.33341008292E+03  0.91218110078E+02 0.  0.
         23    2    4    4    0    0  0.22131163550E+03  0.57437749044E+03  0.16798842731E+03  0.64452915969E+03  0.91155825049E+02 0.  0.
          3    1    3    3  502    0 -0.26336778694E+03 -0.26317606608E+03  0.95944313104E+03  0.10291527363E+04  0.00000000000E+00 0. -1.
         -3    1    3    3    0  502  0.16147380822E+01  0.47238846765E+01  0.24490599134E+02  0.24994237565E+02  0.00000000000E+00 0.  1.
         13    1    5    5    0    0 -0.24633395881E+01 -0.20543665675E+03 -0.57135922707E+02  0.21324821603E+03  0.00000000000E+00 0. -1.
        -13    1    5    5    0    0  0.42904752943E+02 -0.11048865229E+03  0.19756369708E+02  0.12016186689E+03  0.00000000000E+00 0.  1.
          2    1    6    6  503    0  0.65573235792E+02  0.13174772622E+03  0.78680944548E+02  0.16687721130E+03  0.00000000000E+00 0. -1.
         -2    1    6    6    0  503  0.15573839971E+03  0.44262976422E+03  0.89307482766E+02  0.47765194839E+03  0.00000000000E+00 0.  1.
<mgrwt>
<rscale>  0 0.16991672E+04</rscale>
<asrwt>0</asrwt>
<pdfrwt beam="1">  1        2 0.24204837E+00 0.16991672E+04</pdfrwt>
<pdfrwt beam="2">  1       -2 0.70580278E-01 0.16991672E+04</pdfrwt>
<totfact> 0.20051464E+01</totfact>
</mgrwt>
</event>
<event>
12    3  0.4192740E-008  0.1681554E+04  0.7818608E-02  0.8771955E-01
          1   -1    0    0  501    0  0.00000000000E+00  0.00000000000E+00  0.10619344606E+04  0.10619344606E+04  0.00000000000E+00 0. -1.
         -1   -1    0    0    0  501 -0.00000000000E+00 -0.00000000000E+00 -0.66567740567E+03  0.66567740567E+03  0.00000000000E+00 0.  1.
         23    2    1    2    0    0  0.40279584349E+03  0.22255832005E+03  0.52565060063E+03  0.70461933017E+03  0.91668692301E+02 0.  0.
        254    2    1    2    0    0 -0.40279584349E+03 -0.22255832005E+03 -0.12939354567E+03  0.10229925361E+04  0.90443039643E+03 0.  0.
         23    2    4    4    0    0  0.16771853500E+02  0.24819135249E+03  0.17436477970E+03  0.31703427343E+03  0.90705080378E+02 0.  0.
         23    2    4    4    0    0 -0.41956769699E+03 -0.47074967255E+03 -0.30375832537E+03  0.70595826271E+03  0.92008922933E+02 0.  0.
          3    1    3    3  502    0  0.35252032875E+03  0.22354246849E+03  0.48547260530E+03  0.64025422130E+03  0.00000000000E+00 0. -1.
         -3    1    3    3    0  502  0.50275514741E+02 -0.98414843802E+00  0.40177995333E+02  0.64365108868E+02  0.00000000000E+00 0.  1.
         13    1    5    5    0    0  0.90326125628E+01  0.56307439006E+02 -0.90793085676E+00  0.57034551945E+02  0.00000000000E+00 0.  1.
        -13    1    5    5    0    0  0.77392409373E+01  0.19188391349E+03  0.17527271056E+03  0.25999972149E+03  0.00000000000E+00 0. -1.
          1    1    6    6  503    0 -0.32697102749E+03 -0.41325600446E+03 -0.26835572461E+03  0.59135892060E+03  0.00000000000E+00 0. -1.
         -1    1    6    6    0  503 -0.92596669498E+02 -0.57493668090E+02 -0.35402600759E+02  0.11459934211E+03  0.00000000000E+00 0.  1.
<mgrwt>
<rscale>  0 0.16815538E+04</rscale>
<asrwt>0</asrwt>
<pdfrwt beam="1">  1        1 0.16337453E+00 0.16815538E+04</pdfrwt>
<pdfrwt beam="2">  1       -1 0.10241191E+00 0.16815538E+04</pdfrwt>
<totfact> 0.11654106E+01</totfact>
</mgrwt>
</event>
<event>
12    3  0.4192740E-008  0.2863434E+04  0.7818608E-02  0.8283841E-01
          1   -1    0    0  501    0  0.00000000000E+00  0.00000000000E+00  0.25964110540E+04  0.25964110540E+04  0.00000000000E+00 0. -1.
         -1   -1    0    0    0  501 -0.00000000000E+00 -0.00000000000E+00 -0.78947934019E+03  0.78947934019E+03  0.00000000000E+00 0.  1.
         23    2    1    2    0    0 -0.93816647553E+03  0.16523192131E+03  0.18354161473E+04  0.20699216027E+04  0.91460831904E+02 0.  0.
        254    2    1    2    0    0  0.93816647553E+03 -0.16523192131E+03 -0.28484433474E+02  0.13159687916E+04  0.90747152779E+03 0.  0.
         23    2    4    4    0    0  0.75321238506E+03 -0.29150549603E+03  0.33526664997E+03  0.87912434929E+03  0.90285899865E+02 0.  0.
         23    2    4    4    0    0  0.18495409047E+03  0.12627357471E+03 -0.36375108344E+03  0.43684444226E+03  0.91461384067E+02 0.  0.
          4    1    3    3  502    0 -0.88121289837E+01 -0.56512612621E+00  0.45139321970E+02  0.45994905943E+02  0.00000000000E+00 0.  1.
         -4    1    3    3    0  502 -0.92935434655E+03  0.16579704744E+03  0.17902768254E+04  0.20239266967E+04  0.00000000000E+00 0. -1.
         13    1    5    5    0    0  0.15520304827E+02 -0.19029939026E+02  0.20778802328E+02  0.32167950937E+02  0.00000000000E+00 0. -1.
        -13    1    5    5    0    0  0.73769208023E+03 -0.27247555700E+03  0.31448784764E+03  0.84695639836E+03  0.00000000000E+00 0.  1.
          4    1    6    6  503    0  0.16296177860E+01  0.19558925459E+02 -0.52970746547E+01  0.20328950272E+02  0.00000000000E+00 0. -1.
         -4    1    6    6    0  503  0.18332447268E+03  0.10671464925E+03 -0.35845400879E+03  0.41651549199E+03  0.00000000000E+00 0.  1.
<mgrwt>
<rscale>  0 0.28634335E+04</rscale>
<asrwt>0</asrwt>
<pdfrwt beam="1">  1        1 0.39944785E+00 0.28634335E+04</pdfrwt>
<pdfrwt beam="2">  1       -1 0.12145836E+00 0.28634335E+04</pdfrwt>
<totfact> 0.60022998E-01</totfact>
</mgrwt>
</event>
<event>
12    3  0.4192740E-008  0.1401601E+04  0.7818608E-02  0.8952661E-01
         -2   -1    0    0    0  501 -0.00000000000E+00  0.00000000000E+00  0.48751798918E+03  0.48751798918E+03  0.00000000000E+00 0. -1.
          2   -1    0    0  501    0  0.00000000000E+00 -0.00000000000E+00 -0.10073908766E+04  0.10073908766E+04  0.00000000000E+00 0.  1.
         23    2    1    2    0    0 -0.23977733950E+03 -0.33513804140E+03 -0.22382773245E+03  0.47767061458E+03  0.90882797533E+02 0.  0.
        254    2    1    2    0    0  0.23977733950E+03  0.33513804140E+03 -0.29604515498E+03  0.10172382512E+04  0.88165766975E+03 0.  0.
         23    2    4    4    0    0 -0.21246561010E+03  0.44304731330E+03 -0.14616528582E+03  0.52019689493E+03  0.88362669841E+02 0.  0.
         23    2    4    4    0    0  0.45224294960E+03 -0.10790927189E+03 -0.14987986916E+03  0.49704135629E+03  0.91749867920E+02 0.  0.
          1    1    3    3  502    0 -0.19991928585E+03 -0.31509612126E+03 -0.17707785309E+03  0.41304945532E+03  0.00000000000E+00 0. -1.
         -1    1    3    3    0  502 -0.39858053649E+02 -0.20041920146E+02 -0.46749879362E+02  0.64621159261E+02  0.00000000000E+00 0.  1.
         13    1    5    5    0    0 -0.70938599386E+02  0.25000629936E+03 -0.75574861379E+02  0.27064181915E+03  0.00000000000E+00 0.  1.
        -13    1    5    5    0    0 -0.14152701071E+03  0.19304101394E+03 -0.70590424444E+02  0.24955507578E+03  0.00000000000E+00 0. -1.
          4    1    6    6  503    0  0.28437461482E+03 -0.22895638497E+02 -0.10079548888E+03  0.30257703548E+03  0.00000000000E+00 0. -1.
         -4    1    6    6    0  503  0.16786833477E+03 -0.85013633396E+02 -0.49084380275E+02  0.19446432081E+03  0.00000000000E+00 0.  1.
<mgrwt>
<rscale>  0 0.14016008E+04</rscale>
<asrwt>0</asrwt>
<pdfrwt beam="1">  1        2 0.15498321E+00 0.14016008E+04</pdfrwt>
<pdfrwt beam="2">  1       -2 0.75002769E-01 0.14016008E+04</pdfrwt>
<totfact> 0.38723763E+01</totfact>
</mgrwt>
</event>
<event>
12    3  0.4708925E-008  0.1457573E+04  0.7818608E-02  0.8913167E-01
         -1   -1    0    0    0  501 -0.00000000000E+00  0.00000000000E+00  0.60721118254E+03  0.60721118254E+03  0.00000000000E+00 0.  1.
          1   -1    0    0  501    0  0.00000000000E+00 -0.00000000000E+00 -0.87470357407E+03  0.87470357407E+03  0.00000000000E+00 0. -1.
         23    2    1    2    0    0  0.13865184747E+03  0.73953830036E+02  0.32825156109E+03  0.38115955238E+03  0.11331378218E+03 0.  0.
        254    2    1    2    0    0 -0.13865184747E+03 -0.73953830036E+02 -0.59574395262E+03  0.11007552042E+04  0.91217194585E+03 0.  0.
         23    2    4    4    0    0 -0.15204000653E+03  0.38257718981E+03 -0.12719130051E+03  0.44003796119E+03  0.89298995612E+02 0.  0.
         23    2    4    4    0    0  0.13388159060E+02 -0.45653101985E+03 -0.46855265211E+03  0.66071724304E+03  0.91683545791E+02 0.  0.
          4    1    3    3  502    0 -0.18862137794E+02  0.13019756524E+02  0.24065487020E+02  0.33233145618E+02  0.00000000000E+00 0. -1.
         -4    1    3    3    0  502  0.15751398526E+03  0.60934073512E+02  0.30418607407E+03  0.34792640676E+03  0.00000000000E+00 0.  1.
         13    1    5    5    0    0 -0.89733468937E+00  0.27739123742E+02  0.11680873987E+02  0.30111576057E+02  0.00000000000E+00 0. -1.
        -13    1    5    5    0    0 -0.15114267184E+03  0.35483806607E+03 -0.13887217450E+03  0.40992638514E+03  0.00000000000E+00 0.  1.
          4    1    6    6  503    0 -0.19691693366E+02 -0.78513112521E+02 -0.47283608238E+02  0.93743326340E+02  0.00000000000E+00 0. -1.
         -4    1    6    6    0  503  0.33079852426E+02 -0.37801790733E+03 -0.42126904387E+03  0.56697391670E+03  0.00000000000E+00 0.  1.
<mgrwt>
<rscale>  0 0.14575730E+04</rscale>
<asrwt>0</asrwt>
<pdfrwt beam="1">  1        1 0.13456978E+00 0.14575730E+04</pdfrwt>
<pdfrwt beam="2">  1       -1 0.93417106E-01 0.14575730E+04</pdfrwt>
<totfact> 0.20615019E+01</totfact>
</mgrwt>
</event>
<event>
12    3  0.4192740E-008  0.1367026E+04  0.7818608E-02  0.8978039E-01
          1   -1    0    0  501    0  0.00000000000E+00  0.00000000000E+00  0.10595214612E+04  0.10595214612E+04  0.00000000000E+00 0. -1.
         -1   -1    0    0    0  501 -0.00000000000E+00 -0.00000000000E+00 -0.44094459353E+03  0.44094459353E+03  0.00000000000E+00 0.  1.
         23    2    1    2    0    0  0.35737487644E+03 -0.82644391176E+02  0.70489269512E+02  0.38403168861E+03  0.89245184967E+02 0.  0.
        254    2    1    2    0    0 -0.35737487644E+03  0.82644391176E+02  0.54808759814E+03  0.11164343661E+04  0.90082117030E+03 0.  0.
         23    2    4    4    0    0 -0.77145380972E+02  0.37258931892E+03  0.58323566189E+03  0.70236563254E+03  0.91539248913E+02 0.  0.
         23    2    4    4    0    0 -0.28022949546E+03 -0.28994492775E+03 -0.35148063755E+02  0.41406873355E+03  0.87297757501E+02 0.  0.
          1    1    3    3  502    0  0.30173906809E+03 -0.77178521313E+02  0.25908477961E+02  0.31252878042E+03  0.00000000000E+00 0.  1.
         -1    1    3    3    0  502  0.55635808350E+02 -0.54658698625E+01  0.44580791551E+02  0.71502908189E+02  0.00000000000E+00 0. -1.
         13    1    5    5    0    0 -0.94034154333E+02  0.33661317786E+03  0.54342456215E+03  0.64611230327E+03  0.00000000000E+00 0. -1.
        -13    1    5    5    0    0  0.16888773361E+02  0.35976141060E+02  0.39811099746E+02  0.56253329272E+02  0.00000000000E+00 0.  1.
          4    1    6    6  503    0 -0.19264397285E+03 -0.23814045886E+03 -0.52705153797E+02  0.31080606760E+03  0.00000000000E+00 0. -1.
         -4    1    6    6    0  503 -0.87585522618E+02 -0.51804468891E+02  0.17557090042E+02  0.10326266596E+03  0.00000000000E+00 0.  1.
<mgrwt>
<rscale>  0 0.13670263E+04</rscale>
<asrwt>0</asrwt>
<pdfrwt beam="1">  1        1 0.16300330E+00 0.13670263E+04</pdfrwt>
<pdfrwt beam="2">  1       -1 0.67837630E-01 0.13670263E+04</pdfrwt>
<totfact> 0.29273671E+01</totfact>
</mgrwt>
</event>
<event>
12    3  0.4192740E-008  0.1402203E+04  0.7818608E-02  0.8952226E-01
          2   -1    0    0  501    0  0.00000000000E+00  0.00000000000E+00  0.87078797462E+03  0.87078797462E+03  0.00000000000E+00 0. -1.
         -2   -1    0    0    0  501 -0.00000000000E+00 -0.00000000000E+00 -0.56448078350E+03  0.56448078350E+03  0.00000000000E+00 0.  1.
         23    2    1    2    0    0  0.28487323411E+03  0.81975185230E+02  0.39445393536E+03  0.49902067565E+03  0.74532121286E+02 0.  0.
        254    2    1    2    0    0 -0.28487323411E+03 -0.81975185230E+02 -0.88146744244E+02  0.93624808247E+03  0.88369561100E+03 0.  0.
         23    2    4    4    0    0 -0.20943592892E+03  0.38429286469E+03 -0.89091408021E+02  0.45543480937E+03  0.89102033842E+02 0.  0.
         23    2    4    4    0    0 -0.75437305195E+02 -0.46626804992E+03  0.94466377712E+00  0.48081327310E+03  0.89910120718E+02 0.  0.
          2    1    3    3  502    0  0.28787089467E+03  0.76777058524E+02  0.37668896908E+03  0.48026966190E+03  0.00000000000E+00 0. -1.
         -2    1    3    3    0  502 -0.29976605544E+01  0.51981267060E+01  0.17764966279E+02  0.18751013758E+02  0.00000000000E+00 0.  1.
         13    1    5    5    0    0 -0.10911028378E+03  0.13207429799E+03 -0.54516299493E+01  0.17140126745E+03  0.00000000000E+00 0.  1.
        -13    1    5    5    0    0 -0.10032564514E+03  0.25221856670E+03 -0.83639778072E+02  0.28403354192E+03  0.00000000000E+00 0. -1.
          2    1    6    6  503    0 -0.88693950427E+02 -0.42790961105E+03 -0.14866201943E+02  0.43725765405E+03  0.00000000000E+00 0. -1.
         -2    1    6    6    0  503  0.13256645232E+02 -0.38358438872E+02  0.15810865720E+02  0.43555619044E+02  0.00000000000E+00 0.  1.
<mgrwt>
<rscale>  0 0.14022027E+04</rscale>
<asrwt>0</asrwt>
<pdfrwt beam="1">  1        2 0.13396738E+00 0.14022027E+04</pdfrwt>
<pdfrwt beam="2">  1       -2 0.86843198E-01 0.14022027E+04</pdfrwt>
<totfact> 0.34287991E+01</totfact>
</mgrwt>
</event>
<event>
12    3  0.4192740E-008  0.1716959E+04  0.7818608E-02  0.8751751E-01
         -2   -1    0    0    0  501 -0.00000000000E+00  0.00000000000E+00  0.44665334307E+03  0.44665334307E+03  0.00000000000E+00 0.  1.
          2   -1    0    0  501    0  0.00000000000E+00 -0.00000000000E+00 -0.16500195887E+04  0.16500195887E+04  0.00000000000E+00 0. -1.
         23    2    1    2    0    0 -0.13816016141E+03  0.40909463459E+03  0.99781321235E+02  0.45226301690E+03  0.90215708890E+02 0.  0.
        254    2    1    2    0    0  0.13816016141E+03 -0.40909463459E+03 -0.13031475669E+04  0.16444099149E+04  0.90523131679E+03 0.  0.
         23    2    4    4    0    0  0.25443100533E+03 -0.65460947180E+03 -0.10148129319E+04  0.12375247617E+04  0.91507114090E+02 0.  0.
         23    2    4    4    0    0 -0.11627084393E+03  0.24551483721E+03 -0.28833463499E+03  0.40688515325E+03  0.92855919365E+02 0.  0.
          3    1    3    3  502    0 -0.88566445553E+01  0.14649768669E+03  0.51873886681E+02  0.15566281661E+03  0.00000000000E+00 0. -1.
         -3    1    3    3    0  502 -0.12930351685E+03  0.26259694791E+03  0.47907434554E+02  0.29660020028E+03  0.00000000000E+00 0.  1.
         13    1    5    5    0    0  0.22768359991E+03 -0.62649281768E+03 -0.92960801644E+03  0.11438986566E+04  0.00000000000E+00 0.  1.
        -13    1    5    5    0    0  0.26747405421E+02 -0.28116654116E+02 -0.85204915472E+02  0.93626105099E+02  0.00000000000E+00 0. -1.
          2    1    6    6  503    0 -0.45784866980E+02  0.35881020994E+02 -0.10317562586E+03  0.11844370597E+03  0.00000000000E+00 0. -1.
         -2    1    6    6    0  503 -0.70485976946E+02  0.20963381621E+03 -0.18515900913E+03  0.28844144728E+03  0.00000000000E+00 0.  1.
<mgrwt>
<rscale>  0 0.17169587E+04</rscale>
<asrwt>0</asrwt>
<pdfrwt beam="1">  1        2 0.25384917E+00 0.17169587E+04</pdfrwt>
<pdfrwt beam="2">  1       -2 0.68715899E-01 0.17169587E+04</pdfrwt>
<totfact> 0.19231275E+01</totfact>
</mgrwt>
</event>
<event>
12    3  0.4192740E-008  0.1556119E+04  0.7818608E-02  0.8847969E-01
          1   -1    0    0  501    0  0.00000000000E+00  0.00000000000E+00  0.65080900672E+03  0.65080900672E+03  0.00000000000E+00 0. -1.
         -1   -1    0    0    0  501 -0.00000000000E+00 -0.00000000000E+00 -0.93019072223E+03  0.93019072223E+03  0.00000000000E+00 0.  1.
         23    2    1    2    0    0 -0.12237104330E+03  0.22819137624E+03  0.35216431429E+03  0.44656466383E+03  0.91401959999E+02 0.  0.
        254    2    1    2    0    0  0.12237104330E+03 -0.22819137624E+03 -0.63154602981E+03  0.11344350651E+04  0.90611619166E+03 0.  0.
         23    2    4    4    0    0  0.45023911140E+03 -0.27854873786E+03 -0.18342157532E+03  0.56947427695E+03  0.10174881337E+03 0.  0.
         23    2    4    4    0    0 -0.32786806810E+03  0.50357361620E+02 -0.44812445449E+03  0.56496078817E+03  0.91278866697E+02 0.  0.
          2    1    3    3  502    0 -0.83471457769E+02  0.17572826497E+03  0.19083959845E+03  0.27252093444E+03  0.00000000000E+00 0. -1.
         -2    1    3    3    0  502 -0.38899585530E+02  0.52463111275E+02  0.16132471584E+03  0.17404372939E+03  0.00000000000E+00 0.  1.
         13    1    5    5    0    0  0.33902747757E+03 -0.24189909494E+03 -0.10821626491E+03  0.43030868301E+03  0.00000000000E+00 0. -1.
        -13    1    5    5    0    0  0.11121163383E+03 -0.36649642927E+02 -0.75205310406E+02  0.13916559395E+03  0.00000000000E+00 0.  1.
          1    1    6    6  503    0 -0.16092349709E+03  0.93139218090E+01 -0.28791494465E+03  0.32996687168E+03  0.00000000000E+00 0. -1.
         -1    1    6    6    0  503 -0.16694457102E+03  0.41043439811E+02 -0.16020950984E+03  0.23499391649E+03  0.00000000000E+00 0.  1.
<mgrwt>
<rscale>  0 0.15561189E+04</rscale>
<asrwt>0</asrwt>
<pdfrwt beam="1">  1        1 0.10012446E+00 0.15561189E+04</pdfrwt>
<pdfrwt beam="2">  1       -1 0.14310627E+00 0.15561189E+04</pdfrwt>
<totfact> 0.11583635E+01</totfact>
</mgrwt>
</event>
<event>
12    3  0.4192740E-008  0.1369815E+04  0.7818608E-02  0.8975963E-01
          1   -1    0    0  501    0  0.00000000000E+00  0.00000000000E+00  0.60923572872E+03  0.60923572872E+03  0.00000000000E+00 0. -1.
         -1   -1    0    0    0  501 -0.00000000000E+00 -0.00000000000E+00 -0.76997780495E+03  0.76997780495E+03  0.00000000000E+00 0.  1.
         23    2    1    2    0    0  0.34314727466E+03  0.10066372757E+03  0.11065801704E+03  0.38313989958E+03  0.81656278169E+02 0.  0.
        254    2    1    2    0    0 -0.34314727466E+03 -0.10066372757E+03 -0.27140009328E+03  0.99607363409E+03  0.88916895793E+03 0.  0.
         23    2    4    4    0    0  0.20088267085E+03 -0.28938887906E+03 -0.38613066243E+02  0.36656661526E+03  0.93703488550E+02 0.  0.
         23    2    4    4    0    0 -0.54402994551E+03  0.18872515150E+03 -0.23278702703E+03  0.62950701883E+03  0.10248669369E+03 0.  0.
          2    1    3    3  502    0  0.74146445897E+02 -0.47447234518E+01  0.44980331447E+02  0.86852968037E+02  0.00000000000E+00 0.  1.
         -2    1    3    3    0  502  0.26900082876E+03  0.10540845102E+03  0.65677685597E+02  0.29628693155E+03  0.00000000000E+00 0. -1.
         13    1    5    5    0    0  0.19627949165E+03 -0.27672924186E+03 -0.56739750162E+02  0.34398271961E+03  0.00000000000E+00 0. -1.
        -13    1    5    5    0    0  0.46031791998E+01 -0.12659637204E+02  0.18126683919E+02  0.22583895651E+02  0.00000000000E+00 0.  1.
          2    1    6    6  503    0 -0.48576723809E+03  0.13638761319E+03 -0.18304692008E+03  0.53672857721E+03  0.00000000000E+00 0. -1.
         -2    1    6    6    0  503 -0.58262707417E+02  0.52337538301E+02 -0.49740106948E+02  0.92778441624E+02  0.00000000000E+00 0.  1.
<mgrwt>
<rscale>  0 0.13698146E+04</rscale>
<asrwt>0</asrwt>
<pdfrwt beam="1">  1        1 0.93728574E-01 0.13698146E+04</pdfrwt>
<pdfrwt beam="2">  1       -1 0.11845812E+00 0.13698146E+04</pdfrwt>
<totfact> 0.20927584E+01</totfact>
</mgrwt>
</event>
<event>
12    3  0.4192740E-008  0.1204464E+04  0.7818608E-02  0.9108958E-01
          1   -1    0    0  501    0  0.00000000000E+00  0.00000000000E+00  0.12306048981E+04  0.12306048981E+04  0.00000000000E+00 0. -1.
         -1   -1    0    0    0  501 -0.00000000000E+00 -0.00000000000E+00 -0.29471982608E+03  0.29471982608E+03  0.00000000000E+00 0.  1.
         23    2    1    2    0    0 -0.52075894796E+02 -0.15575989471E+03  0.45098143490E+03  0.48937204809E+03  0.95539014071E+02 0.  0.
        254    2    1    2    0    0  0.52075894796E+02  0.15575989471E+03  0.48490363712E+03  0.10359526761E+04  0.90060722082E+03 0.  0.
         23    2    4    4    0    0  0.12547399630E+03 -0.30008856127E+03  0.45400016999E+03  0.56527178465E+03  0.87287844601E+02 0.  0.
         23    2    4    4    0    0 -0.73398101507E+02  0.45584845598E+03  0.30903467127E+02  0.47068089144E+03  0.86025468101E+02 0.  0.
          2    1    3    3  502    0 -0.17818823717E+02 -0.27200080499E+01  0.13927939196E+03  0.14044094114E+03  0.00000000000E+00 0. -1.
         -2    1    3    3    0  502 -0.34257071079E+02 -0.15303988666E+03  0.31170204294E+03  0.34893110695E+03  0.00000000000E+00 0.  1.
         13    1    5    5    0    0  0.24324437889E+02 -0.14912967950E+03  0.16357679485E+03  0.22268522043E+03  0.00000000000E+00 0.  1.
        -13    1    5    5    0    0  0.10114955841E+03 -0.15095888178E+03  0.29042337514E+03  0.34258656422E+03  0.00000000000E+00 0. -1.
          2    1    6    6  503    0 -0.86794143645E+02  0.41940827397E+03  0.14519496809E+02  0.42854094254E+03  0.00000000000E+00 0. -1.
         -2    1    6    6    0  503  0.13396042139E+02  0.36440182014E+02  0.16383970319E+02  0.42139948903E+02  0.00000000000E+00 0.  1.
<mgrwt>
<rscale>  0 0.12044645E+04</rscale>
<asrwt>0</asrwt>
<pdfrwt beam="1">  1        1 0.18932383E+00 0.12044645E+04</pdfrwt>
<pdfrwt beam="2">  1       -1 0.45341513E-01 0.12044645E+04</pdfrwt>
<totfact> 0.48473490E+01</totfact>
</mgrwt>
</event>
<event>
12    3  0.4192740E-008  0.1863242E+04  0.7818608E-02  0.8673373E-01
          1   -1    0    0  501    0  0.00000000000E+00  0.00000000000E+00  0.17871469673E+04  0.17871469673E+04  0.00000000000E+00 0. -1.
         -1   -1    0    0    0  501 -0.00000000000E+00 -0.00000000000E+00 -0.48564414747E+03  0.48564414747E+03  0.00000000000E+00 0.  1.
         23    2    1    2    0    0 -0.22361133261E+03 -0.12762615735E+03 -0.30311911334E+03  0.40828273903E+03  0.92320821093E+02 0.  0.
        254    2    1    2    0    0  0.22361133261E+03  0.12762615735E+03  0.16046219331E+04  0.18645083757E+04  0.91394172170E+03 0.  0.
         23    2    4    4    0    0  0.56215805850E+03 -0.13072918990E+02  0.10197794215E+04  0.11682396303E+04  0.92957954641E+02 0.  0.
         23    2    4    4    0    0 -0.33854672589E+03  0.14069907634E+03  0.58484251169E+03  0.69626874545E+03  0.91319695142E+02 0.  0.
          3    1    3    3  502    0 -0.42721579723E+02 -0.37324620004E+02 -0.19516903873E+02  0.59993084345E+02  0.00000000000E+00 0. -1.
         -3    1    3    3    0  502 -0.18088975289E+03 -0.90301537346E+02 -0.28360220947E+03  0.34828965469E+03  0.00000000000E+00 0.  1.
         13    1    5    5    0    0  0.44426009326E+03 -0.20966390776E+02  0.87340051028E+03  0.98011992703E+03  0.00000000000E+00 0. -1.
        -13    1    5    5    0    0  0.11789796524E+03  0.78934717859E+01  0.14637891117E+03  0.18811970322E+03  0.00000000000E+00 0.  1.
          4    1    6    6  503    0 -0.19022503983E+03  0.75073186137E+02  0.24086520406E+03  0.31597087774E+03  0.00000000000E+00 0. -1.
         -4    1    6    6    0  503 -0.14832168606E+03  0.65625890203E+02  0.34397730763E+03  0.38029786771E+03  0.00000000000E+00 0.  1.
<mgrwt>
<rscale>  0 0.18632418E+04</rscale>
<asrwt>0</asrwt>
<pdfrwt beam="1">  1        1 0.27494568E+00 0.18632418E+04</pdfrwt>
<pdfrwt beam="2">  1       -1 0.74714485E-01 0.18632418E+04</pdfrwt>
<totfact> 0.70307075E+00</totfact>
</mgrwt>
</event>
<event>
12    3  0.4192740E-008  0.2675670E+04  0.7818608E-02  0.8342942E-01
         -1   -1    0    0    0  501 -0.00000000000E+00  0.00000000000E+00  0.42368685620E+03  0.42368685620E+03  0.00000000000E+00 0.  1.
          1   -1    0    0  501    0  0.00000000000E+00 -0.00000000000E+00 -0.42243532291E+04  0.42243532291E+04  0.00000000000E+00 0. -1.
         23    2    1    2    0    0 -0.47893422363E+03 -0.95153770664E+02  0.18732063949E+03  0.53057139511E+03  0.89357443414E+02 0.  0.
        254    2    1    2    0    0  0.47893422363E+03  0.95153770664E+02 -0.39879870123E+04  0.41174686901E+04  0.90059745340E+03 0.  0.
         23    2    4    4    0    0  0.25776606746E+03 -0.39095444455E+03 -0.20762617761E+04  0.21303931403E+04  0.91778243777E+02 0.  0.
         23    2    4    4    0    0  0.22116815617E+03  0.48610821522E+03 -0.19117252363E+04  0.19870755499E+04  0.92516548554E+02 0.  0.
          1    1    3    3  502    0  0.10458329388E+01 -0.34904664027E+01  0.10160005906E+02  0.10793648237E+02  0.00000000000E+00 0. -1.
         -1    1    3    3    0  502 -0.47998005657E+03 -0.91663304262E+02  0.17716063358E+03  0.51977774687E+03  0.00000000000E+00 0.  1.
         13    1    5    5    0    0  0.11165876220E+03 -0.14488241373E+03 -0.10080365854E+04  0.10244980969E+04  0.00000000000E+00 0. -1.
        -13    1    5    5    0    0  0.14610730526E+03 -0.24607203082E+03 -0.10682251906E+04  0.11058950434E+04  0.00000000000E+00 0.  1.
          4    1    6    6  503    0  0.44368093739E+02  0.93589726210E+02 -0.25262743601E+03  0.27303513697E+03  0.00000000000E+00 0. -1.
         -4    1    6    6    0  503  0.17680006243E+03  0.39251848901E+03 -0.16590978003E+04  0.17140404129E+04  0.00000000000E+00 0.  1.
<mgrwt>
<rscale>  0 0.26756703E+04</rscale>
<asrwt>0</asrwt>
<pdfrwt beam="1">  1        1 0.64990050E+00 0.26756703E+04</pdfrwt>
<pdfrwt beam="2">  1       -1 0.65182593E-01 0.26756703E+04</pdfrwt>
<totfact> 0.12553426E-01</totfact>
</mgrwt>
</event>
<event>
12    3  0.4192740E-008  0.1430293E+04  0.7818608E-02  0.8932179E-01
         -1   -1    0    0    0  501 -0.00000000000E+00  0.00000000000E+00  0.40337968956E+03  0.40337968956E+03  0.00000000000E+00 0.  1.
          1   -1    0    0  501    0  0.00000000000E+00 -0.00000000000E+00 -0.12678729041E+04  0.12678729041E+04  0.00000000000E+00 0. -1.
         23    2    1    2    0    0 -0.27911742193E+03 -0.12852327267E+03  0.79301458595E+02  0.32790660717E+03  0.82518209185E+02 0.  0.
        254    2    1    2    0    0  0.27911742193E+03  0.12852327267E+03 -0.94379467311E+03  0.13433459865E+04  0.90521007922E+03 0.  0.
         23    2    4    4    0    0  0.13930541161E+03  0.48612384509E+03 -0.72959712351E+03  0.89267445614E+03  0.93985804945E+02 0.  0.
         23    2    4    4    0    0  0.13981201032E+03 -0.35760057242E+03 -0.21419754959E+03  0.45067153033E+03  0.98988233508E+02 0.  0.
          3    1    3    3  502    0 -0.25835252795E+01 -0.19883515996E+02  0.11663004576E+02  0.23196001529E+02  0.00000000000E+00 0. -1.
         -3    1    3    3    0  502 -0.27653389665E+03 -0.10863975667E+03  0.67638454020E+02  0.30471060564E+03  0.00000000000E+00 0.  1.
         13    1    5    5    0    0  0.76648150215E+02  0.40252965041E+03 -0.58896564514E+03  0.71748560233E+03  0.00000000000E+00 0. -1.
        -13    1    5    5    0    0  0.62657261397E+02  0.83594194679E+02 -0.14063147837E+03  0.17518885381E+03  0.00000000000E+00 0.  1.
          4    1    6    6  503    0  0.10652322348E+03 -0.14554727239E+03 -0.78359995694E+02  0.19665069175E+03  0.00000000000E+00 0. -1.
         -4    1    6    6    0  503  0.33288786840E+02 -0.21205330003E+03 -0.13583755390E+03  0.25402083858E+03  0.00000000000E+00 0.  1.
<mgrwt>
<rscale>  0 0.14302925E+04</rscale>
<asrwt>0</asrwt>
<pdfrwt beam="1">  1        1 0.19505737E+00 0.14302925E+04</pdfrwt>
<pdfrwt beam="2">  1       -1 0.62058414E-01 0.14302925E+04</pdfrwt>
<totfact> 0.24437324E+01</totfact>
</mgrwt>
</event>
<event>
12    3  0.4192740E-008  0.2356405E+04  0.7818608E-02  0.8456008E-01
         -2   -1    0    0    0  501 -0.00000000000E+00  0.00000000000E+00  0.11342202674E+04  0.11342202674E+04  0.00000000000E+00 0. -1.
          2   -1    0    0  501    0  0.00000000000E+00 -0.00000000000E+00 -0.12238901179E+04  0.12238901179E+04  0.00000000000E+00 0.  1.
         23    2    1    2    0    0  0.30830169398E+03  0.81009089211E+03  0.40003172990E+03  0.95916352784E+03  0.93124111841E+02 0.  0.
        254    2    1    2    0    0 -0.30830169398E+03 -0.81009089211E+03 -0.48970158043E+03  0.13989468575E+04  0.98282627368E+03 0.  0.
         23    2    4    4    0    0  0.17880964121E+03  0.60583072935E+02  0.10428222764E+03  0.23426993765E+03  0.91457225892E+02 0.  0.
         23    2    4    4    0    0 -0.48711133520E+03 -0.87067396505E+03 -0.59398380807E+03  0.11646769199E+04  0.91131537340E+02 0.  0.
          1    1    3    3  502    0  0.12318145658E+03  0.40917642677E+03  0.15796902834E+03  0.45558010644E+03  0.00000000000E+00 0. -1.
         -1    1    3    3    0  502  0.18512023741E+03  0.40091446534E+03  0.24206270156E+03  0.50358342139E+03  0.00000000000E+00 0.  1.
         13    1    5    5    0    0  0.14779728520E+03  0.78453631187E+02  0.60990405095E+02  0.17809783624E+03  0.00000000000E+00 0. -1.
        -13    1    5    5    0    0  0.31012356014E+02 -0.17870558252E+02  0.43291822546E+02  0.56172101413E+02  0.00000000000E+00 0.  1.
          4    1    6    6  503    0 -0.14629519245E+03 -0.30583981421E+03 -0.24563479694E+03  0.41866063675E+03  0.00000000000E+00 0.  1.
         -4    1    6    6    0  503 -0.34081614274E+03 -0.56483415083E+03 -0.34834901113E+03  0.74601628310E+03  0.00000000000E+00 0. -1.
<mgrwt>
<rscale>  0 0.23564049E+04</rscale>
<asrwt>0</asrwt>
<pdfrwt beam="1">  1        2 0.18829079E+00 0.23564049E+04</pdfrwt>
<pdfrwt beam="2">  1       -2 0.17449543E+00 0.23564049E+04</pdfrwt>
<totfact> 0.32767583E+00</totfact>
</mgrwt>
</event>
<event>
12    3  0.4192740E-008  0.1739978E+04  0.7818608E-02  0.8738887E-01
         -2   -1    0    0    0  501 -0.00000000000E+00  0.00000000000E+00  0.10579809843E+04  0.10579809843E+04  0.00000000000E+00 0.  1.
          2   -1    0    0  501    0  0.00000000000E+00 -0.00000000000E+00 -0.71540083424E+03  0.71540083424E+03  0.00000000000E+00 0. -1.
         23    2    1    2    0    0  0.40312313916E+03 -0.27368416169E+03  0.54025532748E+03  0.73327901454E+03  0.91711551126E+02 0.  0.
        254    2    1    2    0    0 -0.40312313916E+03  0.27368416169E+03 -0.19767517742E+03  0.10401028040E+04  0.89740017910E+03 0.  0.
         23    2    4    4    0    0 -0.17955962954E+03  0.33638297519E+03 -0.50844240743E+03  0.64208467605E+03  0.91454267214E+02 0.  0.
         23    2    4    4    0    0 -0.22356350961E+03 -0.62698813499E+02  0.31076723000E+03  0.39801812796E+03  0.89052652363E+02 0.  0.
          3    1    3    3  502    0  0.11602409789E+02  0.54298780128E+01  0.27564023594E+02  0.30395310244E+02  0.00000000000E+00 0. -1.
         -3    1    3    3    0  502  0.39152072937E+03 -0.27911403970E+03  0.51269130389E+03  0.70288370429E+03  0.00000000000E+00 0.  1.
         13    1    5    5    0    0 -0.43148554274E+02  0.16326366238E+03 -0.18276959774E+03  0.24884040477E+03  0.00000000000E+00 0. -1.
        -13    1    5    5    0    0 -0.13641107527E+03  0.17311931280E+03 -0.32567280969E+03  0.39324427127E+03  0.00000000000E+00 0.  1.
          3    1    6    6  503    0 -0.10439938954E+03 -0.47323653827E+02  0.86526620220E+02  0.14361621341E+03  0.00000000000E+00 0. -1.
         -3    1    6    6    0  503 -0.11916412007E+03 -0.15375159672E+02  0.22424060978E+03  0.25440191454E+03  0.00000000000E+00 0.  1.
<mgrwt>
<rscale>  0 0.17399776E+04</rscale>
<asrwt>0</asrwt>
<pdfrwt beam="1">  1        2 0.11006167E+00 0.17399776E+04</pdfrwt>
<pdfrwt beam="2">  1       -2 0.16276631E+00 0.17399776E+04</pdfrwt>
<totfact> 0.90806790E+00</totfact>
</mgrwt>
</event>
<event>
12    3  0.4192740E-008  0.2360521E+04  0.7818608E-02  0.8454433E-01
          2   -1    0    0  501    0  0.00000000000E+00  0.00000000000E+00  0.13374309425E+04  0.13374309425E+04  0.00000000000E+00 0. -1.
         -2   -1    0    0    0  501 -0.00000000000E+00 -0.00000000000E+00 -0.10415604416E+04  0.10415604416E+04  0.00000000000E+00 0.  1.
         23    2    1    2    0    0  0.57923669302E+03 -0.79858406660E+03  0.30834646579E+03  0.10377473148E+04  0.92683809472E+02 0.  0.
        254    2    1    2    0    0 -0.57923669302E+03  0.79858406660E+03 -0.12475964918E+02  0.13412440692E+04  0.90858590429E+03 0.  0.
         23    2    4    4    0    0 -0.10841985545E+03  0.27360835530E+03  0.41093031387E+03  0.51360177290E+03  0.91140886129E+02 0.  0.
         23    2    4    4    0    0 -0.47081683757E+03  0.52497571129E+03 -0.42340627879E+03  0.82764229628E+03  0.91928785978E+02 0.  0.
          3    1    3    3  502    0  0.35822320289E+03 -0.53003634304E+03  0.24014000912E+03  0.68332248025E+03  0.00000000000E+00 0. -1.
         -3    1    3    3    0  502  0.22101349013E+03 -0.26854772356E+03  0.68206456667E+02  0.35442483459E+03  0.00000000000E+00 0.  1.
         13    1    5    5    0    0 -0.38016160050E+02  0.19059932539E+03  0.30539782919E+03  0.36199608470E+03  0.00000000000E+00 0.  1.
        -13    1    5    5    0    0 -0.70403695396E+02  0.83009029911E+02  0.10553248468E+03  0.15160568820E+03  0.00000000000E+00 0. -1.
          3    1    6    6  503    0 -0.21375947455E+03  0.17173040971E+03 -0.16873489784E+03  0.32195638265E+03  0.00000000000E+00 0. -1.
         -3    1    6    6    0  503 -0.25705736302E+03  0.35324530158E+03 -0.25467138095E+03  0.50568591363E+03  0.00000000000E+00 0.  1.
<mgrwt>
<rscale>  0 0.23605213E+04</rscale>
<asrwt>0</asrwt>
<pdfrwt beam="1">  1        2 0.20575861E+00 0.23605213E+04</pdfrwt>
<pdfrwt beam="2">  1       -2 0.16024007E+00 0.23605213E+04</pdfrwt>
<totfact> 0.35588129E+00</totfact>
</mgrwt>
</event>
<event>
12    3  0.4192740E-008  0.1897244E+04  0.7818608E-02  0.8656229E-01
         -2   -1    0    0    0  501 -0.00000000000E+00  0.00000000000E+00  0.45056643167E+03  0.45056643167E+03  0.00000000000E+00 0.  1.
          2   -1    0    0  501    0  0.00000000000E+00 -0.00000000000E+00 -0.19972278218E+04  0.19972278218E+04  0.00000000000E+00 0. -1.
         23    2    1    2    0    0 -0.29473585244E+02  0.27007048770E+03  0.27622706550E+03  0.39429780224E+03  0.73229806638E+02 0.  0.
        254    2    1    2    0    0  0.29473585244E+02 -0.27007048770E+03 -0.18228884556E+04  0.20534964512E+04  0.90560399346E+03 0.  0.
         23    2    4    4    0    0  0.11683894059E+03  0.62735801379E+02  0.31603043882E+02  0.16500207670E+03  0.92950600417E+02 0.  0.
         23    2    4    4    0    0 -0.87365355349E+02 -0.33280628908E+03 -0.18544914995E+04  0.18884943745E+04  0.94231361618E+02 0.  0.
          4    1    3    3  502    0 -0.24710153399E+01 -0.27053100671E+01  0.15732062458E+02  0.16153092848E+02  0.00000000000E+00 0. -1.
         -4    1    3    3    0  502 -0.27002569904E+02  0.27277579776E+03  0.26049500304E+03  0.37814470939E+03  0.00000000000E+00 0.  1.
         13    1    5    5    0    0  0.53974301565E+02  0.58213042232E+02 -0.21875487859E+02  0.82343915892E+02  0.00000000000E+00 0. -1.
        -13    1    5    5    0    0  0.62864639029E+02  0.45227591471E+01  0.53478531741E+02  0.82658160805E+02  0.00000000000E+00 0.  1.
          4    1    6    6  503    0 -0.96714036489E+02 -0.18730913812E+03 -0.10691031916E+04  0.10896880069E+04  0.00000000000E+00 0. -1.
         -4    1    6    6    0  503  0.93486811401E+01 -0.14549715096E+03 -0.78538830788E+03  0.79880636761E+03  0.00000000000E+00 0.  1.
<mgrwt>
<rscale>  0 0.18972441E+04</rscale>
<asrwt>0</asrwt>
<pdfrwt beam="1">  1        2 0.30726582E+00 0.18972441E+04</pdfrwt>
<pdfrwt beam="2">  1       -2 0.69317912E-01 0.18972441E+04</pdfrwt>
<totfact> 0.11927640E+01</totfact>
</mgrwt>
</event>
<event>
12    3  0.4192740E-008  0.1178751E+04  0.7818608E-02  0.9131662E-01
         -1   -1    0    0    0  501 -0.00000000000E+00  0.00000000000E+00  0.19409238070E+03  0.19409238070E+03  0.00000000000E+00 0.  1.
          1   -1    0    0  501    0  0.00000000000E+00 -0.00000000000E+00 -0.17896814881E+04  0.17896814881E+04  0.00000000000E+00 0. -1.
         23    2    1    2    0    0  0.17514909644E+03 -0.17205110205E+02 -0.65793719200E+03  0.68803722852E+03  0.97676288943E+02 0.  0.
        254    2    1    2    0    0 -0.17514909644E+03  0.17205110205E+02 -0.93765191537E+03  0.12957366402E+04  0.87679479052E+03 0.  0.
         23    2    4    4    0    0 -0.18205147464E+03  0.25955724561E+03 -0.97927407811E+03  0.10333704905E+04  0.91455712918E+02 0.  0.
         23    2    4    4    0    0  0.69023782006E+01 -0.24235213540E+03  0.41622162741E+02  0.26236614974E+03  0.91221662664E+02 0.  0.
          4    1    3    3  502    0  0.66754942589E+02 -0.49527346848E+02 -0.35689558227E+03  0.36644731830E+03  0.00000000000E+00 0. -1.
         -4    1    3    3    0  502  0.10839415385E+03  0.32322236643E+02 -0.30104160973E+03  0.32158991023E+03  0.00000000000E+00 0.  1.
         13    1    5    5    0    0 -0.18839658152E+03  0.24065484640E+03 -0.86584714409E+03  0.91820439116E+03  0.00000000000E+00 0. -1.
        -13    1    5    5    0    0  0.63451068719E+01  0.18902399213E+02 -0.11342693402E+03  0.11516609935E+03  0.00000000000E+00 0.  1.
          3    1    6    6  503    0  0.16319197150E+02 -0.24601358993E+03  0.32376932647E+02  0.24867100433E+03  0.00000000000E+00 0. -1.
         -3    1    6    6    0  503 -0.94168189497E+01  0.36614545268E+01  0.92452300942E+01  0.13695145413E+02  0.00000000000E+00 0.  1.
<mgrwt>
<rscale>  0 0.11787511E+04</rscale>
<asrwt>0</asrwt>
<pdfrwt beam="1">  1        1 0.27533561E+00 0.11787511E+04</pdfrwt>
<pdfrwt beam="2">  1       -1 0.29860366E-01 0.11787511E+04</pdfrwt>
<totfact> 0.42254915E+01</totfact>
</mgrwt>
</event>
<event>
12    3  0.4192740E-008  0.2733129E+04  0.7818608E-02  0.8324335E-01
          2   -1    0    0  501    0  0.00000000000E+00  0.00000000000E+00  0.22704838062E+04  0.22704838062E+04  0.00000000000E+00 0. -1.
         -2   -1    0    0    0  501 -0.00000000000E+00 -0.00000000000E+00 -0.82251119468E+03  0.82251119468E+03  0.00000000000E+00 0.  1.
         23    2    1    2    0    0  0.25408378697E+03  0.38471141823E+03  0.19407859511E+04  0.19968825596E+04  0.91260081610E+02 0.  0.
        254    2    1    2    0    0 -0.25408378697E+03 -0.38471141823E+03 -0.49281333962E+03  0.10961124413E+04  0.86373378431E+03 0.  0.
         23    2    4    4    0    0  0.19649236481E+03  0.13544742340E+03 -0.26073135149E+03  0.36412599688E+03  0.87473710431E+02 0.  0.
         23    2    4    4    0    0 -0.45057615178E+03 -0.52015884163E+03 -0.23208198813E+03  0.73198644443E+03  0.91422188429E+02 0.  0.
          1    1    3    3  502    0  0.19134824133E+03  0.33121964836E+03  0.16954134932E+04  0.17380297805E+04  0.00000000000E+00 0. -1.
         -1    1    3    3    0  502  0.62735545634E+02  0.53491769872E+02  0.24537245788E+03  0.25885277904E+03  0.00000000000E+00 0.  1.
         13    1    5    5    0    0  0.18821031599E+03  0.91855546359E+02 -0.20734715367E+03  0.29470902018E+03  0.00000000000E+00 0. -1.
        -13    1    5    5    0    0  0.82820488235E+01  0.43591877039E+02 -0.53384197824E+02  0.69416976697E+02  0.00000000000E+00 0.  1.
          4    1    6    6  503    0 -0.42637990610E+03 -0.45215483636E+03 -0.19883849212E+03  0.65251863292E+03  0.00000000000E+00 0. -1.
         -4    1    6    6    0  503 -0.24196245678E+02 -0.68004005276E+02 -0.33243496012E+02  0.79467811506E+02  0.00000000000E+00 0.  1.
<mgrwt>
<rscale>  0 0.27331289E+04</rscale>
<asrwt>0</asrwt>
<pdfrwt beam="1">  1        2 0.34930520E+00 0.27331289E+04</pdfrwt>
<pdfrwt beam="2">  1       -2 0.12654018E+00 0.27331289E+04</pdfrwt>
<totfact> 0.19164391E+00</totfact>
</mgrwt>
</event>
<event>
12    3  0.4192740E-008  0.1283709E+04  0.7818608E-02  0.9042585E-01
          2   -1    0    0  501    0  0.00000000000E+00  0.00000000000E+00  0.17063952202E+04  0.17063952202E+04  0.00000000000E+00 0.  1.
         -2   -1    0    0    0  501 -0.00000000000E+00 -0.00000000000E+00 -0.24143132742E+03  0.24143132742E+03  0.00000000000E+00 0. -1.
         23    2    1    2    0    0  0.37485731875E+02 -0.10079451126E+03  0.77232342308E+03  0.78506992404E+03  0.91030776183E+02 0.  0.
        254    2    1    2    0    0 -0.37485731875E+02  0.10079451126E+03  0.69264046965E+03  0.11627566235E+04  0.92773241388E+03 0.  0.
         23    2    4    4    0    0 -0.44790954634E+03 -0.45884646893E+02  0.49615729074E+03  0.67618171348E+03  0.91221104843E+02 0.  0.
         23    2    4    4    0    0  0.41042381446E+03  0.14667915815E+03  0.19648317891E+03  0.48657491005E+03  0.90482156160E+02 0.  0.
          1    1    3    3  502    0  0.63007601988E+02 -0.83614488369E+02  0.48908115334E+03  0.50016168898E+03  0.00000000000E+00 0.  1.
         -1    1    3    3    0  502 -0.25521870113E+02 -0.17180022889E+02  0.28324226974E+03  0.28490823506E+03  0.00000000000E+00 0. -1.
         13    1    5    5    0    0 -0.21251990580E+03  0.23829982668E+02  0.22585081594E+03  0.31103242515E+03  0.00000000000E+00 0.  1.
        -13    1    5    5    0    0 -0.23538964053E+03 -0.69714629561E+02  0.27030647480E+03  0.36514928833E+03  0.00000000000E+00 0. -1.
          2    1    6    6  503    0  0.12432000154E+03  0.76941264850E+02  0.98221283745E+02  0.17613302245E+03  0.00000000000E+00 0. -1.
         -2    1    6    6    0  503  0.28610381292E+03  0.69737893300E+02  0.98261895165E+02  0.31044188759E+03  0.00000000000E+00 0.  1.
<mgrwt>
<rscale>  0 0.12837091E+04</rscale>
<asrwt>0</asrwt>
<pdfrwt beam="1">  1        2 0.26252233E+00 0.12837091E+04</pdfrwt>
<pdfrwt beam="2">  1       -2 0.37143282E-01 0.12837091E+04</pdfrwt>
<totfact> 0.65203397E+01</totfact>
</mgrwt>
</event>
<event>
12    3  0.4192740E-008  0.2518115E+04  0.7818608E-02  0.8396560E-01
         -2   -1    0    0    0  501 -0.00000000000E+00  0.00000000000E+00  0.10888217509E+04  0.10888217509E+04  0.00000000000E+00 0.  1.
          2   -1    0    0  501    0  0.00000000000E+00 -0.00000000000E+00 -0.14559090407E+04  0.14559090407E+04  0.00000000000E+00 0. -1.
         23    2    1    2    0    0  0.59041132738E+03 -0.14456287087E+03  0.75945688841E+03  0.97702520593E+03  0.91211449660E+02 0.  0.
        254    2    1    2    0    0 -0.59041132738E+03  0.14456287087E+03 -0.11265441782E+04  0.15677055857E+04  0.90504975490E+03 0.  0.
         23    2    4    4    0    0 -0.78636658151E+02 -0.32586295851E+03 -0.18414428486E+03  0.39325583875E+03  0.91491230890E+02 0.  0.
         23    2    4    4    0    0 -0.51177466923E+03  0.47042582938E+03 -0.94239989331E+03  0.11744497469E+04  0.89447616631E+02 0.  0.
          2    1    3    3  502    0  0.16961672516E+02  0.74342529372E+01  0.95685586776E+01  0.20845233663E+02  0.00000000000E+00 0. -1.
         -2    1    3    3    0  502  0.57344965486E+03 -0.15199712380E+03  0.74988832973E+03  0.95617997227E+03  0.00000000000E+00 0.  1.
         13    1    5    5    0    0 -0.21575608590E+01 -0.47728909313E+02  0.54228722102E+01  0.48084419473E+02  0.00000000000E+00 0.  1.
        -13    1    5    5    0    0 -0.76479097292E+02 -0.27813404920E+03 -0.18956715707E+03  0.34517141928E+03  0.00000000000E+00 0. -1.
          2    1    6    6  503    0 -0.71042470135E+02  0.10288585336E+03 -0.13654610563E+03  0.18514148738E+03  0.00000000000E+00 0.  1.
         -2    1    6    6    0  503 -0.44073219909E+03  0.36753997602E+03 -0.80585378767E+03  0.98930825954E+03  0.00000000000E+00 0. -1.
<mgrwt>
<rscale>  0 0.25181147E+04</rscale>
<asrwt>0</asrwt>
<pdfrwt beam="1">  1        2 0.22398601E+00 0.25181147E+04</pdfrwt>
<pdfrwt beam="2">  1       -2 0.16751104E+00 0.25181147E+04</pdfrwt>
<totfact> 0.26592518E+00</totfact>
</mgrwt>
</event>
<event>
12    3  0.4192740E-008  0.1836330E+04  0.7818608E-02  0.8687215E-01
         -1   -1    0    0    0  501 -0.00000000000E+00  0.00000000000E+00  0.32714832331E+03  0.32714832331E+03  0.00000000000E+00 0.  1.
          1   -1    0    0  501    0  0.00000000000E+00 -0.00000000000E+00 -0.25768959652E+04  0.25768959652E+04  0.00000000000E+00 0. -1.
         23    2    1    2    0    0  0.47751882221E+03  0.41467993400E+02 -0.15714731795E+04  0.16462844394E+04  0.10478874760E+03 0.  0.
        254    2    1    2    0    0 -0.47751882221E+03 -0.41467993400E+02 -0.67827446240E+03  0.12577598491E+04  0.94454209625E+03 0.  0.
         23    2    4    4    0    0 -0.15883230193E+02  0.14057430327E+03 -0.73064665955E+03  0.75032855898E+03  0.95577160290E+02 0.  0.
         23    2    4    4    0    0 -0.46163559202E+03 -0.18204229667E+03  0.52372197151E+02  0.50743129010E+03  0.92178357237E+02 0.  0.
          1    1    3    3  502    0  0.26103124256E+03  0.73280953661E+02 -0.82562977316E+03  0.86900628886E+03  0.00000000000E+00 0. -1.
         -1    1    3    3    0  502  0.21648757965E+03 -0.31812960261E+02 -0.74584340629E+03  0.77727815053E+03  0.00000000000E+00 0.  1.
         13    1    5    5    0    0 -0.49658229862E+02  0.38210871035E+02 -0.24820704589E+03  0.25599364853E+03  0.00000000000E+00 0. -1.
        -13    1    5    5    0    0  0.33774999669E+02  0.10236343224E+03 -0.48243961366E+03  0.49433491045E+03  0.00000000000E+00 0.  1.
          4    1    6    6  503    0 -0.21110479744E+03 -0.10951969464E+03  0.64235239129E+02  0.24634521502E+03  0.00000000000E+00 0. -1.
         -4    1    6    6    0  503 -0.25053079458E+03 -0.72522602037E+02 -0.11863041978E+02  0.26108607508E+03  0.00000000000E+00 0.  1.
<mgrwt>
<rscale>  0 0.18363302E+04</rscale>
<asrwt>0</asrwt>
<pdfrwt beam="1">  1        1 0.39644555E+00 0.18363302E+04</pdfrwt>
<pdfrwt beam="2">  1       -1 0.50330510E-01 0.18363302E+04</pdfrwt>
<totfact> 0.44705628E+00</totfact>
</mgrwt>
</event>
<event>
12    3  0.4192740E-008  0.1879345E+04  0.7818608E-02  0.8665206E-01
          2   -1    0    0  501    0  0.00000000000E+00  0.00000000000E+00  0.58641051604E+03  0.58641051604E+03  0.00000000000E+00 0. -1.
         -2   -1    0    0    0  501 -0.00000000000E+00 -0.00000000000E+00 -0.15057450172E+04  0.15057450172E+04  0.00000000000E+00 0.  1.
         23    2    1    2    0    0  0.58504984638E+03 -0.74084145396E+02  0.10414091643E+03  0.60588127151E+03  0.92059770530E+02 0.  0.
        254    2    1    2    0    0 -0.58504984638E+03  0.74084145396E+02 -0.10234754176E+04  0.14862742618E+04  0.90207398109E+03 0.  0.
         23    2    4    4    0    0  0.20570700028E+03 -0.89599808108E+02 -0.37397891761E+03  0.44594054847E+03  0.93055071740E+02 0.  0.
         23    2    4    4    0    0 -0.79075684665E+03  0.16368395350E+03 -0.64949650002E+03  0.10403337133E+04  0.91431418662E+02 0.  0.
          3    1    3    3  502    0  0.31635271957E+03 -0.21466226509E+02  0.13133728326E+02  0.31735207086E+03  0.00000000000E+00 0. -1.
         -3    1    3    3    0  502  0.26869712680E+03 -0.52617918887E+02  0.91007188101E+02  0.28852920065E+03  0.00000000000E+00 0.  1.
         13    1    5    5    0    0  0.57199744370E+02 -0.30979995410E+02 -0.19760248942E+03  0.20803440749E+03  0.00000000000E+00 0.  1.
        -13    1    5    5    0    0  0.14850725591E+03 -0.58619812698E+02 -0.17637642818E+03  0.23790614098E+03  0.00000000000E+00 0. -1.
          4    1    6    6  503    0 -0.22255182838E+03  0.46324050369E+02 -0.13191723316E+03  0.26282577949E+03  0.00000000000E+00 0.  1.
         -4    1    6    6    0  503 -0.56820501827E+03  0.11735990314E+03 -0.51757926686E+03  0.77750793381E+03  0.00000000000E+00 0. -1.
<mgrwt>
<rscale>  0 0.18793453E+04</rscale>
<asrwt>0</asrwt>
<pdfrwt beam="1">  1        2 0.90217002E-01 0.18793453E+04</pdfrwt>
<pdfrwt beam="2">  1       -2 0.23165308E+00 0.18793453E+04</pdfrwt>
<totfact> 0.39914567E+00</totfact>
</mgrwt>
</event>
<event>
12    3  0.4192740E-008  0.3842444E+04  0.7818608E-02  0.8037107E-01
          2   -1    0    0  501    0  0.00000000000E+00  0.00000000000E+00  0.19727122680E+04  0.19727122680E+04  0.00000000000E+00 0.  1.
         -2   -1    0    0    0  501 -0.00000000000E+00 -0.00000000000E+00 -0.18710761628E+04  0.18710761628E+04  0.00000000000E+00 0. -1.
         23    2    1    2    0    0  0.23025282103E+03  0.84358958332E+02  0.18457015687E+04  0.18641244689E+04  0.90625378248E+02 0.  0.
        254    2    1    2    0    0 -0.23025282103E+03 -0.84358958332E+02 -0.17440654636E+04  0.19796639619E+04  0.90397581016E+03 0.  0.
         23    2    4    4    0    0  0.18094277467E+03  0.28190470812E+03 -0.43542409937E+03  0.55696432921E+03  0.91676417528E+02 0.  0.
         23    2    4    4    0    0 -0.41119559570E+03 -0.36626366645E+03 -0.13086413642E+04  0.14226996327E+04  0.91110556266E+02 0.  0.
          2    1    3    3  502    0  0.16246617685E+03  0.12991768504E+02  0.11607805706E+04  0.11721670434E+04  0.00000000000E+00 0. -1.
         -2    1    3    3    0  502  0.67786644181E+02  0.71367189828E+02  0.68492099817E+03  0.69195742546E+03  0.00000000000E+00 0.  1.
         13    1    5    5    0    0  0.10640010793E+03  0.10643037331E+03 -0.14115080759E+03  0.20632973080E+03  0.00000000000E+00 0.  1.
        -13    1    5    5    0    0  0.74542666740E+02  0.17547433481E+03 -0.29427329178E+03  0.35063459840E+03  0.00000000000E+00 0. -1.
          3    1    6    6  503    0 -0.34245352620E+03 -0.29984738735E+03 -0.98203567435E+03  0.10823940775E+04  0.00000000000E+00 0. -1.
         -3    1    6    6    0  503 -0.68742069501E+02 -0.66416279101E+02 -0.32660568986E+03  0.34030555519E+03  0.00000000000E+00 0.  1.
<mgrwt>
<rscale>  0 0.38424445E+04</rscale>
<asrwt>0</asrwt>
<pdfrwt beam="1">  1        2 0.30349420E+00 0.38424445E+04</pdfrwt>
<pdfrwt beam="2">  1       -2 0.28785787E+00 0.38424445E+04</pdfrwt>
<totfact> 0.20848025E-01</totfact>
</mgrwt>
</event>
<event>
12    3  0.4192740E-008  0.2305305E+04  0.7818608E-02  0.8475832E-01
          2   -1    0    0  501    0  0.00000000000E+00  0.00000000000E+00  0.29491319509E+04  0.29491319509E+04  0.00000000000E+00 0. -1.
         -2   -1    0    0    0  501 -0.00000000000E+00 -0.00000000000E+00 -0.45050814324E+03  0.45050814324E+03  0.00000000000E+00 0.  1.
         23    2    1    2    0    0 -0.22604408301E+03  0.88674440180E+03  0.15547599053E+04  0.18064097508E+04  0.91794679646E+02 0.  0.
        254    2    1    2    0    0  0.22604408301E+03 -0.88674440180E+03  0.94386390238E+03  0.15932303433E+04  0.90005127580E+03 0.  0.
         23    2    4    4    0    0  0.32414655189E+02 -0.12041219181E+03  0.76195040749E+03  0.77705982577E+03  0.87770972136E+02 0.  0.
         23    2    4    4    0    0  0.19362942782E+03 -0.76633220999E+03  0.18191349489E+03  0.81617051755E+03  0.91018584380E+02 0.  0.
          3    1    3    3  502    0 -0.19832860589E+03  0.75935631817E+03  0.13905426578E+04  0.15967357756E+04  0.00000000000E+00 0. -1.
         -3    1    3    3    0  502 -0.27715477124E+02  0.12738808364E+03  0.16421724748E+03  0.20967397525E+03  0.00000000000E+00 0.  1.
         13    1    5    5    0    0 -0.11540278811E+02  0.24672678337E+01  0.16580561734E+02  0.20351424348E+02  0.00000000000E+00 0. -1.
        -13    1    5    5    0    0  0.43954933999E+02 -0.12287945964E+03  0.74536984575E+03  0.75670840142E+03  0.00000000000E+00 0.  1.
          1    1    6    6  503    0 -0.10007406395E+02 -0.29069075378E+02  0.57485514742E+01  0.31276271679E+02  0.00000000000E+00 0. -1.
         -1    1    6    6    0  503  0.20363683422E+03 -0.73726313462E+03  0.17616494342E+03  0.78489424587E+03  0.00000000000E+00 0.  1.
<mgrwt>
<rscale>  0 0.23053052E+04</rscale>
<asrwt>0</asrwt>
<pdfrwt beam="1">  1        2 0.45371260E+00 0.23053052E+04</pdfrwt>
<pdfrwt beam="2">  1       -2 0.69308947E-01 0.23053052E+04</pdfrwt>
<totfact> 0.32269442E+00</totfact>
</mgrwt>
</event>
<event>
12    3  0.4192740E-008  0.1564236E+04  0.7818608E-02  0.8842825E-01
         -2   -1    0    0    0  501 -0.00000000000E+00  0.00000000000E+00  0.75654592270E+03  0.75654592270E+03  0.00000000000E+00 0.  1.
          2   -1    0    0  501    0  0.00000000000E+00 -0.00000000000E+00 -0.80855462238E+03  0.80855462238E+03  0.00000000000E+00 0. -1.
         23    2    1    2    0    0  0.48696822120E+03 -0.10614330819E+03  0.12154356058E+03  0.52079515019E+03  0.89723469637E+02 0.  0.
        254    2    1    2    0    0 -0.48696822120E+03  0.10614330819E+03 -0.17355226027E+03  0.10443053949E+04  0.90113757020E+03 0.  0.
         23    2    4    4    0    0 -0.28842897751E+01  0.29135077098E+03  0.22890214445E+03  0.38184960475E+03  0.92300260232E+02 0.  0.
         23    2    4    4    0    0 -0.48408393143E+03 -0.18520746279E+03 -0.40245440472E+03  0.66245579014E+03  0.90769317916E+02 0.  0.
          3    1    3    3  502    0  0.36225445112E+03 -0.82285425002E+02  0.12991484754E+03  0.39354421116E+03  0.00000000000E+00 0. -1.
         -3    1    3    3    0  502  0.12471377008E+03 -0.23857883186E+02 -0.83712869576E+01  0.12725093903E+03  0.00000000000E+00 0.  1.
         13    1    5    5    0    0  0.38861463694E+02  0.20882419699E+03  0.17147650848E+03  0.27298709048E+03  0.00000000000E+00 0. -1.
        -13    1    5    5    0    0 -0.41745753469E+02  0.82526573989E+02  0.57425635969E+02  0.10886251427E+03  0.00000000000E+00 0.  1.
          1    1    6    6  503    0 -0.14335824026E+03 -0.46891091121E+02 -0.68278984813E+02  0.16556684222E+03  0.00000000000E+00 0. -1.
         -1    1    6    6    0  503 -0.34072569117E+03 -0.13831637167E+03 -0.33417541990E+03  0.49688894792E+03  0.00000000000E+00 0.  1.
<mgrwt>
<rscale>  0 0.15642362E+04</rscale>
<asrwt>0</asrwt>
<pdfrwt beam="1">  1        2 0.12439302E+00 0.15642362E+04</pdfrwt>
<pdfrwt beam="2">  1       -2 0.11639168E+00 0.15642362E+04</pdfrwt>
<totfact> 0.18695928E+01</totfact>
</mgrwt>
</event>
<event>
12    3  0.4192740E-008  0.2605053E+04  0.7818608E-02  0.8366487E-01
          2   -1    0    0  501    0  0.00000000000E+00  0.00000000000E+00  0.16150433632E+04  0.16150433632E+04  0.00000000000E+00 0. -1.
         -2   -1    0    0    0  501 -0.00000000000E+00 -0.00000000000E+00 -0.10504829550E+04  0.10504829550E+04  0.00000000000E+00 0.  1.
         23    2    1    2    0    0  0.28065466505E+02 -0.76074171701E+03 -0.63097971062E+03  0.99330709612E+03  0.94910281732E+02 0.  0.
        254    2    1    2    0    0 -0.28065466505E+02  0.76074171701E+03  0.11955401188E+04  0.16722192221E+04  0.88740369650E+03 0.  0.
         23    2    4    4    0    0 -0.20157361614E+03  0.23551911798E+03 -0.30152561959E+02  0.32421955875E+03  0.90044253692E+02 0.  0.
         23    2    4    4    0    0  0.17350814963E+03  0.52522259903E+03  0.12256926808E+04  0.13479996633E+04  0.93897220937E+02 0.  0.
          3    1    3    3  502    0 -0.12462357899E+02 -0.33928749827E+03 -0.22936273645E+03  0.40972988873E+03  0.00000000000E+00 0. -1.
         -3    1    3    3    0  502  0.40527824404E+02 -0.42145421874E+03 -0.40161697416E+03  0.58357720739E+03  0.00000000000E+00 0.  1.
         13    1    5    5    0    0 -0.26936680287E+02  0.94400192427E+02 -0.13223149160E+02  0.99054695744E+02  0.00000000000E+00 0. -1.
        -13    1    5    5    0    0 -0.17463693585E+03  0.14111892555E+03 -0.16929412799E+02  0.22516486300E+03  0.00000000000E+00 0.  1.
          3    1    6    6  503    0  0.24285259465E+02  0.82439235702E+02  0.11970624129E+03  0.14736209015E+03  0.00000000000E+00 0. -1.
         -3    1    6    6    0  503  0.14922289017E+03  0.44278336333E+03  0.11059864395E+04  0.12006375732E+04  0.00000000000E+00 0.  1.
<mgrwt>
<rscale>  0 0.26050532E+04</rscale>
<asrwt>0</asrwt>
<pdfrwt beam="1">  1        2 0.24846821E+00 0.26050532E+04</pdfrwt>
<pdfrwt beam="2">  1       -2 0.16161276E+00 0.26050532E+04</pdfrwt>
<totfact> 0.23706627E+00</totfact>
</mgrwt>
</event>
<event>
12    3  0.4192740E-008  0.1685975E+04  0.7818608E-02  0.8769404E-01
          1   -1    0    0  501    0  0.00000000000E+00  0.00000000000E+00  0.16881605573E+04  0.16881605573E+04  0.00000000000E+00 0. -1.
         -1   -1    0    0    0  501 -0.00000000000E+00 -0.00000000000E+00 -0.42094807634E+03  0.42094807634E+03  0.00000000000E+00 0.  1.
         23    2    1    2    0    0  0.52039632919E+03  0.13938591267E+03  0.77745122044E+03  0.95001263135E+03  0.88616180734E+02 0.  0.
        254    2    1    2    0    0 -0.52039632919E+03 -0.13938591267E+03  0.48976126053E+03  0.11590960023E+04  0.90188506925E+03 0.  0.
         23    2    4    4    0    0 -0.60871991194E+03 -0.29060256948E+03  0.62067127940E+03  0.92125394665E+03  0.92120641374E+02 0.  0.
         23    2    4    4    0    0  0.88323582749E+02  0.15121665681E+03 -0.13091001886E+03  0.23784205565E+03  0.93615585400E+02 0.  0.
          2    1    3    3  502    0  0.43779821634E+03  0.10101790639E+03  0.58993219324E+03  0.74154695621E+03  0.00000000000E+00 0. -1.
         -2    1    3    3    0  502  0.82598112843E+02  0.38368006282E+02  0.18751902720E+03  0.20846567514E+03  0.00000000000E+00 0.  1.
         13    1    5    5    0    0 -0.53305285292E+03 -0.23108207183E+03  0.49723114663E+03  0.76471110957E+03  0.00000000000E+00 0. -1.
        -13    1    5    5    0    0 -0.75667059012E+02 -0.59520497646E+02  0.12344013277E+03  0.15654283707E+03  0.00000000000E+00 0.  1.
          1    1    6    6  503    0  0.62766564195E+02  0.15927934332E+03 -0.11912062693E+03  0.20856479701E+03  0.00000000000E+00 0. -1.
         -1    1    6    6    0  503  0.25557018554E+02 -0.80626865163E+01 -0.11789391930E+02  0.29277258637E+02  0.00000000000E+00 0.  1.
<mgrwt>
<rscale>  0 0.16859750E+04</rscale>
<asrwt>0</asrwt>
<pdfrwt beam="1">  1        1 0.25971700E+00 0.16859750E+04</pdfrwt>
<pdfrwt beam="2">  1       -1 0.64761244E-01 0.16859750E+04</pdfrwt>
<totfact> 0.11183583E+01</totfact>
</mgrwt>
</event>
<event>
12    3  0.4192740E-008  0.1702353E+04  0.7818608E-02  0.8760024E-01
          2   -1    0    0  501    0  0.00000000000E+00  0.00000000000E+00  0.16516392522E+04  0.16516392522E+04  0.00000000000E+00 0.  1.
         -2   -1    0    0    0  501 -0.00000000000E+00 -0.00000000000E+00 -0.43865595783E+03  0.43865595783E+03  0.00000000000E+00 0. -1.
         23    2    1    2    0    0  0.27965153285E+03  0.50797671856E+03  0.20313343534E+03  0.62113312077E+03  0.91092451624E+02 0.  0.
        254    2    1    2    0    0 -0.27965153285E+03 -0.50797671856E+03  0.10098498590E+04  0.14691620892E+04  0.89576513679E+03 0.  0.
         23    2    4    4    0    0  0.40089393016E+02 -0.68149592323E+03  0.59700790583E+03  0.91150143169E+03  0.91501735156E+02 0.  0.
         23    2    4    4    0    0 -0.31974092586E+03  0.17351920467E+03  0.41284195315E+03  0.55766065753E+03  0.90574591398E+02 0.  0.
          4    1    3    3  502    0  0.12862791273E+03  0.22462680384E+03  0.13863009202E+03  0.29363351878E+03  0.00000000000E+00 0.  1.
         -4    1    3    3    0  502  0.15102362012E+03  0.28334991472E+03  0.64503343320E+02  0.32749960200E+03  0.00000000000E+00 0. -1.
         13    1    5    5    0    0 -0.74926510093E+01 -0.96448054408E+02  0.12633924555E+03  0.15912250622E+03  0.00000000000E+00 0.  1.
        -13    1    5    5    0    0  0.47582044025E+02 -0.58504786883E+03  0.47066866028E+03  0.75237892548E+03  0.00000000000E+00 0. -1.
          1    1    6    6  503    0 -0.24649150156E+03  0.87612046500E+02  0.30004653352E+03  0.39807267340E+03  0.00000000000E+00 0. -1.
         -1    1    6    6    0  503 -0.73249424303E+02  0.85907158173E+02  0.11279541964E+03  0.15958798412E+03  0.00000000000E+00 0.  1.
<mgrwt>
<rscale>  0 0.17023530E+04</rscale>
<asrwt>0</asrwt>
<pdfrwt beam="1">  1        2 0.25409834E+00 0.17023530E+04</pdfrwt>
<pdfrwt beam="2">  1       -2 0.67485533E-01 0.17023530E+04</pdfrwt>
<totfact> 0.19982789E+01</totfact>
</mgrwt>
</event>
<event>
12    3  0.4192740E-008  0.2398865E+04  0.7818608E-02  0.8439928E-01
          2   -1    0    0  501    0  0.00000000000E+00  0.00000000000E+00  0.40972407371E+03  0.40972407371E+03  0.00000000000E+00 0.  1.
         -2   -1    0    0    0  501 -0.00000000000E+00 -0.00000000000E+00 -0.35112383217E+04  0.35112383217E+04  0.00000000000E+00 0. -1.
         23    2    1    2    0    0  0.57658592937E+03 -0.79970981678E+03 -0.18205048185E+04  0.20722925607E+04  0.90396557854E+02 0.  0.
        254    2    1    2    0    0 -0.57658592937E+03  0.79970981678E+03 -0.12810094294E+04  0.18486698347E+04  0.89699937265E+03 0.  0.
         23    2    4    4    0    0  0.87032262466E+02 -0.12573873458E+03 -0.27108348738E+03  0.32324844832E+03  0.87283779313E+02 0.  0.
         23    2    4    4    0    0 -0.66361819184E+03  0.92544855136E+03 -0.10099259420E+04  0.15254213864E+04  0.10057769095E+03 0.  0.
          1    1    3    3  502    0  0.19837160790E+02 -0.65858649120E+02 -0.13429636952E+03  0.15088535210E+03  0.00000000000E+00 0. -1.
         -1    1    3    3    0  502  0.55674876858E+03 -0.73385116766E+03 -0.16862084490E+04  0.19214072086E+04  0.00000000000E+00 0.  1.
         13    1    5    5    0    0  0.10233744581E+03 -0.90269732157E+02 -0.22463236181E+03  0.26283317015E+03  0.00000000000E+00 0. -1.
        -13    1    5    5    0    0 -0.15305183349E+02 -0.35469002418E+02 -0.46451125565E+02  0.60415278169E+02  0.00000000000E+00 0.  1.
          2    1    6    6  503    0 -0.28496608170E+02  0.55360656447E+02 -0.86424391753E+02  0.10651776589E+03  0.00000000000E+00 0.  1.
         -2    1    6    6    0  503 -0.63512158367E+03  0.87008789491E+03 -0.92350155029E+03  0.14189036205E+04  0.00000000000E+00 0. -1.
<mgrwt>
<rscale>  0 0.23988655E+04</rscale>
<asrwt>0</asrwt>
<pdfrwt beam="1">  1        2 0.63034472E-01 0.23988655E+04</pdfrwt>
<pdfrwt beam="2">  1       -2 0.54019052E+00 0.23988655E+04</pdfrwt>
<totfact> 0.66269370E-02</totfact>
</mgrwt>
</event>
<event>
12    3  0.4192740E-008  0.1184088E+04  0.7818608E-02  0.9126900E-01
         -1   -1    0    0    0  501 -0.00000000000E+00  0.00000000000E+00  0.39215698540E+03  0.39215698540E+03  0.00000000000E+00 0.  1.
          1   -1    0    0  501    0  0.00000000000E+00 -0.00000000000E+00 -0.89381534422E+03  0.89381534422E+03  0.00000000000E+00 0. -1.
         23    2    1    2    0    0 -0.20360484070E+03 -0.11157087681E+03 -0.11234880145E+03  0.27391354410E+03  0.92213799111E+02 0.  0.
        254    2    1    2    0    0  0.20360484070E+03  0.11157087681E+03 -0.38930955737E+03  0.10120587855E+04  0.90487461131E+03 0.  0.
         23    2    4    4    0    0  0.55235887099E+03  0.16246197226E+02 -0.25599294217E+03  0.61577933815E+03  0.91035957528E+02 0.  0.
         23    2    4    4    0    0 -0.34875403028E+03  0.95324679580E+02 -0.13331661520E+03  0.39627944738E+03  0.92454920645E+02 0.  0.
          2    1    3    3  502    0 -0.11915339487E+03 -0.14175792331E+02 -0.65840563892E+02  0.13687024677E+03  0.00000000000E+00 0. -1.
         -2    1    3    3    0  502 -0.84451445837E+02 -0.97395084475E+02 -0.46508237554E+02  0.13704329733E+03  0.00000000000E+00 0.  1.
         13    1    5    5    0    0  0.47900057958E+03 -0.84035665327E+01 -0.19498280081E+03  0.51723347511E+03  0.00000000000E+00 0. -1.
        -13    1    5    5    0    0  0.73358291412E+02  0.24649763759E+02 -0.61010141362E+02  0.98545863035E+02  0.00000000000E+00 0.  1.
          1    1    6    6  503    0 -0.23390408162E+03  0.97515549439E+02 -0.12077542132E+03  0.28072603046E+03  0.00000000000E+00 0. -1.
         -1    1    6    6    0  503 -0.11484994866E+03 -0.21908698586E+01 -0.12541193880E+02  0.11555341692E+03  0.00000000000E+00 0.  1.
<mgrwt>
<rscale>  0 0.11840877E+04</rscale>
<asrwt>0</asrwt>
<pdfrwt beam="1">  1        1 0.13751005E+00 0.11840877E+04</pdfrwt>
<pdfrwt beam="2">  1       -1 0.60331844E-01 0.11840877E+04</pdfrwt>
<totfact> 0.50823287E+01</totfact>
</mgrwt>
</event>
<event>
12    3  0.4192740E-008  0.1828935E+04  0.7818608E-02  0.8691062E-01
          2   -1    0    0  501    0  0.00000000000E+00  0.00000000000E+00  0.13708539705E+04  0.13708539705E+04  0.00000000000E+00 0. -1.
         -2   -1    0    0    0  501 -0.00000000000E+00 -0.00000000000E+00 -0.61002148096E+03  0.61002148096E+03  0.00000000000E+00 0.  1.
         23    2    1    2    0    0 -0.20341483351E+03 -0.50399951131E+03 -0.61250963470E+02  0.55472405597E+03  0.92595873854E+02 0.  0.
        254    2    1    2    0    0  0.20341483351E+03  0.50399951131E+03  0.82208345299E+03  0.14261513955E+04  0.10308702621E+04 0.  0.
         23    2    4    4    0    0 -0.36405790861E+03  0.17642534049E+03  0.62426623985E+02  0.41862425715E+03  0.87664837293E+02 0.  0.
         23    2    4    4    0    0  0.56747274212E+03  0.32757417081E+03  0.75965682900E+03  0.10075271383E+04  0.93286044879E+02 0.  0.
          4    1    3    3  502    0 -0.20321073289E+03 -0.41936046467E+03 -0.61807469653E+02  0.47008293374E+03  0.00000000000E+00 0.  1.
         -4    1    3    3    0  502 -0.20410061815E+00 -0.84639046636E+02  0.55650618289E+00  0.84641122226E+02  0.00000000000E+00 0. -1.
         13    1    5    5    0    0 -0.34920882861E+03  0.16348738771E+03  0.78148753685E+02  0.39342363887E+03  0.00000000000E+00 0. -1.
        -13    1    5    5    0    0 -0.14849080001E+02  0.12937952783E+02 -0.15722129700E+02  0.25200618274E+02  0.00000000000E+00 0.  1.
          1    1    6    6  503    0  0.32247222232E+03  0.21534550115E+03  0.38894904308E+03  0.54922069985E+03  0.00000000000E+00 0. -1.
         -1    1    6    6    0  503  0.24500051980E+03  0.11222866966E+03  0.37070778592E+03  0.45830643847E+03  0.00000000000E+00 0.  1.
<mgrwt>
<rscale>  0 0.18289345E+04</rscale>
<asrwt>0</asrwt>
<pdfrwt beam="1">  1        2 0.21090061E+00 0.18289345E+04</pdfrwt>
<pdfrwt beam="2">  1       -2 0.93849459E-01 0.18289345E+04</pdfrwt>
<totfact> 0.13585043E+01</totfact>
</mgrwt>
</event>
<event>
12    3  0.4192740E-008  0.2453986E+04  0.7818608E-02  0.8419564E-01
         -1   -1    0    0    0  501 -0.00000000000E+00  0.00000000000E+00  0.10725548220E+04  0.10725548220E+04  0.00000000000E+00 0.  1.
          1   -1    0    0  501    0  0.00000000000E+00 -0.00000000000E+00 -0.14036686254E+04  0.14036686254E+04  0.00000000000E+00 0. -1.
         23    2    1    2    0    0  0.13796181239E+03  0.10274470394E+04 -0.38100379242E+03  0.11080999377E+04  0.89669959131E+02 0.  0.
        254    2    1    2    0    0 -0.13796181239E+03 -0.10274470394E+04  0.49889989028E+02  0.13681235097E+04  0.89139892657E+03 0.  0.
         23    2    4    4    0    0 -0.24404447053E+02 -0.70014610470E+03 -0.38477442984E+03  0.80460345866E+03  0.92386248208E+02 0.  0.
         23    2    4    4    0    0 -0.11355736534E+03 -0.32730093472E+03  0.43466441887E+03  0.56352005104E+03  0.92738955129E+02 0.  0.
          4    1    3    3  502    0  0.96237414259E+02  0.56537138150E+03 -0.16813885175E+03  0.59764296398E+03  0.00000000000E+00 0. -1.
         -4    1    3    3    0  502  0.41724398132E+02  0.46207565791E+03 -0.21286494068E+03  0.51045697371E+03  0.00000000000E+00 0.  1.
         13    1    5    5    0    0 -0.40447848984E+01 -0.52759284023E+03 -0.33049002070E+03  0.62257065392E+03  0.00000000000E+00 0. -1.
        -13    1    5    5    0    0 -0.20359662155E+02 -0.17255326447E+03 -0.54284409146E+02  0.18203280473E+03  0.00000000000E+00 0.  1.
          3    1    6    6  503    0 -0.10161568190E+03 -0.28751088102E+03  0.32217481747E+03  0.44360440318E+03  0.00000000000E+00 0. -1.
         -3    1    6    6    0  503 -0.11941683439E+02 -0.39790053703E+02  0.11248960141E+03  0.11991564786E+03  0.00000000000E+00 0.  1.
<mgrwt>
<rscale>  0 0.24539858E+04</rscale>
<asrwt>0</asrwt>
<pdfrwt beam="1">  1        1 0.21594902E+00 0.24539858E+04</pdfrwt>
<pdfrwt beam="2">  1       -1 0.16500843E+00 0.24539858E+04</pdfrwt>
<totfact> 0.18254056E+00</totfact>
</mgrwt>
</event>
<event>
12    3  0.7916917E-008  0.2636822E+04  0.7818608E-02  0.8355800E-01
         -1   -1    0    0    0  501 -0.00000000000E+00  0.00000000000E+00  0.11184701266E+04  0.11184701266E+04  0.00000000000E+00 0.  1.
          1   -1    0    0  501    0  0.00000000000E+00 -0.00000000000E+00 -0.15540938239E+04  0.15540938239E+04  0.00000000000E+00 0. -1.
         23    2    1    2    0    0 -0.15369173393E+03 -0.15266033151E+03  0.94869630195E+03  0.97722634732E+03  0.89556321222E+02 0.  0.
        254    2    1    2    0    0  0.15369173393E+03  0.15266033151E+03 -0.13843199993E+04  0.16953376031E+04  0.95441154762E+03 0.  0.
         23    2    4    4    0    0  0.34958362239E+03  0.38220355128E+03 -0.39758379342E+03  0.65938069817E+03  0.91770194947E+02 0.  0.
         23    2    4    4    0    0 -0.19589188845E+03 -0.22954321977E+03 -0.98673620588E+03  0.10359569050E+04  0.92166410552E+02 0.  0.
          1    1    3    3  502    0 -0.21421322665E+02 -0.36481371306E+02  0.76295263211E+02  0.87239501978E+02  0.00000000000E+00 0. -1.
         -1    1    3    3    0  502 -0.13227041127E+03 -0.11617896020E+03  0.87240103874E+03  0.88998684534E+03  0.00000000000E+00 0.  1.
         13    1    5    5    0    0  0.16008979644E+02  0.26946763410E+02 -0.56311613400E+02  0.64446980466E+02  0.00000000000E+00 0. -1.
        -13    1    5    5    0    0  0.33357464274E+03  0.35525678787E+03 -0.34127218002E+03  0.59493371771E+03  0.00000000000E+00 0.  1.
          1    1    6    6  503    0  0.82717672871E+01 -0.24147093981E+02 -0.95247050512E+02  0.98607833933E+02  0.00000000000E+00 0. -1.
         -1    1    6    6    0  503 -0.20416365574E+03 -0.20539612579E+03 -0.89148915537E+03  0.93734907103E+03  0.00000000000E+00 0.  1.
<mgrwt>
<rscale>  0 0.26368220E+04</rscale>
<asrwt>0</asrwt>
<pdfrwt beam="1">  1        1 0.23909136E+00 0.26368220E+04</pdfrwt>
<pdfrwt beam="2">  1       -1 0.17207233E+00 0.26368220E+04</pdfrwt>
<totfact> 0.12519309E+00</totfact>
</mgrwt>
</event>
<event>
12    3  0.4192740E-008  0.1702604E+04  0.7818608E-02  0.8759881E-01
         -2   -1    0    0    0  501 -0.00000000000E+00  0.00000000000E+00  0.57018582033E+03  0.57018582033E+03  0.00000000000E+00 0.  1.
          2   -1    0    0  501    0  0.00000000000E+00 -0.00000000000E+00 -0.12710154939E+04  0.12710154939E+04  0.00000000000E+00 0. -1.
         23    2    1    2    0    0  0.26114198095E+02  0.57958536394E+03 -0.36148912948E+03  0.68961102410E+03  0.91037510942E+02 0.  0.
        254    2    1    2    0    0 -0.26114198095E+02 -0.57958536394E+03 -0.33934054408E+03  0.11515902901E+04  0.93509734574E+03 0.  0.
         23    2    4    4    0    0 -0.50040069864E+02  0.24635016227E+03 -0.10386769803E+03  0.28783023574E+03  0.94155907247E+02 0.  0.
         23    2    4    4    0    0  0.23925871769E+02 -0.82593552620E+03 -0.23547284605E+03  0.86376005438E+03  0.88837095442E+02 0.  0.
          4    1    3    3  502    0  0.51311427639E+02  0.40357264863E+03 -0.22081707952E+03  0.46288651734E+03  0.00000000000E+00 0. -1.
         -4    1    3    3    0  502 -0.25197229544E+02  0.17601271531E+03 -0.14067204995E+03  0.22672450676E+03  0.00000000000E+00 0.  1.
         13    1    5    5    0    0  0.16802733363E+01  0.17894656871E+03 -0.45175830721E+02  0.18456856030E+03  0.00000000000E+00 0.  1.
        -13    1    5    5    0    0 -0.51720343200E+02  0.67403593560E+02 -0.58691867307E+02  0.10326167543E+03  0.00000000000E+00 0. -1.
          4    1    6    6  503    0 -0.20087422018E+02 -0.60741481230E+03 -0.18392642564E+03  0.63496865180E+03  0.00000000000E+00 0.  1.
         -4    1    6    6    0  503  0.44013293787E+02 -0.21852071390E+03 -0.51546420419E+02  0.22879140258E+03  0.00000000000E+00 0. -1.
<mgrwt>
<rscale>  0 0.17026039E+04</rscale>
<asrwt>0</asrwt>
<pdfrwt beam="1">  1        2 0.19554084E+00 0.17026039E+04</pdfrwt>
<pdfrwt beam="2">  1       -2 0.87720896E-01 0.17026039E+04</pdfrwt>
<totfact> 0.18337297E+01</totfact>
</mgrwt>
</event>
<event>
12    3  0.4192740E-008  0.1795204E+04  0.7818608E-02  0.8708854E-01
          2   -1    0    0  501    0  0.00000000000E+00  0.00000000000E+00  0.14077649304E+04  0.14077649304E+04  0.00000000000E+00 0. -1.
         -2   -1    0    0    0  501 -0.00000000000E+00 -0.00000000000E+00 -0.57231828974E+03  0.57231828974E+03  0.00000000000E+00 0.  1.
         23    2    1    2    0    0 -0.36589848815E+03 -0.35650501003E+03  0.77476390762E+03  0.93229381908E+03  0.89079328352E+02 0.  0.
        254    2    1    2    0    0  0.36589848815E+03  0.35650501003E+03  0.60682733043E+02  0.10477894011E+04  0.91279938051E+03 0.  0.
         23    2    4    4    0    0 -0.21576988911E+03 -0.12842374731E+03  0.97822980572E+02  0.28411186470E+03  0.90005067732E+02 0.  0.
         23    2    4    4    0    0  0.58166837726E+03  0.48492875734E+03 -0.37140247529E+02  0.76367753635E+03  0.91268728142E+02 0.  0.
          1    1    3    3  502    0 -0.28586442526E+03 -0.31999117784E+03  0.66826907916E+03  0.79416395391E+03  0.00000000000E+00 0. -1.
         -1    1    3    3    0  502 -0.80034062896E+02 -0.36513832192E+02  0.10649482846E+03  0.13812986517E+03  0.00000000000E+00 0.  1.
         13    1    5    5    0    0 -0.12324608643E+03 -0.21099699910E+02  0.45774277015E+02  0.13315434500E+03  0.00000000000E+00 0. -1.
        -13    1    5    5    0    0 -0.92523802680E+02 -0.10732404740E+03  0.52048703557E+02  0.15095751970E+03  0.00000000000E+00 0.  1.
          3    1    6    6  503    0  0.55795819811E+03  0.45542119935E+03 -0.53982628803E+02  0.72224645646E+03  0.00000000000E+00 0. -1.
         -3    1    6    6    0  503  0.23710179154E+02  0.29507557987E+02  0.16842381274E+02  0.41431079890E+02  0.00000000000E+00 0.  1.
<mgrwt>
<rscale>  0 0.17952043E+04</rscale>
<asrwt>0</asrwt>
<pdfrwt beam="1">  1        2 0.21657922E+00 0.17952043E+04</pdfrwt>
<pdfrwt beam="2">  1       -2 0.88048968E-01 0.17952043E+04</pdfrwt>
<totfact> 0.15037168E+01</totfact>
</mgrwt>
</event>
<event>
12    3  0.4192740E-008  0.1298339E+04  0.7818608E-02  0.9030883E-01
         -1   -1    0    0    0  501 -0.00000000000E+00  0.00000000000E+00  0.47785001954E+03  0.47785001954E+03  0.00000000000E+00 0.  1.
          1   -1    0    0  501    0  0.00000000000E+00 -0.00000000000E+00 -0.88191123693E+03  0.88191123693E+03  0.00000000000E+00 0. -1.
         23    2    1    2    0    0 -0.30383181219E+03 -0.12981555455E+03 -0.10503141687E+03  0.35751328139E+03  0.87282870801E+02 0.  0.
        254    2    1    2    0    0  0.30383181219E+03  0.12981555455E+03 -0.29902980052E+03  0.10022479751E+04  0.89772842979E+03 0.  0.
         23    2    4    4    0    0  0.24231026002E+03 -0.23767647080E+03 -0.46556389120E+03  0.58413116429E+03  0.96203500051E+02 0.  0.
         23    2    4    4    0    0  0.61521552177E+02  0.36749202535E+03  0.16653409068E+03  0.41811681080E+03  0.90844779876E+02 0.  0.
          3    1    3    3  502    0 -0.17188847273E+02 -0.43881511356E+01 -0.31427379197E+02  0.36088675566E+02  0.00000000000E+00 0. -1.
         -3    1    3    3    0  502 -0.28664296492E+03 -0.12542740342E+03 -0.73604037669E+02  0.32142460582E+03  0.00000000000E+00 0.  1.
         13    1    5    5    0    0  0.12607610365E+03 -0.72759348044E+02 -0.14573806082E+03  0.20598225412E+03  0.00000000000E+00 0. -1.
        -13    1    5    5    0    0  0.11623415636E+03 -0.16491712276E+03 -0.31982583038E+03  0.37814891017E+03  0.00000000000E+00 0.  1.
          4    1    6    6  503    0  0.74252989695E+01  0.15912366824E+03  0.26982711876E+02  0.16156591100E+03  0.00000000000E+00 0. -1.
         -4    1    6    6    0  503  0.54096253207E+02  0.20836835712E+03  0.13955137880E+03  0.25655089979E+03  0.00000000000E+00 0.  1.
<mgrwt>
<rscale>  0 0.12983394E+04</rscale>
<asrwt>0</asrwt>
<pdfrwt beam="1">  1        1 0.13567865E+00 0.12983394E+04</pdfrwt>
<pdfrwt beam="2">  1       -1 0.73515388E-01 0.12983394E+04</pdfrwt>
<totfact> 0.34508972E+01</totfact>
</mgrwt>
</event>
<event>
12    3  0.4192740E-008  0.1136598E+04  0.7818608E-02  0.9170237E-01
         -2   -1    0    0    0  501 -0.00000000000E+00  0.00000000000E+00  0.16919507730E+03  0.16919507730E+03  0.00000000000E+00 0.  1.
          2   -1    0    0  501    0  0.00000000000E+00 -0.00000000000E+00 -0.19088240540E+04  0.19088240540E+04  0.00000000000E+00 0. -1.
         23    2    1    2    0    0  0.17786961135E+03 -0.91979150564E+02 -0.40779057429E+03  0.46323307791E+03  0.90520545777E+02 0.  0.
        254    2    1    2    0    0 -0.17786961135E+03  0.91979150564E+02 -0.13318384024E+04  0.16147860534E+04  0.89086626681E+03 0.  0.
         23    2    4    4    0    0 -0.32544598377E+03 -0.31355563420E+03 -0.55875147280E+03  0.72456795579E+03  0.92538046825E+02 0.  0.
         23    2    4    4    0    0  0.14757637242E+03  0.40553478476E+03 -0.77308692963E+03  0.89021809762E+03  0.92669375905E+02 0.  0.
          3    1    3    3  502    0  0.17581436680E+03 -0.90927342943E+02 -0.41275335446E+03  0.45775954920E+03  0.00000000000E+00 0. -1.
         -3    1    3    3    0  502  0.20552445498E+01 -0.10518076215E+01  0.49627801721E+01  0.54735287036E+01  0.00000000000E+00 0.  1.
         13    1    5    5    0    0 -0.14749928655E+03 -0.12386607455E+03 -0.30813477647E+03  0.36338118337E+03  0.00000000000E+00 0. -1.
        -13    1    5    5    0    0 -0.17794669722E+03 -0.18968955964E+03 -0.25061669633E+03  0.36118677241E+03  0.00000000000E+00 0.  1.
          3    1    6    6  503    0 -0.48587630882E+01  0.56872389404E+02 -0.66151008758E+02  0.87372948988E+02  0.00000000000E+00 0. -1.
         -3    1    6    6    0  503  0.15243513551E+03  0.34866239536E+03 -0.70693592087E+03  0.80284514863E+03  0.00000000000E+00 0.  1.
<mgrwt>
<rscale>  0 0.11365978E+04</rscale>
<asrwt>0</asrwt>
<pdfrwt beam="1">  1        2 0.29366525E+00 0.11365978E+04</pdfrwt>
<pdfrwt beam="2">  1       -2 0.26030011E-01 0.11365978E+04</pdfrwt>
<totfact> 0.99256387E+01</totfact>
</mgrwt>
</event>
<event>
12    3  0.4192740E-008  0.1548215E+04  0.7818608E-02  0.8853009E-01
          1   -1    0    0  501    0  0.00000000000E+00  0.00000000000E+00  0.77111205213E+03  0.77111205213E+03  0.00000000000E+00 0. -1.
         -1   -1    0    0    0  501 -0.00000000000E+00 -0.00000000000E+00 -0.77711475112E+03  0.77711475112E+03  0.00000000000E+00 0.  1.
         23    2    1    2    0    0  0.40670232228E+03 -0.16924476320E+03  0.25292506741E+03  0.51617547705E+03  0.91735841232E+02 0.  0.
        254    2    1    2    0    0 -0.40670232228E+03  0.16924476320E+03 -0.25892776639E+03  0.10320513262E+04  0.89668042406E+03 0.  0.
         23    2    4    4    0    0 -0.52386357170E+03  0.41578380759E+03 -0.30546220727E+03  0.74096008297E+03  0.91681339885E+02 0.  0.
         23    2    4    4    0    0  0.11716124942E+03 -0.24653904439E+03  0.46534440877E+02  0.29109124323E+03  0.89779724474E+02 0.  0.
          3    1    3    3  502    0  0.27205250195E+03 -0.11705852817E+03  0.11885905630E+03  0.31912809043E+03  0.00000000000E+00 0. -1.
         -3    1    3    3    0  502  0.13464982033E+03 -0.52186235031E+02  0.13406601110E+03  0.19704738662E+03  0.00000000000E+00 0.  1.
         13    1    5    5    0    0 -0.49896576057E+03  0.37061869097E+03 -0.29636486302E+03  0.68859071759E+03  0.00000000000E+00 0. -1.
        -13    1    5    5    0    0 -0.24897811125E+02  0.45165116617E+02 -0.90973442476E+01  0.52369365379E+02  0.00000000000E+00 0.  1.
          1    1    6    6  503    0  0.12092453855E+03 -0.25172475213E+03  0.50155207338E+02  0.28373163321E+03  0.00000000000E+00 0. -1.
         -1    1    6    6    0  503 -0.37632891357E+01  0.51857077454E+01 -0.36207664603E+01  0.73596100236E+01  0.00000000000E+00 0.  1.
<mgrwt>
<rscale>  0 0.15482152E+04</rscale>
<asrwt>0</asrwt>
<pdfrwt beam="1">  1        1 0.11863262E+00 0.15482152E+04</pdfrwt>
<pdfrwt beam="2">  1       -1 0.11955611E+00 0.15482152E+04</pdfrwt>
<totfact> 0.14118352E+01</totfact>
</mgrwt>
</event>
<event>
12    3  0.4192740E-008  0.1287379E+04  0.7818608E-02  0.9039634E-01
         -2   -1    0    0    0  501 -0.00000000000E+00  0.00000000000E+00  0.15188114920E+03  0.15188114920E+03  0.00000000000E+00 0.  1.
          2   -1    0    0  501    0  0.00000000000E+00 -0.00000000000E+00 -0.27280288004E+04  0.27280288004E+04  0.00000000000E+00 0. -1.
         23    2    1    2    0    0 -0.15624832688E+03  0.25154216681E+03 -0.38296118130E+03  0.49290161152E+03  0.92767078877E+02 0.  0.
        254    2    1    2    0    0  0.15624832688E+03 -0.25154216681E+03 -0.21931864699E+04  0.23870083381E+04  0.89445788777E+03 0.  0.
         23    2    4    4    0    0 -0.10116822278E+03  0.27232189843E+03 -0.42595514473E+03  0.52341001543E+03  0.90144513215E+02 0.  0.
         23    2    4    4    0    0  0.25741654966E+03 -0.52386406524E+03 -0.17672313252E+04  0.18635983226E+04  0.95892192921E+02 0.  0.
          4    1    3    3  502    0 -0.16565702428E+03  0.24676286670E+03 -0.37898088292E+03  0.48162295595E+03  0.00000000000E+00 0. -1.
         -4    1    3    3    0  502  0.94086974076E+01  0.47793001034E+01 -0.39802983880E+01  0.11278655578E+02  0.00000000000E+00 0.  1.
         13    1    5    5    0    0 -0.91569382125E+02  0.25338663368E+03 -0.33443903459E+03  0.42946385846E+03  0.00000000000E+00 0. -1.
        -13    1    5    5    0    0 -0.95988406563E+01  0.18935264754E+02 -0.91516110139E+02  0.93946156964E+02  0.00000000000E+00 0.  1.
          4    1    6    6  503    0  0.21409801946E+03 -0.47071053963E+03 -0.16321507046E+04  0.17121104803E+04  0.00000000000E+00 0. -1.
         -4    1    6    6    0  503  0.43318530195E+02 -0.53153525605E+02 -0.13508062053E+03  0.15148784237E+03  0.00000000000E+00 0.  1.
<mgrwt>
<rscale>  0 0.12873790E+04</rscale>
<asrwt>0</asrwt>
<pdfrwt beam="1">  1        2 0.41969668E+00 0.12873790E+04</pdfrwt>
<pdfrwt beam="2">  1       -2 0.23366334E-01 0.12873790E+04</pdfrwt>
<totfact> 0.40943975E+01</totfact>
</mgrwt>
</event>
<event>
12    3  0.4192740E-008  0.1258647E+04  0.7818608E-02  0.9063017E-01
         -2   -1    0    0    0  501 -0.00000000000E+00  0.00000000000E+00  0.32292530857E+03  0.32292530857E+03  0.00000000000E+00 0.  1.
          2   -1    0    0  501    0  0.00000000000E+00 -0.00000000000E+00 -0.12264393867E+04  0.12264393867E+04  0.00000000000E+00 0. -1.
         23    2    1    2    0    0 -0.22193846579E+03 -0.42397592435E+02  0.78883597855E+01  0.24381439066E+03  0.91263313702E+02 0.  0.
        254    2    1    2    0    0  0.22193846579E+03  0.42397592435E+02 -0.91140243791E+03  0.13055503046E+04  0.90705730558E+03 0.  0.
         23    2    4    4    0    0 -0.11192061752E+03 -0.88522864804E+02  0.12104509255E+03  0.20873872019E+03  0.92506306040E+02 0.  0.
         23    2    4    4    0    0  0.33385908332E+03  0.13092045724E+03 -0.10324475305E+04  0.10968115844E+04  0.91900462100E+02 0.  0.
          4    1    3    3  502    0 -0.51116865151E+02  0.22144676144E+02  0.23665805865E+02  0.60525952711E+02  0.00000000000E+00 0. -1.
         -4    1    3    3    0  502 -0.17082160064E+03 -0.64542268579E+02 -0.15777446079E+02  0.18328843794E+03  0.00000000000E+00 0.  1.
         13    1    5    5    0    0 -0.12065986946E+03 -0.99196998529E+02  0.11272529489E+03  0.19262876400E+03  0.00000000000E+00 0.  1.
        -13    1    5    5    0    0  0.87392519358E+01  0.10674133725E+02  0.83197976639E+01  0.16109956187E+02  0.00000000000E+00 0. -1.
          4    1    6    6  503    0  0.23873856692E+03  0.13110930635E+03 -0.70345008800E+03  0.75433930022E+03  0.00000000000E+00 0.  1.
         -4    1    6    6    0  503  0.95120516394E+02 -0.18884910649E+00 -0.32899744245E+03  0.34247228420E+03  0.00000000000E+00 0. -1.
<mgrwt>
<rscale>  0 0.12586474E+04</rscale>
<asrwt>0</asrwt>
<pdfrwt beam="1">  1        2 0.18868299E+00 0.12586474E+04</pdfrwt>
<pdfrwt beam="2">  1       -2 0.49680816E-01 0.12586474E+04</pdfrwt>
<totfact> 0.68816304E+01</totfact>
</mgrwt>
</event>
<event>
12    3  0.4192740E-008  0.2138669E+04  0.7818608E-02  0.8544398E-01
         -2   -1    0    0    0  501 -0.00000000000E+00  0.00000000000E+00  0.82740914071E+03  0.82740914071E+03  0.00000000000E+00 0.  1.
          2   -1    0    0  501    0  0.00000000000E+00 -0.00000000000E+00 -0.13819956442E+04  0.13819956442E+04  0.00000000000E+00 0. -1.
         23    2    1    2    0    0 -0.87616127441E+03 -0.82115892457E+02 -0.21551319479E+03  0.91073858949E+03  0.92721317262E+02 0.  0.
        254    2    1    2    0    0  0.87616127441E+03  0.82115892457E+02 -0.33907330866E+03  0.12986661954E+04  0.89283905595E+03 0.  0.
         23    2    4    4    0    0  0.52923436858E+03  0.52126914480E+02 -0.63473275484E+03  0.83305892444E+03  0.91078369637E+02 0.  0.
         23    2    4    4    0    0  0.34692690583E+03  0.29988977977E+02  0.29565944618E+03  0.46560727095E+03  0.90099977042E+02 0.  0.
          3    1    3    3  502    0 -0.65977969737E+03 -0.60316449349E+02 -0.12044397432E+03  0.67338998662E+03  0.00000000000E+00 0. -1.
         -3    1    3    3    0  502 -0.21638157704E+03 -0.21799443108E+02 -0.95069220472E+02  0.23734860287E+03  0.00000000000E+00 0.  1.
         13    1    5    5    0    0  0.13393473729E+03 -0.19301601487E+02 -0.12644772433E+03  0.18520284194E+03  0.00000000000E+00 0. -1.
        -13    1    5    5    0    0  0.39529963129E+03  0.71428515967E+02 -0.50828503051E+03  0.64785608250E+03  0.00000000000E+00 0.  1.
          4    1    6    6  503    0  0.20526999035E+03  0.45867920413E+02  0.21944766838E+03  0.30396860729E+03  0.00000000000E+00 0. -1.
         -4    1    6    6    0  503  0.14165691548E+03 -0.15878942436E+02  0.76211777800E+02  0.16163866366E+03  0.00000000000E+00 0.  1.
<mgrwt>
<rscale>  0 0.21386686E+04</rscale>
<asrwt>0</asrwt>
<pdfrwt beam="1">  1        2 0.21261471E+00 0.21386686E+04</pdfrwt>
<pdfrwt beam="2">  1       -2 0.12729371E+00 0.21386686E+04</pdfrwt>
<totfact> 0.62364827E+00</totfact>
</mgrwt>
</event>
<event>
12    3  0.4192740E-008  0.2218908E+04  0.7818608E-02  0.8510599E-01
          1   -1    0    0  501    0  0.00000000000E+00  0.00000000000E+00  0.12770440946E+04  0.12770440946E+04  0.00000000000E+00 0. -1.
         -1   -1    0    0    0  501 -0.00000000000E+00 -0.00000000000E+00 -0.96385741549E+03  0.96385741549E+03  0.00000000000E+00 0.  1.
         23    2    1    2    0    0  0.48771246939E+03 -0.46908533792E+03 -0.53623689856E+03  0.86838785404E+03  0.92967449211E+02 0.  0.
        254    2    1    2    0    0 -0.48771246939E+03  0.46908533792E+03  0.84942357763E+03  0.13725136560E+04  0.83926683162E+03 0.  0.
         23    2    4    4    0    0 -0.44885948947E+02  0.52168785924E+03  0.17612366140E+03  0.55974245830E+03  0.90106074304E+02 0.  0.
         23    2    4    4    0    0 -0.44282652044E+03 -0.52602521320E+02  0.67329991623E+03  0.81277119771E+03  0.91661825084E+02 0.  0.
          2    1    3    3  502    0  0.13114408945E+03 -0.15007177471E+03 -0.11013615542E+03  0.22770657103E+03  0.00000000000E+00 0. -1.
         -2    1    3    3    0  502  0.35656837994E+03 -0.31901356322E+03 -0.42610074314E+03  0.64068128300E+03  0.00000000000E+00 0.  1.
         13    1    5    5    0    0 -0.18353851365E+02  0.48348762857E+03  0.16999135922E+03  0.51282961405E+03  0.00000000000E+00 0. -1.
        -13    1    5    5    0    0 -0.26532097582E+02  0.38200230678E+02  0.61323021807E+01  0.46912844254E+02  0.00000000000E+00 0.  1.
          2    1    6    6  503    0 -0.35729528555E+03 -0.78070168760E+02  0.52933794037E+03  0.64339220343E+03  0.00000000000E+00 0. -1.
         -2    1    6    6    0  503 -0.85531234890E+02  0.25467647440E+02  0.14396197587E+03  0.16937899428E+03  0.00000000000E+00 0.  1.
<mgrwt>
<rscale>  0 0.22189082E+04</rscale>
<asrwt>0</asrwt>
<pdfrwt beam="1">  1        1 0.19646832E+00 0.22189082E+04</pdfrwt>
<pdfrwt beam="2">  1       -1 0.14828576E+00 0.22189082E+04</pdfrwt>
<totfact> 0.30777461E+00</totfact>
</mgrwt>
</event>
<event>
12    3  0.4192740E-008  0.1676559E+04  0.7818608E-02  0.8774848E-01
          2   -1    0    0  501    0  0.00000000000E+00  0.00000000000E+00  0.12912295212E+04  0.12912295212E+04  0.00000000000E+00 0.  1.
         -2   -1    0    0    0  501 -0.00000000000E+00 -0.00000000000E+00 -0.54421978489E+03  0.54421978489E+03  0.00000000000E+00 0. -1.
         23    2    1    2    0    0 -0.13043602830E+03 -0.40419595835E+03  0.70485794910E+03  0.82782427818E+03  0.89890916681E+02 0.  0.
        254    2    1    2    0    0  0.13043602830E+03  0.40419595835E+03  0.42151787207E+02  0.10076250279E+04  0.91276694368E+03 0.  0.
         23    2    4    4    0    0  0.19997510054E+02 -0.64005422591E+02  0.39009083588E+03  0.40632739668E+03  0.91839525935E+02 0.  0.
         23    2    4    4    0    0  0.11043851825E+03  0.46820138094E+03 -0.34793904868E+03  0.60129763123E+03  0.95331318532E+02 0.  0.
          3    1    3    3  502    0 -0.58971917548E+01 -0.26605290732E+02  0.10262055583E+03  0.10617719550E+03  0.00000000000E+00 0. -1.
         -3    1    3    3    0  502 -0.12453883655E+03 -0.37759066762E+03  0.60223739327E+03  0.72164708268E+03  0.00000000000E+00 0.  1.
         13    1    5    5    0    0  0.96908280776E+01 -0.39618738040E+02  0.37207499905E+03  0.37430383577E+03  0.00000000000E+00 0.  1.
        -13    1    5    5    0    0  0.10306681976E+02 -0.24386684551E+02  0.18015836835E+02  0.32023560914E+02  0.00000000000E+00 0. -1.
          3    1    6    6  503    0  0.20848522194E+01  0.29567431095E+02 -0.56020335032E+02  0.63378683542E+02  0.00000000000E+00 0. -1.
         -3    1    6    6    0  503  0.10835366603E+03  0.43863394985E+03 -0.29191871365E+03  0.53791894768E+03  0.00000000000E+00 0.  1.
<mgrwt>
<rscale>  0 0.16765592E+04</rscale>
<asrwt>0</asrwt>
<pdfrwt beam="1">  1        2 0.19865069E+00 0.16765592E+04</pdfrwt>
<pdfrwt beam="2">  1       -2 0.83726121E-01 0.16765592E+04</pdfrwt>
<totfact> 0.19887618E+01</totfact>
</mgrwt>
</event>
<event>
12    3  0.4192740E-008  0.1390753E+04  0.7818608E-02  0.8960539E-01
         -2   -1    0    0    0  501 -0.00000000000E+00  0.00000000000E+00  0.18450073365E+03  0.18450073365E+03  0.00000000000E+00 0.  1.
          2   -1    0    0  501    0  0.00000000000E+00 -0.00000000000E+00 -0.26208482433E+04  0.26208482433E+04  0.00000000000E+00 0. -1.
         23    2    1    2    0    0 -0.36445059776E+03 -0.10253801588E+03 -0.78474319540E+03  0.87651536714E+03  0.95493576702E+02 0.  0.
        254    2    1    2    0    0  0.36445059776E+03  0.10253801588E+03 -0.16516043143E+04  0.19288336098E+04  0.92155520754E+03 0.  0.
         23    2    4    4    0    0  0.52723489996E+03  0.34859242018E+03 -0.80601904684E+03  0.10284306655E+04  0.92247572594E+02 0.  0.
         23    2    4    4    0    0 -0.16278430220E+03 -0.24605440429E+03 -0.84558526741E+03  0.90040294434E+03  0.93110250811E+02 0.  0.
          2    1    3    3  502    0 -0.34125525248E+03 -0.92916264047E+02 -0.77013232841E+03  0.84746231936E+03  0.00000000000E+00 0. -1.
         -2    1    3    3    0  502 -0.23195345279E+02 -0.96217518362E+01 -0.14610866990E+02  0.29053047778E+02  0.00000000000E+00 0.  1.
         13    1    5    5    0    0  0.95642451803E+02  0.26310327414E+02 -0.14606954148E+03  0.17656733238E+03  0.00000000000E+00 0. -1.
        -13    1    5    5    0    0  0.43159244816E+03  0.32228209276E+03 -0.65994950536E+03  0.85186333308E+03  0.00000000000E+00 0.  1.
          1    1    6    6  503    0 -0.15942133954E+03 -0.17565955998E+03 -0.68890125655E+03  0.72859891970E+03  0.00000000000E+00 0. -1.
         -1    1    6    6    0  503 -0.33629626545E+01 -0.70394844314E+02 -0.15668401086E+03  0.17180402464E+03  0.00000000000E+00 0.  1.
<mgrwt>
<rscale>  0 0.13907529E+04</rscale>
<asrwt>0</asrwt>
<pdfrwt beam="1">  1        2 0.40320741E+00 0.13907529E+04</pdfrwt>
<pdfrwt beam="2">  1       -2 0.28384729E-01 0.13907529E+04</pdfrwt>
<totfact> 0.32911698E+01</totfact>
</mgrwt>
</event>
<event>
12    3  0.4192740E-008  0.1847858E+04  0.7818608E-02  0.8681255E-01
         -2   -1    0    0    0  501 -0.00000000000E+00  0.00000000000E+00  0.19597166248E+04  0.19597166248E+04  0.00000000000E+00 0.  1.
          2   -1    0    0  501    0  0.00000000000E+00 -0.00000000000E+00 -0.43559613821E+03  0.43559613821E+03  0.00000000000E+00 0. -1.
         23    2    1    2    0    0 -0.34596548497E+03 -0.24052595198E+03  0.13100053883E+04  0.13791540197E+04  0.91688835078E+02 0.  0.
        254    2    1    2    0    0  0.34596548497E+03  0.24052595198E+03  0.21411509833E+03  0.10161587433E+04  0.89954903472E+03 0.  0.
         23    2    4    4    0    0  0.37375014818E+03  0.47973011041E+03  0.36798583479E+03  0.71661835078E+03  0.91094094066E+02 0.  0.
         23    2    4    4    0    0 -0.27784663210E+02 -0.23920415843E+03 -0.15387073645E+03  0.29954039251E+03  0.89764281802E+02 0.  0.
          4    1    3    3  502    0 -0.32434955987E+02 -0.43251342744E+02  0.99499103549E+02  0.11323769967E+03  0.00000000000E+00 0. -1.
         -4    1    3    3    0  502 -0.31353052898E+03 -0.19727460924E+03  0.12105062847E+04  0.12659163201E+04  0.00000000000E+00 0.  1.
         13    1    5    5    0    0  0.95080363077E+02  0.18642919213E+03  0.14568720716E+03  0.25499192429E+03  0.00000000000E+00 0. -1.
        -13    1    5    5    0    0  0.27866978511E+03  0.29330091828E+03  0.22229862763E+03  0.46162642650E+03  0.00000000000E+00 0.  1.
          3    1    6    6  503    0  0.22670693019E+02 -0.95654127645E+02 -0.94039355979E+02  0.13604070321E+03  0.00000000000E+00 0. -1.
         -3    1    6    6    0  503 -0.50455356229E+02 -0.14355003078E+03 -0.59831380474E+02  0.16349968929E+03  0.00000000000E+00 0.  1.
<mgrwt>
<rscale>  0 0.18478582E+04</rscale>
<asrwt>0</asrwt>
<pdfrwt beam="1">  1        2 0.67014792E-01 0.18478582E+04</pdfrwt>
<pdfrwt beam="2">  1       -2 0.30149486E+00 0.18478582E+04</pdfrwt>
<totfact> 0.21159763E+00</totfact>
</mgrwt>
</event>
<event>
12    3  0.4192740E-008  0.1560308E+04  0.7818608E-02  0.8845311E-01
         -2   -1    0    0    0  501 -0.00000000000E+00  0.00000000000E+00  0.37423537114E+03  0.37423537114E+03  0.00000000000E+00 0.  1.
          2   -1    0    0  501    0  0.00000000000E+00 -0.00000000000E+00 -0.16263559921E+04  0.16263559921E+04  0.00000000000E+00 0. -1.
         23    2    1    2    0    0 -0.26519737968E+03 -0.55043357891E+02 -0.88879559671E+03  0.93294677773E+03  0.84099083866E+02 0.  0.
        254    2    1    2    0    0  0.26519737968E+03  0.55043357891E+02 -0.36332502420E+03  0.10676445855E+04  0.96669564302E+03 0.  0.
         23    2    4    4    0    0 -0.33540243391E+03  0.11362112617E+03 -0.26010220937E+03  0.44860742871E+03  0.90503661758E+02 0.  0.
         23    2    4    4    0    0  0.60059981359E+03 -0.58577768276E+02 -0.10322281484E+03  0.61903715676E+03  0.91654573943E+02 0.  0.
          4    1    3    3  502    0 -0.24538920885E+03 -0.56999014673E+02 -0.86936765676E+03  0.90513251743E+03  0.00000000000E+00 0. -1.
         -4    1    3    3    0  502 -0.19808170833E+02  0.19556567818E+01 -0.19427939951E+02  0.27814260298E+02  0.00000000000E+00 0.  1.
         13    1    5    5    0    0 -0.27600394544E+03  0.60690587890E+02 -0.22682296930E+03  0.36236747200E+03  0.00000000000E+00 0. -1.
        -13    1    5    5    0    0 -0.59398488470E+02  0.52930538276E+02 -0.33279240062E+02  0.86239956713E+02  0.00000000000E+00 0.  1.
          1    1    6    6  503    0  0.37610092935E+03 -0.36720832787E+01 -0.33371048244E+02  0.37759637195E+03  0.00000000000E+00 0. -1.
         -1    1    6    6    0  503  0.22449888424E+03 -0.54905684997E+02 -0.69851766594E+02  0.24144078481E+03  0.00000000000E+00 0.  1.
<mgrwt>
<rscale>  0 0.15603076E+04</rscale>
<asrwt>0</asrwt>
<pdfrwt beam="1">  1        2 0.25020861E+00 0.15603076E+04</pdfrwt>
<pdfrwt beam="2">  1       -2 0.57574673E-01 0.15603076E+04</pdfrwt>
<totfact> 0.29289504E+01</totfact>
</mgrwt>
</event>
<event>
12    3  0.4192740E-008  0.1900268E+04  0.7818608E-02  0.8654723E-01
         -2   -1    0    0    0  501 -0.00000000000E+00  0.00000000000E+00  0.81281002952E+03  0.81281002952E+03  0.00000000000E+00 0.  1.
          2   -1    0    0  501    0  0.00000000000E+00 -0.00000000000E+00 -0.11106587437E+04  0.11106587437E+04  0.00000000000E+00 0. -1.
         23    2    1    2    0    0 -0.68933970467E+02 -0.27195853460E+03 -0.79696059350E+03  0.85028051849E+03  0.95485264336E+02 0.  0.
        254    2    1    2    0    0  0.68933970467E+02  0.27195853460E+03  0.49911187927E+03  0.10731882548E+04  0.90769324408E+03 0.  0.
         23    2    4    4    0    0  0.46113649413E+03  0.13015785168E+03  0.12125174932E+03  0.50328724658E+03  0.94911186352E+02 0.  0.
         23    2    4    4    0    0 -0.39220252366E+03  0.14180068292E+03  0.37786012996E+03  0.56990100820E+03  0.89881188786E+02 0.  0.
          1    1    3    3  502    0 -0.87894711661E+02 -0.15771519685E+03 -0.48740021517E+03  0.51976776872E+03  0.00000000000E+00 0. -1.
         -1    1    3    3    0  502  0.18960741194E+02 -0.11424333774E+03 -0.30956037833E+03  0.33051274976E+03  0.00000000000E+00 0.  1.
         13    1    5    5    0    0  0.34401628824E+03  0.53702610839E+02  0.95829730514E+02  0.36112949787E+03  0.00000000000E+00 0. -1.
        -13    1    5    5    0    0  0.11712020589E+03  0.76455240837E+02  0.25422018804E+02  0.14215774871E+03  0.00000000000E+00 0.  1.
          4    1    6    6  503    0 -0.22957263030E+03  0.98255177287E+02  0.27995993386E+03  0.37514695389E+03  0.00000000000E+00 0. -1.
         -4    1    6    6    0  503 -0.16262989336E+03  0.43545505634E+02  0.97900196095E+02  0.19475405431E+03  0.00000000000E+00 0.  1.
<mgrwt>
<rscale>  0 0.19002679E+04</rscale>
<asrwt>0</asrwt>
<pdfrwt beam="1">  1        2 0.17087057E+00 0.19002679E+04</pdfrwt>
<pdfrwt beam="2">  1       -2 0.12504770E+00 0.19002679E+04</pdfrwt>
<totfact> 0.96280251E+00</totfact>
</mgrwt>
</event>
<event>
12    3  0.4192740E-008  0.1645653E+04  0.7818608E-02  0.8792982E-01
          1   -1    0    0  501    0  0.00000000000E+00  0.00000000000E+00  0.72114165227E+03  0.72114165227E+03  0.00000000000E+00 0. -1.
         -1   -1    0    0    0  501 -0.00000000000E+00 -0.00000000000E+00 -0.93884984302E+03  0.93884984302E+03  0.00000000000E+00 0.  1.
         23    2    1    2    0    0  0.35177844107E+03  0.21382261660E+03  0.32014163058E+03  0.52952430223E+03  0.91853905994E+02 0.  0.
        254    2    1    2    0    0 -0.35177844107E+03 -0.21382261660E+03 -0.53784982133E+03  0.11304671931E+04  0.90509969689E+03 0.  0.
         23    2    4    4    0    0 -0.54538799533E+03 -0.10511150173E+03 -0.65500419658E+03  0.86341189158E+03  0.89180175731E+02 0.  0.
         23    2    4    4    0    0  0.19360955426E+03 -0.10871111487E+03  0.11715437524E+03  0.26705530148E+03  0.91052844066E+02 0.  0.
          4    1    3    3  502    0  0.26807043521E+03  0.18380321018E+03  0.29008465684E+03  0.43565409035E+03  0.00000000000E+00 0. -1.
         -4    1    3    3    0  502  0.83708005867E+02  0.30019406426E+02  0.30056973743E+02  0.93870211883E+02  0.00000000000E+00 0.  1.
         13    1    5    5    0    0 -0.24410635388E+03 -0.38319208352E+02 -0.35887779232E+03  0.43571727479E+03  0.00000000000E+00 0. -1.
        -13    1    5    5    0    0 -0.30128164146E+03 -0.66792293379E+02 -0.29612640426E+03  0.42769461679E+03  0.00000000000E+00 0.  1.
          2    1    6    6  503    0  0.28154636450E+02 -0.60932860407E+02  0.24179427242E+02  0.71345229222E+02  0.00000000000E+00 0. -1.
         -2    1    6    6    0  503  0.16545491781E+03 -0.47778254465E+02  0.92974948002E+02  0.19571007226E+03  0.00000000000E+00 0.  1.
<mgrwt>
<rscale>  0 0.16456533E+04</rscale>
<asrwt>0</asrwt>
<pdfrwt beam="1">  1        1 0.11094487E+00 0.16456533E+04</pdfrwt>
<pdfrwt beam="2">  1       -1 0.14443844E+00 0.16456533E+04</pdfrwt>
<totfact> 0.96070040E+00</totfact>
</mgrwt>
</event>
<event>
12    3  0.4192740E-008  0.1135708E+04  0.7818608E-02  0.9171071E-01
         -2   -1    0    0    0  501 -0.00000000000E+00  0.00000000000E+00  0.10676302621E+03  0.10676302621E+03  0.00000000000E+00 0.  1.
          2   -1    0    0  501    0  0.00000000000E+00 -0.00000000000E+00 -0.30203173784E+04  0.30203173784E+04  0.00000000000E+00 0. -1.
         23    2    1    2    0    0 -0.17796753691E+03 -0.42326316047E+02 -0.73422457577E+03  0.76236530079E+03  0.93011628111E+02 0.  0.
        254    2    1    2    0    0  0.17796753691E+03  0.42326316047E+02 -0.21793297764E+04  0.23647151038E+04  0.89940829806E+03 0.  0.
         23    2    4    4    0    0  0.28690018945E+03  0.37423763851E+03 -0.75109980035E+03  0.89150921855E+03  0.90951898740E+02 0.  0.
         23    2    4    4    0    0 -0.10893265254E+03 -0.33191132246E+03 -0.14282299760E+04  0.14732058852E+04  0.91996016707E+02 0.  0.
          2    1    3    3  502    0 -0.17167430670E+03 -0.61927930467E+02 -0.62009485974E+03  0.64639366584E+03  0.00000000000E+00 0. -1.
         -2    1    3    3    0  502 -0.62932302141E+01  0.19601614420E+02 -0.11412971602E+03  0.11597163495E+03  0.00000000000E+00 0.  1.
         13    1    5    5    0    0  0.22453490795E+03  0.27527989035E+03 -0.62926872928E+03  0.72261613363E+03  0.00000000000E+00 0.  1.
        -13    1    5    5    0    0  0.62365281502E+02  0.98957748160E+02 -0.12183107106E+03  0.16889308492E+03  0.00000000000E+00 0. -1.
          4    1    6    6  503    0 -0.88232183762E+01 -0.15571215127E+03 -0.53457286987E+03  0.55685929681E+03  0.00000000000E+00 0. -1.
         -4    1    6    6    0  503 -0.10010943416E+03 -0.17619917119E+03 -0.89365710616E+03  0.91634658843E+03  0.00000000000E+00 0.  1.
<mgrwt>
<rscale>  0 0.11357081E+04</rscale>
<asrwt>0</asrwt>
<pdfrwt beam="1">  1        2 0.46466410E+00 0.11357081E+04</pdfrwt>
<pdfrwt beam="2">  1       -2 0.16425085E-01 0.11357081E+04</pdfrwt>
<totfact> 0.51285183E+01</totfact>
</mgrwt>
</event>
<event>
12    3  0.4192740E-008  0.1282002E+04  0.7818608E-02  0.9043961E-01
          2   -1    0    0  501    0  0.00000000000E+00  0.00000000000E+00  0.19487817191E+04  0.19487817191E+04  0.00000000000E+00 0. -1.
         -2   -1    0    0    0  501 -0.00000000000E+00 -0.00000000000E+00 -0.21084051528E+03  0.21084051528E+03  0.00000000000E+00 0.  1.
         23    2    1    2    0    0  0.29897163560E+03  0.84282414673E+02  0.34344319294E+03  0.47151976710E+03  0.88826233019E+02 0.  0.
        254    2    1    2    0    0 -0.29897163560E+03 -0.84282414673E+02  0.13944980108E+04  0.16881024672E+04  0.89920947136E+03 0.  0.
         23    2    4    4    0    0 -0.46639154197E+03 -0.21578329065E+03  0.13564749059E+04  0.14534135043E+04  0.91121595250E+02 0.  0.
         23    2    4    4    0    0  0.16741990637E+03  0.13150087598E+03  0.38023104929E+02  0.23468896297E+03  0.91166043019E+02 0.  0.
          1    1    3    3  502    0  0.67892677759E+01 -0.13082930650E+02  0.20685469814E+02  0.25399722297E+02  0.00000000000E+00 0. -1.
         -1    1    3    3    0  502  0.29218236782E+03  0.97365345323E+02  0.32275772313E+03  0.44612004480E+03  0.00000000000E+00 0.  1.
         13    1    5    5    0    0 -0.45397894982E+03 -0.21342505665E+03  0.12611827215E+04  0.13572873678E+04  0.00000000000E+00 0. -1.
        -13    1    5    5    0    0 -0.12412592144E+02 -0.23582339968E+01  0.95292184426E+02  0.96126136529E+02  0.00000000000E+00 0.  1.
          1    1    6    6  503    0  0.16001036450E+03  0.12868458021E+03  0.10014691926E+02  0.20558047569E+03  0.00000000000E+00 0. -1.
         -1    1    6    6    0  503  0.74095418680E+01  0.28162957658E+01  0.28008413003E+02  0.29108487276E+02  0.00000000000E+00 0.  1.
<mgrwt>
<rscale>  0 0.12820018E+04</rscale>
<asrwt>0</asrwt>
<pdfrwt beam="1">  1        2 0.29981256E+00 0.12820018E+04</pdfrwt>
<pdfrwt beam="2">  1       -2 0.32437004E-01 0.12820018E+04</pdfrwt>
<totfact> 0.62033696E+01</totfact>
</mgrwt>
</event>
<event>
12    3  0.4192740E-008  0.1314063E+04  0.7818608E-02  0.9018487E-01
          2   -1    0    0  501    0  0.00000000000E+00  0.00000000000E+00  0.14710941492E+04  0.14710941492E+04  0.00000000000E+00 0. -1.
         -2   -1    0    0    0  501 -0.00000000000E+00 -0.00000000000E+00 -0.29344846548E+03  0.29344846548E+03  0.00000000000E+00 0.  1.
         23    2    1    2    0    0  0.30485458360E+03  0.12714202044E+03  0.19712413909E+03  0.39477064364E+03  0.88794844234E+02 0.  0.
        254    2    1    2    0    0 -0.30485458360E+03 -0.12714202044E+03  0.98052154459E+03  0.13697719710E+04  0.89763653147E+03 0.  0.
         23    2    4    4    0    0  0.19478900248E+03 -0.33875441521E+03  0.33340881405E+03  0.52028309856E+03  0.82678631137E+02 0.  0.
         23    2    4    4    0    0 -0.49964358608E+03  0.21161239477E+03  0.64711273055E+03  0.84948887244E+03  0.91939869723E+02 0.  0.
          4    1    3    3  502    0  0.82797288140E+02  0.78507510479E+02  0.77123865510E+02  0.13772040791E+03  0.00000000000E+00 0. -1.
         -4    1    3    3    0  502  0.22205729546E+03  0.48634509965E+02  0.12000027358E+03  0.25705023572E+03  0.00000000000E+00 0.  1.
         13    1    5    5    0    0 -0.75465140156E+01 -0.24500721122E+02  0.22733742286E+02  0.34264533378E+02  0.00000000000E+00 0. -1.
        -13    1    5    5    0    0  0.20233551649E+03 -0.31425369409E+03  0.31067507176E+03  0.48601856518E+03  0.00000000000E+00 0.  1.
          2    1    6    6  503    0 -0.27094091711E+03  0.14542644740E+03  0.30876089809E+03  0.43576498753E+03  0.00000000000E+00 0. -1.
         -2    1    6    6    0  503 -0.22870266897E+03  0.66185947366E+02  0.33835183246E+03  0.41372388491E+03  0.00000000000E+00 0.  1.
<mgrwt>
<rscale>  0 0.13140629E+04</rscale>
<asrwt>0</asrwt>
<pdfrwt beam="1">  1        2 0.22632217E+00 0.13140629E+04</pdfrwt>
<pdfrwt beam="2">  1       -2 0.45145919E-01 0.13140629E+04</pdfrwt>
<totfact> 0.60036544E+01</totfact>
</mgrwt>
</event>
<event>
12    3  0.4192740E-008  0.2094516E+04  0.7818608E-02  0.8563663E-01
          2   -1    0    0  501    0  0.00000000000E+00  0.00000000000E+00  0.34044089058E+04  0.34044089058E+04  0.00000000000E+00 0. -1.
         -2   -1    0    0    0  501 -0.00000000000E+00 -0.00000000000E+00 -0.32215571687E+03  0.32215571687E+03  0.00000000000E+00 0.  1.
         23    2    1    2    0    0 -0.68187701261E+02  0.16511409078E+03  0.27045222286E+04  0.27123411054E+04  0.10218395931E+03 0.  0.
        254    2    1    2    0    0  0.68187701261E+02 -0.16511409078E+03  0.37773096037E+03  0.10142235173E+04  0.92415174028E+03 0.  0.
         23    2    4    4    0    0  0.38995133963E+03 -0.75295737487E+01 -0.97248952262E+02  0.41201404333E+03  0.90440430282E+02 0.  0.
         23    2    4    4    0    0 -0.32176363837E+03 -0.15758451704E+03  0.47497991264E+03  0.60220947398E+03  0.93196642400E+02 0.  0.
          3    1    3    3  502    0 -0.51451396758E+02  0.10436821035E+03  0.10156569513E+04  0.10223008423E+04  0.00000000000E+00 0. -1.
         -3    1    3    3    0  502 -0.16736304503E+02  0.60745880431E+02  0.16888652773E+04  0.16900402631E+04  0.00000000000E+00 0.  1.
         13    1    5    5    0    0  0.43939348585E+02  0.19366218686E+02  0.94250628421E+01  0.48934125004E+02  0.00000000000E+00 0. -1.
        -13    1    5    5    0    0  0.34601199104E+03 -0.26895792435E+02 -0.10667401510E+03  0.36307991833E+03  0.00000000000E+00 0.  1.
          1    1    6    6  503    0 -0.49775602188E+02  0.98187473572E+01  0.69809609450E+02  0.86298319476E+02  0.00000000000E+00 0. -1.
         -1    1    6    6    0  503 -0.27198803618E+03 -0.16740326439E+03  0.40517030319E+03  0.51591115450E+03  0.00000000000E+00 0.  1.
<mgrwt>
<rscale>  0 0.20945165E+04</rscale>
<asrwt>0</asrwt>
<pdfrwt beam="1">  1        2 0.52375519E+00 0.20945165E+04</pdfrwt>
<pdfrwt beam="2">  1       -2 0.49562421E-01 0.20945165E+04</pdfrwt>
<totfact> 0.33764869E+00</totfact>
</mgrwt>
</event>
<event>
12    3  0.4192740E-008  0.1779596E+04  0.7818608E-02  0.8717226E-01
          2   -1    0    0  501    0  0.00000000000E+00  0.00000000000E+00  0.24058839132E+04  0.24058839132E+04  0.00000000000E+00 0. -1.
         -2   -1    0    0    0  501 -0.00000000000E+00 -0.00000000000E+00 -0.32908490000E+03  0.32908490000E+03  0.00000000000E+00 0.  1.
         23    2    1    2    0    0 -0.41292400475E+03 -0.63749228971E+02 -0.13365788662E+02  0.42756209101E+03  0.89780284444E+02 0.  0.
        254    2    1    2    0    0  0.41292400475E+03  0.63749228971E+02  0.20901648018E+04  0.23074067221E+04  0.88361002979E+03 0.  0.
         23    2    4    4    0    0  0.48353017842E+02  0.35170096120E+03  0.15358187683E+04  0.15787530705E+04  0.87694857196E+02 0.  0.
         23    2    4    4    0    0  0.36457098691E+03 -0.28795173223E+03  0.55434603352E+03  0.72865365168E+03  0.88365234364E+02 0.  0.
          4    1    3    3  502    0 -0.22555330384E+03 -0.18179153336E+02  0.34443685694E+02  0.22889111379E+03  0.00000000000E+00 0. -1.
         -4    1    3    3    0  502 -0.18737070091E+03 -0.45570075636E+02 -0.47809474356E+02  0.19867097723E+03  0.00000000000E+00 0.  1.
         13    1    5    5    0    0 -0.21194637688E+02  0.16550280977E+03  0.71551086174E+03  0.73470823187E+03  0.00000000000E+00 0.  1.
        -13    1    5    5    0    0  0.69547655530E+02  0.18619815143E+03  0.82030790656E+03  0.84404483859E+03  0.00000000000E+00 0. -1.
          4    1    6    6  503    0  0.61917679856E+02 -0.85290933194E+02  0.16228677658E+03  0.19350798489E+03  0.00000000000E+00 0. -1.
         -4    1    6    6    0  503  0.30265330705E+03 -0.20266079904E+03  0.39205925694E+03  0.53514566679E+03  0.00000000000E+00 0.  1.
<mgrwt>
<rscale>  0 0.17795955E+04</rscale>
<asrwt>0</asrwt>
<pdfrwt beam="1">  1        2 0.37013598E+00 0.17795955E+04</pdfrwt>
<pdfrwt beam="2">  1       -2 0.50628448E-01 0.17795955E+04</pdfrwt>
<totfact> 0.13772275E+01</totfact>
</mgrwt>
</event>
<event>
12    3  0.4192740E-008  0.2149625E+04  0.7818608E-02  0.8539693E-01
          2   -1    0    0  501    0  0.00000000000E+00  0.00000000000E+00  0.36004899099E+04  0.36004899099E+04  0.00000000000E+00 0. -1.
         -2   -1    0    0    0  501 -0.00000000000E+00 -0.00000000000E+00 -0.32085127132E+03  0.32085127132E+03  0.00000000000E+00 0.  1.
         23    2    1    2    0    0 -0.22142564289E+03  0.27982052985E+02  0.29209322201E+04  0.29308641630E+04  0.91144922869E+02 0.  0.
        254    2    1    2    0    0  0.22142564289E+03 -0.27982052985E+02  0.35870641855E+03  0.99047701828E+03  0.89585831380E+03 0.  0.
         23    2    4    4    0    0 -0.34100206997E+03  0.27677314527E+00  0.12855315814E+03  0.37538770147E+03  0.90041788177E+02 0.  0.
         23    2    4    4    0    0  0.56242771286E+03 -0.28258826131E+02  0.23015326041E+03  0.61508931681E+03  0.90779132649E+02 0.  0.
          1    1    3    3  502    0 -0.10491887229E+03  0.52980600609E+02  0.11726021281E+04  0.11784781137E+04  0.00000000000E+00 0. -1.
         -1    1    3    3    0  502 -0.11650677059E+03 -0.24998547623E+02  0.17483300920E+04  0.17523860492E+04  0.00000000000E+00 0.  1.
         13    1    5    5    0    0 -0.27640030214E+03  0.27317120471E+02  0.12682822560E+03  0.30533383517E+03  0.00000000000E+00 0. -1.
        -13    1    5    5    0    0 -0.64601767834E+02 -0.27040347326E+02  0.17249325406E+01  0.70053866296E+02  0.00000000000E+00 0.  1.
          4    1    6    6  503    0  0.40250126996E+03 -0.11468531066E+02  0.11996984173E+03  0.42015659277E+03  0.00000000000E+00 0. -1.
         -4    1    6    6    0  503  0.15992644290E+03 -0.16790295065E+02  0.11018341869E+03  0.19493272404E+03  0.00000000000E+00 0.  1.
<mgrwt>
<rscale>  0 0.21496249E+04</rscale>
<asrwt>0</asrwt>
<pdfrwt beam="1">  1        2 0.55392150E+00 0.21496249E+04</pdfrwt>
<pdfrwt beam="2">  1       -2 0.49361737E-01 0.21496249E+04</pdfrwt>
<totfact> 0.24712136E+00</totfact>
</mgrwt>
</event>
<event>
12    3  0.4192740E-008  0.1681023E+04  0.7818608E-02  0.8772262E-01
          2   -1    0    0  501    0  0.00000000000E+00  0.00000000000E+00  0.24709250157E+04  0.24709250157E+04  0.00000000000E+00 0. -1.
         -2   -1    0    0    0  501 -0.00000000000E+00 -0.00000000000E+00 -0.28590881865E+03  0.28590881865E+03  0.00000000000E+00 0.  1.
         23    2    1    2    0    0  0.61275010422E+03  0.10769585405E+03  0.67495716890E+03  0.92270468149E+03  0.93571695464E+02 0.  0.
        254    2    1    2    0    0 -0.61275010422E+03 -0.10769585405E+03  0.15100590282E+04  0.18341291529E+04  0.83467981508E+03 0.  0.
         23    2    4    4    0    0 -0.28647930054E+03  0.35438286603E+03  0.60209991443E+03  0.76046613285E+03  0.90148915080E+02 0.  0.
         23    2    4    4    0    0 -0.32627080368E+03 -0.46207872007E+03  0.90795911375E+03  0.10736630200E+04  0.91614122701E+02 0.  0.
          2    1    3    3  502    0  0.39941734502E+03  0.83564524537E+02  0.50252332031E+03  0.64733834485E+03  0.00000000000E+00 0. -1.
         -2    1    3    3    0  502  0.21333275920E+03  0.24131329511E+02  0.17243384859E+03  0.27536633664E+03  0.00000000000E+00 0.  1.
         13    1    5    5    0    0 -0.12879551296E+02  0.55095650268E+02  0.50389640575E+02  0.75766281401E+02  0.00000000000E+00 0.  1.
        -13    1    5    5    0    0 -0.27359974924E+03  0.29928721576E+03  0.55171027386E+03  0.68469985145E+03  0.00000000000E+00 0. -1.
          2    1    6    6  503    0 -0.20944855497E+03 -0.26414875517E+03  0.46141953917E+03  0.57144663194E+03  0.00000000000E+00 0.  1.
         -2    1    6    6    0  503 -0.11682224871E+03 -0.19792996491E+03  0.44653957458E+03  0.50221638809E+03  0.00000000000E+00 0. -1.
<mgrwt>
<rscale>  0 0.16810226E+04</rscale>
<asrwt>0</asrwt>
<pdfrwt beam="1">  1        2 0.38014230E+00 0.16810226E+04</pdfrwt>
<pdfrwt beam="2">  1       -2 0.43985974E-01 0.16810226E+04</pdfrwt>
<totfact> 0.16929525E+01</totfact>
</mgrwt>
</event>
<event>
12    3  0.4192740E-008  0.1945269E+04  0.7818608E-02  0.8632646E-01
         -2   -1    0    0    0  501 -0.00000000000E+00  0.00000000000E+00  0.99323135421E+03  0.99323135421E+03  0.00000000000E+00 0.  1.
          2   -1    0    0  501    0  0.00000000000E+00 -0.00000000000E+00 -0.95246437714E+03  0.95246437714E+03  0.00000000000E+00 0. -1.
         23    2    1    2    0    0  0.50069155539E+03 -0.28122141276E+03  0.50439962132E+03  0.76987152136E+03  0.92226160988E+02 0.  0.
        254    2    1    2    0    0 -0.50069155539E+03  0.28122141276E+03 -0.46363264425E+03  0.11758242100E+04  0.91533044707E+03 0.  0.
         23    2    4    4    0    0 -0.41602006924E+03  0.50351616190E+03 -0.59847503066E+03  0.88971116077E+03  0.82537046048E+02 0.  0.
         23    2    4    4    0    0 -0.84671486150E+02 -0.22229474913E+03  0.13484238641E+03  0.28611304922E+03  0.84225837494E+02 0.  0.
          1    1    3    3  502    0  0.10437453551E+02  0.68556322950E+01  0.15957640778E+02  0.20262932413E+02  0.00000000000E+00 0. -1.
         -1    1    3    3    0  502  0.49025410184E+03 -0.28807704506E+03  0.48844198054E+03  0.74960858894E+03  0.00000000000E+00 0.  1.
         13    1    5    5    0    0 -0.23048539038E+03  0.32559053268E+03 -0.40027530821E+03  0.56511329175E+03  0.00000000000E+00 0. -1.
        -13    1    5    5    0    0 -0.18553467886E+03  0.17792562922E+03 -0.19819972245E+03  0.32459786902E+03  0.00000000000E+00 0.  1.
          1    1    6    6  503    0 -0.86699381274E+02 -0.22795148911E+03  0.12371509260E+03  0.27346679550E+03  0.00000000000E+00 0. -1.
         -1    1    6    6    0  503  0.20278951244E+01  0.56567399775E+01  0.11127293802E+02  0.12646253720E+02  0.00000000000E+00 0.  1.
<mgrwt>
<rscale>  0 0.19452686E+04</rscale>
<asrwt>0</asrwt>
<pdfrwt beam="1">  1        2 0.14653298E+00 0.19452686E+04</pdfrwt>
<pdfrwt beam="2">  1       -2 0.15280482E+00 0.19452686E+04</pdfrwt>
<totfact> 0.71974832E+00</totfact>
</mgrwt>
</event>
<event>
12    3  0.4192740E-008  0.1170701E+04  0.7818608E-02  0.9138895E-01
          1   -1    0    0  501    0  0.00000000000E+00  0.00000000000E+00  0.10604680268E+04  0.10604680268E+04  0.00000000000E+00 0. -1.
         -1   -1    0    0    0  501 -0.00000000000E+00 -0.00000000000E+00 -0.32309821281E+03  0.32309821281E+03  0.00000000000E+00 0.  1.
         23    2    1    2    0    0 -0.12332150804E+03 -0.16190951436E+03  0.22469477824E+03  0.31657847254E+03  0.91166335468E+02 0.  0.
        254    2    1    2    0    0  0.12332150804E+03  0.16190951436E+03  0.51267503577E+03  0.10669877671E+04  0.91334786232E+03 0.  0.
         23    2    4    4    0    0  0.31385886465E+03 -0.17248909659E+03 -0.56338034890E+02  0.37420737953E+03  0.92721698432E+02 0.  0.
         23    2    4    4    0    0 -0.19053735662E+03  0.33439861095E+03  0.56901307066E+03  0.69278038754E+03  0.89676504813E+02 0.  0.
          3    1    3    3  502    0 -0.80619830236E+02 -0.35283651625E+02  0.10669206542E+03  0.13830289195E+03  0.00000000000E+00 0.  1.
         -3    1    3    3    0  502 -0.42701677801E+02 -0.12662586274E+03  0.11800271282E+03  0.17827558059E+03  0.00000000000E+00 0. -1.
         13    1    5    5    0    0  0.21490860374E+03 -0.88706043071E+02 -0.72523090174E+02  0.24354479803E+03  0.00000000000E+00 0. -1.
        -13    1    5    5    0    0  0.98950260917E+02 -0.83783053515E+02  0.16185055284E+02  0.13066258151E+03  0.00000000000E+00 0.  1.
          4    1    6    6  503    0 -0.53030388619E+02  0.11016133259E+03  0.11376573777E+03  0.16700414487E+03  0.00000000000E+00 0. -1.
         -4    1    6    6    0  503 -0.13750696800E+03  0.22423727836E+03  0.45524733289E+03  0.52577624268E+03  0.00000000000E+00 0.  1.
<mgrwt>
<rscale>  0 0.11707012E+04</rscale>
<asrwt>0</asrwt>
<pdfrwt beam="1">  1        1 0.16314893E+00 0.11707012E+04</pdfrwt>
<pdfrwt beam="2">  1       -1 0.49707418E-01 0.11707012E+04</pdfrwt>
<totfact> 0.54673900E+01</totfact>
</mgrwt>
</event>
<event>
12    3  0.4192740E-008  0.2722619E+04  0.7818608E-02  0.8327703E-01
         -1   -1    0    0    0  501 -0.00000000000E+00  0.00000000000E+00  0.81452419369E+03  0.81452419369E+03  0.00000000000E+00 0.  1.
          1   -1    0    0  501    0  0.00000000000E+00 -0.00000000000E+00 -0.22751478088E+04  0.22751478088E+04  0.00000000000E+00 0. -1.
         23    2    1    2    0    0  0.11677342483E+04 -0.18949539131E+03 -0.36211245706E+03  0.12405685595E+04  0.91504870229E+02 0.  0.
        254    2    1    2    0    0 -0.11677342483E+04  0.18949539131E+03 -0.10985111581E+04  0.18491034430E+04  0.90163462701E+03 0.  0.
         23    2    4    4    0    0 -0.58619339330E+03  0.23378633323E+03 -0.10854325546E+04  0.12585351300E+04  0.86418162340E+02 0.  0.
         23    2    4    4    0    0 -0.58154085499E+03 -0.44290941924E+02 -0.13078603446E+02  0.59056831304E+03  0.91915335755E+02 0.  0.
          1    1    3    3  502    0  0.58222288428E+03 -0.10068370702E+03 -0.13344638576E+03  0.60574634436E+03  0.00000000000E+00 0. -1.
         -1    1    3    3    0  502  0.58551136401E+03 -0.88811684288E+02 -0.22866607130E+03  0.63482221513E+03  0.00000000000E+00 0.  1.
         13    1    5    5    0    0 -0.15585653632E+03  0.74580481931E+02 -0.22826436655E+03  0.28628330241E+03  0.00000000000E+00 0. -1.
        -13    1    5    5    0    0 -0.43033685698E+03  0.15920585130E+03 -0.85716818809E+03  0.97225182758E+03  0.00000000000E+00 0.  1.
          3    1    6    6  503    0 -0.53152144432E+02 -0.30399631226E+02 -0.96415027211E+01  0.61985858154E+02  0.00000000000E+00 0. -1.
         -3    1    6    6    0  503 -0.52838871056E+03 -0.13891310698E+02 -0.34371007249E+01  0.52858245489E+03  0.00000000000E+00 0.  1.
<mgrwt>
<rscale>  0 0.27226185E+04</rscale>
<asrwt>0</asrwt>
<pdfrwt beam="1">  1        1 0.35002274E+00 0.27226185E+04</pdfrwt>
<pdfrwt beam="2">  1       -1 0.12531142E+00 0.27226185E+04</pdfrwt>
<totfact> 0.93784667E-01</totfact>
</mgrwt>
</event>
<event>
12    3  0.4192740E-008  0.2385358E+04  0.7818608E-02  0.8445006E-01
          2   -1    0    0  501    0  0.00000000000E+00  0.00000000000E+00  0.25194390725E+04  0.25194390725E+04  0.00000000000E+00 0. -1.
         -2   -1    0    0    0  501 -0.00000000000E+00 -0.00000000000E+00 -0.56460323491E+03  0.56460323491E+03  0.00000000000E+00 0.  1.
         23    2    1    2    0    0 -0.50469184784E+03 -0.63101685850E+03  0.41658774312E+02  0.81419405042E+03  0.90996490445E+02 0.  0.
        254    2    1    2    0    0  0.50469184784E+03  0.63101685850E+03  0.19131770633E+04  0.22698482570E+04  0.91600682166E+03 0.  0.
         23    2    4    4    0    0  0.29666734907E+03 -0.18721108096E+03  0.71308948302E+03  0.79957024175E+03  0.88070743543E+02 0.  0.
         23    2    4    4    0    0  0.20802449877E+03  0.81822793946E+03  0.12000875803E+04  0.14702780153E+04  0.93467046624E+02 0.  0.
          2    1    3    3  502    0 -0.29132570532E+03 -0.29436649851E+03  0.34064037310E+02  0.41555103256E+03  0.00000000000E+00 0.  1.
         -2    1    3    3    0  502 -0.21336614252E+03 -0.33665035999E+03  0.75947370030E+01  0.39864301786E+03  0.00000000000E+00 0. -1.
         13    1    5    5    0    0  0.23157923944E+03 -0.98840938886E+02  0.50678323264E+03  0.56588666730E+03  0.00000000000E+00 0. -1.
        -13    1    5    5    0    0  0.65088109625E+02 -0.88370142074E+02  0.20630625038E+03  0.23368357445E+03  0.00000000000E+00 0.  1.
          2    1    6    6  503    0  0.18885643461E+03  0.60886850966E+03  0.94138281011E+03  0.11369209340E+04  0.00000000000E+00 0. -1.
         -2    1    6    6    0  503  0.19168064166E+02  0.20935942980E+03  0.25870477017E+03  0.33335708128E+03  0.00000000000E+00 0.  1.
<mgrwt>
<rscale>  0 0.23853582E+04</rscale>
<asrwt>0</asrwt>
<pdfrwt beam="1">  1        2 0.38760601E+00 0.23853582E+04</pdfrwt>
<pdfrwt beam="2">  1       -2 0.86862037E-01 0.23853582E+04</pdfrwt>
<totfact> 0.35013005E+00</totfact>
</mgrwt>
</event>
<event>
12    3  0.4192740E-008  0.1441292E+04  0.7818608E-02  0.8924460E-01
          2   -1    0    0  501    0  0.00000000000E+00  0.00000000000E+00  0.11623645098E+04  0.11623645098E+04  0.00000000000E+00 0. -1.
         -2   -1    0    0    0  501 -0.00000000000E+00 -0.00000000000E+00 -0.44678801314E+03  0.44678801314E+03  0.00000000000E+00 0.  1.
         23    2    1    2    0    0  0.33320657731E+03  0.18312282576E+03  0.45655029239E+03  0.60094240655E+03  0.90183224809E+02 0.  0.
        254    2    1    2    0    0 -0.33320657731E+03 -0.18312282576E+03  0.25902620431E+03  0.10082101164E+04  0.89712455761E+03 0.  0.
         23    2    4    4    0    0  0.23712508880E+03 -0.17820737975E+03  0.29734259750E+03  0.42970703138E+03  0.90825847620E+02 0.  0.
         23    2    4    4    0    0 -0.57033166611E+03 -0.49154460127E+01 -0.38316393190E+02  0.57850308504E+03  0.88855514442E+02 0.  0.
          1    1    3    3  502    0  0.32528445682E+03  0.16981663522E+03  0.45618702846E+03  0.58545219479E+03  0.00000000000E+00 0. -1.
         -1    1    3    3    0  502  0.79221204891E+01  0.13306190536E+02  0.36326392034E+00  0.15490211758E+02  0.00000000000E+00 0.  1.
         13    1    5    5    0    0  0.20351034216E+03 -0.17341638631E+03  0.22369955575E+03  0.34861324365E+03  0.00000000000E+00 0. -1.
        -13    1    5    5    0    0  0.33614746637E+02 -0.47909934335E+01  0.73643041749E+02  0.81093787725E+02  0.00000000000E+00 0.  1.
          3    1    6    6  503    0 -0.56772782068E+03 -0.10517605026E+02 -0.30642355819E+02  0.56865143309E+03  0.00000000000E+00 0. -1.
         -3    1    6    6    0  503 -0.26038454273E+01  0.56021590137E+01 -0.76740373709E+01  0.98516519525E+01  0.00000000000E+00 0.  1.
<mgrwt>
<rscale>  0 0.14412918E+04</rscale>
<asrwt>0</asrwt>
<pdfrwt beam="1">  1        2 0.17882531E+00 0.14412918E+04</pdfrwt>
<pdfrwt beam="2">  1       -2 0.68736618E-01 0.14412918E+04</pdfrwt>
<totfact> 0.37459927E+01</totfact>
</mgrwt>
</event>
<event>
12    3  0.4192740E-008  0.1276983E+04  0.7818608E-02  0.9048020E-01
         -2   -1    0    0    0  501 -0.00000000000E+00  0.00000000000E+00  0.63946112413E+03  0.63946112413E+03  0.00000000000E+00 0.  1.
          2   -1    0    0  501    0  0.00000000000E+00 -0.00000000000E+00 -0.63752333035E+03  0.63752333035E+03  0.00000000000E+00 0. -1.
         23    2    1    2    0    0 -0.94393136002E+02 -0.93500539621E+02  0.28237875463E+03  0.32478051685E+03  0.89956700830E+02 0.  0.
        254    2    1    2    0    0  0.94393136002E+02  0.93500539621E+02 -0.28044096085E+03  0.95220393763E+03  0.90021819093E+03 0.  0.
         23    2    4    4    0    0  0.33986284984E+03  0.32370761878E+03 -0.35436678001E+03  0.59577309809E+03  0.95270092209E+02 0.  0.
         23    2    4    4    0    0 -0.24546971384E+03 -0.23020707916E+03  0.73925819166E+02  0.35643083954E+03  0.91253695398E+02 0.  0.
          1    1    3    3  502    0 -0.42959611326E+02 -0.84881983544E+02  0.11384014516E+03  0.14835787133E+03  0.00000000000E+00 0. -1.
         -1    1    3    3    0  502 -0.51433524677E+02 -0.86185560772E+01  0.16853860947E+03  0.17642264552E+03  0.00000000000E+00 0.  1.
         13    1    5    5    0    0  0.30045401658E+02  0.16710280823E+02 -0.61354035867E+02  0.70329775793E+02  0.00000000000E+00 0.  1.
        -13    1    5    5    0    0  0.30981744819E+03  0.30699733796E+03 -0.29301274415E+03  0.52544332230E+03  0.00000000000E+00 0. -1.
          1    1    6    6  503    0 -0.24338984745E+03 -0.19113997047E+03  0.68107613913E+02  0.31687813624E+03  0.00000000000E+00 0. -1.
         -1    1    6    6    0  503 -0.20798663921E+01 -0.39067108696E+02  0.58182052523E+01  0.39552703301E+02  0.00000000000E+00 0.  1.
<mgrwt>
<rscale>  0 0.12769830E+04</rscale>
<asrwt>0</asrwt>
<pdfrwt beam="1">  1        2 0.98080512E-01 0.12769830E+04</pdfrwt>
<pdfrwt beam="2">  1       -2 0.98378635E-01 0.12769830E+04</pdfrwt>
<totfact> 0.38826322E+01</totfact>
</mgrwt>
</event>
<event>
12    3  0.4192740E-008  0.1443830E+04  0.7818608E-02  0.8922689E-01
         -1   -1    0    0    0  501 -0.00000000000E+00  0.00000000000E+00  0.44820151167E+03  0.44820151167E+03  0.00000000000E+00 0. -1.
          1   -1    0    0  501    0  0.00000000000E+00 -0.00000000000E+00 -0.11627837863E+04  0.11627837863E+04  0.00000000000E+00 0.  1.
         23    2    1    2    0    0  0.10354734901E+03 -0.41245741252E+03 -0.26118897593E+03  0.50744059991E+03  0.91831969726E+02 0.  0.
        254    2    1    2    0    0 -0.10354734901E+03  0.41245741252E+03 -0.45339329873E+03  0.11035446981E+04  0.91181261601E+03 0.  0.
         23    2    4    4    0    0 -0.27483333716E+03  0.63883415257E+03 -0.25920782204E+03  0.74771675375E+03  0.90825167905E+02 0.  0.
         23    2    4    4    0    0  0.17128598815E+03 -0.22637674005E+03 -0.19418547669E+03  0.35582794434E+03  0.91215176592E+02 0.  0.
          2    1    3    3  502    0  0.61668690997E+02 -0.35584496979E+03 -0.19330072865E+03  0.40962646602E+03  0.00000000000E+00 0.  1.
         -2    1    3    3    0  502  0.41878658012E+02 -0.56612442729E+02 -0.67888247286E+02  0.97814133888E+02  0.00000000000E+00 0. -1.
         13    1    5    5    0    0 -0.27283209468E+03  0.57963776359E+03 -0.25039957947E+03  0.68783518249E+03  0.00000000000E+00 0. -1.
        -13    1    5    5    0    0 -0.20012424799E+01  0.59196388978E+02 -0.88082425721E+01  0.59881571261E+02  0.00000000000E+00 0.  1.
          4    1    6    6  503    0  0.10902744498E+03 -0.20047948413E+03 -0.12951672423E+03  0.26239967449E+03  0.00000000000E+00 0. -1.
         -4    1    6    6    0  503  0.62258543175E+02 -0.25897255919E+02 -0.64668752455E+02  0.93428269846E+02  0.00000000000E+00 0.  1.
<mgrwt>
<rscale>  0 0.14438303E+04</rscale>
<asrwt>0</asrwt>
<pdfrwt beam="1">  1        1 0.17888981E+00 0.14438303E+04</pdfrwt>
<pdfrwt beam="2">  1       -1 0.68954080E-01 0.14438303E+04</pdfrwt>
<totfact> 0.23535791E+01</totfact>
</mgrwt>
</event>
<event>
12    3  0.4192740E-008  0.1757648E+04  0.7818608E-02  0.8729152E-01
          2   -1    0    0  501    0  0.00000000000E+00  0.00000000000E+00  0.32859780652E+04  0.32859780652E+04  0.00000000000E+00 0. -1.
         -2   -1    0    0    0  501 -0.00000000000E+00 -0.00000000000E+00 -0.23503858423E+03  0.23503858423E+03  0.00000000000E+00 0.  1.
         23    2    1    2    0    0 -0.22774271696E+03 -0.55601989736E+03  0.75862171031E+03  0.97267478117E+03  0.97798053028E+02 0.  0.
        254    2    1    2    0    0  0.22774271696E+03  0.55601989736E+03  0.22923177707E+04  0.25483418683E+04  0.93717695472E+03 0.  0.
         23    2    4    4    0    0  0.15912187429E+02 -0.23250917260E+03  0.87483478201E+03  0.91007844355E+03  0.92699323413E+02 0.  0.
         23    2    4    4    0    0  0.21183052953E+03  0.78852906996E+03  0.14174829887E+04  0.16382634247E+04  0.89435776989E+02 0.  0.
          1    1    3    3  502    0 -0.20511790224E+03 -0.53336955506E+03  0.74216658448E+03  0.93667906734E+03  0.00000000000E+00 0. -1.
         -1    1    3    3    0  502 -0.22624814725E+02 -0.22650342306E+02  0.16455125836E+02  0.35995713831E+02  0.00000000000E+00 0.  1.
         13    1    5    5    0    0 -0.17815179116E+02 -0.11896223665E+02  0.34472106129E+02  0.40586042495E+02  0.00000000000E+00 0. -1.
        -13    1    5    5    0    0  0.33727366544E+02 -0.22061294893E+03  0.84036267588E+03  0.86949240106E+03  0.00000000000E+00 0.  1.
          1    1    6    6  503    0  0.11201369867E+03  0.35768279439E+03  0.73427797501E+03  0.82440778422E+03  0.00000000000E+00 0. -1.
         -1    1    6    6    0  503  0.99816830861E+02  0.43084627557E+03  0.68320501368E+03  0.81385564052E+03  0.00000000000E+00 0.  1.
<mgrwt>
<rscale>  0 0.17576480E+04</rscale>
<asrwt>0</asrwt>
<pdfrwt beam="1">  1        2 0.50553506E+00 0.17576480E+04</pdfrwt>
<pdfrwt beam="2">  1       -2 0.36159784E-01 0.17576480E+04</pdfrwt>
<totfact> 0.78096333E+00</totfact>
</mgrwt>
</event>
<event>
12    3  0.4192740E-008  0.2342558E+04  0.7818608E-02  0.8461328E-01
          2   -1    0    0  501    0  0.00000000000E+00  0.00000000000E+00  0.17269497288E+04  0.17269497288E+04  0.00000000000E+00 0. -1.
         -2   -1    0    0    0  501 -0.00000000000E+00 -0.00000000000E+00 -0.79440296884E+03  0.79440296884E+03  0.00000000000E+00 0.  1.
         23    2    1    2    0    0 -0.57923125530E+03 -0.28934642093E+03  0.12052466314E+04  0.13709891352E+04  0.88099761390E+02 0.  0.
        254    2    1    2    0    0  0.57923125530E+03  0.28934642093E+03 -0.27269987148E+03  0.11503635624E+04  0.91090115126E+03 0.  0.
         23    2    4    4    0    0  0.70617192787E+03  0.11885372783E+03  0.83379900958E+02  0.72566372876E+03  0.82647680056E+02 0.  0.
         23    2    4    4    0    0 -0.12694067257E+03  0.17049269310E+03 -0.35607977243E+03  0.42469983363E+03  0.91626696974E+02 0.  0.
          2    1    3    3  502    0 -0.57512431381E+03 -0.28905011361E+03  0.11688843311E+04  0.13343944409E+04  0.00000000000E+00 0. -1.
         -2    1    3    3    0  502 -0.41069414952E+01 -0.29630732043E+00  0.36362300290E+02  0.36594694272E+02  0.00000000000E+00 0.  1.
         13    1    5    5    0    0  0.80558487655E+02  0.21493721611E+02  0.35791002606E+02  0.90733928987E+02  0.00000000000E+00 0. -1.
        -13    1    5    5    0    0  0.62561344022E+03  0.97360006215E+02  0.47588898352E+02  0.63492979977E+03  0.00000000000E+00 0.  1.
          3    1    6    6  503    0 -0.53335757364E+02  0.79945132750E+02 -0.24671134813E+03  0.26476860947E+03  0.00000000000E+00 0. -1.
         -3    1    6    6    0  503 -0.73604915209E+02  0.90547560352E+02 -0.10936842431E+03  0.15993122417E+03  0.00000000000E+00 0.  1.
<mgrwt>
<rscale>  0 0.23425576E+04</rscale>
<asrwt>0</asrwt>
<pdfrwt beam="1">  1        2 0.26568457E+00 0.23425576E+04</pdfrwt>
<pdfrwt beam="2">  1       -2 0.12221584E+00 0.23425576E+04</pdfrwt>
<totfact> 0.43429009E+00</totfact>
</mgrwt>
</event>
<event>
12    3  0.4192740E-008  0.2200563E+04  0.7818608E-02  0.8518194E-01
          2   -1    0    0  501    0  0.00000000000E+00  0.00000000000E+00  0.14081622454E+04  0.14081622454E+04  0.00000000000E+00 0.  1.
         -2   -1    0    0    0  501 -0.00000000000E+00 -0.00000000000E+00 -0.85971586369E+03  0.85971586369E+03  0.00000000000E+00 0. -1.
         23    2    1    2    0    0  0.45396023163E+03 -0.23294303889E+03  0.10102991624E+04  0.11354763147E+04  0.90882959312E+02 0.  0.
        254    2    1    2    0    0 -0.45396023163E+03  0.23294303889E+03 -0.46185278075E+03  0.11324017944E+04  0.89926830346E+03 0.  0.
         23    2    4    4    0    0 -0.10698916063E+03  0.51059021086E+03 -0.42093686620E+03  0.67652812802E+03  0.91397039135E+02 0.  0.
         23    2    4    4    0    0 -0.34697107100E+03 -0.27764717197E+03 -0.40915914550E+02  0.45587366637E+03  0.93111822100E+02 0.  0.
          1    1    3    3  502    0  0.15141069210E+03 -0.73716647149E+02  0.24516270640E+03  0.29742914175E+03  0.00000000000E+00 0. -1.
         -1    1    3    3    0  502  0.30254953952E+03 -0.15922639174E+03  0.76513645603E+03  0.83804717292E+03  0.00000000000E+00 0.  1.
         13    1    5    5    0    0 -0.78889527319E+02  0.17265164610E+03 -0.16788772126E+03  0.25341356588E+03  0.00000000000E+00 0.  1.
        -13    1    5    5    0    0 -0.28099633311E+02  0.33793856476E+03 -0.25304914494E+03  0.42311456214E+03  0.00000000000E+00 0. -1.
          3    1    6    6  503    0 -0.34551718340E+03 -0.25046811727E+03 -0.40288350614E+02  0.42864851917E+03  0.00000000000E+00 0. -1.
         -3    1    6    6    0  503 -0.14538875998E+01 -0.27179054702E+02 -0.62756393582E+00  0.27225147202E+02  0.00000000000E+00 0.  1.
<mgrwt>
<rscale>  0 0.22005630E+04</rscale>
<asrwt>0</asrwt>
<pdfrwt beam="1">  1        2 0.21664034E+00 0.22005630E+04</pdfrwt>
<pdfrwt beam="2">  1       -2 0.13226398E+00 0.22005630E+04</pdfrwt>
<totfact> 0.54398378E+00</totfact>
</mgrwt>
</event>
<event>
12    3  0.4192740E-008  0.1313375E+04  0.7818608E-02  0.9019025E-01
          2   -1    0    0  501    0  0.00000000000E+00  0.00000000000E+00  0.26683043243E+04  0.26683043243E+04  0.00000000000E+00 0. -1.
         -2   -1    0    0    0  501 -0.00000000000E+00 -0.00000000000E+00 -0.16161520728E+03  0.16161520728E+03  0.00000000000E+00 0.  1.
         23    2    1    2    0    0 -0.73980263814E+02 -0.17573641576E+03  0.68114068761E+02  0.22405263676E+03  0.95935866160E+02 0.  0.
        254    2    1    2    0    0  0.73980263814E+02  0.17573641576E+03  0.24385750482E+04  0.26058668948E+04  0.89863098112E+03 0.  0.
         23    2    4    4    0    0  0.41389160936E+03 -0.13799706952E+03  0.12855429290E+04  0.13600866665E+04  0.82859292901E+02 0.  0.
         23    2    4    4    0    0 -0.33991134555E+03  0.31373348528E+03  0.11530321192E+04  0.12457802283E+04  0.92286980359E+02 0.  0.
          4    1    3    3  502    0 -0.45075559258E+02 -0.55411200402E+02  0.70388649212E+02  0.10028344385E+03  0.00000000000E+00 0. -1.
         -4    1    3    3    0  502 -0.28904704556E+02 -0.12032521536E+03 -0.22745804514E+01  0.12376919291E+03  0.00000000000E+00 0.  1.
         13    1    5    5    0    0  0.36738686328E+03 -0.92340474381E+02  0.10861781255E+04  0.11503402935E+04  0.00000000000E+00 0.  1.
        -13    1    5    5    0    0  0.46504746082E+02 -0.45656595143E+02  0.19936480357E+03  0.20974637301E+03  0.00000000000E+00 0. -1.
          4    1    6    6  503    0 -0.11509523954E+03  0.16830194412E+03  0.50603502618E+03  0.54556750845E+03  0.00000000000E+00 0. -1.
         -4    1    6    6    0  503 -0.22481610601E+03  0.14543154117E+03  0.64699709300E+03  0.70021271985E+03  0.00000000000E+00 0.  1.
<mgrwt>
<rscale>  0 0.13133751E+04</rscale>
<asrwt>0</asrwt>
<pdfrwt beam="1">  1        2 0.41050833E+00 0.13133751E+04</pdfrwt>
<pdfrwt beam="2">  1       -2 0.24863880E-01 0.13133751E+04</pdfrwt>
<totfact> 0.39606030E+01</totfact>
</mgrwt>
</event>
<event>
12    3  0.4192740E-008  0.1482782E+04  0.7818608E-02  0.8895984E-01
          4   -1    0    0  501    0  0.00000000000E+00  0.00000000000E+00  0.64786144232E+03  0.64786144232E+03  0.00000000000E+00 0. -1.
         -4   -1    0    0    0  501 -0.00000000000E+00 -0.00000000000E+00 -0.84842268657E+03  0.84842268657E+03  0.00000000000E+00 0.  1.
         23    2    1    2    0    0  0.29363071735E+02  0.29220050688E+03 -0.41809279986E+03  0.51906409623E+03  0.91556651854E+02 0.  0.
        254    2    1    2    0    0 -0.29363071735E+02 -0.29220050688E+03  0.21753155561E+03  0.97722003266E+03  0.90630882614E+03 0.  0.
         23    2    4    4    0    0  0.91097674090E+02 -0.59382986540E+03  0.20095404174E+03  0.63989615637E+03  0.90287700047E+02 0.  0.
         23    2    4    4    0    0 -0.12046074583E+03  0.30162935852E+03  0.16577513867E+02  0.33732387629E+03  0.89562951855E+02 0.  0.
          1    1    3    3  502    0  0.21000381524E+02  0.27731037854E+03 -0.34062219388E+03  0.43973348864E+03  0.00000000000E+00 0. -1.
         -1    1    3    3    0  502  0.83626902110E+01  0.14890128340E+02 -0.77470605977E+02  0.79330607586E+02  0.00000000000E+00 0.  1.
         13    1    5    5    0    0  0.38977625930E+02 -0.45351295990E+03  0.12495901344E+03  0.47202543911E+03  0.00000000000E+00 0. -1.
        -13    1    5    5    0    0  0.52120048160E+02 -0.14031690549E+03  0.75995028300E+02  0.16787071726E+03  0.00000000000E+00 0.  1.
          1    1    6    6  503    0 -0.10411810393E+03  0.29639251123E+03  0.10041251909E+01  0.31414981863E+03  0.00000000000E+00 0. -1.
         -1    1    6    6    0  503 -0.16342641896E+02  0.52368472920E+01  0.15573388676E+02  0.23174057662E+02  0.00000000000E+00 0.  1.
<mgrwt>
<rscale>  0 0.14827816E+04</rscale>
<asrwt>0</asrwt>
<pdfrwt beam="1">  1        4 0.99670992E-01 0.14827816E+04</pdfrwt>
<pdfrwt beam="2">  1       -4 0.13052657E+00 0.14827816E+04</pdfrwt>
<totfact> 0.68914385E-01</totfact>
</mgrwt>
</event>
<event>
12    3  0.4192740E-008  0.1409209E+04  0.7818608E-02  0.8947180E-01
         -2   -1    0    0    0  501 -0.00000000000E+00  0.00000000000E+00  0.52469007819E+03  0.52469007819E+03  0.00000000000E+00 0.  1.
          2   -1    0    0  501    0  0.00000000000E+00 -0.00000000000E+00 -0.94621055468E+03  0.94621055468E+03  0.00000000000E+00 0. -1.
         23    2    1    2    0    0 -0.19322238241E+03 -0.34159341669E+03 -0.24990104966E+03  0.47462642844E+03  0.93801708733E+02 0.  0.
        254    2    1    2    0    0  0.19322238241E+03  0.34159341669E+03 -0.17161942683E+03  0.99627420444E+03  0.89949325255E+03 0.  0.
         23    2    4    4    0    0  0.26697665028E+03  0.26327265505E+02  0.30312583498E+03  0.41529220153E+03  0.92804547938E+02 0.  0.
         23    2    4    4    0    0 -0.73754267872E+02  0.31526615118E+03 -0.47474526181E+03  0.58098200291E+03  0.85583795104E+02 0.  0.
          2    1    3    3  502    0 -0.19177619812E+03 -0.34303427765E+03 -0.25544091112E+03  0.46872239640E+03  0.00000000000E+00 0. -1.
         -2    1    3    3    0  502 -0.14461842856E+01  0.14408609623E+01  0.55398614622E+01  0.59040320393E+01  0.00000000000E+00 0.  1.
         13    1    5    5    0    0  0.25539531504E+03  0.52387660997E+00  0.26816912415E+03  0.37032650531E+03  0.00000000000E+00 0.  1.
        -13    1    5    5    0    0  0.11581335242E+02  0.25803388895E+02  0.34956710832E+02  0.44965696221E+02  0.00000000000E+00 0. -1.
          4    1    6    6  503    0  0.10783317286E+01  0.12003692055E+03 -0.22714138550E+03  0.25691094586E+03  0.00000000000E+00 0. -1.
         -4    1    6    6    0  503 -0.74832599601E+02  0.19522923063E+03 -0.24760387631E+03  0.32407105705E+03  0.00000000000E+00 0.  1.
<mgrwt>
<rscale>  0 0.14092087E+04</rscale>
<asrwt>0</asrwt>
<pdfrwt beam="1">  1        2 0.14557085E+00 0.14092087E+04</pdfrwt>
<pdfrwt beam="2">  1       -2 0.80721551E-01 0.14092087E+04</pdfrwt>
<totfact> 0.35989363E+01</totfact>
</mgrwt>
</event>
<event>
12    3  0.4192740E-008  0.1622494E+04  0.7818608E-02  0.8806847E-01
         -1   -1    0    0    0  501 -0.00000000000E+00  0.00000000000E+00  0.78958831032E+03  0.78958831032E+03  0.00000000000E+00 0.  1.
          1   -1    0    0  501    0  0.00000000000E+00 -0.00000000000E+00 -0.83349980838E+03  0.83349980838E+03  0.00000000000E+00 0. -1.
         23    2    1    2    0    0  0.20117097734E+03  0.16646901883E+03 -0.49315578450E+03  0.56608616920E+03  0.95232488211E+02 0.  0.
        254    2    1    2    0    0 -0.20117097734E+03 -0.16646901883E+03  0.44924428644E+03  0.10570019495E+04  0.92046238163E+03 0.  0.
         23    2    4    4    0    0 -0.21651348313E+03 -0.38738919706E+03 -0.94384264603E+02  0.46284830915E+03  0.91496937158E+02 0.  0.
         23    2    4    4    0    0  0.15342505786E+02  0.22092017823E+03  0.54362855104E+03  0.59415364035E+03  0.91899016315E+02 0.  0.
          4    1    3    3  502    0  0.20921735784E+03  0.15002139458E+03 -0.43901230837E+03  0.50893037692E+03  0.00000000000E+00 0. -1.
         -4    1    3    3    0  502 -0.80463804994E+01  0.16447624252E+02 -0.54143476136E+02  0.57155792276E+02  0.00000000000E+00 0.  1.
         13    1    5    5    0    0 -0.12902848887E+03 -0.31093195606E+03 -0.62839533471E+02  0.34245560181E+03  0.00000000000E+00 0.  1.
        -13    1    5    5    0    0 -0.87484994254E+02 -0.76457240993E+02 -0.31544731132E+02  0.12039270735E+03  0.00000000000E+00 0. -1.
          2    1    6    6  503    0  0.15710705101E+02  0.16526154905E+03  0.48799064925E+03  0.51545424589E+03  0.00000000000E+00 0. -1.
         -2    1    6    6    0  503 -0.36819931466E+00  0.55658629177E+02  0.55637901794E+02  0.78699394462E+02  0.00000000000E+00 0.  1.
<mgrwt>
<rscale>  0 0.16224940E+04</rscale>
<asrwt>0</asrwt>
<pdfrwt beam="1">  1        1 0.12823074E+00 0.16224940E+04</pdfrwt>
<pdfrwt beam="2">  1       -1 0.12147512E+00 0.16224940E+04</pdfrwt>
<totfact> 0.11904453E+01</totfact>
</mgrwt>
</event>
<event>
12    3  0.4192740E-008  0.1645211E+04  0.7818608E-02  0.8793245E-01
         -2   -1    0    0    0  501 -0.00000000000E+00  0.00000000000E+00  0.15428467848E+03  0.15428467848E+03  0.00000000000E+00 0.  1.
          2   -1    0    0  501    0  0.00000000000E+00 -0.00000000000E+00 -0.43859169766E+04  0.43859169766E+04  0.00000000000E+00 0. -1.
         23    2    1    2    0    0 -0.34696187791E+03  0.33787815963E+03 -0.63940053067E+03  0.80725178389E+03  0.90984660791E+02 0.  0.
        254    2    1    2    0    0  0.34696187791E+03 -0.33787815963E+03 -0.35922317675E+04  0.37329498712E+04  0.89232363761E+03 0.  0.
         23    2    4    4    0    0  0.58936600505E+03 -0.26856789875E+03 -0.31429135428E+04  0.32102041235E+04  0.89576630830E+02 0.  0.
         23    2    4    4    0    0 -0.24240412715E+03 -0.69310260882E+02 -0.44931822463E+03  0.52274574768E+03  0.88388781020E+02 0.  0.
          4    1    3    3  502    0 -0.16754979902E+03  0.18941566732E+03 -0.26470959577E+03  0.36609069951E+03  0.00000000000E+00 0. -1.
         -4    1    3    3    0  502 -0.17941207889E+03  0.14846249231E+03 -0.37469093490E+03  0.44116108438E+03  0.00000000000E+00 0.  1.
         13    1    5    5    0    0  0.23571077467E+03 -0.74522329184E+02 -0.13527998957E+04  0.13752020596E+04  0.00000000000E+00 0.  1.
        -13    1    5    5    0    0  0.35365523039E+03 -0.19404556956E+03 -0.17901136471E+04  0.18350020640E+04  0.00000000000E+00 0. -1.
          3    1    6    6  503    0 -0.11566913760E+03 -0.28376553490E+02 -0.12757724037E+03  0.17452945437E+03  0.00000000000E+00 0.  1.
         -3    1    6    6    0  503 -0.12673498955E+03 -0.40933707393E+02 -0.32174098426E+03  0.34821629332E+03  0.00000000000E+00 0. -1.
<mgrwt>
<rscale>  0 0.16452110E+04</rscale>
<asrwt>0</asrwt>
<pdfrwt beam="1">  1        2 0.67475632E+00 0.16452110E+04</pdfrwt>
<pdfrwt beam="2">  1       -2 0.23736109E-01 0.16452110E+04</pdfrwt>
<totfact> 0.24455618E+00</totfact>
</mgrwt>
</event>
<event>
12    3  0.4192740E-008  0.1227147E+04  0.7818608E-02  0.9089421E-01
          1   -1    0    0  501    0  0.00000000000E+00  0.00000000000E+00  0.26585030396E+03  0.26585030396E+03  0.00000000000E+00 0. -1.
         -1   -1    0    0    0  501 -0.00000000000E+00 -0.00000000000E+00 -0.14161064879E+04  0.14161064879E+04  0.00000000000E+00 0.  1.
         23    2    1    2    0    0  0.19150850101E+03 -0.17807752992E+03 -0.15743684994E+03  0.31829787611E+03  0.90222300968E+02 0.  0.
        254    2    1    2    0    0 -0.19150850101E+03  0.17807752992E+03 -0.99281933403E+03  0.13636589158E+04  0.89748999767E+03 0.  0.
         23    2    4    4    0    0  0.25239093252E+03  0.84765296535E+02 -0.15171453750E+02  0.28210759687E+03  0.92022741153E+02 0.  0.
         23    2    4    4    0    0 -0.44389943353E+03  0.93312233384E+02 -0.97764788028E+03  0.10815513189E+04  0.90575921846E+02 0.  0.
          1    1    3    3  502    0  0.18770560247E+02 -0.55539844419E+02 -0.81651523035E+01  0.59191874124E+02  0.00000000000E+00 0. -1.
         -1    1    3    3    0  502  0.17273794077E+03 -0.12253768550E+03 -0.14927169764E+03  0.25910600198E+03  0.00000000000E+00 0.  1.
         13    1    5    5    0    0  0.18671659965E+03  0.20311986905E+02  0.50817311276E+01  0.18788690584E+03  0.00000000000E+00 0. -1.
        -13    1    5    5    0    0  0.65674332873E+02  0.64453309630E+02 -0.20253184878E+02  0.94220691031E+02  0.00000000000E+00 0.  1.
          4    1    6    6  503    0 -0.42399848209E+03  0.10197432084E+03 -0.88783928328E+03  0.98915725133E+03  0.00000000000E+00 0. -1.
         -4    1    6    6    0  503 -0.19900951439E+02 -0.86620874590E+01 -0.89808597000E+02  0.92394067572E+02  0.00000000000E+00 0.  1.
<mgrwt>
<rscale>  0 0.12271468E+04</rscale>
<asrwt>0</asrwt>
<pdfrwt beam="1">  1        1 0.40900047E-01 0.12271468E+04</pdfrwt>
<pdfrwt beam="2">  1       -1 0.21786253E+00 0.12271468E+04</pdfrwt>
<totfact> 0.11541701E+01</totfact>
</mgrwt>
</event>
<event>
12    3  0.4192740E-008  0.1678680E+04  0.7818608E-02  0.8773618E-01
         -2   -1    0    0    0  501 -0.00000000000E+00  0.00000000000E+00  0.37979816459E+03  0.37979816459E+03  0.00000000000E+00 0.  1.
          2   -1    0    0  501    0  0.00000000000E+00 -0.00000000000E+00 -0.18549110802E+04  0.18549110802E+04  0.00000000000E+00 0. -1.
         23    2    1    2    0    0  0.33184902238E+03  0.18386532068E+03  0.80566706306E+02  0.39848928438E+03  0.91501288466E+02 0.  0.
        254    2    1    2    0    0 -0.33184902238E+03 -0.18386532068E+03 -0.15556796219E+04  0.18362199604E+04  0.89868483195E+03 0.  0.
         23    2    4    4    0    0 -0.51512656892E+03  0.90291182734E+02 -0.13122936742E+04  0.14159733748E+04  0.96736916973E+02 0.  0.
         23    2    4    4    0    0  0.18327754653E+03 -0.27415650342E+03 -0.24338594770E+03  0.42024658560E+03  0.92833322372E+02 0.  0.
          4    1    3    3  502    0  0.11902265667E+03  0.11754696399E+03  0.37908242973E+02  0.17152468169E+03  0.00000000000E+00 0. -1.
         -4    1    3    3    0  502  0.21282636572E+03  0.66318356693E+02  0.42658463333E+02  0.22696460269E+03  0.00000000000E+00 0.  1.
         13    1    5    5    0    0 -0.50130760525E+03  0.80045567493E+02 -0.12090159435E+04  0.13112727251E+04  0.00000000000E+00 0.  1.
        -13    1    5    5    0    0 -0.13818963668E+02  0.10245615241E+02 -0.10327773069E+03  0.10470064968E+03  0.00000000000E+00 0. -1.
          3    1    6    6  503    0  0.17044032540E+03 -0.28011655942E+03 -0.23772024909E+03  0.40500136816E+03  0.00000000000E+00 0.  1.
         -3    1    6    6    0  503  0.12837221138E+02  0.59600560045E+01 -0.56656986084E+01  0.15245217442E+02  0.00000000000E+00 0. -1.
<mgrwt>
<rscale>  0 0.16786802E+04</rscale>
<asrwt>0</asrwt>
<pdfrwt beam="1">  1        2 0.28537094E+00 0.16786802E+04</pdfrwt>
<pdfrwt beam="2">  1       -2 0.58430487E-01 0.16786802E+04</pdfrwt>
<totfact> 0.20999077E+01</totfact>
</mgrwt>
</event>
<event>
12    3  0.4192740E-008  0.1766269E+04  0.7818608E-02  0.8724446E-01
          2   -1    0    0  501    0  0.00000000000E+00  0.00000000000E+00  0.41301766624E+03  0.41301766624E+03  0.00000000000E+00 0. -1.
         -2   -1    0    0    0  501 -0.00000000000E+00 -0.00000000000E+00 -0.18883616888E+04  0.18883616888E+04  0.00000000000E+00 0.  1.
         23    2    1    2    0    0  0.49355535364E+03  0.74020775467E+02 -0.49997600797E+01  0.50829762598E+03  0.96257553802E+02 0.  0.
        254    2    1    2    0    0 -0.49355535364E+03 -0.74020775467E+02 -0.14703442625E+04  0.17930817291E+04  0.89674627104E+03 0.  0.
         23    2    4    4    0    0  0.17320365598E+02  0.24598679266E+03 -0.96729728704E+03  0.10022729605E+04  0.89875183102E+02 0.  0.
         23    2    4    4    0    0 -0.51087571924E+03 -0.32000756813E+03 -0.50304697547E+03  0.79080876863E+03  0.94463775299E+02 0.  0.
          1    1    3    3  502    0  0.40247658144E+03  0.57354564801E+02  0.33715627148E+02  0.40793833876E+03  0.00000000000E+00 0. -1.
         -1    1    3    3    0  502  0.91078772199E+02  0.16666210666E+02 -0.38715387228E+02  0.10035928722E+03  0.00000000000E+00 0.  1.
         13    1    5    5    0    0  0.88399276709E+01  0.19602549087E+03 -0.59448769071E+03  0.62603494455E+03  0.00000000000E+00 0. -1.
        -13    1    5    5    0    0  0.84804379271E+01  0.49961301791E+02 -0.37280959634E+03  0.37623801592E+03  0.00000000000E+00 0.  1.
          2    1    6    6  503    0 -0.29638320466E+02 -0.49524907669E+02 -0.39257499256E+02  0.69801846448E+02  0.00000000000E+00 0. -1.
         -2    1    6    6    0  503 -0.48123739877E+03 -0.27048266046E+03 -0.46378947621E+03  0.72100692218E+03  0.00000000000E+00 0.  1.
<mgrwt>
<rscale>  0 0.17662692E+04</rscale>
<asrwt>0</asrwt>
<pdfrwt beam="1">  1        2 0.63541177E-01 0.17662692E+04</pdfrwt>
<pdfrwt beam="2">  1       -2 0.29051719E+00 0.17662692E+04</pdfrwt>
<totfact> 0.26407853E+00</totfact>
</mgrwt>
</event>
<event>
12    3  0.4192740E-008  0.2249851E+04  0.7818608E-02  0.8497961E-01
         -2   -1    0    0    0  501 -0.00000000000E+00  0.00000000000E+00  0.42254579622E+03  0.42254579622E+03  0.00000000000E+00 0.  1.
          2   -1    0    0  501    0  0.00000000000E+00 -0.00000000000E+00 -0.29948413801E+04  0.29948413801E+04  0.00000000000E+00 0. -1.
         23    2    1    2    0    0 -0.75573763788E+03 -0.13540432755E+03 -0.25509269126E+03  0.81418102169E+03  0.91349579752E+02 0.  0.
        254    2    1    2    0    0  0.75573763788E+03  0.13540432755E+03 -0.23172028926E+04  0.26032061546E+04  0.90431152189E+03 0.  0.
         23    2    4    4    0    0  0.24935584678E+03 -0.32084251462E+03 -0.44887166592E+03  0.61241067013E+03  0.91884704473E+02 0.  0.
         23    2    4    4    0    0  0.50638179110E+03  0.45624684217E+03 -0.18683312267E+04  0.19907954844E+04  0.89562207597E+02 0.  0.
          4    1    3    3  502    0 -0.16971766575E+03 -0.27330369854E+02 -0.17997381605E+02  0.17284368930E+03  0.00000000000E+00 0. -1.
         -4    1    3    3    0  502 -0.58601997213E+03 -0.10807395770E+03 -0.23709530965E+03  0.64133733240E+03  0.00000000000E+00 0.  1.
         13    1    5    5    0    0  0.68303480781E+01 -0.57317329389E+02 -0.75555220447E+02  0.95081655644E+02  0.00000000000E+00 0.  1.
        -13    1    5    5    0    0  0.24252549871E+03 -0.26352518523E+03 -0.37331644547E+03  0.51732901449E+03  0.00000000000E+00 0. -1.
          2    1    6    6  503    0  0.49036763036E+03  0.41625534314E+03 -0.17200152177E+04  0.18363499864E+04  0.00000000000E+00 0. -1.
         -2    1    6    6    0  503  0.16014160743E+02  0.39991499026E+02 -0.14831600899E+03  0.15444549803E+03  0.00000000000E+00 0.  1.
<mgrwt>
<rscale>  0 0.22498512E+04</rscale>
<asrwt>0</asrwt>
<pdfrwt beam="1">  1        2 0.46074486E+00 0.22498512E+04</pdfrwt>
<pdfrwt beam="2">  1       -2 0.65007041E-01 0.22498512E+04</pdfrwt>
<totfact> 0.34888319E+00</totfact>
</mgrwt>
</event>
<event>
12    3  0.4192740E-008  0.3743559E+04  0.7818608E-02  0.8058377E-01
         -2   -1    0    0    0  501 -0.00000000000E+00  0.00000000000E+00  0.96686360363E+03  0.96686360363E+03  0.00000000000E+00 0.  1.
          2   -1    0    0  501    0  0.00000000000E+00 -0.00000000000E+00 -0.36236317157E+04  0.36236317157E+04  0.00000000000E+00 0. -1.
         23    2    1    2    0    0  0.96393614863E+03 -0.10253715160E+04 -0.25578045992E+04  0.29208147577E+04  0.90746002144E+02 0.  0.
        254    2    1    2    0    0 -0.96393614863E+03  0.10253715160E+04 -0.98963512893E+02  0.16696805616E+04  0.89301722071E+03 0.  0.
         23    2    4    4    0    0  0.19780239929E+02  0.13957312029E+03 -0.28387209614E+03  0.32985670020E+03  0.91379220287E+02 0.  0.
         23    2    4    4    0    0 -0.98371638856E+03  0.88579839571E+03  0.18490858325E+03  0.13398238614E+04  0.92736532682E+02 0.  0.
          3    1    3    3  502    0  0.92182239647E+03 -0.96580715003E+03 -0.23855436857E+04  0.27337444390E+04  0.00000000000E+00 0. -1.
         -3    1    3    3    0  502  0.42113752165E+02 -0.59564365978E+02 -0.17226091351E+03  0.18707031870E+03  0.00000000000E+00 0.  1.
         13    1    5    5    0    0  0.23448188464E+02  0.10440264856E+03 -0.11403255942E+03  0.15637504652E+03  0.00000000000E+00 0.  1.
        -13    1    5    5    0    0 -0.36679485350E+01  0.35170471735E+02 -0.16983953672E+03  0.17348165367E+03  0.00000000000E+00 0. -1.
          1    1    6    6  503    0 -0.21418524165E+03  0.23682350250E+03  0.21932751377E+02  0.32006520376E+03  0.00000000000E+00 0. -1.
         -1    1    6    6    0  503 -0.76953114691E+03  0.64897489322E+03  0.16297583187E+03  0.10197586577E+04  0.00000000000E+00 0.  1.
<mgrwt>
<rscale>  0 0.37435585E+04</rscale>
<asrwt>0</asrwt>
<pdfrwt beam="1">  1        2 0.55748179E+00 0.37435585E+04</pdfrwt>
<pdfrwt beam="2">  1       -2 0.14874825E+00 0.37435585E+04</pdfrwt>
<totfact> 0.16346956E-01</totfact>
</mgrwt>
</event>
<event>
12    3  0.4192740E-008  0.3204775E+04  0.7818608E-02  0.8187557E-01
         -1   -1    0    0    0  501 -0.00000000000E+00  0.00000000000E+00  0.12303350013E+04  0.12303350013E+04  0.00000000000E+00 0.  1.
          1   -1    0    0  501    0  0.00000000000E+00 -0.00000000000E+00 -0.20869480052E+04  0.20869480052E+04  0.00000000000E+00 0. -1.
         23    2    1    2    0    0 -0.11340675362E+04  0.67447041128E+03 -0.10752893080E+04  0.17045761483E+04  0.91176956020E+02 0.  0.
        254    2    1    2    0    0  0.11340675362E+04 -0.67447041128E+03  0.21867630417E+03  0.16127068582E+04  0.90110186561E+03 0.  0.
         23    2    4    4    0    0  0.10966147361E+04 -0.43655364854E+03  0.44952671275E+03  0.12662474599E+04  0.90362584740E+02 0.  0.
         23    2    4    4    0    0  0.37452800064E+02 -0.23791676274E+03 -0.23085040858E+03  0.34645939831E+03  0.93461785300E+02 0.  0.
          4    1    3    3  502    0 -0.54460458300E+03  0.28108795598E+03 -0.53316098361E+03  0.81232088811E+03  0.00000000000E+00 0. -1.
         -4    1    3    3    0  502 -0.58946295315E+03  0.39338245530E+03 -0.54212832439E+03  0.89225526022E+03  0.00000000000E+00 0.  1.
         13    1    5    5    0    0  0.15324831334E+03 -0.32756088440E+02  0.43014557027E+02  0.16250618138E+03  0.00000000000E+00 0.  1.
        -13    1    5    5    0    0  0.94336642275E+03 -0.40379756010E+03  0.40651215572E+03  0.11037412785E+04  0.00000000000E+00 0. -1.
          1    1    6    6  503    0  0.18354462878E+02 -0.40222900234E+02 -0.97995035287E+02  0.10750718558E+03  0.00000000000E+00 0. -1.
         -1    1    6    6    0  503  0.19098337186E+02 -0.19769386250E+03 -0.13285537329E+03  0.23895221273E+03  0.00000000000E+00 0.  1.
<mgrwt>
<rscale>  0 0.32047747E+04</rscale>
<asrwt>0</asrwt>
<pdfrwt beam="1">  1        1 0.32106892E+00 0.32047747E+04</pdfrwt>
<pdfrwt beam="2">  1       -1 0.18928231E+00 0.32047747E+04</pdfrwt>
<totfact> 0.38886747E-01</totfact>
</mgrwt>
</event>
<event>
12    3  0.4192740E-008  0.1580828E+04  0.7818608E-02  0.8832414E-01
          1   -1    0    0  501    0  0.00000000000E+00  0.00000000000E+00  0.21270378166E+03  0.21270378166E+03  0.00000000000E+00 0. -1.
         -1   -1    0    0    0  501 -0.00000000000E+00 -0.00000000000E+00 -0.29372018227E+04  0.29372018227E+04  0.00000000000E+00 0.  1.
         23    2    1    2    0    0  0.23324063810E+03 -0.43175811049E+03 -0.52878386186E+03  0.72707175120E+03  0.90579785792E+02 0.  0.
        254    2    1    2    0    0 -0.23324063810E+03  0.43175811049E+03 -0.21957141792E+04  0.24228338531E+04  0.89896988942E+03 0.  0.
         23    2    4    4    0    0  0.27721946791E+03  0.13795645939E+03 -0.13496925284E+04  0.13878133180E+04  0.92050346193E+02 0.  0.
         23    2    4    4    0    0 -0.51046010601E+03  0.29380165110E+03 -0.84602165070E+03  0.10350205351E+04  0.92875963653E+02 0.  0.
          1    1    3    3  502    0  0.20260699869E+03 -0.41416629167E+03 -0.46933929763E+03  0.65792301173E+03  0.00000000000E+00 0. -1.
         -1    1    3    3    0  502  0.30633639416E+02 -0.17591818826E+02 -0.59444564231E+02  0.69148739469E+02  0.00000000000E+00 0.  1.
         13    1    5    5    0    0  0.67356343313E+02  0.79296734940E+02 -0.38443428564E+03  0.39826444624E+03  0.00000000000E+00 0.  1.
        -13    1    5    5    0    0  0.20986312460E+03  0.58659724453E+02 -0.96525824280E+03  0.98954887178E+03  0.00000000000E+00 0. -1.
          2    1    6    6  503    0 -0.39031446826E+02  0.55141537608E+02 -0.85888286783E+02  0.10927415439E+03  0.00000000000E+00 0. -1.
         -2    1    6    6    0  503 -0.47142865918E+03  0.23866011349E+03 -0.76013336392E+03  0.92574638072E+03  0.00000000000E+00 0.  1.
<mgrwt>
<rscale>  0 0.15808275E+04</rscale>
<asrwt>0</asrwt>
<pdfrwt beam="1">  1        1 0.32723658E-01 0.15808275E+04</pdfrwt>
<pdfrwt beam="2">  1       -1 0.45187722E+00 0.15808275E+04</pdfrwt>
<totfact> 0.41634092E-01</totfact>
</mgrwt>
</event>
<event>
12    3  0.4192740E-008  0.1421819E+04  0.7818608E-02  0.8938174E-01
          1   -1    0    0  501    0  0.00000000000E+00  0.00000000000E+00  0.16580054210E+04  0.16580054210E+04  0.00000000000E+00 0. -1.
         -1   -1    0    0    0  501 -0.00000000000E+00 -0.00000000000E+00 -0.30481965351E+03  0.30481965351E+03  0.00000000000E+00 0.  1.
         23    2    1    2    0    0 -0.21792938626E+03 -0.28393345752E+03  0.73849655592E+03  0.82574856105E+03  0.91499165501E+02 0.  0.
        254    2    1    2    0    0  0.21792938626E+03  0.28393345752E+03  0.61468921158E+03  0.11370765135E+04  0.88712386111E+03 0.  0.
         23    2    4    4    0    0  0.44387205104E+03  0.20581346618E+03  0.29559452804E+02  0.49843616900E+03  0.90461443485E+02 0.  0.
         23    2    4    4    0    0 -0.22594266478E+03  0.78119991334E+02  0.58512975878E+03  0.63864034447E+03  0.91278881251E+02 0.  0.
          3    1    3    3  502    0 -0.23664447508E+02 -0.72174596722E+02  0.22277900079E+03  0.23537132723E+03  0.00000000000E+00 0. -1.
         -3    1    3    3    0  502 -0.19426493876E+03 -0.21175886079E+03  0.51571755512E+03  0.59037723382E+03  0.00000000000E+00 0.  1.
         13    1    5    5    0    0  0.16466614075E+03  0.99697856748E+02  0.50506479838E+02  0.19901131892E+03  0.00000000000E+00 0. -1.
        -13    1    5    5    0    0  0.27920591029E+03  0.10611560943E+03 -0.20947027035E+02  0.29942485008E+03  0.00000000000E+00 0.  1.
          1    1    6    6  503    0 -0.17682739029E+03  0.56519342888E+02  0.33673208097E+03  0.38451379225E+03  0.00000000000E+00 0. -1.
         -1    1    6    6    0  503 -0.49115274489E+02  0.21600648445E+02  0.24839767781E+03  0.25412655222E+03  0.00000000000E+00 0.  1.
<mgrwt>
<rscale>  0 0.14218195E+04</rscale>
<asrwt>0</asrwt>
<pdfrwt beam="1">  1        1 0.25507775E+00 0.14218195E+04</pdfrwt>
<pdfrwt beam="2">  1       -1 0.46895332E-01 0.14218195E+04</pdfrwt>
<totfact> 0.22465306E+01</totfact>
</mgrwt>
</event>
<event>
12    3  0.4192740E-008  0.2144195E+04  0.7818608E-02  0.8542021E-01
         -2   -1    0    0    0  501 -0.00000000000E+00  0.00000000000E+00  0.60040834884E+03  0.60040834884E+03  0.00000000000E+00 0. -1.
          2   -1    0    0  501    0  0.00000000000E+00 -0.00000000000E+00 -0.19143520177E+04  0.19143520177E+04  0.00000000000E+00 0.  1.
         23    2    1    2    0    0 -0.62321985678E+03 -0.62014110314E+03 -0.60662983331E+03  0.10722334881E+04  0.93310881681E+02 0.  0.
        254    2    1    2    0    0  0.62321985678E+03  0.62014110314E+03 -0.70731383556E+03  0.14425268785E+04  0.89867288566E+03 0.  0.
         23    2    4    4    0    0  0.32344415508E+03  0.74791136072E+03 -0.21830048986E+03  0.84804753243E+03  0.86844622427E+02 0.  0.
         23    2    4    4    0    0  0.29977570170E+03 -0.12777025758E+03 -0.48901334571E+03  0.59447934603E+03  0.89893996027E+02 0.  0.
          3    1    3    3  502    0 -0.44215487440E+02 -0.20429520228E+02 -0.18787948024E+02  0.52204996095E+02  0.00000000000E+00 0. -1.
         -3    1    3    3    0  502 -0.57900436934E+03 -0.59971158292E+03 -0.58784188529E+03  0.10200284920E+04  0.00000000000E+00 0.  1.
         13    1    5    5    0    0  0.23573823704E+03  0.62655462954E+03 -0.18724211153E+03  0.69512792242E+03  0.00000000000E+00 0. -1.
        -13    1    5    5    0    0  0.87705918035E+02  0.12135673118E+03 -0.31058378330E+02  0.15291961001E+03  0.00000000000E+00 0.  1.
          4    1    6    6  503    0  0.25086858108E+03 -0.77649211630E+02 -0.42507150176E+03  0.49965010422E+03  0.00000000000E+00 0. -1.
         -4    1    6    6    0  503  0.48907120621E+02 -0.50121045948E+02 -0.63941843953E+02  0.94829241811E+02  0.00000000000E+00 0.  1.
<mgrwt>
<rscale>  0 0.21441949E+04</rscale>
<asrwt>0</asrwt>
<pdfrwt beam="1">  1        2 0.29451569E+00 0.21441949E+04</pdfrwt>
<pdfrwt beam="2">  1       -2 0.92370516E-01 0.21441949E+04</pdfrwt>
<totfact> 0.68113763E+00</totfact>
</mgrwt>
</event>
<event>
12    3  0.4192740E-008  0.2022108E+04  0.7818608E-02  0.8596354E-01
          2   -1    0    0  501    0  0.00000000000E+00  0.00000000000E+00  0.12425480864E+04  0.12425480864E+04  0.00000000000E+00 0. -1.
         -2   -1    0    0    0  501 -0.00000000000E+00 -0.00000000000E+00 -0.82268883638E+03  0.82268883638E+03  0.00000000000E+00 0.  1.
         23    2    1    2    0    0  0.51018404685E+03 -0.28153079487E+03  0.75996877502E+03  0.96180023813E+03  0.89217761296E+02 0.  0.
        254    2    1    2    0    0 -0.51018404685E+03  0.28153079487E+03 -0.34010952497E+03  0.11034366847E+04  0.87312695412E+03 0.  0.
         23    2    4    4    0    0 -0.41658222795E+03 -0.11232099901E+03 -0.49326081037E+03  0.66156361912E+03  0.90572819507E+02 0.  0.
         23    2    4    4    0    0 -0.93601818905E+02  0.39385179389E+03  0.15315128540E+03  0.44187306557E+03  0.88971646098E+02 0.  0.
          1    1    3    3  502    0  0.46433641176E+03 -0.25542477020E+03  0.72675473012E+03  0.89945681067E+03  0.00000000000E+00 0. -1.
         -1    1    3    3    0  502  0.45847635095E+02 -0.26106024677E+02  0.33214044904E+02  0.62343427457E+02  0.00000000000E+00 0.  1.
         13    1    5    5    0    0 -0.41514749672E+03 -0.10625915705E+03 -0.49535436752E+03  0.65499190981E+03  0.00000000000E+00 0.  1.
        -13    1    5    5    0    0 -0.14347312258E+01 -0.60618419642E+01  0.20935571537E+01  0.65717093093E+01  0.00000000000E+00 0. -1.
          1    1    6    6  503    0 -0.18384588740E+02  0.16347471017E+03  0.21005428267E+02  0.16584089358E+03  0.00000000000E+00 0. -1.
         -1    1    6    6    0  503 -0.75217230166E+02  0.23037708372E+03  0.13214585713E+03  0.27603217199E+03  0.00000000000E+00 0.  1.
<mgrwt>
<rscale>  0 0.20221082E+04</rscale>
<asrwt>0</asrwt>
<pdfrwt beam="1">  1        2 0.19116124E+00 0.20221082E+04</pdfrwt>
<pdfrwt beam="2">  1       -2 0.12656751E+00 0.20221082E+04</pdfrwt>
<totfact> 0.77014198E+00</totfact>
</mgrwt>
</event>
<event>
12    3  0.4192740E-008  0.1526837E+04  0.7818608E-02  0.8866800E-01
         -1   -1    0    0    0  501 -0.00000000000E+00  0.00000000000E+00  0.11072678866E+04  0.11072678866E+04  0.00000000000E+00 0.  1.
          1   -1    0    0  501    0  0.00000000000E+00 -0.00000000000E+00 -0.52634778135E+03  0.52634778135E+03  0.00000000000E+00 0. -1.
         23    2    1    2    0    0 -0.51654580668E+02 -0.50066250219E+02 -0.32746731543E+03  0.34712725717E+03  0.89931445454E+02 0.  0.
        254    2    1    2    0    0  0.51654580668E+02  0.50066250219E+02  0.90838742070E+03  0.12864884108E+04  0.90813539736E+03 0.  0.
         23    2    4    4    0    0 -0.37169005031E+03  0.11233501201E+03  0.69418212987E+03  0.80003464513E+03  0.85988112892E+02 0.  0.
         23    2    4    4    0    0  0.42334463098E+03 -0.62268761789E+02  0.21420529083E+03  0.48645376568E+03  0.87494481248E+02 0.  0.
          2    1    3    3  502    0 -0.12343356474E+02 -0.15137989400E+02 -0.46811554768E+01  0.20085576634E+02  0.00000000000E+00 0.  1.
         -2    1    3    3    0  502 -0.39311224193E+02 -0.34928260819E+02 -0.32278615995E+03  0.32704168054E+03  0.00000000000E+00 0. -1.
         13    1    5    5    0    0 -0.22426099523E+03  0.10120659827E+03  0.37841692285E+03  0.45137028813E+03  0.00000000000E+00 0. -1.
        -13    1    5    5    0    0 -0.14742905508E+03  0.11128413743E+02  0.31576520702E+03  0.34866435700E+03  0.00000000000E+00 0.  1.
          1    1    6    6  503    0  0.38355857086E+03 -0.53395160630E+02  0.21983381764E+03  0.44530341098E+03  0.00000000000E+00 0. -1.
         -1    1    6    6    0  503  0.39786060121E+02 -0.88736011593E+01 -0.56285268046E+01  0.41150354694E+02  0.00000000000E+00 0.  1.
<mgrwt>
<rscale>  0 0.15268372E+04</rscale>
<asrwt>0</asrwt>
<pdfrwt beam="1">  1        1 0.80976582E-01 0.15268372E+04</pdfrwt>
<pdfrwt beam="2">  1       -1 0.17034890E+00 0.15268372E+04</pdfrwt>
<totfact> 0.97425066E+00</totfact>
</mgrwt>
</event>
<event>
12    3  0.4192740E-008  0.1579043E+04  0.7818608E-02  0.8833527E-01
         -1   -1    0    0    0  501 -0.00000000000E+00  0.00000000000E+00  0.29562784752E+03  0.29562784752E+03  0.00000000000E+00 0.  1.
          1   -1    0    0  501    0  0.00000000000E+00 -0.00000000000E+00 -0.21085424802E+04  0.21085424802E+04  0.00000000000E+00 0. -1.
         23    2    1    2    0    0  0.50664165740E+03 -0.67849627199E+02 -0.81999845408E+03  0.97061020621E+03  0.91637147404E+02 0.  0.
        254    2    1    2    0    0 -0.50664165740E+03  0.67849627199E+02 -0.99291617862E+03  0.14335601215E+04  0.89884522770E+03 0.  0.
         23    2    4    4    0    0 -0.25923978412E+03 -0.19244152803E+02 -0.11013979072E+04  0.11354022866E+04  0.92116227293E+02 0.  0.
         23    2    4    4    0    0 -0.24740187327E+03  0.87093780002E+02  0.10848172859E+03  0.29815783493E+03  0.91306054980E+02 0.  0.
          1    1    3    3  502    0  0.36951905672E+03 -0.64255616885E+02 -0.52426698704E+03  0.64461538244E+03  0.00000000000E+00 0. -1.
         -1    1    3    3    0  502  0.13712260068E+03 -0.35940103146E+01 -0.29573146703E+03  0.32599482376E+03  0.00000000000E+00 0.  1.
         13    1    5    5    0    0 -0.32243064094E+02  0.91872632278E+01 -0.30379956455E+03  0.30564390458E+03  0.00000000000E+00 0. -1.
        -13    1    5    5    0    0 -0.22699672003E+03 -0.28431416031E+02 -0.79759834266E+03  0.82975838202E+03  0.00000000000E+00 0.  1.
          3    1    6    6  503    0 -0.17835061293E+03  0.20891160048E+02  0.89478307051E+02  0.20062838566E+03  0.00000000000E+00 0. -1.
         -3    1    6    6    0  503 -0.69051260347E+02  0.66202619954E+02  0.19003421539E+02  0.97529449268E+02  0.00000000000E+00 0.  1.
<mgrwt>
<rscale>  0 0.15790426E+04</rscale>
<asrwt>0</asrwt>
<pdfrwt beam="1">  1        1 0.32439115E+00 0.15790426E+04</pdfrwt>
<pdfrwt beam="2">  1       -1 0.45481208E-01 0.15790426E+04</pdfrwt>
<totfact> 0.11611923E+01</totfact>
</mgrwt>
</event>
<event>
12    3  0.4192740E-008  0.1139070E+04  0.7818608E-02  0.9167927E-01
          2   -1    0    0  501    0  0.00000000000E+00  0.00000000000E+00  0.91764317601E+03  0.91764317601E+03  0.00000000000E+00 0. -1.
         -2   -1    0    0    0  501 -0.00000000000E+00 -0.00000000000E+00 -0.35348153371E+03  0.35348153371E+03  0.00000000000E+00 0.  1.
         23    2    1    2    0    0 -0.62764344391E+02  0.20043145057E+03  0.17418562264E+03  0.28689918356E+03  0.88647510359E+02 0.  0.
        254    2    1    2    0    0  0.62764344391E+02 -0.20043145057E+03  0.38997601966E+03  0.98422552616E+03  0.87892346716E+03 0.  0.
         23    2    4    4    0    0 -0.29782049700E+03 -0.37787955553E+03  0.23029140887E+03  0.54109215146E+03  0.90865705584E+02 0.  0.
         23    2    4    4    0    0  0.36058484139E+03  0.17744810496E+03  0.15968461079E+03  0.44313337470E+03  0.96740658733E+02 0.  0.
          4    1    3    3  502    0 -0.76648960104E+02  0.19843495283E+03  0.15533327990E+03  0.26340068609E+03  0.00000000000E+00 0. -1.
         -4    1    3    3    0  502  0.13884615713E+02  0.19964977366E+01  0.18852342735E+02  0.23498497469E+02  0.00000000000E+00 0.  1.
         13    1    5    5    0    0 -0.25592010698E+03 -0.36491381453E+03  0.21222543373E+03  0.49365658905E+03  0.00000000000E+00 0.  1.
        -13    1    5    5    0    0 -0.41900390017E+02 -0.12965741002E+02  0.18065975140E+02  0.47435562409E+02  0.00000000000E+00 0. -1.
          1    1    6    6  503    0  0.31780300680E+01  0.19932981081E+02  0.19764448575E+02  0.28249903316E+02  0.00000000000E+00 0. -1.
         -1    1    6    6    0  503  0.35740681132E+03  0.15751512388E+03  0.13992016221E+03  0.41488347138E+03  0.00000000000E+00 0.  1.
<mgrwt>
<rscale>  0 0.11390697E+04</rscale>
<asrwt>0</asrwt>
<pdfrwt beam="1">  1        2 0.14117587E+00 0.11390697E+04</pdfrwt>
<pdfrwt beam="2">  1       -2 0.54381775E-01 0.11390697E+04</pdfrwt>
<totfact> 0.89951049E+01</totfact>
</mgrwt>
</event>
<event>
12    3  0.4192740E-008  0.1523225E+04  0.7818608E-02  0.8869154E-01
         -2   -1    0    0    0  501 -0.00000000000E+00  0.00000000000E+00  0.95655253206E+03  0.95655253206E+03  0.00000000000E+00 0.  1.
          2   -1    0    0  501    0  0.00000000000E+00 -0.00000000000E+00 -0.60640003371E+03  0.60640003371E+03  0.00000000000E+00 0. -1.
         23    2    1    2    0    0  0.18534586498E+03 -0.44944003663E+03  0.92566783518E+02  0.50741099817E+03  0.11201729985E+03 0.  0.
        254    2    1    2    0    0 -0.18534586498E+03  0.44944003663E+03  0.25758571484E+03  0.10555415676E+04  0.90081527754E+03 0.  0.
         23    2    4    4    0    0 -0.25457753484E+03  0.69430576269E+03  0.24684394219E+03  0.78491454936E+03  0.91042323391E+02 0.  0.
         23    2    4    4    0    0  0.69231669856E+02 -0.24486572607E+03  0.10741772650E+02  0.27062701824E+03  0.91495078600E+02 0.  0.
          1    1    3    3  502    0  0.11696380368E+02 -0.39072499934E+02 -0.23334016061E+02  0.46988741953E+02  0.00000000000E+00 0. -1.
         -1    1    3    3    0  502  0.17364948462E+03 -0.41036753669E+03  0.11590079958E+03  0.46042225622E+03  0.00000000000E+00 0.  1.
         13    1    5    5    0    0 -0.16868455652E+03  0.55142433137E+03  0.21348929337E+03  0.61489913906E+03  0.00000000000E+00 0. -1.
        -13    1    5    5    0    0 -0.85892978317E+02  0.14288143132E+03  0.33354648821E+02  0.17001541030E+03  0.00000000000E+00 0.  1.
          4    1    6    6  503    0  0.75313873738E+02 -0.24698608406E+03  0.13041128120E+00  0.25821371440E+03  0.00000000000E+00 0. -1.
         -4    1    6    6    0  503 -0.60822038818E+01  0.21203579945E+01  0.10611361369E+02  0.12413303838E+02  0.00000000000E+00 0.  1.
<mgrwt>
<rscale>  0 0.15232249E+04</rscale>
<asrwt>0</asrwt>
<pdfrwt beam="1">  1        2 0.93292314E-01 0.15232249E+04</pdfrwt>
<pdfrwt beam="2">  1       -2 0.14716193E+00 0.15232249E+04</pdfrwt>
<totfact> 0.14872712E+01</totfact>
</mgrwt>
</event>
<event>
12    3  0.4192740E-008  0.1584718E+04  0.7818608E-02  0.8829991E-01
         -2   -1    0    0    0  501 -0.00000000000E+00  0.00000000000E+00  0.82216694528E+03  0.82216694528E+03  0.00000000000E+00 0.  1.
          2   -1    0    0  501    0  0.00000000000E+00 -0.00000000000E+00 -0.76363218430E+03  0.76363218430E+03  0.00000000000E+00 0. -1.
         23    2    1    2    0    0 -0.40698195406E+03  0.31337548856E+03 -0.84234845766E+02  0.52774792088E+03  0.87085308745E+02 0.  0.
        254    2    1    2    0    0  0.40698195406E+03 -0.31337548856E+03  0.14276960675E+03  0.10580512087E+04  0.91392050631E+03 0.  0.
         23    2    4    4    0    0 -0.12232230618E+03 -0.36069128925E+03  0.30337467982E+03  0.49631538057E+03  0.96082297555E+02 0.  0.
         23    2    4    4    0    0  0.52930426023E+03  0.47315800694E+02 -0.16060507307E+03  0.56173582813E+03  0.85740108516E+02 0.  0.
          3    1    3    3  502    0 -0.34496775488E+03  0.26796760173E+03 -0.10263939246E+03  0.44871397613E+03  0.00000000000E+00 0. -1.
         -3    1    3    3    0  502 -0.62014199173E+02  0.45407886825E+02  0.18404546690E+02  0.79033944757E+02  0.00000000000E+00 0.  1.
         13    1    5    5    0    0 -0.81351186282E+02 -0.30454620872E+03  0.20557833747E+03  0.37633610189E+03  0.00000000000E+00 0. -1.
        -13    1    5    5    0    0 -0.40971119894E+02 -0.56145080533E+02  0.97796342352E+02  0.11997927867E+03  0.00000000000E+00 0.  1.
          3    1    6    6  503    0  0.19538039464E+03  0.43367598087E+02 -0.94432504070E+02  0.22129560546E+03  0.00000000000E+00 0. -1.
         -3    1    6    6    0  503  0.33392386560E+03  0.39482026065E+01 -0.66172568997E+02  0.34044022266E+03  0.00000000000E+00 0.  1.
<mgrwt>
<rscale>  0 0.15847184E+04</rscale>
<asrwt>0</asrwt>
<pdfrwt beam="1">  1        2 0.11748187E+00 0.15847184E+04</pdfrwt>
<pdfrwt beam="2">  1       -2 0.12648722E+00 0.15847184E+04</pdfrwt>
<totfact> 0.16364290E+01</totfact>
</mgrwt>
</event>
<event>
12    3  0.4192740E-008  0.3068243E+04  0.7818608E-02  0.8224508E-01
          1   -1    0    0  501    0  0.00000000000E+00  0.00000000000E+00  0.13324503414E+04  0.13324503414E+04  0.00000000000E+00 0. -1.
         -1   -1    0    0    0  501 -0.00000000000E+00 -0.00000000000E+00 -0.17663159759E+04  0.17663159759E+04  0.00000000000E+00 0.  1.
         23    2    1    2    0    0  0.65481632221E+01  0.44143808525E+03  0.11336223512E+04  0.12200873176E+04  0.92752174517E+02 0.  0.
        254    2    1    2    0    0 -0.65481632221E+01 -0.44143808525E+03 -0.15674879857E+04  0.18786789996E+04  0.93675276167E+03 0.  0.
         23    2    4    4    0    0  0.14682240069E+03  0.17512742950E+03 -0.97210805766E+03  0.10031374870E+04  0.95206660127E+02 0.  0.
         23    2    4    4    0    0 -0.15337056391E+03 -0.61656551475E+03 -0.59537992809E+03  0.87554151260E+03  0.91761199072E+02 0.  0.
          3    1    3    3  502    0  0.35090486768E+02  0.36533752665E+03  0.97635915424E+03  0.10430628211E+04  0.00000000000E+00 0. -1.
         -3    1    3    3    0  502 -0.28542323546E+02  0.76100558597E+02  0.15726319700E+03  0.17702449656E+03  0.00000000000E+00 0.  1.
         13    1    5    5    0    0  0.74751471915E+02  0.11528465053E+03 -0.74335798399E+03  0.75594935384E+03  0.00000000000E+00 0. -1.
        -13    1    5    5    0    0  0.72070928778E+02  0.59842778970E+02 -0.22875007367E+03  0.24718813316E+03  0.00000000000E+00 0.  1.
          4    1    6    6  503    0 -0.53636839427E+02 -0.18553863123E+03 -0.12643866024E+03  0.23084243333E+03  0.00000000000E+00 0. -1.
         -4    1    6    6    0  503 -0.99733724488E+02 -0.43102688352E+03 -0.46894126784E+03  0.64469907927E+03  0.00000000000E+00 0.  1.
<mgrwt>
<rscale>  0 0.30682427E+04</rscale>
<asrwt>0</asrwt>
<pdfrwt beam="1">  1        1 0.20499236E+00 0.30682427E+04</pdfrwt>
<pdfrwt beam="2">  1       -1 0.27174092E+00 0.30682427E+04</pdfrwt>
<totfact> 0.36528025E-01</totfact>
</mgrwt>
</event>
<event>
12    3  0.4192740E-008  0.1514582E+04  0.7818608E-02  0.8874814E-01
         -2   -1    0    0    0  501 -0.00000000000E+00  0.00000000000E+00  0.30215561906E+03  0.30215561906E+03  0.00000000000E+00 0.  1.
          2   -1    0    0  501    0  0.00000000000E+00 -0.00000000000E+00 -0.18979939678E+04  0.18979939678E+04  0.00000000000E+00 0. -1.
         23    2    1    2    0    0 -0.11370628074E+03 -0.38588553737E+03 -0.91173162720E+03  0.10003539124E+04  0.87273270328E+02 0.  0.
        254    2    1    2    0    0  0.11370628074E+03  0.38588553737E+03 -0.68410672151E+03  0.11997956745E+04  0.89981714132E+03 0.  0.
         23    2    4    4    0    0  0.45261280139E+03  0.47750756962E+02 -0.49093527120E+03  0.67561642286E+03  0.91113267724E+02 0.  0.
         23    2    4    4    0    0 -0.33890652065E+03  0.33813478041E+03 -0.19317145031E+03  0.52417925160E+03  0.90862088527E+02 0.  0.
          2    1    3    3  502    0 -0.84994332535E+02 -0.18546082857E+03 -0.37854743883E+03  0.43002083548E+03  0.00000000000E+00 0. -1.
         -2    1    3    3    0  502 -0.28711948203E+02 -0.20042470880E+03 -0.53318418836E+03  0.57033307689E+03  0.00000000000E+00 0.  1.
         13    1    5    5    0    0  0.33001068321E+03  0.53778665570E+01 -0.39219189099E+03  0.51259189599E+03  0.00000000000E+00 0. -1.
        -13    1    5    5    0    0  0.12260211818E+03  0.42372890405E+02 -0.98743380208E+02  0.16302452686E+03  0.00000000000E+00 0.  1.
          2    1    6    6  503    0 -0.25388100723E+03  0.21868812280E+03 -0.17000733800E+03  0.37574267240E+03  0.00000000000E+00 0. -1.
         -2    1    6    6    0  503 -0.85025513419E+02  0.11944665761E+03 -0.23164112309E+02  0.14843657920E+03  0.00000000000E+00 0.  1.
<mgrwt>
<rscale>  0 0.15145818E+04</rscale>
<asrwt>0</asrwt>
<pdfrwt beam="1">  1        2 0.29199908E+00 0.15145818E+04</pdfrwt>
<pdfrwt beam="2">  1       -2 0.46485479E-01 0.15145818E+04</pdfrwt>
<totfact> 0.32240223E+01</totfact>
</mgrwt>
</event>
<event>
12    3  0.4192740E-008  0.4970376E+04  0.7818608E-02  0.7833093E-01
          2   -1    0    0  501    0  0.00000000000E+00  0.00000000000E+00  0.32402014673E+04  0.32402014673E+04  0.00000000000E+00 0. -1.
         -2   -1    0    0    0  501 -0.00000000000E+00 -0.00000000000E+00 -0.19061037088E+04  0.19061037088E+04  0.00000000000E+00 0.  1.
         23    2    1    2    0    0 -0.23668083807E+03  0.18669659035E+04  0.21892052583E+04  0.28884599749E+04  0.94878129466E+02 0.  0.
        254    2    1    2    0    0  0.23668083807E+03 -0.18669659035E+04 -0.85510749982E+03  0.22578452012E+04  0.90833727900E+03 0.  0.
         23    2    4    4    0    0  0.47364565746E+03 -0.51703949832E+03 -0.19416090659E+03  0.73350025948E+03  0.93027530072E+02 0.  0.
         23    2    4    4    0    0 -0.23696481939E+03 -0.13499264052E+04 -0.66094659323E+03  0.15243449418E+04  0.91233092805E+02 0.  0.
          3    1    3    3  502    0 -0.22541586035E+03  0.14745392460E+04  0.17407629190E+04  0.22924514909E+04  0.00000000000E+00 0. -1.
         -3    1    3    3    0  502 -0.11264977719E+02  0.39242665758E+03  0.44844233935E+03  0.59600848402E+03  0.00000000000E+00 0.  1.
         13    1    5    5    0    0  0.11907417048E+03 -0.11395912944E+03 -0.69836092420E+01  0.16496700294E+03  0.00000000000E+00 0. -1.
        -13    1    5    5    0    0  0.35457148698E+03 -0.40308036887E+03 -0.18717729735E+03  0.56853325654E+03  0.00000000000E+00 0.  1.
          1    1    6    6  503    0 -0.58203477268E+02 -0.56124729505E+03 -0.29491627303E+03  0.63668028010E+03  0.00000000000E+00 0. -1.
         -1    1    6    6    0  503 -0.17876134212E+03 -0.78867911018E+03 -0.36603032021E+03  0.88766466167E+03  0.00000000000E+00 0.  1.
<mgrwt>
<rscale>  0 0.49703763E+04</rscale>
<asrwt>0</asrwt>
<pdfrwt beam="1">  1        2 0.49849253E+00 0.49703763E+04</pdfrwt>
<pdfrwt beam="2">  1       -2 0.29324672E+00 0.49703763E+04</pdfrwt>
<totfact> 0.31096017E-02</totfact>
</mgrwt>
</event>
<event>
12    3  0.4192740E-008  0.1799838E+04  0.7818608E-02  0.8706386E-01
         -1   -1    0    0    0  501 -0.00000000000E+00  0.00000000000E+00  0.22374110160E+04  0.22374110160E+04  0.00000000000E+00 0.  1.
          1   -1    0    0  501    0  0.00000000000E+00 -0.00000000000E+00 -0.36196045143E+03  0.36196045143E+03  0.00000000000E+00 0. -1.
         23    2    1    2    0    0  0.58865341019E+03 -0.14876568615E+03  0.11137665786E+04  0.12717103999E+04  0.90151443904E+02 0.  0.
        254    2    1    2    0    0 -0.58865341019E+03  0.14876568615E+03  0.76168398595E+03  0.13276610675E+04  0.90215151118E+03 0.  0.
         23    2    4    4    0    0 -0.13972673216E+03 -0.33924556337E+03  0.45241960921E+03  0.58974561857E+03  0.92224074303E+02 0.  0.
         23    2    4    4    0    0 -0.44892667803E+03  0.48801124951E+03  0.30926437674E+03  0.73791544898E+03  0.95836387761E+02 0.  0.
          4    1    3    3  502    0  0.30731111309E+03 -0.74302549948E+02  0.48637704579E+03  0.58010655903E+03  0.00000000000E+00 0. -1.
         -4    1    3    3    0  502  0.28134229711E+03 -0.74463136199E+02  0.62738953286E+03  0.69160384089E+03  0.00000000000E+00 0.  1.
         13    1    5    5    0    0 -0.22546152591E+02 -0.10005889221E+03  0.71849768276E+02  0.12522978922E+03  0.00000000000E+00 0. -1.
        -13    1    5    5    0    0 -0.11718057957E+03 -0.23918667115E+03  0.38056984093E+03  0.46451582934E+03  0.00000000000E+00 0.  1.
          2    1    6    6  503    0 -0.13881352933E+03  0.18868634385E+03  0.15136985138E+03  0.27889884222E+03  0.00000000000E+00 0. -1.
         -2    1    6    6    0  503 -0.31011314870E+03  0.29932490566E+03  0.15789452536E+03  0.45901660676E+03  0.00000000000E+00 0.  1.
<mgrwt>
<rscale>  0 0.17998381E+04</rscale>
<asrwt>0</asrwt>
<pdfrwt beam="1">  1        1 0.55686225E-01 0.17998381E+04</pdfrwt>
<pdfrwt beam="2">  1       -1 0.34421707E+00 0.17998381E+04</pdfrwt>
<totfact> 0.10996755E+00</totfact>
</mgrwt>
</event>
<event>
12    3  0.4192740E-008  0.2324383E+04  0.7818608E-02  0.8468369E-01
         -2   -1    0    0    0  501 -0.00000000000E+00  0.00000000000E+00  0.46630337830E+03  0.46630337830E+03  0.00000000000E+00 0.  1.
          2   -1    0    0  501    0  0.00000000000E+00 -0.00000000000E+00 -0.28965884480E+04  0.28965884480E+04  0.00000000000E+00 0. -1.
         23    2    1    2    0    0 -0.88858369934E+03 -0.43399578528E+03 -0.98556659635E+03  0.13991194880E+04  0.90887257255E+02 0.  0.
        254    2    1    2    0    0  0.88858369934E+03  0.43399578528E+03 -0.14447184734E+04  0.19637723383E+04  0.88952627676E+03 0.  0.
         23    2    4    4    0    0  0.22175255713E+03  0.23085879302E+03 -0.11572807147E+04  0.12041409390E+04  0.90480767851E+02 0.  0.
         23    2    4    4    0    0  0.66683114221E+03  0.20313699226E+03 -0.28743775866E+03  0.75963139934E+03  0.92146556740E+02 0.  0.
          3    1    3    3  502    0 -0.15643940573E+03 -0.11256223589E+03 -0.17035715001E+03  0.25722578248E+03  0.00000000000E+00 0. -1.
         -3    1    3    3    0  502 -0.73214429360E+03 -0.32143354940E+03 -0.81520944634E+03  0.11418937055E+04  0.00000000000E+00 0.  1.
         13    1    5    5    0    0  0.22341526713E+03  0.22847356682E+03 -0.11578850498E+04  0.12011712371E+04  0.00000000000E+00 0. -1.
        -13    1    5    5    0    0 -0.16627100022E+01  0.23852261960E+01  0.60433503664E+00  0.29697019032E+01  0.00000000000E+00 0.  1.
          3    1    6    6  503    0  0.12584660566E+02 -0.67778029128E+01 -0.14347925231E+02  0.20252783816E+02  0.00000000000E+00 0.  1.
         -3    1    6    6    0  503  0.65424648164E+03  0.20991479518E+03 -0.27308983343E+03  0.73937861553E+03  0.00000000000E+00 0. -1.
<mgrwt>
<rscale>  0 0.23243829E+04</rscale>
<asrwt>0</asrwt>
<pdfrwt beam="1">  1        2 0.44562900E+00 0.23243829E+04</pdfrwt>
<pdfrwt beam="2">  1       -2 0.71738980E-01 0.23243829E+04</pdfrwt>
<totfact> 0.32192891E+00</totfact>
</mgrwt>
</event>
<event>
12    3  0.4192740E-008  0.1526884E+04  0.7818608E-02  0.8866769E-01
         -1   -1    0    0    0  501 -0.00000000000E+00  0.00000000000E+00  0.99773303755E+03  0.99773303755E+03  0.00000000000E+00 0.  1.
          1   -1    0    0  501    0  0.00000000000E+00 -0.00000000000E+00 -0.58416818412E+03  0.58416818412E+03  0.00000000000E+00 0. -1.
         23    2    1    2    0    0  0.16907566464E+03  0.11328558395E+03 -0.32705068389E+03  0.39579525838E+03  0.90947967654E+02 0.  0.
        254    2    1    2    0    0 -0.16907566464E+03 -0.11328558395E+03  0.74061553732E+03  0.11861059633E+04  0.90383393283E+03 0.  0.
         23    2    4    4    0    0 -0.42038546692E+03  0.13564662857E+03  0.67810995839E+03  0.81467457676E+03  0.93475139514E+02 0.  0.
         23    2    4    4    0    0  0.25130980228E+03 -0.24893221253E+03  0.62505578923E+02  0.37143138653E+03  0.94501134130E+02 0.  0.
          3    1    3    3  502    0  0.15625773472E+03  0.12806615548E+03 -0.28424008234E+03  0.34872603035E+03  0.00000000000E+00 0. -1.
         -3    1    3    3    0  502  0.12817929917E+02 -0.14780571524E+02 -0.42810601549E+02  0.47069228026E+02  0.00000000000E+00 0.  1.
         13    1    5    5    0    0 -0.11660201056E+03 -0.45972348575E+01  0.18675132666E+03  0.22021176500E+03  0.00000000000E+00 0. -1.
        -13    1    5    5    0    0 -0.30378345636E+03  0.14024386343E+03  0.49135863173E+03  0.59446281176E+03  0.00000000000E+00 0.  1.
          3    1    6    6  503    0  0.27818659093E+02 -0.49546663638E+02  0.43063399100E+02  0.71296605904E+02  0.00000000000E+00 0. -1.
         -3    1    6    6    0  503  0.22349114319E+03 -0.19938554889E+03  0.19442179823E+02  0.30013478063E+03  0.00000000000E+00 0.  1.
<mgrwt>
<rscale>  0 0.15268843E+04</rscale>
<asrwt>0</asrwt>
<pdfrwt beam="1">  1        1 0.89872029E-01 0.15268843E+04</pdfrwt>
<pdfrwt beam="2">  1       -1 0.15349739E+00 0.15268843E+04</pdfrwt>
<totfact> 0.11261261E+01</totfact>
</mgrwt>
</event>
<event>
12    3  0.4192740E-008  0.1319408E+04  0.7818608E-02  0.9014314E-01
         -2   -1    0    0    0  501 -0.00000000000E+00  0.00000000000E+00  0.30676650137E+03  0.30676650137E+03  0.00000000000E+00 0.  1.
          2   -1    0    0  501    0  0.00000000000E+00 -0.00000000000E+00 -0.14186999852E+04  0.14186999852E+04  0.00000000000E+00 0. -1.
         23    2    1    2    0    0 -0.20975070027E+03 -0.17703401960E+03 -0.24471671290E+02  0.28995018281E+03  0.90198921590E+02 0.  0.
        254    2    1    2    0    0  0.20975070027E+03  0.17703401960E+03 -0.10874618125E+04  0.14355163037E+04  0.89598965634E+03 0.  0.
         23    2    4    4    0    0  0.13314664195E+03 -0.34318628871E+03 -0.61184222031E+03  0.72074893069E+03  0.98098223750E+02 0.  0.
         23    2    4    4    0    0  0.76604058322E+02  0.52022030831E+03 -0.47561959220E+03  0.71476737305E+03  0.90449157924E+02 0.  0.
          4    1    3    3  502    0 -0.17065233536E+03 -0.91145105380E+02 -0.28174251423E+02  0.19550815390E+03  0.00000000000E+00 0. -1.
         -4    1    3    3    0  502 -0.39098364907E+02 -0.85888914218E+02  0.37025801333E+01  0.94442028905E+02  0.00000000000E+00 0.  1.
         13    1    5    5    0    0  0.54197557256E+02 -0.18558035463E+03 -0.23198700496E+03  0.30198578395E+03  0.00000000000E+00 0. -1.
        -13    1    5    5    0    0  0.78949084693E+02 -0.15760593408E+03 -0.37985521536E+03  0.41876314674E+03  0.00000000000E+00 0.  1.
          4    1    6    6  503    0  0.49651170302E+01  0.17145654003E+03 -0.20655023955E+03  0.26848649680E+03  0.00000000000E+00 0. -1.
         -4    1    6    6    0  503  0.71638941292E+02  0.34876376828E+03 -0.26906935265E+03  0.44628087625E+03  0.00000000000E+00 0.  1.
<mgrwt>
<rscale>  0 0.13194084E+04</rscale>
<asrwt>0</asrwt>
<pdfrwt beam="1">  1        2 0.21826154E+00 0.13194084E+04</pdfrwt>
<pdfrwt beam="2">  1       -2 0.47194846E-01 0.13194084E+04</pdfrwt>
<totfact> 0.58789643E+01</totfact>
</mgrwt>
</event>
<event>
12    3  0.4192740E-008  0.1476509E+04  0.7818608E-02  0.8900226E-01
          1   -1    0    0  501    0  0.00000000000E+00  0.00000000000E+00  0.95863802410E+03  0.95863802410E+03  0.00000000000E+00 0. -1.
         -1   -1    0    0    0  501 -0.00000000000E+00 -0.00000000000E+00 -0.56853578364E+03  0.56853578364E+03  0.00000000000E+00 0.  1.
         23    2    1    2    0    0 -0.19164120347E+03 -0.39815239368E+03  0.39106847494E+01  0.45061056094E+03  0.88220772596E+02 0.  0.
        254    2    1    2    0    0  0.19164120347E+03  0.39815239368E+03  0.38619155571E+03  0.10765632468E+04  0.90254796392E+03 0.  0.
         23    2    4    4    0    0  0.29826484290E+03  0.34119025143E+03  0.63403251298E+03  0.78452024507E+03  0.90011572701E+02 0.  0.
         23    2    4    4    0    0 -0.10662363943E+03  0.56962142244E+02 -0.24784095727E+03  0.29204300172E+03  0.96180500201E+02 0.  0.
          4    1    3    3  502    0 -0.26017177033E+02 -0.13062014348E+02  0.11613632557E+02  0.31343040388E+02  0.00000000000E+00 0. -1.
         -4    1    3    3    0  502 -0.16562402644E+03 -0.38509037933E+03 -0.77029478076E+01  0.41926752055E+03  0.00000000000E+00 0.  1.
         13    1    5    5    0    0  0.80653552834E+02  0.14224834814E+03  0.27492014197E+03  0.31987602692E+03  0.00000000000E+00 0. -1.
        -13    1    5    5    0    0  0.21761129007E+03  0.19894190330E+03  0.35911237101E+03  0.46464421815E+03  0.00000000000E+00 0.  1.
          3    1    6    6  503    0 -0.27304027023E+02 -0.12875027446E+02 -0.13127503190E+03  0.13470118865E+03  0.00000000000E+00 0. -1.
         -3    1    6    6    0  503 -0.79319612410E+02  0.69837169690E+02 -0.11656592537E+03  0.15734181307E+03  0.00000000000E+00 0.  1.
<mgrwt>
<rscale>  0 0.14765094E+04</rscale>
<asrwt>0</asrwt>
<pdfrwt beam="1">  1        1 0.14748277E+00 0.14765094E+04</pdfrwt>
<pdfrwt beam="2">  1       -1 0.87467044E-01 0.14765094E+04</pdfrwt>
<totfact> 0.20342299E+01</totfact>
</mgrwt>
</event>
<event>
12    3  0.4192740E-008  0.1401088E+04  0.7818608E-02  0.8953031E-01
          1   -1    0    0  501    0  0.00000000000E+00  0.00000000000E+00  0.63654559742E+03  0.63654559742E+03  0.00000000000E+00 0. -1.
         -1   -1    0    0    0  501 -0.00000000000E+00 -0.00000000000E+00 -0.77097721266E+03  0.77097721266E+03  0.00000000000E+00 0.  1.
         23    2    1    2    0    0  0.32309782165E+03 -0.85962892725E+02  0.18923676490E+03  0.39437033444E+03  0.89081907356E+02 0.  0.
        254    2    1    2    0    0 -0.32309782165E+03  0.85962892725E+02 -0.32366838014E+03  0.10131524756E+04  0.89996383112E+03 0.  0.
         23    2    4    4    0    0  0.21609489646E+01  0.41212007074E+03  0.32848598600E+02  0.42359839958E+03  0.92243977000E+02 0.  0.
         23    2    4    4    0    0 -0.32525877061E+03 -0.32615717801E+03 -0.35651697874E+03  0.58955407606E+03  0.91092699167E+02 0.  0.
          2    1    3    3  502    0  0.31247853345E+03 -0.84387532254E+02  0.19892065129E+03  0.37991250964E+03  0.00000000000E+00 0. -1.
         -2    1    3    3    0  502  0.10619288194E+02 -0.15753604711E+01 -0.96838863922E+01  0.14457824802E+02  0.00000000000E+00 0.  1.
         13    1    5    5    0    0 -0.24542253750E+02  0.29937331025E+03  0.55706327642E+02  0.30549942071E+03  0.00000000000E+00 0.  1.
        -13    1    5    5    0    0  0.26703202714E+02  0.11274676048E+03 -0.22857729042E+02  0.11809897888E+03  0.00000000000E+00 0. -1.
          1    1    6    6  503    0 -0.25978382177E+03 -0.20416406126E+03 -0.23656566584E+03  0.40636672135E+03  0.00000000000E+00 0. -1.
         -1    1    6    6    0  503 -0.65474948842E+02 -0.12199311675E+03 -0.11995131290E+03  0.18318735471E+03  0.00000000000E+00 0.  1.
<mgrwt>
<rscale>  0 0.14010884E+04</rscale>
<asrwt>0</asrwt>
<pdfrwt beam="1">  1        1 0.97930092E-01 0.14010884E+04</pdfrwt>
<pdfrwt beam="2">  1       -1 0.11861188E+00 0.14010884E+04</pdfrwt>
<totfact> 0.19516164E+01</totfact>
</mgrwt>
</event>
<event>
12    3  0.4192740E-008  0.1431621E+04  0.7818608E-02  0.8931242E-01
          1   -1    0    0  501    0  0.00000000000E+00  0.00000000000E+00  0.10558512652E+04  0.10558512652E+04  0.00000000000E+00 0. -1.
         -1   -1    0    0    0  501 -0.00000000000E+00 -0.00000000000E+00 -0.48528139282E+03  0.48528139282E+03  0.00000000000E+00 0.  1.
         23    2    1    2    0    0  0.31996885831E+02 -0.14477406984E+03 -0.25547993415E+03  0.30907870878E+03  0.90974279144E+02 0.  0.
        254    2    1    2    0    0 -0.31996885831E+02  0.14477406984E+03  0.82604980655E+03  0.12320539493E+04  0.90200627436E+03 0.  0.
         23    2    4    4    0    0  0.23225726264E+03  0.13442317643E+02 -0.89806155912E+02  0.26540068278E+03  0.90819848204E+02 0.  0.
         23    2    4    4    0    0 -0.26425414848E+03  0.13133175220E+03  0.91585596247E+03  0.96665326648E+03  0.92455986788E+02 0.  0.
          4    1    3    3  502    0  0.11503422467E+02 -0.24593403470E+02 -0.13103631157E+01  0.27182370651E+02  0.00000000000E+00 0. -1.
         -4    1    3    3    0  502  0.20493463364E+02 -0.12018066637E+03 -0.25416957104E+03  0.28189633813E+03  0.00000000000E+00 0.  1.
         13    1    5    5    0    0  0.16108858575E+03  0.68755960880E+01 -0.10489640101E+03  0.19235399976E+03  0.00000000000E+00 0. -1.
        -13    1    5    5    0    0  0.71168676895E+02  0.65667215550E+01  0.15090245100E+02  0.73046683019E+02  0.00000000000E+00 0.  1.
          4    1    6    6  503    0 -0.26445751691E+03  0.10976820536E+03  0.82511623840E+03  0.87338630859E+03  0.00000000000E+00 0. -1.
         -4    1    6    6    0  503  0.20336843606E+00  0.21563546839E+02  0.90739724070E+02  0.93266957897E+02  0.00000000000E+00 0.  1.
<mgrwt>
<rscale>  0 0.14316214E+04</rscale>
<asrwt>0</asrwt>
<pdfrwt beam="1">  1        1 0.16243866E+00 0.14316214E+04</pdfrwt>
<pdfrwt beam="2">  1       -1 0.74658676E-01 0.14316214E+04</pdfrwt>
<totfact> 0.24051616E+01</totfact>
</mgrwt>
</event>
<event>
12    3  0.4192740E-008  0.1553898E+04  0.7818608E-02  0.8849382E-01
          2   -1    0    0  501    0  0.00000000000E+00  0.00000000000E+00  0.21610803471E+04  0.21610803471E+04  0.00000000000E+00 0. -1.
         -2   -1    0    0    0  501 -0.00000000000E+00 -0.00000000000E+00 -0.27932787089E+03  0.27932787089E+03  0.00000000000E+00 0.  1.
         23    2    1    2    0    0  0.15843780481E+03 -0.15109106619E+03 -0.10900015093E+03  0.25751685747E+03  0.80640254860E+02 0.  0.
        254    2    1    2    0    0 -0.15843780481E+03  0.15109106619E+03  0.19907526271E+04  0.21828913605E+04  0.86832460584E+03 0.  0.
         23    2    4    4    0    0 -0.20038189982E+03 -0.21276879691E+03  0.16376022326E+04  0.16658876191E+04  0.89537816024E+02 0.  0.
         23    2    4    4    0    0  0.41944095010E+02  0.36385986311E+03  0.35315039450E+03  0.51700374140E+03  0.91784314572E+02 0.  0.
          1    1    3    3  502    0  0.28861757668E+01  0.64122409244E+01  0.48948188833E+01  0.85677357645E+01  0.00000000000E+00 0. -1.
         -1    1    3    3    0  502  0.15555162904E+03 -0.15750330712E+03 -0.11389496981E+03  0.24894912171E+03  0.00000000000E+00 0.  1.
         13    1    5    5    0    0 -0.17818502196E+03 -0.14739966147E+03  0.11135860075E+04  0.11373435533E+04  0.00000000000E+00 0. -1.
        -13    1    5    5    0    0 -0.22196877859E+02 -0.65369135445E+02  0.52401622517E+03  0.52854406580E+03  0.00000000000E+00 0.  1.
          3    1    6    6  503    0  0.63613069901E+02  0.32160037883E+03  0.28791357323E+03  0.43631141628E+03  0.00000000000E+00 0. -1.
         -3    1    6    6    0  503 -0.21668974890E+02  0.42259484275E+02  0.65236821270E+02  0.80692325121E+02  0.00000000000E+00 0.  1.
<mgrwt>
<rscale>  0 0.15538983E+04</rscale>
<asrwt>0</asrwt>
<pdfrwt beam="1">  1        2 0.33247389E+00 0.15538983E+04</pdfrwt>
<pdfrwt beam="2">  1       -2 0.42973520E-01 0.15538983E+04</pdfrwt>
<totfact> 0.26849629E+01</totfact>
</mgrwt>
</event>
<event>
12    3  0.4192740E-008  0.1780653E+04  0.7818608E-02  0.8716656E-01
         -2   -1    0    0    0  501 -0.00000000000E+00  0.00000000000E+00  0.81628325953E+03  0.81628325953E+03  0.00000000000E+00 0.  1.
          2   -1    0    0  501    0  0.00000000000E+00 -0.00000000000E+00 -0.97108642738E+03  0.97108642738E+03  0.00000000000E+00 0. -1.
         23    2    1    2    0    0 -0.66187325092E+03  0.10011507478E+03 -0.75906206713E+02  0.68068779207E+03  0.97339044486E+02 0.  0.
        254    2    1    2    0    0  0.66187325092E+03 -0.10011507478E+03 -0.78896961134E+02  0.11066818948E+04  0.87773621173E+03 0.  0.
         23    2    4    4    0    0 -0.14288400603E+03 -0.22539088558E+03  0.10391580791E+02  0.28233359282E+03  0.91582652280E+02 0.  0.
         23    2    4    4    0    0  0.80475725695E+03  0.12527581081E+03 -0.89288541925E+02  0.82434830201E+03  0.90826251290E+02 0.  0.
          1    1    3    3  502    0 -0.60994180157E+03  0.10718929217E+03 -0.91486763775E+02  0.62600988299E+03  0.00000000000E+00 0. -1.
         -1    1    3    3    0  502 -0.51931449350E+02 -0.70742173910E+01  0.15580557062E+02  0.54677909083E+02  0.00000000000E+00 0.  1.
         13    1    5    5    0    0 -0.82353251650E+02 -0.18997590197E+03 -0.15356614529E+02  0.20762641209E+03  0.00000000000E+00 0.  1.
        -13    1    5    5    0    0 -0.60530754382E+02 -0.35414983611E+02  0.25748195320E+02  0.74707180729E+02  0.00000000000E+00 0. -1.
          1    1    6    6  503    0  0.48997974575E+03  0.41637918110E+02 -0.82220903606E+02  0.49857210557E+03  0.00000000000E+00 0. -1.
         -1    1    6    6    0  503  0.31477751120E+03  0.83637892695E+02 -0.70676383185E+01  0.32577619644E+03  0.00000000000E+00 0.  1.
<mgrwt>
<rscale>  0 0.17806534E+04</rscale>
<asrwt>0</asrwt>
<pdfrwt beam="1">  1        2 0.14939791E+00 0.17806534E+04</pdfrwt>
<pdfrwt beam="2">  1       -2 0.12558204E+00 0.17806534E+04</pdfrwt>
<totfact> 0.11784589E+01</totfact>
</mgrwt>
</event>
<event>
12    3  0.4192740E-008  0.1315476E+04  0.7818608E-02  0.9017382E-01
         -1   -1    0    0    0  501 -0.00000000000E+00  0.00000000000E+00  0.81986749999E+03  0.81986749999E+03  0.00000000000E+00 0.  1.
          1   -1    0    0  501    0  0.00000000000E+00 -0.00000000000E+00 -0.52766980842E+03  0.52766980842E+03  0.00000000000E+00 0. -1.
         23    2    1    2    0    0  0.46981118262E+01 -0.76006372476E+02 -0.26545200722E+03  0.29004597630E+03  0.88672765365E+02 0.  0.
        254    2    1    2    0    0 -0.46981118262E+01  0.76006372476E+02  0.55764969879E+03  0.10574913321E+04  0.89527408653E+03 0.  0.
         23    2    4    4    0    0 -0.24683768217E+03 -0.28979661125E+03  0.74379790183E+02  0.39853450117E+03  0.91577716745E+02 0.  0.
         23    2    4    4    0    0  0.24213957034E+03  0.36580298373E+03  0.48326990860E+03  0.65895683094E+03  0.90724340981E+02 0.  0.
          4    1    3    3  502    0 -0.73855625940E+01 -0.33798731285E+02 -0.18520017467E+02  0.39241455354E+02  0.00000000000E+00 0.  1.
         -4    1    3    3    0  502  0.12083674420E+02 -0.42207641191E+02 -0.24693198975E+03  0.25080452094E+03  0.00000000000E+00 0. -1.
         13    1    5    5    0    0 -0.72209975949E+02 -0.14431595312E+03  0.72293179288E+01  0.16153525308E+03  0.00000000000E+00 0. -1.
        -13    1    5    5    0    0 -0.17462770622E+03 -0.14548065814E+03  0.67150472254E+02  0.23699924809E+03  0.00000000000E+00 0.  1.
          2    1    6    6  503    0  0.16910535089E+02  0.88730849350E+02  0.11130612099E+03  0.14334637209E+03  0.00000000000E+00 0. -1.
         -2    1    6    6    0  503  0.22522903525E+03  0.27707213438E+03  0.37196378762E+03  0.51561045884E+03  0.00000000000E+00 0.  1.
<mgrwt>
<rscale>  0 0.13154761E+04</rscale>
<asrwt>0</asrwt>
<pdfrwt beam="1">  1        1 0.81179970E-01 0.13154761E+04</pdfrwt>
<pdfrwt beam="2">  1       -1 0.12613346E+00 0.13154761E+04</pdfrwt>
<totfact> 0.22088280E+01</totfact>
</mgrwt>
</event>
<event>
12    3  0.5305393E-008  0.2076143E+04  0.7818608E-02  0.8571826E-01
          2   -1    0    0  501    0  0.00000000000E+00  0.00000000000E+00  0.13206678795E+04  0.13206678795E+04  0.00000000000E+00 0. -1.
         -2   -1    0    0    0  501 -0.00000000000E+00 -0.00000000000E+00 -0.81594475417E+03  0.81594475417E+03  0.00000000000E+00 0.  1.
         23    2    1    2    0    0 -0.57494013132E+03 -0.24682075123E+03  0.78341265484E+03  0.10067901277E+04  0.91729687654E+02 0.  0.
        254    2    1    2    0    0  0.57494013132E+03  0.24682075123E+03 -0.27868952951E+03  0.11298225060E+04  0.89852902198E+03 0.  0.
         23    2    4    4    0    0  0.64613557163E+03 -0.14465401614E+03 -0.72419600277E+02  0.67225526464E+03  0.90920740321E+02 0.  0.
         23    2    4    4    0    0 -0.71195440303E+02  0.39147476737E+03 -0.20626992923E+03  0.45756724135E+03  0.92191173348E+02 0.  0.
          1    1    3    3  502    0 -0.44622633713E+03 -0.19840535701E+03  0.54686870493E+03  0.73317665680E+03  0.00000000000E+00 0. -1.
         -1    1    3    3    0  502 -0.12871379419E+03 -0.48415394216E+02  0.23654394990E+03  0.27361347088E+03  0.00000000000E+00 0.  1.
         13    1    5    5    0    0  0.39043379651E+03 -0.45228563488E+02 -0.25030799826E+02  0.39384097470E+03  0.00000000000E+00 0. -1.
        -13    1    5    5    0    0  0.25570177512E+03 -0.99425452654E+02 -0.47388800451E+02  0.27841428994E+03  0.00000000000E+00 0.  1.
          4    1    6    6  503    0 -0.70840707510E+02  0.13999888445E+03 -0.83039326770E+02  0.17752076858E+03  0.00000000000E+00 0. -1.
         -4    1    6    6    0  503 -0.35473279274E+00  0.25147588292E+03 -0.12323060246E+03  0.28004647277E+03  0.00000000000E+00 0.  1.
<mgrwt>
<rscale>  0 0.20761426E+04</rscale>
<asrwt>0</asrwt>
<pdfrwt beam="1">  1        2 0.20317967E+00 0.20761426E+04</pdfrwt>
<pdfrwt beam="2">  1       -2 0.12552996E+00 0.20761426E+04</pdfrwt>
<totfact> 0.70446747E+00</totfact>
</mgrwt>
</event>
<event>
12    3  0.4192740E-008  0.2024252E+04  0.7818608E-02  0.8595365E-01
         -2   -1    0    0    0  501 -0.00000000000E+00  0.00000000000E+00  0.36068888479E+03  0.36068888479E+03  0.00000000000E+00 0.  1.
          2   -1    0    0  501    0  0.00000000000E+00 -0.00000000000E+00 -0.28401188354E+04  0.28401188354E+04  0.00000000000E+00 0. -1.
         23    2    1    2    0    0  0.29328283116E+03  0.19592363255E+03  0.15464157644E+03  0.39579625513E+03  0.91322338806E+02 0.  0.
        254    2    1    2    0    0 -0.29328283116E+03 -0.19592363255E+03 -0.26340715270E+04  0.28050114650E+04  0.89741608004E+03 0.  0.
         23    2    4    4    0    0 -0.60796120781E+03 -0.10690979055E+03 -0.17625455075E+04  0.18697331915E+04  0.91043988665E+02 0.  0.
         23    2    4    4    0    0  0.31467837664E+03 -0.89013841997E+02 -0.87152601957E+03  0.93527827359E+03  0.90784918732E+02 0.  0.
          1    1    3    3  502    0  0.17039932677E+03  0.98991592222E+02  0.13310933133E+03  0.23780950355E+03  0.00000000000E+00 0. -1.
         -1    1    3    3    0  502  0.12288350439E+03  0.96932040326E+02  0.21532245110E+02  0.15798675157E+03  0.00000000000E+00 0.  1.
         13    1    5    5    0    0 -0.93672192161E+01 -0.12701089515E+02 -0.25093539734E+02  0.29643687475E+02  0.00000000000E+00 0. -1.
        -13    1    5    5    0    0 -0.59859398859E+03 -0.94208701036E+02 -0.17374519677E+04  0.18400895040E+04  0.00000000000E+00 0.  1.
          1    1    6    6  503    0  0.12160470553E+03 -0.37949325579E+02 -0.46811828813E+03  0.48514182195E+03  0.00000000000E+00 0. -1.
         -1    1    6    6    0  503  0.19307367111E+03 -0.51064516417E+02 -0.40340773144E+03  0.45013645165E+03  0.00000000000E+00 0.  1.
<mgrwt>
<rscale>  0 0.20242523E+04</rscale>
<asrwt>0</asrwt>
<pdfrwt beam="1">  1        2 0.43694136E+00 0.20242523E+04</pdfrwt>
<pdfrwt beam="2">  1       -2 0.55490598E-01 0.20242523E+04</pdfrwt>
<totfact> 0.61963220E+00</totfact>
</mgrwt>
</event>
<event>
12    3  0.4192740E-008  0.3752153E+04  0.7818608E-02  0.8056501E-01
         -2   -1    0    0    0  501 -0.00000000000E+00  0.00000000000E+00  0.12379551813E+04  0.12379551813E+04  0.00000000000E+00 0. -1.
          2   -1    0    0  501    0  0.00000000000E+00 -0.00000000000E+00 -0.28431258375E+04  0.28431258375E+04  0.00000000000E+00 0.  1.
         23    2    1    2    0    0 -0.59367930389E+03 -0.16471930690E+04 -0.10195414449E+04  0.20287918395E+04  0.10407424179E+03 0.  0.
        254    2    1    2    0    0  0.59367930389E+03  0.16471930690E+04 -0.58562921133E+03  0.20522891793E+04  0.89623053944E+03 0.  0.
         23    2    4    4    0    0  0.19241192573E+03  0.29779203324E+03  0.22007567454E+03  0.42714552240E+03  0.91200606112E+02 0.  0.
         23    2    4    4    0    0  0.40126737816E+03  0.13494010357E+04 -0.80570488587E+03  0.16251436569E+04  0.10016425683E+03 0.  0.
          1    1    3    3  502    0 -0.30578490437E+03 -0.87840895435E+03 -0.48254127739E+03  0.10478324213E+04  0.00000000000E+00 0. -1.
         -1    1    3    3    0  502 -0.28789439952E+03 -0.76878411462E+03 -0.53700016749E+03  0.98095941814E+03  0.00000000000E+00 0.  1.
         13    1    5    5    0    0  0.21366941979E+02  0.87825446998E+02  0.86775662909E+02  0.12529912619E+03  0.00000000000E+00 0.  1.
        -13    1    5    5    0    0  0.17104498375E+03  0.20996658625E+03  0.13330001163E+03  0.30184639621E+03  0.00000000000E+00 0. -1.
          2    1    6    6  503    0  0.44302154562E+02  0.12252129423E+03 -0.10851509208E+03  0.16955728722E+03  0.00000000000E+00 0. -1.
         -2    1    6    6    0  503  0.35696522360E+03  0.12268797415E+04 -0.69718979379E+03  0.14555863696E+04  0.00000000000E+00 0.  1.
<mgrwt>
<rscale>  0 0.37521526E+04</rscale>
<asrwt>0</asrwt>
<pdfrwt beam="1">  1        2 0.43740397E+00 0.37521526E+04</pdfrwt>
<pdfrwt beam="2">  1       -2 0.19045465E+00 0.37521526E+04</pdfrwt>
<totfact> 0.26960863E-01</totfact>
</mgrwt>
</event>
<event>
12    3  0.4192740E-008  0.3523549E+04  0.7818608E-02  0.8108232E-01
         -2   -1    0    0    0  501 -0.00000000000E+00  0.00000000000E+00  0.16123172267E+04  0.16123172267E+04  0.00000000000E+00 0.  1.
          2   -1    0    0  501    0  0.00000000000E+00 -0.00000000000E+00 -0.19250858203E+04  0.19250858203E+04  0.00000000000E+00 0. -1.
         23    2    1    2    0    0 -0.91615398731E+03 -0.10519322918E+04  0.73461244598E+03  0.15799345395E+04  0.10314081803E+03 0.  0.
        254    2    1    2    0    0  0.91615398731E+03  0.10519322918E+04 -0.10473810395E+04  0.19574685075E+04  0.88813075657E+03 0.  0.
         23    2    4    4    0    0 -0.12662972407E+03  0.14536606336E+03 -0.34260996569E+03  0.40362406268E+03  0.91457181188E+02 0.  0.
         23    2    4    4    0    0  0.10427837114E+04  0.90656622845E+03 -0.70477107385E+03  0.15538444448E+04  0.92033128888E+02 0.  0.
          2    1    3    3  502    0 -0.88159802787E+02 -0.60045928582E+02  0.59176323438E+02  0.12198156263E+03  0.00000000000E+00 0. -1.
         -2    1    3    3    0  502 -0.82799418452E+03 -0.99188636323E+03  0.67543612254E+03  0.14579529769E+04  0.00000000000E+00 0.  1.
         13    1    5    5    0    0 -0.20477918568E+02 -0.62953435062E+01 -0.11592463556E+02  0.24359017017E+02  0.00000000000E+00 0.  1.
        -13    1    5    5    0    0 -0.10615180550E+03  0.15166140686E+03 -0.33101750214E+03  0.37926504566E+03  0.00000000000E+00 0. -1.
          3    1    6    6  503    0  0.10112926125E+04  0.85787404450E+03 -0.68476330491E+03  0.14925017280E+04  0.00000000000E+00 0. -1.
         -3    1    6    6    0  503  0.31491098874E+02  0.48692183950E+02 -0.20007768934E+02  0.61342716796E+02  0.00000000000E+00 0.  1.
<mgrwt>
<rscale>  0 0.35235488E+04</rscale>
<asrwt>0</asrwt>
<pdfrwt beam="1">  1        2 0.29616705E+00 0.35235488E+04</pdfrwt>
<pdfrwt beam="2">  1       -2 0.24804881E+00 0.35235488E+04</pdfrwt>
<totfact> 0.39846596E-01</totfact>
</mgrwt>
</event>
<event>
12    3  0.4192740E-008  0.2243157E+04  0.7818608E-02  0.8500677E-01
          1   -1    0    0  501    0  0.00000000000E+00  0.00000000000E+00  0.15859540016E+04  0.15859540016E+04  0.00000000000E+00 0. -1.
         -1   -1    0    0    0  501 -0.00000000000E+00 -0.00000000000E+00 -0.79317439902E+03  0.79317439902E+03  0.00000000000E+00 0.  1.
         23    2    1    2    0    0  0.19784566428E+03 -0.18676518508E+03 -0.61087357549E+03  0.67438545812E+03  0.87207107854E+02 0.  0.
        254    2    1    2    0    0 -0.19784566428E+03  0.18676518508E+03  0.14036531781E+04  0.17047429425E+04  0.92837606307E+03 0.  0.
         23    2    4    4    0    0  0.43605665007E+02  0.38506714883E+03  0.17823207230E+03  0.43683292554E+03  0.94224042104E+02 0.  0.
         23    2    4    4    0    0 -0.24145132929E+03 -0.19830196375E+03  0.12254211058E+04  0.12679100170E+04  0.91194908871E+02 0.  0.
          2    1    3    3  502    0  0.66110061647E+02 -0.32771047154E+02 -0.96110823155E+02  0.12116836266E+03  0.00000000000E+00 0. -1.
         -2    1    3    3    0  502  0.13173560263E+03 -0.15399413793E+03 -0.51476275233E+03  0.55321709545E+03  0.00000000000E+00 0.  1.
         13    1    5    5    0    0  0.84885083908E+01 -0.25913092385E+01  0.81529519384E+01  0.12051567681E+02  0.00000000000E+00 0. -1.
        -13    1    5    5    0    0  0.35117156617E+02  0.38765845807E+03  0.17007912036E+03  0.42478135786E+03  0.00000000000E+00 0.  1.
          2    1    6    6  503    0 -0.16041607206E+03 -0.98180129626E+02  0.57898908984E+03  0.60877008812E+03  0.00000000000E+00 0. -1.
         -2    1    6    6    0  503 -0.81035257227E+02 -0.10012183412E+03  0.64643201594E+03  0.65913992886E+03  0.00000000000E+00 0.  1.
<mgrwt>
<rscale>  0 0.22431568E+04</rscale>
<asrwt>0</asrwt>
<pdfrwt beam="1">  1        1 0.24399292E+00 0.22431568E+04</pdfrwt>
<pdfrwt beam="2">  1       -1 0.12202683E+00 0.22431568E+04</pdfrwt>
<totfact> 0.30787113E+00</totfact>
</mgrwt>
</event>
<event>
12    3  0.4192740E-008  0.2497185E+04  0.7818608E-02  0.8403989E-01
          1   -1    0    0  501    0  0.00000000000E+00  0.00000000000E+00  0.94037997407E+03  0.94037997407E+03  0.00000000000E+00 0. -1.
         -1   -1    0    0    0  501 -0.00000000000E+00 -0.00000000000E+00 -0.16578232205E+04  0.16578232205E+04  0.00000000000E+00 0.  1.
         23    2    1    2    0    0  0.92962626829E+03 -0.35815307838E+02  0.26908515916E+03  0.97257861836E+03  0.89524360024E+02 0.  0.
        254    2    1    2    0    0 -0.92962626829E+03  0.35815307838E+02 -0.98652840558E+03  0.16256245762E+04  0.89662100844E+03 0.  0.
         23    2    4    4    0    0 -0.45025189767E+03 -0.23759024335E+03 -0.30579668563E+02  0.51842183480E+03  0.93006384657E+02 0.  0.
         23    2    4    4    0    0 -0.47937437062E+03  0.27340555118E+03 -0.95594873702E+03  0.11072027414E+04  0.86657602858E+02 0.  0.
          1    1    3    3  502    0  0.55354127181E+03  0.16319797124E+01  0.19876259663E+03  0.58814723732E+03  0.00000000000E+00 0.  1.
         -1    1    3    3    0  502  0.37608499648E+03 -0.37447287550E+02  0.70322562532E+02  0.38443138103E+03  0.00000000000E+00 0. -1.
         13    1    5    5    0    0 -0.42299486156E+03 -0.24552784517E+03 -0.30374252699E+02  0.49003180600E+03  0.00000000000E+00 0.  1.
        -13    1    5    5    0    0 -0.27257036102E+02  0.79376018263E+01 -0.20541586414E+00  0.28390028804E+02  0.00000000000E+00 0. -1.
          2    1    6    6  503    0 -0.30034125114E+03  0.15303566744E+03 -0.50302227440E+03  0.60552142092E+03  0.00000000000E+00 0. -1.
         -2    1    6    6    0  503 -0.17903311948E+03  0.12036988374E+03 -0.45292646262E+03  0.50168132049E+03  0.00000000000E+00 0.  1.
<mgrwt>
<rscale>  0 0.24971854E+04</rscale>
<asrwt>0</asrwt>
<pdfrwt beam="1">  1        1 0.14467384E+00 0.24971854E+04</pdfrwt>
<pdfrwt beam="2">  1       -1 0.25504972E+00 0.24971854E+04</pdfrwt>
<totfact> 0.96884367E-01</totfact>
</mgrwt>
</event>
<event>
12    3  0.4192740E-008  0.1817277E+04  0.7818608E-02  0.8697165E-01
          1   -1    0    0  501    0  0.00000000000E+00  0.00000000000E+00  0.82515931211E+03  0.82515931211E+03  0.00000000000E+00 0. -1.
         -1   -1    0    0    0  501 -0.00000000000E+00 -0.00000000000E+00 -0.10005636004E+04  0.10005636004E+04  0.00000000000E+00 0.  1.
         23    2    1    2    0    0 -0.25861554799E+01 -0.61116179333E+03  0.22641964727E+03  0.65780107321E+03  0.88943630623E+02 0.  0.
        254    2    1    2    0    0  0.25861554799E+01  0.61116179333E+03 -0.40182393553E+03  0.11679218393E+04  0.91052376226E+03 0.  0.
         23    2    4    4    0    0  0.31414144574E+03  0.13338413424E+03  0.13594733317E+03  0.37869815477E+03  0.91948027893E+02 0.  0.
         23    2    4    4    0    0 -0.31155529026E+03  0.47777765909E+03 -0.53777126870E+03  0.78922368449E+03  0.91312081977E+02 0.  0.
          3    1    3    3  502    0  0.32673970660E+02 -0.19320465615E+03  0.98336814704E+02  0.21923903996E+03  0.00000000000E+00 0. -1.
         -3    1    3    3    0  502 -0.35260126140E+02 -0.41795713718E+03  0.12808283256E+03  0.43856203326E+03  0.00000000000E+00 0.  1.
         13    1    5    5    0    0  0.16364412129E+02 -0.74615825706E+01  0.25628229289E+02  0.31309349007E+02  0.00000000000E+00 0.  1.
        -13    1    5    5    0    0  0.29777703361E+03  0.14084571681E+03  0.11031910388E+03  0.34738880576E+03  0.00000000000E+00 0. -1.
          3    1    6    6  503    0 -0.29868637612E+03  0.43637402967E+03 -0.46331007111E+03  0.70305907792E+03  0.00000000000E+00 0. -1.
         -3    1    6    6    0  503 -0.12868914135E+02  0.41403629422E+02 -0.74461197584E+02  0.86164606574E+02  0.00000000000E+00 0.  1.
<mgrwt>
<rscale>  0 0.18172775E+04</rscale>
<asrwt>0</asrwt>
<pdfrwt beam="1">  1        1 0.12694759E+00 0.18172775E+04</pdfrwt>
<pdfrwt beam="2">  1       -1 0.15393286E+00 0.18172775E+04</pdfrwt>
<totfact> 0.64438433E+00</totfact>
</mgrwt>
</event>
<event>
12    3  0.4192740E-008  0.1748547E+04  0.7818608E-02  0.8734150E-01
          1   -1    0    0  501    0  0.00000000000E+00  0.00000000000E+00  0.13662331908E+04  0.13662331908E+04  0.00000000000E+00 0. -1.
         -1   -1    0    0    0  501 -0.00000000000E+00 -0.00000000000E+00 -0.55946099185E+03  0.55946099185E+03  0.00000000000E+00 0.  1.
         23    2    1    2    0    0 -0.52120239318E+03 -0.37086369956E+03  0.25340647681E+03  0.69446507443E+03  0.94207636653E+02 0.  0.
        254    2    1    2    0    0  0.52120239318E+03  0.37086369956E+03  0.55336572211E+03  0.12312291082E+04  0.89471765162E+03 0.  0.
         23    2    4    4    0    0  0.69549405716E+03  0.24898933555E+03  0.64311374229E+03  0.98369521576E+03  0.91396494663E+02 0.  0.
         23    2    4    4    0    0 -0.17429166398E+03  0.12187436402E+03 -0.89748020179E+02  0.24753389242E+03  0.89372121140E+02 0.  0.
          3    1    3    3  502    0 -0.45392648558E+03 -0.30101926303E+03  0.24466763005E+03  0.59709639106E+03  0.00000000000E+00 0. -1.
         -3    1    3    3    0  502 -0.67275907603E+02 -0.69844436529E+02  0.87388467584E+01  0.97368683367E+02  0.00000000000E+00 0.  1.
         13    1    5    5    0    0  0.16389830166E+03  0.58942342857E+02  0.20561409957E+03  0.26946987032E+03  0.00000000000E+00 0. -1.
        -13    1    5    5    0    0  0.53159575550E+03  0.19004699269E+03  0.43749964272E+03  0.71422534544E+03  0.00000000000E+00 0.  1.
          3    1    6    6  503    0 -0.83616999547E+02  0.10864920977E+03 -0.69413605752E+02  0.15367075864E+03  0.00000000000E+00 0. -1.
         -3    1    6    6    0  503 -0.90674664429E+02  0.13225154246E+02 -0.20334414426E+02  0.93863133786E+02  0.00000000000E+00 0.  1.
<mgrwt>
<rscale>  0 0.17485470E+04</rscale>
<asrwt>0</asrwt>
<pdfrwt beam="1">  1        1 0.21018972E+00 0.17485470E+04</pdfrwt>
<pdfrwt beam="2">  1       -1 0.86070922E-01 0.17485470E+04</pdfrwt>
<totfact> 0.10247658E+01</totfact>
</mgrwt>
</event>
<event>
12    3  0.4192740E-008  0.1438653E+04  0.7818608E-02  0.8926305E-01
          1   -1    0    0  501    0  0.00000000000E+00  0.00000000000E+00  0.71167546852E+03  0.71167546852E+03  0.00000000000E+00 0. -1.
         -1   -1    0    0    0  501 -0.00000000000E+00 -0.00000000000E+00 -0.72705980807E+03  0.72705980807E+03  0.00000000000E+00 0.  1.
         23    2    1    2    0    0  0.34512863991E+03  0.16893073540E+03 -0.19856826705E+03  0.44283399168E+03  0.94980082421E+02 0.  0.
        254    2    1    2    0    0 -0.34512863991E+03 -0.16893073540E+03  0.18318392749E+03  0.99590128491E+03  0.90033973951E+03 0.  0.
         23    2    4    4    0    0 -0.54139898902E+03  0.11048699383E+03 -0.66174338567E+02  0.56359812389E+03  0.89126657371E+02 0.  0.
         23    2    4    4    0    0  0.19627034910E+03 -0.27941772923E+03  0.24935826606E+03  0.43230316102E+03  0.90056431368E+02 0.  0.
          1    1    3    3  502    0 -0.14185909038E+01 -0.62878700117E+01 -0.79848254891E+01  0.10261927086E+02  0.00000000000E+00 0. -1.
         -1    1    3    3    0  502  0.34654723082E+03  0.17521860541E+03 -0.19058344156E+03  0.43257206459E+03  0.00000000000E+00 0.  1.
         13    1    5    5    0    0 -0.17491923264E+03  0.35338684049E+02 -0.63709822984E+02  0.18948483338E+03  0.00000000000E+00 0. -1.
        -13    1    5    5    0    0 -0.36647975638E+03  0.75148309781E+02 -0.24645155831E+01  0.37411329051E+03  0.00000000000E+00 0.  1.
          3    1    6    6  503    0  0.63579582933E+02 -0.14194633330E+03  0.15356326904E+03  0.21856990301E+03  0.00000000000E+00 0. -1.
         -3    1    6    6    0  503  0.13269076617E+03 -0.13747139593E+03  0.95794997016E+02  0.21373325801E+03  0.00000000000E+00 0.  1.
<mgrwt>
<rscale>  0 0.14386530E+04</rscale>
<asrwt>0</asrwt>
<pdfrwt beam="1">  1        1 0.10948853E+00 0.14386530E+04</pdfrwt>
<pdfrwt beam="2">  1       -1 0.11185536E+00 0.14386530E+04</pdfrwt>
<totfact> 0.18947721E+01</totfact>
</mgrwt>
</event>
<event>
12    3  0.4192740E-008  0.1914287E+04  0.7818608E-02  0.8647777E-01
         -1   -1    0    0    0  501 -0.00000000000E+00  0.00000000000E+00  0.51357222257E+03  0.51357222257E+03  0.00000000000E+00 0.  1.
          1   -1    0    0  501    0  0.00000000000E+00 -0.00000000000E+00 -0.17838259586E+04  0.17838259586E+04  0.00000000000E+00 0. -1.
         23    2    1    2    0    0  0.67246731994E+03 -0.29373803964E+03 -0.40519976331E+03  0.84341929520E+03  0.93139288252E+02 0.  0.
        254    2    1    2    0    0 -0.67246731994E+03  0.29373803964E+03 -0.86505397276E+03  0.14539788860E+04  0.90952839036E+03 0.  0.
         23    2    4    4    0    0 -0.53769911195E+02  0.29055171255E+03 -0.75998600471E+03  0.82036580822E+03  0.90054599681E+02 0.  0.
         23    2    4    4    0    0 -0.61869740874E+03  0.31863270877E+01 -0.10506796805E+03  0.63361307779E+03  0.87347685540E+02 0.  0.
          1    1    3    3  502    0  0.32077904994E+03 -0.16896665802E+03 -0.24341768575E+03  0.43669337084E+03  0.00000000000E+00 0. -1.
         -1    1    3    3    0  502  0.35168827000E+03 -0.12477138162E+03 -0.16178207756E+03  0.40672592436E+03  0.00000000000E+00 0.  1.
         13    1    5    5    0    0 -0.73634854201E+02  0.24151927360E+03 -0.66975762622E+03  0.71577156213E+03  0.00000000000E+00 0.  1.
        -13    1    5    5    0    0  0.19864943006E+02  0.49032438952E+02 -0.90228378491E+02  0.10459424609E+03  0.00000000000E+00 0. -1.
          3    1    6    6  503    0 -0.48135429779E+03 -0.21423795214E+02 -0.10908457050E+03  0.49402467805E+03  0.00000000000E+00 0. -1.
         -3    1    6    6    0  503 -0.13734311095E+03  0.24610122302E+02  0.40166024531E+01  0.13958839974E+03  0.00000000000E+00 0.  1.
<mgrwt>
<rscale>  0 0.19142868E+04</rscale>
<asrwt>0</asrwt>
<pdfrwt beam="1">  1        1 0.27443476E+00 0.19142868E+04</pdfrwt>
<pdfrwt beam="2">  1       -1 0.79011111E-01 0.19142868E+04</pdfrwt>
<totfact> 0.62539417E+00</totfact>
</mgrwt>
</event>
<event>
12    3  0.4192740E-008  0.2002731E+04  0.7818608E-02  0.8605345E-01
          2   -1    0    0  501    0  0.00000000000E+00  0.00000000000E+00  0.17365228522E+04  0.17365228522E+04  0.00000000000E+00 0. -1.
         -2   -1    0    0    0  501 -0.00000000000E+00 -0.00000000000E+00 -0.57743710233E+03  0.57743710233E+03  0.00000000000E+00 0.  1.
         23    2    1    2    0    0  0.24518696336E+03 -0.61147383954E+03  0.86287185295E+03  0.10894270647E+04  0.91030716155E+02 0.  0.
        254    2    1    2    0    0 -0.24518696336E+03  0.61147383954E+03  0.29621389691E+03  0.12245328898E+04  0.98879786714E+03 0.  0.
         23    2    4    4    0    0  0.19597268506E+02 -0.16209473453E+03 -0.19155903828E+03  0.26797351563E+03  0.91957512149E+02 0.  0.
         23    2    4    4    0    0 -0.26478423187E+03  0.77356857408E+03  0.48777293519E+03  0.95655937417E+03  0.92543891084E+02 0.  0.
          4    1    3    3  502    0  0.22986886120E+03 -0.58195968800E+03  0.84567779300E+03  0.10519922535E+04  0.00000000000E+00 0. -1.
         -4    1    3    3    0  502  0.15318102158E+02 -0.29514151543E+02  0.17194059949E+02  0.37434811240E+02  0.00000000000E+00 0.  1.
         13    1    5    5    0    0  0.50631804184E+02 -0.11651427970E+03 -0.16047259165E+03  0.20467195616E+03  0.00000000000E+00 0.  1.
        -13    1    5    5    0    0 -0.31034535678E+02 -0.45580454837E+02 -0.31086446622E+02  0.63301559471E+02  0.00000000000E+00 0. -1.
          2    1    6    6  503    0 -0.21963028270E+03  0.71701645640E+03  0.43434036341E+03  0.86660349129E+03  0.00000000000E+00 0.  1.
         -2    1    6    6    0  503 -0.45153949165E+02  0.56552117672E+02  0.53432571774E+02  0.89955882880E+02  0.00000000000E+00 0. -1.
<mgrwt>
<rscale>  0 0.20027309E+04</rscale>
<asrwt>0</asrwt>
<pdfrwt beam="1">  1        2 0.26715736E+00 0.20027309E+04</pdfrwt>
<pdfrwt beam="2">  1       -2 0.88836478E-01 0.20027309E+04</pdfrwt>
<totfact> 0.94663121E+00</totfact>
</mgrwt>
</event>
<event>
12    3  0.4192740E-008  0.3004197E+04  0.7818608E-02  0.8242533E-01
          1   -1    0    0  501    0  0.00000000000E+00  0.00000000000E+00  0.23622747030E+04  0.23622747030E+04  0.00000000000E+00 0. -1.
         -1   -1    0    0    0  501 -0.00000000000E+00 -0.00000000000E+00 -0.95513855812E+03  0.95513855812E+03  0.00000000000E+00 0.  1.
         23    2    1    2    0    0  0.61278818896E+03 -0.12058236696E+04  0.76996909975E+03  0.15593875608E+04  0.96524936566E+02 0.  0.
        254    2    1    2    0    0 -0.61278818896E+03  0.12058236696E+04  0.63716704512E+03  0.17580257003E+04  0.92474452299E+03 0.  0.
         23    2    4    4    0    0 -0.83857813751E+03  0.90932689286E+03  0.58088518806E+03  0.13696010463E+04  0.91053465215E+02 0.  0.
         23    2    4    4    0    0  0.22578994856E+03  0.29649677678E+03  0.56281857056E+02  0.38842465402E+03  0.93886233827E+02 0.  0.
          1    1    3    3  502    0  0.21938321627E+03 -0.37139081594E+03  0.28685009451E+03  0.51801844607E+03  0.00000000000E+00 0. -1.
         -1    1    3    3    0  502  0.39340497269E+03 -0.83443285370E+03  0.48311900524E+03  0.10413691147E+04  0.00000000000E+00 0.  1.
         13    1    5    5    0    0 -0.69936991188E+02  0.44505051779E+02  0.30470276908E+02  0.88319421110E+02  0.00000000000E+00 0. -1.
        -13    1    5    5    0    0 -0.76864114633E+03  0.86482184108E+03  0.55041491115E+03  0.12812816252E+04  0.00000000000E+00 0.  1.
          4    1    6    6  503    0  0.82993110388E+02  0.18393046151E+03  0.41365755488E+02  0.20598397212E+03  0.00000000000E+00 0. -1.
         -4    1    6    6    0  503  0.14279683817E+03  0.11256631528E+03  0.14916101568E+02  0.18244068190E+03  0.00000000000E+00 0.  1.
<mgrwt>
<rscale>  0 0.30041968E+04</rscale>
<asrwt>0</asrwt>
<pdfrwt beam="1">  1        1 0.36342688E+00 0.30041968E+04</pdfrwt>
<pdfrwt beam="2">  1       -1 0.14694439E+00 0.30041968E+04</pdfrwt>
<totfact> 0.52896570E-01</totfact>
</mgrwt>
</event>
<event>
12    3  0.4192740E-008  0.1767787E+04  0.7818608E-02  0.8723620E-01
         -2   -1    0    0    0  501 -0.00000000000E+00  0.00000000000E+00  0.32792382534E+03  0.32792382534E+03  0.00000000000E+00 0.  1.
          2   -1    0    0  501    0  0.00000000000E+00 -0.00000000000E+00 -0.23824664218E+04  0.23824664218E+04  0.00000000000E+00 0. -1.
         23    2    1    2    0    0 -0.51986133019E+02  0.64932301488E+03 -0.68235666093E+03  0.94797292721E+03  0.93376240713E+02 0.  0.
        254    2    1    2    0    0  0.51986133019E+02 -0.64932301488E+03 -0.13721859355E+04  0.17624173199E+04  0.89381073623E+03 0.  0.
         23    2    4    4    0    0  0.20481813062E+03 -0.66091963275E+03 -0.46708646539E+03  0.84007769308E+03  0.93784522547E+02 0.  0.
         23    2    4    4    0    0 -0.15283199760E+03  0.11596617872E+02 -0.90509947010E+03  0.92233962681E+03  0.89516676481E+02 0.  0.
          1    1    3    3  502    0 -0.40730799609E+02  0.64446732128E+03 -0.67114812589E+03  0.93136294382E+03  0.00000000000E+00 0. -1.
         -1    1    3    3    0  502 -0.11255333411E+02  0.48556936007E+01 -0.11208535041E+02  0.16609983392E+02  0.00000000000E+00 0.  1.
         13    1    5    5    0    0  0.14407515319E+03 -0.56264545654E+03 -0.36549006472E+03  0.68622922332E+03  0.00000000000E+00 0.  1.
        -13    1    5    5    0    0  0.60742977432E+02 -0.98274176213E+02 -0.10159640067E+03  0.15384846976E+03  0.00000000000E+00 0. -1.
          3    1    6    6  503    0 -0.31932284948E+02  0.38941573302E+02 -0.18914888848E+03  0.19573813877E+03  0.00000000000E+00 0. -1.
         -3    1    6    6    0  503 -0.12089971265E+03 -0.27344955430E+02 -0.71595058162E+03  0.72660148804E+03  0.00000000000E+00 0.  1.
<mgrwt>
<rscale>  0 0.17677868E+04</rscale>
<asrwt>0</asrwt>
<pdfrwt beam="1">  1        2 0.36653331E+00 0.17677868E+04</pdfrwt>
<pdfrwt beam="2">  1       -2 0.50449817E-01 0.17677868E+04</pdfrwt>
<totfact> 0.14320539E+01</totfact>
</mgrwt>
</event>
<event>
12    3  0.4192740E-008  0.1589025E+04  0.7818608E-02  0.8827319E-01
          2   -1    0    0  501    0  0.00000000000E+00  0.00000000000E+00  0.70234764101E+03  0.70234764101E+03  0.00000000000E+00 0. -1.
         -2   -1    0    0    0  501 -0.00000000000E+00 -0.00000000000E+00 -0.89877197732E+03  0.89877197732E+03  0.00000000000E+00 0.  1.
         23    2    1    2    0    0 -0.20985778308E+03  0.13328999037E+03  0.40961336580E+03  0.48931197235E+03  0.99179565399E+02 0.  0.
        254    2    1    2    0    0  0.20985778308E+03 -0.13328999037E+03 -0.60603770211E+03  0.11118076460E+04  0.89834739084E+03 0.  0.
         23    2    4    4    0    0  0.41296653844E+03 -0.38311253063E+03 -0.24949505650E+03  0.62284488511E+03  0.91495326116E+02 0.  0.
         23    2    4    4    0    0 -0.20310875535E+03  0.24982254026E+03 -0.35654264561E+03  0.48896276087E+03  0.91090368598E+02 0.  0.
          2    1    3    3  502    0 -0.13307719765E+03  0.91901918010E+02  0.34414237769E+03  0.38024923299E+03  0.00000000000E+00 0. -1.
         -2    1    3    3    0  502 -0.76780585436E+02  0.41388072359E+02  0.65470988115E+02  0.10906273937E+03  0.00000000000E+00 0.  1.
         13    1    5    5    0    0  0.26516648363E+03 -0.21126435479E+03 -0.18938393239E+03  0.38834542033E+03  0.00000000000E+00 0. -1.
        -13    1    5    5    0    0  0.14780005481E+03 -0.17184817584E+03 -0.60111124102E+02  0.23449946478E+03  0.00000000000E+00 0.  1.
          1    1    6    6  503    0 -0.50938731772E+02  0.15592778254E+02 -0.38806694640E+02  0.65907880235E+02  0.00000000000E+00 0. -1.
         -1    1    6    6    0  503 -0.15217002358E+03  0.23422976201E+03 -0.31773595097E+03  0.42305488063E+03  0.00000000000E+00 0.  1.
<mgrwt>
<rscale>  0 0.15890253E+04</rscale>
<asrwt>0</asrwt>
<pdfrwt beam="1">  1        2 0.10805348E+00 0.15890253E+04</pdfrwt>
<pdfrwt beam="2">  1       -2 0.13827261E+00 0.15890253E+04</pdfrwt>
<totfact> 0.14518105E+01</totfact>
</mgrwt>
</event>
<event>
12    3  0.4192740E-008  0.1455623E+04  0.7818608E-02  0.8914511E-01
          2   -1    0    0  501    0  0.00000000000E+00  0.00000000000E+00  0.16654155527E+04  0.16654155527E+04  0.00000000000E+00 0. -1.
         -2   -1    0    0    0  501 -0.00000000000E+00 -0.00000000000E+00 -0.31806451208E+03  0.31806451208E+03  0.00000000000E+00 0.  1.
         23    2    1    2    0    0  0.25923244626E+03  0.70576225923E+02  0.90876269659E+03  0.95214002876E+03  0.92404170917E+02 0.  0.
        254    2    1    2    0    0 -0.25923244626E+03 -0.70576225923E+02  0.43858834406E+03  0.10313400360E+04  0.89393515959E+03 0.  0.
         23    2    4    4    0    0 -0.77888054218E+02  0.39393642825E+03  0.10649430471E+03  0.42555964860E+03  0.92236213545E+02 0.  0.
         23    2    4    4    0    0 -0.18134439204E+03 -0.46451265417E+03  0.33209403934E+03  0.60578038744E+03  0.89585894139E+02 0.  0.
          3    1    3    3  502    0  0.26476639669E+03  0.59953348446E+02  0.88168589790E+03  0.92253220614E+03  0.00000000000E+00 0. -1.
         -3    1    3    3    0  502 -0.55339504344E+01  0.10622877477E+02  0.27076798684E+02  0.29607822620E+02  0.00000000000E+00 0.  1.
         13    1    5    5    0    0  0.51397145089E+00  0.15036841474E+03  0.74119033435E+02  0.16764413331E+03  0.00000000000E+00 0. -1.
        -13    1    5    5    0    0 -0.78402025669E+02  0.24356801351E+03  0.32375271277E+02  0.25791551529E+03  0.00000000000E+00 0.  1.
          1    1    6    6  503    0 -0.75408698723E+02 -0.89916706548E+02  0.76690613007E+02  0.14018892996E+03  0.00000000000E+00 0. -1.
         -1    1    6    6    0  503 -0.10593569332E+03 -0.37459594763E+03  0.25540342634E+03  0.46559145748E+03  0.00000000000E+00 0.  1.
<mgrwt>
<rscale>  0 0.14556230E+04</rscale>
<asrwt>0</asrwt>
<pdfrwt beam="1">  1        2 0.25621777E+00 0.14556230E+04</pdfrwt>
<pdfrwt beam="2">  1       -2 0.48933003E-01 0.14556230E+04</pdfrwt>
<totfact> 0.39292544E+01</totfact>
</mgrwt>
</event>
<event>
12    3  0.4192740E-008  0.1773387E+04  0.7818608E-02  0.8720581E-01
         -2   -1    0    0    0  501 -0.00000000000E+00  0.00000000000E+00  0.35025973369E+03  0.35025973369E+03  0.00000000000E+00 0.  1.
          2   -1    0    0  501    0  0.00000000000E+00 -0.00000000000E+00 -0.22446919361E+04  0.22446919361E+04  0.00000000000E+00 0. -1.
         23    2    1    2    0    0  0.80455755628E+02 -0.36549784325E+03 -0.14343313627E+04  0.14850334122E+04  0.89196273022E+02 0.  0.
        254    2    1    2    0    0 -0.80455755628E+02  0.36549784325E+03 -0.46010083970E+03  0.11099182576E+04  0.93817053563E+03 0.  0.
         23    2    4    4    0    0  0.40927878485E+03  0.14342074745E+03 -0.31514504331E+03  0.54373793261E+03  0.90862019056E+02 0.  0.
         23    2    4    4    0    0 -0.48973454048E+03  0.22207709579E+03 -0.14495579639E+03  0.56618032503E+03  0.10193047106E+03 0.  0.
          3    1    3    3  502    0  0.95479067939E+02 -0.31553411823E+03 -0.11675738763E+04  0.12132216569E+04  0.00000000000E+00 0. -1.
         -3    1    3    3    0  502 -0.15023312310E+02 -0.49963725020E+02 -0.26675748647E+03  0.27181175530E+03  0.00000000000E+00 0.  1.
         13    1    5    5    0    0  0.58766519576E+02  0.14379521100E+02 -0.87310324815E+02  0.10622319553E+03  0.00000000000E+00 0. -1.
        -13    1    5    5    0    0  0.35051226527E+03  0.12904122635E+03 -0.22783471850E+03  0.43751473708E+03  0.00000000000E+00 0.  1.
          1    1    6    6  503    0 -0.22368798494E+03  0.12132820245E+03 -0.19371160602E+02  0.25520989240E+03  0.00000000000E+00 0. -1.
         -1    1    6    6    0  503 -0.26604655554E+03  0.10074889335E+03 -0.12558463578E+03  0.31097043263E+03  0.00000000000E+00 0.  1.
<mgrwt>
<rscale>  0 0.17733868E+04</rscale>
<asrwt>0</asrwt>
<pdfrwt beam="1">  1        2 0.34533724E+00 0.17733868E+04</pdfrwt>
<pdfrwt beam="2">  1       -2 0.53886110E-01 0.17733868E+04</pdfrwt>
<totfact> 0.14961119E+01</totfact>
</mgrwt>
</event>
<event>
12    3  0.4192740E-008  0.1376008E+04  0.7818608E-02  0.8971370E-01
         -2   -1    0    0    0  501 -0.00000000000E+00  0.00000000000E+00  0.40461908849E+03  0.40461908849E+03  0.00000000000E+00 0.  1.
          2   -1    0    0  501    0  0.00000000000E+00 -0.00000000000E+00 -0.11698652558E+04  0.11698652558E+04  0.00000000000E+00 0. -1.
         23    2    1    2    0    0 -0.30048017246E+03  0.13192129064E+03  0.15996288765E+02  0.34186649411E+03  0.94473581351E+02 0.  0.
        254    2    1    2    0    0  0.30048017246E+03 -0.13192129064E+03 -0.78124245612E+03  0.12326178502E+04  0.89516223585E+03 0.  0.
         23    2    4    4    0    0 -0.23724589515E+03  0.14052037396E+03 -0.46088226434E+03  0.54346536653E+03  0.83129734574E+02 0.  0.
         23    2    4    4    0    0  0.53772606761E+03 -0.27244166461E+03 -0.32036019177E+03  0.68915248369E+03  0.94481262167E+02 0.  0.
          1    1    3    3  502    0 -0.17859672798E+01 -0.11726386455E+01 -0.13375552637E+02  0.13545116052E+02  0.00000000000E+00 0. -1.
         -1    1    3    3    0  502 -0.29869420518E+03  0.13309392929E+03  0.29371841402E+02  0.32832137805E+03  0.00000000000E+00 0.  1.
         13    1    5    5    0    0 -0.39085235529E+02  0.49878867778E+02 -0.60423626930E+02  0.87558961726E+02  0.00000000000E+00 0. -1.
        -13    1    5    5    0    0 -0.19816065963E+03  0.90641506184E+02 -0.40045863741E+03  0.45590640481E+03  0.00000000000E+00 0.  1.
          3    1    6    6  503    0  0.49845891173E+02 -0.28800902024E+02 -0.65504140449E+02  0.87206061946E+02  0.00000000000E+00 0. -1.
         -3    1    6    6    0  503  0.48788017644E+03 -0.24364076258E+03 -0.25485605133E+03  0.60194642174E+03  0.00000000000E+00 0.  1.
<mgrwt>
<rscale>  0 0.13760084E+04</rscale>
<asrwt>0</asrwt>
<pdfrwt beam="1">  1        2 0.17997927E+00 0.13760084E+04</pdfrwt>
<pdfrwt beam="2">  1       -2 0.62249091E-01 0.13760084E+04</pdfrwt>
<totfact> 0.46116121E+01</totfact>
</mgrwt>
</event>
<event>
12    3  0.4192740E-008  0.1143836E+04  0.7818608E-02  0.9163489E-01
         -2   -1    0    0    0  501 -0.00000000000E+00  0.00000000000E+00  0.15745152108E+03  0.15745152108E+03  0.00000000000E+00 0.  1.
          2   -1    0    0  501    0  0.00000000000E+00 -0.00000000000E+00 -0.20774041970E+04  0.20774041970E+04  0.00000000000E+00 0. -1.
         23    2    1    2    0    0  0.39211029588E+02  0.17508783612E+03 -0.43468189621E+03  0.47892076241E+03  0.90683463663E+02 0.  0.
        254    2    1    2    0    0 -0.39211029588E+02 -0.17508783612E+03 -0.14852707797E+04  0.17559349557E+04  0.91928506147E+03 0.  0.
         23    2    4    4    0    0 -0.71650292611E+02 -0.60191816653E+02  0.99105482029E+02  0.16452253736E+03  0.92135495368E+02 0.  0.
         23    2    4    4    0    0  0.32439263023E+02 -0.11489601947E+03 -0.15843762617E+04  0.15914124183E+04  0.89955240489E+02 0.  0.
          1    1    3    3  502    0  0.21432698321E+02  0.63580051707E+02 -0.27679999042E+03  0.28481576191E+03  0.00000000000E+00 0. -1.
         -1    1    3    3    0  502  0.17778331267E+02  0.11150778442E+03 -0.15788190579E+03  0.19410500051E+03  0.00000000000E+00 0.  1.
         13    1    5    5    0    0 -0.18057684831E+02  0.40270710469E+00 -0.15800337047E+02  0.23997766673E+02  0.00000000000E+00 0. -1.
        -13    1    5    5    0    0 -0.53592607780E+02 -0.60594523758E+02  0.11490581908E+03  0.14052477068E+03  0.00000000000E+00 0.  1.
          3    1    6    6  503    0 -0.16122706747E+01 -0.10326589627E+03 -0.86620181546E+03  0.87233710792E+03  0.00000000000E+00 0. -1.
         -3    1    6    6    0  503  0.34051533698E+02 -0.11630123197E+02 -0.71817444628E+03  0.71907531038E+03  0.00000000000E+00 0.  1.
<mgrwt>
<rscale>  0 0.11438364E+04</rscale>
<asrwt>0</asrwt>
<pdfrwt beam="1">  1        2 0.31960062E+00 0.11438364E+04</pdfrwt>
<pdfrwt beam="2">  1       -2 0.24223313E-01 0.11438364E+04</pdfrwt>
<totfact> 0.91216132E+01</totfact>
</mgrwt>
</event>
<event>
12    3  0.4192740E-008  0.1784290E+04  0.7818608E-02  0.8714699E-01
          1   -1    0    0  501    0  0.00000000000E+00  0.00000000000E+00  0.80386538233E+03  0.80386538233E+03  0.00000000000E+00 0. -1.
         -1   -1    0    0    0  501 -0.00000000000E+00 -0.00000000000E+00 -0.99011920280E+03  0.99011920280E+03  0.00000000000E+00 0.  1.
         23    2    1    2    0    0  0.29828772288E+03  0.41986153278E+03 -0.34638811712E+03  0.62664174343E+03  0.86231517460E+02 0.  0.
        254    2    1    2    0    0 -0.29828772288E+03 -0.41986153278E+03  0.16013429665E+03  0.11673428417E+04  0.10352714836E+04 0.  0.
         23    2    4    4    0    0  0.34623247394E+03 -0.47911319010E+02 -0.98173046677E+02  0.37454559198E+03  0.92054510372E+02 0.  0.
         23    2    4    4    0    0 -0.64452019682E+03 -0.37195021377E+03  0.25830734332E+03  0.79279724971E+03  0.89730429124E+02 0.  0.
          1    1    3    3  502    0  0.45334307678E+02  0.54084471614E+02 -0.86178929189E+02  0.11138733033E+03  0.00000000000E+00 0. -1.
         -1    1    3    3    0  502  0.25295341520E+03  0.36577706116E+03 -0.26020918793E+03  0.51525441310E+03  0.00000000000E+00 0.  1.
         13    1    5    5    0    0  0.57932197069E+02 -0.41743334474E+02 -0.34181257266E+02  0.79164409797E+02  0.00000000000E+00 0.  1.
        -13    1    5    5    0    0  0.28830027687E+03 -0.61679845355E+01 -0.63991789411E+02  0.29538118218E+03  0.00000000000E+00 0. -1.
          3    1    6    6  503    0 -0.57340673830E+03 -0.30377006390E+03  0.24394149694E+03  0.69323804943E+03  0.00000000000E+00 0. -1.
         -3    1    6    6    0  503 -0.71113458513E+02 -0.68180149872E+02  0.14365846385E+02  0.99559200281E+02  0.00000000000E+00 0.  1.
<mgrwt>
<rscale>  0 0.17842898E+04</rscale>
<asrwt>0</asrwt>
<pdfrwt beam="1">  1        1 0.12367160E+00 0.17842898E+04</pdfrwt>
<pdfrwt beam="2">  1       -1 0.15232603E+00 0.17842898E+04</pdfrwt>
<totfact> 0.69375129E+00</totfact>
</mgrwt>
</event>
<event>
12    3  0.4192740E-008  0.2699825E+04  0.7818608E-02  0.8335062E-01
          2   -1    0    0  501    0  0.00000000000E+00  0.00000000000E+00  0.67876151780E+03  0.67876151780E+03  0.00000000000E+00 0.  1.
         -2   -1    0    0    0  501 -0.00000000000E+00 -0.00000000000E+00 -0.26846885670E+04  0.26846885670E+04  0.00000000000E+00 0. -1.
         23    2    1    2    0    0  0.26264391463E+02 -0.74149831010E+03  0.27870724926E+03  0.79808012550E+03  0.93512532800E+02 0.  0.
        254    2    1    2    0    0 -0.26264391463E+02  0.74149831010E+03 -0.22846342985E+04  0.25653699593E+04  0.90058846774E+03 0.  0.
         23    2    4    4    0    0 -0.14824006855E+02  0.60066427825E+03 -0.23155518555E+04  0.23939993000E+04  0.91841857258E+02 0.  0.
         23    2    4    4    0    0 -0.11440384608E+02  0.14083403185E+03  0.30917557027E+02  0.17137065927E+03  0.91907021487E+02 0.  0.
          3    1    3    3  502    0 -0.15922956961E+02 -0.30236521301E+03  0.73737474294E+02  0.31163356320E+03  0.00000000000E+00 0. -1.
         -3    1    3    3    0  502  0.42187348423E+02 -0.43913309709E+03  0.20496977496E+03  0.48644656231E+03  0.00000000000E+00 0.  1.
         13    1    5    5    0    0 -0.41142502394E+02  0.22521899214E+03 -0.77264176079E+03  0.80584836690E+03  0.00000000000E+00 0.  1.
        -13    1    5    5    0    0  0.26318495539E+02  0.37544528611E+03 -0.15429100947E+04  0.15881509331E+04  0.00000000000E+00 0. -1.
          4    1    6    6  503    0  0.10067506683E+02  0.20359059109E+02 -0.27580341085E+02  0.35728436756E+02  0.00000000000E+00 0. -1.
         -4    1    6    6    0  503 -0.21507891291E+02  0.12047497274E+03  0.58497898112E+02  0.13564222251E+03  0.00000000000E+00 0.  1.
<mgrwt>
<rscale>  0 0.26998247E+04</rscale>
<asrwt>0</asrwt>
<pdfrwt beam="1">  1        2 0.10442485E+00 0.26998247E+04</pdfrwt>
<pdfrwt beam="2">  1       -2 0.41302901E+00 0.26998247E+04</pdfrwt>
<totfact> 0.22769743E-01</totfact>
</mgrwt>
</event>
<event>
12    3  0.4192740E-008  0.1781740E+04  0.7818608E-02  0.8716071E-01
          1   -1    0    0  501    0  0.00000000000E+00  0.00000000000E+00  0.20146700146E+04  0.20146700146E+04  0.00000000000E+00 0. -1.
         -1   -1    0    0    0  501 -0.00000000000E+00 -0.00000000000E+00 -0.39393508591E+03  0.39393508591E+03  0.00000000000E+00 0.  1.
         23    2    1    2    0    0 -0.20307540794E+03 -0.32680905076E+03 -0.12174133907E+03  0.41350656079E+03  0.90127383244E+02 0.  0.
        254    2    1    2    0    0  0.20307540794E+03  0.32680905076E+03  0.17424762677E+04  0.19950985397E+04  0.89227286325E+03 0.  0.
         23    2    4    4    0    0  0.38280927813E+03  0.54581330676E+03  0.12491539955E+04  0.14187505997E+04  0.89512292679E+02 0.  0.
         23    2    4    4    0    0 -0.17973387019E+03 -0.21900425600E+03  0.49332227227E+03  0.57634793997E+03  0.92428109134E+02 0.  0.
          3    1    3    3  502    0 -0.56266927799E+01 -0.23310385596E+02  0.12875227776E+02  0.27217737573E+02  0.00000000000E+00 0. -1.
         -3    1    3    3    0  502 -0.19744871516E+03 -0.30349866517E+03 -0.13461656684E+03  0.38628882322E+03  0.00000000000E+00 0.  1.
         13    1    5    5    0    0  0.33620150225E+03  0.43145788891E+03  0.10609383679E+04  0.11936404737E+04  0.00000000000E+00 0. -1.
        -13    1    5    5    0    0  0.46607775874E+02  0.11435541786E+03  0.18821562755E+03  0.22511012598E+03  0.00000000000E+00 0.  1.
          1    1    6    6  503    0 -0.11893657364E+03 -0.16821677808E+03  0.42264789566E+03  0.47018510896E+03  0.00000000000E+00 0. -1.
         -1    1    6    6    0  503 -0.60797296547E+02 -0.50787477918E+02  0.70674376602E+02  0.10616283101E+03  0.00000000000E+00 0.  1.
<mgrwt>
<rscale>  0 0.17817398E+04</rscale>
<asrwt>0</asrwt>
<pdfrwt beam="1">  1        1 0.30994923E+00 0.17817398E+04</pdfrwt>
<pdfrwt beam="2">  1       -1 0.60605399E-01 0.17817398E+04</pdfrwt>
<totfact> 0.76006535E+00</totfact>
</mgrwt>
</event>
<event>
12    3  0.4192740E-008  0.2470920E+04  0.7818608E-02  0.8413419E-01
         -2   -1    0    0    0  501 -0.00000000000E+00  0.00000000000E+00  0.11925694131E+04  0.11925694131E+04  0.00000000000E+00 0. -1.
          2   -1    0    0  501    0  0.00000000000E+00 -0.00000000000E+00 -0.12798928447E+04  0.12798928447E+04  0.00000000000E+00 0.  1.
         23    2    1    2    0    0 -0.63756742719E+03 -0.31532636524E+03 -0.84028096110E+03  0.11046210624E+04  0.90513297395E+02 0.  0.
        254    2    1    2    0    0  0.63756742719E+03  0.31532636524E+03  0.75295752949E+03  0.13678411954E+04  0.89337649057E+03 0.  0.
         23    2    4    4    0    0  0.22501111314E+03  0.20156110683E+03 -0.16062777537E+03  0.35388945478E+03  0.90441048017E+02 0.  0.
         23    2    4    4    0    0  0.41255631405E+03  0.11376525841E+03  0.91358530486E+03  0.10139517407E+04  0.10156168985E+03 0.  0.
          2    1    3    3  502    0 -0.83744023988E+02 -0.97811944870E+01 -0.90852837214E+02  0.12394745398E+03  0.00000000000E+00 0. -1.
         -2    1    3    3    0  502 -0.55382340320E+03 -0.30554517075E+03 -0.74942812389E+03  0.98067360838E+03  0.00000000000E+00 0.  1.
         13    1    5    5    0    0  0.13710890838E+03  0.89603979418E+02 -0.43281882381E+02  0.16941383423E+03  0.00000000000E+00 0.  1.
        -13    1    5    5    0    0  0.87902204756E+02  0.11195712741E+03 -0.11734589299E+03  0.18447562056E+03  0.00000000000E+00 0. -1.
          1    1    6    6  503    0  0.15933524035E+03  0.91765476852E+02  0.42924139956E+03  0.46696552406E+03  0.00000000000E+00 0. -1.
         -1    1    6    6    0  503  0.25322107370E+03  0.21999781561E+02  0.48434390530E+03  0.54698621660E+03  0.00000000000E+00 0.  1.
<mgrwt>
<rscale>  0 0.24709197E+04</rscale>
<asrwt>0</asrwt>
<pdfrwt beam="1">  1        2 0.19690659E+00 0.24709197E+04</pdfrwt>
<pdfrwt beam="2">  1       -2 0.18347222E+00 0.24709197E+04</pdfrwt>
<totfact> 0.26062860E+00</totfact>
</mgrwt>
</event>
<event>
12    3  0.4192740E-008  0.1251159E+04  0.7818608E-02  0.9069219E-01
          2   -1    0    0  501    0  0.00000000000E+00  0.00000000000E+00  0.12812042877E+04  0.12812042877E+04  0.00000000000E+00 0. -1.
         -2   -1    0    0    0  501 -0.00000000000E+00 -0.00000000000E+00 -0.30545480954E+03  0.30545480954E+03  0.00000000000E+00 0.  1.
         23    2    1    2    0    0 -0.19413909005E+03  0.11563736217E+02  0.52393924220E+03  0.56598002811E+03  0.89427939836E+02 0.  0.
        254    2    1    2    0    0  0.19413909005E+03 -0.11563736217E+02  0.45181023601E+03  0.10206790692E+04  0.89433191075E+03 0.  0.
         23    2    4    4    0    0 -0.17220340394E+01 -0.42908558344E+03  0.28276909758E+03  0.52117029625E+03  0.86848787127E+02 0.  0.
         23    2    4    4    0    0  0.19586112409E+03  0.41752184723E+03  0.16904113843E+03  0.49950877292E+03  0.90818692468E+02 0.  0.
          1    1    3    3  502    0 -0.12057548516E+03  0.26602507191E+02  0.41988537886E+03  0.43766410910E+03  0.00000000000E+00 0. -1.
         -1    1    3    3    0  502 -0.73563604891E+02 -0.15038770974E+02  0.10405386334E+03  0.12831591902E+03  0.00000000000E+00 0.  1.
         13    1    5    5    0    0  0.16877326074E+02 -0.21856459687E+03  0.96718064454E+02  0.23960323690E+03  0.00000000000E+00 0. -1.
        -13    1    5    5    0    0 -0.18599360113E+02 -0.21052098658E+03  0.18605103312E+03  0.28156705935E+03  0.00000000000E+00 0.  1.
          3    1    6    6  503    0  0.14464414987E+03  0.30336991487E+03  0.16480782729E+03  0.37432186054E+03  0.00000000000E+00 0. -1.
         -3    1    6    6    0  503  0.51216974222E+02  0.11415193235E+03  0.42333111404E+01  0.12518691238E+03  0.00000000000E+00 0.  1.
<mgrwt>
<rscale>  0 0.12511595E+04</rscale>
<asrwt>0</asrwt>
<pdfrwt beam="1">  1        2 0.19710835E+00 0.12511595E+04</pdfrwt>
<pdfrwt beam="2">  1       -2 0.46993048E-01 0.12511595E+04</pdfrwt>
<totfact> 0.71544643E+01</totfact>
</mgrwt>
</event>
<event>
12    3  0.4192740E-008  0.2295708E+04  0.7818608E-02  0.8479615E-01
         -2   -1    0    0    0  501 -0.00000000000E+00  0.00000000000E+00  0.57430520835E+03  0.57430520835E+03  0.00000000000E+00 0.  1.
          2   -1    0    0  501    0  0.00000000000E+00 -0.00000000000E+00 -0.22941958970E+04  0.22941958970E+04  0.00000000000E+00 0. -1.
         23    2    1    2    0    0 -0.16003258889E+03  0.96508409482E+02  0.46170932883E+03  0.50640513585E+03  0.91358385911E+02 0.  0.
        254    2    1    2    0    0  0.16003258889E+03 -0.96508409482E+02 -0.21816000175E+04  0.23620959696E+04  0.88611197391E+03 0.  0.
         23    2    4    4    0    0  0.43837686127E+03  0.19801941925E+03 -0.11859966045E+04  0.12831331715E+04  0.91961008865E+02 0.  0.
         23    2    4    4    0    0 -0.27834427238E+03 -0.29452782873E+03 -0.99560341305E+03  0.10789627980E+04  0.93340171325E+02 0.  0.
          4    1    3    3  502    0 -0.18790976713E+02 -0.10746813802E+02  0.16644128590E+02  0.27306076782E+02  0.00000000000E+00 0. -1.
         -4    1    3    3    0  502 -0.14124161217E+03  0.10725522328E+03  0.44506520024E+03  0.47909905906E+03  0.00000000000E+00 0.  1.
         13    1    5    5    0    0  0.52797774277E+02 -0.44317304551E+01 -0.15970596461E+03  0.16826538663E+03  0.00000000000E+00 0. -1.
        -13    1    5    5    0    0  0.38557908699E+03  0.20245114970E+03 -0.10262906399E+04  0.11148677849E+04  0.00000000000E+00 0.  1.
          3    1    6    6  503    0 -0.51053325464E+02 -0.31126877182E+02 -0.83028252282E+02  0.10231820562E+03  0.00000000000E+00 0. -1.
         -3    1    6    6    0  503 -0.22729094692E+03 -0.26340095155E+03 -0.91257516077E+03  0.97664459241E+03  0.00000000000E+00 0.  1.
<mgrwt>
<rscale>  0 0.22957079E+04</rscale>
<asrwt>0</asrwt>
<pdfrwt beam="1">  1        2 0.35295321E+00 0.22957079E+04</pdfrwt>
<pdfrwt beam="2">  1       -2 0.88354650E-01 0.22957079E+04</pdfrwt>
<totfact> 0.45679570E+00</totfact>
</mgrwt>
</event>
<event>
12    3  0.4192740E-008  0.1690267E+04  0.7818608E-02  0.8766935E-01
          1   -1    0    0  501    0  0.00000000000E+00  0.00000000000E+00  0.11646106896E+04  0.11646106896E+04  0.00000000000E+00 0.  1.
         -1   -1    0    0    0  501 -0.00000000000E+00 -0.00000000000E+00 -0.61329527512E+03  0.61329527512E+03  0.00000000000E+00 0. -1.
         23    2    1    2    0    0 -0.45568327827E+03  0.36447996021E+03  0.35389001822E+03  0.68778326308E+03  0.85526490007E+02 0.  0.
        254    2    1    2    0    0  0.45568327827E+03 -0.36447996021E+03  0.19742539623E+03  0.10901227016E+04  0.89938747268E+03 0.  0.
         23    2    4    4    0    0 -0.18799723614E+03  0.12575541183E+03 -0.25819715710E+02  0.24554812088E+03  0.92031720332E+02 0.  0.
         23    2    4    4    0    0  0.64368051441E+03 -0.49023537204E+03  0.22324511194E+03  0.84457458073E+03  0.93875011498E+02 0.  0.
          1    1    3    3  502    0 -0.62822449775E+02  0.56643885286E+02  0.88838956969E+02  0.12266845646E+03  0.00000000000E+00 0. -1.
         -1    1    3    3    0  502 -0.39286082849E+03  0.30783607492E+03  0.26505106125E+03  0.56511480661E+03  0.00000000000E+00 0.  1.
         13    1    5    5    0    0 -0.15812582483E+03  0.10523992833E+03 -0.56388855141E+02  0.19813864332E+03  0.00000000000E+00 0.  1.
        -13    1    5    5    0    0 -0.29871411315E+02  0.20515483502E+02  0.30569139431E+02  0.47409477563E+02  0.00000000000E+00 0. -1.
          4    1    6    6  503    0  0.86166845006E+02 -0.10034921281E+03  0.58301075635E+02  0.14454654998E+03  0.00000000000E+00 0. -1.
         -4    1    6    6    0  503  0.55751366940E+03 -0.38988615923E+03  0.16494403630E+03  0.70002803075E+03  0.00000000000E+00 0.  1.
<mgrwt>
<rscale>  0 0.16902665E+04</rscale>
<asrwt>0</asrwt>
<pdfrwt beam="1">  1        1 0.17917088E+00 0.16902665E+04</pdfrwt>
<pdfrwt beam="2">  1       -1 0.94353119E-01 0.16902665E+04</pdfrwt>
<totfact> 0.11750859E+01</totfact>
</mgrwt>
</event>
<event>
12    3  0.4192740E-008  0.1814148E+04  0.7818608E-02  0.8698812E-01
          2   -1    0    0  501    0  0.00000000000E+00  0.00000000000E+00  0.14891353009E+04  0.14891353009E+04  0.00000000000E+00 0. -1.
         -2   -1    0    0    0  501 -0.00000000000E+00 -0.00000000000E+00 -0.55252429530E+03  0.55252429530E+03  0.00000000000E+00 0.  1.
         23    2    1    2    0    0 -0.48991886944E+03  0.39842848403E+03  0.59140737958E+02  0.64357908197E+03  0.10922752555E+03 0.  0.
        254    2    1    2    0    0  0.48991886944E+03 -0.39842848403E+03  0.87747026768E+03  0.13980805143E+04  0.88651525548E+03 0.  0.
         23    2    4    4    0    0  0.98880597724E+02 -0.29525550336E+03 -0.97588814860E+02  0.33887018358E+03  0.91412469954E+02 0.  0.
         23    2    4    4    0    0  0.39103827172E+03 -0.10317298067E+03  0.97505908254E+03  0.10592103307E+04  0.87353971345E+02 0.  0.
          3    1    3    3  502    0 -0.65119341237E+02  0.26598515432E+02  0.34872355388E+02  0.78511723944E+02  0.00000000000E+00 0. -1.
         -3    1    3    3    0  502 -0.42479952821E+03  0.37182996860E+03  0.24268382570E+02  0.56506735803E+03  0.00000000000E+00 0.  1.
         13    1    5    5    0    0  0.92870517518E+02 -0.18302360133E+03 -0.95720652026E+02  0.22646195021E+03  0.00000000000E+00 0. -1.
        -13    1    5    5    0    0  0.60100802055E+01 -0.11223190203E+03 -0.18681628341E+01  0.11240823337E+03  0.00000000000E+00 0.  1.
          2    1    6    6  503    0  0.70205924076E+02  0.10237508556E+02  0.21631165074E+03  0.22764974984E+03  0.00000000000E+00 0.  1.
         -2    1    6    6    0  503  0.32083234764E+03 -0.11341048923E+03  0.75874743180E+03  0.83156058085E+03  0.00000000000E+00 0. -1.
<mgrwt>
<rscale>  0 0.18141482E+04</rscale>
<asrwt>0</asrwt>
<pdfrwt beam="1">  1        2 0.22909774E+00 0.18141482E+04</pdfrwt>
<pdfrwt beam="2">  1       -2 0.85003738E-01 0.18141482E+04</pdfrwt>
<totfact> 0.14627551E+01</totfact>
</mgrwt>
</event>
<event>
12    3  0.4192740E-008  0.1847040E+04  0.7818608E-02  0.8681677E-01
         -2   -1    0    0    0  501 -0.00000000000E+00  0.00000000000E+00  0.45835243804E+03  0.45835243804E+03  0.00000000000E+00 0.  1.
          2   -1    0    0  501    0  0.00000000000E+00 -0.00000000000E+00 -0.18607705740E+04  0.18607705740E+04  0.00000000000E+00 0. -1.
         23    2    1    2    0    0 -0.20816997837E+03 -0.44327613066E+03  0.79782347732E+02  0.50485432858E+03  0.93189066760E+02 0.  0.
        254    2    1    2    0    0  0.20816997837E+03  0.44327613066E+03 -0.14822004837E+04  0.18142686834E+04  0.92456698730E+03 0.  0.
         23    2    4    4    0    0  0.41736016504E+03 -0.10716856719E+03 -0.50713718302E+03  0.67159819493E+03  0.90451113120E+02 0.  0.
         23    2    4    4    0    0 -0.20919018667E+03  0.55044469786E+03 -0.97506330064E+03  0.11426704885E+04  0.90540076453E+02 0.  0.
          4    1    3    3  502    0 -0.81811279321E+02 -0.10173630237E+03  0.48804153445E+02  0.13937433780E+03  0.00000000000E+00 0. -1.
         -4    1    3    3    0  502 -0.12635869905E+03 -0.34153982830E+03  0.30978194287E+02  0.36547999078E+03  0.00000000000E+00 0.  1.
         13    1    5    5    0    0  0.93799785164E+02  0.10489029935E+02 -0.86496182682E+02  0.12802347076E+03  0.00000000000E+00 0.  1.
        -13    1    5    5    0    0  0.32356037988E+03 -0.11765759713E+03 -0.42064100034E+03  0.54357472417E+03  0.00000000000E+00 0. -1.
          2    1    6    6  503    0 -0.20165532814E+03  0.45565057537E+03 -0.85386911430E+03  0.98862266946E+03  0.00000000000E+00 0. -1.
         -2    1    6    6    0  503 -0.75348585288E+01  0.94794122490E+02 -0.12119418634E+03  0.15404781905E+03  0.00000000000E+00 0.  1.
<mgrwt>
<rscale>  0 0.18470395E+04</rscale>
<asrwt>0</asrwt>
<pdfrwt beam="1">  1        2 0.28627239E+00 0.18470395E+04</pdfrwt>
<pdfrwt beam="2">  1       -2 0.70515760E-01 0.18470395E+04</pdfrwt>
<totfact> 0.13734937E+01</totfact>
</mgrwt>
</event>
<event>
12    3  0.4192740E-008  0.2074495E+04  0.7818608E-02  0.8572562E-01
          2   -1    0    0  501    0  0.00000000000E+00  0.00000000000E+00  0.17298933283E+04  0.17298933283E+04  0.00000000000E+00 0. -1.
         -2   -1    0    0    0  501 -0.00000000000E+00 -0.00000000000E+00 -0.62193573279E+03  0.62193573279E+03  0.00000000000E+00 0.  1.
         23    2    1    2    0    0  0.27396676067E+03 -0.79022232013E+03  0.34207448627E+03  0.90826855536E+03  0.91802577974E+02 0.  0.
        254    2    1    2    0    0 -0.27396676067E+03  0.79022232013E+03  0.76588310926E+03  0.14435605058E+04  0.89318581244E+03 0.  0.
         23    2    4    4    0    0  0.30522478459E+03  0.40477633491E+03  0.40186461265E+03  0.65309781110E+03  0.89641137466E+02 0.  0.
         23    2    4    4    0    0 -0.57919154526E+03  0.38544598522E+03  0.36401849661E+03  0.79046269466E+03  0.91051370924E+02 0.  0.
          2    1    3    3  502    0  0.23976096029E+03 -0.61234994520E+03  0.29723695787E+03  0.72166999562E+03  0.00000000000E+00 0.  1.
         -2    1    3    3    0  502  0.34205800380E+02 -0.17787237493E+03  0.44837528405E+02  0.18659855974E+03  0.00000000000E+00 0. -1.
         13    1    5    5    0    0  0.21898510935E+02  0.82573486378E+02  0.75723438138E+02  0.11415763013E+03  0.00000000000E+00 0. -1.
        -13    1    5    5    0    0  0.28332627366E+03  0.32220284854E+03  0.32614117451E+03  0.53894018097E+03  0.00000000000E+00 0.  1.
          2    1    6    6  503    0 -0.48929187671E+03  0.30656053242E+03  0.26551775832E+03  0.63551992938E+03  0.00000000000E+00 0. -1.
         -2    1    6    6    0  503 -0.89899668546E+02  0.78885452795E+02  0.98500738288E+02  0.15494276527E+03  0.00000000000E+00 0.  1.
<mgrwt>
<rscale>  0 0.20744951E+04</rscale>
<asrwt>0</asrwt>
<pdfrwt beam="1">  1        2 0.26613743E+00 0.20744951E+04</pdfrwt>
<pdfrwt beam="2">  1       -2 0.95682421E-01 0.20744951E+04</pdfrwt>
<totfact> 0.79885451E+00</totfact>
</mgrwt>
</event>
<event>
12    3  0.4192740E-008  0.2193973E+04  0.7818608E-02  0.8520941E-01
         -2   -1    0    0    0  501 -0.00000000000E+00  0.00000000000E+00  0.72587454484E+03  0.72587454484E+03  0.00000000000E+00 0.  1.
          2   -1    0    0  501    0  0.00000000000E+00 -0.00000000000E+00 -0.16578332795E+04  0.16578332795E+04  0.00000000000E+00 0. -1.
         23    2    1    2    0    0  0.86418483062E+03 -0.32720836517E+01 -0.70480683945E+03  0.11189550934E+04  0.92096102920E+02 0.  0.
        254    2    1    2    0    0 -0.86418483062E+03  0.32720836517E+01 -0.22715189518E+03  0.12647527309E+04  0.89508399537E+03 0.  0.
         23    2    4    4    0    0 -0.82676010511E+03  0.23695608179E+03  0.78044983112E+02  0.86815085323E+03  0.88963073664E+02 0.  0.
         23    2    4    4    0    0 -0.37424725506E+02 -0.23368399814E+03 -0.30519687829E+03  0.39660187764E+03  0.90216926157E+02 0.  0.
          2    1    3    3  502    0  0.73781648960E+03  0.20743468489E+02 -0.62815987803E+03  0.96922045799E+03  0.00000000000E+00 0. -1.
         -2    1    3    3    0  502  0.12636834102E+03 -0.24015552141E+02 -0.76646961413E+02  0.14973463544E+03  0.00000000000E+00 0.  1.
         13    1    5    5    0    0 -0.58868606164E+03  0.13451363910E+03  0.30356247595E+02  0.60462112106E+03  0.00000000000E+00 0. -1.
        -13    1    5    5    0    0 -0.23807404348E+03  0.10244244269E+03  0.47688735517E+02  0.26352973217E+03  0.00000000000E+00 0.  1.
          1    1    6    6  503    0 -0.15925936407E+02 -0.22447001945E+03 -0.24839328322E+03  0.33517107308E+03  0.00000000000E+00 0. -1.
         -1    1    6    6    0  503 -0.21498789099E+02 -0.92139786900E+01 -0.56803595067E+02  0.61430804557E+02  0.00000000000E+00 0.  1.
<mgrwt>
<rscale>  0 0.21939726E+04</rscale>
<asrwt>0</asrwt>
<pdfrwt beam="1">  1        2 0.25505127E+00 0.21939726E+04</pdfrwt>
<pdfrwt beam="2">  1       -2 0.11167301E+00 0.21939726E+04</pdfrwt>
<totfact> 0.59968083E+00</totfact>
</mgrwt>
</event>
<event>
12    3  0.4192740E-008  0.1411967E+04  0.7818608E-02  0.8945201E-01
          3   -1    0    0  501    0  0.00000000000E+00  0.00000000000E+00  0.13162128106E+04  0.13162128106E+04  0.00000000000E+00 0. -1.
         -3   -1    0    0    0  501 -0.00000000000E+00 -0.00000000000E+00 -0.37867207285E+03  0.37867207285E+03  0.00000000000E+00 0.  1.
         23    2    1    2    0    0 -0.22436068359E+03  0.35471316647E+03  0.31694041649E+03  0.53400190355E+03  0.92453548252E+02 0.  0.
        254    2    1    2    0    0  0.22436068359E+03 -0.35471316647E+03  0.62060032127E+03  0.11608829799E+04  0.88676117838E+03 0.  0.
         23    2    4    4    0    0 -0.16857523789E+03 -0.17184588713E+03 -0.13086667013E+03  0.28842678083E+03  0.90084975415E+02 0.  0.
         23    2    4    4    0    0  0.39293592148E+03 -0.18286727934E+03  0.75146699141E+03  0.87245619909E+03  0.92941378875E+02 0.  0.
          4    1    3    3  502    0 -0.10265456237E+03  0.10304588990E+03  0.14726940551E+03  0.20698959491E+03  0.00000000000E+00 0.  1.
         -4    1    3    3    0  502 -0.12170612122E+03  0.25166727657E+03  0.16967101098E+03  0.32701230864E+03  0.00000000000E+00 0. -1.
         13    1    5    5    0    0 -0.13395182027E+03 -0.17049571435E+03 -0.89766799969E+02  0.23466988972E+03  0.00000000000E+00 0.  1.
        -13    1    5    5    0    0 -0.34623417622E+02 -0.13501727799E+01 -0.41099870163E+02  0.53756891110E+02  0.00000000000E+00 0. -1.
          3    1    6    6  503    0  0.98699604078E+02 -0.75174202400E+02  0.15347476111E+03  0.19735063934E+03  0.00000000000E+00 0. -1.
         -3    1    6    6    0  503  0.29423631740E+03 -0.10769307694E+03  0.59799223030E+03  0.67510555974E+03  0.00000000000E+00 0.  1.
<mgrwt>
<rscale>  0 0.14119675E+04</rscale>
<asrwt>0</asrwt>
<pdfrwt beam="1">  1        3 0.20249428E+00 0.14119675E+04</pdfrwt>
<pdfrwt beam="2">  1       -3 0.58257242E-01 0.14119675E+04</pdfrwt>
<totfact> 0.10466669E+00</totfact>
</mgrwt>
</event>
<event>
12    3  0.4192740E-008  0.2223964E+04  0.7818608E-02  0.8508520E-01
         -1   -1    0    0    0  501 -0.00000000000E+00  0.00000000000E+00  0.79390200070E+03  0.79390200070E+03  0.00000000000E+00 0.  1.
          1   -1    0    0  501    0  0.00000000000E+00 -0.00000000000E+00 -0.15575017652E+04  0.15575017652E+04  0.00000000000E+00 0. -1.
         23    2    1    2    0    0 -0.45696934963E+03  0.80201851716E+03 -0.27630634795E+03  0.96764858870E+03  0.89128586412E+02 0.  0.
        254    2    1    2    0    0  0.45696934963E+03 -0.80201851716E+03 -0.48729341654E+03  0.13837551772E+04  0.90844307926E+03 0.  0.
         23    2    4    4    0    0  0.64809174541E+03 -0.85527190796E+03 -0.37536573453E+03  0.11405172092E+04  0.91471978209E+02 0.  0.
         23    2    4    4    0    0 -0.19112239577E+03  0.53253390800E+02 -0.11192768201E+03  0.24323796801E+03  0.85283112536E+02 0.  0.
          2    1    3    3  502    0 -0.18186732334E+03  0.38235401506E+03 -0.15939910819E+03  0.45241396069E+03  0.00000000000E+00 0. -1.
         -2    1    3    3    0  502 -0.27510202629E+03  0.41966450209E+03 -0.11690723977E+03  0.51523462801E+03  0.00000000000E+00 0.  1.
         13    1    5    5    0    0  0.14815499464E+03 -0.25835541478E+03 -0.87808327619E+02  0.31049593424E+03  0.00000000000E+00 0. -1.
        -13    1    5    5    0    0  0.49993675077E+03 -0.59691649318E+03 -0.28755740691E+03  0.83002127495E+03  0.00000000000E+00 0.  1.
          3    1    6    6  503    0 -0.40093436532E+02  0.94520116273E+01  0.12130310579E+02  0.42941455629E+02  0.00000000000E+00 0. -1.
         -3    1    6    6    0  503 -0.15102895924E+03  0.43801379172E+02 -0.12405799259E+03  0.20029651238E+03  0.00000000000E+00 0.  1.
<mgrwt>
<rscale>  0 0.22239638E+04</rscale>
<asrwt>0</asrwt>
<pdfrwt beam="1">  1        1 0.23961566E+00 0.22239638E+04</pdfrwt>
<pdfrwt beam="2">  1       -1 0.12213877E+00 0.22239638E+04</pdfrwt>
<totfact> 0.32189112E+00</totfact>
</mgrwt>
</event>
<event>
12    3  0.4192740E-008  0.2617734E+04  0.7818608E-02  0.8362202E-01
          2   -1    0    0  501    0  0.00000000000E+00  0.00000000000E+00  0.15098152496E+04  0.15098152496E+04  0.00000000000E+00 0.  1.
         -2   -1    0    0    0  501 -0.00000000000E+00 -0.00000000000E+00 -0.11346639424E+04  0.11346639424E+04  0.00000000000E+00 0. -1.
         23    2    1    2    0    0 -0.27035016818E+02  0.63180126197E+03  0.11400476823E+04  0.13069043417E+04  0.91577909424E+02 0.  0.
        254    2    1    2    0    0  0.27035016818E+02 -0.63180126197E+03 -0.76489637513E+03  0.13375748504E+04  0.89673646575E+03 0.  0.
         23    2    4    4    0    0  0.82467750847E+02 -0.60450090729E+03 -0.94422543685E+03  0.11278758071E+04  0.91213397197E+02 0.  0.
         23    2    4    4    0    0 -0.55432734029E+02 -0.27300354684E+02  0.17932906172E+03  0.20969904330E+03  0.89424152309E+02 0.  0.
          3    1    3    3  502    0 -0.34624832180E+02  0.80669354370E+02  0.15850603816E+03  0.18119212972E+03  0.00000000000E+00 0. -1.
         -3    1    3    3    0  502  0.75898153623E+01  0.55113190760E+03  0.98154164418E+03  0.11257122119E+04  0.00000000000E+00 0.  1.
         13    1    5    5    0    0 -0.17363777856E+02 -0.81416826225E+02 -0.10573930297E+03  0.13457711755E+03  0.00000000000E+00 0.  1.
        -13    1    5    5    0    0  0.99831528703E+02 -0.52308408106E+03 -0.83848613387E+03  0.99329868956E+03  0.00000000000E+00 0. -1.
          1    1    6    6  503    0 -0.11506381526E+02 -0.52747979405E+02  0.12019611869E+03  0.13176438477E+03  0.00000000000E+00 0. -1.
         -1    1    6    6    0  503 -0.43926352503E+02  0.25447624721E+02  0.59132943030E+02  0.77934658526E+02  0.00000000000E+00 0.  1.
<mgrwt>
<rscale>  0 0.26177341E+04</rscale>
<asrwt>0</asrwt>
<pdfrwt beam="1">  1        2 0.23227927E+00 0.26177341E+04</pdfrwt>
<pdfrwt beam="2">  1       -2 0.17456368E+00 0.26177341E+04</pdfrwt>
<totfact> 0.21907235E+00</totfact>
</mgrwt>
</event>
<event>
12    3  0.4192740E-008  0.1477404E+04  0.7818608E-02  0.8899620E-01
         -2   -1    0    0    0  501 -0.00000000000E+00  0.00000000000E+00  0.99888235757E+03  0.99888235757E+03  0.00000000000E+00 0. -1.
          2   -1    0    0  501    0  0.00000000000E+00 -0.00000000000E+00 -0.54629118811E+03  0.54629118811E+03  0.00000000000E+00 0.  1.
         23    2    1    2    0    0  0.17385643790E+03 -0.36397886215E+03  0.39019401076E+03  0.56883410487E+03  0.92812713258E+02 0.  0.
        254    2    1    2    0    0 -0.17385643790E+03  0.36397886215E+03  0.62397158708E+02  0.97633944081E+03  0.88692650494E+03 0.  0.
         23    2    4    4    0    0 -0.25583241470E+03  0.45628131141E+03  0.36033557858E+03  0.64200386522E+03  0.93189989914E+02 0.  0.
         23    2    4    4    0    0  0.81975976798E+02 -0.92302449259E+02 -0.29793841987E+03  0.33433557559E+03  0.88165595091E+02 0.  0.
          1    1    3    3  502    0  0.14258653785E+03 -0.24532676220E+03  0.31913521928E+03  0.42704031334E+03  0.00000000000E+00 0. -1.
         -1    1    3    3    0  502  0.31269900049E+02 -0.11865209995E+03  0.71058791473E+02  0.14179379153E+03  0.00000000000E+00 0.  1.
         13    1    5    5    0    0 -0.15283694987E+03  0.25100234803E+03  0.14720771537E+03  0.32868134025E+03  0.00000000000E+00 0.  1.
        -13    1    5    5    0    0 -0.10299546483E+03  0.20527896338E+03  0.21312786321E+03  0.31332252497E+03  0.00000000000E+00 0. -1.
          3    1    6    6  503    0 -0.55962734039E+01  0.31426032817E+01 -0.83958616946E+02  0.84203584193E+02  0.00000000000E+00 0. -1.
         -3    1    6    6    0  503  0.87572250201E+02 -0.95445052540E+02 -0.21397980292E+03  0.25013199139E+03  0.00000000000E+00 0.  1.
<mgrwt>
<rscale>  0 0.14774040E+04</rscale>
<asrwt>0</asrwt>
<pdfrwt beam="1">  1        2 0.84044798E-01 0.14774040E+04</pdfrwt>
<pdfrwt beam="2">  1       -2 0.15367421E+00 0.14774040E+04</pdfrwt>
<totfact> 0.15074642E+01</totfact>
</mgrwt>
</event>
<event>
12    3  0.4192740E-008  0.1716057E+04  0.7818608E-02  0.8752259E-01
         -1   -1    0    0    0  501 -0.00000000000E+00  0.00000000000E+00  0.95070271335E+03  0.95070271335E+03  0.00000000000E+00 0.  1.
          1   -1    0    0  501    0  0.00000000000E+00 -0.00000000000E+00 -0.77438793044E+03  0.77438793044E+03  0.00000000000E+00 0. -1.
         23    2    1    2    0    0 -0.11389544191E+03 -0.17465104369E+03  0.54433289772E+03  0.59008434203E+03  0.91793618595E+02 0.  0.
        254    2    1    2    0    0  0.11389544191E+03  0.17465104369E+03 -0.36801811482E+03  0.11350063018E+04  0.10532458466E+04 0.  0.
         23    2    4    4    0    0  0.31686019284E+03  0.53077237193E+02 -0.66549087541E+03  0.74415159908E+03  0.87555252540E+02 0.  0.
         23    2    4    4    0    0 -0.20296475093E+03  0.12157380650E+03  0.29747276060E+03  0.39085470267E+03  0.91117916755E+02 0.  0.
          3    1    3    3  502    0 -0.68707830552E+02 -0.35254861042E+02  0.24363488775E+03  0.25558096513E+03  0.00000000000E+00 0. -1.
         -3    1    3    3    0  502 -0.45187611357E+02 -0.13939618265E+03  0.30069800997E+03  0.33450337690E+03  0.00000000000E+00 0.  1.
         13    1    5    5    0    0  0.16977451092E+03 -0.14517494289E+02 -0.36574632849E+03  0.40349041996E+03  0.00000000000E+00 0.  1.
        -13    1    5    5    0    0  0.14708568192E+03  0.67594731482E+02 -0.29974454693E+03  0.34066117912E+03  0.00000000000E+00 0. -1.
          1    1    6    6  503    0 -0.13038142801E+03  0.45551730124E+02  0.22200971474E+03  0.26146240710E+03  0.00000000000E+00 0. -1.
         -1    1    6    6    0  503 -0.72583322918E+02  0.76022076376E+02  0.75463045856E+02  0.12939229557E+03  0.00000000000E+00 0.  1.
<mgrwt>
<rscale>  0 0.17160568E+04</rscale>
<asrwt>0</asrwt>
<pdfrwt beam="1">  1        1 0.11913661E+00 0.17160568E+04</pdfrwt>
<pdfrwt beam="2">  1       -1 0.14626196E+00 0.17160568E+04</pdfrwt>
<totfact> 0.82642007E+00</totfact>
</mgrwt>
</event>
<event>
12    3  0.4192740E-008  0.2156765E+04  0.7818608E-02  0.8536642E-01
         -2   -1    0    0    0  501 -0.00000000000E+00  0.00000000000E+00  0.95414719137E+03  0.95414719137E+03  0.00000000000E+00 0.  1.
          2   -1    0    0  501    0  0.00000000000E+00 -0.00000000000E+00 -0.12187936310E+04  0.12187936310E+04  0.00000000000E+00 0. -1.
         23    2    1    2    0    0  0.80058026323E+03 -0.28019875578E+03  0.15111363713E+03  0.86645110361E+03  0.91989580981E+02 0.  0.
        254    2    1    2    0    0 -0.80058026323E+03  0.28019875578E+03 -0.41576007680E+03  0.13064897188E+04  0.90256237639E+03 0.  0.
         23    2    4    4    0    0 -0.36406655331E+03  0.50465255088E+03  0.40902590613E+02  0.63005171820E+03  0.89852620090E+02 0.  0.
         23    2    4    4    0    0 -0.43651370993E+03 -0.22445379510E+03 -0.45666266742E+03  0.67643800061E+03  0.90021396175E+02 0.  0.
          2    1    3    3  502    0  0.20151802553E+02 -0.16739302905E+02 -0.82747221782E+01  0.27473085647E+02  0.00000000000E+00 0.  1.
         -2    1    3    3    0  502  0.78042846068E+03 -0.26345945287E+03  0.15938835931E+03  0.83897801796E+03  0.00000000000E+00 0. -1.
         13    1    5    5    0    0 -0.35532005397E+03  0.45620910247E+03  0.26936771794E+02  0.57888226403E+03  0.00000000000E+00 0.  1.
        -13    1    5    5    0    0 -0.87464993303E+01  0.48443448409E+02  0.13965818819E+02  0.51169454165E+02  0.00000000000E+00 0. -1.
          4    1    6    6  503    0 -0.13587192530E+02 -0.29258030832E+02 -0.40782506642E+02  0.51998625146E+02  0.00000000000E+00 0. -1.
         -4    1    6    6    0  503 -0.42292651740E+03 -0.19519576427E+03 -0.41588016078E+03  0.62443937547E+03  0.00000000000E+00 0.  1.
<mgrwt>
<rscale>  0 0.21567647E+04</rscale>
<asrwt>0</asrwt>
<pdfrwt beam="1">  1        2 0.18750671E+00 0.21567647E+04</pdfrwt>
<pdfrwt beam="2">  1       -2 0.14679188E+00 0.21567647E+04</pdfrwt>
<totfact> 0.53719807E+00</totfact>
</mgrwt>
</event>
<event>
12    3  0.4192740E-008  0.1769292E+04  0.7818608E-02  0.8722802E-01
          3   -1    0    0  501    0  0.00000000000E+00  0.00000000000E+00  0.25250393706E+04  0.25250393706E+04  0.00000000000E+00 0. -1.
         -3   -1    0    0    0  501 -0.00000000000E+00 -0.00000000000E+00 -0.30993527073E+03  0.30993527073E+03  0.00000000000E+00 0.  1.
         23    2    1    2    0    0  0.30501532984E+03 -0.24691528080E+03 -0.92486617006E+01  0.40309857147E+03  0.91659223482E+02 0.  0.
        254    2    1    2    0    0 -0.30501532984E+03  0.24691528080E+03  0.22243527616E+04  0.24318760699E+04  0.90126272745E+03 0.  0.
         23    2    4    4    0    0 -0.13214319180E+03 -0.32367244666E+03  0.61961387761E+03  0.71750700098E+03  0.93108878561E+02 0.  0.
         23    2    4    4    0    0 -0.17287213804E+03  0.57058772746E+03  0.16047388840E+04  0.17143690689E+04  0.91756676988E+02 0.  0.
          3    1    3    3  502    0  0.18618577871E+03 -0.17760788047E+03  0.32456185149E+02  0.25935132032E+03  0.00000000000E+00 0. -1.
         -3    1    3    3    0  502  0.11882955113E+03 -0.69307400335E+02 -0.41704846850E+02  0.14374725115E+03  0.00000000000E+00 0.  1.
         13    1    5    5    0    0 -0.11509003149E+03 -0.21742469109E+03  0.49572538209E+03  0.55341021503E+03  0.00000000000E+00 0. -1.
        -13    1    5    5    0    0 -0.17053160306E+02 -0.10624775556E+03  0.12388849552E+03  0.16409678595E+03  0.00000000000E+00 0.  1.
          4    1    6    6  503    0 -0.17384829534E+03  0.49227868076E+03  0.13336800372E+04  0.14322234361E+04  0.00000000000E+00 0. -1.
         -4    1    6    6    0  503  0.97615730560E+00  0.78309046694E+02  0.27105884674E+03  0.28214563273E+03  0.00000000000E+00 0.  1.
<mgrwt>
<rscale>  0 0.17692922E+04</rscale>
<asrwt>0</asrwt>
<pdfrwt beam="1">  1        3 0.38846758E+00 0.17692922E+04</pdfrwt>
<pdfrwt beam="2">  1       -3 0.47682351E-01 0.17692922E+04</pdfrwt>
<totfact> 0.13942292E-01</totfact>
</mgrwt>
</event>
<event>
12    3  0.4192740E-008  0.1172506E+04  0.7818608E-02  0.9137268E-01
         -1   -1    0    0    0  501 -0.00000000000E+00  0.00000000000E+00  0.15003866566E+03  0.15003866566E+03  0.00000000000E+00 0.  1.
          1   -1    0    0  501    0  0.00000000000E+00 -0.00000000000E+00 -0.22906943052E+04  0.22906943052E+04  0.00000000000E+00 0. -1.
         23    2    1    2    0    0 -0.99429386904E+02  0.18551030859E+03 -0.63884802597E+03  0.67867449098E+03  0.90399042286E+02 0.  0.
        254    2    1    2    0    0  0.99429386904E+02 -0.18551030859E+03 -0.15018076136E+04  0.17620584799E+04  0.89728685536E+03 0.  0.
         23    2    4    4    0    0 -0.38683257392E+03 -0.13467470580E+03 -0.58532920798E+03  0.71891608202E+03  0.80332649902E+02 0.  0.
         23    2    4    4    0    0  0.48626196083E+03 -0.50835602790E+02 -0.91647840563E+03  0.10431423979E+04  0.95804181832E+02 0.  0.
          4    1    3    3  502    0 -0.11464474242E+03  0.17772287535E+03 -0.57827093593E+03  0.61573217614E+03  0.00000000000E+00 0. -1.
         -4    1    3    3    0  502  0.15215355519E+02  0.77874332407E+01 -0.60577090040E+02  0.62942314843E+02  0.00000000000E+00 0.  1.
         13    1    5    5    0    0 -0.86108764126E+02 -0.59355441205E+02 -0.11333745783E+03  0.15421792051E+03  0.00000000000E+00 0. -1.
        -13    1    5    5    0    0 -0.30072380980E+03 -0.75319264598E+02 -0.47199175016E+03  0.56469816151E+03  0.00000000000E+00 0.  1.
          1    1    6    6  503    0  0.24026456823E+03 -0.70707190046E+02 -0.42925230507E+03  0.49697496001E+03  0.00000000000E+00 0. -1.
         -1    1    6    6    0  503  0.24599739260E+03  0.19871587256E+02 -0.48722610056E+03  0.54616743789E+03  0.00000000000E+00 0.  1.
<mgrwt>
<rscale>  0 0.11725062E+04</rscale>
<asrwt>0</asrwt>
<pdfrwt beam="1">  1        1 0.35241452E+00 0.11725062E+04</pdfrwt>
<pdfrwt beam="2">  1       -1 0.23082871E-01 0.11725062E+04</pdfrwt>
<totfact> 0.30209360E+01</totfact>
</mgrwt>
</event>
<event>
12    3  0.4192740E-008  0.2541638E+04  0.7818608E-02  0.8388300E-01
          2   -1    0    0  501    0  0.00000000000E+00  0.00000000000E+00  0.10026629183E+04  0.10026629183E+04  0.00000000000E+00 0. -1.
         -2   -1    0    0    0  501 -0.00000000000E+00 -0.00000000000E+00 -0.16106912021E+04  0.16106912021E+04  0.00000000000E+00 0.  1.
         23    2    1    2    0    0  0.86214180742E+03 -0.28489766670E+03  0.39387445434E+03  0.99397638001E+03  0.91633954587E+02 0.  0.
        254    2    1    2    0    0 -0.86214180742E+03  0.28489766670E+03 -0.10019027382E+04  0.16193777404E+04  0.89113410477E+03 0.  0.
         23    2    4    4    0    0  0.21067654511E+02  0.34999169841E+02 -0.60792050804E+03  0.61622742776E+03  0.92196044824E+02 0.  0.
         23    2    4    4    0    0 -0.88320946193E+03  0.24989849686E+03 -0.39398223017E+03  0.10031503126E+04  0.92630122941E+02 0.  0.
          2    1    3    3  502    0  0.68555525749E+03 -0.24686596775E+03  0.34864853641E+03  0.80776520045E+03  0.00000000000E+00 0. -1.
         -2    1    3    3    0  502  0.17658654993E+03 -0.38031698948E+02  0.45225917927E+02  0.18621117956E+03  0.00000000000E+00 0.  1.
         13    1    5    5    0    0  0.36591333034E+01 -0.20371147819E+02 -0.37258349789E+02  0.42621092771E+02  0.00000000000E+00 0. -1.
        -13    1    5    5    0    0  0.17408521208E+02  0.55370317660E+02 -0.57066215825E+03  0.57360633499E+03  0.00000000000E+00 0.  1.
          1    1    6    6  503    0 -0.72192900926E+03  0.19351379636E+03 -0.35719389060E+03  0.82838189217E+03  0.00000000000E+00 0. -1.
         -1    1    6    6    0  503 -0.16128045267E+03  0.56384700498E+02 -0.36788339571E+02  0.17476842047E+03  0.00000000000E+00 0.  1.
<mgrwt>
<rscale>  0 0.25416375E+04</rscale>
<asrwt>0</asrwt>
<pdfrwt beam="1">  1        2 0.15425584E+00 0.25416375E+04</pdfrwt>
<pdfrwt beam="2">  1       -2 0.24779864E+00 0.25416375E+04</pdfrwt>
<totfact> 0.14783293E+00</totfact>
</mgrwt>
</event>
<event>
12    3  0.4192740E-008  0.3619040E+04  0.7818608E-02  0.8086144E-01
         -1   -1    0    0    0  501 -0.00000000000E+00  0.00000000000E+00  0.11501644394E+04  0.11501644394E+04  0.00000000000E+00 0.  1.
          1   -1    0    0  501    0  0.00000000000E+00 -0.00000000000E+00 -0.28468653845E+04  0.28468653845E+04  0.00000000000E+00 0. -1.
         23    2    1    2    0    0 -0.56581396363E+02 -0.15060786900E+04  0.59566505671E+02  0.15109430745E+04  0.89029943331E+02 0.  0.
        254    2    1    2    0    0  0.56581396363E+02  0.15060786900E+04 -0.17562674508E+04  0.24860867494E+04  0.90811755403E+03 0.  0.
         23    2    4    4    0    0 -0.52488268593E+02  0.66062457246E+03 -0.14107743998E+04  0.15619949678E+04  0.10180387146E+03 0.  0.
         23    2    4    4    0    0  0.10906966496E+03  0.84545411752E+03 -0.34549305102E+03  0.92409178161E+03  0.88833078765E+02 0.  0.
          4    1    3    3  502    0 -0.68079768787E+02 -0.92076171251E+03  0.88122113590E+01  0.92331719425E+03  0.00000000000E+00 0.  1.
         -4    1    3    3    0  502  0.11498372424E+02 -0.58531697748E+03  0.50754294312E+02  0.58762588020E+03  0.00000000000E+00 0. -1.
         13    1    5    5    0    0  0.39186132991E+01  0.38272802170E+03 -0.89508640179E+03  0.97348639477E+03  0.00000000000E+00 0.  1.
        -13    1    5    5    0    0 -0.56406881892E+02  0.27789655077E+03 -0.51568799797E+03  0.58850857301E+03  0.00000000000E+00 0. -1.
          2    1    6    6  503    0  0.25848886330E+02  0.79891567408E+02 -0.58231935759E+02  0.10218505668E+03  0.00000000000E+00 0. -1.
         -2    1    6    6    0  503  0.83220778626E+02  0.76556255012E+03 -0.28726111526E+03  0.82190672492E+03  0.00000000000E+00 0.  1.
<mgrwt>
<rscale>  0 0.36190404E+04</rscale>
<asrwt>0</asrwt>
<pdfrwt beam="1">  1        1 0.43797929E+00 0.36190404E+04</pdfrwt>
<pdfrwt beam="2">  1       -1 0.17694838E+00 0.36190404E+04</pdfrwt>
<totfact> 0.13636938E-01</totfact>
</mgrwt>
</event>
<event>
12    3  0.4192740E-008  0.1976873E+04  0.7818608E-02  0.8617510E-01
          2   -1    0    0  501    0  0.00000000000E+00  0.00000000000E+00  0.24773694231E+04  0.24773694231E+04  0.00000000000E+00 0. -1.
         -2   -1    0    0    0  501 -0.00000000000E+00 -0.00000000000E+00 -0.39437276713E+03  0.39437276713E+03  0.00000000000E+00 0.  1.
         23    2    1    2    0    0 -0.50158568414E+03  0.13347830112E+03 -0.25566643964E+02  0.52761298515E+03  0.91198428775E+02 0.  0.
        254    2    1    2    0    0  0.50158568414E+03 -0.13347830112E+03  0.21085633000E+04  0.23441292051E+04  0.88289177420E+03 0.  0.
         23    2    4    4    0    0  0.22398128369E+03 -0.91985064311E+02  0.20195357560E+04  0.20359852015E+04  0.89901074804E+02 0.  0.
         23    2    4    4    0    0  0.27760440044E+03 -0.41493236807E+02  0.89027543929E+02  0.30814400364E+03  0.90779576743E+02 0.  0.
          3    1    3    3  502    0 -0.12218646836E+03  0.74147895962E+02 -0.10426150316E+02  0.14330438980E+03  0.00000000000E+00 0. -1.
         -3    1    3    3    0  502 -0.37939921578E+03  0.59330405156E+02 -0.15140493648E+02  0.38430859535E+03  0.00000000000E+00 0.  1.
         13    1    5    5    0    0  0.17161619554E+03 -0.51430260865E+02  0.11435330086E+04  0.11574821520E+04  0.00000000000E+00 0.  1.
        -13    1    5    5    0    0  0.52365088149E+02 -0.40554803446E+02  0.87600274741E+03  0.87850304952E+03  0.00000000000E+00 0. -1.
          3    1    6    6  503    0  0.21375729644E+03  0.82463199482E+01  0.60158224237E+02  0.22221430089E+03  0.00000000000E+00 0. -1.
         -3    1    6    6    0  503  0.63847104001E+02 -0.49739556755E+02  0.28869319692E+02  0.85929702752E+02  0.00000000000E+00 0.  1.
<mgrwt>
<rscale>  0 0.19768733E+04</rscale>
<asrwt>0</asrwt>
<pdfrwt beam="1">  1        2 0.38113375E+00 0.19768733E+04</pdfrwt>
<pdfrwt beam="2">  1       -2 0.60672735E-01 0.19768733E+04</pdfrwt>
<totfact> 0.84518555E+00</totfact>
</mgrwt>
</event>
<event>
12    3  0.4192740E-008  0.1488197E+04  0.7818608E-02  0.8892340E-01
         -2   -1    0    0    0  501 -0.00000000000E+00  0.00000000000E+00  0.17101348538E+03  0.17101348538E+03  0.00000000000E+00 0.  1.
          2   -1    0    0  501    0  0.00000000000E+00 -0.00000000000E+00 -0.32376543239E+04  0.32376543239E+04  0.00000000000E+00 0. -1.
         23    2    1    2    0    0 -0.18401459206E+03  0.23403642224E+03 -0.15564385701E+03  0.35076937294E+03  0.10089462691E+03 0.  0.
        254    2    1    2    0    0  0.18401459206E+03 -0.23403642224E+03 -0.29109969815E+04  0.30578984363E+04  0.88780910315E+03 0.  0.
         23    2    4    4    0    0 -0.16780115617E+03  0.21306800228E+03 -0.16084217715E+04  0.16336136484E+04  0.90098587175E+02 0.  0.
         23    2    4    4    0    0  0.35181574824E+03 -0.44710442452E+03 -0.13025752099E+04  0.14242847879E+04  0.90599627272E+02 0.  0.
          1    1    3    3  502    0 -0.35373619948E+02  0.15427071713E+02 -0.56524182479E+02  0.68441732406E+02  0.00000000000E+00 0. -1.
         -1    1    3    3    0  502 -0.14864097212E+03  0.21860935053E+03 -0.99119674534E+02  0.28232764053E+03  0.00000000000E+00 0.  1.
         13    1    5    5    0    0 -0.80029764853E+02  0.13026986596E+03 -0.65609681878E+03  0.67367502318E+03  0.00000000000E+00 0.  1.
        -13    1    5    5    0    0 -0.87771391322E+02  0.82798136318E+02 -0.95232495277E+03  0.95993862522E+03  0.00000000000E+00 0. -1.
          2    1    6    6  503    0  0.65975029262E+02 -0.65701767620E+02 -0.14376526337E+03  0.17128303391E+03  0.00000000000E+00 0. -1.
         -2    1    6    6    0  503  0.28584071898E+03 -0.38140265690E+03 -0.11588099466E+04  0.12530017540E+04  0.00000000000E+00 0.  1.
<mgrwt>
<rscale>  0 0.14881970E+04</rscale>
<asrwt>0</asrwt>
<pdfrwt beam="1">  1        2 0.49810064E+00 0.14881970E+04</pdfrwt>
<pdfrwt beam="2">  1       -2 0.26309769E-01 0.14881970E+04</pdfrwt>
<totfact> 0.15649869E+01</totfact>
</mgrwt>
</event>
<event>
12    3  0.4192740E-008  0.1629775E+04  0.7818608E-02  0.8802462E-01
         -2   -1    0    0    0  501 -0.00000000000E+00  0.00000000000E+00  0.87559864153E+03  0.87559864153E+03  0.00000000000E+00 0.  1.
          2   -1    0    0  501    0  0.00000000000E+00 -0.00000000000E+00 -0.75838562173E+03  0.75838562173E+03  0.00000000000E+00 0. -1.
         23    2    1    2    0    0  0.43272981402E+03  0.34973385574E+03  0.10980988434E+03  0.57348030598E+03  0.85162132744E+02 0.  0.
        254    2    1    2    0    0 -0.43272981402E+03 -0.34973385574E+03  0.74031354571E+01  0.10605039573E+04  0.90279841339E+03 0.  0.
         23    2    4    4    0    0  0.26389549746E+03 -0.11206559898E+03 -0.84245352127E+02  0.31326650765E+03  0.94016452864E+02 0.  0.
         23    2    4    4    0    0 -0.69662531148E+03 -0.23766825676E+03  0.91648487584E+02  0.74723744964E+03  0.90505999812E+02 0.  0.
          3    1    3    3  502    0  0.16925960266E+03  0.11875860808E+03  0.16051364068E+01  0.20677281386E+03  0.00000000000E+00 0. -1.
         -3    1    3    3    0  502  0.26347021136E+03  0.23097524765E+03  0.10820474793E+03  0.36670749212E+03  0.00000000000E+00 0.  1.
         13    1    5    5    0    0  0.10277891512E+03 -0.84906804375E+02 -0.96759269804E+01  0.13366485845E+03  0.00000000000E+00 0. -1.
        -13    1    5    5    0    0  0.16111658233E+03 -0.27158794601E+02 -0.74569425146E+02  0.17960164920E+03  0.00000000000E+00 0.  1.
          2    1    6    6  503    0 -0.53743919493E+03 -0.14444062373E+03  0.55701557582E+02  0.55929119924E+03  0.00000000000E+00 0. -1.
         -2    1    6    6    0  503 -0.15918611655E+03 -0.93227633031E+02  0.35946930002E+02  0.18794625040E+03  0.00000000000E+00 0.  1.
<mgrwt>
<rscale>  0 0.16297747E+04</rscale>
<asrwt>0</asrwt>
<pdfrwt beam="1">  1        2 0.11667471E+00 0.16297747E+04</pdfrwt>
<pdfrwt beam="2">  1       -2 0.13470748E+00 0.16297747E+04</pdfrwt>
<totfact> 0.14024305E+01</totfact>
</mgrwt>
</event>
<event>
12    3  0.4312636E-008  0.2416350E+04  0.7818608E-02  0.8433408E-01
         -2   -1    0    0    0  501 -0.00000000000E+00  0.00000000000E+00  0.14028014135E+04  0.14028014135E+04  0.00000000000E+00 0.  1.
          2   -1    0    0  501    0  0.00000000000E+00 -0.00000000000E+00 -0.10405516062E+04  0.10405516062E+04  0.00000000000E+00 0. -1.
         23    2    1    2    0    0  0.12711871709E+02 -0.13705392537E+03 -0.88559836164E+03  0.90075216061E+03  0.90136710431E+02 0.  0.
        254    2    1    2    0    0 -0.12711871709E+02  0.13705392537E+03  0.12478481690E+04  0.15426008590E+04  0.89640782422E+03 0.  0.
         23    2    4    4    0    0 -0.38737579657E+03 -0.14963708137E+03  0.61776114117E+03  0.75002990782E+03  0.92004191172E+02 0.  0.
         23    2    4    4    0    0  0.37466392486E+03  0.28669100674E+03  0.63008702781E+03  0.79257095122E+03  0.92705232657E+02 0.  0.
          2    1    3    3  502    0  0.24124400951E+02 -0.49605118747E+02 -0.58188995108E+03  0.58449856261E+03  0.00000000000E+00 0. -1.
         -2    1    3    3    0  502 -0.11412529242E+02 -0.87448806627E+02 -0.30370841056E+03  0.31625359800E+03  0.00000000000E+00 0.  1.
         13    1    5    5    0    0 -0.37114606605E+02  0.10709180463E+02  0.76279271528E+02  0.85502677353E+02  0.00000000000E+00 0.  1.
        -13    1    5    5    0    0 -0.35026118996E+03 -0.16034626183E+03  0.54148186964E+03  0.66452723046E+03  0.00000000000E+00 0. -1.
          2    1    6    6  503    0  0.37826368195E+03  0.27840639279E+03  0.60501985838E+03  0.76592595051E+03  0.00000000000E+00 0. -1.
         -2    1    6    6    0  503 -0.35997570933E+01  0.82846139480E+01  0.25067169430E+02  0.26645000706E+02  0.00000000000E+00 0.  1.
<mgrwt>
<rscale>  0 0.24163504E+04</rscale>
<asrwt>0</asrwt>
<pdfrwt beam="1">  1        2 0.16008486E+00 0.24163504E+04</pdfrwt>
<pdfrwt beam="2">  1       -2 0.21581560E+00 0.24163504E+04</pdfrwt>
<totfact> 0.22391368E+00</totfact>
</mgrwt>
</event>
<event>
12    3  0.4192740E-008  0.1199488E+04  0.7818608E-02  0.9113305E-01
          2   -1    0    0  501    0  0.00000000000E+00  0.00000000000E+00  0.24069816688E+04  0.24069816688E+04  0.00000000000E+00 0. -1.
         -2   -1    0    0    0  501 -0.00000000000E+00 -0.00000000000E+00 -0.14943724203E+03  0.14943724203E+03  0.00000000000E+00 0.  1.
         23    2    1    2    0    0  0.32699339609E+02  0.24712941531E+03  0.76705653257E+03  0.81159943325E+03  0.90419694637E+02 0.  0.
        254    2    1    2    0    0 -0.32699339609E+02 -0.24712941531E+03  0.14904878942E+04  0.17448194776E+04  0.87218040099E+03 0.  0.
         23    2    4    4    0    0 -0.98283792996E+02 -0.40182470474E+03  0.25264466309E+03  0.49233613865E+03  0.86271376107E+02 0.  0.
         23    2    4    4    0    0  0.65584453387E+02  0.15469528943E+03  0.12378432311E+04  0.12524833389E+04  0.90701137654E+02 0.  0.
          3    1    3    3  502    0  0.27626240482E+02  0.34849500456E+02  0.22666469489E+03  0.23098610512E+03  0.00000000000E+00 0. -1.
         -3    1    3    3    0  502  0.50730991270E+01  0.21227991485E+03  0.54039183767E+03  0.58061332813E+03  0.00000000000E+00 0.  1.
         13    1    5    5    0    0 -0.10885597916E+03 -0.39449001767E+03  0.24870082743E+03  0.47887795920E+03  0.00000000000E+00 0. -1.
        -13    1    5    5    0    0  0.10572186162E+02 -0.73346870714E+01  0.39438356507E+01  0.13458179458E+02  0.00000000000E+00 0.  1.
          4    1    6    6  503    0  0.34092043144E+02  0.14849581765E+03  0.11212000968E+04  0.11315047204E+04  0.00000000000E+00 0. -1.
         -4    1    6    6    0  503  0.31492410243E+02  0.61994717736E+01  0.11664313436E+03  0.12097861855E+03  0.00000000000E+00 0.  1.
<mgrwt>
<rscale>  0 0.11994877E+04</rscale>
<asrwt>0</asrwt>
<pdfrwt beam="1">  1        2 0.37030484E+00 0.11994877E+04</pdfrwt>
<pdfrwt beam="2">  1       -2 0.22990347E-01 0.11994877E+04</pdfrwt>
<totfact> 0.65206933E+01</totfact>
</mgrwt>
</event>
<event>
12    3  0.4192740E-008  0.1433250E+04  0.7818608E-02  0.8930096E-01
          1   -1    0    0  501    0  0.00000000000E+00  0.00000000000E+00  0.12858775354E+04  0.12858775354E+04  0.00000000000E+00 0. -1.
         -1   -1    0    0    0  501 -0.00000000000E+00 -0.00000000000E+00 -0.39937799920E+03  0.39937799920E+03  0.00000000000E+00 0.  1.
         23    2    1    2    0    0 -0.38628267141E+02  0.42265384752E+03  0.24767898755E+03  0.49992302501E+03  0.91922424950E+02 0.  0.
        254    2    1    2    0    0  0.38628267141E+02 -0.42265384752E+03  0.63882054864E+03  0.11853325096E+04  0.90376603559E+03 0.  0.
         23    2    4    4    0    0 -0.62900272399E+02 -0.58554189880E+03  0.98794643217E+02  0.60506273936E+03  0.97594966681E+02 0.  0.
         23    2    4    4    0    0  0.10152853954E+03  0.16288805127E+03  0.54002590542E+03  0.58026977023E+03  0.90799042537E+02 0.  0.
          3    1    3    3  502    0  0.19145456853E+02  0.21808920452E+02  0.12452179205E+02  0.31579016709E+02  0.00000000000E+00 0. -1.
         -3    1    3    3    0  502 -0.57773723994E+02  0.40084492707E+03  0.23522680835E+03  0.46834400830E+03  0.00000000000E+00 0.  1.
         13    1    5    5    0    0 -0.78929249249E+02 -0.50212006013E+03  0.10795141065E+03  0.51962283267E+03  0.00000000000E+00 0.  1.
        -13    1    5    5    0    0  0.16028976850E+02 -0.83421838667E+02 -0.91567674347E+01  0.85439906690E+02  0.00000000000E+00 0. -1.
          1    1    6    6  503    0  0.28512402444E+02  0.18845013312E+02  0.30652330877E+02  0.45909225740E+02  0.00000000000E+00 0. -1.
         -1    1    6    6    0  503  0.73016137097E+02  0.14404303796E+03  0.50937357454E+03  0.53436054449E+03  0.00000000000E+00 0.  1.
<mgrwt>
<rscale>  0 0.14332497E+04</rscale>
<asrwt>0</asrwt>
<pdfrwt beam="1">  1        1 0.19782731E+00 0.14332497E+04</pdfrwt>
<pdfrwt beam="2">  1       -1 0.61442770E-01 0.14332497E+04</pdfrwt>
<totfact> 0.24190303E+01</totfact>
</mgrwt>
</event>
<event>
12    3  0.4192740E-008  0.1711575E+04  0.7818608E-02  0.8754790E-01
          1   -1    0    0  501    0  0.00000000000E+00  0.00000000000E+00  0.94869929942E+03  0.94869929942E+03  0.00000000000E+00 0. -1.
         -1   -1    0    0    0  501 -0.00000000000E+00 -0.00000000000E+00 -0.77197475581E+03  0.77197475581E+03  0.00000000000E+00 0.  1.
         23    2    1    2    0    0 -0.37838685624E+03  0.43502655170E+03  0.29441917004E+03  0.65411543504E+03  0.93592953895E+02 0.  0.
        254    2    1    2    0    0  0.37838685624E+03 -0.43502655170E+03 -0.11769462643E+03  0.10665586202E+04  0.88953389568E+03 0.  0.
         23    2    4    4    0    0  0.54846366270E+03 -0.68590870894E+02  0.14126278699E+03  0.57791595222E+03  0.92274460016E+02 0.  0.
         23    2    4    4    0    0 -0.17007680646E+03 -0.36643568080E+03 -0.25895741343E+03  0.48864266797E+03  0.92257719099E+02 0.  0.
          2    1    3    3  502    0 -0.57476550638E+02  0.37406813332E+02  0.63246400251E+02  0.93289499418E+02  0.00000000000E+00 0. -1.
         -2    1    3    3    0  502 -0.32091030560E+03  0.39761973836E+03  0.23117276979E+03  0.56082593562E+03  0.00000000000E+00 0.  1.
         13    1    5    5    0    0  0.45442856944E+03 -0.45784190183E+02  0.80810992737E+02  0.46382317033E+03  0.00000000000E+00 0. -1.
        -13    1    5    5    0    0  0.94035093261E+02 -0.22806680711E+02  0.60451794258E+02  0.11409278189E+03  0.00000000000E+00 0.  1.
          3    1    6    6  503    0 -0.17555014993E+03 -0.31265082530E+03 -0.20898435265E+03  0.41502150951E+03  0.00000000000E+00 0. -1.
         -3    1    6    6    0  503  0.54733434714E+01 -0.53784855497E+02 -0.49973060777E+02  0.73621158460E+02  0.00000000000E+00 0.  1.
<mgrwt>
<rscale>  0 0.17115746E+04</rscale>
<asrwt>0</asrwt>
<pdfrwt beam="1">  1        1 0.14595374E+00 0.17115746E+04</pdfrwt>
<pdfrwt beam="2">  1       -1 0.11876535E+00 0.17115746E+04</pdfrwt>
<totfact> 0.10031518E+01</totfact>
</mgrwt>
</event>
<event>
12    3  0.4192740E-008  0.2145532E+04  0.7818608E-02  0.8541447E-01
          1   -1    0    0  501    0  0.00000000000E+00  0.00000000000E+00  0.22767587572E+04  0.22767587572E+04  0.00000000000E+00 0. -1.
         -1   -1    0    0    0  501 -0.00000000000E+00 -0.00000000000E+00 -0.50546737600E+03  0.50546737600E+03  0.00000000000E+00 0.  1.
         23    2    1    2    0    0 -0.46870469898E+03  0.56664195960E+03  0.91349600170E+02  0.74658249216E+03  0.90958578104E+02 0.  0.
        254    2    1    2    0    0  0.46870469898E+03 -0.56664195960E+03  0.16799417811E+04  0.20356436411E+04  0.88367043658E+03 0.  0.
         23    2    4    4    0    0  0.31962827630E+03 -0.62917097262E+03  0.57385235203E+03  0.91404008247E+03  0.90246344121E+02 0.  0.
         23    2    4    4    0    0  0.14907642267E+03  0.62529013022E+02  0.11060894290E+04  0.11216035586E+04  0.91799021748E+02 0.  0.
          3    1    3    3  502    0 -0.67984380564E+02  0.71965483323E+02  0.43605483748E+02  0.10817737750E+03  0.00000000000E+00 0. -1.
         -3    1    3    3    0  502 -0.40072031841E+03  0.49467647628E+03  0.47744116422E+02  0.63840511466E+03  0.00000000000E+00 0.  1.
         13    1    5    5    0    0  0.21640435406E+03 -0.45992011465E+03  0.36282139885E+03  0.62449717676E+03  0.00000000000E+00 0. -1.
        -13    1    5    5    0    0  0.10322392224E+03 -0.16925085797E+03  0.21103095317E+03  0.28954290570E+03  0.00000000000E+00 0.  1.
          3    1    6    6  503    0  0.83451489684E+02  0.58996818477E+02  0.41510365788E+03  0.42749950000E+03  0.00000000000E+00 0. -1.
         -3    1    6    6    0  503  0.65624932987E+02  0.35321945448E+01  0.69098577117E+03  0.69410405861E+03  0.00000000000E+00 0.  1.
<mgrwt>
<rscale>  0 0.21455324E+04</rscale>
<asrwt>0</asrwt>
<pdfrwt beam="1">  1        1 0.35027057E+00 0.21455324E+04</pdfrwt>
<pdfrwt beam="2">  1       -1 0.77764213E-01 0.21455324E+04</pdfrwt>
<totfact> 0.29298670E+00</totfact>
</mgrwt>
</event>
<event>
12    3  0.4192740E-008  0.1708178E+04  0.7818608E-02  0.8756714E-01
         -1   -1    0    0    0  501 -0.00000000000E+00  0.00000000000E+00  0.11492755939E+04  0.11492755939E+04  0.00000000000E+00 0.  1.
          1   -1    0    0  501    0  0.00000000000E+00 -0.00000000000E+00 -0.63471984379E+03  0.63471984379E+03  0.00000000000E+00 0. -1.
         23    2    1    2    0    0  0.40194526317E+03 -0.15935878058E+03  0.63809369663E+03  0.77612560056E+03  0.90841436744E+02 0.  0.
        254    2    1    2    0    0 -0.40194526317E+03  0.15935878058E+03 -0.12353794652E+03  0.10078698371E+04  0.90198933965E+03 0.  0.
         23    2    4    4    0    0 -0.47878556374E+03 -0.23865594519E+03 -0.20878293559E+03  0.58132809197E+03  0.90331390481E+02 0.  0.
         23    2    4    4    0    0  0.76840300567E+02  0.39801472577E+03  0.85244989069E+02  0.42654174516E+03  0.10173985688E+03 0.  0.
          3    1    3    3  502    0  0.12102689446E+03 -0.88500186409E+02  0.25506809292E+03  0.29587078971E+03  0.00000000000E+00 0. -1.
         -3    1    3    3    0  502  0.28091836871E+03 -0.70858594176E+02  0.38302560371E+03  0.48025481086E+03  0.00000000000E+00 0.  1.
         13    1    5    5    0    0 -0.25536056094E+03 -0.17684340695E+03 -0.12528384174E+03  0.33493081027E+03  0.00000000000E+00 0. -1.
        -13    1    5    5    0    0 -0.22342500280E+03 -0.61812538241E+02 -0.83499093850E+02  0.24639728171E+03  0.00000000000E+00 0.  1.
          2    1    6    6  503    0 -0.19346096978E+02  0.74737804967E+02 -0.50970576602E+01  0.77369186090E+02  0.00000000000E+00 0. -1.
         -2    1    6    6    0  503  0.96186397545E+02  0.32327692081E+03  0.90342046729E+02  0.34917255907E+03  0.00000000000E+00 0.  1.
<mgrwt>
<rscale>  0 0.17081780E+04</rscale>
<asrwt>0</asrwt>
<pdfrwt beam="1">  1        1 0.97649207E-01 0.17081780E+04</pdfrwt>
<pdfrwt beam="2">  1       -1 0.17681163E+00 0.17081780E+04</pdfrwt>
<totfact> 0.65824142E+00</totfact>
</mgrwt>
</event>
<event>
12    3  0.4192740E-008  0.2408518E+04  0.7818608E-02  0.8436321E-01
          2   -1    0    0  501    0  0.00000000000E+00  0.00000000000E+00  0.27066610121E+04  0.27066610121E+04  0.00000000000E+00 0. -1.
         -2   -1    0    0    0  501 -0.00000000000E+00 -0.00000000000E+00 -0.53580395156E+03  0.53580395156E+03  0.00000000000E+00 0.  1.
         23    2    1    2    0    0 -0.62761590883E+03 -0.21505963666E+03  0.19251824284E+04  0.20384479422E+04  0.93756354730E+02 0.  0.
        254    2    1    2    0    0  0.62761590883E+03  0.21505963666E+03  0.24567463218E+03  0.12040170215E+04  0.97424257086E+03 0.  0.
         23    2    4    4    0    0  0.85054564878E+03  0.11115436485E+03  0.27503663430E+02  0.86310860612E+03  0.91743233980E+02 0.  0.
         23    2    4    4    0    0 -0.22292973995E+03  0.10390527181E+03  0.21817096875E+03  0.34090841539E+03  0.90144337662E+02 0.  0.
          3    1    3    3  502    0 -0.50194090493E+03 -0.19789587589E+03  0.16359214365E+04  0.17225987333E+04  0.00000000000E+00 0. -1.
         -3    1    3    3    0  502 -0.12567500389E+03 -0.17163760770E+02  0.28926099189E+03  0.31584920882E+03  0.00000000000E+00 0.  1.
         13    1    5    5    0    0  0.35203216546E+03  0.83270347525E+02  0.37748510339E+02  0.36371080040E+03  0.00000000000E+00 0. -1.
        -13    1    5    5    0    0  0.49851348331E+03  0.27884017325E+02 -0.10244846910E+02  0.49939780572E+03  0.00000000000E+00 0.  1.
          1    1    6    6  503    0 -0.81358694937E+02  0.17271238595E+02  0.26343287452E+02  0.87243920810E+02  0.00000000000E+00 0. -1.
         -1    1    6    6    0  503 -0.14157104502E+03  0.86634033213E+02  0.19182768130E+03  0.25366449458E+03  0.00000000000E+00 0.  1.
<mgrwt>
<rscale>  0 0.24085179E+04</rscale>
<asrwt>0</asrwt>
<pdfrwt beam="1">  1        2 0.41640938E+00 0.24085179E+04</pdfrwt>
<pdfrwt beam="2">  1       -2 0.82431379E-01 0.24085179E+04</pdfrwt>
<totfact> 0.30548214E+00</totfact>
</mgrwt>
</event>
<event>
12    3  0.4192740E-008  0.1477239E+04  0.7818608E-02  0.8899731E-01
         -2   -1    0    0    0  501 -0.00000000000E+00  0.00000000000E+00  0.26102897165E+03  0.26102897165E+03  0.00000000000E+00 0.  1.
          2   -1    0    0  501    0  0.00000000000E+00 -0.00000000000E+00 -0.20900319458E+04  0.20900319458E+04  0.00000000000E+00 0. -1.
         23    2    1    2    0    0 -0.28098225821E+03  0.36081400588E+03 -0.63938122460E+03  0.79073313567E+03  0.85514707527E+02 0.  0.
        254    2    1    2    0    0  0.28098225821E+03 -0.36081400588E+03 -0.11896217495E+04  0.15603277817E+04  0.90015837679E+03 0.  0.
         23    2    4    4    0    0  0.41074227581E+03 -0.44245276777E+03 -0.12338614192E+04  0.13767146682E+04  0.91954375766E+02 0.  0.
         23    2    4    4    0    0 -0.12976001759E+03  0.81638761885E+02  0.44239669646E+02  0.18361311351E+03  0.90851953597E+02 0.  0.
          2    1    3    3  502    0 -0.13439349022E+03  0.13060451417E+03 -0.31793315689E+03  0.36905371098E+03  0.00000000000E+00 0. -1.
         -2    1    3    3    0  502 -0.14658876799E+03  0.23020949171E+03 -0.32144806771E+03  0.42167942469E+03  0.00000000000E+00 0.  1.
         13    1    5    5    0    0  0.12338863697E+03 -0.10801250289E+03 -0.42384807708E+03  0.45446523405E+03  0.00000000000E+00 0.  1.
        -13    1    5    5    0    0  0.28735363884E+03 -0.33444026488E+03 -0.81001334207E+03  0.92224943419E+03  0.00000000000E+00 0. -1.
          3    1    6    6  503    0 -0.76851380617E+02  0.67455582110E+02 -0.14519031773E+02  0.10328210176E+03  0.00000000000E+00 0. -1.
         -3    1    6    6    0  503 -0.52908636978E+02  0.14183179775E+02  0.58758701419E+02  0.80331011744E+02  0.00000000000E+00 0.  1.
<mgrwt>
<rscale>  0 0.14772392E+04</rscale>
<asrwt>0</asrwt>
<pdfrwt beam="1">  1        2 0.32154339E+00 0.14772392E+04</pdfrwt>
<pdfrwt beam="2">  1       -2 0.40158302E-01 0.14772392E+04</pdfrwt>
<totfact> 0.33829556E+01</totfact>
</mgrwt>
</event>
<event>
12    3  0.5508527E-008  0.2693992E+04  0.7818608E-02  0.8336957E-01
         -1   -1    0    0    0  501 -0.00000000000E+00  0.00000000000E+00  0.13586573226E+04  0.13586573226E+04  0.00000000000E+00 0.  1.
          1   -1    0    0  501    0  0.00000000000E+00 -0.00000000000E+00 -0.13354344870E+04  0.13354344870E+04  0.00000000000E+00 0. -1.
         23    2    1    2    0    0  0.74047820833E+03  0.88597348461E+03 -0.29697709876E+03  0.11983734464E+04  0.12102283887E+03 0.  0.
        254    2    1    2    0    0 -0.74047820833E+03 -0.88597348461E+03  0.32019993428E+03  0.14957183632E+04  0.89520301136E+03 0.  0.
         23    2    4    4    0    0  0.98654820564E+02 -0.52480055117E+03  0.14814377337E+03  0.56155735357E+03  0.90838822290E+02 0.  0.
         23    2    4    4    0    0 -0.83913302889E+03 -0.36117293344E+03  0.17205616091E+03  0.93416100959E+03  0.91996420064E+02 0.  0.
          2    1    3    3  502    0  0.70914370283E+03  0.80826185203E+03 -0.29312964833E+03  0.11144940572E+04  0.00000000000E+00 0. -1.
         -2    1    3    3    0  502  0.31334505499E+02  0.77711632585E+02 -0.38474504266E+01  0.83879389296E+02  0.00000000000E+00 0.  1.
         13    1    5    5    0    0 -0.11381090340E+02 -0.25902405519E+02 -0.38142950152E+01  0.28548426847E+02  0.00000000000E+00 0. -1.
        -13    1    5    5    0    0  0.11003591090E+03 -0.49889814565E+03  0.15195806838E+03  0.53300892673E+03  0.00000000000E+00 0.  1.
          1    1    6    6  503    0 -0.13908653832E+03 -0.79649103641E+02  0.61023070763E+02  0.17150177847E+03  0.00000000000E+00 0. -1.
         -1    1    6    6    0  503 -0.70004649057E+03 -0.28152382980E+03  0.11103309015E+03  0.76265923112E+03  0.00000000000E+00 0.  1.
<mgrwt>
<rscale>  0 0.26939917E+04</rscale>
<asrwt>0</asrwt>
<pdfrwt beam="1">  1        1 0.20545146E+00 0.26939917E+04</pdfrwt>
<pdfrwt beam="2">  1       -1 0.20902420E+00 0.26939917E+04</pdfrwt>
<totfact> 0.97325718E-01</totfact>
</mgrwt>
</event>
<event>
12    3  0.4192740E-008  0.3191304E+04  0.7818608E-02  0.8191117E-01
          1   -1    0    0  501    0  0.00000000000E+00  0.00000000000E+00  0.33460206511E+04  0.33460206511E+04  0.00000000000E+00 0. -1.
         -1   -1    0    0    0  501 -0.00000000000E+00 -0.00000000000E+00 -0.76093554176E+03  0.76093554176E+03  0.00000000000E+00 0.  1.
         23    2    1    2    0    0  0.13607199505E+03 -0.38662863556E+03  0.30137872285E+04  0.30429478160E+04  0.92847524083E+02 0.  0.
        254    2    1    2    0    0 -0.13607199505E+03  0.38662863556E+03 -0.42870211920E+03  0.10640083768E+04  0.88336347514E+03 0.  0.
         23    2    4    4    0    0  0.15555705908E+03 -0.18110942899E+03 -0.32186760457E+03  0.41056053506E+03  0.89233257101E+02 0.  0.
         23    2    4    4    0    0 -0.29162905413E+03  0.56773806456E+03 -0.10683451462E+03  0.65344784173E+03  0.90589476165E+02 0.  0.
          3    1    3    3  502    0  0.10066955613E+03 -0.22388720426E+03  0.20787168545E+04  0.20931611503E+04  0.00000000000E+00 0. -1.
         -3    1    3    3    0  502  0.35402438923E+02 -0.16274143131E+03  0.93507037397E+03  0.94978666574E+03  0.00000000000E+00 0.  1.
         13    1    5    5    0    0 -0.61027807801E+01  0.37039424260E+01 -0.21209192346E+02  0.22378403936E+02  0.00000000000E+00 0.  1.
        -13    1    5    5    0    0  0.16165983986E+03 -0.18481337142E+03 -0.30065841223E+03  0.38818213112E+03  0.00000000000E+00 0. -1.
          4    1    6    6  503    0 -0.52111860496E+02  0.42762134978E+02 -0.60922152996E+01  0.67685753889E+02  0.00000000000E+00 0.  1.
         -4    1    6    6    0  503 -0.23951719363E+03  0.52497592958E+03 -0.10074229932E+03  0.58576208785E+03  0.00000000000E+00 0. -1.
<mgrwt>
<rscale>  0 0.31913045E+04</rscale>
<asrwt>0</asrwt>
<pdfrwt beam="1">  1        1 0.51477240E+00 0.31913045E+04</pdfrwt>
<pdfrwt beam="2">  1       -1 0.11706701E+00 0.31913045E+04</pdfrwt>
<totfact> 0.18109699E-01</totfact>
</mgrwt>
</event>
<event>
12    3  0.4192740E-008  0.1303204E+04  0.7818608E-02  0.9027028E-01
         -2   -1    0    0    0  501 -0.00000000000E+00  0.00000000000E+00  0.24531617923E+03  0.24531617923E+03  0.00000000000E+00 0. -1.
          2   -1    0    0  501    0  0.00000000000E+00 -0.00000000000E+00 -0.17307670300E+04  0.17307670300E+04  0.00000000000E+00 0.  1.
         23    2    1    2    0    0  0.18446945625E+03  0.71836878960E+02 -0.81483286978E+03  0.84338408153E+03  0.90302745428E+02 0.  0.
        254    2    1    2    0    0 -0.18446945625E+03 -0.71836878960E+02 -0.67061798100E+03  0.11326991277E+04  0.89111689470E+03 0.  0.
         23    2    4    4    0    0 -0.43454558521E+02  0.39884612142E+03 -0.26487228287E+03  0.48906347770E+03  0.89773224062E+02 0.  0.
         23    2    4    4    0    0 -0.14101489772E+03 -0.47068300038E+03 -0.40574569813E+03  0.64363565001E+03  0.90606788852E+02 0.  0.
          3    1    3    3  502    0 -0.42011576120E+01 -0.76603349548E+01 -0.82812784982E+02  0.83272371249E+02  0.00000000000E+00 0. -1.
         -3    1    3    3    0  502  0.18867061386E+03  0.79497213914E+02 -0.73202008480E+03  0.76011171028E+03  0.00000000000E+00 0.  1.
         13    1    5    5    0    0  0.17929430001E+02  0.12969069759E+03 -0.11852620436E+03  0.17660578309E+03  0.00000000000E+00 0.  1.
        -13    1    5    5    0    0 -0.61383988522E+02  0.26915542384E+03 -0.14634607851E+03  0.31245769461E+03  0.00000000000E+00 0. -1.
          3    1    6    6  503    0 -0.10858796317E+03 -0.43727129020E+03 -0.38509237743E+03  0.59270031731E+03  0.00000000000E+00 0. -1.
         -3    1    6    6    0  503 -0.32426934557E+02 -0.33411710183E+02 -0.20653320700E+02  0.50935332708E+02  0.00000000000E+00 0.  1.
<mgrwt>
<rscale>  0 0.13032040E+04</rscale>
<asrwt>0</asrwt>
<pdfrwt beam="1">  1        2 0.26627184E+00 0.13032040E+04</pdfrwt>
<pdfrwt beam="2">  1       -2 0.37740952E-01 0.13032040E+04</pdfrwt>
<totfact> 0.61196299E+01</totfact>
</mgrwt>
</event>
<event>
12    3  0.4192740E-008  0.1228710E+04  0.7818608E-02  0.9088091E-01
          2   -1    0    0  501    0  0.00000000000E+00  0.00000000000E+00  0.11769267834E+04  0.11769267834E+04  0.00000000000E+00 0. -1.
         -2   -1    0    0    0  501 -0.00000000000E+00 -0.00000000000E+00 -0.32069301627E+03  0.32069301627E+03  0.00000000000E+00 0.  1.
         23    2    1    2    0    0  0.60220816130E+02  0.13018532058E+03 -0.59765057048E+02  0.20127970881E+03  0.12793316514E+03 0.  0.
        254    2    1    2    0    0 -0.60220816130E+02 -0.13018532058E+03  0.91599882422E+03  0.12963400909E+04  0.90601822329E+03 0.  0.
         23    2    4    4    0    0  0.27494358887E+03 -0.37887528701E+03  0.58942006774E+03  0.75901210307E+03  0.97687748391E+02 0.  0.
         23    2    4    4    0    0 -0.33516440500E+03  0.24868996642E+03  0.32657875648E+03  0.53732798784E+03  0.88802052628E+02 0.  0.
          4    1    3    3  502    0  0.42386204783E+02  0.85301664093E+02  0.29560268513E+02  0.99733513563E+02  0.00000000000E+00 0. -1.
         -4    1    3    3    0  502  0.17834611347E+02  0.44883656491E+02 -0.89325325562E+02  0.10154619524E+03  0.00000000000E+00 0.  1.
         13    1    5    5    0    0  0.10511986026E+03 -0.20725453431E+03  0.23795389635E+03  0.33260589863E+03  0.00000000000E+00 0. -1.
        -13    1    5    5    0    0  0.16982372862E+03 -0.17162075270E+03  0.35146617139E+03  0.42640620445E+03  0.00000000000E+00 0.  1.
          4    1    6    6  503    0 -0.74610632039E+02  0.10564289023E+03  0.93151134860E+02  0.15938726610E+03  0.00000000000E+00 0. -1.
         -4    1    6    6    0  503 -0.26055377296E+03  0.14304707619E+03  0.23342762162E+03  0.37794072174E+03  0.00000000000E+00 0.  1.
<mgrwt>
<rscale>  0 0.12287102E+04</rscale>
<asrwt>0</asrwt>
<pdfrwt beam="1">  1        2 0.18106566E+00 0.12287102E+04</pdfrwt>
<pdfrwt beam="2">  1       -2 0.49337388E-01 0.12287102E+04</pdfrwt>
<totfact> 0.74872928E+01</totfact>
</mgrwt>
</event>
<event>
12    3  0.4192740E-008  0.1448056E+04  0.7818608E-02  0.8919749E-01
          2   -1    0    0  501    0  0.00000000000E+00  0.00000000000E+00  0.11249257354E+04  0.11249257354E+04  0.00000000000E+00 0.  1.
         -2   -1    0    0    0  501 -0.00000000000E+00 -0.00000000000E+00 -0.46600094603E+03  0.46600094603E+03  0.00000000000E+00 0. -1.
         23    2    1    2    0    0  0.16587100727E+03 -0.10734675629E+03  0.66322673970E+03  0.69781720101E+03  0.89680659228E+02 0.  0.
        254    2    1    2    0    0 -0.16587100727E+03  0.10734675629E+03 -0.43019503491E+01  0.89310948039E+03  0.87097044729E+03 0.  0.
         23    2    4    4    0    0 -0.21207367451E+03  0.45691030769E+03 -0.84778558328E+02  0.51900479158E+03  0.91849317040E+02 0.  0.
         23    2    4    4    0    0  0.46202667232E+02 -0.34956355140E+03  0.80476607979E+02  0.37410468881E+03  0.95647638937E+02 0.  0.
          1    1    3    3  502    0  0.81845812459E+02 -0.12538851080E+02  0.35588218825E+03  0.36538759108E+03  0.00000000000E+00 0. -1.
         -1    1    3    3    0  502  0.84025194816E+02 -0.94807905211E+02  0.30734455145E+03  0.33242960993E+03  0.00000000000E+00 0.  1.
         13    1    5    5    0    0 -0.12916880706E+03  0.33499211930E+03 -0.94463335130E+02  0.37125142746E+03  0.00000000000E+00 0. -1.
        -13    1    5    5    0    0 -0.82904867442E+02  0.12191818839E+03  0.96847768023E+01  0.14775336412E+03  0.00000000000E+00 0.  1.
          1    1    6    6  503    0  0.29443873931E+02 -0.31635602342E+03  0.98677045564E+02  0.33269390525E+03  0.00000000000E+00 0. -1.
         -1    1    6    6    0  503  0.16758793301E+02 -0.33207527976E+02 -0.18200437585E+02  0.41410783565E+02  0.00000000000E+00 0.  1.
<mgrwt>
<rscale>  0 0.14480559E+04</rscale>
<asrwt>0</asrwt>
<pdfrwt beam="1">  1        2 0.17306550E+00 0.14480559E+04</pdfrwt>
<pdfrwt beam="2">  1       -2 0.71692454E-01 0.14480559E+04</pdfrwt>
<totfact> 0.35988048E+01</totfact>
</mgrwt>
</event>
<event>
12    3  0.4192740E-008  0.1526988E+04  0.7818608E-02  0.8866702E-01
          2   -1    0    0  501    0  0.00000000000E+00  0.00000000000E+00  0.13514868469E+04  0.13514868469E+04  0.00000000000E+00 0. -1.
         -2   -1    0    0    0  501 -0.00000000000E+00 -0.00000000000E+00 -0.43131966391E+03  0.43131966391E+03  0.00000000000E+00 0.  1.
         23    2    1    2    0    0  0.26415851291E+03 -0.26046494096E+03 -0.16414335741E+03  0.41602142586E+03  0.92244672353E+02 0.  0.
        254    2    1    2    0    0 -0.26415851291E+03  0.26046494096E+03  0.10843105404E+04  0.13667850850E+04  0.74481569197E+03 0.  0.
         23    2    4    4    0    0 -0.70787435782E+02  0.65540489732E+01 -0.89708225803E+02  0.14660614856E+03  0.91607752928E+02 0.  0.
         23    2    4    4    0    0 -0.19337107712E+03  0.25391089199E+03  0.11740187662E+04  0.12201789364E+04  0.93023969305E+02 0.  0.
          4    1    3    3  502    0  0.14116238806E+02 -0.32207524841E+02  0.82172314202E+01  0.36112542788E+02  0.00000000000E+00 0. -1.
         -4    1    3    3    0  502  0.25004227410E+03 -0.22825741612E+03 -0.17236058883E+03  0.37990888307E+03  0.00000000000E+00 0.  1.
         13    1    5    5    0    0 -0.92213074848E+02  0.11340955901E+02 -0.64095141712E+02  0.11287185497E+03  0.00000000000E+00 0. -1.
        -13    1    5    5    0    0  0.21425639066E+02 -0.47869069280E+01 -0.25613084091E+02  0.33734293589E+02  0.00000000000E+00 0.  1.
          3    1    6    6  503    0 -0.14487730236E+03  0.24141077328E+03  0.96408675483E+03  0.10043564432E+04  0.00000000000E+00 0. -1.
         -3    1    6    6    0  503 -0.48493774763E+02  0.12500118714E+02  0.20993201139E+03  0.21582249318E+03  0.00000000000E+00 0.  1.
<mgrwt>
<rscale>  0 0.15269877E+04</rscale>
<asrwt>0</asrwt>
<pdfrwt beam="1">  1        2 0.20792105E+00 0.15269877E+04</pdfrwt>
<pdfrwt beam="2">  1       -2 0.66356872E-01 0.15269877E+04</pdfrwt>
<totfact> 0.31067180E+01</totfact>
</mgrwt>
</event>
<event>
12    3  0.4192740E-008  0.2423378E+04  0.7818608E-02  0.8430803E-01
          1   -1    0    0  501    0  0.00000000000E+00  0.00000000000E+00  0.13486840156E+04  0.13486840156E+04  0.00000000000E+00 0. -1.
         -1   -1    0    0    0  501 -0.00000000000E+00 -0.00000000000E+00 -0.10886099290E+04  0.10886099290E+04  0.00000000000E+00 0.  1.
         23    2    1    2    0    0  0.93336064775E+03  0.30559490303E+03  0.46004601971E+03  0.10881406383E+04  0.88641779133E+02 0.  0.
        254    2    1    2    0    0 -0.93336064775E+03 -0.30559490303E+03 -0.19997193309E+03  0.13491533063E+04  0.90314756623E+03 0.  0.
         23    2    4    4    0    0 -0.13613580852E+03  0.29084704028E+03 -0.34805665172E+02  0.33577458043E+03  0.91696103165E+02 0.  0.
         23    2    4    4    0    0 -0.79722483923E+03 -0.59644194331E+03 -0.16516626792E+03  0.10133787259E+04  0.91357046747E+02 0.  0.
          3    1    3    3  502    0  0.67046800808E+03  0.17708886980E+03  0.31985665767E+03  0.76367276966E+03  0.00000000000E+00 0. -1.
         -3    1    3    3    0  502  0.26289263967E+03  0.12850603323E+03  0.14018936205E+03  0.32446786867E+03  0.00000000000E+00 0.  1.
         13    1    5    5    0    0 -0.11379783170E+03  0.16404617632E+03 -0.50847539394E+02  0.20602564580E+03  0.00000000000E+00 0. -1.
        -13    1    5    5    0    0 -0.22337976818E+02  0.12680086396E+03  0.16041874221E+02  0.12974893463E+03  0.00000000000E+00 0.  1.
          4    1    6    6  503    0 -0.22615530499E+03 -0.21721849526E+03 -0.33830074656E+02  0.31539589505E+03  0.00000000000E+00 0. -1.
         -4    1    6    6    0  503 -0.57106953424E+03 -0.37922344805E+03 -0.13133619326E+03  0.69798283084E+03  0.00000000000E+00 0.  1.
<mgrwt>
<rscale>  0 0.24233785E+04</rscale>
<asrwt>0</asrwt>
<pdfrwt beam="1">  1        1 0.20748985E+00 0.24233785E+04</pdfrwt>
<pdfrwt beam="2">  1       -1 0.16747845E+00 0.24233785E+04</pdfrwt>
<totfact> 0.19184339E+00</totfact>
</mgrwt>
</event>
<event>
12    3  0.4192740E-008  0.1465232E+04  0.7818608E-02  0.8907908E-01
          2   -1    0    0  501    0  0.00000000000E+00  0.00000000000E+00  0.18148876587E+04  0.18148876587E+04  0.00000000000E+00 0. -1.
         -2   -1    0    0    0  501 -0.00000000000E+00 -0.00000000000E+00 -0.29573517919E+03  0.29573517919E+03  0.00000000000E+00 0.  1.
         23    2    1    2    0    0  0.56429172738E+02 -0.43253247338E+03  0.32111994183E+03  0.54919389592E+03  0.90704609614E+02 0.  0.
        254    2    1    2    0    0 -0.56429172738E+02  0.43253247338E+03  0.11980325377E+04  0.15614289420E+04  0.90139324794E+03 0.  0.
         23    2    4    4    0    0 -0.45244341369E+03  0.26509606797E+03  0.46577808966E+03  0.70722392556E+03  0.90749568768E+02 0.  0.
         23    2    4    4    0    0  0.39601424095E+03  0.16743640541E+03  0.73225444806E+03  0.85420501645E+03  0.92776098934E+02 0.  0.
          4    1    3    3  502    0  0.54995575949E+02 -0.11032499783E+03  0.92389306101E+02  0.15405162252E+03  0.00000000000E+00 0. -1.
         -4    1    3    3    0  502  0.14335967896E+01 -0.32220747556E+03  0.22873063573E+03  0.39514227340E+03  0.00000000000E+00 0.  1.
         13    1    5    5    0    0 -0.43158257272E+03  0.27154603237E+03  0.44054578094E+03  0.67385558532E+03  0.00000000000E+00 0. -1.
        -13    1    5    5    0    0 -0.20860840970E+02 -0.64499643943E+01  0.25232308726E+02  0.33368340239E+02  0.00000000000E+00 0.  1.
          1    1    6    6  503    0  0.20620074483E+03  0.47876441742E+02  0.41195831117E+03  0.46316363305E+03  0.00000000000E+00 0. -1.
         -1    1    6    6    0  503  0.18981349612E+03  0.11955996367E+03  0.32029613689E+03  0.39104138339E+03  0.00000000000E+00 0.  1.
<mgrwt>
<rscale>  0 0.14652319E+04</rscale>
<asrwt>0</asrwt>
<pdfrwt beam="1">  1        2 0.27921348E+00 0.14652319E+04</pdfrwt>
<pdfrwt beam="2">  1       -2 0.45497721E-01 0.14652319E+04</pdfrwt>
<totfact> 0.37570063E+01</totfact>
</mgrwt>
</event>
<event>
12    3  0.4192740E-008  0.2615508E+04  0.7818608E-02  0.8362952E-01
         -2   -1    0    0    0  501 -0.00000000000E+00  0.00000000000E+00  0.83714406532E+03  0.83714406532E+03  0.00000000000E+00 0.  1.
          2   -1    0    0  501    0  0.00000000000E+00 -0.00000000000E+00 -0.20429226509E+04  0.20429226509E+04  0.00000000000E+00 0. -1.
         23    2    1    2    0    0  0.38850801545E+02 -0.11383024986E+04 -0.69533514013E+03  0.13380666982E+04  0.98435605940E+02 0.  0.
        254    2    1    2    0    0 -0.38850801545E+02  0.11383024986E+04 -0.51044344542E+03  0.15420000180E+04  0.90552171781E+03 0.  0.
         23    2    4    4    0    0 -0.33319981345E+03  0.15843345795E+03  0.30315966024E+02  0.38153333835E+03  0.92332844617E+02 0.  0.
         23    2    4    4    0    0  0.29434901191E+03  0.97986904067E+03 -0.54075941145E+03  0.11604666797E+04  0.86472515101E+02 0.  0.
          3    1    3    3  502    0  0.44990305165E+02 -0.78452909297E+03 -0.52752217538E+03  0.94646165839E+03  0.00000000000E+00 0. -1.
         -3    1    3    3    0  502 -0.61395036201E+01 -0.35377340564E+03 -0.16781296475E+03  0.39160503978E+03  0.00000000000E+00 0.  1.
         13    1    5    5    0    0 -0.29000652407E+02  0.36756425524E+00 -0.19740096511E+02  0.35083391424E+02  0.00000000000E+00 0. -1.
        -13    1    5    5    0    0 -0.30419916104E+03  0.15806589370E+03  0.50056062534E+02  0.34644994693E+03  0.00000000000E+00 0.  1.
          1    1    6    6  503    0  0.23045359714E+02  0.18643945553E+03 -0.86856111267E+02  0.20696556053E+03  0.00000000000E+00 0. -1.
         -1    1    6    6    0  503  0.27130365219E+03  0.79342958514E+03 -0.45390330018E+03  0.95350111913E+03  0.00000000000E+00 0.  1.
<mgrwt>
<rscale>  0 0.26155080E+04</rscale>
<asrwt>0</asrwt>
<pdfrwt beam="1">  1        2 0.31429579E+00 0.26155080E+04</pdfrwt>
<pdfrwt beam="2">  1       -2 0.12879140E+00 0.26155080E+04</pdfrwt>
<totfact> 0.24841633E+00</totfact>
</mgrwt>
</event>
<event>
12    3  0.4192740E-008  0.2603227E+04  0.7818608E-02  0.8367106E-01
          1   -1    0    0  501    0  0.00000000000E+00  0.00000000000E+00  0.91428247912E+03  0.91428247912E+03  0.00000000000E+00 0. -1.
         -1   -1    0    0    0  501 -0.00000000000E+00 -0.00000000000E+00 -0.18530355529E+04  0.18530355529E+04  0.00000000000E+00 0.  1.
         23    2    1    2    0    0  0.25680692435E+03  0.46863553651E+03  0.67149142349E+03  0.86551434600E+03  0.11245127316E+03 0.  0.
        254    2    1    2    0    0 -0.25680692435E+03 -0.46863553651E+03 -0.16102444973E+04  0.19018036860E+04  0.85930254086E+03 0.  0.
         23    2    4    4    0    0 -0.25094493707E+03 -0.21969734023E+03 -0.15998571935E+04  0.16366528695E+04  0.88596233863E+02 0.  0.
         23    2    4    4    0    0 -0.58619872733E+01 -0.24893819628E+03 -0.10387303762E+02  0.26515081659E+03  0.90512269876E+02 0.  0.
          2    1    3    3  502    0  0.25935018448E+03  0.46452171078E+03  0.67505910062E+03  0.85950434979E+03  0.00000000000E+00 0. -1.
         -2    1    3    3    0  502 -0.25432601311E+01  0.41138257336E+01 -0.35676771357E+01  0.60099962068E+01  0.00000000000E+00 0.  1.
         13    1    5    5    0    0 -0.20021297314E+03 -0.18703717143E+03 -0.11203999875E+04  0.11534141798E+04  0.00000000000E+00 0. -1.
        -13    1    5    5    0    0 -0.50731963930E+02 -0.32660168804E+02 -0.47945720605E+03  0.48323868970E+03  0.00000000000E+00 0.  1.
          1    1    6    6  503    0  0.28118416048E+02 -0.10188575448E+03 -0.36823695393E+02  0.11192558613E+03  0.00000000000E+00 0. -1.
         -1    1    6    6    0  503 -0.33980403322E+02 -0.14705244180E+03  0.26436391632E+02  0.15322523047E+03  0.00000000000E+00 0.  1.
<mgrwt>
<rscale>  0 0.26032272E+04</rscale>
<asrwt>0</asrwt>
<pdfrwt beam="1">  1        1 0.14065884E+00 0.26032272E+04</pdfrwt>
<pdfrwt beam="2">  1       -1 0.28508239E+00 0.26032272E+04</pdfrwt>
<totfact> 0.64349208E-01</totfact>
</mgrwt>
</event>
<event>
12    3  0.4192740E-008  0.2095378E+04  0.7818608E-02  0.8563282E-01
         -1   -1    0    0    0  501 -0.00000000000E+00  0.00000000000E+00  0.74083291456E+03  0.74083291456E+03  0.00000000000E+00 0.  1.
          1   -1    0    0  501    0  0.00000000000E+00 -0.00000000000E+00 -0.14816455834E+04  0.14816455834E+04  0.00000000000E+00 0. -1.
         23    2    1    2    0    0 -0.28787092163E+03 -0.77480704404E+03 -0.85035980386E+02  0.83588942322E+03  0.91018607339E+02 0.  0.
        254    2    1    2    0    0  0.28787092163E+03  0.77480704404E+03 -0.65577668850E+03  0.13865890748E+04  0.89966136636E+03 0.  0.
         23    2    4    4    0    0  0.13551448883E+03  0.13859853754E+02 -0.57926081371E+03  0.60163471972E+03  0.88684685544E+02 0.  0.
         23    2    4    4    0    0  0.15235643280E+03  0.76094719028E+03 -0.76515874790E+02  0.78495435506E+03  0.89696997833E+02 0.  0.
          1    1    3    3  502    0 -0.18561681807E+03 -0.51195437892E+03 -0.99051565802E+02  0.55349986624E+03  0.00000000000E+00 0. -1.
         -1    1    3    3    0  502 -0.10225410356E+03 -0.26285266512E+03  0.14015585416E+02  0.28238955698E+03  0.00000000000E+00 0.  1.
         13    1    5    5    0    0  0.87436423766E+02 -0.33528763492E+02 -0.37461366116E+03  0.38614077914E+03  0.00000000000E+00 0.  1.
        -13    1    5    5    0    0  0.48078065067E+02  0.47388617246E+02 -0.20464715254E+03  0.21549394059E+03  0.00000000000E+00 0. -1.
          3    1    6    6  503    0  0.12969083002E+03  0.43719849658E+03 -0.28958863700E+02  0.45694731927E+03  0.00000000000E+00 0. -1.
         -3    1    6    6    0  503  0.22665602780E+02  0.32374869370E+03 -0.47557011090E+02  0.32800703579E+03  0.00000000000E+00 0.  1.
<mgrwt>
<rscale>  0 0.20953776E+04</rscale>
<asrwt>0</asrwt>
<pdfrwt beam="1">  1        1 0.22794547E+00 0.20953776E+04</pdfrwt>
<pdfrwt beam="2">  1       -1 0.11397430E+00 0.20953776E+04</pdfrwt>
<totfact> 0.43466944E+00</totfact>
</mgrwt>
</event>
<event>
12    3  0.4192740E-008  0.1540219E+04  0.7818608E-02  0.8858140E-01
          2   -1    0    0  501    0  0.00000000000E+00  0.00000000000E+00  0.58003889830E+03  0.58003889830E+03  0.00000000000E+00 0.  1.
         -2   -1    0    0    0  501 -0.00000000000E+00 -0.00000000000E+00 -0.10224629316E+04  0.10224629316E+04  0.00000000000E+00 0. -1.
         23    2    1    2    0    0 -0.69850280006E+02  0.11448710157E+03 -0.64815791675E+03  0.66806614028E+03  0.90649460569E+02 0.  0.
        254    2    1    2    0    0  0.69850280006E+02 -0.11448710157E+03  0.20573388348E+03  0.93443568958E+03  0.90158597433E+03 0.  0.
         23    2    4    4    0    0 -0.12238596159E+03 -0.46420049140E+03  0.19025206425E+03  0.52509510135E+03  0.95229185102E+02 0.  0.
         23    2    4    4    0    0  0.19223624160E+03  0.34971338983E+03  0.15481819230E+02  0.40934058824E+03  0.89809814852E+02 0.  0.
          2    1    3    3  502    0 -0.67219908042E+02  0.11367554844E+03 -0.42846044282E+03  0.44835142178E+03  0.00000000000E+00 0. -1.
         -2    1    3    3    0  502 -0.26303719641E+01  0.81155313287E+00 -0.21969747393E+03  0.21971471850E+03  0.00000000000E+00 0.  1.
         13    1    5    5    0    0  0.14510046509E+02 -0.73912772776E+02  0.20925382922E+02  0.78176154162E+02  0.00000000000E+00 0.  1.
        -13    1    5    5    0    0 -0.13689600810E+03 -0.39028771863E+03  0.16932668132E+03  0.44691894718E+03  0.00000000000E+00 0. -1.
          3    1    6    6  503    0  0.17926081195E+03  0.33183945823E+03  0.36406019357E+02  0.37891590490E+03  0.00000000000E+00 0. -1.
         -3    1    6    6    0  503  0.12975429646E+02  0.17873931595E+02 -0.20924200127E+02  0.30424683336E+02  0.00000000000E+00 0.  1.
<mgrwt>
<rscale>  0 0.15402185E+04</rscale>
<asrwt>0</asrwt>
<pdfrwt beam="1">  1        2 0.89236755E-01 0.15402185E+04</pdfrwt>
<pdfrwt beam="2">  1       -2 0.15730199E+00 0.15402185E+04</pdfrwt>
<totfact> 0.13117709E+01</totfact>
</mgrwt>
</event>
<event>
12    3  0.4192740E-008  0.1668664E+04  0.7818608E-02  0.8779441E-01
          1   -1    0    0  501    0  0.00000000000E+00  0.00000000000E+00  0.65519694778E+03  0.65519694778E+03  0.00000000000E+00 0. -1.
         -1   -1    0    0    0  501 -0.00000000000E+00 -0.00000000000E+00 -0.10624434932E+04  0.10624434932E+04  0.00000000000E+00 0.  1.
         23    2    1    2    0    0  0.26165516483E+03 -0.15013649681E+03  0.37113298191E+03  0.48672553121E+03  0.90319762567E+02 0.  0.
        254    2    1    2    0    0 -0.26165516483E+03  0.15013649681E+03 -0.77837952736E+03  0.12309149098E+04  0.90458412191E+03 0.  0.
         23    2    4    4    0    0 -0.13723500511E+03 -0.59904811336E+02  0.17186638798E+03  0.24547247899E+03  0.91085946094E+02 0.  0.
         23    2    4    4    0    0 -0.12442015972E+03  0.21004130815E+03 -0.95024591534E+03  0.98544243081E+03  0.92367513517E+02 0.  0.
          1    1    3    3  502    0  0.66372455840E+02 -0.52245771602E+02  0.16980943605E+03  0.18965802940E+03  0.00000000000E+00 0. -1.
         -1    1    3    3    0  502  0.19528270899E+03 -0.97890725210E+02  0.20132354587E+03  0.29706750181E+03  0.00000000000E+00 0.  1.
         13    1    5    5    0    0 -0.13720205428E+03 -0.25478113193E+02  0.12518548737E+03  0.18746984877E+03  0.00000000000E+00 0.  1.
        -13    1    5    5    0    0 -0.32950832939E-01 -0.34426698143E+02  0.46680900608E+02  0.58002630219E+02  0.00000000000E+00 0. -1.
          2    1    6    6  503    0 -0.13185597715E+03  0.15630324352E+03 -0.79929953343E+03  0.82504329995E+03  0.00000000000E+00 0. -1.
         -2    1    6    6    0  503  0.74358174337E+01  0.53738064629E+02 -0.15094638191E+03  0.16039913087E+03  0.00000000000E+00 0.  1.
<mgrwt>
<rscale>  0 0.16686638E+04</rscale>
<asrwt>0</asrwt>
<pdfrwt beam="1">  1        1 0.10079953E+00 0.16686638E+04</pdfrwt>
<pdfrwt beam="2">  1       -1 0.16345284E+00 0.16686638E+04</pdfrwt>
<totfact> 0.79034480E+00</totfact>
</mgrwt>
</event>
<event>
12    3  0.4192740E-008  0.1413652E+04  0.7818608E-02  0.8943996E-01
          1   -1    0    0  501    0  0.00000000000E+00  0.00000000000E+00  0.21474439890E+04  0.21474439890E+04  0.00000000000E+00 0. -1.
         -1   -1    0    0    0  501 -0.00000000000E+00 -0.00000000000E+00 -0.23264997561E+03  0.23264997561E+03  0.00000000000E+00 0.  1.
         23    2    1    2    0    0 -0.28910419432E+03  0.19407935920E+03  0.98186271735E+03  0.10457029920E+04  0.90511429782E+02 0.  0.
        254    2    1    2    0    0  0.28910419432E+03 -0.19407935920E+03  0.93293129604E+03  0.13343909726E+04  0.88825133368E+03 0.  0.
         23    2    4    4    0    0  0.28185980582E+03  0.28424710039E+03  0.65693222906E+03  0.77426956379E+03  0.87704273616E+02 0.  0.
         23    2    4    4    0    0  0.72443885001E+01 -0.47832645960E+03  0.27599906698E+03  0.56012140881E+03  0.93337155073E+02 0.  0.
          1    1    3    3  502    0 -0.21301856684E+03  0.18318544511E+03  0.81284048667E+03  0.86002527515E+03  0.00000000000E+00 0. -1.
         -1    1    3    3    0  502 -0.76085627485E+02  0.10893914092E+02  0.16902223068E+03  0.18567771686E+03  0.00000000000E+00 0.  1.
         13    1    5    5    0    0  0.18139159033E+03  0.18875957514E+03  0.34629647710E+03  0.43411327589E+03  0.00000000000E+00 0.  1.
        -13    1    5    5    0    0  0.10046821549E+03  0.95487525257E+02  0.31063575196E+03  0.34015628790E+03  0.00000000000E+00 0. -1.
          1    1    6    6  503    0 -0.12939196974E+02 -0.59813926422E+02  0.56127440121E+01  0.61454304224E+02  0.00000000000E+00 0. -1.
         -1    1    6    6    0  503  0.20183585474E+02 -0.41851253318E+03  0.27038632297E+03  0.49866710458E+03  0.00000000000E+00 0.  1.
<mgrwt>
<rscale>  0 0.14136517E+04</rscale>
<asrwt>0</asrwt>
<pdfrwt beam="1">  1        1 0.33037599E+00 0.14136517E+04</pdfrwt>
<pdfrwt beam="2">  1       -1 0.35792305E-01 0.14136517E+04</pdfrwt>
<totfact> 0.17201094E+01</totfact>
</mgrwt>
</event>
<event>
12    3  0.4192740E-008  0.3033871E+04  0.7818608E-02  0.8234124E-01
          2   -1    0    0  501    0  0.00000000000E+00  0.00000000000E+00  0.14247639017E+04  0.14247639017E+04  0.00000000000E+00 0. -1.
         -2   -1    0    0    0  501 -0.00000000000E+00 -0.00000000000E+00 -0.16150700226E+04  0.16150700226E+04  0.00000000000E+00 0.  1.
         23    2    1    2    0    0  0.37804080540E+03  0.12379090295E+04 -0.56795469777E+03  0.14164006009E+04  0.91019271499E+02 0.  0.
        254    2    1    2    0    0 -0.37804080540E+03 -0.12379090295E+04  0.37764857682E+03  0.16234333233E+04  0.90420334655E+03 0.  0.
         23    2    4    4    0    0 -0.22763320913E+03 -0.57066894211E+03  0.63349275159E+03  0.88673342419E+03  0.86620897505E+02 0.  0.
         23    2    4    4    0    0 -0.15040759628E+03 -0.66724008738E+03 -0.25584417477E+03  0.73669989915E+03  0.97153077201E+02 0.  0.
          2    1    3    3  502    0  0.26291107638E+03  0.92432205730E+03 -0.38241869056E+03  0.10342811777E+04  0.00000000000E+00 0.  1.
         -2    1    3    3    0  502  0.11512972903E+03  0.31358697219E+03 -0.18553600720E+03  0.38211942322E+03  0.00000000000E+00 0. -1.
         13    1    5    5    0    0 -0.22903410029E+03 -0.55942054778E+03  0.63317133773E+03  0.87539357509E+03  0.00000000000E+00 0. -1.
        -13    1    5    5    0    0  0.14008911667E+01 -0.11248394322E+02  0.32141385807E+00  0.11339849106E+02  0.00000000000E+00 0.  1.
          3    1    6    6  503    0 -0.13404993157E+03 -0.43560435260E+03 -0.20088823491E+03  0.49807290539E+03  0.00000000000E+00 0. -1.
         -3    1    6    6    0  503 -0.16357664702E+02 -0.23163573479E+03 -0.54955939862E+02  0.23862699376E+03  0.00000000000E+00 0.  1.
<mgrwt>
<rscale>  0 0.30338711E+04</rscale>
<asrwt>0</asrwt>
<pdfrwt beam="1">  1        2 0.21919445E+00 0.30338711E+04</pdfrwt>
<pdfrwt beam="2">  1       -2 0.24847231E+00 0.30338711E+04</pdfrwt>
<totfact> 0.78517978E-01</totfact>
</mgrwt>
</event>
<event>
12    3  0.4192740E-008  0.2037237E+04  0.7818608E-02  0.8589406E-01
         -1   -1    0    0    0  501 -0.00000000000E+00  0.00000000000E+00  0.72772944772E+03  0.72772944772E+03  0.00000000000E+00 0.  1.
          1   -1    0    0  501    0  0.00000000000E+00 -0.00000000000E+00 -0.14257822333E+04  0.14257822333E+04  0.00000000000E+00 0. -1.
         23    2    1    2    0    0  0.17453469211E+03  0.21268253761E+03 -0.10572152588E+04  0.10963786135E+04  0.92982471718E+02 0.  0.
        254    2    1    2    0    0 -0.17453469211E+03 -0.21268253761E+03  0.35916247321E+03  0.10571330676E+04  0.95542473268E+03 0.  0.
         23    2    4    4    0    0 -0.22933960005E+03 -0.56755708382E+03  0.27929907049E+03  0.67904789869E+03  0.91544428557E+02 0.  0.
         23    2    4    4    0    0  0.54804907941E+02  0.35487454621E+03  0.79863402725E+02  0.37808516887E+03  0.87353937192E+02 0.  0.
          2    1    3    3  502    0  0.15462396845E+03  0.20050587323E+03 -0.10293319863E+04  0.10600167522E+04  0.00000000000E+00 0. -1.
         -2    1    3    3    0  502  0.19910723655E+02  0.12176664378E+02 -0.27883272482E+02  0.36361861286E+02  0.00000000000E+00 0.  1.
         13    1    5    5    0    0 -0.73520735924E+02 -0.23593949957E+03  0.15696434032E+03  0.29276364222E+03  0.00000000000E+00 0.  1.
        -13    1    5    5    0    0 -0.15581886413E+03 -0.33161758424E+03  0.12233473016E+03  0.38628425648E+03  0.00000000000E+00 0. -1.
          3    1    6    6  503    0  0.76042748083E+02  0.26225834028E+03  0.73872574999E+02  0.28287646406E+03  0.00000000000E+00 0. -1.
         -3    1    6    6    0  503 -0.21237840142E+02  0.92616205932E+02  0.59908277262E+01  0.95208704812E+02  0.00000000000E+00 0.  1.
<mgrwt>
<rscale>  0 0.20372371E+04</rscale>
<asrwt>0</asrwt>
<pdfrwt beam="1">  1        1 0.21935111E+00 0.20372371E+04</pdfrwt>
<pdfrwt beam="2">  1       -1 0.11195838E+00 0.20372371E+04</pdfrwt>
<totfact> 0.49871073E+00</totfact>
</mgrwt>
</event>
<event>
12    3  0.4192740E-008  0.2378617E+04  0.7818608E-02  0.8447553E-01
          2   -1    0    0  501    0  0.00000000000E+00  0.00000000000E+00  0.31081750479E+04  0.31081750479E+04  0.00000000000E+00 0. -1.
         -2   -1    0    0    0  501 -0.00000000000E+00 -0.00000000000E+00 -0.45507570475E+03  0.45507570475E+03  0.00000000000E+00 0.  1.
         23    2    1    2    0    0  0.77055271176E+03 -0.13179068453E+03  0.21176725092E+04  0.22591606634E+04  0.90276135877E+02 0.  0.
        254    2    1    2    0    0 -0.77055271176E+03  0.13179068453E+03  0.53542683391E+03  0.13040900892E+04  0.89601830349E+03 0.  0.
         23    2    4    4    0    0  0.15167390720E+03  0.79430985731E+01  0.28551982798E+03  0.33638700729E+03  0.92555818615E+02 0.  0.
         23    2    4    4    0    0 -0.92222661896E+03  0.12384758596E+03  0.24990700593E+03  0.96770308192E+03  0.90308260312E+02 0.  0.
          3    1    3    3  502    0  0.74910186282E+03 -0.14309536929E+03  0.20482204493E+04  0.21855976058E+04  0.00000000000E+00 0. -1.
         -3    1    3    3    0  502  0.21450848943E+02  0.11304684760E+02  0.69452059941E+02  0.73563057631E+02  0.00000000000E+00 0.  1.
         13    1    5    5    0    0  0.14788361049E+03  0.28402336516E+02  0.27387169045E+03  0.31254112978E+03  0.00000000000E+00 0. -1.
        -13    1    5    5    0    0  0.37902967176E+01 -0.20459237943E+02  0.11648137530E+02  0.23845877512E+02  0.00000000000E+00 0.  1.
          1    1    6    6  503    0 -0.20206144234E+03  0.51913216252E+02  0.26749540259E+02  0.21033151549E+03  0.00000000000E+00 0. -1.
         -1    1    6    6    0  503 -0.72016517662E+03  0.71934369708E+02  0.22315746567E+03  0.75737156644E+03  0.00000000000E+00 0.  1.
<mgrwt>
<rscale>  0 0.23786172E+04</rscale>
<asrwt>0</asrwt>
<pdfrwt beam="1">  1        2 0.47818076E+00 0.23786172E+04</pdfrwt>
<pdfrwt beam="2">  1       -2 0.70011649E-01 0.23786172E+04</pdfrwt>
<totfact> 0.24907849E+00</totfact>
</mgrwt>
</event>
<event>
12    3  0.4192740E-008  0.1621001E+04  0.7818608E-02  0.8807749E-01
          1   -1    0    0  501    0  0.00000000000E+00  0.00000000000E+00  0.80671244520E+03  0.80671244520E+03  0.00000000000E+00 0. -1.
         -1   -1    0    0    0  501 -0.00000000000E+00 -0.00000000000E+00 -0.81430606818E+03  0.81430606818E+03  0.00000000000E+00 0.  1.
         23    2    1    2    0    0 -0.13311627878E+02  0.87466853470E+01 -0.56230852019E+03  0.56976979670E+03  0.90515442964E+02 0.  0.
        254    2    1    2    0    0  0.13311627878E+02 -0.87466853470E+01  0.55471489721E+03  0.10512487167E+04  0.89283903544E+03 0.  0.
         23    2    4    4    0    0 -0.12938280781E+03  0.27483929682E+03  0.63617353437E+03  0.70989383888E+03  0.83402317817E+02 0.  0.
         23    2    4    4    0    0  0.14269443568E+03 -0.28358598217E+03 -0.81458637160E+02  0.34135487780E+03  0.95419766159E+02 0.  0.
          2    1    3    3  502    0  0.12055036349E+02  0.17481960575E+02 -0.29833887032E+02  0.36619716853E+02  0.00000000000E+00 0. -1.
         -2    1    3    3    0  502 -0.25366664227E+02 -0.87352752279E+01 -0.53247463316E+03  0.53315007985E+03  0.00000000000E+00 0.  1.
         13    1    5    5    0    0  0.11394071226E+02  0.13568355043E+02  0.46120386879E+02  0.49406631169E+02  0.00000000000E+00 0.  1.
        -13    1    5    5    0    0 -0.14077687903E+03  0.26127094178E+03  0.59005314749E+03  0.66048720771E+03  0.00000000000E+00 0. -1.
          4    1    6    6  503    0  0.11462649378E+03 -0.16659430996E+03 -0.88716542949E+02  0.22082464124E+03  0.00000000000E+00 0. -1.
         -4    1    6    6    0  503  0.28067941906E+02 -0.11699167220E+03  0.72579057889E+01  0.12053023656E+03  0.00000000000E+00 0.  1.
<mgrwt>
<rscale>  0 0.16210007E+04</rscale>
<asrwt>0</asrwt>
<pdfrwt beam="1">  1        1 0.12410961E+00 0.16210007E+04</pdfrwt>
<pdfrwt beam="2">  1       -1 0.12527786E+00 0.16210007E+04</pdfrwt>
<totfact> 0.11631532E+01</totfact>
</mgrwt>
</event>
<event>
12    3  0.4192740E-008  0.1639236E+04  0.7818608E-02  0.8796800E-01
         -2   -1    0    0    0  501 -0.00000000000E+00  0.00000000000E+00  0.16115129839E+03  0.16115129839E+03  0.00000000000E+00 0.  1.
          2   -1    0    0  501    0  0.00000000000E+00 -0.00000000000E+00 -0.41685891392E+04  0.41685891392E+04  0.00000000000E+00 0. -1.
         23    2    1    2    0    0 -0.10809048376E+03 -0.23947739585E+03 -0.27355273204E+04  0.27495163465E+04  0.87735072723E+02 0.  0.
        254    2    1    2    0    0  0.10809048376E+03  0.23947739585E+03 -0.12719105204E+04  0.15802240911E+04  0.90017711059E+03 0.  0.
         23    2    4    4    0    0  0.40492251163E+03  0.33709366351E+03 -0.10702623419E+04  0.11969833156E+04  0.98555563394E+02 0.  0.
         23    2    4    4    0    0 -0.29683202787E+03 -0.97616267667E+02 -0.20164817851E+03  0.38324077547E+03  0.92592200551E+02 0.  0.
          4    1    3    3  502    0 -0.73337154709E+02 -0.16852990763E+03 -0.14563741753E+04  0.14679258859E+04  0.00000000000E+00 0. -1.
         -4    1    3    3    0  502 -0.34753329047E+02 -0.70947488217E+02 -0.12791531451E+04  0.12815904606E+04  0.00000000000E+00 0.  1.
         13    1    5    5    0    0  0.30990810995E+03  0.22293986366E+03 -0.84403713419E+03  0.92636056874E+03  0.00000000000E+00 0. -1.
        -13    1    5    5    0    0  0.95014401681E+02  0.11415379985E+03 -0.22622520767E+03  0.27062274688E+03  0.00000000000E+00 0.  1.
          1    1    6    6  503    0 -0.26653855437E+03 -0.11535561619E+03 -0.18536436712E+03  0.34454269366E+03  0.00000000000E+00 0. -1.
         -1    1    6    6    0  503 -0.30293473499E+02  0.17739348525E+02 -0.16283811393E+02  0.38698081815E+02  0.00000000000E+00 0.  1.
<mgrwt>
<rscale>  0 0.16392359E+04</rscale>
<asrwt>0</asrwt>
<pdfrwt beam="1">  1        2 0.64132149E+00 0.16392359E+04</pdfrwt>
<pdfrwt beam="2">  1       -2 0.24792504E-01 0.16392359E+04</pdfrwt>
<totfact> 0.35237032E+00</totfact>
</mgrwt>
</event>
<event>
12    3  0.4192740E-008  0.1770251E+04  0.7818608E-02  0.8722282E-01
         -2   -1    0    0    0  501 -0.00000000000E+00  0.00000000000E+00  0.42025476222E+03  0.42025476222E+03  0.00000000000E+00 0.  1.
          2   -1    0    0  501    0  0.00000000000E+00 -0.00000000000E+00 -0.18642193175E+04  0.18642193175E+04  0.00000000000E+00 0. -1.
         23    2    1    2    0    0  0.54532859171E+03 -0.30771083587E+03 -0.92380365133E+03  0.11197146664E+04  0.90986353367E+02 0.  0.
        254    2    1    2    0    0 -0.54532859171E+03  0.30771083587E+03 -0.52016090397E+03  0.11647594133E+04  0.83308336526E+03 0.  0.
         23    2    4    4    0    0 -0.51021527724E+03  0.30483757282E+02 -0.65973058252E+03  0.83942992626E+03  0.90273312782E+02 0.  0.
         23    2    4    4    0    0 -0.35113314475E+02  0.27722707859E+03  0.13956967855E+03  0.32532948707E+03  0.90949337705E+02 0.  0.
          2    1    3    3  502    0  0.42712249877E+03 -0.23156889996E+03 -0.77730715730E+03  0.91665926122E+03  0.00000000000E+00 0. -1.
         -2    1    3    3    0  502  0.11820609294E+03 -0.76141935910E+02 -0.14649649403E+03  0.20305540519E+03  0.00000000000E+00 0.  1.
         13    1    5    5    0    0 -0.12036524059E+03  0.40022399478E+02 -0.12990041223E+03  0.18155908322E+03  0.00000000000E+00 0. -1.
        -13    1    5    5    0    0 -0.38985003665E+03 -0.95386421964E+01 -0.52983017029E+03  0.65787084304E+03  0.00000000000E+00 0.  1.
          3    1    6    6  503    0  0.12275312615E+02  0.30753080419E+02  0.47677757978E+02  0.58048289044E+02  0.00000000000E+00 0. -1.
         -3    1    6    6    0  503 -0.47388627090E+02  0.24647399817E+03  0.91891920577E+02  0.26728119802E+03  0.00000000000E+00 0.  1.
<mgrwt>
<rscale>  0 0.17702509E+04</rscale>
<asrwt>0</asrwt>
<pdfrwt beam="1">  1        2 0.28680297E+00 0.17702509E+04</pdfrwt>
<pdfrwt beam="2">  1       -2 0.64654579E-01 0.17702509E+04</pdfrwt>
<totfact> 0.16609600E+01</totfact>
</mgrwt>
</event>
<event>
12    3  0.4192740E-008  0.1763959E+04  0.7818608E-02  0.8725704E-01
         -2   -1    0    0    0  501 -0.00000000000E+00  0.00000000000E+00  0.62987298265E+03  0.62987298265E+03  0.00000000000E+00 0.  1.
          2   -1    0    0  501    0  0.00000000000E+00 -0.00000000000E+00 -0.12349911199E+04  0.12349911199E+04  0.00000000000E+00 0. -1.
         23    2    1    2    0    0  0.39682374334E+03 -0.64149408972E+02  0.31497499586E+03  0.51871874623E+03  0.90970653097E+02 0.  0.
        254    2    1    2    0    0 -0.39682374334E+03  0.64149408972E+02 -0.92009313312E+03  0.13461453563E+04  0.89663354655E+03 0.  0.
         23    2    4    4    0    0 -0.42943148852E+03  0.97537042842E+02 -0.30616560276E+02  0.45089950407E+03  0.91913605896E+02 0.  0.
         23    2    4    4    0    0  0.32607745175E+02 -0.33387633869E+02 -0.88947657285E+03  0.89524585226E+03  0.90103069935E+02 0.  0.
          2    1    3    3  502    0  0.35874836177E+01  0.78173405325E+01 -0.16434060540E+01  0.87568050775E+01  0.00000000000E+00 0. -1.
         -2    1    3    3    0  502  0.39323625973E+03 -0.71966749505E+02  0.31661840191E+03  0.50996194115E+03  0.00000000000E+00 0.  1.
         13    1    5    5    0    0 -0.37387642085E+03  0.94144435986E+02 -0.56237192817E+02  0.38962722537E+03  0.00000000000E+00 0. -1.
        -13    1    5    5    0    0 -0.55555067665E+02  0.33926068557E+01  0.25620632541E+02  0.61272278694E+02  0.00000000000E+00 0.  1.
          1    1    6    6  503    0  0.37696224777E+02 -0.43448219058E+02 -0.28928554501E+03  0.29494894415E+03  0.00000000000E+00 0. -1.
         -1    1    6    6    0  503 -0.50884796017E+01  0.10060585188E+02 -0.60019102783E+03  0.60029690811E+03  0.00000000000E+00 0.  1.
<mgrwt>
<rscale>  0 0.17639587E+04</rscale>
<asrwt>0</asrwt>
<pdfrwt beam="1">  1        2 0.18999863E+00 0.17639587E+04</pdfrwt>
<pdfrwt beam="2">  1       -2 0.96903537E-01 0.17639587E+04</pdfrwt>
<totfact> 0.15208599E+01</totfact>
</mgrwt>
</event>
<event>
12    3  0.4192740E-008  0.1271038E+04  0.7818608E-02  0.9052853E-01
         -1   -1    0    0    0  501 -0.00000000000E+00  0.00000000000E+00  0.84367217883E+03  0.84367217883E+03  0.00000000000E+00 0.  1.
          1   -1    0    0  501    0  0.00000000000E+00 -0.00000000000E+00 -0.47872183885E+03  0.47872183885E+03  0.00000000000E+00 0. -1.
         23    2    1    2    0    0 -0.58378991960E+02  0.63097118315E+02  0.39849635956E+03  0.41789175324E+03  0.91895678893E+02 0.  0.
        254    2    1    2    0    0  0.58378991960E+02 -0.63097118315E+02 -0.33546019581E+02  0.90450226444E+03  0.89978311715E+03 0.  0.
         23    2    4    4    0    0  0.45646425058E+02 -0.22169407680E+03 -0.41478792970E+03  0.48129527785E+03  0.91456317681E+02 0.  0.
         23    2    4    4    0    0  0.12732566902E+02  0.15859695849E+03  0.38124191012E+03  0.42320698659E+03  0.91889313647E+02 0.  0.
          4    1    3    3  502    0  0.16968140188E+02  0.16048937900E+02  0.18764156931E+03  0.18908951511E+03  0.00000000000E+00 0. -1.
         -4    1    3    3    0  502 -0.75347132148E+02  0.47048180414E+02  0.21085479024E+03  0.22880223813E+03  0.00000000000E+00 0.  1.
         13    1    5    5    0    0 -0.17592915677E+02 -0.28476841889E+02 -0.25365623363E+02  0.41998286329E+02  0.00000000000E+00 0.  1.
        -13    1    5    5    0    0  0.63239340735E+02 -0.19321723491E+03 -0.38942230634E+03  0.43929699152E+03  0.00000000000E+00 0. -1.
          2    1    6    6  503    0 -0.15621114280E+02  0.15423218119E+03  0.31905260951E+03  0.35471982263E+03  0.00000000000E+00 0. -1.
         -2    1    6    6    0  503  0.28353681182E+02  0.43647772946E+01  0.62189300610E+02  0.68487163964E+02  0.00000000000E+00 0.  1.
<mgrwt>
<rscale>  0 0.12710378E+04</rscale>
<asrwt>0</asrwt>
<pdfrwt beam="1">  1        1 0.73649514E-01 0.12710378E+04</pdfrwt>
<pdfrwt beam="2">  1       -1 0.12979572E+00 0.12710378E+04</pdfrwt>
<totfact> 0.23599431E+01</totfact>
</mgrwt>
</event>
<event>
12    3  0.4192740E-008  0.1846641E+04  0.7818608E-02  0.8681882E-01
         -2   -1    0    0    0  501 -0.00000000000E+00  0.00000000000E+00  0.35267520910E+03  0.35267520910E+03  0.00000000000E+00 0.  1.
          2   -1    0    0  501    0  0.00000000000E+00 -0.00000000000E+00 -0.24172973992E+04  0.24172973992E+04  0.00000000000E+00 0. -1.
         23    2    1    2    0    0 -0.22102595074E+03 -0.32822697264E+03 -0.16233651404E+04  0.16733372053E+04  0.90319473547E+02 0.  0.
        254    2    1    2    0    0  0.22102595074E+03  0.32822697264E+03 -0.44125704977E+03  0.10966354030E+04  0.92266787453E+03 0.  0.
         23    2    4    4    0    0 -0.29471779948E+03  0.11832772786E+03 -0.41858367729E+03  0.53188190919E+03  0.82619839731E+02 0.  0.
         23    2    4    4    0    0  0.51574375022E+03  0.20989924478E+03 -0.22673372481E+02  0.56475349382E+03  0.91559369328E+02 0.  0.
          4    1    3    3  502    0 -0.82776544630E+02 -0.76190178779E+02 -0.59535742867E+03  0.60589385832E+03  0.00000000000E+00 0. -1.
         -4    1    3    3    0  502 -0.13824940611E+03 -0.25203679386E+03 -0.10280077117E+04  0.10674433470E+04  0.00000000000E+00 0.  1.
         13    1    5    5    0    0 -0.15395709241E+03  0.62302849416E+02 -0.28518025420E+03  0.33001849757E+03  0.00000000000E+00 0. -1.
        -13    1    5    5    0    0 -0.14076070708E+03  0.56024878442E+02 -0.13340342308E+03  0.20186341162E+03  0.00000000000E+00 0.  1.
          2    1    6    6  503    0  0.45410514142E+03  0.21378068225E+03 -0.11838548665E+02  0.50204960990E+03  0.00000000000E+00 0. -1.
         -2    1    6    6    0  503  0.61638608795E+02 -0.38814374661E+01 -0.10834823816E+02  0.62703883915E+02  0.00000000000E+00 0.  1.
<mgrwt>
<rscale>  0 0.18466411E+04</rscale>
<asrwt>0</asrwt>
<pdfrwt beam="1">  1        2 0.37189191E+00 0.18466411E+04</pdfrwt>
<pdfrwt beam="2">  1       -2 0.54257723E-01 0.18466411E+04</pdfrwt>
<totfact> 0.11696256E+01</totfact>
</mgrwt>
</event>
<event>
12    3  0.4192740E-008  0.2329899E+04  0.7818608E-02  0.8466225E-01
         -2   -1    0    0    0  501 -0.00000000000E+00  0.00000000000E+00  0.58179167365E+03  0.58179167365E+03  0.00000000000E+00 0.  1.
          2   -1    0    0  501    0  0.00000000000E+00 -0.00000000000E+00 -0.23326338859E+04  0.23326338859E+04  0.00000000000E+00 0. -1.
         23    2    1    2    0    0 -0.84245955869E+03 -0.10585121990E+03 -0.11475614126E+03  0.86201487648E+03  0.94647168675E+02 0.  0.
        254    2    1    2    0    0  0.84245955869E+03  0.10585121990E+03 -0.16360860710E+04  0.20524106831E+04  0.90259037860E+03 0.  0.
         23    2    4    4    0    0  0.31792661796E+03 -0.39038819601E+03 -0.67413364142E+03  0.84621283585E+03  0.90220391702E+02 0.  0.
         23    2    4    4    0    0  0.52453294073E+03  0.49623941591E+03 -0.96195242959E+03  0.12061978472E+04  0.90401361040E+02 0.  0.
          3    1    3    3  502    0 -0.39321065605E+03 -0.89129698856E+02 -0.27970948466E+02  0.40415479362E+03  0.00000000000E+00 0. -1.
         -3    1    3    3    0  502 -0.44924890264E+03 -0.16721521047E+02 -0.86785192794E+02  0.45786008286E+03  0.00000000000E+00 0.  1.
         13    1    5    5    0    0  0.16652053980E+03 -0.26580943342E+03 -0.44838029791E+03  0.54720072791E+03  0.00000000000E+00 0. -1.
        -13    1    5    5    0    0  0.15140607816E+03 -0.12457876259E+03 -0.22575334351E+03  0.29901210794E+03  0.00000000000E+00 0.  1.
          2    1    6    6  503    0  0.52067321747E+03  0.47379406853E+03 -0.91973140053E+03  0.11582259140E+04  0.00000000000E+00 0. -1.
         -2    1    6    6    0  503  0.38597232548E+01  0.22445347384E+02 -0.42221029059E+02  0.47971933228E+02  0.00000000000E+00 0.  1.
<mgrwt>
<rscale>  0 0.23298987E+04</rscale>
<asrwt>0</asrwt>
<pdfrwt beam="1">  1        2 0.35886675E+00 0.23298987E+04</pdfrwt>
<pdfrwt beam="2">  1       -2 0.89506412E-01 0.23298987E+04</pdfrwt>
<totfact> 0.42043904E+00</totfact>
</mgrwt>
</event>
<event>
12    3  0.4192740E-008  0.2156680E+04  0.7818608E-02  0.8536678E-01
         -1   -1    0    0    0  501 -0.00000000000E+00  0.00000000000E+00  0.11677086304E+04  0.11677086304E+04  0.00000000000E+00 0.  1.
          1   -1    0    0  501    0  0.00000000000E+00 -0.00000000000E+00 -0.99581092310E+03  0.99581092310E+03  0.00000000000E+00 0. -1.
         23    2    1    2    0    0 -0.30908034046E+03  0.51076434443E+03  0.73071802235E+03  0.94804286105E+03  0.91790880868E+02 0.  0.
        254    2    1    2    0    0  0.30908034046E+03 -0.51076434443E+03 -0.55882031508E+03  0.12154766924E+04  0.89927335824E+03 0.  0.
         23    2    4    4    0    0  0.29029036208E+03  0.95700311418E+02 -0.50781438634E+03  0.59968015855E+03  0.91180028853E+02 0.  0.
         23    2    4    4    0    0  0.18789978373E+02 -0.60646465585E+03 -0.51005928743E+02  0.61579653386E+03  0.91931084336E+02 0.  0.
          4    1    3    3  502    0 -0.51624900156E+02  0.51134726631E+02  0.13091216042E+03  0.14972603090E+03  0.00000000000E+00 0. -1.
         -4    1    3    3    0  502 -0.25745544030E+03  0.45962961780E+03  0.59980586193E+03  0.79831683015E+03  0.00000000000E+00 0.  1.
         13    1    5    5    0    0  0.98221508008E+02  0.63133543385E+02 -0.13097468259E+03  0.17546417416E+03  0.00000000000E+00 0. -1.
        -13    1    5    5    0    0  0.19206885408E+03  0.32566768033E+02 -0.37683970375E+03  0.42421598439E+03  0.00000000000E+00 0.  1.
          2    1    6    6  503    0 -0.31623011195E+02 -0.19120944032E+03 -0.36679108127E+02  0.19724710867E+03  0.00000000000E+00 0. -1.
         -2    1    6    6    0  503  0.50412989569E+02 -0.41525521553E+03 -0.14326820616E+02  0.41854942519E+03  0.00000000000E+00 0.  1.
<mgrwt>
<rscale>  0 0.21566799E+04</rscale>
<asrwt>0</asrwt>
<pdfrwt beam="1">  1        1 0.15320168E+00 0.21566799E+04</pdfrwt>
<pdfrwt beam="2">  1       -1 0.17964748E+00 0.21566799E+04</pdfrwt>
<totfact> 0.29206815E+00</totfact>
</mgrwt>
</event>
<event>
12    3  0.4192740E-008  0.1572846E+04  0.7818608E-02  0.8837405E-01
          2   -1    0    0  501    0  0.00000000000E+00  0.00000000000E+00  0.11614909405E+04  0.11614909405E+04  0.00000000000E+00 0. -1.
         -2   -1    0    0    0  501 -0.00000000000E+00 -0.00000000000E+00 -0.53247203977E+03  0.53247203977E+03  0.00000000000E+00 0.  1.
         23    2    1    2    0    0  0.26015980063E+03  0.20713749046E+03 -0.22461788957E+03  0.41144141190E+03  0.90784234804E+02 0.  0.
        254    2    1    2    0    0 -0.26015980063E+03 -0.20713749046E+03  0.85363679028E+03  0.12825215684E+04  0.89753927031E+03 0.  0.
         23    2    4    4    0    0  0.25223893925E+03 -0.24937500124E+03  0.12683709117E+03  0.38760295559E+03  0.91301860743E+02 0.  0.
         23    2    4    4    0    0 -0.51239873987E+03  0.42237510772E+02  0.72679969912E+03  0.89491861276E+03  0.91132018970E+02 0.  0.
          4    1    3    3  502    0  0.26359562550E+03  0.19211057190E+03 -0.22460637217E+03  0.39602670117E+03  0.00000000000E+00 0.  1.
         -4    1    3    3    0  502 -0.34358248772E+01  0.15026918564E+02 -0.11517404117E-01  0.15414710726E+02  0.00000000000E+00 0. -1.
         13    1    5    5    0    0  0.30860003344E+02  0.24305609066E+01  0.11967301386E+02  0.33188307206E+02  0.00000000000E+00 0.  1.
        -13    1    5    5    0    0  0.22137893590E+03 -0.25180556214E+03  0.11486978978E+03  0.35441464839E+03  0.00000000000E+00 0. -1.
          3    1    6    6  503    0 -0.37420001840E+03  0.71222562049E+02  0.53430622237E+03  0.65618705137E+03  0.00000000000E+00 0. -1.
         -3    1    6    6    0  503 -0.13819872148E+03 -0.28985051277E+02  0.19249347674E+03  0.23873156139E+03  0.00000000000E+00 0.  1.
<mgrwt>
<rscale>  0 0.15728464E+04</rscale>
<asrwt>0</asrwt>
<pdfrwt beam="1">  1        2 0.17869091E+00 0.15728464E+04</pdfrwt>
<pdfrwt beam="2">  1       -2 0.81918776E-01 0.15728464E+04</pdfrwt>
<totfact> 0.25159441E+01</totfact>
</mgrwt>
</event>
<event>
12    3  0.4192740E-008  0.1531998E+04  0.7818608E-02  0.8863449E-01
          1   -1    0    0  501    0  0.00000000000E+00  0.00000000000E+00  0.58458479910E+03  0.58458479910E+03  0.00000000000E+00 0. -1.
         -1   -1    0    0    0  501 -0.00000000000E+00 -0.00000000000E+00 -0.10037111854E+04  0.10037111854E+04  0.00000000000E+00 0.  1.
         23    2    1    2    0    0  0.45029177059E+03 -0.43916508497E+02  0.80626886097E+02  0.46823181388E+03  0.89716210302E+02 0.  0.
        254    2    1    2    0    0 -0.45029177059E+03  0.43916508497E+02 -0.49975327241E+03  0.11200641706E+04  0.89448257373E+03 0.  0.
         23    2    4    4    0    0 -0.52689651746E+03 -0.25268187504E+03 -0.53615123023E+03  0.79828717874E+03  0.91302836641E+02 0.  0.
         23    2    4    4    0    0  0.76604746870E+02  0.29659838354E+03  0.36397957821E+02  0.32177699190E+03  0.91524493042E+02 0.  0.
          2    1    3    3  502    0 -0.43897377090E+00  0.68381070675E+01  0.47799630483E+01  0.83546665392E+01  0.00000000000E+00 0.  1.
         -2    1    3    3    0  502  0.45073074436E+03 -0.50754615564E+02  0.75846923049E+02  0.45987714734E+03  0.00000000000E+00 0. -1.
         13    1    5    5    0    0  0.18862902193E+01 -0.88947080813E+01 -0.98840786886E+01  0.13430150191E+02  0.00000000000E+00 0.  1.
        -13    1    5    5    0    0 -0.52878280768E+03 -0.24378716696E+03 -0.52626715155E+03  0.78485702855E+03  0.00000000000E+00 0. -1.
          4    1    6    6  503    0  0.69841735096E+02  0.27403050512E+03  0.54001277982E+01  0.28284226537E+03  0.00000000000E+00 0. -1.
         -4    1    6    6    0  503  0.67630117742E+01  0.22567878416E+02  0.30997830023E+02  0.38934726538E+02  0.00000000000E+00 0.  1.
<mgrwt>
<rscale>  0 0.15319978E+04</rscale>
<asrwt>0</asrwt>
<pdfrwt beam="1">  1        1 0.89936124E-01 0.15319978E+04</pdfrwt>
<pdfrwt beam="2">  1       -1 0.15441710E+00 0.15319978E+04</pdfrwt>
<totfact> 0.11062927E+01</totfact>
</mgrwt>
</event>
<event>
12    3  0.4192740E-008  0.1867644E+04  0.7818608E-02  0.8671132E-01
         -2   -1    0    0    0  501 -0.00000000000E+00  0.00000000000E+00  0.60022291001E+03  0.60022291001E+03  0.00000000000E+00 0.  1.
          2   -1    0    0  501    0  0.00000000000E+00 -0.00000000000E+00 -0.14528321642E+04  0.14528321642E+04  0.00000000000E+00 0. -1.
         23    2    1    2    0    0 -0.22094799496E+01  0.45641358111E+03 -0.93539741145E+03  0.10447184244E+04  0.90277517611E+02 0.  0.
        254    2    1    2    0    0  0.22094799496E+01 -0.45641358111E+03  0.82788157283E+02  0.10083366497E+04  0.89530479806E+03 0.  0.
         23    2    4    4    0    0  0.41288632621E+03 -0.37234760067E+03 -0.24950511505E+02  0.56384762139E+03  0.90464125672E+02 0.  0.
         23    2    4    4    0    0 -0.41067684626E+03 -0.84065980440E+02  0.10773866879E+03  0.44448902836E+03  0.10119443889E+03 0.  0.
          3    1    3    3  502    0 -0.24091302879E+02  0.41962043145E+03 -0.87469573590E+03  0.97044027522E+03  0.00000000000E+00 0. -1.
         -3    1    3    3    0  502  0.21881822929E+02  0.36793149661E+02 -0.60701675549E+02  0.74278149217E+02  0.00000000000E+00 0.  1.
         13    1    5    5    0    0  0.77305363360E+02 -0.10793015918E+03 -0.31965377122E+02  0.13655337345E+03  0.00000000000E+00 0.  1.
        -13    1    5    5    0    0  0.33558096284E+03 -0.26441744148E+03  0.70148656176E+01  0.42729424794E+03  0.00000000000E+00 0. -1.
          4    1    6    6  503    0 -0.17700692625E+03  0.84011874945E+01  0.69258453149E+02  0.19025973096E+03  0.00000000000E+00 0.  1.
         -4    1    6    6    0  503 -0.23366992000E+03 -0.92467167934E+02  0.38480215639E+02  0.25422929740E+03  0.00000000000E+00 0. -1.
<mgrwt>
<rscale>  0 0.18676436E+04</rscale>
<asrwt>0</asrwt>
<pdfrwt beam="1">  1        2 0.22351264E+00 0.18676436E+04</pdfrwt>
<pdfrwt beam="2">  1       -2 0.92341986E-01 0.18676436E+04</pdfrwt>
<totfact> 0.12623455E+01</totfact>
</mgrwt>
</event>
<event>
12    3  0.4192740E-008  0.1694634E+04  0.7818608E-02  0.8764430E-01
         -2   -1    0    0    0  501 -0.00000000000E+00  0.00000000000E+00  0.53445868408E+03  0.53445868408E+03  0.00000000000E+00 0. -1.
          2   -1    0    0  501    0  0.00000000000E+00 -0.00000000000E+00 -0.13433152795E+04  0.13433152795E+04  0.00000000000E+00 0.  1.
         23    2    1    2    0    0 -0.39202324511E+03  0.37780523714E+03 -0.61646818500E+01  0.55208927967E+03  0.91353968217E+02 0.  0.
        254    2    1    2    0    0  0.39202324511E+03 -0.37780523714E+03 -0.80269191355E+03  0.13256846839E+04  0.90371818123E+03 0.  0.
         23    2    4    4    0    0 -0.22370408258E+03  0.80207451541E+02 -0.34187989556E+03  0.42645599992E+03  0.92228547849E+02 0.  0.
         23    2    4    4    0    0  0.61572732769E+03 -0.45801268868E+03 -0.46081201799E+03  0.89922868396E+03  0.85841394849E+02 0.  0.
          4    1    3    3  502    0 -0.11734451540E+03  0.10183156259E+03 -0.42359390652E+02  0.16103949953E+03  0.00000000000E+00 0. -1.
         -4    1    3    3    0  502 -0.27467872971E+03  0.27597367455E+03  0.36194708802E+02  0.39104978014E+03  0.00000000000E+00 0.  1.
         13    1    5    5    0    0 -0.95113818977E+02 -0.13118310434E+02 -0.13109021742E+03  0.16249114970E+03  0.00000000000E+00 0.  1.
        -13    1    5    5    0    0 -0.12859026360E+03  0.93325761975E+02 -0.21078967814E+03  0.26396485022E+03  0.00000000000E+00 0. -1.
          2    1    6    6  503    0  0.49101745710E+03 -0.40182259748E+03 -0.36193937614E+03  0.73045167877E+03  0.00000000000E+00 0. -1.
         -2    1    6    6    0  503  0.12470987060E+03 -0.56190091198E+02 -0.98872641855E+02  0.16877700519E+03  0.00000000000E+00 0.  1.
<mgrwt>
<rscale>  0 0.16946345E+04</rscale>
<asrwt>0</asrwt>
<pdfrwt beam="1">  1        2 0.20666389E+00 0.16946345E+04</pdfrwt>
<pdfrwt beam="2">  1       -2 0.82224413E-01 0.16946345E+04</pdfrwt>
<totfact> 0.19296600E+01</totfact>
</mgrwt>
</event>
<event>
12    3  0.4192740E-008  0.2554227E+04  0.7818608E-02  0.8383918E-01
          2   -1    0    0  501    0  0.00000000000E+00  0.00000000000E+00  0.94790533851E+03  0.94790533851E+03  0.00000000000E+00 0. -1.
         -2   -1    0    0    0  501 -0.00000000000E+00 -0.00000000000E+00 -0.17206561210E+04  0.17206561210E+04  0.00000000000E+00 0.  1.
         23    2    1    2    0    0  0.11152038412E+03 -0.50790581047E+03 -0.13786134867E+04  0.14762365534E+04  0.91071990296E+02 0.  0.
        254    2    1    2    0    0 -0.11152038412E+03  0.50790581047E+03  0.60586270426E+03  0.11923249061E+04  0.88553032522E+03 0.  0.
         23    2    4    4    0    0  0.30973885204E+03  0.27048864560E+03  0.55557069761E+03  0.69745566949E+03  0.93184478314E+02 0.  0.
         23    2    4    4    0    0 -0.42125923616E+03  0.23741716487E+03  0.50292006656E+02  0.49486923660E+03  0.92412234993E+02 0.  0.
          1    1    3    3  502    0  0.69803608033E+02 -0.17287306983E+03 -0.40792119372E+03  0.44850567694E+03  0.00000000000E+00 0. -1.
         -1    1    3    3    0  502  0.41716776085E+02 -0.33503274064E+03 -0.97069229299E+03  0.10277308764E+04  0.00000000000E+00 0.  1.
         13    1    5    5    0    0  0.15915593752E+03  0.10274365970E+03  0.31656357569E+03  0.36891648040E+03  0.00000000000E+00 0.  1.
        -13    1    5    5    0    0  0.15058291453E+03  0.16774498590E+03  0.23900712191E+03  0.32853918909E+03  0.00000000000E+00 0. -1.
          2    1    6    6  503    0 -0.19993734457E+02  0.50485834529E+01 -0.16477364498E+02  0.26395854849E+02  0.00000000000E+00 0. -1.
         -2    1    6    6    0  503 -0.40126550171E+03  0.23236858141E+03  0.66769371154E+02  0.46847338175E+03  0.00000000000E+00 0.  1.
<mgrwt>
<rscale>  0 0.25542272E+04</rscale>
<asrwt>0</asrwt>
<pdfrwt beam="1">  1        2 0.14583159E+00 0.25542272E+04</pdfrwt>
<pdfrwt beam="2">  1       -2 0.26471633E+00 0.25542272E+04</pdfrwt>
<totfact> 0.12624910E+00</totfact>
</mgrwt>
</event>
<event>
12    3  0.4192740E-008  0.2717071E+04  0.7818608E-02  0.8329487E-01
         -2   -1    0    0    0  501 -0.00000000000E+00  0.00000000000E+00  0.17609544179E+04  0.17609544179E+04  0.00000000000E+00 0.  1.
          2   -1    0    0  501    0  0.00000000000E+00 -0.00000000000E+00 -0.10480788217E+04  0.10480788217E+04  0.00000000000E+00 0. -1.
         23    2    1    2    0    0  0.31227876553E+03  0.49660851141E+03 -0.77364619155E+03  0.97523528736E+03  0.91746362434E+02 0.  0.
        254    2    1    2    0    0 -0.31227876553E+03 -0.49660851141E+03  0.14865217877E+04  0.18337979523E+04  0.89940528310E+03 0.  0.
         23    2    4    4    0    0 -0.36966865634E+02 -0.83628194023E+01 -0.10460399836E+03  0.14432825868E+03  0.91935650739E+02 0.  0.
         23    2    4    4    0    0 -0.27531189989E+03 -0.48824569201E+03  0.15911257861E+04  0.16894696936E+04  0.91902558911E+02 0.  0.
          3    1    3    3  502    0  0.19642692332E+03  0.30868819974E+03 -0.40724566753E+03  0.54746778407E+03  0.00000000000E+00 0. -1.
         -3    1    3    3    0  502  0.11585184221E+03  0.18792031167E+03 -0.36640052401E+03  0.42776750330E+03  0.00000000000E+00 0.  1.
         13    1    5    5    0    0 -0.13343024070E+02  0.16735858387E+02  0.10737960753E+02  0.23946378608E+02  0.00000000000E+00 0. -1.
        -13    1    5    5    0    0 -0.23623841563E+02 -0.25098677789E+02 -0.11534195911E+03  0.12038188007E+03  0.00000000000E+00 0.  1.
          4    1    6    6  503    0 -0.25194829859E+03 -0.46457576744E+03  0.14203972387E+04  0.15155318883E+04  0.00000000000E+00 0.  1.
         -4    1    6    6    0  503 -0.23363601298E+02 -0.23669924569E+02  0.17072854739E+03  0.17393780523E+03  0.00000000000E+00 0. -1.
<mgrwt>
<rscale>  0 0.27170712E+04</rscale>
<asrwt>0</asrwt>
<pdfrwt beam="1">  1        2 0.16124290E+00 0.27170712E+04</pdfrwt>
<pdfrwt beam="2">  1       -2 0.27091607E+00 0.27170712E+04</pdfrwt>
<totfact> 0.98391345E-01</totfact>
</mgrwt>
</event>
<event>
12    3  0.4192740E-008  0.1250904E+04  0.7818608E-02  0.9069432E-01
         -2   -1    0    0    0  501 -0.00000000000E+00  0.00000000000E+00  0.29241566183E+03  0.29241566183E+03  0.00000000000E+00 0.  1.
          2   -1    0    0  501    0  0.00000000000E+00 -0.00000000000E+00 -0.13377873431E+04  0.13377873431E+04  0.00000000000E+00 0. -1.
         23    2    1    2    0    0 -0.26312533847E+03 -0.20078772107E+02 -0.43781557871E+03  0.51958526566E+03  0.92996056361E+02 0.  0.
        254    2    1    2    0    0  0.26312533847E+03  0.20078772107E+02 -0.60755610260E+03  0.11106177393E+04  0.89146466234E+03 0.  0.
         23    2    4    4    0    0  0.18149872946E+03 -0.14163365148E+03  0.17416206365E+03  0.30259631582E+03  0.90720592473E+02 0.  0.
         23    2    4    4    0    0  0.81626609010E+02  0.16171242359E+03 -0.78171816625E+03  0.80802142349E+03  0.94876330662E+02 0.  0.
          3    1    3    3  502    0 -0.26200331109E+03 -0.34935773114E+02 -0.42119641856E+03  0.49726518707E+03  0.00000000000E+00 0. -1.
         -3    1    3    3    0  502 -0.11220273848E+01  0.14857001007E+02 -0.16619160152E+02  0.22320078596E+02  0.00000000000E+00 0.  1.
         13    1    5    5    0    0  0.74473601705E+02 -0.12569990091E+02  0.81152899410E+02  0.11086079147E+03  0.00000000000E+00 0. -1.
        -13    1    5    5    0    0  0.10702512776E+03 -0.12906366139E+03  0.93009164245E+02  0.19173552435E+03  0.00000000000E+00 0.  1.
          2    1    6    6  503    0  0.28177356180E+02  0.12907372427E+02 -0.45743714646E+02  0.55254421488E+02  0.00000000000E+00 0. -1.
         -2    1    6    6    0  503  0.53449252830E+02  0.14880505116E+03 -0.73597445161E+03  0.75276700200E+03  0.00000000000E+00 0.  1.
<mgrwt>
<rscale>  0 0.12509036E+04</rscale>
<asrwt>0</asrwt>
<pdfrwt beam="1">  1        2 0.20581344E+00 0.12509036E+04</pdfrwt>
<pdfrwt beam="2">  1       -2 0.44987025E-01 0.12509036E+04</pdfrwt>
<totfact> 0.72390617E+01</totfact>
</mgrwt>
</event>
<event>
12    3  0.4192740E-008  0.2978374E+04  0.7818608E-02  0.8249934E-01
          1   -1    0    0  501    0  0.00000000000E+00  0.00000000000E+00  0.14015167307E+04  0.14015167307E+04  0.00000000000E+00 0. -1.
         -1   -1    0    0    0  501 -0.00000000000E+00 -0.00000000000E+00 -0.15823409517E+04  0.15823409517E+04  0.00000000000E+00 0.  1.
         23    2    1    2    0    0 -0.12362655819E+04  0.23427838803E+03  0.41410742422E+03  0.13279688019E+04  0.93686861760E+02 0.  0.
        254    2    1    2    0    0  0.12362655819E+04 -0.23427838803E+03 -0.59493164517E+03  0.16558888805E+04  0.89709830564E+03 0.  0.
         23    2    4    4    0    0  0.13512625262E+04 -0.13964778015E+03 -0.46459087063E+03  0.14385803657E+04  0.90867343304E+02 0.  0.
         23    2    4    4    0    0 -0.11499694435E+03 -0.94630607878E+02 -0.13034077453E+03  0.21730851480E+03  0.89749785195E+02 0.  0.
          2    1    3    3  502    0 -0.56158091079E+03  0.11109229859E+03  0.23736407545E+03  0.61972277874E+03  0.00000000000E+00 0. -1.
         -2    1    3    3    0  502 -0.67468467110E+03  0.12318608944E+03  0.17674334877E+03  0.70824602321E+03  0.00000000000E+00 0.  1.
         13    1    5    5    0    0  0.86340166141E+03 -0.10534129391E+03 -0.25426510989E+03  0.90620635797E+03  0.00000000000E+00 0. -1.
        -13    1    5    5    0    0  0.48786086484E+03 -0.34306486245E+02 -0.21032576075E+03  0.53237400770E+03  0.00000000000E+00 0.  1.
          1    1    6    6  503    0 -0.12299931846E+03 -0.76052855010E+02 -0.13352751292E+03  0.19683105904E+03  0.00000000000E+00 0. -1.
         -1    1    6    6    0  503  0.80023741084E+01 -0.18577752868E+02  0.31867383849E+01  0.20477455763E+02  0.00000000000E+00 0.  1.
<mgrwt>
<rscale>  0 0.29783736E+04</rscale>
<asrwt>0</asrwt>
<pdfrwt beam="1">  1        1 0.21561796E+00 0.29783736E+04</pdfrwt>
<pdfrwt beam="2">  1       -1 0.24343707E+00 0.29783736E+04</pdfrwt>
<totfact> 0.50295585E-01</totfact>
</mgrwt>
</event>
<event>
12    3  0.4192740E-008  0.2431633E+04  0.7818608E-02  0.8427755E-01
         -2   -1    0    0    0  501 -0.00000000000E+00  0.00000000000E+00  0.21014012431E+04  0.21014012431E+04  0.00000000000E+00 0.  1.
          2   -1    0    0  501    0  0.00000000000E+00 -0.00000000000E+00 -0.70344002687E+03  0.70344002687E+03  0.00000000000E+00 0. -1.
         23    2    1    2    0    0 -0.46061715831E+02  0.90070360814E+03  0.12109897230E+04  0.15126117738E+04  0.90053303157E+02 0.  0.
        254    2    1    2    0    0  0.46061715831E+02 -0.90070360814E+03  0.18697149319E+03  0.12922294962E+04  0.90637192159E+03 0.  0.
         23    2    4    4    0    0 -0.19816148745E+03 -0.97689972277E+03  0.20199362625E+03  0.10210445244E+04  0.90163474957E+02 0.  0.
         23    2    4    4    0    0  0.24422320329E+03  0.76196114635E+02 -0.15022133067E+02  0.27118497186E+03  0.88683727763E+02 0.  0.
          2    1    3    3  502    0 -0.22459120042E+02  0.15133035643E+03  0.25934512282E+03  0.30110659504E+03  0.00000000000E+00 0. -1.
         -2    1    3    3    0  502 -0.23602595790E+02  0.74937325171E+03  0.95164460022E+03  0.12115051787E+04  0.00000000000E+00 0.  1.
         13    1    5    5    0    0 -0.94247464467E+02 -0.31052093724E+03  0.36110481074E+02  0.32651156774E+03  0.00000000000E+00 0. -1.
        -13    1    5    5    0    0 -0.10391402299E+03 -0.66637878553E+03  0.16588314518E+03  0.69453295662E+03  0.00000000000E+00 0.  1.
          3    1    6    6  503    0  0.15270718664E+03  0.67565454371E+01  0.11487313321E+02  0.15328761895E+03  0.00000000000E+00 0. -1.
         -3    1    6    6    0  503  0.91516016647E+02  0.69439569198E+02 -0.26509446388E+02  0.11789735290E+03  0.00000000000E+00 0.  1.
<mgrwt>
<rscale>  0 0.24316330E+04</rscale>
<asrwt>0</asrwt>
<pdfrwt beam="1">  1        2 0.10822154E+00 0.24316330E+04</pdfrwt>
<pdfrwt beam="2">  1       -2 0.32329250E+00 0.24316330E+04</pdfrwt>
<totfact> 0.83477731E-01</totfact>
</mgrwt>
</event>
<event>
12    3  0.4192740E-008  0.1911844E+04  0.7818608E-02  0.8648983E-01
          1   -1    0    0  501    0  0.00000000000E+00  0.00000000000E+00  0.55378652113E+03  0.55378652113E+03  0.00000000000E+00 0. -1.
         -1   -1    0    0    0  501 -0.00000000000E+00 -0.00000000000E+00 -0.16500700836E+04  0.16500700836E+04  0.00000000000E+00 0.  1.
         23    2    1    2    0    0 -0.63179707523E+03  0.28493950446E+03 -0.13569070053E+03  0.71256302563E+03  0.94741932707E+02 0.  0.
        254    2    1    2    0    0  0.63179707523E+03 -0.28493950446E+03 -0.96059286194E+03  0.14912935791E+04  0.90601314958E+03 0.  0.
         23    2    4    4    0    0  0.68809443865E+03 -0.21330313399E+02 -0.27157420612E+03  0.74591114204E+03  0.93284208871E+02 0.  0.
         23    2    4    4    0    0 -0.56297363419E+02 -0.26360919106E+03 -0.68901865582E+03  0.74538243707E+03  0.90493484163E+02 0.  0.
          2    1    3    3  502    0 -0.46205465732E+03  0.25039779656E+03 -0.11633850315E+03  0.53826407105E+03  0.00000000000E+00 0. -1.
         -2    1    3    3    0  502 -0.16974241791E+03  0.34541707900E+02 -0.19352197387E+02  0.17429895458E+03  0.00000000000E+00 0.  1.
         13    1    5    5    0    0  0.40940269018E+03 -0.55481482533E+02 -0.14411900551E+03  0.43756033342E+03  0.00000000000E+00 0.  1.
        -13    1    5    5    0    0  0.27869174847E+03  0.34151169135E+02 -0.12745520061E+03  0.30835080863E+03  0.00000000000E+00 0. -1.
          3    1    6    6  503    0 -0.23451373772E+02 -0.11055561382E+03 -0.17730399524E+03  0.21025988064E+03  0.00000000000E+00 0. -1.
         -3    1    6    6    0  503 -0.32845989647E+02 -0.15305357725E+03 -0.51171466058E+03  0.53512255643E+03  0.00000000000E+00 0.  1.
<mgrwt>
<rscale>  0 0.19118437E+04</rscale>
<asrwt>0</asrwt>
<pdfrwt beam="1">  1        1 0.85197928E-01 0.19118437E+04</pdfrwt>
<pdfrwt beam="2">  1       -1 0.25385693E+00 0.19118437E+04</pdfrwt>
<totfact> 0.23624884E+00</totfact>
</mgrwt>
</event>
<event>
12    3  0.4192740E-008  0.1446882E+04  0.7818608E-02  0.8920565E-01
         -2   -1    0    0    0  501 -0.00000000000E+00  0.00000000000E+00  0.48143227931E+03  0.48143227931E+03  0.00000000000E+00 0.  1.
          2   -1    0    0  501    0  0.00000000000E+00 -0.00000000000E+00 -0.10871042307E+04  0.10871042307E+04  0.00000000000E+00 0. -1.
         23    2    1    2    0    0 -0.79306961098E+02 -0.19150861349E+03  0.22072528490E+03  0.31670189004E+03  0.92818600731E+02 0.  0.
        254    2    1    2    0    0  0.79306961098E+02  0.19150861349E+03 -0.82639723627E+03  0.12518346199E+04  0.91716540518E+03 0.  0.
         23    2    4    4    0    0 -0.10949336659E+03 -0.24544236470E+03  0.10735279938E+02  0.28459520836E+03  0.92996960517E+02 0.  0.
         23    2    4    4    0    0  0.18880032769E+03  0.43695097819E+03 -0.83713251621E+03  0.96723941158E+03  0.90495903549E+02 0.  0.
          1    1    3    3  502    0  0.17229286372E+02 -0.10245227655E+02  0.98005846924E+01  0.22312876527E+02  0.00000000000E+00 0. -1.
         -1    1    3    3    0  502 -0.96536247470E+02 -0.18126338583E+03  0.21092470021E+03  0.29438901351E+03  0.00000000000E+00 0.  1.
         13    1    5    5    0    0 -0.24364324371E+02 -0.16530385339E+03 -0.99911990471E+00  0.16709273619E+03  0.00000000000E+00 0. -1.
        -13    1    5    5    0    0 -0.85129042220E+02 -0.80138511311E+02  0.11734399843E+02  0.11750247216E+03  0.00000000000E+00 0.  1.
          4    1    6    6  503    0 -0.61995323107E+01  0.90714932348E+01 -0.65540429296E+01  0.12793813704E+02  0.00000000000E+00 0. -1.
         -4    1    6    6    0  503  0.19499986000E+03  0.42787948495E+03 -0.83057847328E+03  0.95444559788E+03  0.00000000000E+00 0.  1.
<mgrwt>
<rscale>  0 0.14468823E+04</rscale>
<asrwt>0</asrwt>
<pdfrwt beam="1">  1        2 0.16724680E+00 0.14468823E+04</pdfrwt>
<pdfrwt beam="2">  1       -2 0.74066505E-01 0.14468823E+04</pdfrwt>
<totfact> 0.35345167E+01</totfact>
</mgrwt>
</event>
<event>
12    3  0.4192740E-008  0.1735692E+04  0.7818608E-02  0.8741266E-01
         -1   -1    0    0    0  501 -0.00000000000E+00  0.00000000000E+00  0.11880649802E+04  0.11880649802E+04  0.00000000000E+00 0.  1.
          1   -1    0    0  501    0  0.00000000000E+00 -0.00000000000E+00 -0.63393576299E+03  0.63393576299E+03  0.00000000000E+00 0. -1.
         23    2    1    2    0    0 -0.52269545653E+03 -0.21503084601E+03  0.49844769089E+03  0.75928354189E+03  0.92804048437E+02 0.  0.
        254    2    1    2    0    0  0.52269545653E+03  0.21503084601E+03  0.55681526309E+02  0.10627172013E+04  0.89823082365E+03 0.  0.
         23    2    4    4    0    0  0.29297931815E+03  0.46950758833E+03  0.29577794068E+03  0.63465004200E+03  0.94983310428E+02 0.  0.
         23    2    4    4    0    0  0.22971613838E+03 -0.25447674232E+03 -0.24009641437E+03  0.42806715929E+03  0.89818083141E+02 0.  0.
          2    1    3    3  502    0 -0.52062818489E+03 -0.21893517060E+03  0.48279409715E+03  0.74301847626E+03  0.00000000000E+00 0. -1.
         -2    1    3    3    0  502 -0.20672716405E+01  0.39043245888E+01  0.15653593746E+02  0.16265065622E+02  0.00000000000E+00 0.  1.
         13    1    5    5    0    0  0.24218046756E+03  0.31038803378E+03  0.19210313992E+03  0.43805904482E+03  0.00000000000E+00 0.  1.
        -13    1    5    5    0    0  0.50798850592E+02  0.15911955455E+03  0.10367480076E+03  0.19659099718E+03  0.00000000000E+00 0. -1.
          4    1    6    6  503    0  0.89668241516E+02 -0.12932948963E+03 -0.61722318529E+02  0.16904483142E+03  0.00000000000E+00 0. -1.
         -4    1    6    6    0  503  0.14004789686E+03 -0.12514725269E+03 -0.17837409584E+03  0.25902232788E+03  0.00000000000E+00 0.  1.
<mgrwt>
<rscale>  0 0.17356922E+04</rscale>
<asrwt>0</asrwt>
<pdfrwt beam="1">  1        1 0.97528580E-01 0.17356922E+04</pdfrwt>
<pdfrwt beam="2">  1       -1 0.18277923E+00 0.17356922E+04</pdfrwt>
<totfact> 0.59597605E+00</totfact>
</mgrwt>
</event>
<event>
12    3  0.4192740E-008  0.1897354E+04  0.7818608E-02  0.8656174E-01
         -2   -1    0    0    0  501 -0.00000000000E+00  0.00000000000E+00  0.45826612201E+03  0.45826612201E+03  0.00000000000E+00 0.  1.
          2   -1    0    0  501    0  0.00000000000E+00 -0.00000000000E+00 -0.19638989368E+04  0.19638989368E+04  0.00000000000E+00 0. -1.
         23    2    1    2    0    0 -0.34244632589E+03 -0.21288458630E+03 -0.13910031480E+04  0.14513806921E+04  0.95009591570E+02 0.  0.
        254    2    1    2    0    0  0.34244632589E+03  0.21288458630E+03 -0.11462966680E+03  0.97078436670E+03  0.87561006899E+03 0.  0.
         23    2    4    4    0    0 -0.40799966074E+01  0.24380453218E+03 -0.42343992047E+03  0.49662401304E+03  0.88751043928E+02 0.  0.
         23    2    4    4    0    0  0.34652632249E+03 -0.30919945873E+02  0.30881025367E+03  0.47416035366E+03  0.91802685014E+02 0.  0.
          3    1    3    3  502    0 -0.34651843230E+03 -0.21493043531E+03 -0.13531256511E+04  0.14132300392E+04  0.00000000000E+00 0. -1.
         -3    1    3    3    0  502  0.40721064114E+01  0.20458490001E+01 -0.37877496853E+02  0.38150652899E+02  0.00000000000E+00 0.  1.
         13    1    5    5    0    0 -0.38099640715E+02  0.20001301575E+03 -0.32073275408E+03  0.37990299898E+03  0.00000000000E+00 0.  1.
        -13    1    5    5    0    0  0.34019644107E+02  0.43791516427E+02 -0.10270716639E+03  0.11672101406E+03  0.00000000000E+00 0. -1.
          3    1    6    6  503    0  0.15386885628E+02 -0.19044475545E+02  0.58235036092E+01  0.25166674242E+02  0.00000000000E+00 0. -1.
         -3    1    6    6    0  503  0.33113943687E+03 -0.11875470328E+02  0.30298675006E+03  0.44899367942E+03  0.00000000000E+00 0.  1.
<mgrwt>
<rscale>  0 0.18973543E+04</rscale>
<asrwt>0</asrwt>
<pdfrwt beam="1">  1        2 0.30213830E+00 0.18973543E+04</pdfrwt>
<pdfrwt beam="2">  1       -2 0.70502480E-01 0.18973543E+04</pdfrwt>
<totfact> 0.11994901E+01</totfact>
</mgrwt>
</event>
<event>
12    3  0.4192740E-008  0.1573718E+04  0.7818608E-02  0.8836858E-01
          1   -1    0    0  501    0  0.00000000000E+00  0.00000000000E+00  0.76306467133E+03  0.76306467133E+03  0.00000000000E+00 0. -1.
         -1   -1    0    0    0  501 -0.00000000000E+00 -0.00000000000E+00 -0.81139570521E+03  0.81139570521E+03  0.00000000000E+00 0.  1.
         23    2    1    2    0    0 -0.24876632245E+03 -0.16560738805E+03  0.34328522677E+03  0.46412155743E+03  0.90849232183E+02 0.  0.
        254    2    1    2    0    0  0.24876632245E+03  0.16560738805E+03 -0.39161626065E+03  0.11103388191E+04  0.99507713643E+03 0.  0.
         23    2    4    4    0    0 -0.22857167272E+02  0.76028432551E+02  0.31748502836E+03  0.33909585525E+03  0.88805873436E+02 0.  0.
         23    2    4    4    0    0  0.27162348972E+03  0.89578955495E+02 -0.70910128901E+03  0.77124296386E+03  0.10093246149E+03 0.  0.
          1    1    3    3  502    0 -0.24301818066E+03 -0.17103529454E+03  0.34568376806E+03  0.45585982013E+03  0.00000000000E+00 0. -1.
         -1    1    3    3    0  502 -0.57481417968E+01  0.54279064920E+01 -0.23985412830E+01  0.82617373045E+01  0.00000000000E+00 0.  1.
         13    1    5    5    0    0 -0.44208251172E+01  0.81716621570E+02  0.30575194860E+03  0.31651446097E+03  0.00000000000E+00 0.  1.
        -13    1    5    5    0    0 -0.18436342155E+02 -0.56881890189E+01  0.11733079769E+02  0.22581394271E+02  0.00000000000E+00 0. -1.
          1    1    6    6  503    0  0.14333019647E+03  0.51718578339E+01 -0.26474933210E+03  0.30110214576E+03  0.00000000000E+00 0. -1.
         -1    1    6    6    0  503  0.12829329326E+03  0.84407097661E+02 -0.44435195692E+03  0.47014081810E+03  0.00000000000E+00 0.  1.
<mgrwt>
<rscale>  0 0.15737184E+04</rscale>
<asrwt>0</asrwt>
<pdfrwt beam="1">  1        1 0.11739457E+00 0.15737184E+04</pdfrwt>
<pdfrwt beam="2">  1       -1 0.12483011E+00 0.15737184E+04</pdfrwt>
<totfact> 0.12874773E+01</totfact>
</mgrwt>
</event>
<event>
12    3  0.4192740E-008  0.1849525E+04  0.7818608E-02  0.8680397E-01
          2   -1    0    0  501    0  0.00000000000E+00  0.00000000000E+00  0.90328899408E+03  0.90328899408E+03  0.00000000000E+00 0.  1.
         -2   -1    0    0    0  501 -0.00000000000E+00 -0.00000000000E+00 -0.94674675182E+03  0.94674675182E+03  0.00000000000E+00 0. -1.
         23    2    1    2    0    0  0.47553948042E+03  0.28225373858E+03 -0.45775381668E+03  0.72278326073E+03  0.84095867483E+02 0.  0.
        254    2    1    2    0    0 -0.47553948042E+03 -0.28225373858E+03  0.41429605894E+03  0.11272524852E+04  0.89064693931E+03 0.  0.
         23    2    4    4    0    0 -0.76457455062E+02 -0.17456851592E+03 -0.25769068394E+03  0.33296295846E+03  0.90221582402E+02 0.  0.
         23    2    4    4    0    0 -0.39908202535E+03 -0.10768522266E+03  0.67198674289E+03  0.79428952671E+03  0.92016843503E+02 0.  0.
          3    1    3    3  502    0  0.35598236334E+03  0.23451575032E+03 -0.31167871279E+03  0.52807641508E+03  0.00000000000E+00 0.  1.
         -3    1    3    3    0  502  0.11955711707E+03  0.47737988268E+02 -0.14607510389E+03  0.19470684565E+03  0.00000000000E+00 0. -1.
         13    1    5    5    0    0  0.16788471942E+02 -0.62565007387E+02 -0.88161653397E+02  0.10940159994E+03  0.00000000000E+00 0. -1.
        -13    1    5    5    0    0 -0.93245927004E+02 -0.11200350853E+03 -0.16952903055E+03  0.22356135852E+03  0.00000000000E+00 0.  1.
          3    1    6    6  503    0 -0.37198137021E+01  0.37595146676E+01  0.41250230632E+02  0.41587888762E+02  0.00000000000E+00 0. -1.
         -3    1    6    6    0  503 -0.39536221165E+03 -0.11144473733E+03  0.63073651225E+03  0.75270163795E+03  0.00000000000E+00 0.  1.
<mgrwt>
<rscale>  0 0.18495253E+04</rscale>
<asrwt>0</asrwt>
<pdfrwt beam="1">  1        2 0.13896754E+00 0.18495253E+04</pdfrwt>
<pdfrwt beam="2">  1       -2 0.14565335E+00 0.18495253E+04</pdfrwt>
<totfact> 0.88811915E+00</totfact>
</mgrwt>
</event>
<event>
12    3  0.4192740E-008  0.1960218E+04  0.7818608E-02  0.8625449E-01
          2   -1    0    0  501    0  0.00000000000E+00  0.00000000000E+00  0.24683930894E+04  0.24683930894E+04  0.00000000000E+00 0. -1.
         -2   -1    0    0    0  501 -0.00000000000E+00 -0.00000000000E+00 -0.38916566426E+03  0.38916566426E+03  0.00000000000E+00 0.  1.
         23    2    1    2    0    0 -0.61888523806E+03 -0.33796853418E+03  0.37629453781E+03  0.80425635233E+03  0.89381391267E+02 0.  0.
        254    2    1    2    0    0  0.61888523806E+03  0.33796853418E+03  0.17029328874E+04  0.20533024014E+04  0.90489152088E+03 0.  0.
         23    2    4    4    0    0  0.18468211977E+03  0.59792289186E+03  0.97443443383E+03  0.11617320089E+04  0.92084334313E+02 0.  0.
         23    2    4    4    0    0  0.43420311829E+03 -0.25995435767E+03  0.72849845353E+03  0.89157039249E+03  0.89884102909E+02 0.  0.
          4    1    3    3  502    0 -0.74855326145E+02 -0.28696568881E+02  0.14694267531E+02  0.81502971824E+02  0.00000000000E+00 0. -1.
         -4    1    3    3    0  502 -0.54402991191E+03 -0.30927196530E+03  0.36160027027E+03  0.72275338051E+03  0.00000000000E+00 0.  1.
         13    1    5    5    0    0  0.19156341373E+03  0.54470562419E+03  0.91185827745E+03  0.10792989746E+04  0.00000000000E+00 0.  1.
        -13    1    5    5    0    0 -0.68812939623E+01  0.53217267672E+02  0.62576156373E+02  0.82433034225E+02  0.00000000000E+00 0. -1.
          1    1    6    6  503    0  0.18992990737E+02 -0.33311278354E+02  0.33830220861E+02  0.51135690140E+02  0.00000000000E+00 0. -1.
         -1    1    6    6    0  503  0.41521012755E+03 -0.22664307932E+03  0.69466823267E+03  0.84043470234E+03  0.00000000000E+00 0.  1.
<mgrwt>
<rscale>  0 0.19602182E+04</rscale>
<asrwt>0</asrwt>
<pdfrwt beam="1">  1        2 0.37975277E+00 0.19602182E+04</pdfrwt>
<pdfrwt beam="2">  1       -2 0.59871642E-01 0.19602182E+04</pdfrwt>
<totfact> 0.88098068E+00</totfact>
</mgrwt>
</event>
<event>
12    3  0.4192740E-008  0.1892877E+04  0.7818608E-02  0.8658410E-01
          2   -1    0    0  501    0  0.00000000000E+00  0.00000000000E+00  0.25816487095E+04  0.25816487095E+04  0.00000000000E+00 0. -1.
         -2   -1    0    0    0  501 -0.00000000000E+00 -0.00000000000E+00 -0.34696666739E+03  0.34696666739E+03  0.00000000000E+00 0.  1.
         23    2    1    2    0    0 -0.71783274684E+03  0.50914585173E+02  0.71441589233E+03  0.10180995229E+04  0.90886874647E+02 0.  0.
        254    2    1    2    0    0  0.71783274684E+03 -0.50914585173E+02  0.15202661498E+04  0.19105158540E+04  0.90608250984E+03 0.  0.
         23    2    4    4    0    0  0.34034867136E+03  0.16911845488E+03  0.13924143775E+04  0.14462410972E+04  0.91417957098E+02 0.  0.
         23    2    4    4    0    0  0.37748407548E+03 -0.22003304005E+03  0.12785177235E+03  0.46427475676E+03  0.91083522705E+02 0.  0.
          3    1    3    3  502    0 -0.24162407104E+03 -0.10348492632E+02  0.19408656827E+03  0.31009495157E+03  0.00000000000E+00 0. -1.
         -3    1    3    3    0  502 -0.47620867580E+03  0.61263077805E+02  0.52032932406E+03  0.70800457138E+03  0.00000000000E+00 0.  1.
         13    1    5    5    0    0  0.34572108191E+03  0.16578959919E+03  0.13804785357E+04  0.14327352320E+04  0.00000000000E+00 0.  1.
        -13    1    5    5    0    0 -0.53724105508E+01  0.33288556871E+01  0.11935841786E+02  0.13505865187E+02  0.00000000000E+00 0. -1.
          4    1    6    6  503    0  0.33036770172E+02 -0.23341910259E+02  0.42251173843E+02  0.58493030774E+02  0.00000000000E+00 0. -1.
         -4    1    6    6    0  503  0.34444730531E+03 -0.19669112979E+03  0.85600598511E+02  0.40578172598E+03  0.00000000000E+00 0.  1.
<mgrwt>
<rscale>  0 0.18928772E+04</rscale>
<asrwt>0</asrwt>
<pdfrwt beam="1">  1        2 0.39717671E+00 0.18928772E+04</pdfrwt>
<pdfrwt beam="2">  1       -2 0.53379489E-01 0.18928772E+04</pdfrwt>
<totfact> 0.96817742E+00</totfact>
</mgrwt>
</event>
<event>
12    3  0.4192740E-008  0.3380994E+04  0.7818608E-02  0.8142587E-01
         -1   -1    0    0    0  501 -0.00000000000E+00  0.00000000000E+00  0.14456034763E+04  0.14456034763E+04  0.00000000000E+00 0.  1.
          1   -1    0    0  501    0  0.00000000000E+00 -0.00000000000E+00 -0.19768774003E+04  0.19768774003E+04  0.00000000000E+00 0. -1.
         23    2    1    2    0    0  0.60498784452E+02 -0.15708333623E+04 -0.29745503741E+03  0.16028155623E+04  0.96750568829E+02 0.  0.
        254    2    1    2    0    0 -0.60498784452E+02  0.15708333623E+04 -0.23381888665E+03  0.18196653143E+04  0.88619017666E+03 0.  0.
         23    2    4    4    0    0 -0.13517774096E+03  0.23012944800E+03  0.26209344880E+03  0.38534423563E+03  0.92545229682E+02 0.  0.
         23    2    4    4    0    0  0.74678956512E+02  0.13407039143E+04 -0.49591233545E+03  0.14343210786E+04  0.91016371293E+02 0.  0.
          3    1    3    3  502    0  0.36028815389E+02 -0.90254987188E+03 -0.21949798768E+03  0.92955565372E+03  0.00000000000E+00 0. -1.
         -3    1    3    3    0  502  0.24469969063E+02 -0.66828349040E+03 -0.77957049734E+02  0.67325990861E+03  0.00000000000E+00 0.  1.
         13    1    5    5    0    0  0.12862497538E+02  0.71137413709E+01  0.11376189614E+02  0.18586738534E+02  0.00000000000E+00 0.  1.
        -13    1    5    5    0    0 -0.14804023850E+03  0.22301570662E+03  0.25071725919E+03  0.36675749709E+03  0.00000000000E+00 0. -1.
          4    1    6    6  503    0  0.91783411009E+02  0.10666137436E+04 -0.41296145457E+03  0.11474433474E+04  0.00000000000E+00 0. -1.
         -4    1    6    6    0  503 -0.17104454497E+02  0.27409017072E+03 -0.82950880886E+02  0.28687773125E+03  0.00000000000E+00 0.  1.
<mgrwt>
<rscale>  0 0.33809944E+04</rscale>
<asrwt>0</asrwt>
<pdfrwt beam="1">  1        1 0.30413498E+00 0.33809944E+04</pdfrwt>
<pdfrwt beam="2">  1       -1 0.22240054E+00 0.33809944E+04</pdfrwt>
<totfact> 0.27001992E-01</totfact>
</mgrwt>
</event>
<event>
12    3  0.4192740E-008  0.1696726E+04  0.7818608E-02  0.8763234E-01
          1   -1    0    0  501    0  0.00000000000E+00  0.00000000000E+00  0.16610114335E+04  0.16610114335E+04  0.00000000000E+00 0. -1.
         -1   -1    0    0    0  501 -0.00000000000E+00 -0.00000000000E+00 -0.43330230511E+03  0.43330230511E+03  0.00000000000E+00 0.  1.
         23    2    1    2    0    0 -0.32306128229E+03  0.41551566108E+03  0.70928626056E+02  0.54112236470E+03  0.10373373063E+03 0.  0.
        254    2    1    2    0    0  0.32306128229E+03 -0.41551566108E+03  0.11567805023E+04  0.15531913739E+04  0.89288322678E+03 0.  0.
         23    2    4    4    0    0 -0.44263657783E+02 -0.19621907885E+03 -0.82720480398E+02  0.23873311944E+03  0.98435898615E+02 0.  0.
         23    2    4    4    0    0  0.36732494007E+03 -0.21929658223E+03  0.12395009827E+04  0.13144582544E+04  0.91756274767E+02 0.  0.
          1    1    3    3  502    0 -0.24674718417E+02  0.29865236128E+02 -0.22275179694E+02  0.44687332527E+02  0.00000000000E+00 0. -1.
         -1    1    3    3    0  502 -0.29838656387E+03  0.38565042495E+03  0.93203805751E+02  0.49643503217E+03  0.00000000000E+00 0.  1.
         13    1    5    5    0    0 -0.21357200781E+02 -0.66718298714E+02  0.18873327011E+02  0.72551112196E+02  0.00000000000E+00 0.  1.
        -13    1    5    5    0    0 -0.22906457002E+02 -0.12950078013E+03 -0.10159380741E+03  0.16618200724E+03  0.00000000000E+00 0. -1.
          2    1    6    6  503    0  0.32246431404E+03 -0.21689425493E+03  0.11569429224E+04  0.12204684664E+04  0.00000000000E+00 0. -1.
         -2    1    6    6    0  503  0.44860626027E+02 -0.24023273065E+01  0.82558060264E+02  0.93989788055E+02  0.00000000000E+00 0.  1.
<mgrwt>
<rscale>  0 0.16967264E+04</rscale>
<asrwt>0</asrwt>
<pdfrwt beam="1">  1        1 0.25554022E+00 0.16967264E+04</pdfrwt>
<pdfrwt beam="2">  1       -1 0.66661894E-01 0.16967264E+04</pdfrwt>
<totfact> 0.10997827E+01</totfact>
</mgrwt>
</event>
<event>
12    3  0.4192740E-008  0.1441656E+04  0.7818608E-02  0.8924205E-01
         -2   -1    0    0    0  501 -0.00000000000E+00  0.00000000000E+00  0.55360373641E+03  0.55360373641E+03  0.00000000000E+00 0.  1.
          2   -1    0    0  501    0  0.00000000000E+00 -0.00000000000E+00 -0.93856544042E+03  0.93856544042E+03  0.00000000000E+00 0. -1.
         23    2    1    2    0    0  0.29044416241E+03 -0.17185011657E+03  0.18021780387E+03  0.39305360430E+03  0.90124386176E+02 0.  0.
        254    2    1    2    0    0 -0.29044416241E+03  0.17185011657E+03 -0.56517950788E+03  0.10991155725E+04  0.88019139487E+03 0.  0.
         23    2    4    4    0    0 -0.33854106034E+03  0.49117569842E+03 -0.31873871497E+03  0.68242786557E+03  0.90828448440E+02 0.  0.
         23    2    4    4    0    0  0.48096897928E+02 -0.31932558184E+03 -0.24644079291E+03  0.41668770695E+03  0.92808630536E+02 0.  0.
          3    1    3    3  502    0  0.27874356741E+03 -0.15516499709E+03  0.14086334029E+03  0.34873576434E+03  0.00000000000E+00 0. -1.
         -3    1    3    3    0  502  0.11700595002E+02 -0.16685119480E+02  0.39354463581E+02  0.44317839966E+02  0.00000000000E+00 0.  1.
         13    1    5    5    0    0 -0.66181008771E+02  0.15255906296E+03 -0.11696472050E+03  0.20330995906E+03  0.00000000000E+00 0.  1.
        -13    1    5    5    0    0 -0.27236005156E+03  0.33861663546E+03 -0.20177399447E+03  0.47911790651E+03  0.00000000000E+00 0. -1.
          3    1    6    6  503    0  0.43676225569E+02 -0.32196693200E+03 -0.25038699108E+03  0.41019990650E+03  0.00000000000E+00 0. -1.
         -3    1    6    6    0  503  0.44206723589E+01  0.26413501599E+01  0.39461981699E+01  0.64878004569E+01  0.00000000000E+00 0.  1.
<mgrwt>
<rscale>  0 0.14416565E+04</rscale>
<asrwt>0</asrwt>
<pdfrwt beam="1">  1        2 0.14439468E+00 0.14416565E+04</pdfrwt>
<pdfrwt beam="2">  1       -2 0.85169806E-01 0.14416565E+04</pdfrwt>
<totfact> 0.32164092E+01</totfact>
</mgrwt>
</event>
<event>
12    3  0.4192740E-008  0.1472542E+04  0.7818608E-02  0.8902920E-01
         -1   -1    0    0    0  501 -0.00000000000E+00  0.00000000000E+00  0.44540779702E+03  0.44540779702E+03  0.00000000000E+00 0.  1.
          1   -1    0    0  501    0  0.00000000000E+00 -0.00000000000E+00 -0.12170758128E+04  0.12170758128E+04  0.00000000000E+00 0. -1.
         23    2    1    2    0    0 -0.85688105553E+02 -0.29365400497E+03  0.13888247538E+03  0.34788737674E+03  0.90344667007E+02 0.  0.
        254    2    1    2    0    0  0.85688105553E+02  0.29365400497E+03 -0.91055049117E+03  0.13145962331E+04  0.89748868128E+03 0.  0.
         23    2    4    4    0    0  0.17487982617E+03  0.36790265361E+03 -0.10386551674E+04  0.11193802827E+04  0.90952430104E+02 0.  0.
         23    2    4    4    0    0 -0.89191720621E+02 -0.74248648641E+02  0.12810467620E+03  0.19521595035E+03  0.90721741361E+02 0.  0.
          1    1    3    3  502    0 -0.57713121008E+02 -0.93365863758E+02  0.84354050915E+02  0.13843263617E+03  0.00000000000E+00 0. -1.
         -1    1    3    3    0  502 -0.27974984545E+02 -0.20028814121E+03  0.54528424468E+02  0.20945474057E+03  0.00000000000E+00 0.  1.
         13    1    5    5    0    0  0.92716764076E+02  0.20065997181E+03 -0.68284887620E+03  0.71773491649E+03  0.00000000000E+00 0.  1.
        -13    1    5    5    0    0  0.82163062097E+02  0.16724268180E+03 -0.35580629118E+03  0.40164536625E+03  0.00000000000E+00 0. -1.
          1    1    6    6  503    0  0.25872496068E+01 -0.27169120746E+02 -0.40290648341E+01  0.27587829673E+02  0.00000000000E+00 0. -1.
         -1    1    6    6    0  503 -0.91778970227E+02 -0.47079527895E+02  0.13213374104E+03  0.16762812068E+03  0.00000000000E+00 0.  1.
<mgrwt>
<rscale>  0 0.14725421E+04</rscale>
<asrwt>0</asrwt>
<pdfrwt beam="1">  1        1 0.18724243E+00 0.14725421E+04</pdfrwt>
<pdfrwt beam="2">  1       -1 0.68524278E-01 0.14725421E+04</pdfrwt>
<totfact> 0.21697834E+01</totfact>
</mgrwt>
</event>
<event>
12    3  0.4192740E-008  0.1286720E+04  0.7818608E-02  0.9040163E-01
          2   -1    0    0  501    0  0.00000000000E+00  0.00000000000E+00  0.14345118892E+04  0.14345118892E+04  0.00000000000E+00 0. -1.
         -2   -1    0    0    0  501 -0.00000000000E+00 -0.00000000000E+00 -0.28853882995E+03  0.28853882995E+03  0.00000000000E+00 0.  1.
         23    2    1    2    0    0  0.41224817285E+02  0.31902155995E+03  0.26290507634E+03  0.42513435461E+03  0.90254634432E+02 0.  0.
        254    2    1    2    0    0 -0.41224817285E+02 -0.31902155995E+03  0.88306798294E+03  0.12979163646E+04  0.89515562090E+03 0.  0.
         23    2    4    4    0    0  0.13488375347E+03 -0.56156006570E+03  0.35661710953E+03  0.68521775965E+03  0.93831130155E+02 0.  0.
         23    2    4    4    0    0 -0.17610857075E+03  0.24253850576E+03  0.52645087341E+03  0.61269860491E+03  0.91705522631E+02 0.  0.
          1    1    3    3  502    0 -0.64797626113E+00  0.45341858513E+02  0.84113730564E+02  0.95558483015E+02  0.00000000000E+00 0. -1.
         -1    1    3    3    0  502  0.41872793547E+02  0.27367970143E+03  0.17879134578E+03  0.32957587160E+03  0.00000000000E+00 0.  1.
         13    1    5    5    0    0  0.45558167610E+02 -0.24116163331E+03  0.99587002793E+02  0.26486232488E+03  0.00000000000E+00 0.  1.
        -13    1    5    5    0    0  0.89325585859E+02 -0.32039843239E+03  0.25703010673E+03  0.42035543477E+03  0.00000000000E+00 0. -1.
          3    1    6    6  503    0 -0.83491558022E+02  0.13888440714E+03  0.19674694875E+03  0.25489033063E+03  0.00000000000E+00 0. -1.
         -3    1    6    6    0  503 -0.92617012732E+02  0.10365409862E+03  0.32970392466E+03  0.35780827428E+03  0.00000000000E+00 0.  1.
<mgrwt>
<rscale>  0 0.12867205E+04</rscale>
<asrwt>0</asrwt>
<pdfrwt beam="1">  1        2 0.22069413E+00 0.12867205E+04</pdfrwt>
<pdfrwt beam="2">  1       -2 0.44390590E-01 0.12867205E+04</pdfrwt>
<totfact> 0.65263906E+01</totfact>
</mgrwt>
</event>
<event>
12    3  0.4192740E-008  0.1872878E+04  0.7818608E-02  0.8668476E-01
         -1   -1    0    0    0  501 -0.00000000000E+00  0.00000000000E+00  0.12910607972E+04  0.12910607972E+04  0.00000000000E+00 0.  1.
          1   -1    0    0  501    0  0.00000000000E+00 -0.00000000000E+00 -0.67922288741E+03  0.67922288741E+03  0.00000000000E+00 0. -1.
         23    2    1    2    0    0  0.22354945826E+03  0.64453712260E+03  0.98984200970E+01  0.69205031320E+03  0.11590165911E+03 0.  0.
        254    2    1    2    0    0 -0.22354945826E+03 -0.64453712260E+03  0.60193948966E+03  0.12782333714E+04  0.89785685931E+03 0.  0.
         23    2    4    4    0    0 -0.94915855552E+01  0.72947737294E+02  0.50467198457E+03  0.51817794169E+03  0.91668449701E+02 0.  0.
         23    2    4    4    0    0 -0.21405787271E+03 -0.71748485989E+03  0.97267505091E+02  0.76005542969E+03  0.87281106877E+02 0.  0.
          3    1    3    3  502    0  0.13012792452E+03  0.50128783490E+03  0.35531534183E+02  0.51911969726E+03  0.00000000000E+00 0. -1.
         -3    1    3    3    0  502  0.93421533744E+02  0.14324928770E+03 -0.25633114086E+02  0.17293061594E+03  0.00000000000E+00 0.  1.
         13    1    5    5    0    0  0.10648748479E+02 -0.10771971743E+02  0.16214786395E+02  0.22188972874E+02  0.00000000000E+00 0.  1.
        -13    1    5    5    0    0 -0.20140334034E+02  0.83719709038E+02  0.48845719818E+03  0.49598896882E+03  0.00000000000E+00 0. -1.
          1    1    6    6  503    0 -0.14387344116E+03 -0.57768911584E+03  0.54127784399E+02  0.59779101589E+03  0.00000000000E+00 0. -1.
         -1    1    6    6    0  503 -0.70184431545E+02 -0.13979574405E+03  0.43139720692E+02  0.16226441381E+03  0.00000000000E+00 0.  1.
<mgrwt>
<rscale>  0 0.18728780E+04</rscale>
<asrwt>0</asrwt>
<pdfrwt beam="1">  1        1 0.10449583E+00 0.18728780E+04</pdfrwt>
<pdfrwt beam="2">  1       -1 0.19862474E+00 0.18728780E+04</pdfrwt>
<totfact> 0.41132956E+00</totfact>
</mgrwt>
</event>
<event>
12    3  0.4192740E-008  0.2041907E+04  0.7818608E-02  0.8587274E-01
          1   -1    0    0  501    0  0.00000000000E+00  0.00000000000E+00  0.10684176658E+04  0.10684176658E+04  0.00000000000E+00 0. -1.
         -1   -1    0    0    0  501 -0.00000000000E+00 -0.00000000000E+00 -0.97559822257E+03  0.97559822257E+03  0.00000000000E+00 0.  1.
         23    2    1    2    0    0 -0.32787881642E+03 -0.73731804597E+03 -0.11450273802E+03  0.82003055277E+03  0.90536243016E+02 0.  0.
        254    2    1    2    0    0  0.32787881642E+03  0.73731804597E+03  0.20732218122E+03  0.12239853356E+04  0.89666894429E+03 0.  0.
         23    2    4    4    0    0  0.33678806257E+03  0.22168658771E+02 -0.19330459418E+03  0.39943613898E+03  0.90911574989E+02 0.  0.
         23    2    4    4    0    0 -0.89092461523E+01  0.71514938719E+03  0.40062677540E+03  0.82454919658E+03  0.88665346897E+02 0.  0.
          2    1    3    3  502    0 -0.59880387250E+02 -0.19328356372E+03 -0.60352397041E+02  0.21115541341E+03  0.00000000000E+00 0.  1.
         -2    1    3    3    0  502 -0.26799842917E+03 -0.54403448224E+03 -0.54150340983E+02  0.60887513936E+03  0.00000000000E+00 0. -1.
         13    1    5    5    0    0  0.21087912780E+03  0.51446344772E+01 -0.16850870857E+03  0.26998455265E+03  0.00000000000E+00 0.  1.
        -13    1    5    5    0    0  0.12590893478E+03  0.17024024294E+02 -0.24795885604E+02  0.12945158633E+03  0.00000000000E+00 0. -1.
          3    1    6    6  503    0 -0.10008675492E+02  0.69348034271E+03  0.36737179965E+03  0.78484214877E+03  0.00000000000E+00 0. -1.
         -3    1    6    6    0  503  0.10994293392E+01  0.21669044488E+02  0.33254975743E+02  0.39707047807E+02  0.00000000000E+00 0.  1.
<mgrwt>
<rscale>  0 0.20419073E+04</rscale>
<asrwt>0</asrwt>
<pdfrwt beam="1">  1        1 0.16437195E+00 0.20419073E+04</pdfrwt>
<pdfrwt beam="2">  1       -1 0.15009203E+00 0.20419073E+04</pdfrwt>
<totfact> 0.43137743E+00</totfact>
</mgrwt>
</event>
<event>
12    3  0.4192740E-008  0.1690708E+04  0.7818608E-02  0.8766682E-01
          2   -1    0    0  501    0  0.00000000000E+00  0.00000000000E+00  0.40665327326E+04  0.40665327326E+04  0.00000000000E+00 0. -1.
         -2   -1    0    0    0  501 -0.00000000000E+00 -0.00000000000E+00 -0.17573283245E+03  0.17573283245E+03  0.00000000000E+00 0.  1.
         23    2    1    2    0    0 -0.33605330293E+03 -0.28410205041E+03  0.24061908691E+04  0.24477419412E+04  0.89667803765E+02 0.  0.
        254    2    1    2    0    0  0.33605330293E+03  0.28410205041E+03  0.14846090311E+04  0.17945236238E+04  0.90697588934E+03 0.  0.
         23    2    4    4    0    0  0.45994655200E+03  0.34195305904E+03  0.15190321179E+04  0.16261076274E+04  0.91020411934E+02 0.  0.
         23    2    4    4    0    0 -0.12389324907E+03 -0.57851008630E+02 -0.34423086777E+02  0.16841599647E+03  0.92101697044E+02 0.  0.
          4    1    3    3  502    0 -0.11562100702E+03 -0.11169556162E+03  0.11184265698E+04  0.11299212839E+04  0.00000000000E+00 0. -1.
         -4    1    3    3    0  502 -0.22043229591E+03 -0.17240648879E+03  0.12877642993E+04  0.13178206573E+04  0.00000000000E+00 0.  1.
         13    1    5    5    0    0  0.13889852268E+03  0.82783864710E+02  0.32923478756E+03  0.36679900926E+03  0.00000000000E+00 0. -1.
        -13    1    5    5    0    0  0.32104802932E+03  0.25916919433E+03  0.11897973303E+04  0.12593086181E+04  0.00000000000E+00 0.  1.
          4    1    6    6  503    0 -0.36919825651E+01 -0.43361943534E+02 -0.13382045021E+02  0.45529858459E+02  0.00000000000E+00 0.  1.
         -4    1    6    6    0  503 -0.12020126650E+03 -0.14489065096E+02 -0.21041041757E+02  0.12288613801E+03  0.00000000000E+00 0. -1.
<mgrwt>
<rscale>  0 0.16907079E+04</rscale>
<asrwt>0</asrwt>
<pdfrwt beam="1">  1        2 0.62562035E+00 0.16907079E+04</pdfrwt>
<pdfrwt beam="2">  1       -2 0.27035823E-01 0.16907079E+04</pdfrwt>
<totfact> 0.36404610E+00</totfact>
</mgrwt>
</event>
<event>
12    3  0.4192740E-008  0.2784647E+04  0.7818608E-02  0.8308051E-01
          2   -1    0    0  501    0  0.00000000000E+00  0.00000000000E+00  0.27334975057E+04  0.27334975057E+04  0.00000000000E+00 0. -1.
         -2   -1    0    0    0  501 -0.00000000000E+00 -0.00000000000E+00 -0.70918861335E+03  0.70918861335E+03  0.00000000000E+00 0.  1.
         23    2    1    2    0    0 -0.10731886603E+03  0.60870313197E+03  0.22438080628E+04  0.23293497256E+04  0.95700992211E+02 0.  0.
        254    2    1    2    0    0  0.10731886603E+03 -0.60870313197E+03 -0.21949917039E+03  0.11133363934E+04  0.89961169249E+03 0.  0.
         23    2    4    4    0    0 -0.16485591884E+03 -0.16879488521E+01 -0.37802466175E+03  0.42293769545E+03  0.93772736932E+02 0.  0.
         23    2    4    4    0    0  0.27217478487E+03 -0.60701518312E+03  0.15852549136E+03  0.69039869799E+03  0.94728478934E+02 0.  0.
          3    1    3    3  502    0 -0.12440393871E+03  0.56471717337E+03  0.20781573553E+04  0.21571091348E+04  0.00000000000E+00 0. -1.
         -3    1    3    3    0  502  0.17085072676E+02  0.43985958598E+02  0.16565070743E+03  0.17224059084E+03  0.00000000000E+00 0.  1.
         13    1    5    5    0    0 -0.11752176501E+03 -0.44044070648E+02 -0.23410532646E+03  0.26562482807E+03  0.00000000000E+00 0. -1.
        -13    1    5    5    0    0 -0.47334153830E+02  0.42356121796E+02 -0.14391933529E+03  0.15731286738E+03  0.00000000000E+00 0.  1.
          1    1    6    6  503    0  0.25440712239E+03 -0.47969788340E+03  0.13767853776E+03  0.56016820958E+03  0.00000000000E+00 0. -1.
         -1    1    6    6    0  503  0.17767662474E+02 -0.12731729972E+03  0.20846953602E+02  0.13023048841E+03  0.00000000000E+00 0.  1.
<mgrwt>
<rscale>  0 0.27846474E+04</rscale>
<asrwt>0</asrwt>
<pdfrwt beam="1">  1        2 0.42053807E+00 0.27846474E+04</pdfrwt>
<pdfrwt beam="2">  1       -2 0.10910594E+00 0.27846474E+04</pdfrwt>
<totfact> 0.14800594E+00</totfact>
</mgrwt>
</event>
<event>
12    3  0.4192740E-008  0.1537928E+04  0.7818608E-02  0.8859616E-01
          2   -1    0    0  501    0  0.00000000000E+00  0.00000000000E+00  0.13239195451E+04  0.13239195451E+04  0.00000000000E+00 0. -1.
         -2   -1    0    0    0  501 -0.00000000000E+00 -0.00000000000E+00 -0.44663255737E+03  0.44663255737E+03  0.00000000000E+00 0.  1.
         23    2    1    2    0    0 -0.42142347601E+03  0.14211958329E+03  0.54711233945E+03  0.71368833274E+03  0.11055949627E+03 0.  0.
        254    2    1    2    0    0  0.42142347601E+03 -0.14211958329E+03  0.33017464828E+03  0.10568637697E+04  0.90008333353E+03 0.  0.
         23    2    4    4    0    0 -0.10188759362E+03 -0.39224882408E+03  0.15551673743E+03  0.44355974517E+03  0.91211677953E+02 0.  0.
         23    2    4    4    0    0  0.52331106964E+03  0.25012924078E+03  0.17465791085E+03  0.61330402455E+03  0.96006916459E+02 0.  0.
          3    1    3    3  502    0 -0.41163907942E+03  0.15348698520E+03  0.50698322365E+03  0.67084795251E+03  0.00000000000E+00 0. -1.
         -3    1    3    3    0  502 -0.97843965984E+01 -0.11367401903E+02  0.40129115806E+02  0.42840380229E+02  0.00000000000E+00 0.  1.
         13    1    5    5    0    0 -0.81929696818E+02 -0.37668962606E+03  0.16083181446E+03  0.41770135521E+03  0.00000000000E+00 0.  1.
        -13    1    5    5    0    0 -0.19957896803E+02 -0.15559198015E+02 -0.53150770285E+01  0.25858389963E+02  0.00000000000E+00 0. -1.
          2    1    6    6  503    0  0.18432392774E+03  0.38776032345E+02  0.51481862725E+02  0.19526718416E+03  0.00000000000E+00 0. -1.
         -2    1    6    6    0  503  0.33898714190E+03  0.21135320844E+03  0.12317604812E+03  0.41803684039E+03  0.00000000000E+00 0.  1.
<mgrwt>
<rscale>  0 0.15379279E+04</rscale>
<asrwt>0</asrwt>
<pdfrwt beam="1">  1        2 0.20367993E+00 0.15379279E+04</pdfrwt>
<pdfrwt beam="2">  1       -2 0.68712701E-01 0.15379279E+04</pdfrwt>
<totfact> 0.29857832E+01</totfact>
</mgrwt>
</event>
<event>
12    3  0.4192740E-008  0.2016386E+04  0.7818608E-02  0.8598998E-01
          1   -1    0    0  501    0  0.00000000000E+00  0.00000000000E+00  0.13748327100E+04  0.13748327100E+04  0.00000000000E+00 0. -1.
         -1   -1    0    0    0  501 -0.00000000000E+00 -0.00000000000E+00 -0.73932890254E+03  0.73932890254E+03  0.00000000000E+00 0.  1.
         23    2    1    2    0    0  0.66792197572E+03 -0.17082057623E+02  0.75077568390E+03  0.10124863492E+04  0.12269033130E+03 0.  0.
        254    2    1    2    0    0 -0.66792197572E+03  0.17082057623E+02 -0.11527187643E+03  0.11016752634E+04  0.86832552540E+03 0.  0.
         23    2    4    4    0    0  0.12480428244E+03  0.16766033206E+03 -0.17368394517E+03  0.28742816083E+03  0.93609502540E+02 0.  0.
         23    2    4    4    0    0 -0.79272625816E+03 -0.15057827444E+03  0.58412068736E+02  0.81424710253E+03  0.92182629059E+02 0.  0.
          3    1    3    3  502    0  0.24407651285E+03 -0.91010943808E+01  0.36580172153E+03  0.43984892124E+03  0.00000000000E+00 0. -1.
         -3    1    3    3    0  502  0.42384546287E+03 -0.79809632422E+01  0.38497396237E+03  0.57263742794E+03  0.00000000000E+00 0.  1.
         13    1    5    5    0    0 -0.11253141068E+02  0.41101468768E+02 -0.40680649519E+02  0.58914167770E+02  0.00000000000E+00 0.  1.
        -13    1    5    5    0    0  0.13605742351E+03  0.12655886330E+03 -0.13300329565E+03  0.22851399306E+03  0.00000000000E+00 0. -1.
          3    1    6    6  503    0 -0.53147265000E+03 -0.56476909989E+02  0.38573301217E+02  0.53585512840E+03  0.00000000000E+00 0. -1.
         -3    1    6    6    0  503 -0.26125360816E+03 -0.94101364450E+02  0.19838767519E+02  0.27839197413E+03  0.00000000000E+00 0.  1.
<mgrwt>
<rscale>  0 0.20163864E+04</rscale>
<asrwt>0</asrwt>
<pdfrwt beam="1">  1        1 0.21151272E+00 0.20163864E+04</pdfrwt>
<pdfrwt beam="2">  1       -1 0.11374291E+00 0.20163864E+04</pdfrwt>
<totfact> 0.52247790E+00</totfact>
</mgrwt>
</event>
<event>
12    3  0.4192740E-008  0.4146953E+04  0.7818608E-02  0.7975540E-01
         -2   -1    0    0    0  501 -0.00000000000E+00  0.00000000000E+00  0.22697193667E+04  0.22697193667E+04  0.00000000000E+00 0.  1.
          2   -1    0    0  501    0  0.00000000000E+00 -0.00000000000E+00 -0.18942012562E+04  0.18942012562E+04  0.00000000000E+00 0. -1.
         23    2    1    2    0    0 -0.71750394233E+03 -0.18162337671E+04 -0.10608944511E+03  0.19577178182E+04  0.88809240824E+02 0.  0.
        254    2    1    2    0    0  0.71750394233E+03  0.18162337671E+04  0.48160755564E+03  0.22062028047E+04  0.90656934290E+03 0.  0.
         23    2    4    4    0    0  0.12259687250E+03  0.50928333236E+03  0.55049845026E+03  0.76532576894E+03  0.90969682230E+02 0.  0.
         23    2    4    4    0    0  0.59490706983E+03  0.13069504348E+04 -0.68890894623E+02  0.14408770357E+04  0.96678932683E+02 0.  0.
          3    1    3    3  502    0 -0.28052238739E+03 -0.70244666288E+03  0.21210060986E+01  0.75639184467E+03  0.00000000000E+00 0. -1.
         -3    1    3    3    0  502 -0.43698155494E+03 -0.11137871043E+04 -0.10821045121E+03  0.12013259735E+04  0.00000000000E+00 0.  1.
         13    1    5    5    0    0  0.96987686672E+02  0.48986617513E+03  0.52152921927E+03  0.72205831306E+03  0.00000000000E+00 0. -1.
        -13    1    5    5    0    0  0.25609185831E+02  0.19417157235E+02  0.28969230991E+02  0.43267455879E+02  0.00000000000E+00 0.  1.
          2    1    6    6  503    0  0.38402132946E+03  0.73323331644E+03 -0.25793588877E+02  0.82811157886E+03  0.00000000000E+00 0. -1.
         -2    1    6    6    0  503  0.21088574037E+03  0.57371711833E+03 -0.43097305746E+02  0.61276545686E+03  0.00000000000E+00 0.  1.
<mgrwt>
<rscale>  0 0.41469532E+04</rscale>
<asrwt>0</asrwt>
<pdfrwt beam="1">  1        2 0.29141558E+00 0.41469532E+04</pdfrwt>
<pdfrwt beam="2">  1       -2 0.34918759E+00 0.41469532E+04</pdfrwt>
<totfact> 0.93871055E-02</totfact>
</mgrwt>
</event>
<event>
12    3  0.4192740E-008  0.2548344E+04  0.7818608E-02  0.8385962E-01
         -2   -1    0    0    0  501 -0.00000000000E+00  0.00000000000E+00  0.72649587765E+03  0.72649587765E+03  0.00000000000E+00 0.  1.
          2   -1    0    0  501    0  0.00000000000E+00 -0.00000000000E+00 -0.22347189920E+04  0.22347189920E+04  0.00000000000E+00 0. -1.
         23    2    1    2    0    0  0.35966857366E+03 -0.84510117419E+03 -0.13903127367E+04  0.16688639638E+04  0.92627999861E+02 0.  0.
        254    2    1    2    0    0 -0.35966857366E+03  0.84510117419E+03 -0.11791037764E+03  0.12923509058E+04  0.90150459188E+03 0.  0.
         23    2    4    4    0    0 -0.23767053899E+03  0.79659516141E+03 -0.43110547193E+03  0.94070020914E+03  0.89519937765E+02 0.  0.
         23    2    4    4    0    0 -0.12199803467E+03  0.48506012777E+02  0.31319509429E+03  0.35165069671E+03  0.91272622761E+02 0.  0.
          1    1    3    3  502    0  0.20530156700E+03 -0.57171254588E+03 -0.86782846182E+03  0.10593064749E+04  0.00000000000E+00 0. -1.
         -1    1    3    3    0  502  0.15436700666E+03 -0.27338862831E+03 -0.52248427491E+03  0.60955748897E+03  0.00000000000E+00 0.  1.
         13    1    5    5    0    0  0.67105282473E+01  0.77392421954E+01 -0.59134568992E+01  0.11827765284E+02  0.00000000000E+00 0. -1.
        -13    1    5    5    0    0 -0.24438106724E+03  0.78885591921E+03 -0.42519201503E+03  0.92887244385E+03  0.00000000000E+00 0.  1.
          4    1    6    6  503    0 -0.11190042457E+03  0.69103848095E+02  0.22594045548E+03  0.26143093976E+03  0.00000000000E+00 0. -1.
         -4    1    6    6    0  503 -0.10097610104E+02 -0.20597835318E+02  0.87254638811E+02  0.90219756947E+02  0.00000000000E+00 0.  1.
<mgrwt>
<rscale>  0 0.25483439E+04</rscale>
<asrwt>0</asrwt>
<pdfrwt beam="1">  1        2 0.34380292E+00 0.25483439E+04</pdfrwt>
<pdfrwt beam="2">  1       -2 0.11176860E+00 0.25483439E+04</pdfrwt>
<totfact> 0.27713003E+00</totfact>
</mgrwt>
</event>
<event>
12    3  0.4192740E-008  0.1813461E+04  0.7818608E-02  0.8699174E-01
         -1   -1    0    0    0  501 -0.00000000000E+00  0.00000000000E+00  0.22023343111E+03  0.22023343111E+03  0.00000000000E+00 0.  1.
          1   -1    0    0  501    0  0.00000000000E+00 -0.00000000000E+00 -0.37331308678E+04  0.37331308678E+04  0.00000000000E+00 0. -1.
         23    2    1    2    0    0  0.18646208249E+03  0.38100377700E+03 -0.17087502429E+03  0.46621264109E+03  0.90686087668E+02 0.  0.
        254    2    1    2    0    0 -0.18646208249E+03 -0.38100377700E+03 -0.33420224124E+04  0.34871516578E+04  0.90065581291E+03 0.  0.
         23    2    4    4    0    0 -0.69240322427E+01  0.19374759612E+03 -0.22289202932E+03  0.30903773881E+03  0.90760090609E+02 0.  0.
         23    2    4    4    0    0 -0.17953805024E+03 -0.57475137312E+03 -0.31191303830E+04  0.31781139190E+04  0.94131201732E+02 0.  0.
          2    1    3    3  502    0 -0.10323414628E+02  0.21151630633E+02 -0.11446368358E+02  0.26172193576E+02  0.00000000000E+00 0. -1.
         -2    1    3    3    0  502  0.19678549711E+03  0.35985214636E+03 -0.15942865593E+03  0.44004044751E+03  0.00000000000E+00 0.  1.
         13    1    5    5    0    0  0.23415766256E+02  0.71522576195E+02 -0.13792261350E+03  0.15711914056E+03  0.00000000000E+00 0. -1.
        -13    1    5    5    0    0 -0.30339798499E+02  0.12222501993E+03 -0.84969415818E+02  0.15191859825E+03  0.00000000000E+00 0.  1.
          2    1    6    6  503    0 -0.16152136225E+02 -0.63535892007E+01 -0.11746853848E+03  0.11874391409E+03  0.00000000000E+00 0. -1.
         -2    1    6    6    0  503 -0.16338591402E+03 -0.56839778392E+03 -0.30016618446E+04  0.30593700049E+04  0.00000000000E+00 0.  1.
<mgrwt>
<rscale>  0 0.18134610E+04</rscale>
<asrwt>0</asrwt>
<pdfrwt beam="1">  1        1 0.57432782E+00 0.18134610E+04</pdfrwt>
<pdfrwt beam="2">  1       -1 0.33882066E-01 0.18134610E+04</pdfrwt>
<totfact> 0.12666546E+00</totfact>
</mgrwt>
</event>
<event>
12    3  0.4192740E-008  0.1394672E+04  0.7818608E-02  0.8957685E-01
         -2   -1    0    0    0  501 -0.00000000000E+00  0.00000000000E+00  0.59659327441E+03  0.59659327441E+03  0.00000000000E+00 0. -1.
          2   -1    0    0  501    0  0.00000000000E+00 -0.00000000000E+00 -0.81509009356E+03  0.81509009356E+03  0.00000000000E+00 0.  1.
         23    2    1    2    0    0 -0.22769728099E+03  0.19568897101E+03 -0.34814786774E+03  0.46870497743E+03  0.91308230226E+02 0.  0.
        254    2    1    2    0    0  0.22769728099E+03 -0.19568897101E+03  0.12965104859E+03  0.94297839054E+03  0.88445385718E+03 0.  0.
         23    2    4    4    0    0 -0.21168755020E+03  0.14685700156E+03 -0.15146534710E+03  0.31239415692E+03  0.90938221278E+02 0.  0.
         23    2    4    4    0    0  0.43938483119E+03 -0.34254597258E+03  0.28111639569E+03  0.63058423362E+03  0.90627118178E+02 0.  0.
          4    1    3    3  502    0 -0.40617693841E+00  0.34572452273E+02 -0.48336196994E+02  0.59429011229E+02  0.00000000000E+00 0. -1.
         -4    1    3    3    0  502 -0.22729110405E+03  0.16111651874E+03 -0.29981167075E+03  0.40927596620E+03  0.00000000000E+00 0.  1.
         13    1    5    5    0    0 -0.21879792114E+03  0.13317365199E+03 -0.15017927080E+03  0.29692013280E+03  0.00000000000E+00 0. -1.
        -13    1    5    5    0    0  0.71103709413E+01  0.13683349574E+02 -0.12860762994E+01  0.15474024129E+02  0.00000000000E+00 0.  1.
          1    1    6    6  503    0  0.28686803446E+03 -0.18922735819E+03  0.21090303718E+03  0.40321254119E+03  0.00000000000E+00 0. -1.
         -1    1    6    6    0  503  0.15251679673E+03 -0.15331861439E+03  0.70213358511E+02  0.22737169242E+03  0.00000000000E+00 0.  1.
<mgrwt>
<rscale>  0 0.13946717E+04</rscale>
<asrwt>0</asrwt>
<pdfrwt beam="1">  1        2 0.12539848E+00 0.13946717E+04</pdfrwt>
<pdfrwt beam="2">  1       -2 0.91783581E-01 0.13946717E+04</pdfrwt>
<totfact> 0.33044500E+01</totfact>
</mgrwt>
</event>
<event>
12    3  0.4192740E-008  0.1927815E+04  0.7818608E-02  0.8641134E-01
          1   -1    0    0  501    0  0.00000000000E+00  0.00000000000E+00  0.13263636887E+04  0.13263636887E+04  0.00000000000E+00 0. -1.
         -1   -1    0    0    0  501 -0.00000000000E+00 -0.00000000000E+00 -0.70049977395E+03  0.70049977395E+03  0.00000000000E+00 0.  1.
         23    2    1    2    0    0  0.30040601624E+03 -0.62052014513E+03 -0.67060320025E+02  0.69980703688E+03  0.99718489935E+02 0.  0.
        254    2    1    2    0    0 -0.30040601624E+03  0.62052014513E+03  0.69292423476E+03  0.13270564258E+04  0.89757770524E+03 0.  0.
         23    2    4    4    0    0 -0.25896561098E+03 -0.10687602156E+03  0.47741547925E+03  0.56121544633E+03  0.92474676070E+02 0.  0.
         23    2    4    4    0    0 -0.41440405257E+02  0.72739616669E+03  0.21550875551E+03  0.76584097944E+03  0.96155559293E+02 0.  0.
          2    1    3    3  502    0  0.15696648654E+03 -0.35646281467E+03  0.98595739437E+01  0.38961702650E+03  0.00000000000E+00 0.  1.
         -2    1    3    3    0  502  0.14343952970E+03 -0.26405733046E+03 -0.76919893969E+02  0.31019001038E+03  0.00000000000E+00 0. -1.
         13    1    5    5    0    0 -0.14131143682E+03 -0.23592196915E+02  0.17471000689E+03  0.22594047986E+03  0.00000000000E+00 0.  1.
        -13    1    5    5    0    0 -0.11765417416E+03 -0.83283824646E+02  0.30270547236E+03  0.33527496647E+03  0.00000000000E+00 0. -1.
          1    1    6    6  503    0 -0.18627747740E+02  0.67764586153E+03  0.21475266521E+03  0.71110450276E+03  0.00000000000E+00 0. -1.
         -1    1    6    6    0  503 -0.22812657517E+02  0.49750305165E+02  0.75609030414E+00  0.54736476682E+02  0.00000000000E+00 0.  1.
<mgrwt>
<rscale>  0 0.19278148E+04</rscale>
<asrwt>0</asrwt>
<pdfrwt beam="1">  1        1 0.20405595E+00 0.19278148E+04</pdfrwt>
<pdfrwt beam="2">  1       -1 0.10776920E+00 0.19278148E+04</pdfrwt>
<totfact> 0.64764198E+00</totfact>
</mgrwt>
</event>
<event>
12    3  0.4192740E-008  0.3409163E+04  0.7818608E-02  0.8135661E-01
         -2   -1    0    0    0  501 -0.00000000000E+00  0.00000000000E+00  0.86540013802E+03  0.86540013802E+03  0.00000000000E+00 0. -1.
          2   -1    0    0  501    0  0.00000000000E+00 -0.00000000000E+00 -0.33575199574E+04  0.33575199574E+04  0.00000000000E+00 0.  1.
         23    2    1    2    0    0  0.59358429156E+03 -0.65328030695E+02 -0.29812983075E+04  0.30418992601E+04  0.91659408738E+02 0.  0.
        254    2    1    2    0    0 -0.59358429156E+03  0.65328030695E+02  0.48917848819E+03  0.11810208353E+04  0.89381461017E+03 0.  0.
         23    2    4    4    0    0 -0.36409175761E+03 -0.48625545306E+02  0.72700498551E+03  0.81980655197E+03  0.92840088800E+02 0.  0.
         23    2    4    4    0    0 -0.22949253395E+03  0.11395357600E+03 -0.23782649732E+03  0.36121428333E+03  0.90895957187E+02 0.  0.
          1    1    3    3  502    0  0.19146674392E+02 -0.65986114498E+01 -0.44777184524E+02  0.49144003370E+02  0.00000000000E+00 0. -1.
         -1    1    3    3    0  502  0.57443761717E+03 -0.58729419245E+02 -0.29365211230E+04  0.29927552567E+04  0.00000000000E+00 0.  1.
         13    1    5    5    0    0 -0.27890479342E+03  0.30552032820E+01  0.55011100753E+03  0.61678143508E+03  0.00000000000E+00 0. -1.
        -13    1    5    5    0    0 -0.85186964189E+02 -0.51680748588E+02  0.17689397798E+03  0.20302511689E+03  0.00000000000E+00 0.  1.
          4    1    6    6  503    0 -0.86488852066E+02  0.57677265790E+02 -0.15500977287E+03  0.18664141610E+03  0.00000000000E+00 0. -1.
         -4    1    6    6    0  503 -0.14300368188E+03  0.56276310210E+02 -0.82816724455E+02  0.17457286723E+03  0.00000000000E+00 0.  1.
<mgrwt>
<rscale>  0 0.34091631E+04</rscale>
<asrwt>0</asrwt>
<pdfrwt beam="1">  1        2 0.51654154E+00 0.34091631E+04</pdfrwt>
<pdfrwt beam="2">  1       -2 0.13313848E+00 0.34091631E+04</pdfrwt>
<totfact> 0.34435036E-01</totfact>
</mgrwt>
</event>
<event>
12    3  0.4192740E-008  0.3908250E+04  0.7818608E-02  0.8023316E-01
          1   -1    0    0  501    0  0.00000000000E+00  0.00000000000E+00  0.26246230150E+04  0.26246230150E+04  0.00000000000E+00 0. -1.
         -1   -1    0    0    0  501 -0.00000000000E+00 -0.00000000000E+00 -0.14549154057E+04  0.14549154057E+04  0.00000000000E+00 0.  1.
         23    2    1    2    0    0  0.59611597812E+03  0.15928203341E+04 -0.20544829497E+03  0.17153195099E+04  0.87642130054E+02 0.  0.
        254    2    1    2    0    0 -0.59611597812E+03 -0.15928203341E+04  0.13751559043E+04  0.23642189108E+04  0.89780088048E+03 0.  0.
         23    2    4    4    0    0 -0.26266978362E+03 -0.40418557678E+03  0.92490652513E+03  0.10469588660E+04  0.91155862069E+02 0.  0.
         23    2    4    4    0    0 -0.33344619450E+03 -0.11886347573E+04  0.45024937914E+03  0.13172600448E+04  0.91709166460E+02 0.  0.
          2    1    3    3  502    0  0.10601090603E+03  0.30059398851E+03 -0.47379757964E+01  0.31877500928E+03  0.00000000000E+00 0. -1.
         -2    1    3    3    0  502  0.49010507209E+03  0.12922263456E+04 -0.20071031917E+03  0.13965445006E+04  0.00000000000E+00 0.  1.
         13    1    5    5    0    0 -0.19362808719E+03 -0.23713189545E+03  0.64163979275E+03  0.71093248317E+03  0.00000000000E+00 0.  1.
        -13    1    5    5    0    0 -0.69041696433E+02 -0.16705368133E+03  0.28326673238E+03  0.33602638284E+03  0.00000000000E+00 0. -1.
          3    1    6    6  503    0 -0.22563034330E+03 -0.79225693959E+03  0.25415533046E+03  0.86207600718E+03  0.00000000000E+00 0. -1.
         -3    1    6    6    0  503 -0.10781585120E+03 -0.39637781772E+03  0.19609404868E+03  0.45518403760E+03  0.00000000000E+00 0.  1.
<mgrwt>
<rscale>  0 0.39082500E+04</rscale>
<asrwt>0</asrwt>
<pdfrwt beam="1">  1        1 0.40378816E+00 0.39082500E+04</pdfrwt>
<pdfrwt beam="2">  1       -1 0.22383314E+00 0.39082500E+04</pdfrwt>
<totfact> 0.90703831E-02</totfact>
</mgrwt>
</event>
<event>
12    3  0.4192740E-008  0.1268447E+04  0.7818608E-02  0.9054968E-01
         -2   -1    0    0    0  501 -0.00000000000E+00  0.00000000000E+00  0.44599642664E+03  0.44599642664E+03  0.00000000000E+00 0.  1.
          2   -1    0    0  501    0  0.00000000000E+00 -0.00000000000E+00 -0.90188955848E+03  0.90188955848E+03  0.00000000000E+00 0. -1.
         23    2    1    2    0    0 -0.20083644046E+02  0.70042281376E+02 -0.41567243413E+03  0.43164226053E+03  0.90676317988E+02 0.  0.
        254    2    1    2    0    0  0.20083644046E+02 -0.70042281376E+02 -0.40220697705E+02  0.91624372458E+03  0.91245579859E+03 0.  0.
         23    2    4    4    0    0 -0.33649857485E+03 -0.20987290918E+03 -0.24085004457E+03  0.47427610272E+03  0.98240260374E+02 0.  0.
         23    2    4    4    0    0  0.35658221890E+03  0.13983062781E+03  0.20062934686E+03  0.44196762186E+03  0.91541032561E+02 0.  0.
          4    1    3    3  502    0 -0.52626066552E+02  0.38490417116E+02 -0.17527456796E+03  0.18700852725E+03  0.00000000000E+00 0.  1.
         -4    1    3    3    0  502  0.32542422507E+02  0.31551864261E+02 -0.24039786618E+03  0.24463373329E+03  0.00000000000E+00 0. -1.
         13    1    5    5    0    0 -0.96569424172E+02 -0.23205987041E+02 -0.93701747798E+02  0.13654372582E+03  0.00000000000E+00 0.  1.
        -13    1    5    5    0    0 -0.23992915068E+03 -0.18666692214E+03 -0.14714829677E+03  0.33773237691E+03  0.00000000000E+00 0. -1.
          4    1    6    6  503    0  0.28264369941E+03  0.93524111107E+02  0.11335235423E+03  0.31856392825E+03  0.00000000000E+00 0. -1.
         -4    1    6    6    0  503  0.73938519491E+02  0.46306516701E+02  0.87276992633E+02  0.12340369361E+03  0.00000000000E+00 0.  1.
<mgrwt>
<rscale>  0 0.12684471E+04</rscale>
<asrwt>0</asrwt>
<pdfrwt beam="1">  1        2 0.13875224E+00 0.12684471E+04</pdfrwt>
<pdfrwt beam="2">  1       -2 0.68614835E-01 0.12684471E+04</pdfrwt>
<totfact> 0.55780647E+01</totfact>
</mgrwt>
</event>
<event>
12    3  0.4192740E-008  0.1652676E+04  0.7818608E-02  0.8788825E-01
          1   -1    0    0  501    0  0.00000000000E+00  0.00000000000E+00  0.55730019021E+03  0.55730019021E+03  0.00000000000E+00 0. -1.
         -1   -1    0    0    0  501 -0.00000000000E+00 -0.00000000000E+00 -0.12252549990E+04  0.12252549990E+04  0.00000000000E+00 0.  1.
         23    2    1    2    0    0 -0.16760112524E+03  0.12576054278E+01 -0.83341346887E+03  0.85493932749E+03  0.90837904242E+02 0.  0.
        254    2    1    2    0    0  0.16760112524E+03 -0.12576054278E+01  0.16545866011E+03  0.92761586167E+03  0.89721953828E+03 0.  0.
         23    2    4    4    0    0  0.52525205044E+03 -0.53438315787E+02  0.14671638027E+03  0.55578703432E+03  0.92887895805E+02 0.  0.
         23    2    4    4    0    0 -0.35765092520E+03  0.52180710359E+02  0.18742279840E+02  0.37182882736E+03  0.85254870631E+02 0.  0.
          3    1    3    3  502    0 -0.31225751603E+02  0.21494024041E+02 -0.74343921824E+02  0.83450939748E+02  0.00000000000E+00 0. -1.
         -3    1    3    3    0  502 -0.13637537364E+03 -0.20236418613E+02 -0.75906954705E+03  0.77148838775E+03  0.00000000000E+00 0.  1.
         13    1    5    5    0    0  0.58142901818E+02 -0.36488528133E+02  0.17564537451E+02  0.70855646868E+02  0.00000000000E+00 0.  1.
        -13    1    5    5    0    0  0.46710914863E+03 -0.16949787654E+02  0.12915184282E+03  0.48493138745E+03  0.00000000000E+00 0. -1.
          2    1    6    6  503    0 -0.26318073354E+03  0.44165062661E+02  0.50983196644E+02  0.27168720545E+03  0.00000000000E+00 0. -1.
         -2    1    6    6    0  503 -0.94470191668E+02  0.80156476987E+01 -0.32240916804E+02  0.10014162191E+03  0.00000000000E+00 0.  1.
<mgrwt>
<rscale>  0 0.16526764E+04</rscale>
<asrwt>0</asrwt>
<pdfrwt beam="1">  1        1 0.85738493E-01 0.16526764E+04</pdfrwt>
<pdfrwt beam="2">  1       -1 0.18850077E+00 0.16526764E+04</pdfrwt>
<totfact> 0.65841066E+00</totfact>
</mgrwt>
</event>
<event>
12    3  0.4192740E-008  0.1864101E+04  0.7818608E-02  0.8672935E-01
          1   -1    0    0  501    0  0.00000000000E+00  0.00000000000E+00  0.33813094352E+04  0.33813094352E+04  0.00000000000E+00 0. -1.
         -1   -1    0    0    0  501 -0.00000000000E+00 -0.00000000000E+00 -0.25691772107E+03  0.25691772107E+03  0.00000000000E+00 0.  1.
         23    2    1    2    0    0  0.69912115014E+03  0.12378429266E+03  0.10515390248E+04  0.12734787967E+04  0.10918329304E+03 0.  0.
        254    2    1    2    0    0 -0.69912115014E+03 -0.12378429266E+03  0.20728526894E+04  0.23647483596E+04  0.88950750329E+03 0.  0.
         23    2    4    4    0    0 -0.17979049568E+03  0.33638958617E+03  0.46006476537E+03  0.60635208355E+03  0.10257038979E+03 0.  0.
         23    2    4    4    0    0 -0.51933065447E+03 -0.46017387883E+03  0.16127879240E+04  0.17583962760E+04  0.96996124597E+02 0.  0.
          4    1    3    3  502    0  0.68536614636E+03  0.12087886248E+03  0.10494886334E+04  0.12592715536E+04  0.00000000000E+00 0. -1.
         -4    1    3    3    0  502  0.13755003781E+02  0.29054301781E+01  0.20503913290E+01  0.14207243157E+02  0.00000000000E+00 0.  1.
         13    1    5    5    0    0 -0.16437494194E+03  0.29856776214E+03  0.34810135549E+03  0.48717182166E+03  0.00000000000E+00 0. -1.
        -13    1    5    5    0    0 -0.15415553733E+02  0.37821824035E+02  0.11196340988E+03  0.11918026189E+03  0.00000000000E+00 0.  1.
          2    1    6    6  503    0 -0.48098737753E+03 -0.39805104753E+03  0.14904601670E+04  0.16159409034E+04  0.00000000000E+00 0. -1.
         -2    1    6    6    0  503 -0.38343276939E+02 -0.62122831301E+02  0.12232775703E+03  0.14245537265E+03  0.00000000000E+00 0.  1.
<mgrwt>
<rscale>  0 0.18641012E+04</rscale>
<asrwt>0</asrwt>
<pdfrwt beam="1">  1        1 0.52020142E+00 0.18641012E+04</pdfrwt>
<pdfrwt beam="2">  1       -1 0.39525806E-01 0.18641012E+04</pdfrwt>
<totfact> 0.18161347E+00</totfact>
</mgrwt>
</event>
<event>
12    3  0.4192740E-008  0.2055357E+04  0.7818608E-02  0.8581168E-01
         -1   -1    0    0    0  501 -0.00000000000E+00  0.00000000000E+00  0.12277733241E+04  0.12277733241E+04  0.00000000000E+00 0.  1.
          1   -1    0    0  501    0  0.00000000000E+00 -0.00000000000E+00 -0.86019424502E+03  0.86019424502E+03  0.00000000000E+00 0. -1.
         23    2    1    2    0    0 -0.25089424856E+03 -0.59350288890E+03  0.67162852790E+03  0.93596635676E+03  0.98765066726E+02 0.  0.
        254    2    1    2    0    0  0.25089424856E+03  0.59350288890E+03 -0.30404944884E+03  0.11520012123E+04  0.90524423377E+03 0.  0.
         23    2    4    4    0    0 -0.14303995189E+03  0.59111092817E+03  0.46276785616E+02  0.61676671150E+03  0.91580993083E+02 0.  0.
         23    2    4    4    0    0  0.39393420045E+03  0.23919607343E+01 -0.35032623446E+03  0.53523450083E+03  0.92507429783E+02 0.  0.
          4    1    3    3  502    0 -0.74399245123E+02 -0.10888468721E+03  0.96237694737E+02  0.16325690390E+03  0.00000000000E+00 0. -1.
         -4    1    3    3    0  502 -0.17649500344E+03 -0.48461820169E+03  0.57539083316E+03  0.77270945286E+03  0.00000000000E+00 0.  1.
         13    1    5    5    0    0 -0.54415742973E+02  0.19514074843E+03 -0.27191732748E+02  0.20440248314E+03  0.00000000000E+00 0.  1.
        -13    1    5    5    0    0 -0.88624208920E+02  0.39597017973E+03  0.73468518364E+02  0.41236422837E+03  0.00000000000E+00 0. -1.
          1    1    6    6  503    0  0.22951753074E+03  0.48261325478E+01 -0.26282526550E+03  0.34896806252E+03  0.00000000000E+00 0. -1.
         -1    1    6    6    0  503  0.16441666971E+03 -0.24341718135E+01 -0.87500968953E+02  0.18626643831E+03  0.00000000000E+00 0.  1.
<mgrwt>
<rscale>  0 0.20553574E+04</rscale>
<asrwt>0</asrwt>
<pdfrwt beam="1">  1        1 0.13233758E+00 0.20553574E+04</pdfrwt>
<pdfrwt beam="2">  1       -1 0.18888820E+00 0.20553574E+04</pdfrwt>
<totfact> 0.32612661E+00</totfact>
</mgrwt>
</event>
<event>
12    3  0.4192740E-008  0.2017990E+04  0.7818608E-02  0.8598255E-01
          2   -1    0    0  501    0  0.00000000000E+00  0.00000000000E+00  0.26653988385E+04  0.26653988385E+04  0.00000000000E+00 0. -1.
         -2   -1    0    0    0  501 -0.00000000000E+00 -0.00000000000E+00 -0.38195833982E+03  0.38195833982E+03  0.00000000000E+00 0.  1.
         23    2    1    2    0    0 -0.29019878456E+03  0.47258965915E+03  0.17975013535E+04  0.18833871749E+04  0.92627288661E+02 0.  0.
        254    2    1    2    0    0  0.29019878456E+03 -0.47258965915E+03  0.48593914526E+03  0.11639700034E+04  0.90062922195E+03 0.  0.
         23    2    4    4    0    0  0.34221576637E+02 -0.49397768622E+03 -0.10238308694E+03  0.51552326878E+03  0.10048319950E+03 0.  0.
         23    2    4    4    0    0  0.25597720792E+03  0.21388027063E+02  0.58832223220E+03  0.64844673462E+03  0.91533272953E+02 0.  0.
          1    1    3    3  502    0 -0.85799801279E+02  0.17952973850E+03  0.77982368073E+03  0.80480898723E+03  0.00000000000E+00 0. -1.
         -1    1    3    3    0  502 -0.20439898328E+03  0.29305992065E+03  0.10176776727E+04  0.10785781877E+04  0.00000000000E+00 0.  1.
         13    1    5    5    0    0 -0.15251590809E+02 -0.66865497006E+02  0.14184466466E+02  0.70034311598E+02  0.00000000000E+00 0.  1.
        -13    1    5    5    0    0  0.49473167447E+02 -0.42711218921E+03 -0.11656755340E+03  0.44548895719E+03  0.00000000000E+00 0. -1.
          3    1    6    6  503    0  0.10275308483E+03  0.36169512836E+02  0.16231291250E+03  0.19547867317E+03  0.00000000000E+00 0.  1.
         -3    1    6    6    0  503  0.15322412310E+03 -0.14781485773E+02  0.42600931970E+03  0.45296806145E+03  0.00000000000E+00 0. -1.
<mgrwt>
<rscale>  0 0.20179904E+04</rscale>
<asrwt>0</asrwt>
<pdfrwt beam="1">  1        2 0.41006135E+00 0.20179904E+04</pdfrwt>
<pdfrwt beam="2">  1       -2 0.58762823E-01 0.20179904E+04</pdfrwt>
<totfact> 0.69977486E+00</totfact>
</mgrwt>
</event>
<event>
12    3  0.4192740E-008  0.1446069E+04  0.7818608E-02  0.8921130E-01
         -2   -1    0    0    0  501 -0.00000000000E+00  0.00000000000E+00  0.33328929231E+03  0.33328929231E+03  0.00000000000E+00 0. -1.
          2   -1    0    0  501    0  0.00000000000E+00 -0.00000000000E+00 -0.15685436055E+04  0.15685436055E+04  0.00000000000E+00 0.  1.
         23    2    1    2    0    0  0.32104699329E+03 -0.22335472624E+03 -0.99094462669E+02  0.41352325057E+03  0.90682195595E+02 0.  0.
        254    2    1    2    0    0 -0.32104699329E+03  0.22335472624E+03 -0.11361598505E+04  0.14883096472E+04  0.87820720477E+03 0.  0.
         23    2    4    4    0    0  0.23480012436E+03 -0.11415229975E+03 -0.51498225952E+03  0.58469795347E+03  0.92212381144E+02 0.  0.
         23    2    4    4    0    0 -0.55584711766E+03  0.33750702598E+03 -0.62117759100E+03  0.90361169377E+03  0.88178697879E+02 0.  0.
          3    1    3    3  502    0  0.13334481225E+03 -0.53444539571E+02 -0.60465848704E+01  0.14378358374E+03  0.00000000000E+00 0. -1.
         -3    1    3    3    0  502  0.18770218104E+03 -0.16991018666E+03 -0.93047877798E+02  0.26973966683E+03  0.00000000000E+00 0.  1.
         13    1    5    5    0    0  0.12835650868E+03 -0.83315780526E+02 -0.38251138840E+03  0.41198528476E+03  0.00000000000E+00 0. -1.
        -13    1    5    5    0    0  0.10644361568E+03 -0.30836519222E+02 -0.13247087112E+03  0.17271266871E+03  0.00000000000E+00 0.  1.
          2    1    6    6  503    0 -0.48429656145E+03  0.31399516964E+03 -0.57782190109E+03  0.81670941918E+03  0.00000000000E+00 0. -1.
         -2    1    6    6    0  503 -0.71550556205E+02  0.23511856338E+02 -0.43355689916E+02  0.86902274595E+02  0.00000000000E+00 0.  1.
<mgrwt>
<rscale>  0 0.14460689E+04</rscale>
<asrwt>0</asrwt>
<pdfrwt beam="1">  1        2 0.24131440E+00 0.14460689E+04</pdfrwt>
<pdfrwt beam="2">  1       -2 0.51275276E-01 0.14460689E+04</pdfrwt>
<totfact> 0.40483473E+01</totfact>
</mgrwt>
</event>
<event>
12    3  0.4192740E-008  0.1693819E+04  0.7818608E-02  0.8764898E-01
          1   -1    0    0  501    0  0.00000000000E+00  0.00000000000E+00  0.92306222565E+03  0.92306222565E+03  0.00000000000E+00 0. -1.
         -1   -1    0    0    0  501 -0.00000000000E+00 -0.00000000000E+00 -0.77703914536E+03  0.77703914536E+03  0.00000000000E+00 0.  1.
         23    2    1    2    0    0  0.54116550557E+03  0.20558043515E+03 -0.10894831510E+03  0.59854164175E+03  0.10610816090E+03 0.  0.
        254    2    1    2    0    0 -0.54116550557E+03 -0.20558043515E+03  0.25497139539E+03  0.11015597293E+04  0.90183147256E+03 0.  0.
         23    2    4    4    0    0 -0.56862341899E+03 -0.34357014672E+03 -0.12862521839E+03  0.68283374601E+03  0.91347903907E+02 0.  0.
         23    2    4    4    0    0  0.27457913410E+02  0.13798971157E+03  0.38359661378E+03  0.41872598324E+03  0.91596885467E+02 0.  0.
          4    1    3    3  502    0  0.23027451568E+03  0.83306970847E+02 -0.99537865460E+02  0.26433726681E+03  0.00000000000E+00 0.  1.
         -4    1    3    3    0  502  0.31089098989E+03  0.12227346430E+03 -0.94104496435E+01  0.33420437494E+03  0.00000000000E+00 0. -1.
         13    1    5    5    0    0 -0.42228049252E+03 -0.29972344563E+03 -0.98524521877E+02  0.52712620845E+03  0.00000000000E+00 0.  1.
        -13    1    5    5    0    0 -0.14634292646E+03 -0.43846701093E+02 -0.30100696513E+02  0.15570753756E+03  0.00000000000E+00 0. -1.
          2    1    6    6  503    0  0.21268118373E+01 -0.66946496886E+01  0.91574587109E+02  0.91843598945E+02  0.00000000000E+00 0. -1.
         -2    1    6    6    0  503  0.25331101573E+02  0.14468436126E+03  0.29202202667E+03  0.32688238430E+03  0.00000000000E+00 0.  1.
<mgrwt>
<rscale>  0 0.16938187E+04</rscale>
<asrwt>0</asrwt>
<pdfrwt beam="1">  1        1 0.14200957E+00 0.16938187E+04</pdfrwt>
<pdfrwt beam="2">  1       -1 0.11954448E+00 0.16938187E+04</pdfrwt>
<totfact> 0.10369022E+01</totfact>
</mgrwt>
</event>
<event>
12    3  0.4192740E-008  0.3535481E+04  0.7818608E-02  0.8105433E-01
         -1   -1    0    0    0  501 -0.00000000000E+00  0.00000000000E+00  0.20635176707E+04  0.20635176707E+04  0.00000000000E+00 0.  1.
          1   -1    0    0  501    0  0.00000000000E+00 -0.00000000000E+00 -0.15143587700E+04  0.15143587700E+04  0.00000000000E+00 0. -1.
         23    2    1    2    0    0 -0.29530752400E+03 -0.11730348796E+04 -0.85823723652E+03  0.14860525372E+04  0.92539865899E+02 0.  0.
        254    2    1    2    0    0  0.29530752400E+03  0.11730348796E+04  0.14073961372E+04  0.20918239034E+04  0.96526990701E+03 0.  0.
         23    2    4    4    0    0  0.44384612798E+03  0.11434538273E+04  0.81779245452E+03  0.14767705826E+04  0.87067873412E+02 0.  0.
         23    2    4    4    0    0 -0.14853860398E+03  0.29581052353E+02  0.58960368272E+03  0.61505332084E+03  0.87859713561E+02 0.  0.
          3    1    3    3  502    0 -0.27856080094E+03 -0.11442588677E+04 -0.81833311677E+03  0.14340828310E+04  0.00000000000E+00 0. -1.
         -3    1    3    3    0  502 -0.16746723060E+02 -0.28776011892E+02 -0.39904119749E+02  0.51969706239E+02  0.00000000000E+00 0.  1.
         13    1    5    5    0    0  0.27567523840E+03  0.79740180163E+03  0.53110533341E+03  0.99695503684E+03  0.00000000000E+00 0. -1.
        -13    1    5    5    0    0  0.16817088958E+03  0.34605202563E+03  0.28668712112E+03  0.47981554577E+03  0.00000000000E+00 0.  1.
          4    1    6    6  503    0 -0.65718997273E+02  0.56378176152E+02  0.33365959719E+03  0.34471178127E+03  0.00000000000E+00 0. -1.
         -4    1    6    6    0  503 -0.82819606705E+02 -0.26797123799E+02  0.25594408553E+03  0.27034153957E+03  0.00000000000E+00 0.  1.
<mgrwt>
<rscale>  0 0.35354808E+04</rscale>
<asrwt>0</asrwt>
<pdfrwt beam="1">  1        1 0.23297827E+00 0.35354808E+04</pdfrwt>
<pdfrwt beam="2">  1       -1 0.31746426E+00 0.35354808E+04</pdfrwt>
<totfact> 0.13219698E-01</totfact>
</mgrwt>
</event>
<event>
12    3  0.4192740E-008  0.1303608E+04  0.7818608E-02  0.9026709E-01
          2   -1    0    0  501    0  0.00000000000E+00  0.00000000000E+00  0.11033478793E+04  0.11033478793E+04  0.00000000000E+00 0. -1.
         -2   -1    0    0    0  501 -0.00000000000E+00 -0.00000000000E+00 -0.38505418544E+03  0.38505418544E+03  0.00000000000E+00 0.  1.
         23    2    1    2    0    0  0.22125034036E+03  0.23761926530E+03  0.26105723145E+03  0.42646024722E+03  0.91119899151E+02 0.  0.
        254    2    1    2    0    0 -0.22125034036E+03 -0.23761926530E+03  0.45723646238E+03  0.10619418175E+04  0.90179854337E+03 0.  0.
         23    2    4    4    0    0 -0.69232447332E+02 -0.56940063444E+03  0.28065040783E+03  0.64502749087E+03  0.91025261873E+02 0.  0.
         23    2    4    4    0    0 -0.15201789303E+03  0.33178136914E+03  0.17658605455E+03  0.41691432661E+03  0.97193643633E+02 0.  0.
          1    1    3    3  502    0  0.16498576100E+02 -0.60947106729E+01  0.60430430954E+01  0.18597496642E+02  0.00000000000E+00 0. -1.
         -1    1    3    3    0  502  0.20475176426E+03  0.24371397597E+03  0.25501418835E+03  0.40786275058E+03  0.00000000000E+00 0.  1.
         13    1    5    5    0    0 -0.80847647598E+02 -0.52472516118E+03  0.23670454886E+03  0.58129328256E+03  0.00000000000E+00 0. -1.
        -13    1    5    5    0    0  0.11615200266E+02 -0.44675473261E+02  0.43945858976E+02  0.63734208314E+02  0.00000000000E+00 0.  1.
          4    1    6    6  503    0 -0.56938609114E+02  0.23536600388E+03  0.10853357094E+03  0.26536521439E+03  0.00000000000E+00 0. -1.
         -4    1    6    6    0  503 -0.95079283913E+02  0.96415365261E+02  0.68052483613E+02  0.15154911222E+03  0.00000000000E+00 0.  1.
<mgrwt>
<rscale>  0 0.13036084E+04</rscale>
<asrwt>0</asrwt>
<pdfrwt beam="1">  1        2 0.16974583E+00 0.13036084E+04</pdfrwt>
<pdfrwt beam="2">  1       -2 0.59239106E-01 0.13036084E+04</pdfrwt>
<totfact> 0.56536896E+01</totfact>
</mgrwt>
</event>
<event>
12    3  0.4192740E-008  0.1462753E+04  0.7818608E-02  0.8909606E-01
         -1   -1    0    0    0  501 -0.00000000000E+00  0.00000000000E+00  0.30288850641E+03  0.30288850641E+03  0.00000000000E+00 0.  1.
          1   -1    0    0  501    0  0.00000000000E+00 -0.00000000000E+00 -0.17660354678E+04  0.17660354678E+04  0.00000000000E+00 0. -1.
         23    2    1    2    0    0  0.24721804884E+03 -0.26410726799E+03 -0.82919926282E+03  0.90920022857E+03  0.90577179801E+02 0.  0.
        254    2    1    2    0    0 -0.24721804884E+03  0.26410726799E+03 -0.63394769860E+03  0.11597237457E+04  0.90122143173E+03 0.  0.
         23    2    4    4    0    0 -0.34357496769E+03  0.54179000162E+03 -0.51972538250E+03  0.83066395423E+03  0.91148051911E+02 0.  0.
         23    2    4    4    0    0  0.96356918857E+02 -0.27768273363E+03 -0.11422231611E+03  0.32905979143E+03  0.94027934524E+02 0.  0.
          1    1    3    3  502    0  0.24026932184E+03 -0.25741545401E+03 -0.74028951773E+03  0.81976864604E+03  0.00000000000E+00 0. -1.
         -1    1    3    3    0  502  0.69487269934E+01 -0.66918139825E+01 -0.88909745088E+02  0.89431582525E+02  0.00000000000E+00 0.  1.
         13    1    5    5    0    0 -0.87629504693E+02  0.98383063765E+02 -0.69870460230E+02  0.14913094428E+03  0.00000000000E+00 0.  1.
        -13    1    5    5    0    0 -0.25594546300E+03  0.44340693786E+03 -0.44985492227E+03  0.68153300995E+03  0.00000000000E+00 0. -1.
          3    1    6    6  503    0  0.10002631806E+03 -0.18608925047E+03 -0.49914360483E+02  0.21708504515E+03  0.00000000000E+00 0. -1.
         -3    1    6    6    0  503 -0.36693992033E+01 -0.91593483161E+02 -0.64307955623E+02  0.11197474628E+03  0.00000000000E+00 0.  1.
<mgrwt>
<rscale>  0 0.14627534E+04</rscale>
<asrwt>0</asrwt>
<pdfrwt beam="1">  1        1 0.27169776E+00 0.14627534E+04</pdfrwt>
<pdfrwt beam="2">  1       -1 0.46598232E-01 0.14627534E+04</pdfrwt>
<totfact> 0.19126296E+01</totfact>
</mgrwt>
</event>
<event>
12    3  0.4192740E-008  0.1127542E+04  0.7818608E-02  0.9178755E-01
          1   -1    0    0  501    0  0.00000000000E+00  0.00000000000E+00  0.30438355016E+04  0.30438355016E+04  0.00000000000E+00 0. -1.
         -1   -1    0    0    0  501 -0.00000000000E+00 -0.00000000000E+00 -0.10442022195E+03  0.10442022195E+03  0.00000000000E+00 0.  1.
         23    2    1    2    0    0  0.15667264947E+03  0.37107954985E+02  0.68724809552E+03  0.71133112740E+03  0.88083531999E+02 0.  0.
        254    2    1    2    0    0 -0.15667264947E+03 -0.37107954985E+02  0.22521671842E+04  0.24369245962E+04  0.91674486231E+03 0.  0.
         23    2    4    4    0    0 -0.47194340584E+03 -0.83877462573E+02  0.72242322254E+03  0.87161769164E+03  0.89755673196E+02 0.  0.
         23    2    4    4    0    0  0.31527075637E+03  0.46769507588E+02  0.15297439616E+04  0.15653069045E+04  0.92119924982E+02 0.  0.
          2    1    3    3  502    0  0.39716112605E+02  0.15846431709E+02  0.37140633766E+03  0.37385979545E+03  0.00000000000E+00 0. -1.
         -2    1    3    3    0  502  0.11695653686E+03  0.21261523275E+02  0.31584175786E+03  0.33747133196E+03  0.00000000000E+00 0.  1.
         13    1    5    5    0    0 -0.19357825255E+02 -0.20201034830E+02  0.23576567637E+02  0.36587726745E+02  0.00000000000E+00 0. -1.
        -13    1    5    5    0    0 -0.45258558059E+03 -0.63676427743E+02  0.69884665490E+03  0.83502996489E+03  0.00000000000E+00 0.  1.
          3    1    6    6  503    0  0.11511058826E+03 -0.18537992372E+02  0.67623098732E+03  0.68620875316E+03  0.00000000000E+00 0. -1.
         -3    1    6    6    0  503  0.20016016811E+03  0.65307499960E+02  0.85351297432E+03  0.87909815139E+03  0.00000000000E+00 0.  1.
<mgrwt>
<rscale>  0 0.11275424E+04</rscale>
<asrwt>0</asrwt>
<pdfrwt beam="1">  1        1 0.46828232E+00 0.11275424E+04</pdfrwt>
<pdfrwt beam="2">  1       -1 0.16064652E-01 0.11275424E+04</pdfrwt>
<totfact> 0.16518602E+01</totfact>
</mgrwt>
</event>
<event>
12    3  0.4192740E-008  0.2130246E+04  0.7818608E-02  0.8548036E-01
          2   -1    0    0  501    0  0.00000000000E+00  0.00000000000E+00  0.16429023571E+04  0.16429023571E+04  0.00000000000E+00 0. -1.
         -2   -1    0    0    0  501 -0.00000000000E+00 -0.00000000000E+00 -0.69053818797E+03  0.69053818797E+03  0.00000000000E+00 0.  1.
         23    2    1    2    0    0 -0.74136790161E+03 -0.45321155605E+03  0.29600136377E+03  0.92234002021E+03  0.89817734589E+02 0.  0.
        254    2    1    2    0    0  0.74136790161E+03  0.45321155605E+03  0.65636280531E+03  0.14111005248E+04  0.89742157255E+03 0.  0.
         23    2    4    4    0    0  0.40966971336E+03 -0.18899590505E+03  0.49434363505E+02  0.46294862450E+03  0.91263061860E+02 0.  0.
         23    2    4    4    0    0  0.33169818825E+03  0.64220746110E+03  0.60692844181E+03  0.94815190032E+03  0.90420027773E+02 0.  0.
          3    1    3    3  502    0 -0.39933400046E+03 -0.24086265213E+03  0.20594541742E+03  0.50979993730E+03  0.00000000000E+00 0. -1.
         -3    1    3    3    0  502 -0.34203390115E+03 -0.21234890392E+03  0.90055946349E+02  0.41254008291E+03  0.00000000000E+00 0.  1.
         13    1    5    5    0    0  0.20619286215E+03 -0.49559590040E+02  0.41901617811E+02  0.21616520289E+03  0.00000000000E+00 0. -1.
        -13    1    5    5    0    0  0.20347685121E+03 -0.13943631501E+03  0.75327456944E+01  0.24678342161E+03  0.00000000000E+00 0.  1.
          2    1    6    6  503    0  0.18174090893E+03  0.38239882899E+03  0.40957070705E+03  0.58907281932E+03  0.00000000000E+00 0.  1.
         -2    1    6    6    0  503  0.14995727932E+03  0.25980863211E+03  0.19735773476E+03  0.35907908100E+03  0.00000000000E+00 0. -1.
<mgrwt>
<rscale>  0 0.21302458E+04</rscale>
<asrwt>0</asrwt>
<pdfrwt beam="1">  1        2 0.25275421E+00 0.21302458E+04</pdfrwt>
<pdfrwt beam="2">  1       -2 0.10623664E+00 0.21302458E+04</pdfrwt>
<totfact> 0.69334865E+00</totfact>
</mgrwt>
</event>
<event>
12    3  0.4192740E-008  0.1338937E+04  0.7818608E-02  0.8999245E-01
         -2   -1    0    0    0  501 -0.00000000000E+00  0.00000000000E+00  0.13913182388E+03  0.13913182388E+03  0.00000000000E+00 0.  1.
          2   -1    0    0  501    0  0.00000000000E+00 -0.00000000000E+00 -0.32213190324E+04  0.32213190324E+04  0.00000000000E+00 0. -1.
         23    2    1    2    0    0  0.21364249811E+03 -0.13771132882E+03 -0.14824296725E+04  0.15068169284E+04  0.91060391958E+02 0.  0.
        254    2    1    2    0    0 -0.21364249811E+03  0.13771132882E+03 -0.15997575361E+04  0.18536339279E+04  0.90118091255E+03 0.  0.
         23    2    4    4    0    0 -0.47034933729E+03  0.34574765590E+03 -0.10755631542E+04  0.12271614539E+04  0.91209619835E+02 0.  0.
         23    2    4    4    0    0  0.25670683918E+03 -0.20803632708E+03 -0.52419438191E+03  0.62647247392E+03  0.92252348953E+02 0.  0.
          1    1    3    3  502    0  0.21996644869E+03 -0.13227065217E+03 -0.13537972958E+04  0.13779143232E+04  0.00000000000E+00 0. -1.
         -1    1    3    3    0  502 -0.63239505791E+01 -0.54406766444E+01 -0.12863237670E+03  0.12890260529E+03  0.00000000000E+00 0.  1.
         13    1    5    5    0    0 -0.32513250743E+03  0.22285857256E+03 -0.80607399596E+03  0.89729169043E+03  0.00000000000E+00 0.  1.
        -13    1    5    5    0    0 -0.14521682986E+03  0.12288908334E+03 -0.26948915822E+03  0.32986976351E+03  0.00000000000E+00 0. -1.
          1    1    6    6  503    0  0.24823802837E+03 -0.21715704176E+03 -0.49592493218E+03  0.59558445067E+03  0.00000000000E+00 0. -1.
         -1    1    6    6    0  503  0.84688108117E+01  0.91207146770E+01 -0.28269449725E+02  0.30888023254E+02  0.00000000000E+00 0.  1.
<mgrwt>
<rscale>  0 0.13389369E+04</rscale>
<asrwt>0</asrwt>
<pdfrwt beam="1">  1        2 0.49558755E+00 0.13389369E+04</pdfrwt>
<pdfrwt beam="2">  1       -2 0.21404896E-01 0.13389369E+04</pdfrwt>
<totfact> 0.23601743E+01</totfact>
</mgrwt>
</event>
<event>
12    3  0.4192740E-008  0.2262936E+04  0.7818608E-02  0.8492680E-01
         -2   -1    0    0    0  501 -0.00000000000E+00  0.00000000000E+00  0.42855446906E+03  0.42855446906E+03  0.00000000000E+00 0.  1.
          2   -1    0    0  501    0  0.00000000000E+00 -0.00000000000E+00 -0.29872983253E+04  0.29872983253E+04  0.00000000000E+00 0. -1.
         23    2    1    2    0    0  0.12278964821E+03  0.93209070267E+03 -0.11379249637E+04  0.14787736157E+04  0.89598034607E+02 0.  0.
        254    2    1    2    0    0 -0.12278964821E+03 -0.93209070267E+03 -0.14208188926E+04  0.19370791787E+04  0.92178036607E+03 0.  0.
         23    2    4    4    0    0  0.25991592211E+03 -0.58303456600E+03 -0.12094587224E+04  0.13706018591E+04  0.90958580561E+02 0.  0.
         23    2    4    4    0    0 -0.38270557031E+03 -0.34905613668E+03 -0.21136017024E+03  0.56647731960E+03  0.88992651114E+02 0.  0.
          2    1    3    3  502    0  0.62005053782E+01  0.24141918329E+03 -0.24655899467E+03  0.34512752162E+03  0.00000000000E+00 0. -1.
         -2    1    3    3    0  502  0.11658914283E+03  0.69067151939E+03 -0.89136596898E+03  0.11336460941E+04  0.00000000000E+00 0.  1.
         13    1    5    5    0    0  0.11872121251E+03 -0.20875102844E+03 -0.37657257352E+03  0.44663029600E+03  0.00000000000E+00 0. -1.
        -13    1    5    5    0    0  0.14119470960E+03 -0.37428353756E+03 -0.83288614884E+03  0.92397156311E+03  0.00000000000E+00 0.  1.
          4    1    6    6  503    0 -0.72026239806E+02 -0.29151371406E+02 -0.14605703363E+02  0.79062685549E+02  0.00000000000E+00 0. -1.
         -4    1    6    6    0  503 -0.31067933051E+03 -0.31990476527E+03 -0.19675446688E+03  0.48741463405E+03  0.00000000000E+00 0.  1.
<mgrwt>
<rscale>  0 0.22629362E+04</rscale>
<asrwt>0</asrwt>
<pdfrwt beam="1">  1        2 0.45958436E+00 0.22629362E+04</pdfrwt>
<pdfrwt beam="2">  1       -2 0.65931456E-01 0.22629362E+04</pdfrwt>
<totfact> 0.34173569E+00</totfact>
</mgrwt>
</event>
<event>
12    3  0.4192740E-008  0.1485559E+04  0.7818608E-02  0.8894113E-01
         -2   -1    0    0    0  501 -0.00000000000E+00  0.00000000000E+00  0.14580859226E+03  0.14580859226E+03  0.00000000000E+00 0.  1.
          2   -1    0    0  501    0  0.00000000000E+00 -0.00000000000E+00 -0.37838749425E+04  0.37838749425E+04  0.00000000000E+00 0. -1.
         23    2    1    2    0    0  0.16919430688E+03  0.43853327094E+03 -0.10449527537E+04  0.11494699945E+04  0.91743487725E+02 0.  0.
        254    2    1    2    0    0 -0.16919430688E+03 -0.43853327094E+03 -0.25931135965E+04  0.27802135403E+04  0.88566983794E+03 0.  0.
         23    2    4    4    0    0 -0.45092073285E+03 -0.41130532153E+03 -0.22133833770E+04  0.22977935942E+04  0.91037645991E+02 0.  0.
         23    2    4    4    0    0  0.28172642597E+03 -0.27227949410E+02 -0.37973021947E+03  0.48241994606E+03  0.91775947043E+02 0.  0.
          2    1    3    3  502    0  0.70974957750E+02  0.11655270979E+03 -0.22560494864E+03  0.26366564365E+03  0.00000000000E+00 0. -1.
         -2    1    3    3    0  502  0.98219349135E+02  0.32198056115E+03 -0.81934780510E+03  0.88580435088E+03  0.00000000000E+00 0.  1.
         13    1    5    5    0    0 -0.24583753058E+03 -0.21890706083E+03 -0.13601339857E+04  0.13994001757E+04  0.00000000000E+00 0. -1.
        -13    1    5    5    0    0 -0.20508320227E+03 -0.19239826070E+03 -0.85324939132E+03  0.89839341848E+03  0.00000000000E+00 0.  1.
          1    1    6    6  503    0  0.11274877258E+03 -0.52103278012E+02 -0.12931278644E+03  0.17930095938E+03  0.00000000000E+00 0. -1.
         -1    1    6    6    0  503  0.16897765339E+03  0.24875328602E+02 -0.25041743303E+03  0.30311898668E+03  0.00000000000E+00 0.  1.
<mgrwt>
<rscale>  0 0.14855591E+04</rscale>
<asrwt>0</asrwt>
<pdfrwt beam="1">  1        2 0.58213464E+00 0.14855591E+04</pdfrwt>
<pdfrwt beam="2">  1       -2 0.22432090E-01 0.14855591E+04</pdfrwt>
<totfact> 0.86914569E+00</totfact>
</mgrwt>
</event>
<event>
12    3  0.4192740E-008  0.1592365E+04  0.7818608E-02  0.8825253E-01
         -1   -1    0    0    0  501 -0.00000000000E+00  0.00000000000E+00  0.39806138585E+03  0.39806138585E+03  0.00000000000E+00 0.  1.
          1   -1    0    0  501    0  0.00000000000E+00 -0.00000000000E+00 -0.15924835675E+04  0.15924835675E+04  0.00000000000E+00 0. -1.
         23    2    1    2    0    0  0.23285194450E+03 -0.25088623968E+03 -0.92083455573E+03  0.98711338476E+03  0.96398247037E+02 0.  0.
        254    2    1    2    0    0 -0.23285194450E+03  0.25088623968E+03 -0.27358762589E+03  0.10034315686E+04  0.90269639992E+03 0.  0.
         23    2    4    4    0    0 -0.14765500594E+03 -0.32185769604E+03 -0.18920120181E+03  0.41106357716E+03  0.88214468314E+02 0.  0.
         23    2    4    4    0    0 -0.85196938569E+02  0.57274393572E+03 -0.84386424081E+02  0.59236799141E+03  0.92112075360E+02 0.  0.
          3    1    3    3  502    0  0.20712783561E+03 -0.16519913704E+03 -0.72212366714E+03  0.76919131938E+03  0.00000000000E+00 0. -1.
         -3    1    3    3    0  502  0.25724108893E+02 -0.85687102639E+02 -0.19871088858E+03  0.21792206538E+03  0.00000000000E+00 0.  1.
         13    1    5    5    0    0 -0.83238163607E+02 -0.83093122822E+02 -0.62867200153E+02  0.13336170288E+03  0.00000000000E+00 0. -1.
        -13    1    5    5    0    0 -0.64416842328E+02 -0.23876457322E+03 -0.12633400165E+03  0.27770187427E+03  0.00000000000E+00 0.  1.
          1    1    6    6  503    0 -0.29835079156E+02  0.45070615980E+03 -0.76529471742E+02  0.45812982273E+03  0.00000000000E+00 0. -1.
         -1    1    6    6    0  503 -0.55361859413E+02  0.12203777592E+03 -0.78569523396E+01  0.13423816868E+03  0.00000000000E+00 0.  1.
<mgrwt>
<rscale>  0 0.15923646E+04</rscale>
<asrwt>0</asrwt>
<pdfrwt beam="1">  1        1 0.24499747E+00 0.15923646E+04</pdfrwt>
<pdfrwt beam="2">  1       -1 0.61240213E-01 0.15923646E+04</pdfrwt>
<totfact> 0.14661678E+01</totfact>
</mgrwt>
</event>
<event>
12    3  0.4192740E-008  0.1725905E+04  0.7818608E-02  0.8746726E-01
         -1   -1    0    0    0  501 -0.00000000000E+00  0.00000000000E+00  0.34471233635E+03  0.34471233635E+03  0.00000000000E+00 0. -1.
          1   -1    0    0  501    0  0.00000000000E+00 -0.00000000000E+00 -0.21603145052E+04  0.21603145052E+04  0.00000000000E+00 0.  1.
         23    2    1    2    0    0  0.75605202119E+02 -0.13098942203E+03 -0.15552485338E+04  0.15653755871E+04  0.93425646921E+02 0.  0.
        254    2    1    2    0    0 -0.75605202119E+02  0.13098942203E+03 -0.26035363503E+03  0.93965125443E+03  0.89010453847E+03 0.  0.
         23    2    4    4    0    0  0.24999083410E+03  0.39218023878E+03 -0.15605940119E+03  0.49963540254E+03  0.94764138533E+02 0.  0.
         23    2    4    4    0    0 -0.32559603622E+03 -0.26119081675E+03 -0.10429423384E+03  0.44001585189E+03  0.92213020482E+02 0.  0.
          1    1    3    3  502    0  0.22840347721E+02 -0.49510217927E+01 -0.68817005951E+02  0.72677193182E+02  0.00000000000E+00 0. -1.
         -1    1    3    3    0  502  0.52764854397E+02 -0.12603840023E+03 -0.14864315278E+04  0.14926983939E+04  0.00000000000E+00 0.  1.
         13    1    5    5    0    0  0.22458240968E+03  0.35725377640E+03 -0.16897503099E+03  0.45455481582E+03  0.00000000000E+00 0. -1.
        -13    1    5    5    0    0  0.25408424422E+02  0.34926462376E+02  0.12915629802E+02  0.45080586718E+02  0.00000000000E+00 0.  1.
          1    1    6    6  503    0 -0.91504733170E+02 -0.12756889274E+03 -0.52518373102E+02  0.16554491264E+03  0.00000000000E+00 0. -1.
         -1    1    6    6    0  503 -0.23409130305E+03 -0.13362192402E+03 -0.51775860741E+02  0.27447093926E+03  0.00000000000E+00 0.  1.
<mgrwt>
<rscale>  0 0.17259050E+04</rscale>
<asrwt>0</asrwt>
<pdfrwt beam="1">  1        1 0.33235606E+00 0.17259050E+04</pdfrwt>
<pdfrwt beam="2">  1       -1 0.53032669E-01 0.17259050E+04</pdfrwt>
<totfact> 0.78971851E+00</totfact>
</mgrwt>
</event>
<event>
12    3  0.4192740E-008  0.1509980E+04  0.7818608E-02  0.8877843E-01
         -2   -1    0    0    0  501 -0.00000000000E+00  0.00000000000E+00  0.41911237718E+03  0.41911237718E+03  0.00000000000E+00 0.  1.
          2   -1    0    0  501    0  0.00000000000E+00 -0.00000000000E+00 -0.13600408753E+04  0.13600408753E+04  0.00000000000E+00 0. -1.
         23    2    1    2    0    0 -0.37147008029E+03 -0.20910390778E+03 -0.51710060163E+03  0.67646272684E+03  0.92164655848E+02 0.  0.
        254    2    1    2    0    0  0.37147008029E+03  0.20910390778E+03 -0.42382789652E+03  0.11026905257E+04  0.92443596032E+03 0.  0.
         23    2    4    4    0    0  0.32352194356E+03  0.19904544095E+03 -0.70393966553E+03  0.80478574087E+03  0.88676380648E+02 0.  0.
         23    2    4    4    0    0  0.47948136737E+02  0.10058466837E+02  0.28011176901E+03  0.29790478480E+03  0.88794487988E+02 0.  0.
          3    1    3    3  502    0 -0.24772847311E+03 -0.14239665774E+03 -0.40995208092E+03  0.49970682723E+03  0.00000000000E+00 0. -1.
         -3    1    3    3    0  502 -0.12374160718E+03 -0.66707250039E+02 -0.10714852071E+03  0.17675589961E+03  0.00000000000E+00 0.  1.
         13    1    5    5    0    0 -0.15632422299E+01 -0.48674990787E+01 -0.37747471425E+01  0.63549185314E+01  0.00000000000E+00 0. -1.
        -13    1    5    5    0    0  0.32508518579E+03  0.20391294003E+03 -0.70016491839E+03  0.79843082234E+03  0.00000000000E+00 0.  1.
          4    1    6    6  503    0  0.43685701391E+02 -0.19167208346E+02  0.64209664422E+02  0.79991895758E+02  0.00000000000E+00 0. -1.
         -4    1    6    6    0  503  0.42624353455E+01  0.29225675183E+02  0.21590210458E+03  0.21791288904E+03  0.00000000000E+00 0.  1.
<mgrwt>
<rscale>  0 0.15099801E+04</rscale>
<asrwt>0</asrwt>
<pdfrwt beam="1">  1        2 0.20923706E+00 0.15099801E+04</pdfrwt>
<pdfrwt beam="2">  1       -2 0.64478827E-01 0.15099801E+04</pdfrwt>
<totfact> 0.32717787E+01</totfact>
</mgrwt>
</event>
<event>
12    3  0.4192740E-008  0.1940757E+04  0.7818608E-02  0.8634831E-01
          2   -1    0    0  501    0  0.00000000000E+00  0.00000000000E+00  0.11889547416E+04  0.11889547416E+04  0.00000000000E+00 0. -1.
         -2   -1    0    0    0  501 -0.00000000000E+00 -0.00000000000E+00 -0.79198538267E+03  0.79198538267E+03  0.00000000000E+00 0.  1.
         23    2    1    2    0    0  0.33121411407E+03 -0.63442687318E+03 -0.96041293786E+02  0.73030609672E+03  0.10919165729E+03 0.  0.
        254    2    1    2    0    0 -0.33121411407E+03  0.63442687318E+03  0.49301065275E+03  0.12506340276E+04  0.89934738586E+03 0.  0.
         23    2    4    4    0    0 -0.54921974724E+03  0.63760000090E+03  0.19162035376E+03  0.86790187883E+03  0.91428766740E+02 0.  0.
         23    2    4    4    0    0  0.21800563317E+03 -0.31731277225E+01  0.30139029899E+03  0.38273214875E+03  0.90062536768E+02 0.  0.
          2    1    3    3  502    0  0.13982925537E+03 -0.17100130507E+03 -0.52385697171E+02  0.22701966492E+03  0.00000000000E+00 0. -1.
         -2    1    3    3    0  502  0.19138485870E+03 -0.46342556811E+03 -0.43655596616E+02  0.50328643180E+03  0.00000000000E+00 0.  1.
         13    1    5    5    0    0 -0.47256609032E+03  0.56635263540E+03  0.13836493124E+03  0.75047909467E+03  0.00000000000E+00 0. -1.
        -13    1    5    5    0    0 -0.76653656922E+02  0.71247365504E+02  0.53255422527E+02  0.11742278416E+03  0.00000000000E+00 0.  1.
          4    1    6    6  503    0 -0.18801548287E+01  0.89241060882E+01 -0.40940551045E+00  0.91291984602E+01  0.00000000000E+00 0.  1.
         -4    1    6    6    0  503  0.21988578800E+03 -0.12097233811E+02  0.30179970450E+03  0.37360295029E+03  0.00000000000E+00 0. -1.
<mgrwt>
<rscale>  0 0.19407574E+04</rscale>
<asrwt>0</asrwt>
<pdfrwt beam="1">  1        2 0.18291611E+00 0.19407574E+04</pdfrwt>
<pdfrwt beam="2">  1       -2 0.12184391E+00 0.19407574E+04</pdfrwt>
<totfact> 0.91789715E+00</totfact>
</mgrwt>
</event>
<event>
12    3  0.4192740E-008  0.1376835E+04  0.7818608E-02  0.8970760E-01
          1   -1    0    0  501    0  0.00000000000E+00  0.00000000000E+00  0.26437206534E+04  0.26437206534E+04  0.00000000000E+00 0. -1.
         -1   -1    0    0    0  501 -0.00000000000E+00 -0.00000000000E+00 -0.17926187923E+03  0.17926187923E+03  0.00000000000E+00 0.  1.
         23    2    1    2    0    0 -0.36001288636E+02  0.20401095458E+03  0.12871166438E+04  0.13068026093E+04  0.90262075965E+02 0.  0.
        254    2    1    2    0    0  0.36001288636E+02 -0.20401095458E+03  0.11773421303E+04  0.15161799233E+04  0.93260415277E+03 0.  0.
         23    2    4    4    0    0  0.15710486035E+03 -0.54877253649E+03  0.68181751511E+03  0.89381898114E+03  0.90576007796E+02 0.  0.
         23    2    4    4    0    0 -0.12110357172E+03  0.34476158191E+03  0.49552461518E+03  0.62236094218E+03  0.90894854977E+02 0.  0.
          4    1    3    3  502    0  0.16092549136E+02  0.10570849527E+03  0.80175695738E+03  0.80885565759E+03  0.00000000000E+00 0. -1.
         -4    1    3    3    0  502 -0.52093837771E+02  0.98302459307E+02  0.48535968647E+03  0.49794695168E+03  0.00000000000E+00 0.  1.
         13    1    5    5    0    0  0.62400230470E+01 -0.40650963345E+02  0.19489878788E+02  0.45511472001E+02  0.00000000000E+00 0.  1.
        -13    1    5    5    0    0  0.15086483731E+03 -0.50812157314E+03  0.66232763632E+03  0.84830750914E+03  0.00000000000E+00 0. -1.
          3    1    6    6  503    0 -0.94448098208E+02  0.13775176300E+03  0.20013152889E+03  0.26066956155E+03  0.00000000000E+00 0. -1.
         -3    1    6    6    0  503 -0.26655473509E+02  0.20700981891E+03  0.29539308629E+03  0.36169138063E+03  0.00000000000E+00 0.  1.
<mgrwt>
<rscale>  0 0.13768345E+04</rscale>
<asrwt>0</asrwt>
<pdfrwt beam="1">  1        1 0.40672623E+00 0.13768345E+04</pdfrwt>
<pdfrwt beam="2">  1       -1 0.27578753E-01 0.13768345E+04</pdfrwt>
<totfact> 0.12476331E+01</totfact>
</mgrwt>
</event>
<event>
12    3  0.4192740E-008  0.1194355E+04  0.7818608E-02  0.9117812E-01
         -2   -1    0    0    0  501 -0.00000000000E+00  0.00000000000E+00  0.16066874481E+03  0.16066874481E+03  0.00000000000E+00 0.  1.
          2   -1    0    0  501    0  0.00000000000E+00 -0.00000000000E+00 -0.22196047292E+04  0.22196047292E+04  0.00000000000E+00 0. -1.
         23    2    1    2    0    0 -0.26254867595E+03 -0.41096329708E+02 -0.55152873770E+03  0.61892937524E+03  0.90933533202E+02 0.  0.
        254    2    1    2    0    0  0.26254867595E+03  0.41096329708E+02 -0.15074072467E+04  0.17613440988E+04  0.87145608689E+03 0.  0.
         23    2    4    4    0    0  0.10710883562E+03 -0.39358068695E+03 -0.51772350788E+03  0.66547538232E+03  0.91879236194E+02 0.  0.
         23    2    4    4    0    0  0.15543984033E+03  0.43467701666E+03 -0.98968373884E+03  0.10958687165E+04  0.91371155685E+02 0.  0.
          1    1    3    3  502    0 -0.30250226620E+02 -0.25974866511E+01 -0.15344144138E+03  0.15641642842E+03  0.00000000000E+00 0. -1.
         -1    1    3    3    0  502 -0.23229844933E+03 -0.38498843057E+02 -0.39808729632E+03  0.46251294681E+03  0.00000000000E+00 0.  1.
         13    1    5    5    0    0  0.30183611714E+02 -0.10511128230E+03 -0.20974839339E+03  0.23654559944E+03  0.00000000000E+00 0. -1.
        -13    1    5    5    0    0  0.76925223905E+02 -0.28846940465E+03 -0.30797511449E+03  0.42892978288E+03  0.00000000000E+00 0.  1.
          2    1    6    6  503    0 -0.73244607421E+01  0.10377029404E+02 -0.56521935468E+02  0.57931508296E+02  0.00000000000E+00 0. -1.
         -2    1    6    6    0  503  0.16276430107E+03  0.42429998726E+03 -0.93316180337E+03  0.10379372082E+04  0.00000000000E+00 0.  1.
<mgrwt>
<rscale>  0 0.11943552E+04</rscale>
<asrwt>0</asrwt>
<pdfrwt beam="1">  1        2 0.34147762E+00 0.11943552E+04</pdfrwt>
<pdfrwt beam="2">  1       -2 0.24718270E-01 0.11943552E+04</pdfrwt>
<totfact> 0.73006512E+01</totfact>
</mgrwt>
</event>
<event>
12    3  0.4192740E-008  0.2877827E+04  0.7818608E-02  0.8279505E-01
          1   -1    0    0  501    0  0.00000000000E+00  0.00000000000E+00  0.16427779349E+04  0.16427779349E+04  0.00000000000E+00 0. -1.
         -1   -1    0    0    0  501 -0.00000000000E+00 -0.00000000000E+00 -0.12603477955E+04  0.12603477955E+04  0.00000000000E+00 0.  1.
         23    2    1    2    0    0  0.72184725774E+03 -0.10385990475E+04 -0.11591685039E+03  0.12733274791E+04  0.90414090186E+02 0.  0.
        254    2    1    2    0    0 -0.72184725774E+03  0.10385990475E+04  0.49834698980E+03  0.16297982514E+04  0.89896672519E+03 0.  0.
         23    2    4    4    0    0 -0.73516207066E+03  0.64825562273E+03  0.67191593226E+03  0.11920035538E+04  0.93288957885E+02 0.  0.
         23    2    4    4    0    0  0.13314812914E+02  0.39034342478E+03 -0.17356894246E+03  0.43779469761E+03  0.94830089933E+02 0.  0.
          3    1    3    3  502    0  0.31232884820E+03 -0.52452932228E+03 -0.41567582361E+02  0.61188902854E+03  0.00000000000E+00 0. -1.
         -3    1    3    3    0  502  0.40951840954E+03 -0.51406972523E+03 -0.74349268031E+02  0.66143845051E+03  0.00000000000E+00 0.  1.
         13    1    5    5    0    0 -0.37016716821E+03  0.38542963038E+03  0.38193143585E+03  0.65684956731E+03  0.00000000000E+00 0. -1.
        -13    1    5    5    0    0 -0.36499490245E+03  0.26282599235E+03  0.28998449642E+03  0.53515398647E+03  0.00000000000E+00 0.  1.
          3    1    6    6  503    0 -0.62637347089E+01  0.37910767369E+03 -0.16068098409E+03  0.41180121573E+03  0.00000000000E+00 0. -1.
         -3    1    6    6    0  503  0.19578547623E+02  0.11235751087E+02 -0.12887958368E+02  0.25993481882E+02  0.00000000000E+00 0.  1.
<mgrwt>
<rscale>  0 0.28778266E+04</rscale>
<asrwt>0</asrwt>
<pdfrwt beam="1">  1        1 0.25273507E+00 0.28778266E+04</pdfrwt>
<pdfrwt beam="2">  1       -1 0.19389966E+00 0.28778266E+04</pdfrwt>
<totfact> 0.74424920E-01</totfact>
</mgrwt>
</event>
<event>
12    3  0.4192740E-008  0.2685557E+04  0.7818608E-02  0.8339707E-01
          1   -1    0    0  501    0  0.00000000000E+00  0.00000000000E+00  0.75496511855E+03  0.75496511855E+03  0.00000000000E+00 0. -1.
         -1   -1    0    0    0  501 -0.00000000000E+00 -0.00000000000E+00 -0.23882606136E+04  0.23882606136E+04  0.00000000000E+00 0.  1.
         23    2    1    2    0    0  0.11497491754E+03  0.81979921113E+03  0.27625191971E+03  0.87709175663E+03  0.87663265841E+02 0.  0.
        254    2    1    2    0    0 -0.11497491754E+03 -0.81979921113E+03 -0.19095474147E+04  0.22661339755E+04  0.89649422060E+03 0.  0.
         23    2    4    4    0    0 -0.19755439824E+03  0.12164629797E+03 -0.24208091720E+03  0.34768534318E+03  0.91958497797E+02 0.  0.
         23    2    4    4    0    0  0.82579480701E+02 -0.94144550910E+03 -0.16674664975E+04  0.19184486323E+04  0.82834879206E+02 0.  0.
          4    1    3    3  502    0  0.51312065384E+02  0.50574061691E+03  0.12910321773E+03  0.52447510949E+03  0.00000000000E+00 0. -1.
         -4    1    3    3    0  502  0.63662852153E+02  0.31405859421E+03  0.14714870198E+03  0.35261664714E+03  0.00000000000E+00 0.  1.
         13    1    5    5    0    0 -0.10074598610E+02  0.47885135095E+01 -0.61074160684E+02  0.62084462646E+02  0.00000000000E+00 0. -1.
        -13    1    5    5    0    0 -0.18747979963E+03  0.11685778446E+03 -0.18100675652E+03  0.28560088054E+03  0.00000000000E+00 0.  1.
          3    1    6    6  503    0  0.70694834026E+02 -0.42394623098E+03 -0.70767242088E+03  0.82796643748E+03  0.00000000000E+00 0. -1.
         -3    1    6    6    0  503  0.11884646675E+02 -0.51749927812E+03 -0.95979407664E+03  0.10904821948E+04  0.00000000000E+00 0.  1.
<mgrwt>
<rscale>  0 0.26855565E+04</rscale>
<asrwt>0</asrwt>
<pdfrwt beam="1">  1        1 0.11614848E+00 0.26855565E+04</pdfrwt>
<pdfrwt beam="2">  1       -1 0.36742470E+00 0.26855565E+04</pdfrwt>
<totfact> 0.25195480E-01</totfact>
</mgrwt>
</event>
<event>
12    3  0.4192740E-008  0.1544404E+04  0.7818608E-02  0.8855450E-01
          1   -1    0    0  501    0  0.00000000000E+00  0.00000000000E+00  0.76215242964E+03  0.76215242964E+03  0.00000000000E+00 0. -1.
         -1   -1    0    0    0  501 -0.00000000000E+00 -0.00000000000E+00 -0.78238392784E+03  0.78238392784E+03  0.00000000000E+00 0.  1.
         23    2    1    2    0    0  0.22871667843E+03 -0.39803998427E+03  0.20835232761E+03  0.51377653773E+03  0.99037822225E+02 0.  0.
        254    2    1    2    0    0 -0.22871667843E+03  0.39803998427E+03 -0.22858382582E+03  0.10307598197E+04  0.89412979623E+03 0.  0.
         23    2    4    4    0    0  0.27194559060E+03  0.18431786339E+03  0.13847897896E+03  0.36801775823E+03  0.91286164070E+02 0.  0.
         23    2    4    4    0    0 -0.50066226903E+03  0.21372212088E+03 -0.36706280478E+03  0.66274206151E+03  0.90288896704E+02 0.  0.
          3    1    3    3  502    0  0.21544149511E+03 -0.29365431850E+03  0.15537024859E+03  0.39596440589E+03  0.00000000000E+00 0. -1.
         -3    1    3    3    0  502  0.13275183326E+02 -0.10438566578E+03  0.52982079025E+02  0.11781213184E+03  0.00000000000E+00 0.  1.
         13    1    5    5    0    0  0.26393444690E+03  0.18074736173E+03  0.11009160568E+03  0.33830631486E+03  0.00000000000E+00 0. -1.
        -13    1    5    5    0    0  0.80111436981E+01  0.35705016575E+01  0.28387373282E+02  0.29711443372E+02  0.00000000000E+00 0.  1.
          3    1    6    6  503    0 -0.47034239601E+03  0.19065323293E+03 -0.31187661047E+03  0.59568250341E+03  0.00000000000E+00 0. -1.
         -3    1    6    6    0  503 -0.30319873016E+02  0.23068887953E+02 -0.55186194303E+02  0.67059558101E+02  0.00000000000E+00 0.  1.
<mgrwt>
<rscale>  0 0.15444038E+04</rscale>
<asrwt>0</asrwt>
<pdfrwt beam="1">  1        1 0.11725422E+00 0.15444038E+04</pdfrwt>
<pdfrwt beam="2">  1       -1 0.12036676E+00 0.15444038E+04</pdfrwt>
<totfact> 0.14149015E+01</totfact>
</mgrwt>
</event>
<event>
12    3  0.4192740E-008  0.1138795E+04  0.7818608E-02  0.9168183E-01
          2   -1    0    0  501    0  0.00000000000E+00  0.00000000000E+00  0.10784448330E+04  0.10784448330E+04  0.00000000000E+00 0. -1.
         -2   -1    0    0    0  501 -0.00000000000E+00 -0.00000000000E+00 -0.30063084791E+03  0.30063084791E+03  0.00000000000E+00 0.  1.
         23    2    1    2    0    0 -0.43623979267E+02 -0.64329525539E+02 -0.62949636783E+02  0.13853362608E+03  0.95851809377E+02 0.  0.
        254    2    1    2    0    0  0.43623979267E+02  0.64329525539E+02  0.84076362191E+03  0.12405420549E+04  0.90885630468E+03 0.  0.
         23    2    4    4    0    0  0.44398706967E+03  0.17583352590E+03  0.46661665512E+03  0.67389568455E+03  0.91445852553E+02 0.  0.
         23    2    4    4    0    0 -0.40036309040E+03 -0.11150400036E+03  0.37414696678E+03  0.56664637032E+03  0.91533654963E+02 0.  0.
          4    1    3    3  502    0  0.24409754232E+02 -0.15368309505E+02  0.66304763141E+01  0.29597031183E+02  0.00000000000E+00 0. -1.
         -4    1    3    3    0  502 -0.68033733499E+02 -0.48961216034E+02 -0.69580113097E+02  0.10893659490E+03  0.00000000000E+00 0.  1.
         13    1    5    5    0    0  0.37523589900E+03  0.14429668137E+03  0.43380106271E+03  0.59144473466E+03  0.00000000000E+00 0. -1.
        -13    1    5    5    0    0  0.68751170674E+02  0.31536844531E+02  0.32815592416E+02  0.82450949889E+02  0.00000000000E+00 0.  1.
          3    1    6    6  503    0 -0.39216564955E+03 -0.11903988305E+03  0.37496071068E+03  0.55548170537E+03  0.00000000000E+00 0. -1.
         -3    1    6    6    0  503 -0.81974408524E+01  0.75358826827E+01 -0.81374390201E+00  0.11164664951E+02  0.00000000000E+00 0.  1.
<mgrwt>
<rscale>  0 0.11387955E+04</rscale>
<asrwt>0</asrwt>
<pdfrwt beam="1">  1        2 0.16591459E+00 0.11387955E+04</pdfrwt>
<pdfrwt beam="2">  1       -2 0.46250900E-01 0.11387955E+04</pdfrwt>
<totfact> 0.98601432E+01</totfact>
</mgrwt>
</event>
<event>
12    3  0.4192740E-008  0.1413349E+04  0.7818608E-02  0.8944212E-01
         -1   -1    0    0    0  501 -0.00000000000E+00  0.00000000000E+00  0.13149832446E+04  0.13149832446E+04  0.00000000000E+00 0.  1.
          1   -1    0    0  501    0  0.00000000000E+00 -0.00000000000E+00 -0.37976818788E+03  0.37976818788E+03  0.00000000000E+00 0. -1.
         23    2    1    2    0    0 -0.40042081661E+03  0.94113709088E+02  0.36143665509E+03  0.55402130393E+03  0.84314464687E+02 0.  0.
        254    2    1    2    0    0  0.40042081661E+03 -0.94113709088E+02  0.57377840163E+03  0.11407301285E+04  0.89601861107E+03 0.  0.
         23    2    4    4    0    0 -0.50003369109E+02 -0.11307295599E+03 -0.19231762636E+03  0.24707171356E+03  0.93661795495E+02 0.  0.
         23    2    4    4    0    0  0.45042418572E+03  0.18959246904E+02  0.76609602799E+03  0.89365841499E+03  0.92091467871E+02 0.  0.
          4    1    3    3  502    0 -0.84254139385E+02 -0.14300511554E+02  0.80361532163E+02  0.11730831380E+03  0.00000000000E+00 0. -1.
         -4    1    3    3    0  502 -0.31616667723E+03  0.10841422064E+03  0.28107512292E+03  0.43671299014E+03  0.00000000000E+00 0.  1.
         13    1    5    5    0    0  0.15908005922E+01 -0.61911202458E+02 -0.15164190685E+03  0.16380108531E+03  0.00000000000E+00 0. -1.
        -13    1    5    5    0    0 -0.51594169701E+02 -0.51161753534E+02 -0.40675719511E+02  0.83270628253E+02  0.00000000000E+00 0.  1.
          2    1    6    6  503    0  0.43821024965E+03  0.34680645161E+02  0.74161509771E+03  0.86210435748E+03  0.00000000000E+00 0. -1.
         -2    1    6    6    0  503  0.12213936074E+02 -0.15721398257E+02  0.24480930278E+02  0.31554057502E+02  0.00000000000E+00 0.  1.
<mgrwt>
<rscale>  0 0.14133489E+04</rscale>
<asrwt>0</asrwt>
<pdfrwt beam="1">  1        1 0.58425876E-01 0.14133489E+04</pdfrwt>
<pdfrwt beam="2">  1       -1 0.20230511E+00 0.14133489E+04</pdfrwt>
<totfact> 0.90854325E+00</totfact>
</mgrwt>
</event>
<event>
12    3  0.4192740E-008  0.2829284E+04  0.7818608E-02  0.8294234E-01
          2   -1    0    0  501    0  0.00000000000E+00  0.00000000000E+00  0.21078405278E+04  0.21078405278E+04  0.00000000000E+00 0.  1.
         -2   -1    0    0    0  501 -0.00000000000E+00 -0.00000000000E+00 -0.94941333642E+03  0.94941333642E+03  0.00000000000E+00 0. -1.
         23    2    1    2    0    0 -0.79491148587E+03  0.39461430099E+03 -0.45798420779E+03  0.10028707802E+04  0.91627235445E+02 0.  0.
        254    2    1    2    0    0  0.79491148587E+03 -0.39461430099E+03  0.16164113991E+04  0.20543830840E+04  0.90559335664E+03 0.  0.
         23    2    4    4    0    0  0.93437775067E+03 -0.20072225612E+03  0.14781234539E+04  0.17628141250E+04  0.96506420038E+02 0.  0.
         23    2    4    4    0    0 -0.13946626480E+03 -0.19389204487E+03  0.13828794520E+03  0.29156895900E+03  0.94042213857E+02 0.  0.
          4    1    3    3  502    0 -0.58910009495E+03  0.25152387611E+03 -0.35001902713E+03  0.72994280699E+03  0.00000000000E+00 0. -1.
         -4    1    3    3    0  502 -0.20581139091E+03  0.14309042487E+03 -0.10796518066E+03  0.27292797320E+03  0.00000000000E+00 0.  1.
         13    1    5    5    0    0  0.85103912536E+03 -0.20167646302E+03  0.13829720390E+04  0.16363229050E+04  0.00000000000E+00 0.  1.
        -13    1    5    5    0    0  0.83338625305E+02  0.95420690121E+00  0.95151414947E+02  0.12649122003E+03  0.00000000000E+00 0. -1.
          4    1    6    6  503    0 -0.66776122801E+02 -0.56819501457E+02  0.97537437245E+02  0.13115280396E+03  0.00000000000E+00 0.  1.
         -4    1    6    6    0  503 -0.72690141999E+02 -0.13707254341E+03  0.40750507954E+02  0.16041615504E+03  0.00000000000E+00 0. -1.
<mgrwt>
<rscale>  0 0.28292839E+04</rscale>
<asrwt>0</asrwt>
<pdfrwt beam="1">  1        2 0.32428316E+00 0.28292839E+04</pdfrwt>
<pdfrwt beam="2">  1       -2 0.14606359E+00 0.28292839E+04</pdfrwt>
<totfact> 0.16231055E+00</totfact>
</mgrwt>
</event>
<event>
12    3  0.4192740E-008  0.2219970E+04  0.7818608E-02  0.8510162E-01
         -1   -1    0    0    0  501 -0.00000000000E+00  0.00000000000E+00  0.11476041894E+04  0.11476041894E+04  0.00000000000E+00 0.  1.
          1   -1    0    0  501    0  0.00000000000E+00 -0.00000000000E+00 -0.10735993755E+04  0.10735993755E+04  0.00000000000E+00 0. -1.
         23    2    1    2    0    0 -0.24012105930E+03  0.50391767955E+03 -0.70208677969E+03  0.90160027042E+03  0.91466116748E+02 0.  0.
        254    2    1    2    0    0  0.24012105930E+03 -0.50391767955E+03  0.77609159362E+03  0.13196032945E+04  0.90963923744E+03 0.  0.
         23    2    4    4    0    0  0.44950010829E+01 -0.24255466283E+03 -0.16797808552E+03  0.30888426581E+03  0.91322959620E+02 0.  0.
         23    2    4    4    0    0  0.23562605822E+03 -0.26136301672E+03  0.94406967915E+03  0.10107190287E+04  0.80343823971E+02 0.  0.
          4    1    3    3  502    0 -0.15326396985E+03  0.38961735483E+03 -0.47755767220E+03  0.63510066754E+03  0.00000000000E+00 0. -1.
         -4    1    3    3    0  502 -0.86857089453E+02  0.11430032472E+03 -0.22452910749E+03  0.26649960287E+03  0.00000000000E+00 0.  1.
         13    1    5    5    0    0 -0.36730796989E+02 -0.13870520936E+03 -0.12093096443E+03  0.18765016576E+03  0.00000000000E+00 0. -1.
        -13    1    5    5    0    0  0.41225798072E+02 -0.10384945347E+03 -0.47047121099E+02  0.12123410005E+03  0.00000000000E+00 0.  1.
          3    1    6    6  503    0  0.19196722885E+03 -0.23389397710E+03  0.86419592759E+03  0.91563770714E+03  0.00000000000E+00 0. -1.
         -3    1    6    6    0  503  0.43658829371E+02 -0.27469039625E+02  0.79873751558E+02  0.95081321552E+02  0.00000000000E+00 0.  1.
<mgrwt>
<rscale>  0 0.22199704E+04</rscale>
<asrwt>0</asrwt>
<pdfrwt beam="1">  1        1 0.16516913E+00 0.22199704E+04</pdfrwt>
<pdfrwt beam="2">  1       -1 0.17655449E+00 0.22199704E+04</pdfrwt>
<totfact> 0.26630057E+00</totfact>
</mgrwt>
</event>
<event>
12    3  0.4192740E-008  0.1920206E+04  0.7818608E-02  0.8644863E-01
          2   -1    0    0  501    0  0.00000000000E+00  0.00000000000E+00  0.79374742402E+03  0.79374742402E+03  0.00000000000E+00 0.  1.
         -2   -1    0    0    0  501 -0.00000000000E+00 -0.00000000000E+00 -0.11613243789E+04  0.11613243789E+04  0.00000000000E+00 0. -1.
         23    2    1    2    0    0  0.31784840513E+02  0.21812592465E+03 -0.86987908890E+03  0.90192163969E+03  0.90464466774E+02 0.  0.
        254    2    1    2    0    0 -0.31784840513E+02 -0.21812592465E+03  0.50230213400E+03  0.10531501633E+04  0.89901537109E+03 0.  0.
         23    2    4    4    0    0 -0.25296689841E+03 -0.49277891289E+03  0.28312775511E+03  0.62850758600E+03  0.89650160436E+02 0.  0.
         23    2    4    4    0    0  0.22118205789E+03  0.27465298824E+03  0.21917437888E+03  0.42464257726E+03  0.89040122302E+02 0.  0.
          1    1    3    3  502    0  0.10997697459E+02  0.85271160565E+02 -0.52058739451E+03  0.52763941807E+03  0.00000000000E+00 0. -1.
         -1    1    3    3    0  502  0.20787143054E+02  0.13285476408E+03 -0.34929169439E+03  0.37428222162E+03  0.00000000000E+00 0.  1.
         13    1    5    5    0    0 -0.16785573116E+03 -0.39280025909E+03  0.24183160558E+03  0.49086669828E+03  0.00000000000E+00 0.  1.
        -13    1    5    5    0    0 -0.85111167247E+02 -0.99978653794E+02  0.41296149535E+02  0.13764088771E+03  0.00000000000E+00 0. -1.
          1    1    6    6  503    0  0.17222690154E+03  0.17328992712E+03  0.18669629364E+03  0.30748497608E+03  0.00000000000E+00 0. -1.
         -1    1    6    6    0  503  0.48955156353E+02  0.10136306112E+03  0.32478085241E+02  0.11715760118E+03  0.00000000000E+00 0.  1.
<mgrwt>
<rscale>  0 0.19202065E+04</rscale>
<asrwt>0</asrwt>
<pdfrwt beam="1">  1        2 0.12211499E+00 0.19202065E+04</pdfrwt>
<pdfrwt beam="2">  1       -2 0.17866529E+00 0.19202065E+04</pdfrwt>
<totfact> 0.60255070E+00</totfact>
</mgrwt>
</event>
<event>
12    3  0.4192740E-008  0.1826768E+04  0.7818608E-02  0.8692192E-01
          2   -1    0    0  501    0  0.00000000000E+00  0.00000000000E+00  0.19665661953E+04  0.19665661953E+04  0.00000000000E+00 0. -1.
         -2   -1    0    0    0  501 -0.00000000000E+00 -0.00000000000E+00 -0.42422714389E+03  0.42422714389E+03  0.00000000000E+00 0.  1.
         23    2    1    2    0    0 -0.41411760374E+03 -0.30717456902E+03  0.11786575311E+04  0.12897444852E+04  0.91420215722E+02 0.  0.
        254    2    1    2    0    0  0.41411760374E+03  0.30717456902E+03  0.36368152028E+03  0.11010488540E+04  0.90232739352E+03 0.  0.
         23    2    4    4    0    0  0.17785545557E+03  0.38043689577E+03 -0.20385809005E+03  0.47505600337E+03  0.88064128430E+02 0.  0.
         23    2    4    4    0    0  0.23626214817E+03 -0.73262326752E+02  0.56753961033E+03  0.62599285062E+03  0.92621102081E+02 0.  0.
          2    1    3    3  502    0 -0.40333530695E+03 -0.29341495353E+03  0.11658898888E+04  0.12680973692E+04  0.00000000000E+00 0. -1.
         -2    1    3    3    0  502 -0.10782296787E+02 -0.13759615494E+02  0.12767642252E+02  0.21647116002E+02  0.00000000000E+00 0.  1.
         13    1    5    5    0    0  0.14003923446E+03  0.19659344305E+03 -0.11195721528E+03  0.26607214640E+03  0.00000000000E+00 0.  1.
        -13    1    5    5    0    0  0.37816221108E+02  0.18384345273E+03 -0.91900874769E+02  0.20898385697E+03  0.00000000000E+00 0. -1.
          1    1    6    6  503    0  0.17010893187E+00  0.11399588974E+02  0.44332361632E+02  0.45774860499E+02  0.00000000000E+00 0. -1.
         -1    1    6    6    0  503  0.23609203924E+03 -0.84661915727E+02  0.52320724870E+03  0.58021799012E+03  0.00000000000E+00 0.  1.
<mgrwt>
<rscale>  0 0.18267685E+04</rscale>
<asrwt>0</asrwt>
<pdfrwt beam="1">  1        2 0.30254864E+00 0.18267685E+04</pdfrwt>
<pdfrwt beam="2">  1       -2 0.65265716E-01 0.18267685E+04</pdfrwt>
<totfact> 0.14215936E+01</totfact>
</mgrwt>
</event>
<event>
12    3  0.4192740E-008  0.1195306E+04  0.7818608E-02  0.9116976E-01
          2   -1    0    0  501    0  0.00000000000E+00  0.00000000000E+00  0.18805489692E+04  0.18805489692E+04  0.00000000000E+00 0. -1.
         -2   -1    0    0    0  501 -0.00000000000E+00 -0.00000000000E+00 -0.18993860501E+03  0.18993860501E+03  0.00000000000E+00 0.  1.
         23    2    1    2    0    0 -0.30149391105E+01 -0.18473276581E+03  0.93384639600E+02  0.22689667216E+03  0.92876930951E+02 0.  0.
        254    2    1    2    0    0  0.30149391105E+01  0.18473276581E+03  0.15972257246E+04  0.18435909020E+04  0.90197678141E+03 0.  0.
         23    2    4    4    0    0 -0.70967971484E+02  0.35947599820E+03  0.19328052897E+03  0.42407119013E+03  0.90661817549E+02 0.  0.
         23    2    4    4    0    0  0.73982910594E+02 -0.17474323239E+03  0.14039451956E+04  0.14195197119E+04  0.89249268351E+02 0.  0.
          3    1    3    3  502    0 -0.21338337310E+02 -0.14528423777E+02  0.39947040282E+02  0.47562230435E+02  0.00000000000E+00 0. -1.
         -3    1    3    3    0  502  0.18323398200E+02 -0.17020434203E+03  0.53437599317E+02  0.17933444172E+03  0.00000000000E+00 0.  1.
         13    1    5    5    0    0 -0.44377470886E+02  0.18924933016E+03  0.51885447582E+02  0.20118839072E+03  0.00000000000E+00 0.  1.
        -13    1    5    5    0    0 -0.26590500597E+02  0.17022666804E+03  0.14139508139E+03  0.22288279941E+03  0.00000000000E+00 0. -1.
          2    1    6    6  503    0  0.65913801520E+02 -0.52183186201E+02  0.46026645881E+03  0.46788131749E+03  0.00000000000E+00 0. -1.
         -2    1    6    6    0  503  0.80691090742E+01 -0.12256004619E+03  0.94367873680E+03  0.95163839442E+03  0.00000000000E+00 0.  1.
<mgrwt>
<rscale>  0 0.11953056E+04</rscale>
<asrwt>0</asrwt>
<pdfrwt beam="1">  1        2 0.28931521E+00 0.11953056E+04</pdfrwt>
<pdfrwt beam="2">  1       -2 0.29221325E-01 0.11953056E+04</pdfrwt>
<totfact> 0.82805725E+01</totfact>
</mgrwt>
</event>
<event>
12    3  0.4192740E-008  0.1528675E+04  0.7818608E-02  0.8865605E-01
          2   -1    0    0  501    0  0.00000000000E+00  0.00000000000E+00  0.90707605913E+03  0.90707605913E+03  0.00000000000E+00 0. -1.
         -2   -1    0    0    0  501 -0.00000000000E+00 -0.00000000000E+00 -0.64406008615E+03  0.64406008615E+03  0.00000000000E+00 0.  1.
         23    2    1    2    0    0  0.19618162935E+03  0.33724737068E+03  0.37391533862E+03  0.54818876736E+03  0.92060976983E+02 0.  0.
        254    2    1    2    0    0 -0.19618162935E+03 -0.33724737068E+03 -0.11089936564E+03  0.10029473779E+04  0.91726863724E+03 0.  0.
         23    2    4    4    0    0 -0.12819486071E+03  0.23215738825E+03  0.19978354697E+03  0.34402632388E+03  0.90053709836E+02 0.  0.
         23    2    4    4    0    0 -0.67986768632E+02 -0.56940475893E+03 -0.31068291260E+03  0.65892105404E+03  0.93856822195E+02 0.  0.
          4    1    3    3  502    0  0.16237946333E+03  0.20262977423E+03  0.21437387598E+03  0.33672254784E+03  0.00000000000E+00 0.  1.
         -4    1    3    3    0  502  0.33802166016E+02  0.13461759644E+03  0.15954146263E+03  0.21146621952E+03  0.00000000000E+00 0. -1.
         13    1    5    5    0    0 -0.63069159091E+02  0.97810996345E+02  0.34701380178E+02  0.12144503127E+03  0.00000000000E+00 0.  1.
        -13    1    5    5    0    0 -0.65125701622E+02  0.13434639190E+03  0.16508216679E+03  0.22258129261E+03  0.00000000000E+00 0. -1.
          3    1    6    6  503    0 -0.17542009671E+02 -0.42521902328E+03 -0.25616400302E+03  0.49672823184E+03  0.00000000000E+00 0. -1.
         -3    1    6    6    0  503 -0.50444758960E+02 -0.14418573565E+03 -0.54518909583E+02  0.16219282220E+03  0.00000000000E+00 0.  1.
<mgrwt>
<rscale>  0 0.15286746E+04</rscale>
<asrwt>0</asrwt>
<pdfrwt beam="1">  1        2 0.13955016E+00 0.15286746E+04</pdfrwt>
<pdfrwt beam="2">  1       -2 0.99086167E-01 0.15286746E+04</pdfrwt>
<totfact> 0.23607221E+01</totfact>
</mgrwt>
</event>
<event>
12    3  0.4192740E-008  0.1472271E+04  0.7818608E-02  0.8903105E-01
         -2   -1    0    0    0  501 -0.00000000000E+00  0.00000000000E+00  0.25810082560E+03  0.25810082560E+03  0.00000000000E+00 0.  1.
          2   -1    0    0  501    0  0.00000000000E+00 -0.00000000000E+00 -0.20995500658E+04  0.20995500658E+04  0.00000000000E+00 0. -1.
         23    2    1    2    0    0  0.92928325398E+02 -0.22010544301E+03  0.37131523160E+02  0.25814183027E+03  0.90423309038E+02 0.  0.
        254    2    1    2    0    0 -0.92928325398E+02  0.22010544301E+03 -0.18785807634E+04  0.20995090612E+04  0.90652663151E+03 0.  0.
         23    2    4    4    0    0 -0.17438986670E+03  0.43112669779E+03 -0.46075103538E+03  0.66104665183E+03  0.91701167577E+02 0.  0.
         23    2    4    4    0    0  0.81461541300E+02 -0.21102125478E+03 -0.14178297280E+04  0.14384624094E+04  0.88130657275E+02 0.  0.
          1    1    3    3  502    0  0.49212275904E+02 -0.19269697503E+03  0.83438733358E+01  0.19905675700E+03  0.00000000000E+00 0. -1.
         -1    1    3    3    0  502  0.43716049495E+02 -0.27408467979E+02  0.28787649824E+02  0.59085073266E+02  0.00000000000E+00 0.  1.
         13    1    5    5    0    0 -0.26488939196E+02  0.10337017529E+03 -0.59217735467E+02  0.12204014599E+03  0.00000000000E+00 0.  1.
        -13    1    5    5    0    0 -0.14790092750E+03  0.32775652250E+03 -0.40153329991E+03  0.53900650584E+03  0.00000000000E+00 0. -1.
          1    1    6    6  503    0  0.68921446870E+02 -0.81278333217E+02 -0.48498648165E+03  0.49655636203E+03  0.00000000000E+00 0. -1.
         -1    1    6    6    0  503  0.12540094430E+02 -0.12974292157E+03 -0.93284324638E+03  0.94190604733E+03  0.00000000000E+00 0.  1.
<mgrwt>
<rscale>  0 0.14722712E+04</rscale>
<asrwt>0</asrwt>
<pdfrwt beam="1">  1        2 0.32300769E+00 0.14722712E+04</pdfrwt>
<pdfrwt beam="2">  1       -2 0.39707821E-01 0.14722712E+04</pdfrwt>
<totfact> 0.34179053E+01</totfact>
</mgrwt>
</event>
<event>
12    3  0.4192740E-008  0.1315737E+04  0.7818608E-02  0.9017178E-01
          2   -1    0    0  501    0  0.00000000000E+00  0.00000000000E+00  0.11200418258E+04  0.11200418258E+04  0.00000000000E+00 0. -1.
         -2   -1    0    0    0  501 -0.00000000000E+00 -0.00000000000E+00 -0.38640604817E+03  0.38640604817E+03  0.00000000000E+00 0.  1.
         23    2    1    2    0    0  0.72240280367E+02 -0.32156567717E+03  0.21238693235E+03  0.40252353557E+03  0.91070548573E+02 0.  0.
        254    2    1    2    0    0 -0.72240280367E+02  0.32156567717E+03  0.52124884532E+03  0.11039243384E+04  0.91560113773E+03 0.  0.
         23    2    4    4    0    0  0.30366889534E+03  0.48878183363E+02 -0.87440104100E+02  0.33316069057E+03  0.93522185221E+02 0.  0.
         23    2    4    4    0    0 -0.37590917571E+03  0.27268749380E+03  0.60868894942E+03  0.77076364787E+03  0.88927982503E+02 0.  0.
          1    1    3    3  502    0  0.51872187572E+02 -0.26615110146E+03  0.21080750365E+03  0.34346315123E+03  0.00000000000E+00 0. -1.
         -1    1    3    3    0  502  0.20368092795E+02 -0.55414575703E+02  0.15794287025E+01  0.59060384349E+02  0.00000000000E+00 0.  1.
         13    1    5    5    0    0  0.30710568277E+03  0.37760644310E+02 -0.87395069427E+02  0.32152397237E+03  0.00000000000E+00 0. -1.
        -13    1    5    5    0    0 -0.34367874249E+01  0.11117539053E+02 -0.45034673842E-01  0.11636718203E+02  0.00000000000E+00 0.  1.
          3    1    6    6  503    0 -0.27956016459E+03  0.15701464451E+03  0.38336506197E+03  0.49977620487E+03  0.00000000000E+00 0. -1.
         -3    1    6    6    0  503 -0.96349011118E+02  0.11567284929E+03  0.22532388745E+03  0.27098744299E+03  0.00000000000E+00 0.  1.
<mgrwt>
<rscale>  0 0.13157370E+04</rscale>
<asrwt>0</asrwt>
<pdfrwt beam="1">  1        2 0.17231413E+00 0.13157370E+04</pdfrwt>
<pdfrwt beam="2">  1       -2 0.59447085E-01 0.13157370E+04</pdfrwt>
<totfact> 0.54761653E+01</totfact>
</mgrwt>
</event>
<event>
12    3  0.4192740E-008  0.1012213E+04  0.7818608E-02  0.9295251E-01
         -1   -1    0    0    0  501 -0.00000000000E+00  0.00000000000E+00  0.38259242507E+03  0.38259242507E+03  0.00000000000E+00 0.  1.
          1   -1    0    0  501    0  0.00000000000E+00 -0.00000000000E+00 -0.66949486144E+03  0.66949486144E+03  0.00000000000E+00 0. -1.
         23    2    1    2    0    0 -0.37750398859E+02 -0.21450556192E+01 -0.11765161892E+03  0.14991528966E+03  0.84870470494E+02 0.  0.
        254    2    1    2    0    0  0.37750398859E+02  0.21450556192E+01 -0.16925081744E+03  0.90217199685E+03  0.88534669978E+03 0.  0.
         23    2    4    4    0    0 -0.12620922108E+03 -0.15275576002E+03  0.30222500063E+03  0.37271598404E+03  0.91182037969E+02 0.  0.
         23    2    4    4    0    0  0.16395961994E+03  0.15490081564E+03 -0.47147581808E+03  0.52945601280E+03  0.84600252990E+02 0.  0.
          1    1    3    3  502    0  0.86250336279E+01  0.24442113473E+02 -0.81141905630E+02  0.85181083378E+02  0.00000000000E+00 0. -1.
         -1    1    3    3    0  502 -0.46375432487E+02 -0.26587169092E+02 -0.36509713294E+02  0.64734206286E+02  0.00000000000E+00 0.  1.
         13    1    5    5    0    0 -0.81646918863E+02 -0.15217282204E+03  0.22612129125E+03  0.28452350603E+03  0.00000000000E+00 0. -1.
        -13    1    5    5    0    0 -0.44562302220E+02 -0.58293797531E+00  0.76103709381E+02  0.88192478009E+02  0.00000000000E+00 0.  1.
          1    1    6    6  503    0  0.15095118332E+03  0.12232320383E+03 -0.44481263161E+03  0.48539417300E+03  0.00000000000E+00 0. -1.
         -1    1    6    6    0  503  0.13008436623E+02  0.32577611808E+02 -0.26663186466E+02  0.44061839805E+02  0.00000000000E+00 0.  1.
<mgrwt>
<rscale>  0 0.10122127E+04</rscale>
<asrwt>0</asrwt>
<pdfrwt beam="1">  1        1 0.10299921E+00 0.10122127E+04</pdfrwt>
<pdfrwt beam="2">  1       -1 0.58860374E-01 0.10122127E+04</pdfrwt>
<totfact> 0.85424942E+01</totfact>
</mgrwt>
</event>
<event>
12    3  0.4192740E-008  0.1355211E+04  0.7818608E-02  0.8986893E-01
          2   -1    0    0  501    0  0.00000000000E+00  0.00000000000E+00  0.13802966448E+04  0.13802966448E+04  0.00000000000E+00 0.  1.
         -2   -1    0    0    0  501 -0.00000000000E+00 -0.00000000000E+00 -0.33264510591E+03  0.33264510591E+03  0.00000000000E+00 0. -1.
         23    2    1    2    0    0  0.24335231414E+03  0.35129176744E+02 -0.58973084653E+02  0.26901257992E+03  0.91845171820E+02 0.  0.
        254    2    1    2    0    0 -0.24335231414E+03 -0.35129176744E+02  0.11066246236E+04  0.14439291708E+04  0.89434835775E+03 0.  0.
         23    2    4    4    0    0 -0.40171566877E+03 -0.78386494612E+02  0.11597792626E+03  0.43468249263E+03  0.89320036678E+02 0.  0.
         23    2    4    4    0    0  0.15836335463E+03  0.43257317868E+02  0.99064669729E+03  0.10092466782E+04  0.10123157068E+03 0.  0.
          2    1    3    3  502    0  0.19220340343E+03 -0.10280362958E+02 -0.56381048030E+02  0.20056584138E+03  0.00000000000E+00 0. -1.
         -2    1    3    3    0  502  0.51148910709E+02  0.45409539702E+02 -0.25920366230E+01  0.68446738538E+02  0.00000000000E+00 0.  1.
         13    1    5    5    0    0 -0.29635308584E+03 -0.65805417954E+02  0.12476114102E+03  0.32820854167E+03  0.00000000000E+00 0. -1.
        -13    1    5    5    0    0 -0.10536258293E+03 -0.12581076658E+02 -0.87832147657E+01  0.10647395096E+03  0.00000000000E+00 0.  1.
          4    1    6    6  503    0  0.56588570901E+02  0.33114591451E+02  0.16923769568E+03  0.18149446317E+03  0.00000000000E+00 0. -1.
         -4    1    6    6    0  503  0.10177478373E+03  0.10142726417E+02  0.82140900162E+03  0.82775221500E+03  0.00000000000E+00 0.  1.
<mgrwt>
<rscale>  0 0.13552106E+04</rscale>
<asrwt>0</asrwt>
<pdfrwt beam="1">  1        2 0.21235333E+00 0.13552106E+04</pdfrwt>
<pdfrwt beam="2">  1       -2 0.51176171E-01 0.13552106E+04</pdfrwt>
<totfact> 0.52315812E+01</totfact>
</mgrwt>
</event>
<event>
12    3  0.4192740E-008  0.2299853E+04  0.7818608E-02  0.8477979E-01
         -1   -1    0    0    0  501 -0.00000000000E+00  0.00000000000E+00  0.62167945778E+03  0.62167945778E+03  0.00000000000E+00 0.  1.
          1   -1    0    0  501    0  0.00000000000E+00 -0.00000000000E+00 -0.21270305573E+04  0.21270305573E+04  0.00000000000E+00 0. -1.
         23    2    1    2    0    0  0.96302498314E+03  0.13881745611E+03 -0.66280000807E+03  0.11806252835E+04  0.88796424839E+02 0.  0.
        254    2    1    2    0    0 -0.96302498314E+03 -0.13881745611E+03 -0.84255109149E+03  0.15680847316E+04  0.89571757800E+03 0.  0.
         23    2    4    4    0    0 -0.68452220996E+03 -0.50239835208E+03 -0.50714364801E+03  0.99328227188E+03  0.91870734283E+02 0.  0.
         23    2    4    4    0    0 -0.27850277318E+03  0.36358089597E+03 -0.33540744348E+03  0.57480245975E+03  0.90248833850E+02 0.  0.
          3    1    3    3  502    0  0.87356047912E+03  0.12551111321E+03 -0.56755234381E+03  0.10492743269E+04  0.00000000000E+00 0. -1.
         -3    1    3    3    0  502  0.89464504025E+02  0.13306342894E+02 -0.95247664257E+02  0.13135095656E+03  0.00000000000E+00 0.  1.
         13    1    5    5    0    0 -0.49844060665E+03 -0.36054074571E+03 -0.41364510317E+03  0.74130623837E+03  0.00000000000E+00 0. -1.
        -13    1    5    5    0    0 -0.18608160331E+03 -0.14185760636E+03 -0.93498544835E+02  0.25197603350E+03  0.00000000000E+00 0.  1.
          4    1    6    6  503    0 -0.14054956014E+03  0.24397779484E+03 -0.23294827830E+03  0.36543705832E+03  0.00000000000E+00 0. -1.
         -4    1    6    6    0  503 -0.13795321304E+03  0.11960310113E+03 -0.10245916519E+03  0.20936540143E+03  0.00000000000E+00 0.  1.
<mgrwt>
<rscale>  0 0.22998532E+04</rscale>
<asrwt>0</asrwt>
<pdfrwt beam="1">  1        1 0.32723547E+00 0.22998532E+04</pdfrwt>
<pdfrwt beam="2">  1       -1 0.95642994E-01 0.22998532E+04</pdfrwt>
<totfact> 0.23281527E+00</totfact>
</mgrwt>
</event>
<event>
12    3  0.4192740E-008  0.1121062E+04  0.7818608E-02  0.9184903E-01
         -2   -1    0    0    0  501 -0.00000000000E+00  0.00000000000E+00  0.12485882487E+03  0.12485882487E+03  0.00000000000E+00 0.  1.
          2   -1    0    0  501    0  0.00000000000E+00 -0.00000000000E+00 -0.25164039817E+04  0.25164039817E+04  0.00000000000E+00 0. -1.
         23    2    1    2    0    0 -0.11580031421E+02  0.14929557257E+03 -0.18825702789E+03  0.25676390650E+03  0.89798274001E+02 0.  0.
        254    2    1    2    0    0  0.11580031421E+02 -0.14929557257E+03 -0.22032881290E+04  0.23844989001E+04  0.89940711594E+03 0.  0.
         23    2    4    4    0    0 -0.22170553130E+03  0.16761718083E+03 -0.17634497542E+04  0.17875530974E+04  0.91335528106E+02 0.  0.
         23    2    4    4    0    0  0.23328556272E+03 -0.31691275340E+03 -0.43983837480E+03  0.59694580268E+03  0.89613884779E+02 0.  0.
          2    1    3    3  502    0  0.13414183882E+02  0.83223513641E+02 -0.15967184010E+03  0.18055799642E+03  0.00000000000E+00 0. -1.
         -2    1    3    3    0  502 -0.24994215303E+02  0.66072058930E+02 -0.28585187799E+02  0.76205910082E+02  0.00000000000E+00 0.  1.
         13    1    5    5    0    0 -0.18065028550E+03  0.15013281097E+03 -0.16300645027E+04  0.16469015361E+04  0.00000000000E+00 0.  1.
        -13    1    5    5    0    0 -0.41055245800E+02  0.17484369860E+02 -0.13338525143E+03  0.14065156130E+03  0.00000000000E+00 0. -1.
          1    1    6    6  503    0  0.97556263133E+02 -0.18326492346E+03 -0.27816523232E+03  0.34710107046E+03  0.00000000000E+00 0. -1.
         -1    1    6    6    0  503  0.13572929959E+03 -0.13364782994E+03 -0.16167314249E+03  0.24984473222E+03  0.00000000000E+00 0.  1.
<mgrwt>
<rscale>  0 0.11210624E+04</rscale>
<asrwt>0</asrwt>
<pdfrwt beam="1">  1        2 0.38713908E+00 0.11210624E+04</pdfrwt>
<pdfrwt beam="2">  1       -2 0.19209050E-01 0.11210624E+04</pdfrwt>
<totfact> 0.78139454E+01</totfact>
</mgrwt>
</event>
<event>
12    3  0.4192740E-008  0.1882403E+04  0.7818608E-02  0.8663666E-01
          2   -1    0    0  501    0  0.00000000000E+00  0.00000000000E+00  0.16810939274E+04  0.16810939274E+04  0.00000000000E+00 0. -1.
         -2   -1    0    0    0  501 -0.00000000000E+00 -0.00000000000E+00 -0.52695442608E+03  0.52695442608E+03  0.00000000000E+00 0.  1.
         23    2    1    2    0    0  0.41623814549E+03  0.38027457570E+03 -0.89697072409E+02  0.57787949562E+03  0.89644854718E+02 0.  0.
        254    2    1    2    0    0 -0.41623814549E+03 -0.38027457570E+03  0.12438365737E+04  0.16301688578E+04  0.89020117744E+03 0.  0.
         23    2    4    4    0    0  0.23391446100E+03  0.64250247482E+02  0.34437538587E+03  0.43083066067E+03  0.90424456975E+02 0.  0.
         23    2    4    4    0    0 -0.65015260649E+03 -0.44452482318E+03  0.89946118783E+03  0.11993381972E+04  0.95294032462E+02 0.  0.
          4    1    3    3  502    0  0.14475189675E+02 -0.32286330721E+01  0.19276474143E+01  0.14955634797E+02  0.00000000000E+00 0. -1.
         -4    1    3    3    0  502  0.40176295582E+03  0.38350320877E+03 -0.91624719823E+02  0.56292386082E+03  0.00000000000E+00 0.  1.
         13    1    5    5    0    0  0.15176075798E+03  0.46113153128E+00  0.17084159072E+03  0.22851343379E+03  0.00000000000E+00 0. -1.
        -13    1    5    5    0    0  0.82153703018E+02  0.63789115951E+02  0.17353379515E+03  0.20231722688E+03  0.00000000000E+00 0.  1.
          3    1    6    6  503    0 -0.46588878103E+03 -0.33469859261E+03  0.59102714872E+03  0.82364348762E+03  0.00000000000E+00 0. -1.
         -3    1    6    6    0  503 -0.18426382546E+03 -0.10982623056E+03  0.30843403912E+03  0.37569470954E+03  0.00000000000E+00 0.  1.
<mgrwt>
<rscale>  0 0.18824026E+04</rscale>
<asrwt>0</asrwt>
<pdfrwt beam="1">  1        2 0.25862983E+00 0.18824026E+04</pdfrwt>
<pdfrwt beam="2">  1       -2 0.81069913E-01 0.18824026E+04</pdfrwt>
<totfact> 0.12640944E+01</totfact>
</mgrwt>
</event>
<event>
12    3  0.4192740E-008  0.1379838E+04  0.7818608E-02  0.8968543E-01
          1   -1    0    0  501    0  0.00000000000E+00  0.00000000000E+00  0.67233067366E+03  0.67233067366E+03  0.00000000000E+00 0. -1.
         -1   -1    0    0    0  501 -0.00000000000E+00 -0.00000000000E+00 -0.70796793083E+03  0.70796793083E+03  0.00000000000E+00 0.  1.
         23    2    1    2    0    0  0.16547976155E+03  0.34187128735E+03  0.81255404491E+02  0.39914501800E+03  0.91949856111E+02 0.  0.
        254    2    1    2    0    0 -0.16547976155E+03 -0.34187128735E+03 -0.11689266166E+03  0.98115358649E+03  0.89707242592E+03 0.  0.
         23    2    4    4    0    0 -0.99104389808E+01  0.11092557141E+03 -0.39514479106E+03  0.42051029315E+03  0.91031871039E+02 0.  0.
         23    2    4    4    0    0 -0.15556932257E+03 -0.45279685876E+03  0.27825212940E+03  0.56064329335E+03  0.87577653704E+02 0.  0.
          3    1    3    3  502    0  0.10893225535E+02  0.40091004059E+02  0.39831322822E+02  0.57554193998E+02  0.00000000000E+00 0. -1.
         -3    1    3    3    0  502  0.15458653602E+03  0.30178028329E+03  0.41424081668E+02  0.34159082401E+03  0.00000000000E+00 0.  1.
         13    1    5    5    0    0 -0.30310449296E+02  0.11018721890E+03 -0.37420712502E+03  0.39126834648E+03  0.00000000000E+00 0. -1.
        -13    1    5    5    0    0  0.20400010315E+02  0.73835251243E+00 -0.20937666042E+02  0.29241946662E+02  0.00000000000E+00 0.  1.
          2    1    6    6  503    0 -0.10863526089E+03 -0.31517901389E+03  0.14545616768E+03  0.36372644587E+03  0.00000000000E+00 0. -1.
         -2    1    6    6    0  503 -0.46934061688E+02 -0.13761784487E+03  0.13279596172E+03  0.19691684748E+03  0.00000000000E+00 0.  1.
<mgrwt>
<rscale>  0 0.13798385E+04</rscale>
<asrwt>0</asrwt>
<pdfrwt beam="1">  1        1 0.10343549E+00 0.13798385E+04</pdfrwt>
<pdfrwt beam="2">  1       -1 0.10891814E+00 0.13798385E+04</pdfrwt>
<totfact> 0.22102722E+01</totfact>
</mgrwt>
</event>
<event>
12    3  0.4192740E-008  0.1057777E+04  0.7818608E-02  0.9247351E-01
         -2   -1    0    0    0  501 -0.00000000000E+00  0.00000000000E+00  0.20679352436E+03  0.20679352436E+03  0.00000000000E+00 0.  1.
          2   -1    0    0  501    0  0.00000000000E+00 -0.00000000000E+00 -0.13526686266E+04  0.13526686266E+04  0.00000000000E+00 0. -1.
         23    2    1    2    0    0 -0.58565411308E+01  0.26076270496E+02 -0.31211201609E+03  0.32641295364E+03  0.91745489035E+02 0.  0.
        254    2    1    2    0    0  0.58565411308E+01 -0.26076270496E+02 -0.83376308613E+03  0.12330491973E+04  0.90803918870E+03 0.  0.
         23    2    4    4    0    0  0.73983767520E+02 -0.11800534377E+03  0.15892368361E+03  0.22966287909E+03  0.89941324229E+02 0.  0.
         23    2    4    4    0    0 -0.68127226389E+02  0.91929073274E+02 -0.99268676975E+03  0.10033863182E+04  0.90910985302E+02 0.  0.
          3    1    3    3  502    0  0.23083092670E+02  0.65629988305E+01 -0.27275365559E+03  0.27380733876E+03  0.00000000000E+00 0. -1.
         -3    1    3    3    0  502 -0.28939633800E+02  0.19513271666E+02 -0.39358360502E+02  0.52605614881E+02  0.00000000000E+00 0.  1.
         13    1    5    5    0    0 -0.16308938376E+02 -0.42570791868E+02  0.63524520713E+02  0.78189631813E+02  0.00000000000E+00 0. -1.
        -13    1    5    5    0    0  0.90292705896E+02 -0.75434551903E+02  0.95399162901E+02  0.15147324728E+03  0.00000000000E+00 0.  1.
          1    1    6    6  503    0 -0.84318975166E+02  0.45265600159E+02 -0.59564114015E+03  0.60328022673E+03  0.00000000000E+00 0.  1.
         -1    1    6    6    0  503  0.16191748777E+02  0.46663473115E+02 -0.39704562960E+03  0.40010609148E+03  0.00000000000E+00 0. -1.
<mgrwt>
<rscale>  0 0.10577771E+04</rscale>
<asrwt>0</asrwt>
<pdfrwt beam="1">  1        2 0.20810286E+00 0.10577771E+04</pdfrwt>
<pdfrwt beam="2">  1       -2 0.31814389E-01 0.10577771E+04</pdfrwt>
<totfact> 0.14067793E+02</totfact>
</mgrwt>
</event>
<event>
12    3  0.4192740E-008  0.1416569E+04  0.7818608E-02  0.8941912E-01
          2   -1    0    0  501    0  0.00000000000E+00  0.00000000000E+00  0.80325299665E+03  0.80325299665E+03  0.00000000000E+00 0.  1.
         -2   -1    0    0    0  501 -0.00000000000E+00 -0.00000000000E+00 -0.62454373388E+03  0.62454373388E+03  0.00000000000E+00 0. -1.
         23    2    1    2    0    0  0.34798528966E+03  0.21439818374E+03  0.10135818679E+03  0.43101742017E+03  0.91881398812E+02 0.  0.
        254    2    1    2    0    0 -0.34798528966E+03 -0.21439818374E+03  0.77351075986E+02  0.99677931036E+03  0.90582860497E+03 0.  0.
         23    2    4    4    0    0  0.29200144435E+03 -0.57454557820E+02 -0.62232415190E+02  0.31732071714E+03  0.90849844854E+02 0.  0.
         23    2    4    4    0    0 -0.63998673402E+03 -0.15694362592E+03  0.13958349118E+03  0.67945859321E+03  0.89253052899E+02 0.  0.
          4    1    3    3  502    0  0.63383430155E+02  0.60187210122E+02 -0.11610564044E+02  0.88174626043E+02  0.00000000000E+00 0. -1.
         -4    1    3    3    0  502  0.28460185951E+03  0.15421097362E+03  0.11296875083E+03  0.34284279413E+03  0.00000000000E+00 0.  1.
         13    1    5    5    0    0  0.27898647609E+03 -0.45854063034E+02 -0.78552993860E+02  0.29343929830E+03  0.00000000000E+00 0. -1.
        -13    1    5    5    0    0  0.13014968259E+02 -0.11600494786E+02  0.16320578670E+02  0.23881418848E+02  0.00000000000E+00 0.  1.
          1    1    6    6  503    0 -0.27225402580E+03 -0.10781475772E+03  0.41838337155E+02  0.29579844997E+03  0.00000000000E+00 0. -1.
         -1    1    6    6    0  503 -0.36773270821E+03 -0.49128868195E+02  0.97745154020E+02  0.38366014325E+03  0.00000000000E+00 0.  1.
<mgrwt>
<rscale>  0 0.14165686E+04</rscale>
<asrwt>0</asrwt>
<pdfrwt beam="1">  1        2 0.12357738E+00 0.14165686E+04</pdfrwt>
<pdfrwt beam="2">  1       -2 0.96083651E-01 0.14165686E+04</pdfrwt>
<totfact> 0.30235567E+01</totfact>
</mgrwt>
</event>
<event>
12    3  0.4349255E-008  0.1452861E+04  0.7818608E-02  0.8916419E-01
          2   -1    0    0  501    0  0.00000000000E+00  0.00000000000E+00  0.28647568454E+04  0.28647568454E+04  0.00000000000E+00 0. -1.
         -2   -1    0    0    0  501 -0.00000000000E+00 -0.00000000000E+00 -0.18420457571E+03  0.18420457571E+03  0.00000000000E+00 0.  1.
         23    2    1    2    0    0 -0.45361167202E+03  0.24082014790E+02  0.11414220226E+04  0.12317576791E+04  0.89661886334E+02 0.  0.
        254    2    1    2    0    0  0.45361167202E+03 -0.24082014790E+02  0.15391302470E+04  0.18172037420E+04  0.85262185646E+03 0.  0.
         23    2    4    4    0    0 -0.12126602331E+03 -0.27829097394E+03  0.37392660387E+03  0.48963558901E+03  0.88150952136E+02 0.  0.
         23    2    4    4    0    0  0.57487769533E+03  0.25420895915E+03  0.11652036432E+04  0.13275681530E+04  0.98138225215E+02 0.  0.
          4    1    3    3  502    0 -0.44792151408E+03  0.24536470937E+02  0.10716527867E+04  0.11617553170E+04  0.00000000000E+00 0. -1.
         -4    1    3    3    0  502 -0.56901579440E+01 -0.45445614732E+00  0.69769235906E+02  0.70002362151E+02  0.00000000000E+00 0.  1.
         13    1    5    5    0    0 -0.87414030642E+02 -0.20009909559E+03  0.20067652392E+03  0.29656690318E+03  0.00000000000E+00 0.  1.
        -13    1    5    5    0    0 -0.33851992664E+02 -0.78191878350E+02  0.17325007995E+03  0.19306868584E+03  0.00000000000E+00 0. -1.
          2    1    6    6  503    0  0.30226649961E+03  0.13003759825E+03  0.50723777451E+03  0.60461969339E+03  0.00000000000E+00 0. -1.
         -2    1    6    6    0  503  0.27261119571E+03  0.12417136090E+03  0.65796586867E+03  0.72294845959E+03  0.00000000000E+00 0.  1.
<mgrwt>
<rscale>  0 0.14528611E+04</rscale>
<asrwt>0</asrwt>
<pdfrwt beam="1">  1        2 0.44073179E+00 0.14528611E+04</pdfrwt>
<pdfrwt beam="2">  1       -2 0.28339168E-01 0.14528611E+04</pdfrwt>
<totfact> 0.23495853E+01</totfact>
</mgrwt>
</event>
<event>
12    3  0.4192740E-008  0.1292693E+04  0.7818608E-02  0.9035380E-01
          1   -1    0    0  501    0  0.00000000000E+00  0.00000000000E+00  0.11738641233E+04  0.11738641233E+04  0.00000000000E+00 0. -1.
         -1   -1    0    0    0  501 -0.00000000000E+00 -0.00000000000E+00 -0.35588760038E+03  0.35588760038E+03  0.00000000000E+00 0.  1.
         23    2    1    2    0    0  0.22929612192E+03 -0.81427756581E+02 -0.30096072773E+02  0.26150713756E+03  0.90956134104E+02 0.  0.
        254    2    1    2    0    0 -0.22929612192E+03  0.81427756581E+02  0.84807259565E+03  0.12682445861E+04  0.91104885246E+03 0.  0.
         23    2    4    4    0    0 -0.27544725774E+03 -0.12154464035E+02  0.10126581399E+04  0.10534441622E+04  0.90824951611E+02 0.  0.
         23    2    4    4    0    0  0.46151135824E+02  0.93582220616E+02 -0.16458554421E+03  0.21480042389E+03  0.90350768585E+02 0.  0.
          1    1    3    3  502    0  0.11378613407E+03 -0.48309437004E+02  0.29924606201E+02  0.12718713798E+03  0.00000000000E+00 0. -1.
         -1    1    3    3    0  502  0.11550998785E+03 -0.33118319577E+02 -0.60020678975E+02  0.13431999959E+03  0.00000000000E+00 0.  1.
         13    1    5    5    0    0 -0.22528683149E+03  0.24995668775E+02  0.75216840871E+03  0.78558020276E+03  0.00000000000E+00 0.  1.
        -13    1    5    5    0    0 -0.50160426252E+02 -0.37150132809E+02  0.26048973115E+03  0.26786395944E+03  0.00000000000E+00 0. -1.
          1    1    6    6  503    0  0.13984330292E+02 -0.38642517410E+01  0.60222497071E+01  0.15708641786E+02  0.00000000000E+00 0. -1.
         -1    1    6    6    0  503  0.32166805532E+02  0.97446472357E+02 -0.17060779392E+03  0.19909178210E+03  0.00000000000E+00 0.  1.
<mgrwt>
<rscale>  0 0.12926928E+04</rscale>
<asrwt>0</asrwt>
<pdfrwt beam="1">  1        1 0.18059448E+00 0.12926928E+04</pdfrwt>
<pdfrwt beam="2">  1       -1 0.54751939E-01 0.12926928E+04</pdfrwt>
<totfact> 0.37002314E+01</totfact>
</mgrwt>
</event>
<event>
12    3  0.4192740E-008  0.1685173E+04  0.7818608E-02  0.8769866E-01
         -2   -1    0    0    0  501 -0.00000000000E+00  0.00000000000E+00  0.70355507630E+03  0.70355507630E+03  0.00000000000E+00 0.  1.
          2   -1    0    0  501    0  0.00000000000E+00 -0.00000000000E+00 -0.10090917060E+04  0.10090917060E+04  0.00000000000E+00 0. -1.
         23    2    1    2    0    0 -0.25190350705E+03  0.53159692190E+03  0.38548601200E+01  0.59555793962E+03  0.92864068740E+02 0.  0.
        254    2    1    2    0    0  0.25190350705E+03 -0.53159692190E+03 -0.30939148977E+03  0.11170888426E+04  0.89783836194E+03 0.  0.
         23    2    4    4    0    0  0.34448855072E+03  0.13877607403E+03 -0.17146313299E+03  0.42048741646E+03  0.97359648340E+02 0.  0.
         23    2    4    4    0    0 -0.92585043675E+02 -0.67037299593E+03 -0.13792835679E+03  0.69660142618E+03  0.90870079636E+02 0.  0.
          2    1    3    3  502    0 -0.93023182397E+02  0.22212486895E+03 -0.42732489521E+02  0.24457889429E+03  0.00000000000E+00 0. -1.
         -2    1    3    3    0  502 -0.15888032465E+03  0.30947205295E+03  0.46587349641E+02  0.35097904533E+03  0.00000000000E+00 0.  1.
         13    1    5    5    0    0  0.24752510887E+03  0.90101680466E+02 -0.71460178448E+02  0.27293506452E+03  0.00000000000E+00 0.  1.
        -13    1    5    5    0    0  0.96963441855E+02  0.48674393562E+02 -0.10000295454E+03  0.14755235194E+03  0.00000000000E+00 0. -1.
          1    1    6    6  503    0 -0.74527730580E+01 -0.17426009335E+03  0.98054786684E+00  0.17442214721E+03  0.00000000000E+00 0. -1.
         -1    1    6    6    0  503 -0.85132270617E+02 -0.49611290257E+03 -0.13890890465E+03  0.52217927898E+03  0.00000000000E+00 0.  1.
<mgrwt>
<rscale>  0 0.16851725E+04</rscale>
<asrwt>0</asrwt>
<pdfrwt beam="1">  1        2 0.15524488E+00 0.16851725E+04</pdfrwt>
<pdfrwt beam="2">  1       -2 0.10823924E+00 0.16851725E+04</pdfrwt>
<totfact> 0.16177025E+01</totfact>
</mgrwt>
</event>
<event>
12    3  0.4192740E-008  0.1183465E+04  0.7818608E-02  0.9127454E-01
         -1   -1    0    0    0  501 -0.00000000000E+00  0.00000000000E+00  0.22644105147E+03  0.22644105147E+03  0.00000000000E+00 0.  1.
          1   -1    0    0  501    0  0.00000000000E+00 -0.00000000000E+00 -0.15463059963E+04  0.15463059963E+04  0.00000000000E+00 0. -1.
         23    2    1    2    0    0 -0.47078627117E+02  0.14426416504E+03 -0.42216924074E+01  0.17496150145E+03  0.86977915915E+02 0.  0.
        254    2    1    2    0    0  0.47078627117E+02 -0.14426416504E+03 -0.13156432524E+04  0.15977855463E+04  0.89385286146E+03 0.  0.
         23    2    4    4    0    0  0.22631724728E+03  0.13390191589E+03 -0.46499016402E+02  0.28237725143E+03  0.91790708172E+02 0.  0.
         23    2    4    4    0    0 -0.17923862016E+03 -0.27816608093E+03 -0.12691442360E+04  0.13154082948E+04  0.10034460080E+03 0.  0.
          4    1    3    3  502    0 -0.33677381360E+02  0.11151201460E+03 -0.41408721392E+02  0.12362757630E+03  0.00000000000E+00 0. -1.
         -4    1    3    3    0  502 -0.13401245757E+02  0.32752150441E+02  0.37187028984E+02  0.51333925147E+02  0.00000000000E+00 0.  1.
         13    1    5    5    0    0  0.61231829536E+02  0.75036938519E+02 -0.45744132364E+02  0.10710931209E+03  0.00000000000E+00 0. -1.
        -13    1    5    5    0    0  0.16508541774E+03  0.58864977368E+02 -0.75488403787E+00  0.17526793934E+03  0.00000000000E+00 0.  1.
          3    1    6    6  503    0 -0.94674921265E+02 -0.22889681446E+03 -0.88830194020E+03  0.92219164459E+03  0.00000000000E+00 0. -1.
         -3    1    6    6    0  503 -0.84563698896E+02 -0.49269266465E+02 -0.38084229577E+03  0.39321665025E+03  0.00000000000E+00 0.  1.
<mgrwt>
<rscale>  0 0.11834647E+04</rscale>
<asrwt>0</asrwt>
<pdfrwt beam="1">  1        1 0.23789324E+00 0.11834647E+04</pdfrwt>
<pdfrwt beam="2">  1       -1 0.34837084E-01 0.11834647E+04</pdfrwt>
<totfact> 0.47106920E+01</totfact>
</mgrwt>
</event>
<event>
12    3  0.4192740E-008  0.3129284E+04  0.7818608E-02  0.8207747E-01
         -2   -1    0    0    0  501 -0.00000000000E+00  0.00000000000E+00  0.17578239171E+04  0.17578239171E+04  0.00000000000E+00 0. -1.
          2   -1    0    0  501    0  0.00000000000E+00 -0.00000000000E+00 -0.13926906478E+04  0.13926906478E+04  0.00000000000E+00 0.  1.
         23    2    1    2    0    0  0.33698590279E+03  0.15124991215E+03  0.15626847102E+04  0.16082928955E+04  0.90479277489E+02 0.  0.
        254    2    1    2    0    0 -0.33698590279E+03 -0.15124991215E+03 -0.11975514409E+04  0.15422216693E+04  0.89882266840E+03 0.  0.
         23    2    4    4    0    0  0.18575105529E+02 -0.19050954109E+03  0.68963853410E+02  0.22300834216E+03  0.91311487800E+02 0.  0.
         23    2    4    4    0    0 -0.35556100832E+03  0.39259628945E+02 -0.12665152943E+04  0.13192133272E+04  0.91092605801E+02 0.  0.
          4    1    3    3  502    0  0.27860984516E+03  0.90395048639E+02  0.11213392256E+04  0.11589634892E+04  0.00000000000E+00 0. -1.
         -4    1    3    3    0  502  0.58376057631E+02  0.60854863508E+02  0.44134548469E+03  0.44932940630E+03  0.00000000000E+00 0.  1.
         13    1    5    5    0    0  0.24811229675E+02 -0.18976069360E+03  0.82257874441E+02  0.20830524684E+03  0.00000000000E+00 0.  1.
        -13    1    5    5    0    0 -0.62361241466E+01 -0.74884749448E+00 -0.13294021031E+02  0.14703095324E+02  0.00000000000E+00 0. -1.
          3    1    6    6  503    0  0.32300142028E+01  0.11508403855E+00 -0.54631398512E+02  0.54726921524E+02  0.00000000000E+00 0. -1.
         -3    1    6    6    0  503 -0.35879102252E+03  0.39144544906E+02 -0.12118838958E+04  0.12644864057E+04  0.00000000000E+00 0.  1.
<mgrwt>
<rscale>  0 0.31292842E+04</rscale>
<asrwt>0</asrwt>
<pdfrwt beam="1">  1        2 0.21426010E+00 0.31292842E+04</pdfrwt>
<pdfrwt beam="2">  1       -2 0.27043445E+00 0.31292842E+04</pdfrwt>
<totfact> 0.59611859E-01</totfact>
</mgrwt>
</event>
<event>
12    3  0.4192740E-008  0.1162159E+04  0.7818608E-02  0.9146639E-01
          2   -1    0    0  501    0  0.00000000000E+00  0.00000000000E+00  0.68486962082E+03  0.68486962082E+03  0.00000000000E+00 0.  1.
         -2   -1    0    0    0  501 -0.00000000000E+00 -0.00000000000E+00 -0.49301854720E+03  0.49301854720E+03  0.00000000000E+00 0. -1.
         23    2    1    2    0    0  0.20692838197E+03  0.41744664116E+01  0.10541451079E+03  0.25624430086E+03  0.10822264646E+03 0.  0.
        254    2    1    2    0    0 -0.20692838197E+03 -0.41744664116E+01  0.86436562833E+02  0.92164386716E+03  0.89393476107E+03 0.  0.
         23    2    4    4    0    0 -0.48214887064E+03  0.21986832289E+03  0.12789560904E+03  0.55266393653E+03  0.90942438205E+02 0.  0.
         23    2    4    4    0    0  0.27522048867E+03 -0.22404278930E+03 -0.41459046202E+02  0.36897993063E+03  0.92118661911E+02 0.  0.
          3    1    3    3  502    0  0.15499517369E+03 -0.24866296648E+02  0.29392285651E+02  0.15970517534E+03  0.00000000000E+00 0. -1.
         -3    1    3    3    0  502  0.51933208280E+02  0.29040763060E+02  0.76022225139E+02  0.96539125521E+02  0.00000000000E+00 0.  1.
         13    1    5    5    0    0 -0.55560709058E+02  0.41746690680E+02  0.45580063171E+02  0.83110292579E+02  0.00000000000E+00 0. -1.
        -13    1    5    5    0    0 -0.42658816158E+03  0.17812163221E+03  0.82315545864E+02  0.46955364395E+03  0.00000000000E+00 0.  1.
          2    1    6    6  503    0  0.16323863448E+03 -0.11980624715E+03  0.21335724823E+02  0.20360648760E+03  0.00000000000E+00 0.  1.
         -2    1    6    6    0  503  0.11198185419E+03 -0.10423654216E+03 -0.62794771025E+02  0.16537344302E+03  0.00000000000E+00 0. -1.
<mgrwt>
<rscale>  0 0.11621591E+04</rscale>
<asrwt>0</asrwt>
<pdfrwt beam="1">  1        2 0.10536456E+00 0.11621591E+04</pdfrwt>
<pdfrwt beam="2">  1       -2 0.75849008E-01 0.11621591E+04</pdfrwt>
<totfact> 0.64919676E+01</totfact>
</mgrwt>
</event>
<event>
12    3  0.4192740E-008  0.1802507E+04  0.7818608E-02  0.8704968E-01
          2   -1    0    0  501    0  0.00000000000E+00  0.00000000000E+00  0.95005384613E+03  0.95005384613E+03  0.00000000000E+00 0. -1.
         -2   -1    0    0    0  501 -0.00000000000E+00 -0.00000000000E+00 -0.85495953642E+03  0.85495953642E+03  0.00000000000E+00 0.  1.
         23    2    1    2    0    0  0.32256356547E+02  0.13239250096E+03  0.69829663178E+03  0.71873006620E+03  0.10191405817E+03 0.  0.
        254    2    1    2    0    0 -0.32256356547E+02 -0.13239250096E+03 -0.60320232207E+03  0.10862833164E+04  0.89307903076E+03 0.  0.
         23    2    4    4    0    0 -0.29539045159E+03  0.15696214711E+03  0.17327704897E+02  0.34718953775E+03  0.91365700631E+02 0.  0.
         23    2    4    4    0    0  0.26313409505E+03 -0.28935464807E+03 -0.62053002697E+03  0.73909377860E+03  0.90754806257E+02 0.  0.
          1    1    3    3  502    0 -0.17331252890E+02  0.18562684001E+02  0.31060937932E+03  0.31164584400E+03  0.00000000000E+00 0. -1.
         -1    1    3    3    0  502  0.49587609437E+02  0.11382981696E+03  0.38768725246E+03  0.40708422220E+03  0.00000000000E+00 0.  1.
         13    1    5    5    0    0 -0.22464898913E+03  0.15887582907E+03  0.23498174592E+02  0.27615369197E+03  0.00000000000E+00 0. -1.
        -13    1    5    5    0    0 -0.70741462464E+02 -0.19136819607E+01 -0.61704696949E+01  0.71035845786E+02  0.00000000000E+00 0.  1.
          1    1    6    6  503    0  0.26215735710E+03 -0.28363597942E+03 -0.57181767584E+03  0.69003717516E+03  0.00000000000E+00 0. -1.
         -1    1    6    6    0  503  0.97673794951E+00 -0.57186686439E+01 -0.48712351133E+02  0.49056603439E+02  0.00000000000E+00 0.  1.
<mgrwt>
<rscale>  0 0.18025067E+04</rscale>
<asrwt>0</asrwt>
<pdfrwt beam="1">  1        2 0.14616213E+00 0.18025067E+04</pdfrwt>
<pdfrwt beam="2">  1       -2 0.13153224E+00 0.18025067E+04</pdfrwt>
<totfact> 0.10801999E+01</totfact>
</mgrwt>
</event>
<event>
12    3  0.4192740E-008  0.2777098E+04  0.7818608E-02  0.8310414E-01
          2   -1    0    0  501    0  0.00000000000E+00  0.00000000000E+00  0.33895037817E+04  0.33895037817E+04  0.00000000000E+00 0. -1.
         -2   -1    0    0    0  501 -0.00000000000E+00 -0.00000000000E+00 -0.56883508569E+03  0.56883508569E+03  0.00000000000E+00 0.  1.
         23    2    1    2    0    0 -0.34943299373E+03  0.11481828243E+04  0.17027610886E+04  0.20851751236E+04  0.90181793786E+02 0.  0.
        254    2    1    2    0    0  0.34943299373E+03 -0.11481828243E+04  0.11179076074E+04  0.18731637438E+04  0.90476393450E+03 0.  0.
         23    2    4    4    0    0  0.55496148830E+03 -0.33871837897E+03  0.40724218250E+03  0.77277260013E+03  0.92838044718E+02 0.  0.
         23    2    4    4    0    0 -0.20552849457E+03 -0.80946444537E+03  0.71066542491E+03  0.11003911437E+04  0.91327282462E+02 0.  0.
          3    1    3    3  502    0 -0.28637905557E+03  0.93702696720E+03  0.14476615952E+04  0.17480722511E+04  0.00000000000E+00 0. -1.
         -3    1    3    3    0  502 -0.63053938159E+02  0.21115585715E+03  0.25509949335E+03  0.33710287248E+03  0.00000000000E+00 0.  1.
         13    1    5    5    0    0  0.42595070725E+03 -0.21640982959E+03  0.31733531088E+03  0.57355812163E+03  0.00000000000E+00 0.  1.
        -13    1    5    5    0    0  0.12901078105E+03 -0.12230854939E+03  0.89906871618E+02  0.19921447850E+03  0.00000000000E+00 0. -1.
          3    1    6    6  503    0 -0.24692180268E+02 -0.25585615239E+02  0.26684055069E+02  0.44456341150E+02  0.00000000000E+00 0. -1.
         -3    1    6    6    0  503 -0.18083631430E+03 -0.78387883013E+03  0.68398136984E+03  0.10559348025E+04  0.00000000000E+00 0.  1.
<mgrwt>
<rscale>  0 0.27770983E+04</rscale>
<asrwt>0</asrwt>
<pdfrwt beam="1">  1        2 0.52146211E+00 0.27770983E+04</pdfrwt>
<pdfrwt beam="2">  1       -2 0.87513092E-01 0.27770983E+04</pdfrwt>
<totfact> 0.95230772E-01</totfact>
</mgrwt>
</event>
<event>
12    3  0.4192740E-008  0.1553105E+04  0.7818608E-02  0.8849887E-01
          1   -1    0    0  501    0  0.00000000000E+00  0.00000000000E+00  0.78134162567E+03  0.78134162567E+03  0.00000000000E+00 0. -1.
         -1   -1    0    0    0  501 -0.00000000000E+00 -0.00000000000E+00 -0.77179251147E+03  0.77179251147E+03  0.00000000000E+00 0.  1.
         23    2    1    2    0    0  0.47055996054E+02  0.49183609829E+03 -0.10156449058E+03  0.51261862026E+03  0.91353652048E+02 0.  0.
        254    2    1    2    0    0 -0.47055996054E+02 -0.49183609829E+03  0.11111360478E+03  0.10405155169E+04  0.90896055654E+03 0.  0.
         23    2    4    4    0    0 -0.41563965334E+03 -0.36951759012E+03 -0.12360802067E+03  0.57753375679E+03  0.94692801333E+02 0.  0.
         23    2    4    4    0    0  0.36858365728E+03 -0.12231850817E+03  0.23472162545E+03  0.46298176009E+03  0.91881112675E+02 0.  0.
          3    1    3    3  502    0 -0.18681720475E+02  0.99890622002E+02 -0.45200606074E+02  0.11122157090E+03  0.00000000000E+00 0. -1.
         -3    1    3    3    0  502  0.65737716529E+02  0.39194547629E+03 -0.56363884506E+02  0.40139704936E+03  0.00000000000E+00 0.  1.
         13    1    5    5    0    0 -0.88993465926E+02 -0.10375917853E+03 -0.68324481808E+02  0.15282028308E+03  0.00000000000E+00 0.  1.
        -13    1    5    5    0    0 -0.32664618741E+03 -0.26575841159E+03 -0.55283538863E+02  0.42471347371E+03  0.00000000000E+00 0. -1.
          2    1    6    6  503    0  0.10886371370E+03 -0.36758427568E+02  0.23080595899E+02  0.11719728693E+03  0.00000000000E+00 0. -1.
         -2    1    6    6    0  503  0.25971994358E+03 -0.85560080605E+02  0.21164102955E+03  0.34578447316E+03  0.00000000000E+00 0.  1.
<mgrwt>
<rscale>  0 0.15531048E+04</rscale>
<asrwt>0</asrwt>
<pdfrwt beam="1">  1        1 0.12020640E+00 0.15531048E+04</pdfrwt>
<pdfrwt beam="2">  1       -1 0.11873731E+00 0.15531048E+04</pdfrwt>
<totfact> 0.14054909E+01</totfact>
</mgrwt>
</event>
<event>
12    3  0.4192740E-008  0.1434295E+04  0.7818608E-02  0.8929362E-01
         -2   -1    0    0    0  501 -0.00000000000E+00  0.00000000000E+00  0.71082548077E+03  0.71082548077E+03  0.00000000000E+00 0.  1.
          2   -1    0    0  501    0  0.00000000000E+00 -0.00000000000E+00 -0.72352567879E+03  0.72352567879E+03  0.00000000000E+00 0. -1.
         23    2    1    2    0    0  0.28393317371E+03  0.31622215022E+03 -0.16408155851E+02  0.43644775355E+03  0.97994482360E+02 0.  0.
        254    2    1    2    0    0 -0.28393317371E+03 -0.31622215022E+03  0.37079578359E+01  0.99790340601E+03  0.90287483261E+03 0.  0.
         23    2    4    4    0    0  0.13497703282E+02  0.15620184322E+03  0.30605805657E+03  0.35647606321E+03  0.93927875718E+02 0.  0.
         23    2    4    4    0    0 -0.29743087699E+03 -0.47242399344E+03 -0.30235009873E+03  0.64142734280E+03  0.91454347715E+02 0.  0.
          1    1    3    3  502    0  0.28850234050E+03  0.30965012056E+03 -0.59317099019E+01  0.42326349100E+03  0.00000000000E+00 0. -1.
         -1    1    3    3    0  502 -0.45691667894E+01  0.65720296667E+01 -0.10476445949E+02  0.13184262543E+02  0.00000000000E+00 0.  1.
         13    1    5    5    0    0  0.38129094767E+02  0.33568390572E+02  0.48901838030E+02  0.70512796541E+02  0.00000000000E+00 0.  1.
        -13    1    5    5    0    0 -0.24631391484E+02  0.12263345265E+03  0.25715621854E+03  0.28596326667E+03  0.00000000000E+00 0. -1.
          1    1    6    6  503    0 -0.24495529322E+03 -0.44016237004E+03 -0.26205972543E+03  0.56782154536E+03  0.00000000000E+00 0. -1.
         -1    1    6    6    0  503 -0.52475583768E+02 -0.32261623405E+02 -0.40290373296E+02  0.73605797441E+02  0.00000000000E+00 0.  1.
<mgrwt>
<rscale>  0 0.14342949E+04</rscale>
<asrwt>0</asrwt>
<pdfrwt beam="1">  1        2 0.11131164E+00 0.14342949E+04</pdfrwt>
<pdfrwt beam="2">  1       -2 0.10935777E+00 0.14342949E+04</pdfrwt>
<totfact> 0.25417228E+01</totfact>
</mgrwt>
</event>
<event>
12    3  0.4192740E-008  0.3571940E+04  0.7818608E-02  0.8096949E-01
         -1   -1    0    0    0  501 -0.00000000000E+00  0.00000000000E+00  0.17021720340E+04  0.17021720340E+04  0.00000000000E+00 0.  1.
          1   -1    0    0  501    0  0.00000000000E+00 -0.00000000000E+00 -0.18738937452E+04  0.18738937452E+04  0.00000000000E+00 0. -1.
         23    2    1    2    0    0  0.22501523821E+03  0.93426811968E+02  0.15757519901E+04  0.15971780470E+04  0.92859856318E+02 0.  0.
        254    2    1    2    0    0 -0.22501523821E+03 -0.93426811968E+02 -0.17474737012E+04  0.19788877322E+04  0.89608699003E+03 0.  0.
         23    2    4    4    0    0 -0.43424159483E+03  0.81876077157E+02 -0.15852850027E+04  0.16484124745E+04  0.94157801013E+02 0.  0.
         23    2    4    4    0    0  0.20922635662E+03 -0.17530288913E+03 -0.16218869845E+03  0.33047525770E+03  0.91662155823E+02 0.  0.
          2    1    3    3  502    0  0.83670350420E+02  0.13583240823E+02  0.80904197758E+03  0.81347043797E+03  0.00000000000E+00 0. -1.
         -2    1    3    3    0  502  0.14134488779E+03  0.79843571145E+02  0.76671001248E+03  0.78370760900E+03  0.00000000000E+00 0.  1.
         13    1    5    5    0    0 -0.41904019075E+03  0.95470777355E+02 -0.14785452441E+04  0.15397419880E+04  0.00000000000E+00 0.  1.
        -13    1    5    5    0    0 -0.15201404076E+02 -0.13594700197E+02 -0.10673975869E+03  0.10867048654E+03  0.00000000000E+00 0. -1.
          1    1    6    6  503    0  0.26206866142E+02 -0.13986003586E+02 -0.58057802177E+02  0.65215922311E+02  0.00000000000E+00 0. -1.
         -1    1    6    6    0  503  0.18301949047E+03 -0.16131688554E+03 -0.10413089627E+03  0.26525933539E+03  0.00000000000E+00 0.  1.
<mgrwt>
<rscale>  0 0.35719404E+04</rscale>
<asrwt>0</asrwt>
<pdfrwt beam="1">  1        1 0.28829134E+00 0.35719404E+04</pdfrwt>
<pdfrwt beam="2">  1       -1 0.26187262E+00 0.35719404E+04</pdfrwt>
<totfact> 0.17171939E-01</totfact>
</mgrwt>
</event>
<event>
12    3  0.4192740E-008  0.1957992E+04  0.7818608E-02  0.8626516E-01
         -2   -1    0    0    0  501 -0.00000000000E+00  0.00000000000E+00  0.64189074355E+03  0.64189074355E+03  0.00000000000E+00 0.  1.
          2   -1    0    0  501    0  0.00000000000E+00 -0.00000000000E+00 -0.14931410131E+04  0.14931410131E+04  0.00000000000E+00 0. -1.
         23    2    1    2    0    0 -0.47958199841E+02  0.73902584571E+03 -0.88126960804E+02  0.75145591204E+03  0.91980633583E+02 0.  0.
        254    2    1    2    0    0  0.47958199841E+02 -0.73902584571E+03 -0.76312330872E+03  0.13835758446E+04  0.88513600302E+03 0.  0.
         23    2    4    4    0    0 -0.72184227578E+02 -0.89069350438E+03 -0.45184069343E+03  0.10058826507E+04  0.95364633188E+02 0.  0.
         23    2    4    4    0    0  0.12014242742E+03  0.15166765867E+03 -0.31128261529E+03  0.37769319390E+03  0.91203073304E+02 0.  0.
          2    1    3    3  502    0 -0.66832435767E+02  0.45562029975E+03 -0.29533839720E+02  0.46144195703E+03  0.00000000000E+00 0. -1.
         -2    1    3    3    0  502  0.18874235926E+02  0.28340554596E+03 -0.58593121084E+02  0.29001395501E+03  0.00000000000E+00 0.  1.
         13    1    5    5    0    0  0.31008903703E+01 -0.16114409110E+03 -0.45760361967E+02  0.16754415640E+03  0.00000000000E+00 0. -1.
        -13    1    5    5    0    0 -0.75285117948E+02 -0.72954941328E+03 -0.40608033146E+03  0.83833849429E+03  0.00000000000E+00 0.  1.
          4    1    6    6  503    0  0.13341859154E+02  0.89084075946E+02 -0.13476324544E+03  0.16209599043E+03  0.00000000000E+00 0. -1.
         -4    1    6    6    0  503  0.10680056826E+03  0.62583582720E+02 -0.17651936986E+03  0.21559720347E+03  0.00000000000E+00 0.  1.
<mgrwt>
<rscale>  0 0.19579922E+04</rscale>
<asrwt>0</asrwt>
<pdfrwt beam="1">  1        2 0.22971400E+00 0.19579922E+04</pdfrwt>
<pdfrwt beam="2">  1       -2 0.98752423E-01 0.19579922E+04</pdfrwt>
<totfact> 0.10160475E+01</totfact>
</mgrwt>
</event>
<event>
12    3  0.4192740E-008  0.2010062E+04  0.7818608E-02  0.8601931E-01
          3   -1    0    0  501    0  0.00000000000E+00  0.00000000000E+00  0.13536683010E+04  0.13536683010E+04  0.00000000000E+00 0. -1.
         -3   -1    0    0    0  501 -0.00000000000E+00 -0.00000000000E+00 -0.74618530067E+03  0.74618530067E+03  0.00000000000E+00 0.  1.
         23    2    1    2    0    0  0.16284999659E+02  0.49378834294E+03 -0.41234057538E+03  0.64971473267E+03  0.89511758498E+02 0.  0.
        254    2    1    2    0    0 -0.16284999659E+02 -0.49378834294E+03  0.10198235757E+04  0.14501388690E+04  0.90485937303E+03 0.  0.
         23    2    4    4    0    0  0.35419894196E+03 -0.14134582034E+03  0.11751309026E+03  0.40909979177E+03  0.90098733760E+02 0.  0.
         23    2    4    4    0    0 -0.37048394162E+03 -0.35244252260E+03  0.90231048543E+03  0.10410390772E+04  0.90133597698E+02 0.  0.
          1    1    3    3  502    0  0.76625944689E+01  0.22978296418E+01 -0.17387273561E+02  0.19139296145E+02  0.00000000000E+00 0. -1.
         -1    1    3    3    0  502  0.86224051897E+01  0.49149051330E+03 -0.39495330182E+03  0.63057543653E+03  0.00000000000E+00 0.  1.
         13    1    5    5    0    0  0.29088844476E+03 -0.14679809898E+03  0.11491654426E+03  0.34550192663E+03  0.00000000000E+00 0. -1.
        -13    1    5    5    0    0  0.63310497206E+02  0.54522786441E+01  0.25965459945E+01  0.63597865137E+02  0.00000000000E+00 0.  1.
          2    1    6    6  503    0 -0.33999599679E+03 -0.33024007411E+03  0.77681338360E+03  0.90999715237E+03  0.00000000000E+00 0. -1.
         -2    1    6    6    0  503 -0.30487944830E+02 -0.22202448491E+02  0.12549710184E+03  0.13104192485E+03  0.00000000000E+00 0.  1.
<mgrwt>
<rscale>  0 0.20100621E+04</rscale>
<asrwt>0</asrwt>
<pdfrwt beam="1">  1        3 0.20825666E+00 0.20100621E+04</pdfrwt>
<pdfrwt beam="2">  1       -3 0.11479774E+00 0.20100621E+04</pdfrwt>
<totfact> 0.19973119E-01</totfact>
</mgrwt>
</event>
<event>
12    3  0.4192740E-008  0.1574264E+04  0.7818608E-02  0.8836517E-01
          2   -1    0    0  501    0  0.00000000000E+00  0.00000000000E+00  0.44732191819E+04  0.44732191819E+04  0.00000000000E+00 0. -1.
         -2   -1    0    0    0  501 -0.00000000000E+00 -0.00000000000E+00 -0.13850801386E+03  0.13850801386E+03  0.00000000000E+00 0.  1.
         23    2    1    2    0    0 -0.12587667296E+03  0.21495609656E+03  0.11031256291E+03  0.28731232480E+03  0.91260342972E+02 0.  0.
        254    2    1    2    0    0  0.12587667296E+03 -0.21495609656E+03  0.42243986052E+04  0.43244148710E+04  0.89048825990E+03 0.  0.
         23    2    4    4    0    0  0.23104207135E+03  0.22208559957E+03  0.29757442972E+04  0.29942154026E+04  0.87001739656E+02 0.  0.
         23    2    4    4    0    0 -0.10516539839E+03 -0.43704169613E+03  0.12486543080E+04  0.13301994684E+04  0.90707440291E+02 0.  0.
          4    1    3    3  502    0 -0.13920183614E+02  0.32153084573E+02 -0.15984408065E+02  0.38510955072E+02  0.00000000000E+00 0. -1.
         -4    1    3    3    0  502 -0.11195648935E+03  0.18280301199E+03  0.12629697098E+03  0.24880136972E+03  0.00000000000E+00 0.  1.
         13    1    5    5    0    0  0.19333663099E+03  0.21038262400E+03  0.27715683040E+04  0.27862574837E+04  0.00000000000E+00 0. -1.
        -13    1    5    5    0    0  0.37705440366E+02  0.11702975571E+02  0.20417599314E+03  0.20795791893E+03  0.00000000000E+00 0.  1.
          4    1    6    6  503    0 -0.10625216932E+03 -0.27789537498E+03  0.75407658195E+03  0.81064594884E+03  0.00000000000E+00 0. -1.
         -4    1    6    6    0  503  0.10867709305E+01 -0.15914632115E+03  0.49457772605E+03  0.51955351958E+03  0.00000000000E+00 0.  1.
<mgrwt>
<rscale>  0 0.15742639E+04</rscale>
<asrwt>0</asrwt>
<pdfrwt beam="1">  1        2 0.68818746E+00 0.15742639E+04</pdfrwt>
<pdfrwt beam="2">  1       -2 0.21308929E-01 0.15742639E+04</pdfrwt>
<totfact> 0.24757673E+00</totfact>
</mgrwt>
</event>
<event>
12    3  0.4192740E-008  0.2495425E+04  0.7818608E-02  0.8404617E-01
         -2   -1    0    0    0  501 -0.00000000000E+00  0.00000000000E+00  0.10180752034E+04  0.10180752034E+04  0.00000000000E+00 0.  1.
          2   -1    0    0  501    0  0.00000000000E+00 -0.00000000000E+00 -0.15291474086E+04  0.15291474086E+04  0.00000000000E+00 0. -1.
         23    2    1    2    0    0 -0.44172702201E+03 -0.35882204271E+03 -0.11529232338E+04  0.12888836392E+04  0.90072371043E+02 0.  0.
        254    2    1    2    0    0  0.44172702201E+03  0.35882204271E+03  0.64185102866E+03  0.12583389728E+04  0.92063467629E+03 0.  0.
         23    2    4    4    0    0  0.26986031337E+01 -0.30835652434E+02 -0.20380205930E+03  0.22520986859E+03  0.90697770733E+02 0.  0.
         23    2    4    4    0    0  0.43902841888E+03  0.38965769514E+03  0.84565308796E+03  0.10331291042E+04  0.87450150495E+02 0.  0.
          1    1    3    3  502    0 -0.31772705779E+03 -0.22683502853E+03 -0.86065191019E+03  0.94505360902E+03  0.00000000000E+00 0. -1.
         -1    1    3    3    0  502 -0.12399996422E+03 -0.13198701418E+03 -0.29227132366E+03  0.34383003021E+03  0.00000000000E+00 0.  1.
         13    1    5    5    0    0  0.92636578432E+01  0.24184926903E+01 -0.18723892482E+03  0.18748354443E+03  0.00000000000E+00 0. -1.
        -13    1    5    5    0    0 -0.65650547095E+01 -0.33254145124E+02 -0.16563134487E+02  0.37726324169E+02  0.00000000000E+00 0.  1.
          4    1    6    6  503    0  0.41604866509E+03  0.33529654216E+03  0.75499155635E+03  0.92495000571E+03  0.00000000000E+00 0. -1.
         -4    1    6    6    0  503  0.22979753789E+02  0.54361152983E+02  0.90661531609E+02  0.10817909850E+03  0.00000000000E+00 0.  1.
<mgrwt>
<rscale>  0 0.24954255E+04</rscale>
<asrwt>0</asrwt>
<pdfrwt beam="1">  1        2 0.23525345E+00 0.24954255E+04</pdfrwt>
<pdfrwt beam="2">  1       -2 0.15662695E+00 0.24954255E+04</pdfrwt>
<totfact> 0.29108872E+00</totfact>
</mgrwt>
</event>
<event>
12    3  0.4192740E-008  0.1038807E+04  0.7818608E-02  0.9266977E-01
         -1   -1    0    0    0  501 -0.00000000000E+00  0.00000000000E+00  0.38326764875E+03  0.38326764875E+03  0.00000000000E+00 0.  1.
          1   -1    0    0  501    0  0.00000000000E+00 -0.00000000000E+00 -0.70389497747E+03  0.70389497747E+03  0.00000000000E+00 0. -1.
         23    2    1    2    0    0 -0.12796389004E+02 -0.20417838431E+02 -0.15107046931E+03  0.17726807276E+03  0.89560299372E+02 0.  0.
        254    2    1    2    0    0  0.12796389004E+02  0.20417838431E+02 -0.16955685941E+03  0.90989455346E+03  0.89363187843E+03 0.  0.
         23    2    4    4    0    0  0.34021317370E+03 -0.25848514063E+03 -0.17239813427E+03  0.46968580410E+03  0.91236321625E+02 0.  0.
         23    2    4    4    0    0 -0.32741678470E+03  0.27890297906E+03  0.28412748632E+01  0.44020874936E+03  0.93739252937E+02 0.  0.
          3    1    3    3  502    0 -0.30072187126E+02  0.23291349359E+02 -0.10405591167E+03  0.11079014463E+03  0.00000000000E+00 0. -1.
         -3    1    3    3    0  502  0.17275798121E+02 -0.43709187790E+02 -0.47014557639E+02  0.66477928126E+02  0.00000000000E+00 0.  1.
         13    1    5    5    0    0  0.30865599815E+03 -0.23063606339E+03 -0.12229217736E+03  0.40424855667E+03  0.00000000000E+00 0. -1.
        -13    1    5    5    0    0  0.31557175554E+02 -0.27849077238E+02 -0.50105956918E+02  0.65437247426E+02  0.00000000000E+00 0.  1.
          2    1    6    6  503    0 -0.28440183783E+03  0.22013913154E+03 -0.28819037698E+02  0.36079936187E+03  0.00000000000E+00 0. -1.
         -2    1    6    6    0  503 -0.43014946871E+02  0.58763847524E+02  0.31660312561E+02  0.79409387490E+02  0.00000000000E+00 0.  1.
<mgrwt>
<rscale>  0 0.10388073E+04</rscale>
<asrwt>0</asrwt>
<pdfrwt beam="1">  1        1 0.10829154E+00 0.10388073E+04</pdfrwt>
<pdfrwt beam="2">  1       -1 0.58964254E-01 0.10388073E+04</pdfrwt>
<totfact> 0.78786621E+01</totfact>
</mgrwt>
</event>
<event>
12    3  0.4192740E-008  0.1305868E+04  0.7818608E-02  0.9024925E-01
          1   -1    0    0  501    0  0.00000000000E+00  0.00000000000E+00  0.51687900133E+03  0.51687900133E+03  0.00000000000E+00 0. -1.
         -1   -1    0    0    0  501 -0.00000000000E+00 -0.00000000000E+00 -0.82480145005E+03  0.82480145005E+03  0.00000000000E+00 0.  1.
         23    2    1    2    0    0 -0.20208430027E+03  0.21253334583E+03 -0.24538406405E+03  0.39244845264E+03  0.88283416230E+02 0.  0.
        254    2    1    2    0    0  0.20208430027E+03 -0.21253334583E+03 -0.62538384659E+02  0.94923199874E+03  0.90062303456E+03 0.  0.
         23    2    4    4    0    0  0.45136698511E+03 -0.25395897023E+03 -0.28738236660E+03  0.59889508815E+03  0.88653190415E+02 0.  0.
         23    2    4    4    0    0 -0.24928268484E+03  0.41425624397E+02  0.22484398194E+03  0.35033691059E+03  0.91231548222E+02 0.  0.
          4    1    3    3  502    0 -0.19431577236E+03  0.22044709429E+03 -0.22849423644E+03  0.37224341076E+03  0.00000000000E+00 0.  1.
         -4    1    3    3    0  502 -0.77685279107E+01 -0.79137484570E+01 -0.16889827611E+02  0.20205041878E+02  0.00000000000E+00 0. -1.
         13    1    5    5    0    0  0.26720384629E+03 -0.17792744768E+03 -0.21745025769E+03  0.38773790978E+03  0.00000000000E+00 0.  1.
        -13    1    5    5    0    0  0.18416313882E+03 -0.76031522552E+02 -0.69932108906E+02  0.21115717837E+03  0.00000000000E+00 0. -1.
          4    1    6    6  503    0 -0.15501645456E+03  0.53546064690E+02  0.95348820267E+02  0.18970682580E+03  0.00000000000E+00 0. -1.
         -4    1    6    6    0  503 -0.94266230278E+02 -0.12120440293E+02  0.12949516167E+03  0.16063008479E+03  0.00000000000E+00 0.  1.
<mgrwt>
<rscale>  0 0.13058676E+04</rscale>
<asrwt>0</asrwt>
<pdfrwt beam="1">  1        1 0.79519846E-01 0.13058676E+04</pdfrwt>
<pdfrwt beam="2">  1       -1 0.12689253E+00 0.13058676E+04</pdfrwt>
<totfact> 0.22412081E+01</totfact>
</mgrwt>
</event>
<event>
12    3  0.4192740E-008  0.2583860E+04  0.7818608E-02  0.8373704E-01
          2   -1    0    0  501    0  0.00000000000E+00  0.00000000000E+00  0.22574044678E+04  0.22574044678E+04  0.00000000000E+00 0. -1.
         -2   -1    0    0    0  501 -0.00000000000E+00 -0.00000000000E+00 -0.73938124019E+03  0.73938124019E+03  0.00000000000E+00 0.  1.
         23    2    1    2    0    0 -0.61472585826E+03 -0.20091989849E+03 -0.41881028805E+03  0.77603509443E+03  0.92583605371E+02 0.  0.
        254    2    1    2    0    0  0.61472585826E+03  0.20091989849E+03  0.19368335157E+04  0.22207506136E+04  0.87301347861E+03 0.  0.
         23    2    4    4    0    0  0.46498068258E+03  0.49920841740E+03  0.15821869120E+04  0.17251680582E+04  0.86448397738E+02 0.  0.
         23    2    4    4    0    0  0.14974517568E+03 -0.29828851891E+03  0.35464660370E+03  0.49558255536E+03  0.91805215043E+02 0.  0.
          1    1    3    3  502    0 -0.22068703264E+03 -0.32707761309E+02 -0.17095595000E+03  0.28106671960E+03  0.00000000000E+00 0. -1.
         -1    1    3    3    0  502 -0.39403882562E+03 -0.16821213718E+03 -0.24785433805E+03  0.49496837483E+03  0.00000000000E+00 0.  1.
         13    1    5    5    0    0  0.46218915904E+03  0.50123098936E+03  0.15568533676E+04  0.16996010507E+04  0.00000000000E+00 0.  1.
        -13    1    5    5    0    0  0.27915235426E+01 -0.20225719600E+01  0.25333544388E+02  0.25567007495E+02  0.00000000000E+00 0. -1.
          4    1    6    6  503    0  0.35378492594E+02 -0.40853857104E+02  0.18756910426E+02  0.57205743306E+02  0.00000000000E+00 0. -1.
         -4    1    6    6    0  503  0.11436668309E+03 -0.25743466181E+03  0.33588969327E+03  0.43837681206E+03  0.00000000000E+00 0.  1.
<mgrwt>
<rscale>  0 0.25838595E+04</rscale>
<asrwt>0</asrwt>
<pdfrwt beam="1">  1        2 0.34729299E+00 0.25838595E+04</pdfrwt>
<pdfrwt beam="2">  1       -2 0.11375096E+00 0.25838595E+04</pdfrwt>
<totfact> 0.25704029E+00</totfact>
</mgrwt>
</event>
<event>
12    3  0.4192740E-008  0.1733783E+04  0.7818608E-02  0.8742328E-01
          2   -1    0    0  501    0  0.00000000000E+00  0.00000000000E+00  0.26664261363E+04  0.26664261363E+04  0.00000000000E+00 0. -1.
         -2   -1    0    0    0  501 -0.00000000000E+00 -0.00000000000E+00 -0.28183824840E+03  0.28183824840E+03  0.00000000000E+00 0.  1.
         23    2    1    2    0    0  0.25048322489E+03 -0.31493491668E+03  0.17098345638E+04  0.17589061607E+04  0.91053824322E+02 0.  0.
        254    2    1    2    0    0 -0.25048322489E+03  0.31493491668E+03  0.67475332414E+03  0.11893582240E+04  0.89294741668E+03 0.  0.
         23    2    4    4    0    0  0.13210124059E+03  0.24809958255E+03 -0.10334899420E+03  0.31469652992E+03  0.96688937894E+02 0.  0.
         23    2    4    4    0    0 -0.38258446548E+03  0.66835334123E+02  0.77810231834E+03  0.87466169412E+03  0.93552264786E+02 0.  0.
          1    1    3    3  502    0  0.11920877128E+03 -0.83961178178E+02  0.66838243952E+03  0.68410181702E+03  0.00000000000E+00 0. -1.
         -1    1    3    3    0  502  0.13127445360E+03 -0.23097373850E+03  0.10414521243E+04  0.10748043437E+04  0.00000000000E+00 0.  1.
         13    1    5    5    0    0  0.14203407554E+03  0.24068871193E+03 -0.84188330949E+02  0.29187738818E+03  0.00000000000E+00 0.  1.
        -13    1    5    5    0    0 -0.99328349462E+01  0.74108706273E+01 -0.19160663248E+02  0.22819141737E+02  0.00000000000E+00 0. -1.
          3    1    6    6  503    0 -0.95371084575E+02  0.31201240389E+02  0.29389593626E+03  0.31055431494E+03  0.00000000000E+00 0. -1.
         -3    1    6    6    0  503 -0.28721338090E+03  0.35634093734E+02  0.48420638208E+03  0.56410737919E+03  0.00000000000E+00 0.  1.
<mgrwt>
<rscale>  0 0.17337830E+04</rscale>
<asrwt>0</asrwt>
<pdfrwt beam="1">  1        2 0.41021939E+00 0.17337830E+04</pdfrwt>
<pdfrwt beam="2">  1       -2 0.43359732E-01 0.17337830E+04</pdfrwt>
<totfact> 0.13338960E+01</totfact>
</mgrwt>
</event>
<event>
12    3  0.4192740E-008  0.1501600E+04  0.7818608E-02  0.8883390E-01
         -2   -1    0    0    0  501 -0.00000000000E+00  0.00000000000E+00  0.10120412843E+04  0.10120412843E+04  0.00000000000E+00 0. -1.
          2   -1    0    0  501    0  0.00000000000E+00 -0.00000000000E+00 -0.55699351686E+03  0.55699351686E+03  0.00000000000E+00 0.  1.
         23    2    1    2    0    0  0.17440909066E+03 -0.36630576102E+03  0.40553872669E+03  0.58086235967E+03  0.91328968982E+02 0.  0.
        254    2    1    2    0    0 -0.17440909066E+03  0.36630576102E+03  0.49509040762E+02  0.98817244151E+03  0.89968616060E+03 0.  0.
         23    2    4    4    0    0 -0.23197476398E+03  0.58790864233E+03  0.23225811409E+03  0.67953352991E+03  0.91504775085E+02 0.  0.
         23    2    4    4    0    0  0.57565673327E+02 -0.22160288130E+03 -0.18274907332E+03  0.30863891160E+03  0.97155083265E+02 0.  0.
          1    1    3    3  502    0  0.15755535133E+03 -0.29492972703E+03  0.28302815181E+03  0.43807780968E+03  0.00000000000E+00 0. -1.
         -1    1    3    3    0  502  0.16853739323E+02 -0.71376033991E+02  0.12251057488E+03  0.14278454999E+03  0.00000000000E+00 0.  1.
         13    1    5    5    0    0 -0.39268717314E+02  0.56269169521E+02  0.11036663350E+01  0.68625575972E+02  0.00000000000E+00 0.  1.
        -13    1    5    5    0    0 -0.19270604667E+03  0.53163947281E+03  0.23115444775E+03  0.61090795394E+03  0.00000000000E+00 0. -1.
          3    1    6    6  503    0  0.31511294357E+02 -0.20570799992E+03 -0.18443291991E+03  0.27807237341E+03  0.00000000000E+00 0. -1.
         -3    1    6    6    0  503  0.26054378971E+02 -0.15894881380E+02  0.16838465899E+01  0.30566538191E+02  0.00000000000E+00 0.  1.
<mgrwt>
<rscale>  0 0.15015997E+04</rscale>
<asrwt>0</asrwt>
<pdfrwt beam="1">  1        2 0.85691310E-01 0.15015997E+04</pdfrwt>
<pdfrwt beam="2">  1       -2 0.15569866E+00 0.15015997E+04</pdfrwt>
<totfact> 0.14197046E+01</totfact>
</mgrwt>
</event>
<event>
12    3  0.4192740E-008  0.1174844E+04  0.7818608E-02  0.9135165E-01
         -2   -1    0    0    0  501 -0.00000000000E+00  0.00000000000E+00  0.53712185807E+03  0.53712185807E+03  0.00000000000E+00 0. -1.
          2   -1    0    0  501    0  0.00000000000E+00 -0.00000000000E+00 -0.64243292958E+03  0.64243292958E+03  0.00000000000E+00 0.  1.
         23    2    1    2    0    0 -0.15496276304E+02 -0.49011189216E+02 -0.25466551011E+03  0.27572918248E+03  0.92357072204E+02 0.  0.
        254    2    1    2    0    0  0.15496276304E+02  0.49011189216E+02  0.14935443860E+03  0.90382560517E+03  0.88991670677E+03 0.  0.
         23    2    4    4    0    0 -0.16690209177E+03  0.21617737014E+03 -0.27977722854E+03  0.40041763946E+03  0.86429305115E+02 0.  0.
         23    2    4    4    0    0  0.18239836808E+03 -0.16716618092E+03  0.42913166713E+03  0.50340796571E+03  0.89732354720E+02 0.  0.
          2    1    3    3  502    0 -0.49808935299E+02 -0.19367038348E+02 -0.18534039933E+03  0.19289135759E+03  0.00000000000E+00 0.  1.
         -2    1    3    3    0  502  0.34312658995E+02 -0.29644150868E+02 -0.69325110774E+02  0.82837824886E+02  0.00000000000E+00 0. -1.
         13    1    5    5    0    0 -0.10117104388E+03  0.11844727995E+03 -0.21650328769E+03  0.26671897538E+03  0.00000000000E+00 0. -1.
        -13    1    5    5    0    0 -0.65731047896E+02  0.97730090194E+02 -0.63273940848E+02  0.13369866408E+03  0.00000000000E+00 0.  1.
          1    1    6    6  503    0  0.66277610336E+01 -0.22872552580E+02  0.85875622111E+01  0.25314563053E+02  0.00000000000E+00 0. -1.
         -1    1    6    6    0  503  0.17577060704E+03 -0.14429362835E+03  0.42054410492E+03  0.47809340266E+03  0.00000000000E+00 0.  1.
<mgrwt>
<rscale>  0 0.11748443E+04</rscale>
<asrwt>0</asrwt>
<pdfrwt beam="1">  1        2 0.98835835E-01 0.11748443E+04</pdfrwt>
<pdfrwt beam="2">  1       -2 0.82634132E-01 0.11748443E+04</pdfrwt>
<totfact> 0.57954912E+01</totfact>
</mgrwt>
</event>
<event>
12    3  0.4192740E-008  0.1396696E+04  0.7818608E-02  0.8956214E-01
         -2   -1    0    0    0  501 -0.00000000000E+00  0.00000000000E+00  0.32053142196E+03  0.32053142196E+03  0.00000000000E+00 0.  1.
          2   -1    0    0  501    0  0.00000000000E+00 -0.00000000000E+00 -0.15215037579E+04  0.15215037579E+04  0.00000000000E+00 0. -1.
         23    2    1    2    0    0 -0.72899345840E+01  0.11735591542E+03 -0.85918872951E+03  0.87194725381E+03  0.90891069327E+02 0.  0.
        254    2    1    2    0    0  0.72899345840E+01 -0.11735591542E+03 -0.34178360642E+03  0.97008792605E+03  0.90023829991E+03 0.  0.
         23    2    4    4    0    0 -0.39896780656E+03 -0.65100813036E+02  0.21500041542E+02  0.41489424846E+03  0.90893119043E+02 0.  0.
         23    2    4    4    0    0  0.40625774114E+03 -0.52255102380E+02 -0.36328364796E+03  0.55519367759E+03  0.92136110160E+02 0.  0.
          2    1    3    3  502    0  0.27184380619E+02  0.90874469845E+02 -0.71742036424E+03  0.72366369181E+03  0.00000000000E+00 0. -1.
         -2    1    3    3    0  502 -0.34474315203E+02  0.26481445571E+02 -0.14176836526E+03  0.14828356199E+03  0.00000000000E+00 0.  1.
         13    1    5    5    0    0 -0.31621391858E+03 -0.17212287004E+02 -0.94647418179E+00  0.31668343963E+03  0.00000000000E+00 0.  1.
        -13    1    5    5    0    0 -0.82753887982E+02 -0.47888526032E+02  0.22446515723E+02  0.98210808824E+02  0.00000000000E+00 0. -1.
          1    1    6    6  503    0  0.18749136229E+01 -0.55365547338E+01  0.38662788362E+01  0.70083415622E+01  0.00000000000E+00 0. -1.
         -1    1    6    6    0  503  0.40438282752E+03 -0.46718547646E+02 -0.36714992680E+03  0.54818533603E+03  0.00000000000E+00 0.  1.
<mgrwt>
<rscale>  0 0.13966958E+04</rscale>
<asrwt>0</asrwt>
<pdfrwt beam="1">  1        2 0.23407750E+00 0.13966958E+04</pdfrwt>
<pdfrwt beam="2">  1       -2 0.49312527E-01 0.13966958E+04</pdfrwt>
<totfact> 0.46768422E+01</totfact>
</mgrwt>
</event>
<event>
12    3  0.4192740E-008  0.3463879E+04  0.7818608E-02  0.8122404E-01
          2   -1    0    0  501    0  0.00000000000E+00  0.00000000000E+00  0.24151804838E+04  0.24151804838E+04  0.00000000000E+00 0. -1.
         -2   -1    0    0    0  501 -0.00000000000E+00 -0.00000000000E+00 -0.12419833185E+04  0.12419833185E+04  0.00000000000E+00 0.  1.
         23    2    1    2    0    0  0.35151875260E+03  0.20924154130E+03  0.21803321575E+04  0.22201104222E+04  0.87718377265E+02 0.  0.
        254    2    1    2    0    0 -0.35151875260E+03 -0.20924154130E+03 -0.10071349922E+04  0.14370533801E+04  0.93992237380E+03 0.  0.
         23    2    4    4    0    0  0.49181771558E+02 -0.54591784409E+02 -0.99072346874E+03  0.99747124193E+03  0.89536458479E+02 0.  0.
         23    2    4    4    0    0 -0.40070052415E+03 -0.15464975689E+03 -0.16411523504E+02  0.43958213821E+03  0.92117646346E+02 0.  0.
          2    1    3    3  502    0  0.16929824151E+03  0.50516754079E+02  0.93769257685E+03  0.95419138840E+03  0.00000000000E+00 0. -1.
         -2    1    3    3    0  502  0.18222051108E+03  0.15872478723E+03  0.12426395807E+04  0.12659190338E+04  0.00000000000E+00 0.  1.
         13    1    5    5    0    0 -0.18056390015E+02  0.11553267050E+02 -0.19746152730E+03  0.19862166540E+03  0.00000000000E+00 0. -1.
        -13    1    5    5    0    0  0.67238161573E+02 -0.66145051459E+02 -0.79326194144E+03  0.79884957654E+03  0.00000000000E+00 0.  1.
          4    1    6    6  503    0 -0.28396792977E+02 -0.28530049944E+02 -0.23156292851E+02  0.46438728447E+02  0.00000000000E+00 0. -1.
         -4    1    6    6    0  503 -0.37230373118E+03 -0.12611970695E+03  0.67447693471E+01  0.39314340977E+03  0.00000000000E+00 0.  1.
<mgrwt>
<rscale>  0 0.34638787E+04</rscale>
<asrwt>0</asrwt>
<pdfrwt beam="1">  1        2 0.37156623E+00 0.34638787E+04</pdfrwt>
<pdfrwt beam="2">  1       -2 0.19107436E+00 0.34638787E+04</pdfrwt>
<totfact> 0.48952659E-01</totfact>
</mgrwt>
</event>
<event>
12    3  0.4192740E-008  0.2045892E+04  0.7818608E-02  0.8585460E-01
          1   -1    0    0  501    0  0.00000000000E+00  0.00000000000E+00  0.58139511676E+03  0.58139511676E+03  0.00000000000E+00 0. -1.
         -1   -1    0    0    0  501 -0.00000000000E+00 -0.00000000000E+00 -0.17998406477E+04  0.17998406477E+04  0.00000000000E+00 0.  1.
         23    2    1    2    0    0 -0.16325011997E+03 -0.78673061726E+03 -0.30245379774E+03  0.86421165085E+03  0.98933370946E+02 0.  0.
        254    2    1    2    0    0  0.16325011997E+03  0.78673061726E+03 -0.91599173320E+03  0.15170241136E+04  0.90372874259E+03 0.  0.
         23    2    4    4    0    0 -0.23165940714E+03  0.25814008678E+02  0.10497592402E+02  0.25145069356E+03  0.93727305975E+02 0.  0.
         23    2    4    4    0    0  0.39490952712E+03  0.76091660858E+03 -0.92648932561E+03  0.12655734200E+04  0.91356396849E+02 0.  0.
          2    1    3    3  502    0 -0.19201657526E+02 -0.77827939002E+02 -0.61031836519E-01  0.80161683278E+02  0.00000000000E+00 0.  1.
         -2    1    3    3    0  502 -0.14404846245E+03 -0.70890267826E+03 -0.30239276590E+03  0.78404996757E+03  0.00000000000E+00 0. -1.
         13    1    5    5    0    0 -0.20685705716E+03  0.50172380387E+02  0.23902285430E+02  0.21419250477E+03  0.00000000000E+00 0.  1.
        -13    1    5    5    0    0 -0.24802349982E+02 -0.24358371709E+02 -0.13404693028E+02  0.37258188793E+02  0.00000000000E+00 0. -1.
          1    1    6    6  503    0  0.85601522529E+00  0.25646774240E+02 -0.13993314112E+02  0.29228455841E+02  0.00000000000E+00 0. -1.
         -1    1    6    6    0  503  0.39405351189E+03  0.73526983434E+03 -0.91249601149E+03  0.12363449642E+04  0.00000000000E+00 0.  1.
<mgrwt>
<rscale>  0 0.20458920E+04</rscale>
<asrwt>0</asrwt>
<pdfrwt beam="1">  1        1 0.89445405E-01 0.20458920E+04</pdfrwt>
<pdfrwt beam="2">  1       -1 0.27689856E+00 0.20458920E+04</pdfrwt>
<totfact> 0.15440454E+00</totfact>
</mgrwt>
</event>
<event>
12    3  0.4192740E-008  0.1283689E+04  0.7818608E-02  0.9042600E-01
          2   -1    0    0  501    0  0.00000000000E+00  0.00000000000E+00  0.15820225056E+04  0.15820225056E+04  0.00000000000E+00 0. -1.
         -2   -1    0    0    0  501 -0.00000000000E+00 -0.00000000000E+00 -0.26040380050E+03  0.26040380050E+03  0.00000000000E+00 0.  1.
         23    2    1    2    0    0  0.30818858296E+03 -0.90329993337E+02  0.46178122521E+03  0.56979347610E+03  0.91010961347E+02 0.  0.
        254    2    1    2    0    0 -0.30818858296E+03  0.90329993337E+02  0.85983747989E+03  0.12726328300E+04  0.88155210724E+03 0.  0.
         23    2    4    4    0    0  0.68210070540E+02  0.29862444234E+03  0.75661912353E+03  0.82132023869E+03  0.90913503437E+02 0.  0.
         23    2    4    4    0    0 -0.37639865350E+03 -0.20829444900E+03  0.10321835636E+03  0.45131259130E+03  0.89255263927E+02 0.  0.
          2    1    3    3  502    0  0.13355823682E+03 -0.64162311392E+01  0.24452776138E+03  0.27869839743E+03  0.00000000000E+00 0. -1.
         -2    1    3    3    0  502  0.17463034614E+03 -0.83913762198E+02  0.21725346383E+03  0.29109507867E+03  0.00000000000E+00 0.  1.
         13    1    5    5    0    0  0.52978480113E+02  0.28552031989E+03  0.63758260547E+03  0.70059985100E+03  0.00000000000E+00 0. -1.
        -13    1    5    5    0    0  0.15231590426E+02  0.13104122447E+02  0.11903651805E+03  0.12072038768E+03  0.00000000000E+00 0.  1.
          4    1    6    6  503    0 -0.34739365734E+03 -0.20688287906E+03  0.11438775921E+03  0.42019928399E+03  0.00000000000E+00 0. -1.
         -4    1    6    6    0  503 -0.29004996159E+02 -0.14115699420E+01 -0.11169402853E+02  0.31113307313E+02  0.00000000000E+00 0.  1.
<mgrwt>
<rscale>  0 0.12836895E+04</rscale>
<asrwt>0</asrwt>
<pdfrwt beam="1">  1        2 0.24338807E+00 0.12836895E+04</pdfrwt>
<pdfrwt beam="2">  1       -2 0.40062124E-01 0.12836895E+04</pdfrwt>
<totfact> 0.66014091E+01</totfact>
</mgrwt>
</event>
<event>
12    3  0.4192740E-008  0.1726369E+04  0.7818608E-02  0.8746467E-01
          1   -1    0    0  501    0  0.00000000000E+00  0.00000000000E+00  0.54633679978E+03  0.54633679978E+03  0.00000000000E+00 0. -1.
         -1   -1    0    0    0  501 -0.00000000000E+00 -0.00000000000E+00 -0.13637875166E+04  0.13637875166E+04  0.00000000000E+00 0.  1.
         23    2    1    2    0    0 -0.52435449651E+03  0.10058127714E+03  0.61117982739E+02  0.54487697346E+03  0.89951526227E+02 0.  0.
        254    2    1    2    0    0  0.52435449651E+03 -0.10058127714E+03 -0.87856869957E+03  0.13652473429E+04  0.89830569194E+03 0.  0.
         23    2    4    4    0    0  0.67437987778E+03  0.15308834844E+03 -0.76998189787E+03  0.10390518864E+04  0.92371194809E+02 0.  0.
         23    2    4    4    0    0 -0.15002538127E+03 -0.25366962559E+03 -0.10858680170E+03  0.32619545651E+03  0.88070928090E+02 0.  0.
          2    1    3    3  502    0 -0.28198766023E+02 -0.50028903327E+01 -0.14341577367E+02  0.32029364001E+02  0.00000000000E+00 0.  1.
         -2    1    3    3    0  502 -0.49615573049E+03  0.10558416748E+03  0.75459560106E+02  0.51284760946E+03  0.00000000000E+00 0. -1.
         13    1    5    5    0    0  0.10742900264E+03 -0.66161012805E+01 -0.99304346226E+02  0.14644492679E+03  0.00000000000E+00 0. -1.
        -13    1    5    5    0    0  0.56695087514E+03  0.15970444972E+03 -0.67067755165E+03  0.89260695962E+03  0.00000000000E+00 0.  1.
          3    1    6    6  503    0 -0.10303251990E+03 -0.19152724480E+03 -0.37426746253E+02  0.22067883223E+03  0.00000000000E+00 0.  1.
         -3    1    6    6    0  503 -0.46992861368E+02 -0.62142380787E+02 -0.71160055442E+02  0.10551662428E+03  0.00000000000E+00 0. -1.
<mgrwt>
<rscale>  0 0.17263688E+04</rscale>
<asrwt>0</asrwt>
<pdfrwt beam="1">  1        1 0.84051816E-01 0.17263688E+04</pdfrwt>
<pdfrwt beam="2">  1       -1 0.20981346E+00 0.17263688E+04</pdfrwt>
<totfact> 0.47932273E+00</totfact>
</mgrwt>
</event>
<event>
12    3  0.4192740E-008  0.1495989E+04  0.7818608E-02  0.8887125E-01
          2   -1    0    0  501    0  0.00000000000E+00  0.00000000000E+00  0.33523716198E+04  0.33523716198E+04  0.00000000000E+00 0.  1.
         -2   -1    0    0    0  501 -0.00000000000E+00 -0.00000000000E+00 -0.16689547005E+03  0.16689547005E+03  0.00000000000E+00 0. -1.
         23    2    1    2    0    0  0.93651248771E+02 -0.33163291723E+03  0.26564397875E+03  0.44378334261E+03  0.87326877548E+02 0.  0.
        254    2    1    2    0    0 -0.93651248771E+02  0.33163291723E+03  0.29198321710E+04  0.30754837472E+04  0.90245743640E+03 0.  0.
         23    2    4    4    0    0  0.22107725345E+03 -0.14402122134E+03  0.17368925747E+04  0.17589888453E+04  0.87342302293E+02 0.  0.
         23    2    4    4    0    0 -0.31472850222E+03  0.47565413858E+03  0.11829395963E+04  0.13164949019E+04  0.92259680115E+02 0.  0.
          3    1    3    3  502    0  0.49692846198E+02 -0.26815744732E+03  0.17207442009E+03  0.32247077630E+03  0.00000000000E+00 0. -1.
         -3    1    3    3    0  502  0.43958402573E+02 -0.63475469913E+02  0.93569558657E+02  0.12131256631E+03  0.00000000000E+00 0.  1.
         13    1    5    5    0    0  0.15531725882E+03 -0.54381929052E+02  0.92568298633E+03  0.94019670084E+03  0.00000000000E+00 0.  1.
        -13    1    5    5    0    0  0.65759994629E+02 -0.89639292293E+02  0.81120958838E+03  0.81879214450E+03  0.00000000000E+00 0. -1.
          4    1    6    6  503    0 -0.28783323058E+03  0.37924257764E+03  0.93852273449E+03  0.10523772254E+04  0.00000000000E+00 0. -1.
         -4    1    6    6    0  503 -0.26895271645E+02  0.96411560937E+02  0.24441686178E+03  0.26411767651E+03  0.00000000000E+00 0.  1.
<mgrwt>
<rscale>  0 0.14959888E+04</rscale>
<asrwt>0</asrwt>
<pdfrwt beam="1">  1        2 0.51574943E+00 0.14959888E+04</pdfrwt>
<pdfrwt beam="2">  1       -2 0.25676229E-01 0.14959888E+04</pdfrwt>
<totfact> 0.13731199E+01</totfact>
</mgrwt>
</event>
<event>
12    3  0.4192740E-008  0.1627189E+04  0.7818608E-02  0.8804016E-01
          1   -1    0    0  501    0  0.00000000000E+00  0.00000000000E+00  0.26652940445E+04  0.26652940445E+04  0.00000000000E+00 0. -1.
         -1   -1    0    0    0  501 -0.00000000000E+00 -0.00000000000E+00 -0.24835397318E+03  0.24835397318E+03  0.00000000000E+00 0.  1.
         23    2    1    2    0    0 -0.53110469231E+03  0.22734383920E+03  0.10208242076E+04  0.11758870112E+04  0.82890198372E+02 0.  0.
        254    2    1    2    0    0  0.53110469231E+03 -0.22734383920E+03  0.13961158638E+04  0.17377610065E+04  0.85843834673E+03 0.  0.
         23    2    4    4    0    0  0.37053402426E+03 -0.36381893191E+03  0.27799838217E+03  0.59626862321E+03  0.92701090548E+02 0.  0.
         23    2    4    4    0    0  0.16057066805E+03  0.13647509270E+03  0.11181174816E+04  0.11414923833E+04  0.91704787419E+02 0.  0.
          3    1    3    3  502    0 -0.96014617172E+02  0.53113433463E+02  0.13738845904E+03  0.17582784820E+03  0.00000000000E+00 0. -1.
         -3    1    3    3    0  502 -0.43509007514E+03  0.17423040574E+03  0.88343574854E+03  0.10000591630E+04  0.00000000000E+00 0.  1.
         13    1    5    5    0    0  0.31380572843E+02 -0.57418995952E+01  0.31768029507E+02  0.45021300089E+02  0.00000000000E+00 0. -1.
        -13    1    5    5    0    0  0.33915345141E+03 -0.35807703231E+03  0.24623035267E+03  0.55124732312E+03  0.00000000000E+00 0.  1.
          1    1    6    6  503    0 -0.14367491299E+00  0.14986453779E+02  0.24393919840E+03  0.24439915498E+03  0.00000000000E+00 0. -1.
         -1    1    6    6    0  503  0.16071434297E+03  0.12148863892E+03  0.87417828318E+03  0.89709322827E+03  0.00000000000E+00 0.  1.
<mgrwt>
<rscale>  0 0.16271894E+04</rscale>
<asrwt>0</asrwt>
<pdfrwt beam="1">  1        1 0.41004522E+00 0.16271894E+04</pdfrwt>
<pdfrwt beam="2">  1       -1 0.38208306E-01 0.16271894E+04</pdfrwt>
<totfact> 0.66005452E+00</totfact>
</mgrwt>
</event>
<event>
12    3  0.4192740E-008  0.1293831E+04  0.7818608E-02  0.9034472E-01
          2   -1    0    0  501    0  0.00000000000E+00  0.00000000000E+00  0.96400950050E+03  0.96400950050E+03  0.00000000000E+00 0. -1.
         -2   -1    0    0    0  501 -0.00000000000E+00 -0.00000000000E+00 -0.43412383176E+03  0.43412383176E+03  0.00000000000E+00 0.  1.
         23    2    1    2    0    0 -0.20117296121E+03 -0.63043503177E+02 -0.11406251177E+03  0.25788960564E+03  0.95140677373E+02 0.  0.
        254    2    1    2    0    0  0.20117296121E+03  0.63043503177E+02  0.64394818050E+03  0.11402437266E+04  0.91708312236E+03 0.  0.
         23    2    4    4    0    0 -0.33844408689E+02  0.23312964694E+03 -0.14742437414E+03  0.29228665281E+03  0.90568565407E+02 0.  0.
         23    2    4    4    0    0  0.23501736990E+03 -0.17008614376E+03  0.79137255464E+03  0.84795707381E+03  0.92726578313E+02 0.  0.
          3    1    3    3  502    0 -0.84187251504E+02  0.12233154316E+02 -0.13268289097E+02  0.86099888943E+02  0.00000000000E+00 0. -1.
         -3    1    3    3    0  502 -0.11698570970E+03 -0.75276657493E+02 -0.10079422267E+03  0.17178971670E+03  0.00000000000E+00 0.  1.
         13    1    5    5    0    0 -0.31014916743E+01  0.28355963149E+01 -0.33063240579E+02  0.33329232434E+02  0.00000000000E+00 0. -1.
        -13    1    5    5    0    0 -0.30742917015E+02  0.23029405062E+03 -0.11436113356E+03  0.25895742038E+03  0.00000000000E+00 0.  1.
          4    1    6    6  503    0  0.33323696153E+02 -0.31783801941E+02  0.24584445549E+03  0.25012032122E+03  0.00000000000E+00 0.  1.
         -4    1    6    6    0  503  0.20169367374E+03 -0.13830234182E+03  0.54552809915E+03  0.59783675259E+03  0.00000000000E+00 0. -1.
<mgrwt>
<rscale>  0 0.12938307E+04</rscale>
<asrwt>0</asrwt>
<pdfrwt beam="1">  1        2 0.14830915E+00 0.12938307E+04</pdfrwt>
<pdfrwt beam="2">  1       -2 0.66788282E-01 0.12938307E+04</pdfrwt>
<totfact> 0.53678165E+01</totfact>
</mgrwt>
</event>
<event>
12    3  0.4192740E-008  0.1491378E+04  0.7818608E-02  0.8890207E-01
          2   -1    0    0  501    0  0.00000000000E+00  0.00000000000E+00  0.11238382704E+04  0.11238382704E+04  0.00000000000E+00 0.  1.
         -2   -1    0    0    0  501 -0.00000000000E+00 -0.00000000000E+00 -0.49477933766E+03  0.49477933766E+03  0.00000000000E+00 0. -1.
         23    2    1    2    0    0 -0.45153221110E+03 -0.21653671057E+02  0.60926099998E+02  0.46497672966E+03  0.90228323348E+02 0.  0.
        254    2    1    2    0    0  0.45153221110E+03  0.21653671057E+02  0.56813283279E+03  0.11536408784E+04  0.89652782534E+03 0.  0.
         23    2    4    4    0    0  0.13383633262E+03  0.21419545039E+03 -0.17316891852E+03  0.31886742545E+03  0.88865661389E+02 0.  0.
         23    2    4    4    0    0  0.31769587848E+03 -0.19254177933E+03  0.74130175131E+03  0.83477345300E+03  0.96516440815E+02 0.  0.
          2    1    3    3  502    0 -0.29847872159E+03 -0.53265321918E+02  0.57842197160E+02  0.30866237467E+03  0.00000000000E+00 0. -1.
         -2    1    3    3    0  502 -0.15305348951E+03  0.31611650862E+02  0.30839028385E+01  0.15631435499E+03  0.00000000000E+00 0.  1.
         13    1    5    5    0    0  0.37047596367E+01  0.25748759355E+02 -0.55723205215E+02  0.61496336897E+02  0.00000000000E+00 0. -1.
        -13    1    5    5    0    0  0.13013157298E+03  0.18844669103E+03 -0.11744571331E+03  0.25737108855E+03  0.00000000000E+00 0.  1.
          2    1    6    6  503    0  0.19090011520E+03 -0.83123635432E+02  0.32419033862E+03  0.38529439187E+03  0.00000000000E+00 0. -1.
         -2    1    6    6    0  503  0.12679576328E+03 -0.10941814390E+03  0.41711141269E+03  0.44947906113E+03  0.00000000000E+00 0.  1.
<mgrwt>
<rscale>  0 0.14913778E+04</rscale>
<asrwt>0</asrwt>
<pdfrwt beam="1">  1        2 0.17289819E+00 0.14913778E+04</pdfrwt>
<pdfrwt beam="2">  1       -2 0.76119899E-01 0.14913778E+04</pdfrwt>
<totfact> 0.31468013E+01</totfact>
</mgrwt>
</event>
<event>
12    3  0.4192740E-008  0.2380302E+04  0.7818608E-02  0.8446915E-01
          2   -1    0    0  501    0  0.00000000000E+00  0.00000000000E+00  0.11010509328E+04  0.11010509328E+04  0.00000000000E+00 0. -1.
         -2   -1    0    0    0  501 -0.00000000000E+00 -0.00000000000E+00 -0.12864612438E+04  0.12864612438E+04  0.00000000000E+00 0.  1.
         23    2    1    2    0    0 -0.50647387529E+03 -0.78786265091E+03 -0.47486825109E+03  0.10540619252E+04  0.91122682737E+02 0.  0.
        254    2    1    2    0    0  0.50647387529E+03  0.78786265091E+03  0.28945794012E+03  0.13334502514E+04  0.90391389570E+03 0.  0.
         23    2    4    4    0    0  0.16889300031E+03  0.39446808915E+03  0.58394389274E+03  0.73021881875E+03  0.89995191408E+02 0.  0.
         23    2    4    4    0    0  0.33758087498E+03  0.39339456176E+03 -0.29448595262E+03  0.60323143266E+03  0.91902430224E+02 0.  0.
          1    1    3    3  502    0 -0.89838483149E+02 -0.10112962210E+03 -0.96548298764E+02  0.16619183950E+03  0.00000000000E+00 0. -1.
         -1    1    3    3    0  502 -0.41663539214E+03 -0.68673302881E+03 -0.37831995232E+03  0.88787008575E+03  0.00000000000E+00 0.  1.
         13    1    5    5    0    0  0.73883970918E+02  0.80469933384E+02  0.12385304190E+03  0.16514789531E+03  0.00000000000E+00 0.  1.
        -13    1    5    5    0    0  0.95009029393E+02  0.31399815576E+03  0.46009085084E+03  0.56507092344E+03  0.00000000000E+00 0. -1.
          2    1    6    6  503    0  0.89112937465E+02  0.15265230677E+03 -0.13423618615E+03  0.22195313933E+03  0.00000000000E+00 0. -1.
         -2    1    6    6    0  503  0.24846793751E+03  0.24074225499E+03 -0.16024976647E+03  0.38127829333E+03  0.00000000000E+00 0.  1.
<mgrwt>
<rscale>  0 0.23803020E+04</rscale>
<asrwt>0</asrwt>
<pdfrwt beam="1">  1        2 0.16939245E+00 0.23803020E+04</pdfrwt>
<pdfrwt beam="2">  1       -2 0.19791712E+00 0.23803020E+04</pdfrwt>
<totfact> 0.26892220E+00</totfact>
</mgrwt>
</event>
<event>
12    3  0.4192740E-008  0.1876483E+04  0.7818608E-02  0.8666651E-01
         -2   -1    0    0    0  501 -0.00000000000E+00  0.00000000000E+00  0.49008469841E+03  0.49008469841E+03  0.00000000000E+00 0.  1.
          2   -1    0    0  501    0  0.00000000000E+00 -0.00000000000E+00 -0.17962148479E+04  0.17962148479E+04  0.00000000000E+00 0. -1.
         23    2    1    2    0    0 -0.39992576365E+03 -0.59784186247E+03 -0.53089787825E+03  0.89863169410E+03  0.91273520552E+02 0.  0.
        254    2    1    2    0    0  0.39992576365E+03  0.59784186247E+03 -0.77523227120E+03  0.13876678522E+04  0.89848844438E+03 0.  0.
         23    2    4    4    0    0  0.15185414257E+02  0.34176875650E+03  0.12199520425E+03  0.37421342107E+03  0.90090925896E+02 0.  0.
         23    2    4    4    0    0  0.38474034939E+03  0.25607310597E+03 -0.89722747545E+03  0.10134544311E+04  0.92055250579E+02 0.  0.
          1    1    3    3  502    0 -0.40477092293E+03 -0.58566138931E+03 -0.52183743278E+03  0.88269647627E+03  0.00000000000E+00 0. -1.
         -1    1    3    3    0  502  0.48451592835E+01 -0.12180473161E+02 -0.90604454748E+01  0.15935217825E+02  0.00000000000E+00 0.  1.
         13    1    5    5    0    0 -0.21464396156E+02  0.20956933863E+03  0.40117295140E+02  0.21445145224E+03  0.00000000000E+00 0. -1.
        -13    1    5    5    0    0  0.36649810412E+02  0.13219941786E+03  0.81877909105E+02  0.15976196883E+03  0.00000000000E+00 0.  1.
          3    1    6    6  503    0  0.27819086184E+03  0.13747068771E+03 -0.63015057681E+03  0.70240878059E+03  0.00000000000E+00 0. -1.
         -3    1    6    6    0  503  0.10654948755E+03  0.11860241826E+03 -0.26707689864E+03  0.31104565051E+03  0.00000000000E+00 0.  1.
<mgrwt>
<rscale>  0 0.18764833E+04</rscale>
<asrwt>0</asrwt>
<pdfrwt beam="1">  1        2 0.27634075E+00 0.18764833E+04</pdfrwt>
<pdfrwt beam="2">  1       -2 0.75397646E-01 0.18764833E+04</pdfrwt>
<totfact> 0.12838536E+01</totfact>
</mgrwt>
</event>
<event>
12    3  0.4192740E-008  0.1405438E+04  0.7818608E-02  0.8949892E-01
          2   -1    0    0  501    0  0.00000000000E+00  0.00000000000E+00  0.13982712354E+04  0.13982712354E+04  0.00000000000E+00 0. -1.
         -2   -1    0    0    0  501 -0.00000000000E+00 -0.00000000000E+00 -0.35316040927E+03  0.35316040927E+03  0.00000000000E+00 0.  1.
         23    2    1    2    0    0  0.39833078350E+03 -0.42775783671E+02  0.23012869607E+03  0.47104658079E+03  0.91806774088E+02 0.  0.
        254    2    1    2    0    0 -0.39833078350E+03  0.42775783671E+02  0.81498213010E+03  0.12803850639E+04  0.90260337843E+03 0.  0.
         23    2    4    4    0    0 -0.43912712756E+03  0.84367554789E+02  0.98107206710E+03  0.10821349823E+04  0.92537563765E+02 0.  0.
         23    2    4    4    0    0  0.40796344054E+02 -0.41591771118E+02 -0.16608993699E+03  0.19825008157E+03  0.91230535240E+02 0.  0.
          1    1    3    3  502    0  0.33751412008E+02 -0.29948157993E+02  0.36516088811E+02  0.58047176691E+02  0.00000000000E+00 0. -1.
         -1    1    3    3    0  502  0.36457937149E+03 -0.12827625677E+02  0.19361260726E+03  0.41299940410E+03  0.00000000000E+00 0.  1.
         13    1    5    5    0    0 -0.14752224419E+03 -0.15642314452E+02  0.31620284356E+03  0.34927314928E+03  0.00000000000E+00 0.  1.
        -13    1    5    5    0    0 -0.29160488336E+03  0.10000986924E+03  0.66486922354E+03  0.73286183306E+03  0.00000000000E+00 0. -1.
          1    1    6    6  503    0  0.51847495898E+02 -0.65777713000E+00 -0.13792183604E+03  0.14734662656E+03  0.00000000000E+00 0. -1.
         -1    1    6    6    0  503 -0.11051151844E+02 -0.40933993988E+02 -0.28168100950E+02  0.50903455011E+02  0.00000000000E+00 0.  1.
<mgrwt>
<rscale>  0 0.14054381E+04</rscale>
<asrwt>0</asrwt>
<pdfrwt beam="1">  1        2 0.21511865E+00 0.14054381E+04</pdfrwt>
<pdfrwt beam="2">  1       -2 0.54332371E-01 0.14054381E+04</pdfrwt>
<totfact> 0.44991216E+01</totfact>
</mgrwt>
</event>
<event>
12    3  0.4192740E-008  0.3236302E+04  0.7818608E-02  0.8179295E-01
         -1   -1    0    0    0  501 -0.00000000000E+00  0.00000000000E+00  0.61646788275E+03  0.61646788275E+03  0.00000000000E+00 0.  1.
          1   -1    0    0  501    0  0.00000000000E+00 -0.00000000000E+00 -0.42474429623E+04  0.42474429623E+04  0.00000000000E+00 0. -1.
         23    2    1    2    0    0  0.98627264390E+03  0.49403017894E+03 -0.16875693384E+03  0.11195516345E+04  0.90096691014E+02 0.  0.
        254    2    1    2    0    0 -0.98627264390E+03 -0.49403017894E+03 -0.34622181457E+04  0.37443592106E+04  0.90358832636E+03 0.  0.
         23    2    4    4    0    0 -0.68714383069E+03 -0.16480862198E+03 -0.93438284186E+03  0.11760243939E+04  0.10311912508E+03 0.  0.
         23    2    4    4    0    0 -0.29912881322E+03 -0.32922155696E+03 -0.25278353038E+04  0.25683348167E+04  0.92344608412E+02 0.  0.
          4    1    3    3  502    0  0.12538236953E+03  0.71213388561E+02 -0.52316472629E+02  0.15339197700E+03  0.00000000000E+00 0. -1.
         -4    1    3    3    0  502  0.86089027437E+03  0.42281679038E+03 -0.11644046121E+03  0.96615965748E+03  0.00000000000E+00 0.  1.
         13    1    5    5    0    0 -0.73511552872E+02 -0.50202443797E+02 -0.98408373323E+02  0.13269680369E+03  0.00000000000E+00 0. -1.
        -13    1    5    5    0    0 -0.61363227782E+03 -0.11460617818E+03 -0.83597446854E+03  0.10433275902E+04  0.00000000000E+00 0.  1.
          1    1    6    6  503    0 -0.52567242060E+02 -0.16550893499E+02 -0.36744499936E+03  0.37155494152E+03  0.00000000000E+00 0. -1.
         -1    1    6    6    0  503 -0.24656157116E+03 -0.31267066347E+03 -0.21603903045E+04  0.21967798752E+04  0.00000000000E+00 0.  1.
<mgrwt>
<rscale>  0 0.32363017E+04</rscale>
<asrwt>0</asrwt>
<pdfrwt beam="1">  1        1 0.65345277E+00 0.32363017E+04</pdfrwt>
<pdfrwt beam="2">  1       -1 0.94841212E-01 0.32363017E+04</pdfrwt>
<totfact> 0.51074639E-02</totfact>
</mgrwt>
</event>
<event>
12    3  0.4192740E-008  0.3125376E+04  0.7818608E-02  0.8208808E-01
         -1   -1    0    0    0  501 -0.00000000000E+00  0.00000000000E+00  0.15177455588E+04  0.15177455588E+04  0.00000000000E+00 0.  1.
          1   -1    0    0  501    0  0.00000000000E+00 -0.00000000000E+00 -0.16089614086E+04  0.16089614086E+04  0.00000000000E+00 0. -1.
         23    2    1    2    0    0  0.52902320444E+03 -0.11158274299E+04  0.68882539492E+03  0.14169500565E+04  0.91272306292E+02 0.  0.
        254    2    1    2    0    0 -0.52902320444E+03  0.11158274299E+04 -0.78004124478E+03  0.17097569109E+04  0.88874515273E+03 0.  0.
         23    2    4    4    0    0 -0.63927497399E+03  0.40708426839E+03 -0.58254105524E+03  0.96055204929E+03  0.94424914209E+02 0.  0.
         23    2    4    4    0    0  0.11025176955E+03  0.70874316151E+03 -0.19750018955E+03  0.74920486156E+03  0.88483207683E+02 0.  0.
          4    1    3    3  502    0  0.55817026836E+02 -0.64278024722E+02  0.46509970551E+02  0.97007125036E+02  0.00000000000E+00 0. -1.
         -4    1    3    3    0  502  0.47320617760E+03 -0.10515494052E+04  0.64231542436E+03  0.13199429315E+04  0.00000000000E+00 0.  1.
         13    1    5    5    0    0 -0.55865176545E+03  0.36977490868E+03 -0.54692016912E+03  0.86483926225E+03  0.00000000000E+00 0.  1.
        -13    1    5    5    0    0 -0.80623208532E+02  0.37309359710E+02 -0.35620886121E+02  0.95712787045E+02  0.00000000000E+00 0. -1.
          3    1    6    6  503    0  0.34857192015E+02  0.34336679163E+03 -0.53254312438E+02  0.34921597790E+03  0.00000000000E+00 0. -1.
         -3    1    6    6    0  503  0.75394577536E+02  0.36537636988E+03 -0.14424587711E+03  0.39998888366E+03  0.00000000000E+00 0.  1.
<mgrwt>
<rscale>  0 0.31253762E+04</rscale>
<asrwt>0</asrwt>
<pdfrwt beam="1">  1        1 0.24753252E+00 0.31253762E+04</pdfrwt>
<pdfrwt beam="2">  1       -1 0.23349932E+00 0.31253762E+04</pdfrwt>
<totfact> 0.41453755E-01</totfact>
</mgrwt>
</event>
<event>
12    3  0.4192740E-008  0.2966938E+04  0.7818608E-02  0.8253235E-01
          1   -1    0    0  501    0  0.00000000000E+00  0.00000000000E+00  0.98328187527E+03  0.98328187527E+03  0.00000000000E+00 0. -1.
         -1   -1    0    0    0  501 -0.00000000000E+00 -0.00000000000E+00 -0.22380970658E+04  0.22380970658E+04  0.00000000000E+00 0.  1.
         23    2    1    2    0    0  0.96022133962E+03 -0.93663626920E+03 -0.62759168124E+03  0.14836067066E+04  0.88910177869E+02 0.  0.
        254    2    1    2    0    0 -0.96022133962E+03  0.93663626920E+03 -0.62722350933E+03  0.17377722345E+04  0.90946714426E+03 0.  0.
         23    2    4    4    0    0 -0.44564790702E+02 -0.81576687397E+02  0.11797989682E+03  0.17592370641E+03  0.91592128091E+02 0.  0.
         23    2    4    4    0    0 -0.91565654891E+03  0.10182129566E+04 -0.74520340615E+03  0.15618485281E+04  0.94117838788E+02 0.  0.
          4    1    3    3  502    0  0.39676469834E+03 -0.39866769264E+03 -0.31088616679E+03  0.64265726768E+03  0.00000000000E+00 0. -1.
         -4    1    3    3    0  502  0.56345664128E+03 -0.53796857656E+03 -0.31670551445E+03  0.84094943894E+03  0.00000000000E+00 0.  1.
         13    1    5    5    0    0 -0.68612479269E+02 -0.33350515159E+02  0.63016950917E+02  0.98949811903E+02  0.00000000000E+00 0. -1.
        -13    1    5    5    0    0  0.24047688566E+02 -0.48226172237E+02  0.54962945901E+02  0.76973894511E+02  0.00000000000E+00 0.  1.
          2    1    6    6  503    0 -0.57631722924E+03  0.65103308659E+03 -0.42168781108E+03  0.96633650380E+03  0.00000000000E+00 0.  1.
         -2    1    6    6    0  503 -0.33933931967E+03  0.36717987001E+03 -0.32351559507E+03  0.59551202429E+03  0.00000000000E+00 0. -1.
<mgrwt>
<rscale>  0 0.29669380E+04</rscale>
<asrwt>0</asrwt>
<pdfrwt beam="1">  1        1 0.15127414E+00 0.29669380E+04</pdfrwt>
<pdfrwt beam="2">  1       -1 0.34432262E+00 0.29669380E+04</pdfrwt>
<totfact> 0.22545970E-01</totfact>
</mgrwt>
</event>
<event>
12    3  0.4192740E-008  0.1494166E+04  0.7818608E-02  0.8888342E-01
         -1   -1    0    0    0  501 -0.00000000000E+00  0.00000000000E+00  0.96195677849E+03  0.96195677849E+03  0.00000000000E+00 0.  1.
          1   -1    0    0  501    0  0.00000000000E+00 -0.00000000000E+00 -0.58020617149E+03  0.58020617149E+03  0.00000000000E+00 0. -1.
         23    2    1    2    0    0 -0.42472166397E+03  0.19466260525E+03  0.57684161043E+02  0.47972901381E+03  0.92360394828E+02 0.  0.
        254    2    1    2    0    0  0.42472166397E+03 -0.19466260525E+03  0.32406644596E+03  0.10624339362E+04  0.89747689975E+03 0.  0.
         23    2    4    4    0    0 -0.25411351863E+03 -0.16872600205E+03  0.42224030457E+02  0.32140368048E+03  0.92061462934E+02 0.  0.
         23    2    4    4    0    0  0.67883518260E+03 -0.25936603201E+02  0.28184241551E+03  0.74103025568E+03  0.90558158874E+02 0.  0.
          4    1    3    3  502    0 -0.37981710746E+03  0.17506853171E+03  0.21412639428E+02  0.41877025568E+03  0.00000000000E+00 0. -1.
         -4    1    3    3    0  502 -0.44904556509E+02  0.19594073542E+02  0.36271521615E+02  0.60958758136E+02  0.00000000000E+00 0.  1.
         13    1    5    5    0    0 -0.15275639234E+02  0.11728418057E+02  0.32828097171E+01  0.19536575539E+02  0.00000000000E+00 0. -1.
        -13    1    5    5    0    0 -0.23883787940E+03 -0.18045442011E+03  0.38941220740E+02  0.30186710494E+03  0.00000000000E+00 0.  1.
          2    1    6    6  503    0  0.29228820161E+02 -0.20511656125E+02  0.15169295193E+02  0.38796384904E+02  0.00000000000E+00 0. -1.
         -2    1    6    6    0  503  0.64960636244E+03 -0.54249470762E+01  0.26667312031E+03  0.70223387078E+03  0.00000000000E+00 0.  1.
<mgrwt>
<rscale>  0 0.14941663E+04</rscale>
<asrwt>0</asrwt>
<pdfrwt beam="1">  1        1 0.89262488E-01 0.14941663E+04</pdfrwt>
<pdfrwt beam="2">  1       -1 0.14799335E+00 0.14941663E+04</pdfrwt>
<totfact> 0.12586884E+01</totfact>
</mgrwt>
</event>
<event>
12    3  0.4192740E-008  0.1621318E+04  0.7818608E-02  0.8807558E-01
          4   -1    0    0  501    0  0.00000000000E+00  0.00000000000E+00  0.13671452226E+04  0.13671452226E+04  0.00000000000E+00 0.  1.
         -4   -1    0    0    0  501 -0.00000000000E+00 -0.00000000000E+00 -0.48068608066E+03  0.48068608066E+03  0.00000000000E+00 0. -1.
         23    2    1    2    0    0  0.45746382374E+03 -0.29502811633E+03  0.20298275593E+03  0.58829381980E+03  0.92589846895E+02 0.  0.
        254    2    1    2    0    0 -0.45746382374E+03  0.29502811633E+03  0.68347638600E+03  0.12595374835E+04  0.90718243069E+03 0.  0.
         23    2    4    4    0    0 -0.65772412162E+03 -0.30889277688E+02  0.42475916807E+03  0.78891483187E+03  0.91712013640E+02 0.  0.
         23    2    4    4    0    0  0.20026029787E+03  0.32591739402E+03  0.25871721793E+03  0.47062265159E+03  0.90690389262E+02 0.  0.
          2    1    3    3  502    0  0.28740287338E+03 -0.17958048218E+03  0.78075123892E+02  0.34777188813E+03  0.00000000000E+00 0. -1.
         -2    1    3    3    0  502  0.17006095037E+03 -0.11544763415E+03  0.12490763203E+03  0.24052193166E+03  0.00000000000E+00 0.  1.
         13    1    5    5    0    0  0.16329426017E+01 -0.13225284209E+01 -0.20352594639E+01  0.29253827186E+01  0.00000000000E+00 0. -1.
        -13    1    5    5    0    0 -0.65935706422E+03 -0.29566749267E+02  0.42679442753E+03  0.78598944915E+03  0.00000000000E+00 0.  1.
          2    1    6    6  503    0 -0.24968148076E+01  0.45564314706E+02  0.17619577919E+02  0.48916156686E+02  0.00000000000E+00 0. -1.
         -2    1    6    6    0  503  0.20275711268E+03  0.28035307931E+03  0.24109764001E+03  0.42170649490E+03  0.00000000000E+00 0.  1.
<mgrwt>
<rscale>  0 0.16213176E+04</rscale>
<asrwt>0</asrwt>
<pdfrwt beam="1">  1        4 0.21033003E+00 0.16213176E+04</pdfrwt>
<pdfrwt beam="2">  1       -4 0.73951706E-01 0.16213176E+04</pdfrwt>
<totfact> 0.35738965E-01</totfact>
</mgrwt>
</event>
<event>
12    3  0.4192740E-008  0.2015493E+04  0.7818608E-02  0.8599411E-01
         -1   -1    0    0    0  501 -0.00000000000E+00  0.00000000000E+00  0.91520231583E+03  0.91520231583E+03  0.00000000000E+00 0.  1.
          1   -1    0    0  501    0  0.00000000000E+00 -0.00000000000E+00 -0.11096488344E+04  0.11096488344E+04  0.00000000000E+00 0. -1.
         23    2    1    2    0    0 -0.13177666068E+03  0.78187228256E+03  0.31877126110E+02  0.79810647598E+03  0.85255154062E+02 0.  0.
        254    2    1    2    0    0  0.13177666068E+03 -0.78187228256E+03 -0.22632364473E+03  0.12267446743E+04  0.90829001383E+03 0.  0.
         23    2    4    4    0    0 -0.25661944654E+03 -0.19005993363E+02  0.12127757350E+03  0.29841376871E+03  0.90154086939E+02 0.  0.
         23    2    4    4    0    0  0.38839610722E+03 -0.76286628920E+03 -0.34760121823E+03  0.92833090559E+03  0.90305880576E+02 0.  0.
          4    1    3    3  502    0 -0.13029808090E+03  0.72498955187E+03  0.50235432485E+02  0.73831635420E+03  0.00000000000E+00 0. -1.
         -4    1    3    3    0  502 -0.14785797771E+01  0.56882730696E+02 -0.18358306375E+02  0.59790121780E+02  0.00000000000E+00 0.  1.
         13    1    5    5    0    0  0.60009543153E+01  0.37614432451E+01  0.10068956752E+02  0.12310312671E+02  0.00000000000E+00 0.  1.
        -13    1    5    5    0    0 -0.26262040085E+03 -0.22767436608E+02  0.11120861675E+03  0.28610345603E+03  0.00000000000E+00 0. -1.
          1    1    6    6  503    0  0.36724203808E+03 -0.74748098942E+03 -0.34684745405E+03  0.90216279044E+03  0.00000000000E+00 0. -1.
         -1    1    6    6    0  503  0.21154069132E+02 -0.15385299776E+02 -0.75376418857E+00  0.26168115149E+02  0.00000000000E+00 0.  1.
<mgrwt>
<rscale>  0 0.20154932E+04</rscale>
<asrwt>0</asrwt>
<pdfrwt beam="1">  1        1 0.17071520E+00 0.20154932E+04</pdfrwt>
<pdfrwt beam="2">  1       -1 0.14080036E+00 0.20154932E+04</pdfrwt>
<totfact> 0.47702951E+00</totfact>
</mgrwt>
</event>
<event>
12    3  0.4192740E-008  0.1374832E+04  0.7818608E-02  0.8972240E-01
         -2   -1    0    0    0  501 -0.00000000000E+00  0.00000000000E+00  0.38882793042E+03  0.38882793042E+03  0.00000000000E+00 0.  1.
          2   -1    0    0  501    0  0.00000000000E+00 -0.00000000000E+00 -0.12152960879E+04  0.12152960879E+04  0.00000000000E+00 0. -1.
         23    2    1    2    0    0  0.11291650405E+03 -0.16775251256E+03 -0.62201449400E+03  0.65980423890E+03  0.86882452601E+02 0.  0.
        254    2    1    2    0    0 -0.11291650405E+03  0.16775251256E+03 -0.20445366351E+03  0.94431977945E+03  0.89947067934E+03 0.  0.
         23    2    4    4    0    0  0.21061574676E+02  0.52216249225E+03 -0.15627423420E+03  0.55291433935E+03  0.90528294686E+02 0.  0.
         23    2    4    4    0    0 -0.13397807872E+03 -0.35440997969E+03 -0.48179429313E+02  0.39140544011E+03  0.85559346952E+02 0.  0.
          1    1    3    3  502    0  0.12440492779E+03 -0.16112573903E+03 -0.60436836509E+03  0.63772973160E+03  0.00000000000E+00 0. -1.
         -1    1    3    3    0  502 -0.11488423738E+02 -0.66267735304E+01 -0.17646128903E+02  0.22074507303E+02  0.00000000000E+00 0.  1.
         13    1    5    5    0    0 -0.24603056057E+02  0.38004775480E+03 -0.11996243082E+03  0.39929010895E+03  0.00000000000E+00 0. -1.
        -13    1    5    5    0    0  0.45664630733E+02  0.14211473745E+03 -0.36311803379E+02  0.15362423040E+03  0.00000000000E+00 0.  1.
          3    1    6    6  503    0 -0.12022403881E+02 -0.14942367551E+03 -0.18244937520E+02  0.15101275027E+03  0.00000000000E+00 0. -1.
         -3    1    6    6    0  503 -0.12195567484E+03 -0.20498630418E+03 -0.29934491792E+02  0.24039268984E+03  0.00000000000E+00 0.  1.
<mgrwt>
<rscale>  0 0.13748324E+04</rscale>
<asrwt>0</asrwt>
<pdfrwt beam="1">  1        2 0.18696863E+00 0.13748324E+04</pdfrwt>
<pdfrwt beam="2">  1       -2 0.59819681E-01 0.13748324E+04</pdfrwt>
<totfact> 0.47134687E+01</totfact>
</mgrwt>
</event>
<event>
12    3  0.4192740E-008  0.3991205E+04  0.7818608E-02  0.8006323E-01
         -2   -1    0    0    0  501 -0.00000000000E+00  0.00000000000E+00  0.14285149781E+04  0.14285149781E+04  0.00000000000E+00 0.  1.
          2   -1    0    0  501    0  0.00000000000E+00 -0.00000000000E+00 -0.27878104687E+04  0.27878104687E+04  0.00000000000E+00 0. -1.
         23    2    1    2    0    0 -0.10029342966E+04  0.16050675768E+04 -0.57707041495E+03  0.19805026261E+04  0.85213019819E+02 0.  0.
        254    2    1    2    0    0  0.10029342966E+04 -0.16050675768E+04 -0.78222507561E+03  0.22358228206E+04  0.89716692250E+03 0.  0.
         23    2    4    4    0    0  0.15646822306E+03  0.86397193666E+02 -0.65751288356E+02  0.21095762944E+03  0.90736484363E+02 0.  0.
         23    2    4    4    0    0  0.84646607355E+03 -0.16914647705E+04 -0.71647378726E+03  0.20248651912E+04  0.95846080728E+02 0.  0.
          4    1    3    3  502    0 -0.25630008948E+03  0.39040384770E+03 -0.17947310831E+03  0.50031539730E+03  0.00000000000E+00 0. -1.
         -4    1    3    3    0  502 -0.74663420713E+03  0.12146637291E+04 -0.39759730664E+03  0.14801872288E+04  0.00000000000E+00 0.  1.
         13    1    5    5    0    0  0.35369472961E+01 -0.68675120023E+01  0.13128519741E+02  0.15232555526E+02  0.00000000000E+00 0. -1.
        -13    1    5    5    0    0  0.15293127577E+03  0.93264705669E+02 -0.78879808097E+02  0.19572507391E+03  0.00000000000E+00 0.  1.
          1    1    6    6  503    0  0.23355940961E+02 -0.46510904308E+02 -0.37523008863E+02  0.64161829711E+02  0.00000000000E+00 0. -1.
         -1    1    6    6    0  503  0.82311013259E+03 -0.16449538662E+04 -0.67895077840E+03  0.19607033615E+04  0.00000000000E+00 0.  1.
<mgrwt>
<rscale>  0 0.39912048E+04</rscale>
<asrwt>0</asrwt>
<pdfrwt beam="1">  1        2 0.42889391E+00 0.39912048E+04</pdfrwt>
<pdfrwt beam="2">  1       -2 0.21977154E+00 0.39912048E+04</pdfrwt>
<totfact> 0.18407893E-01</totfact>
</mgrwt>
</event>
<event>
12    3  0.4192740E-008  0.1084917E+04  0.7818608E-02  0.9220019E-01
         -1   -1    0    0    0  501 -0.00000000000E+00  0.00000000000E+00  0.18528212244E+03  0.18528212244E+03  0.00000000000E+00 0. -1.
          1   -1    0    0  501    0  0.00000000000E+00 -0.00000000000E+00 -0.15881793155E+04  0.15881793155E+04  0.00000000000E+00 0.  1.
         23    2    1    2    0    0 -0.42203702811E+02 -0.90035619565E+02 -0.42081072502E+02  0.14050563815E+03  0.89908021715E+02 0.  0.
        254    2    1    2    0    0  0.42203702811E+02  0.90035619565E+02 -0.13608161205E+04  0.16329557998E+04  0.89712683873E+03 0.  0.
         23    2    4    4    0    0  0.13443755621E+03  0.44219669340E+03 -0.10308482403E+04  0.11333804242E+04  0.91058877508E+02 0.  0.
         23    2    4    4    0    0 -0.92233853396E+02 -0.35216107383E+03 -0.32996788021E+03  0.49957537558E+03  0.90400488292E+02 0.  0.
          3    1    3    3  502    0 -0.15129787576E+01 -0.92315675218E+02 -0.21276134194E+02  0.94747806739E+02  0.00000000000E+00 0. -1.
         -3    1    3    3    0  502 -0.40690724053E+02  0.22800556532E+01 -0.20804938308E+02  0.45757831414E+02  0.00000000000E+00 0.  1.
         13    1    5    5    0    0  0.14305060753E+03  0.37210868160E+03 -0.83754647230E+03  0.92758419591E+03  0.00000000000E+00 0. -1.
        -13    1    5    5    0    0 -0.86130513249E+01  0.70088011795E+02 -0.19330176803E+03  0.20579622828E+03  0.00000000000E+00 0.  1.
          4    1    6    6  503    0 -0.80401566510E+02 -0.35291179240E+03 -0.31103037994E+03  0.47723269205E+03  0.00000000000E+00 0. -1.
         -4    1    6    6    0  503 -0.11832286886E+02  0.75071856340E+00 -0.18937500265E+02  0.22342683536E+02  0.00000000000E+00 0.  1.
<mgrwt>
<rscale>  0 0.10849170E+04</rscale>
<asrwt>0</asrwt>
<pdfrwt beam="1">  1        1 0.24433528E+00 0.10849170E+04</pdfrwt>
<pdfrwt beam="2">  1       -1 0.28504942E-01 0.10849170E+04</pdfrwt>
<totfact> 0.63297529E+01</totfact>
</mgrwt>
</event>
<event>
12    3  0.4192740E-008  0.1687849E+04  0.7818608E-02  0.8768325E-01
         -1   -1    0    0    0  501 -0.00000000000E+00  0.00000000000E+00  0.69671946417E+03  0.69671946417E+03  0.00000000000E+00 0.  1.
          1   -1    0    0  501    0  0.00000000000E+00 -0.00000000000E+00 -0.10222320683E+04  0.10222320683E+04  0.00000000000E+00 0. -1.
         23    2    1    2    0    0 -0.49150201755E+03 -0.34741395257E+03  0.11365461857E+03  0.61914763582E+03  0.90309107619E+02 0.  0.
        254    2    1    2    0    0  0.49150201755E+03  0.34741395257E+03 -0.43916722274E+03  0.10998038967E+04  0.80896852470E+03 0.  0.
         23    2    4    4    0    0  0.63085781315E+03  0.40304624306E+02 -0.17463125450E+03  0.66183692436E+03  0.89028064394E+02 0.  0.
         23    2    4    4    0    0 -0.13935579560E+03  0.30710932826E+03 -0.26453596824E+03  0.43796697233E+03  0.89997850437E+02 0.  0.
          4    1    3    3  502    0 -0.24416669378E+03 -0.18425636440E+03  0.12818117292E+02  0.30615696351E+03  0.00000000000E+00 0. -1.
         -4    1    3    3    0  502 -0.24733532377E+03 -0.16315758817E+03  0.10083650128E+03  0.31299067231E+03  0.00000000000E+00 0.  1.
         13    1    5    5    0    0  0.60042519171E+03  0.49756817264E+02 -0.14821918242E+03  0.62044748185E+03  0.00000000000E+00 0. -1.
        -13    1    5    5    0    0  0.30432621442E+02 -0.94521929583E+01 -0.26412072083E+02  0.41389442510E+02  0.00000000000E+00 0.  1.
          2    1    6    6  503    0 -0.51869835349E+02  0.17512546255E+03 -0.18793149168E+03  0.26206421545E+03  0.00000000000E+00 0. -1.
         -2    1    6    6    0  503 -0.87485960252E+02  0.13198386571E+03 -0.76604476565E+02  0.17590275688E+03  0.00000000000E+00 0.  1.
<mgrwt>
<rscale>  0 0.16878495E+04</rscale>
<asrwt>0</asrwt>
<pdfrwt beam="1">  1        1 0.15726647E+00 0.16878495E+04</pdfrwt>
<pdfrwt beam="2">  1       -1 0.10718761E+00 0.16878495E+04</pdfrwt>
<totfact> 0.11237849E+01</totfact>
</mgrwt>
</event>
<event>
12    3  0.4192740E-008  0.1927121E+04  0.7818608E-02  0.8641473E-01
          2   -1    0    0  501    0  0.00000000000E+00  0.00000000000E+00  0.23952860686E+04  0.23952860686E+04  0.00000000000E+00 0. -1.
         -2   -1    0    0    0  501 -0.00000000000E+00 -0.00000000000E+00 -0.38761489495E+03  0.38761489495E+03  0.00000000000E+00 0.  1.
         23    2    1    2    0    0 -0.72572359437E+03  0.65840494944E+02  0.10795944966E+04  0.13056506526E+04  0.90496648840E+02 0.  0.
        254    2    1    2    0    0  0.72572359437E+03 -0.65840494944E+02  0.92807667701E+03  0.14772503109E+04  0.88878144467E+03 0.  0.
         23    2    4    4    0    0 -0.14645285584E+03  0.16215232687E+03  0.25671668509E+03  0.34950050353E+03  0.92224343173E+02 0.  0.
         23    2    4    4    0    0  0.87217645020E+03 -0.22799282181E+03  0.67135999192E+03  0.11277498074E+04  0.91776370262E+02 0.  0.
          1    1    3    3  502    0 -0.57204721165E+03  0.31409796197E+02  0.78810074925E+03  0.97433432590E+03  0.00000000000E+00 0.  1.
         -1    1    3    3    0  502 -0.15367638272E+03  0.34430698747E+02  0.29149374735E+03  0.33131632674E+03  0.00000000000E+00 0. -1.
         13    1    5    5    0    0 -0.50264301343E+02  0.87712941262E+02  0.58097717193E+02  0.11659933446E+03  0.00000000000E+00 0.  1.
        -13    1    5    5    0    0 -0.96188554493E+02  0.74439385609E+02  0.19861896789E+03  0.23290116907E+03  0.00000000000E+00 0. -1.
          1    1    6    6  503    0  0.15981108555E+03 -0.18881669080E+02  0.86973645053E+02  0.18292215674E+03  0.00000000000E+00 0. -1.
         -1    1    6    6    0  503  0.71236536465E+03 -0.20911115273E+03  0.58438634687E+03  0.94482765061E+03  0.00000000000E+00 0.  1.
<mgrwt>
<rscale>  0 0.19271207E+04</rscale>
<asrwt>0</asrwt>
<pdfrwt beam="1">  1        2 0.36850554E+00 0.19271207E+04</pdfrwt>
<pdfrwt beam="2">  1       -2 0.59633062E-01 0.19271207E+04</pdfrwt>
<totfact> 0.98134058E+00</totfact>
</mgrwt>
</event>
<event>
12    3  0.4192740E-008  0.1161240E+04  0.7818608E-02  0.9147477E-01
          1   -1    0    0  501    0  0.00000000000E+00  0.00000000000E+00  0.10289986931E+04  0.10289986931E+04  0.00000000000E+00 0. -1.
         -1   -1    0    0    0  501 -0.00000000000E+00 -0.00000000000E+00 -0.32761886638E+03  0.32761886638E+03  0.00000000000E+00 0.  1.
         23    2    1    2    0    0 -0.16501274908E+03 -0.14486587675E+03  0.39960885152E+02  0.24122008500E+03  0.91514629752E+02 0.  0.
        254    2    1    2    0    0  0.16501274908E+03  0.14486587675E+03  0.66141894159E+03  0.11153974745E+04  0.87087380271E+03 0.  0.
         23    2    4    4    0    0  0.25478695226E+03  0.13260933114E+03  0.84197336097E+03  0.89444211378E+03  0.92768144116E+02 0.  0.
         23    2    4    4    0    0 -0.89774203173E+02  0.12256545606E+02 -0.18055441938E+03  0.22095536074E+03  0.89508338241E+02 0.  0.
          1    1    3    3  502    0 -0.16534268919E+02 -0.16952884759E+02 -0.25307253851E+02  0.34658901423E+02  0.00000000000E+00 0. -1.
         -1    1    3    3    0  502 -0.14847848016E+03 -0.12791299199E+03  0.65268139003E+02  0.20656118358E+03  0.00000000000E+00 0.  1.
         13    1    5    5    0    0 -0.30697190632E+01 -0.39297467701E+01  0.53195959700E+02  0.53429170059E+02  0.00000000000E+00 0. -1.
        -13    1    5    5    0    0  0.25785667132E+03  0.13653907791E+03  0.78877740127E+03  0.84101294372E+03  0.00000000000E+00 0.  1.
          4    1    6    6  503    0 -0.71519608770E+02  0.18184408448E+02 -0.50330366603E+02  0.89324537232E+02  0.00000000000E+00 0. -1.
         -4    1    6    6    0  503 -0.18254594403E+02 -0.59278628422E+01 -0.13022405278E+03  0.13163082350E+03  0.00000000000E+00 0.  1.
<mgrwt>
<rscale>  0 0.11612397E+04</rscale>
<asrwt>0</asrwt>
<pdfrwt beam="1">  1        1 0.15830749E+00 0.11612397E+04</pdfrwt>
<pdfrwt beam="2">  1       -1 0.50402903E-01 0.11612397E+04</pdfrwt>
<totfact> 0.56333652E+01</totfact>
</mgrwt>
</event>
<event>
12    3  0.4192740E-008  0.1455872E+04  0.7818608E-02  0.8914340E-01
         -1   -1    0    0    0  501 -0.00000000000E+00  0.00000000000E+00  0.20872910916E+03  0.20872910916E+03  0.00000000000E+00 0.  1.
          1   -1    0    0  501    0  0.00000000000E+00 -0.00000000000E+00 -0.25386531480E+04  0.25386531480E+04  0.00000000000E+00 0. -1.
         23    2    1    2    0    0 -0.56652655951E+02  0.40392827422E+03 -0.39791389527E+03  0.57697483933E+03  0.90536860106E+02 0.  0.
        254    2    1    2    0    0  0.56652655951E+02 -0.40392827422E+03 -0.19320101435E+04  0.21704074178E+04  0.90090931304E+03 0.  0.
         23    2    4    4    0    0 -0.35927899352E+03 -0.29502220214E+03 -0.58041762791E+03  0.74923064452E+03  0.91336963881E+02 0.  0.
         23    2    4    4    0    0  0.41593164947E+03 -0.10890607208E+03 -0.13515925156E+04  0.14211767733E+04  0.89896735177E+02 0.  0.
          3    1    3    3  502    0 -0.45826883754E+02  0.13793706176E+03 -0.18984135797E+03  0.23909512224E+03  0.00000000000E+00 0. -1.
         -3    1    3    3    0  502 -0.10825772197E+02  0.26599121246E+03 -0.20807253730E+03  0.33787971710E+03  0.00000000000E+00 0.  1.
         13    1    5    5    0    0 -0.20562304379E+03 -0.22375154146E+03 -0.35585182482E+03  0.46794883232E+03  0.00000000000E+00 0. -1.
        -13    1    5    5    0    0 -0.15365594972E+03 -0.71270660679E+02 -0.22456580309E+03  0.28128181221E+03  0.00000000000E+00 0.  1.
          3    1    6    6  503    0  0.16577770762E+02  0.41266970022E+01 -0.12741557878E+03  0.12855575377E+03  0.00000000000E+00 0. -1.
         -3    1    6    6    0  503  0.39935387870E+03 -0.11303276908E+03 -0.12241769369E+04  0.12926210195E+04  0.00000000000E+00 0.  1.
<mgrwt>
<rscale>  0 0.14558720E+04</rscale>
<asrwt>0</asrwt>
<pdfrwt beam="1">  1        1 0.39056200E+00 0.14558720E+04</pdfrwt>
<pdfrwt beam="2">  1       -1 0.32112172E-01 0.14558720E+04</pdfrwt>
<totfact> 0.11222645E+01</totfact>
</mgrwt>
</event>
<event>
12    3  0.4192740E-008  0.4560162E+04  0.7818608E-02  0.7900188E-01
          1   -1    0    0  501    0  0.00000000000E+00  0.00000000000E+00  0.16698688065E+04  0.16698688065E+04  0.00000000000E+00 0. -1.
         -1   -1    0    0    0  501 -0.00000000000E+00 -0.00000000000E+00 -0.31132799263E+04  0.31132799263E+04  0.00000000000E+00 0.  1.
         23    2    1    2    0    0  0.21506472921E+04 -0.69644971348E+02 -0.11100829837E+04  0.24229148243E+04  0.89987878645E+02 0.  0.
        254    2    1    2    0    0 -0.21506472921E+04  0.69644971348E+02 -0.33332813612E+03  0.23602339086E+04  0.91074818685E+03 0.  0.
         23    2    4    4    0    0 -0.64584190379E+03  0.17342598163E+03 -0.49936410756E+03  0.84010655099E+03  0.96052950552E+02 0.  0.
         23    2    4    4    0    0 -0.15048053883E+04 -0.10378101029E+03  0.16603597144E+03  0.15201273576E+04  0.89495724550E+02 0.  0.
          3    1    3    3  502    0  0.50146072079E+03 -0.48530644085E+02 -0.23712909546E+03  0.55681979654E+03  0.00000000000E+00 0. -1.
         -3    1    3    3    0  502  0.16491865713E+04 -0.21114327263E+02 -0.87295388822E+03  0.18660950278E+04  0.00000000000E+00 0.  1.
         13    1    5    5    0    0 -0.15837704984E+03  0.49090008848E+01 -0.14050118519E+03  0.21177339598E+03  0.00000000000E+00 0. -1.
        -13    1    5    5    0    0 -0.48746485395E+03  0.16851698075E+03 -0.35886292236E+03  0.62833315501E+03  0.00000000000E+00 0.  1.
          3    1    6    6  503    0 -0.20066787761E+03  0.12252059668E+02  0.64140324898E+01  0.20114385371E+03  0.00000000000E+00 0. -1.
         -3    1    6    6    0  503 -0.13041375107E+04 -0.11603306996E+03  0.15962193895E+03  0.13189835039E+04  0.00000000000E+00 0.  1.
<mgrwt>
<rscale>  0 0.45601619E+04</rscale>
<asrwt>0</asrwt>
<pdfrwt beam="1">  1        1 0.25690290E+00 0.45601619E+04</pdfrwt>
<pdfrwt beam="2">  1       -1 0.47896613E+00 0.45601619E+04</pdfrwt>
<totfact> 0.76877626E-03</totfact>
</mgrwt>
</event>
<event>
12    3  0.4192740E-008  0.1566868E+04  0.7818608E-02  0.8841165E-01
         -2   -1    0    0    0  501 -0.00000000000E+00  0.00000000000E+00  0.16725917934E+04  0.16725917934E+04  0.00000000000E+00 0.  1.
          2   -1    0    0  501    0  0.00000000000E+00 -0.00000000000E+00 -0.36695659017E+03  0.36695659017E+03  0.00000000000E+00 0. -1.
         23    2    1    2    0    0  0.20259101008E+03  0.47327138290E+03  0.55525952500E+03  0.76242345611E+03  0.89148567478E+02 0.  0.
        254    2    1    2    0    0 -0.20259101008E+03 -0.47327138290E+03  0.75037567827E+03  0.12771249275E+04  0.89607784409E+03 0.  0.
         23    2    4    4    0    0 -0.26326473107E+03 -0.14690138130E+03  0.86005107555E+03  0.91592362318E+03  0.91323033703E+02 0.  0.
         23    2    4    4    0    0  0.60673720991E+02 -0.32637000160E+03 -0.10967539728E+03  0.36120130433E+03  0.90768998634E+02 0.  0.
          2    1    3    3  502    0  0.75562707705E+02  0.84355785011E+02  0.12613140305E+03  0.16951328000E+03  0.00000000000E+00 0. -1.
         -2    1    3    3    0  502  0.12702830237E+03  0.38891559789E+03  0.42912812194E+03  0.59291017611E+03  0.00000000000E+00 0.  1.
         13    1    5    5    0    0 -0.15491671375E+02 -0.29152184464E+02  0.17314363731E+03  0.17626276091E+03  0.00000000000E+00 0. -1.
        -13    1    5    5    0    0 -0.24777305969E+03 -0.11774919684E+03  0.68690743824E+03  0.73966086227E+03  0.00000000000E+00 0.  1.
          2    1    6    6  503    0  0.22275120773E+02 -0.21354483187E+02 -0.31282134456E+02  0.43940492644E+02  0.00000000000E+00 0. -1.
         -2    1    6    6    0  503  0.38398600218E+02 -0.30501551842E+03 -0.78393262824E+02  0.31726081168E+03  0.00000000000E+00 0.  1.
<mgrwt>
<rscale>  0 0.15668677E+04</rscale>
<asrwt>0</asrwt>
<pdfrwt beam="1">  1        2 0.56454861E-01 0.15668677E+04</pdfrwt>
<pdfrwt beam="2">  1       -2 0.25732181E+00 0.15668677E+04</pdfrwt>
<totfact> 0.48846146E+00</totfact>
</mgrwt>
</event>
<event>
12    3  0.4192740E-008  0.3782178E+04  0.7818608E-02  0.8049990E-01
          2   -1    0    0  501    0  0.00000000000E+00  0.00000000000E+00  0.37649090749E+04  0.37649090749E+04  0.00000000000E+00 0. -1.
         -2   -1    0    0    0  501 -0.00000000000E+00 -0.00000000000E+00 -0.94988173769E+03  0.94988173769E+03  0.00000000000E+00 0.  1.
         23    2    1    2    0    0  0.10791129778E+03 -0.91977304030E+03  0.31965101178E+04  0.33292326102E+04  0.92117023125E+02 0.  0.
        254    2    1    2    0    0 -0.10791129778E+03  0.91977304030E+03 -0.38148278060E+03  0.13855582024E+04  0.95740019134E+03 0.  0.
         23    2    4    4    0    0 -0.42415653574E+03  0.16101775307E+03 -0.30612050100E+03  0.55486814690E+03  0.91287544046E+02 0.  0.
         23    2    4    4    0    0  0.31624523797E+03  0.75875528723E+03 -0.75362279599E+02  0.83069005545E+03  0.92983109255E+02 0.  0.
          4    1    3    3  502    0 -0.20473647564E+01 -0.82461952176E+00  0.34234327014E+02  0.34305405491E+02  0.00000000000E+00 0.  1.
         -4    1    3    3    0  502  0.10995866253E+03 -0.91894842078E+03  0.31622757908E+04  0.32949272047E+04  0.00000000000E+00 0. -1.
         13    1    5    5    0    0 -0.82194546864E+02  0.66338051370E+02 -0.94492104009E+02  0.14172310438E+03  0.00000000000E+00 0.  1.
        -13    1    5    5    0    0 -0.34196198888E+03  0.94679701699E+02 -0.21162839699E+03  0.41314504252E+03  0.00000000000E+00 0. -1.
          3    1    6    6  503    0  0.90780828044E+02  0.33373844131E+03 -0.42233012820E+02  0.34843382919E+03  0.00000000000E+00 0. -1.
         -3    1    6    6    0  503  0.22546440992E+03  0.42501684592E+03 -0.33129266779E+02  0.48225622627E+03  0.00000000000E+00 0.  1.
<mgrwt>
<rscale>  0 0.37821784E+04</rscale>
<asrwt>0</asrwt>
<pdfrwt beam="1">  1        2 0.57921677E+00 0.37821784E+04</pdfrwt>
<pdfrwt beam="2">  1       -2 0.14613565E+00 0.37821784E+04</pdfrwt>
<totfact> 0.13424503E-01</totfact>
</mgrwt>
</event>
<event>
12    3  0.4192740E-008  0.3064920E+04  0.7818608E-02  0.8225432E-01
         -2   -1    0    0    0  501 -0.00000000000E+00  0.00000000000E+00  0.15161954544E+04  0.15161954544E+04  0.00000000000E+00 0.  1.
          2   -1    0    0  501    0  0.00000000000E+00 -0.00000000000E+00 -0.15488989709E+04  0.15488989709E+04  0.00000000000E+00 0. -1.
         23    2    1    2    0    0  0.68654781254E+03 -0.42973512795E+03  0.11302460423E+04  0.13935182056E+04  0.91742542787E+02 0.  0.
        254    2    1    2    0    0 -0.68654781254E+03  0.42973512795E+03 -0.11629495588E+04  0.16715762197E+04  0.88639449619E+03 0.  0.
         23    2    4    4    0    0 -0.83328375483E+03  0.25990152868E+03 -0.11244659176E+04  0.14263391665E+04  0.90051082236E+02 0.  0.
         23    2    4    4    0    0  0.14673594229E+03  0.16983359927E+03 -0.38483641264E+02  0.24523705324E+03  0.91023806958E+02 0.  0.
          2    1    3    3  502    0  0.29977863460E+03 -0.15754707494E+03  0.40854884545E+03  0.53066040903E+03  0.00000000000E+00 0. -1.
         -2    1    3    3    0  502  0.38676917794E+03 -0.27218805300E+03  0.72169719685E+03  0.86285779659E+03  0.00000000000E+00 0.  1.
         13    1    5    5    0    0 -0.18711796733E+02  0.94059490308E+01 -0.95512567719E+01  0.23018030326E+02  0.00000000000E+00 0.  1.
        -13    1    5    5    0    0 -0.81457195810E+03  0.25049557964E+03 -0.11149146608E+04  0.14033211362E+04  0.00000000000E+00 0. -1.
          3    1    6    6  503    0  0.15430941370E+03  0.13838046568E+03 -0.45330626656E+02  0.21216836274E+03  0.00000000000E+00 0. -1.
         -3    1    6    6    0  503 -0.75734714029E+01  0.31453133594E+02  0.68469853918E+01  0.33068690493E+02  0.00000000000E+00 0.  1.
<mgrwt>
<rscale>  0 0.30649200E+04</rscale>
<asrwt>0</asrwt>
<pdfrwt beam="1">  1        2 0.23829215E+00 0.30649200E+04</pdfrwt>
<pdfrwt beam="2">  1       -2 0.23326084E+00 0.30649200E+04</pdfrwt>
<totfact> 0.82754327E-01</totfact>
</mgrwt>
</event>
<event>
12    3  0.4192740E-008  0.2005108E+04  0.7818608E-02  0.8604236E-01
         -1   -1    0    0    0  501 -0.00000000000E+00  0.00000000000E+00  0.59726996203E+03  0.59726996203E+03  0.00000000000E+00 0. -1.
          1   -1    0    0  501    0  0.00000000000E+00 -0.00000000000E+00 -0.16828478826E+04  0.16828478826E+04  0.00000000000E+00 0.  1.
         23    2    1    2    0    0  0.66351279607E+03 -0.71876201414E+02  0.66508600465E+02  0.67717865935E+03  0.93445833871E+02 0.  0.
        254    2    1    2    0    0 -0.66351279607E+03  0.71876201414E+02 -0.11520865210E+04  0.16029391853E+04  0.89257787385E+03 0.  0.
         23    2    4    4    0    0 -0.58821734850E+03 -0.10913524675E+03 -0.21758313449E+03  0.64357291635E+03  0.94517337511E+02 0.  0.
         23    2    4    4    0    0 -0.75295447565E+02  0.18101144816E+03 -0.93450338652E+03  0.95936626891E+03  0.93018867541E+02 0.  0.
          2    1    3    3  502    0  0.55053800986E+03 -0.94371992574E+02  0.49857086480E+02  0.56078864321E+03  0.00000000000E+00 0. -1.
         -2    1    3    3    0  502  0.11297478621E+03  0.22495791161E+02  0.16651513985E+02  0.11639001614E+03  0.00000000000E+00 0.  1.
         13    1    5    5    0    0 -0.18281081895E+03 -0.71362450960E+02 -0.44968452823E+02  0.20133195644E+03  0.00000000000E+00 0.  1.
        -13    1    5    5    0    0 -0.40540652955E+03 -0.37772795786E+02 -0.17261468167E+03  0.44224095992E+03  0.00000000000E+00 0. -1.
          3    1    6    6  503    0 -0.10561647200E+02  0.13886131209E+03 -0.56973647077E+03  0.58650972585E+03  0.00000000000E+00 0. -1.
         -3    1    6    6    0  503 -0.64733800365E+02  0.42150136068E+02 -0.36476691575E+03  0.37285654307E+03  0.00000000000E+00 0.  1.
<mgrwt>
<rscale>  0 0.20051080E+04</rscale>
<asrwt>0</asrwt>
<pdfrwt beam="1">  1        1 0.25889968E+00 0.20051080E+04</pdfrwt>
<pdfrwt beam="2">  1       -1 0.91887686E-01 0.20051080E+04</pdfrwt>
<totfact> 0.52369196E+00</totfact>
</mgrwt>
</event>
<event>
12    3  0.4192740E-008  0.2877970E+04  0.7818608E-02  0.8279462E-01
          2   -1    0    0  501    0  0.00000000000E+00  0.00000000000E+00  0.18196462336E+04  0.18196462336E+04  0.00000000000E+00 0. -1.
         -2   -1    0    0    0  501 -0.00000000000E+00 -0.00000000000E+00 -0.11379563432E+04  0.11379563432E+04  0.00000000000E+00 0.  1.
         23    2    1    2    0    0 -0.11147180214E+04 -0.54904329845E+03 -0.65377604343E+02  0.12476952298E+04  0.91784227841E+02 0.  0.
        254    2    1    2    0    0  0.11147180214E+04  0.54904329845E+03  0.74706749470E+03  0.17099073470E+04  0.90643724713E+03 0.  0.
         23    2    4    4    0    0 -0.54319118358E+02 -0.13501850480E+03  0.32899923601E+02  0.17603016093E+03  0.93400478192E+02 0.  0.
         23    2    4    4    0    0  0.11690371398E+04  0.68406180325E+03  0.71416757110E+03  0.15338771861E+04  0.90307904548E+02 0.  0.
          4    1    3    3  502    0 -0.10625719996E+04 -0.50343026581E+03 -0.72612931351E+02  0.11780381677E+04  0.00000000000E+00 0. -1.
         -4    1    3    3    0  502 -0.52146021840E+02 -0.45613032643E+02  0.72353270080E+01  0.69657062079E+02  0.00000000000E+00 0.  1.
         13    1    5    5    0    0 -0.69503182406E+02 -0.11425240948E+03  0.52521410239E+02  0.14367603826E+03  0.00000000000E+00 0. -1.
        -13    1    5    5    0    0  0.15184064048E+02 -0.20766095319E+02 -0.19621486638E+02  0.32354122670E+02  0.00000000000E+00 0.  1.
          1    1    6    6  503    0  0.95572729479E+03  0.59685395321E+03  0.58195184334E+03  0.12681944849E+04  0.00000000000E+00 0. -1.
         -1    1    6    6    0  503  0.21330984499E+03  0.87207850043E+02  0.13221572776E+03  0.26568270125E+03  0.00000000000E+00 0.  1.
<mgrwt>
<rscale>  0 0.28779701E+04</rscale>
<asrwt>0</asrwt>
<pdfrwt beam="1">  1        2 0.27994557E+00 0.28779701E+04</pdfrwt>
<pdfrwt beam="2">  1       -2 0.17507021E+00 0.28779701E+04</pdfrwt>
<totfact> 0.14280728E+00</totfact>
</mgrwt>
</event>
<event>
12    3  0.4192740E-008  0.2578252E+04  0.7818608E-02  0.8375626E-01
          2   -1    0    0  501    0  0.00000000000E+00  0.00000000000E+00  0.23231123836E+04  0.23231123836E+04  0.00000000000E+00 0. -1.
         -2   -1    0    0    0  501 -0.00000000000E+00 -0.00000000000E+00 -0.71535310555E+03  0.71535310555E+03  0.00000000000E+00 0.  1.
         23    2    1    2    0    0  0.14072476526E+03 -0.10307457549E+04  0.12360176635E+04  0.16179838729E+04  0.88836240651E+02 0.  0.
        254    2    1    2    0    0 -0.14072476526E+03  0.10307457549E+04  0.37174161458E+03  0.14204816163E+04  0.89293668497E+03 0.  0.
         23    2    4    4    0    0  0.23053728255E+03  0.92839893362E+03  0.17610982131E+03  0.97719102900E+03  0.93891530016E+02 0.  0.
         23    2    4    4    0    0 -0.37126204781E+03  0.10234682128E+03  0.19563179327E+03  0.44329058728E+03  0.99621113525E+02 0.  0.
          1    1    3    3  502    0 -0.74565043138E+01 -0.94625885166E+02  0.89718149096E+02  0.13061012165E+03  0.00000000000E+00 0. -1.
         -1    1    3    3    0  502  0.14818126958E+03 -0.93611986974E+03  0.11462995144E+04  0.14873737512E+04  0.00000000000E+00 0.  1.
         13    1    5    5    0    0  0.16041859860E+03  0.70614650963E+03  0.94573902606E+02  0.73028846553E+03  0.00000000000E+00 0. -1.
        -13    1    5    5    0    0  0.70118683946E+02  0.22225242399E+03  0.81535918700E+02  0.24690256347E+03  0.00000000000E+00 0.  1.
          4    1    6    6  503    0 -0.31296055019E+03  0.88575784308E+02  0.20226947206E+03  0.38301816519E+03  0.00000000000E+00 0. -1.
         -4    1    6    6    0  503 -0.58301497622E+02  0.13771036975E+02 -0.66376787894E+01  0.60272422085E+02  0.00000000000E+00 0.  1.
<mgrwt>
<rscale>  0 0.25782519E+04</rscale>
<asrwt>0</asrwt>
<pdfrwt beam="1">  1        2 0.35740190E+00 0.25782519E+04</pdfrwt>
<pdfrwt beam="2">  1       -2 0.11005433E+00 0.25782519E+04</pdfrwt>
<totfact> 0.25574088E+00</totfact>
</mgrwt>
</event>
<event>
12    3  0.4192740E-008  0.4517435E+04  0.7818608E-02  0.7907592E-01
          2   -1    0    0  501    0  0.00000000000E+00  0.00000000000E+00  0.30256811270E+04  0.30256811270E+04  0.00000000000E+00 0. -1.
         -2   -1    0    0    0  501 -0.00000000000E+00 -0.00000000000E+00 -0.16861670150E+04  0.16861670150E+04  0.00000000000E+00 0.  1.
         23    2    1    2    0    0  0.19872327599E+04  0.23286694667E+03  0.14994941052E+04  0.25022541452E+04  0.97325119412E+02 0.  0.
        254    2    1    2    0    0 -0.19872327599E+04 -0.23286694667E+03 -0.15997999326E+03  0.22095939968E+04  0.92379162997E+03 0.  0.
         23    2    4    4    0    0 -0.45892720196E+03 -0.15781873642E+03  0.33686683090E+03  0.59825694443E+03  0.94399044145E+02 0.  0.
         23    2    4    4    0    0 -0.15283055579E+04 -0.75048210250E+02 -0.49684682416E+03  0.16113370524E+04  0.90555051647E+02 0.  0.
          3    1    3    3  502    0  0.18485997662E+04  0.19221074785E+03  0.13830924563E+04  0.23167241548E+04  0.00000000000E+00 0. -1.
         -3    1    3    3    0  502  0.13863299373E+03  0.40656198823E+02  0.11640164892E+03  0.18552999036E+03  0.00000000000E+00 0.  1.
         13    1    5    5    0    0 -0.23314502954E+03 -0.44320054185E+02  0.12354655988E+03  0.26755303112E+03  0.00000000000E+00 0. -1.
        -13    1    5    5    0    0 -0.22578217242E+03 -0.11349868224E+03  0.21332027103E+03  0.33070391332E+03  0.00000000000E+00 0.  1.
          1    1    6    6  503    0 -0.10996561615E+03  0.68374602619E+01 -0.57339736842E+02  0.12420560784E+03  0.00000000000E+00 0. -1.
         -1    1    6    6    0  503 -0.14183399418E+04 -0.81885670512E+02 -0.43950708732E+03  0.14871314445E+04  0.00000000000E+00 0.  1.
<mgrwt>
<rscale>  0 0.45174345E+04</rscale>
<asrwt>0</asrwt>
<pdfrwt beam="1">  1        2 0.46548940E+00 0.45174345E+04</pdfrwt>
<pdfrwt beam="2">  1       -2 0.25941031E+00 0.45174345E+04</pdfrwt>
<totfact> 0.71369491E-02</totfact>
</mgrwt>
</event>
<event>
12    3  0.4192740E-008  0.1324560E+04  0.7818608E-02  0.9010312E-01
         -2   -1    0    0    0  501 -0.00000000000E+00  0.00000000000E+00  0.22513711594E+03  0.22513711594E+03  0.00000000000E+00 0. -1.
          2   -1    0    0  501    0  0.00000000000E+00 -0.00000000000E+00 -0.19482116973E+04  0.19482116973E+04  0.00000000000E+00 0.  1.
         23    2    1    2    0    0 -0.14073695335E+03  0.26864769566E+03 -0.72290860219E+03  0.78925043874E+03  0.91328711262E+02 0.  0.
        254    2    1    2    0    0  0.14073695335E+03 -0.26864769566E+03 -0.10001659792E+04  0.13840983745E+04  0.90742374333E+03 0.  0.
         23    2    4    4    0    0  0.36670844351E+03 -0.24122584591E+03 -0.11172305047E+03  0.46247538785E+03  0.93468995316E+02 0.  0.
         23    2    4    4    0    0 -0.22597149016E+03 -0.27421849756E+02 -0.88844292869E+03  0.92162298664E+03  0.90791077468E+02 0.  0.
          2    1    3    3  502    0 -0.11254347991E+03  0.15530722793E+03 -0.35848414488E+03  0.40656764757E+03  0.00000000000E+00 0. -1.
         -2    1    3    3    0  502 -0.28193473435E+02  0.11334046773E+03 -0.36442445731E+03  0.38268279117E+03  0.00000000000E+00 0.  1.
         13    1    5    5    0    0  0.63441086047E+02 -0.61780477759E+02  0.11227117021E+02  0.89261677037E+02  0.00000000000E+00 0. -1.
        -13    1    5    5    0    0  0.30326735746E+03 -0.17944536815E+03 -0.12295016749E+03  0.37321371081E+03  0.00000000000E+00 0.  1.
          3    1    6    6  503    0 -0.23245310140E+02 -0.26563057882E+02 -0.69364879413E+02  0.77829473745E+02  0.00000000000E+00 0. -1.
         -3    1    6    6    0  503 -0.20272618002E+03 -0.85879187460E+00 -0.81907804928E+03  0.84379351289E+03  0.00000000000E+00 0.  1.
<mgrwt>
<rscale>  0 0.13245599E+04</rscale>
<asrwt>0</asrwt>
<pdfrwt beam="1">  1        2 0.29972487E+00 0.13245599E+04</pdfrwt>
<pdfrwt beam="2">  1       -2 0.34636480E-01 0.13245599E+04</pdfrwt>
<totfact> 0.54630334E+01</totfact>
</mgrwt>
</event>
<event>
12    3  0.4192740E-008  0.1239276E+04  0.7818608E-02  0.9079156E-01
         -1   -1    0    0    0  501 -0.00000000000E+00  0.00000000000E+00  0.34066179914E+03  0.34066179914E+03  0.00000000000E+00 0.  1.
          1   -1    0    0  501    0  0.00000000000E+00 -0.00000000000E+00 -0.11270745917E+04  0.11270745917E+04  0.00000000000E+00 0. -1.
         23    2    1    2    0    0 -0.24950502039E+02  0.26771112252E+03 -0.13258506414E+03  0.31316382560E+03  0.90559426691E+02 0.  0.
        254    2    1    2    0    0  0.24950502039E+02 -0.26771112252E+03 -0.65382772841E+03  0.11545725652E+04  0.91282820796E+03 0.  0.
         23    2    4    4    0    0  0.28679339326E+03 -0.30162517285E+03  0.18613589151E+02  0.42620156539E+03  0.89850505472E+02 0.  0.
         23    2    4    4    0    0 -0.26184289122E+03  0.33914050329E+02 -0.67244131757E+03  0.72837099983E+03  0.92925375083E+02 0.  0.
          4    1    3    3  502    0 -0.48915582560E+02  0.14753193001E+03 -0.42701539420E+02  0.16118879011E+03  0.00000000000E+00 0. -1.
         -4    1    3    3    0  502  0.23965080521E+02  0.12017919251E+03 -0.89883524722E+02  0.15197503549E+03  0.00000000000E+00 0.  1.
         13    1    5    5    0    0  0.25574478585E+03 -0.29934189449E+03  0.24666133716E+02  0.39448622719E+03  0.00000000000E+00 0.  1.
        -13    1    5    5    0    0  0.31048607405E+02 -0.22832783536E+01 -0.60525445647E+01  0.31715338207E+02  0.00000000000E+00 0. -1.
          1    1    6    6  503    0 -0.10388916750E+03 -0.30591363939E+02 -0.23181975628E+03  0.25586947859E+03  0.00000000000E+00 0. -1.
         -1    1    6    6    0  503 -0.15795372371E+03  0.64505414268E+02 -0.44062156129E+03  0.47250152124E+03  0.00000000000E+00 0.  1.
<mgrwt>
<rscale>  0 0.12392760E+04</rscale>
<asrwt>0</asrwt>
<pdfrwt beam="1">  1        1 0.17339609E+00 0.12392760E+04</pdfrwt>
<pdfrwt beam="2">  1       -1 0.52409507E-01 0.12392760E+04</pdfrwt>
<totfact> 0.43787763E+01</totfact>
</mgrwt>
</event>
<event>
12    3  0.4192740E-008  0.3305843E+04  0.7818608E-02  0.8161410E-01
          2   -1    0    0  501    0  0.00000000000E+00  0.00000000000E+00  0.15769938725E+04  0.15769938725E+04  0.00000000000E+00 0. -1.
         -2   -1    0    0    0  501 -0.00000000000E+00 -0.00000000000E+00 -0.17325047321E+04  0.17325047321E+04  0.00000000000E+00 0.  1.
         23    2    1    2    0    0  0.19558135034E+03  0.84465333194E+03 -0.13295813961E+04  0.15899116671E+04  0.91329649212E+02 0.  0.
        254    2    1    2    0    0 -0.19558135034E+03 -0.84465333194E+03  0.11740705365E+04  0.17195869374E+04  0.90931089010E+03 0.  0.
         23    2    4    4    0    0 -0.44624124673E+03 -0.13291871894E+03  0.29883814111E+03  0.56052824608E+03  0.89939112381E+02 0.  0.
         23    2    4    4    0    0  0.25065989639E+03 -0.71173461300E+03  0.87523239536E+03  0.11590586913E+04  0.89379869188E+02 0.  0.
          1    1    3    3  502    0  0.21103354110E+02  0.15457361319E+03 -0.18434674014E+03  0.24149963571E+03  0.00000000000E+00 0. -1.
         -1    1    3    3    0  502  0.17447799623E+03  0.69007971875E+03 -0.11452346559E+04  0.13484120314E+04  0.00000000000E+00 0.  1.
         13    1    5    5    0    0 -0.65061946807E+02 -0.54767717626E+02  0.57337313159E+02  0.10256767179E+03  0.00000000000E+00 0. -1.
        -13    1    5    5    0    0 -0.38117929993E+03 -0.78151001315E+02  0.24150082795E+03  0.45796057429E+03  0.00000000000E+00 0.  1.
          2    1    6    6  503    0  0.65185907615E+02 -0.10002793157E+03  0.16305795956E+03  0.20209573925E+03  0.00000000000E+00 0. -1.
         -2    1    6    6    0  503  0.18547398877E+03 -0.61170668143E+03  0.71217443580E+03  0.95696295206E+03  0.00000000000E+00 0.  1.
<mgrwt>
<rscale>  0 0.33058429E+04</rscale>
<asrwt>0</asrwt>
<pdfrwt beam="1">  1        2 0.24261444E+00 0.33058429E+04</pdfrwt>
<pdfrwt beam="2">  1       -2 0.26653919E+00 0.33058429E+04</pdfrwt>
<totfact> 0.48800824E-01</totfact>
</mgrwt>
</event>
<event>
12    3  0.4192740E-008  0.1496853E+04  0.7818608E-02  0.8886548E-01
          1   -1    0    0  501    0  0.00000000000E+00  0.00000000000E+00  0.14373521989E+04  0.14373521989E+04  0.00000000000E+00 0. -1.
         -1   -1    0    0    0  501 -0.00000000000E+00 -0.00000000000E+00 -0.38970443462E+03  0.38970443462E+03  0.00000000000E+00 0.  1.
         23    2    1    2    0    0 -0.14566572690E+03 -0.43904999686E+03  0.42056576313E+03  0.63247908303E+03  0.95764427749E+02 0.  0.
        254    2    1    2    0    0  0.14566572690E+03  0.43904999686E+03  0.62708200115E+03  0.11945775505E+04  0.90542823251E+03 0.  0.
         23    2    4    4    0    0  0.80774295146E+02  0.53850010310E+03  0.21366723492E+01  0.55185080975E+03  0.89598566168E+02 0.  0.
         23    2    4    4    0    0  0.64891431750E+02 -0.99450106242E+02  0.62494532880E+03  0.64272674074E+03  0.91868262875E+02 0.  0.
          3    1    3    3  502    0 -0.23195333570E+02 -0.84313773998E+01  0.20820617910E+02  0.32289468166E+02  0.00000000000E+00 0. -1.
         -3    1    3    3    0  502 -0.12247039333E+03 -0.43061861946E+03  0.39974514522E+03  0.60018961486E+03  0.00000000000E+00 0.  1.
         13    1    5    5    0    0  0.26407254994E+02  0.42617514996E+03 -0.18534371164E+01  0.42699653019E+03  0.00000000000E+00 0. -1.
        -13    1    5    5    0    0  0.54367040152E+02  0.11232495314E+03  0.39901094656E+01  0.12485427957E+03  0.00000000000E+00 0.  1.
          1    1    6    6  503    0  0.35970516250E+02 -0.10628752708E+03  0.38719889546E+03  0.40313012924E+03  0.00000000000E+00 0. -1.
         -1    1    6    6    0  503  0.28920915500E+02  0.68374208387E+01  0.23774643334E+03  0.23959661150E+03  0.00000000000E+00 0.  1.
<mgrwt>
<rscale>  0 0.14968534E+04</rscale>
<asrwt>0</asrwt>
<pdfrwt beam="1">  1        1 0.22113110E+00 0.14968534E+04</pdfrwt>
<pdfrwt beam="2">  1       -1 0.59954529E-01 0.14968534E+04</pdfrwt>
<totfact> 0.19740712E+01</totfact>
</mgrwt>
</event>
<event>
12    3  0.4192740E-008  0.1669330E+04  0.7818608E-02  0.8779052E-01
         -1   -1    0    0    0  501 -0.00000000000E+00  0.00000000000E+00  0.12284613969E+04  0.12284613969E+04  0.00000000000E+00 0.  1.
          1   -1    0    0  501    0  0.00000000000E+00 -0.00000000000E+00 -0.56710432370E+03  0.56710432370E+03  0.00000000000E+00 0. -1.
         23    2    1    2    0    0  0.48225941584E+03 -0.19074434711E+03 -0.58568090570E+02  0.52996413036E+03  0.92055462173E+02 0.  0.
        254    2    1    2    0    0 -0.48225941584E+03  0.19074434711E+03  0.71992516377E+03  0.12656015902E+04  0.90249520422E+03 0.  0.
         23    2    4    4    0    0 -0.71152677090E+03  0.25444439797E+03  0.64934700650E+03  0.10006155915E+04  0.92562031797E+02 0.  0.
         23    2    4    4    0    0  0.22926735506E+03 -0.63700050856E+02  0.70578157264E+02  0.26498599872E+03  0.92817491129E+02 0.  0.
          1    1    3    3  502    0  0.22793791165E+03 -0.10533661207E+03 -0.72395378520E+02  0.26132849872E+03  0.00000000000E+00 0. -1.
         -1    1    3    3    0  502  0.25432150419E+03 -0.85407735046E+02  0.13827287950E+02  0.26863563165E+03  0.00000000000E+00 0.  1.
         13    1    5    5    0    0 -0.55772593178E+02  0.48632993676E+02  0.61599400632E+02  0.96282066772E+02  0.00000000000E+00 0.  1.
        -13    1    5    5    0    0 -0.65575417773E+03  0.20581140429E+03  0.58774760587E+03  0.90433352473E+03  0.00000000000E+00 0. -1.
          2    1    6    6  503    0  0.10560201852E+03 -0.19862242628E+02 -0.14769750756E+02  0.10846400571E+03  0.00000000000E+00 0. -1.
         -2    1    6    6    0  503  0.12366533654E+03 -0.43837808228E+02  0.85347908021E+02  0.15652199301E+03  0.00000000000E+00 0.  1.
<mgrwt>
<rscale>  0 0.16693301E+04</rscale>
<asrwt>0</asrwt>
<pdfrwt beam="1">  1        1 0.87246819E-01 0.16693301E+04</pdfrwt>
<pdfrwt beam="2">  1       -1 0.18899406E+00 0.16693301E+04</pdfrwt>
<totfact> 0.63627190E+00</totfact>
</mgrwt>
</event>
<event>
12    3  0.4192740E-008  0.1012386E+04  0.7818608E-02  0.9295063E-01
          2   -1    0    0  501    0  0.00000000000E+00  0.00000000000E+00  0.25539705486E+03  0.25539705486E+03  0.00000000000E+00 0. -1.
         -2   -1    0    0    0  501 -0.00000000000E+00 -0.00000000000E+00 -0.10032665802E+04  0.10032665802E+04  0.00000000000E+00 0.  1.
         23    2    1    2    0    0  0.11997344729E+02  0.57783914158E+02 -0.11705569756E+03  0.15905898668E+03  0.90082228522E+02 0.  0.
        254    2    1    2    0    0 -0.11997344729E+02 -0.57783914158E+02 -0.63081382780E+03  0.10996046484E+04  0.89873320870E+03 0.  0.
         23    2    4    4    0    0 -0.19612119870E+03  0.13705042204E+03 -0.74935806468E+03  0.79223577169E+03  0.94093921624E+02 0.  0.
         23    2    4    4    0    0  0.18412385397E+03 -0.19483433620E+03  0.11854423688E+03  0.30736887670E+03  0.92525013396E+02 0.  0.
          4    1    3    3  502    0 -0.18303813527E+01  0.74268695916E+01  0.15118099460E+02  0.16943010922E+02  0.00000000000E+00 0. -1.
         -4    1    3    3    0  502  0.13827726082E+02  0.50357044567E+02 -0.13217379702E+03  0.14211597576E+03  0.00000000000E+00 0.  1.
         13    1    5    5    0    0 -0.15630523963E+03  0.89264960551E+02 -0.65452751536E+03  0.67882680375E+03  0.00000000000E+00 0. -1.
        -13    1    5    5    0    0 -0.39815959070E+02  0.47785461493E+02 -0.94830549317E+02  0.11340896795E+03  0.00000000000E+00 0.  1.
          4    1    6    6  503    0  0.14717068963E+03 -0.19266111308E+03  0.83561936753E+02  0.25643734840E+03  0.00000000000E+00 0. -1.
         -4    1    6    6    0  503  0.36953164339E+02 -0.21732231249E+01  0.34982300128E+02  0.50931528307E+02  0.00000000000E+00 0.  1.
<mgrwt>
<rscale>  0 0.10123860E+04</rscale>
<asrwt>0</asrwt>
<pdfrwt beam="1">  1        2 0.39291854E-01 0.10123860E+04</pdfrwt>
<pdfrwt beam="2">  1       -2 0.15434871E+00 0.10123860E+04</pdfrwt>
<totfact> 0.36367211E+01</totfact>
</mgrwt>
</event>
<event>
12    3  0.4192740E-008  0.2563482E+04  0.7818608E-02  0.8380712E-01
         -2   -1    0    0    0  501 -0.00000000000E+00  0.00000000000E+00  0.10544161919E+04  0.10544161919E+04  0.00000000000E+00 0. -1.
          2   -1    0    0  501    0  0.00000000000E+00 -0.00000000000E+00 -0.15580750563E+04  0.15580750563E+04  0.00000000000E+00 0.  1.
         23    2    1    2    0    0 -0.77207717531E+03 -0.48024289246E+03 -0.89504826146E+03  0.12791554333E+04  0.91601483085E+02 0.  0.
        254    2    1    2    0    0  0.77207717531E+03  0.48024289246E+03  0.39138939707E+03  0.13333358150E+04  0.89323140064E+03 0.  0.
         23    2    4    4    0    0  0.14989632029E+03  0.40142294527E+03 -0.18614263884E+03  0.47580274754E+03  0.90165873526E+02 0.  0.
         23    2    4    4    0    0  0.62218085503E+03  0.78819947190E+02  0.57753203590E+03  0.85753306748E+03  0.92185188063E+02 0.  0.
          3    1    3    3  502    0 -0.86420098166E+02 -0.51494110437E+02 -0.62073037709E+02  0.11820803182E+03  0.00000000000E+00 0. -1.
         -3    1    3    3    0  502 -0.68565707715E+03 -0.42874878202E+03 -0.83297522376E+03  0.11609474014E+04  0.00000000000E+00 0.  1.
         13    1    5    5    0    0  0.40158496818E+02  0.15146903302E+03 -0.24650471367E+02  0.15862918575E+03  0.00000000000E+00 0.  1.
        -13    1    5    5    0    0  0.10973782347E+03  0.24995391225E+03 -0.16149216747E+03  0.31717356179E+03  0.00000000000E+00 0. -1.
          3    1    6    6  503    0  0.33409173559E+03  0.62810493418E+02  0.36772128786E+03  0.50078078180E+03  0.00000000000E+00 0. -1.
         -3    1    6    6    0  503  0.28808911943E+03  0.16009453772E+02  0.20981074804E+03  0.35675228568E+03  0.00000000000E+00 0.  1.
<mgrwt>
<rscale>  0 0.25634817E+04</rscale>
<asrwt>0</asrwt>
<pdfrwt beam="1">  1        2 0.23970386E+00 0.25634817E+04</pdfrwt>
<pdfrwt beam="2">  1       -2 0.16221788E+00 0.25634817E+04</pdfrwt>
<totfact> 0.25342550E+00</totfact>
</mgrwt>
</event>
<event>
12    3  0.4192740E-008  0.1775458E+04  0.7818608E-02  0.8719461E-01
         -2   -1    0    0    0  501 -0.00000000000E+00  0.00000000000E+00  0.37983708589E+03  0.37983708589E+03  0.00000000000E+00 0.  1.
          2   -1    0    0  501    0  0.00000000000E+00 -0.00000000000E+00 -0.20747391399E+04  0.20747391399E+04  0.00000000000E+00 0. -1.
         23    2    1    2    0    0  0.10479431229E+03 -0.39716794189E+03  0.13153057128E+03  0.44060209017E+03  0.90031598462E+02 0.  0.
        254    2    1    2    0    0 -0.10479431229E+03  0.39716794189E+03 -0.18264326253E+04  0.20139741356E+04  0.74263817721E+03 0.  0.
         23    2    4    4    0    0  0.20913021071E+03  0.31446902731E+03 -0.14816668594E+04  0.15318046210E+04  0.91991849944E+02 0.  0.
         23    2    4    4    0    0 -0.31392452300E+03  0.82698914580E+02 -0.34476576589E+03  0.48216951463E+03  0.90754013109E+02 0.  0.
          2    1    3    3  502    0  0.79127425681E+02 -0.13056390940E+03  0.46727994438E+02  0.15966085743E+03  0.00000000000E+00 0. -1.
         -2    1    3    3    0  502  0.25666886613E+02 -0.26660403249E+03  0.84802576847E+02  0.28094123273E+03  0.00000000000E+00 0.  1.
         13    1    5    5    0    0  0.29222748257E+02  0.25392900186E+02 -0.28580812666E+03  0.28841819232E+03  0.00000000000E+00 0. -1.
        -13    1    5    5    0    0  0.17990746245E+03  0.28907612713E+03 -0.11958587327E+04  0.12433864287E+04  0.00000000000E+00 0.  1.
          1    1    6    6  503    0 -0.80798914989E+02  0.57812680148E+02 -0.13470234172E+03  0.16737828866E+03  0.00000000000E+00 0. -1.
         -1    1    6    6    0  503 -0.23312560801E+03  0.24886234433E+02 -0.21006342417E+03  0.31479122597E+03  0.00000000000E+00 0.  1.
<mgrwt>
<rscale>  0 0.17754581E+04</rscale>
<asrwt>0</asrwt>
<pdfrwt beam="1">  1        2 0.31919063E+00 0.17754581E+04</pdfrwt>
<pdfrwt beam="2">  1       -2 0.58436476E-01 0.17754581E+04</pdfrwt>
<totfact> 0.15725102E+01</totfact>
</mgrwt>
</event>
<event>
12    3  0.4192740E-008  0.1306028E+04  0.7818608E-02  0.9024799E-01
         -2   -1    0    0    0  501 -0.00000000000E+00  0.00000000000E+00  0.68235460265E+03  0.68235460265E+03  0.00000000000E+00 0.  1.
          2   -1    0    0  501    0  0.00000000000E+00 -0.00000000000E+00 -0.62493458178E+03  0.62493458178E+03  0.00000000000E+00 0. -1.
         23    2    1    2    0    0  0.60504028847E+02  0.15452191517E+03  0.29466468992E+03  0.35019505460E+03  0.90947990675E+02 0.  0.
        254    2    1    2    0    0 -0.60504028847E+02 -0.15452191517E+03 -0.23724466904E+03  0.95709412983E+03  0.91225346291E+03 0.  0.
         23    2    4    4    0    0 -0.97126400303E+02  0.18543473310E+03 -0.47728228738E+03  0.52976701119E+03  0.95053282058E+02 0.  0.
         23    2    4    4    0    0  0.36622371456E+02 -0.33995664827E+03  0.24003761834E+03  0.42732711864E+03  0.89881518185E+02 0.  0.
          3    1    3    3  502    0  0.84371620126E+01  0.79208619490E+02  0.21336850333E+03  0.22775273723E+03  0.00000000000E+00 0. -1.
         -3    1    3    3    0  502  0.52066866834E+02  0.75313295683E+02  0.81296186586E+02  0.12244231737E+03  0.00000000000E+00 0.  1.
         13    1    5    5    0    0 -0.64273309418E+02  0.16179353120E+03 -0.44549050821E+03  0.47829906748E+03  0.00000000000E+00 0.  1.
        -13    1    5    5    0    0 -0.32853090885E+02  0.23641201899E+02 -0.31791779162E+02  0.51467943715E+02  0.00000000000E+00 0. -1.
          3    1    6    6  503    0  0.17220295406E+02 -0.39270421700E+02  0.12998903946E+01  0.42899817125E+02  0.00000000000E+00 0. -1.
         -3    1    6    6    0  503  0.19402076050E+02 -0.30068622657E+03  0.23873772794E+03  0.38442730151E+03  0.00000000000E+00 0.  1.
<mgrwt>
<rscale>  0 0.13060275E+04</rscale>
<asrwt>0</asrwt>
<pdfrwt beam="1">  1        2 0.96143782E-01 0.13060275E+04</pdfrwt>
<pdfrwt beam="2">  1       -2 0.10497763E+00 0.13060275E+04</pdfrwt>
<totfact> 0.34012905E+01</totfact>
</mgrwt>
</event>
<event>
12    3  0.4192740E-008  0.1271398E+04  0.7818608E-02  0.9052559E-01
          2   -1    0    0  501    0  0.00000000000E+00  0.00000000000E+00  0.11842453588E+04  0.11842453588E+04  0.00000000000E+00 0. -1.
         -2   -1    0    0    0  501 -0.00000000000E+00 -0.00000000000E+00 -0.34124109167E+03  0.34124109167E+03  0.00000000000E+00 0.  1.
         23    2    1    2    0    0 -0.15051517747E+03 -0.24693265539E+03  0.72006600040E+02  0.30962831517E+03  0.83989214546E+02 0.  0.
        254    2    1    2    0    0  0.15051517747E+03  0.24693265539E+03  0.77099766709E+03  0.12158581353E+04  0.89456304841E+03 0.  0.
         23    2    4    4    0    0 -0.11262933194E+03  0.24395303125E+03 -0.10002369277E+03  0.30102593644E+03  0.91724737233E+02 0.  0.
         23    2    4    4    0    0  0.26314450941E+03  0.29796241386E+01  0.87102135987E+03  0.91483219887E+03  0.94793627159E+02 0.  0.
          3    1    3    3  502    0  0.10918143422E+02 -0.15056483317E+02  0.48011461684E+01  0.19208189665E+02  0.00000000000E+00 0. -1.
         -3    1    3    3    0  502 -0.16143332089E+03 -0.23187617207E+03  0.67205453872E+02  0.29042012551E+03  0.00000000000E+00 0.  1.
         13    1    5    5    0    0 -0.47939668481E+01  0.15110622533E+01 -0.24690413604E+02  0.25196863916E+02  0.00000000000E+00 0. -1.
        -13    1    5    5    0    0 -0.10783536509E+03  0.24244196900E+03 -0.75333279170E+02  0.27582907252E+03  0.00000000000E+00 0.  1.
          3    1    6    6  503    0  0.63031800304E+02  0.13641564657E+02  0.36355624335E+03  0.36923196262E+03  0.00000000000E+00 0. -1.
         -3    1    6    6    0  503  0.20011270910E+03 -0.10661940519E+02  0.50746511651E+03  0.54560023625E+03  0.00000000000E+00 0.  1.
<mgrwt>
<rscale>  0 0.12713979E+04</rscale>
<asrwt>0</asrwt>
<pdfrwt beam="1">  1        2 0.18219159E+00 0.12713979E+04</pdfrwt>
<pdfrwt beam="2">  1       -2 0.52498630E-01 0.12713979E+04</pdfrwt>
<totfact> 0.65076939E+01</totfact>
</mgrwt>
</event>
<event>
12    3  0.4192740E-008  0.2591354E+04  0.7818608E-02  0.8371144E-01
         -2   -1    0    0    0  501 -0.00000000000E+00  0.00000000000E+00  0.14941248886E+04  0.14941248886E+04  0.00000000000E+00 0.  1.
          2   -1    0    0  501    0  0.00000000000E+00 -0.00000000000E+00 -0.11235867552E+04  0.11235867552E+04  0.00000000000E+00 0. -1.
         23    2    1    2    0    0 -0.94075237088E+03 -0.47516815557E+03  0.58898699659E+03  0.12108252045E+04  0.91608919966E+02 0.  0.
        254    2    1    2    0    0  0.94075237088E+03  0.47516815557E+03 -0.21844886317E+03  0.14068864393E+04  0.90598551203E+03 0.  0.
         23    2    4    4    0    0  0.99344301788E+03  0.63285891296E+03 -0.10768468597E+03  0.11861905850E+04  0.89513568321E+02 0.  0.
         23    2    4    4    0    0 -0.52690646998E+02 -0.15769075739E+03 -0.11076417720E+03  0.22069585432E+03  0.93783143033E+02 0.  0.
          3    1    3    3  502    0 -0.76208914568E+02 -0.22903976857E+02  0.68420712662E+02  0.10494658040E+03  0.00000000000E+00 0. -1.
         -3    1    3    3    0  502 -0.86454345631E+03 -0.45226417871E+03  0.52056628393E+03  0.11058786241E+04  0.00000000000E+00 0.  1.
         13    1    5    5    0    0  0.22860146518E+03  0.12724172088E+03  0.99416489370E+01  0.26181658045E+03  0.00000000000E+00 0.  1.
        -13    1    5    5    0    0  0.76484155270E+03  0.50561719208E+03 -0.11762633491E+03  0.92437400457E+03  0.00000000000E+00 0. -1.
          1    1    6    6  503    0 -0.34613153330E+01 -0.95825800545E+02 -0.10382472550E+03  0.14132989202E+03  0.00000000000E+00 0.  1.
         -1    1    6    6    0  503 -0.49229331664E+02 -0.61864956848E+02 -0.69394516950E+01  0.79365962299E+02  0.00000000000E+00 0. -1.
<mgrwt>
<rscale>  0 0.25913540E+04</rscale>
<asrwt>0</asrwt>
<pdfrwt beam="1">  1        2 0.17285950E+00 0.25913540E+04</pdfrwt>
<pdfrwt beam="2">  1       -2 0.22986537E+00 0.25913540E+04</pdfrwt>
<totfact> 0.15976172E+00</totfact>
</mgrwt>
</event>
<event>
12    3  0.4192740E-008  0.1516384E+04  0.7818608E-02  0.8873630E-01
         -2   -1    0    0    0  501 -0.00000000000E+00  0.00000000000E+00  0.42950202409E+03  0.42950202409E+03  0.00000000000E+00 0. -1.
          2   -1    0    0  501    0  0.00000000000E+00 -0.00000000000E+00 -0.13384222123E+04  0.13384222123E+04  0.00000000000E+00 0.  1.
         23    2    1    2    0    0  0.39651528971E+03 -0.26865331410E+03 -0.36596622717E+03  0.61227609142E+03  0.10747908887E+03 0.  0.
        254    2    1    2    0    0 -0.39651528971E+03  0.26865331410E+03 -0.54295396101E+03  0.11556481449E+04  0.90073561768E+03 0.  0.
         23    2    4    4    0    0 -0.62375479590E+03  0.39525576866E+03 -0.38210494619E+03  0.83638198905E+03  0.90738490411E+02 0.  0.
         23    2    4    4    0    0  0.22723950619E+03 -0.12660245455E+03 -0.16084901482E+03  0.31926615588E+03  0.91610578264E+02 0.  0.
          4    1    3    3  502    0  0.16630850396E+03 -0.16685965959E+03 -0.14016572665E+03  0.27412970546E+03  0.00000000000E+00 0. -1.
         -4    1    3    3    0  502  0.23020678574E+03 -0.10179365451E+03 -0.22580050052E+03  0.33814638596E+03  0.00000000000E+00 0.  1.
         13    1    5    5    0    0 -0.56222941366E+02  0.47291886156E+02 -0.68710805815E+02  0.10059183102E+03  0.00000000000E+00 0.  1.
        -13    1    5    5    0    0 -0.56753185453E+03  0.34796388250E+03 -0.31339414037E+03  0.73579015803E+03  0.00000000000E+00 0. -1.
          1    1    6    6  503    0  0.16891752047E+03 -0.13553895325E+03 -0.12121382429E+03  0.24818688073E+03  0.00000000000E+00 0. -1.
         -1    1    6    6    0  503  0.58321985724E+02  0.89364986922E+01 -0.39635190529E+02  0.71079275151E+02  0.00000000000E+00 0.  1.
<mgrwt>
<rscale>  0 0.15163839E+04</rscale>
<asrwt>0</asrwt>
<pdfrwt beam="1">  1        2 0.20591111E+00 0.15163839E+04</pdfrwt>
<pdfrwt beam="2">  1       -2 0.66077234E-01 0.15163839E+04</pdfrwt>
<totfact> 0.31928146E+01</totfact>
</mgrwt>
</event>
<event>
12    3  0.4192740E-008  0.1226453E+04  0.7818608E-02  0.9090012E-01
          1   -1    0    0  501    0  0.00000000000E+00  0.00000000000E+00  0.11021555163E+04  0.11021555163E+04  0.00000000000E+00 0. -1.
         -1   -1    0    0    0  501 -0.00000000000E+00 -0.00000000000E+00 -0.34119234498E+03  0.34119234498E+03  0.00000000000E+00 0.  1.
         23    2    1    2    0    0 -0.18010521615E+03  0.18877639406E+03  0.26328559532E+03  0.38173085893E+03  0.91239948001E+02 0.  0.
        254    2    1    2    0    0  0.18010521615E+03 -0.18877639406E+03  0.49767757596E+03  0.10616170023E+04  0.90070709675E+03 0.  0.
         23    2    4    4    0    0 -0.59376000192E+02 -0.51129660426E+03  0.31884948540E+03  0.61234683224E+03  0.91399790437E+02 0.  0.
         23    2    4    4    0    0  0.23948121635E+03  0.32252021020E+03  0.17882809056E+03  0.44927017006E+03  0.92161058834E+02 0.  0.
          4    1    3    3  502    0 -0.33602937296E+02 -0.42105840205E+01  0.37718989792E+02  0.50691306983E+02  0.00000000000E+00 0.  1.
         -4    1    3    3    0  502 -0.14650227886E+03  0.19298697808E+03  0.22556660553E+03  0.33103955195E+03  0.00000000000E+00 0. -1.
         13    1    5    5    0    0 -0.39712338033E+02 -0.20982444041E+03  0.83145920288E+02  0.22916502710E+03  0.00000000000E+00 0. -1.
        -13    1    5    5    0    0 -0.19663662159E+02 -0.30147216385E+03  0.23570356511E+03  0.38318180514E+03  0.00000000000E+00 0.  1.
          2    1    6    6  503    0  0.96843149221E+02  0.13325071226E+03  0.24712168522E+02  0.16656842181E+03  0.00000000000E+00 0. -1.
         -2    1    6    6    0  503  0.14263806712E+03  0.18926949793E+03  0.15411592204E+03  0.28270174825E+03  0.00000000000E+00 0.  1.
<mgrwt>
<rscale>  0 0.12264535E+04</rscale>
<asrwt>0</asrwt>
<pdfrwt beam="1">  1        1 0.16956239E+00 0.12264535E+04</pdfrwt>
<pdfrwt beam="2">  1       -1 0.52491131E-01 0.12264535E+04</pdfrwt>
<totfact> 0.45620339E+01</totfact>
</mgrwt>
</event>
<event>
12    3  0.4192740E-008  0.1505095E+04  0.7818608E-02  0.8881072E-01
         -2   -1    0    0    0  501 -0.00000000000E+00  0.00000000000E+00  0.16875308168E+03  0.16875308168E+03  0.00000000000E+00 0.  1.
          2   -1    0    0  501    0  0.00000000000E+00 -0.00000000000E+00 -0.33559571091E+04  0.33559571091E+04  0.00000000000E+00 0. -1.
         23    2    1    2    0    0  0.25330748768E+03 -0.16081673010E+03 -0.18892805252E+04  0.19153149653E+04  0.94993734267E+02 0.  0.
        254    2    1    2    0    0 -0.25330748768E+03  0.16081673010E+03 -0.12979235022E+04  0.16093952255E+04  0.90306194145E+03 0.  0.
         23    2    4    4    0    0  0.35432536796E+02  0.24046558203E+03  0.14232421679E+02  0.26038939469E+03  0.92308798250E+02 0.  0.
         23    2    4    4    0    0 -0.28874002448E+03 -0.79648851938E+02 -0.13121559239E+04  0.13490058308E+04  0.91371885381E+02 0.  0.
          4    1    3    3  502    0  0.23239917855E+02  0.11656112652E+02 -0.11638928186E+03  0.11925780342E+03  0.00000000000E+00 0.  1.
         -4    1    3    3    0  502  0.23006756983E+03 -0.17247284275E+03 -0.17728912433E+04  0.17960571619E+04  0.00000000000E+00 0. -1.
         13    1    5    5    0    0  0.43223243985E+02  0.20095017849E+03 -0.21343162440E+02  0.20665128511E+03  0.00000000000E+00 0. -1.
        -13    1    5    5    0    0 -0.77907071885E+01  0.39515403544E+02  0.35575584119E+02  0.53738109580E+02  0.00000000000E+00 0.  1.
          1    1    6    6  503    0 -0.15250979504E+03 -0.87451719817E+02 -0.68777151289E+03  0.70988498704E+03  0.00000000000E+00 0. -1.
         -1    1    6    6    0  503 -0.13623022944E+03  0.78028678791E+01 -0.62438441104E+03  0.63912084375E+03  0.00000000000E+00 0.  1.
<mgrwt>
<rscale>  0 0.15050955E+04</rscale>
<asrwt>0</asrwt>
<pdfrwt beam="1">  1        2 0.51630108E+00 0.15050955E+04</pdfrwt>
<pdfrwt beam="2">  1       -2 0.25962013E-01 0.15050955E+04</pdfrwt>
<totfact> 0.13370455E+01</totfact>
</mgrwt>
</event>
<event>
12    3  0.4192740E-008  0.1210773E+04  0.7818608E-02  0.9103479E-01
          2   -1    0    0  501    0  0.00000000000E+00  0.00000000000E+00  0.11365287778E+04  0.11365287778E+04  0.00000000000E+00 0. -1.
         -2   -1    0    0    0  501 -0.00000000000E+00 -0.00000000000E+00 -0.32246680141E+03  0.32246680141E+03  0.00000000000E+00 0.  1.
         23    2    1    2    0    0  0.78573423461E+01 -0.15584278544E+03  0.44440893161E+03  0.47962577699E+03  0.90514506288E+02 0.  0.
        254    2    1    2    0    0 -0.78573423461E+01  0.15584278544E+03  0.36965304481E+03  0.97936980227E+03  0.89340535282E+03 0.  0.
         23    2    4    4    0    0 -0.40165763858E+03 -0.11519344005E+02  0.76917999936E+01  0.41169157592E+03  0.89270577346E+02 0.  0.
         23    2    4    4    0    0  0.39380029623E+03  0.16736212944E+03  0.36196124482E+03  0.56767822635E+03  0.90298783138E+02 0.  0.
          3    1    3    3  502    0  0.39956845956E+02 -0.39836837282E+02  0.18962188258E+03  0.19783827106E+03  0.00000000000E+00 0. -1.
         -3    1    3    3    0  502 -0.32099503610E+02 -0.11600594816E+03  0.25478704904E+03  0.28178750593E+03  0.00000000000E+00 0.  1.
         13    1    5    5    0    0 -0.25213022645E+03  0.26022701406E+02 -0.22954360091E+02  0.25450684613E+03  0.00000000000E+00 0. -1.
        -13    1    5    5    0    0 -0.14952741213E+03 -0.37542045411E+02  0.30646160085E+02  0.15718472979E+03  0.00000000000E+00 0.  1.
          4    1    6    6  503    0  0.24789732608E+03  0.81299393398E+02  0.26780486299E+03  0.37387447130E+03  0.00000000000E+00 0. -1.
         -4    1    6    6    0  503  0.14590297015E+03  0.86062736044E+02  0.94156381831E+02  0.19380375505E+03  0.00000000000E+00 0.  1.
<mgrwt>
<rscale>  0 0.12107730E+04</rscale>
<asrwt>0</asrwt>
<pdfrwt beam="1">  1        2 0.17485058E+00 0.12107730E+04</pdfrwt>
<pdfrwt beam="2">  1       -2 0.49610278E-01 0.12107730E+04</pdfrwt>
<totfact> 0.78424851E+01</totfact>
</mgrwt>
</event>
<event>
12    3  0.4192740E-008  0.1074813E+04  0.7818608E-02  0.9230094E-01
          1   -1    0    0  501    0  0.00000000000E+00  0.00000000000E+00  0.26222646311E+04  0.26222646311E+04  0.00000000000E+00 0. -1.
         -1   -1    0    0    0  501 -0.00000000000E+00 -0.00000000000E+00 -0.11013605514E+03  0.11013605514E+03  0.00000000000E+00 0.  1.
         23    2    1    2    0    0  0.10493545970E+03 -0.86006730235E+02  0.52084246529E+03  0.54588221691E+03  0.91114832731E+02 0.  0.
        254    2    1    2    0    0 -0.10493545970E+03  0.86006730235E+02  0.19912861107E+04  0.21865184693E+04  0.89287963010E+03 0.  0.
         23    2    4    4    0    0 -0.15450297342E+03  0.57162831583E+02 -0.24425844272E+01  0.18993062860E+03  0.94492959261E+02 0.  0.
         23    2    4    4    0    0  0.49567513722E+02  0.28843898652E+02  0.19937286951E+04  0.19965878407E+04  0.90110971635E+02 0.  0.
          3    1    3    3  502    0  0.93794076331E+02 -0.72439015200E+02  0.51325048665E+03  0.52675497314E+03  0.00000000000E+00 0. -1.
         -3    1    3    3    0  502  0.11141383370E+02 -0.13567715036E+02  0.75919786354E+01  0.19127243771E+02  0.00000000000E+00 0.  1.
         13    1    5    5    0    0 -0.12762458580E+03  0.23854302724E+01 -0.11839594548E+02  0.12819477828E+03  0.00000000000E+00 0.  1.
        -13    1    5    5    0    0 -0.26878387619E+02  0.54777401311E+02  0.93970101205E+01  0.61735850318E+02  0.00000000000E+00 0. -1.
          4    1    6    6  503    0  0.20558002825E+01 -0.69427421504E+01  0.12346855509E+02  0.14313379208E+02  0.00000000000E+00 0. -1.
         -4    1    6    6    0  503  0.47511713440E+02  0.35786640803E+02  0.19813818396E+04  0.19822744615E+04  0.00000000000E+00 0.  1.
<mgrwt>
<rscale>  0 0.10748133E+04</rscale>
<asrwt>0</asrwt>
<pdfrwt beam="1">  1        1 0.40342528E+00 0.10748133E+04</pdfrwt>
<pdfrwt beam="2">  1       -1 0.16944010E-01 0.10748133E+04</pdfrwt>
<totfact> 0.30287234E+01</totfact>
</mgrwt>
</event>
<event>
12    3  0.4192740E-008  0.1901241E+04  0.7818608E-02  0.8654239E-01
          1   -1    0    0  501    0  0.00000000000E+00  0.00000000000E+00  0.17986853972E+04  0.17986853972E+04  0.00000000000E+00 0. -1.
         -1   -1    0    0    0  501 -0.00000000000E+00 -0.00000000000E+00 -0.50241112093E+03  0.50241112093E+03  0.00000000000E+00 0.  1.
         23    2    1    2    0    0  0.38542937298E+03  0.33227120436E+03  0.11491473855E+04  0.12601339664E+04  0.91858287175E+02 0.  0.
        254    2    1    2    0    0 -0.38542937298E+03 -0.33227120436E+03  0.14712689085E+03  0.10409625518E+04  0.89610086342E+03 0.  0.
         23    2    4    4    0    0 -0.15053460100E+03 -0.32334587066E+03  0.49033911260E+03  0.61408499826E+03  0.97235392583E+02 0.  0.
         23    2    4    4    0    0 -0.23489477198E+03 -0.89253337034E+01 -0.34321222175E+03  0.42687755353E+03  0.95784137853E+02 0.  0.
          2    1    3    3  502    0  0.23217428906E+03  0.23720236569E+03  0.65919245362E+03  0.73804102440E+03  0.00000000000E+00 0. -1.
         -2    1    3    3    0  502  0.15325508392E+03  0.95068838665E+02  0.48995493184E+03  0.52209294198E+03  0.00000000000E+00 0.  1.
         13    1    5    5    0    0 -0.27932527484E+02 -0.39634668154E+02  0.22695266255E+02  0.53536979012E+02  0.00000000000E+00 0.  1.
        -13    1    5    5    0    0 -0.12260207352E+03 -0.28371120250E+03  0.46764384635E+03  0.56054801925E+03  0.00000000000E+00 0. -1.
          1    1    6    6  503    0 -0.15108127971E+03  0.21890950318E+02 -0.27490816618E+03  0.31445073798E+03  0.00000000000E+00 0. -1.
         -1    1    6    6    0  503 -0.83813492269E+02 -0.30816284021E+02 -0.68304055574E+02  0.11242681555E+03  0.00000000000E+00 0.  1.
<mgrwt>
<rscale>  0 0.19012412E+04</rscale>
<asrwt>0</asrwt>
<pdfrwt beam="1">  1        1 0.27672083E+00 0.19012412E+04</pdfrwt>
<pdfrwt beam="2">  1       -1 0.77294020E-01 0.19012412E+04</pdfrwt>
<totfact> 0.64084122E+00</totfact>
</mgrwt>
</event>
<event>
12    3  0.4192740E-008  0.1931541E+04  0.7818608E-02  0.8639314E-01
         -1   -1    0    0    0  501 -0.00000000000E+00  0.00000000000E+00  0.86638388065E+03  0.86638388065E+03  0.00000000000E+00 0.  1.
          1   -1    0    0  501    0  0.00000000000E+00 -0.00000000000E+00 -0.10765580655E+04  0.10765580655E+04  0.00000000000E+00 0. -1.
         23    2    1    2    0    0  0.61802357607E+03 -0.25176181626E+03 -0.44128445555E+03  0.80538034991E+03  0.92565569242E+02 0.  0.
        254    2    1    2    0    0 -0.61802357607E+03  0.25176181626E+03  0.23111027073E+03  0.11375615962E+04  0.89179441309E+03 0.  0.
         23    2    4    4    0    0 -0.56577867626E+03 -0.79226699817E+02  0.44365254756E+03  0.73025464524E+03  0.10030894008E+03 0.  0.
         23    2    4    4    0    0 -0.52244899810E+02  0.33098851608E+03 -0.21254227683E+03  0.40730695097E+03  0.91879298735E+02 0.  0.
          4    1    3    3  502    0  0.12034305002E+03 -0.28332310115E+02 -0.11986680660E+03  0.17220110572E+03  0.00000000000E+00 0. -1.
         -4    1    3    3    0  502  0.49768052605E+03 -0.22342950615E+03 -0.32141764895E+03  0.63317924420E+03  0.00000000000E+00 0.  1.
         13    1    5    5    0    0 -0.21332086380E+03  0.18053845355E+02  0.15222581691E+03  0.26268694600E+03  0.00000000000E+00 0. -1.
        -13    1    5    5    0    0 -0.35245781246E+03 -0.97280545173E+02  0.29142673065E+03  0.46756769924E+03  0.00000000000E+00 0.  1.
          1    1    6    6  503    0 -0.67225983088E+02  0.13691152696E+03 -0.85360943068E+02  0.17478726961E+03  0.00000000000E+00 0.  1.
         -1    1    6    6    0  503  0.14981083278E+02  0.19407698912E+03 -0.12718133376E+03  0.23251968136E+03  0.00000000000E+00 0. -1.
<mgrwt>
<rscale>  0 0.19315409E+04</rscale>
<asrwt>0</asrwt>
<pdfrwt beam="1">  1        1 0.16562432E+00 0.19315409E+04</pdfrwt>
<pdfrwt beam="2">  1       -1 0.13328983E+00 0.19315409E+04</pdfrwt>
<totfact> 0.58660863E+00</totfact>
</mgrwt>
</event>
<event>
12    3  0.4192740E-008  0.1474435E+04  0.7818608E-02  0.8901634E-01
          2   -1    0    0  501    0  0.00000000000E+00  0.00000000000E+00  0.33095434486E+03  0.33095434486E+03  0.00000000000E+00 0. -1.
         -2   -1    0    0    0  501 -0.00000000000E+00 -0.00000000000E+00 -0.16421881723E+04  0.16421881723E+04  0.00000000000E+00 0.  1.
         23    2    1    2    0    0  0.26530073744E+03 -0.26057386286E+03 -0.86368392341E+02  0.39240652601E+03  0.90775344488E+02 0.  0.
        254    2    1    2    0    0 -0.26530073744E+03  0.26057386286E+03 -0.12248654351E+04  0.15807359912E+04  0.92744149160E+03 0.  0.
         23    2    4    4    0    0 -0.41995492004E+03  0.43169771088E+02 -0.12246871308E+04  0.12986316521E+04  0.91432136218E+02 0.  0.
         23    2    4    4    0    0  0.15465418260E+03  0.21740409177E+03 -0.17830429035E+00  0.28210433903E+03  0.91653537793E+02 0.  0.
          1    1    3    3  502    0  0.23504547205E+03 -0.25610406445E+03 -0.61553345454E+02  0.35302192580E+03  0.00000000000E+00 0. -1.
         -1    1    3    3    0  502  0.30255265385E+02 -0.44697984103E+01 -0.24815046887E+02  0.39384600205E+02  0.00000000000E+00 0.  1.
         13    1    5    5    0    0 -0.53748126708E+02  0.12802364977E+02 -0.27153272789E+03  0.27709706600E+03  0.00000000000E+00 0.  1.
        -13    1    5    5    0    0 -0.36620679333E+03  0.30367406111E+02 -0.95315440292E+03  0.10215345861E+04  0.00000000000E+00 0. -1.
          1    1    6    6  503    0  0.16358146471E+03  0.21181052956E+03 -0.98470443698E+01  0.26780507895E+03  0.00000000000E+00 0. -1.
         -1    1    6    6    0  503 -0.89272821068E+01  0.55935622140E+01  0.96687400795E+01  0.14299260078E+02  0.00000000000E+00 0.  1.
<mgrwt>
<rscale>  0 0.14744346E+04</rscale>
<asrwt>0</asrwt>
<pdfrwt beam="1">  1        2 0.50916053E-01 0.14744346E+04</pdfrwt>
<pdfrwt beam="2">  1       -2 0.25264434E+00 0.14744346E+04</pdfrwt>
<totfact> 0.59004438E+00</totfact>
</mgrwt>
</event>
<event>
12    3  0.4192740E-008  0.1987388E+04  0.7818608E-02  0.8612540E-01
          1   -1    0    0  501    0  0.00000000000E+00  0.00000000000E+00  0.28099817263E+04  0.28099817263E+04  0.00000000000E+00 0. -1.
         -1   -1    0    0    0  501 -0.00000000000E+00 -0.00000000000E+00 -0.35139997897E+03  0.35139997897E+03  0.00000000000E+00 0.  1.
         23    2    1    2    0    0 -0.10211610567E+03  0.14862569677E+03 -0.23964259906E+03  0.31391317639E+03  0.92712514002E+02 0.  0.
        254    2    1    2    0    0  0.10211610567E+03 -0.14862569677E+03  0.26982243464E+04  0.28474685289E+04  0.89170909085E+03 0.  0.
         23    2    4    4    0    0  0.26311824283E+03 -0.34234153156E+03  0.24251414034E+04  0.24649218498E+04  0.89999806870E+02 0.  0.
         23    2    4    4    0    0 -0.16100213716E+03  0.19371583479E+03  0.27308294302E+03  0.38254667909E+03  0.91214884193E+02 0.  0.
          4    1    3    3  502    0 -0.79175759475E+02  0.13829378814E+03 -0.24076971582E+03  0.28872829578E+03  0.00000000000E+00 0.  1.
         -4    1    3    3    0  502 -0.22940346196E+02  0.10331908629E+02  0.11271167603E+01  0.25184880617E+02  0.00000000000E+00 0. -1.
         13    1    5    5    0    0  0.19204467601E+03 -0.29741663212E+03  0.18373933993E+04  0.18711900797E+04  0.00000000000E+00 0. -1.
        -13    1    5    5    0    0  0.71073566819E+02 -0.44924899440E+02  0.58774800413E+03  0.59373177012E+03  0.00000000000E+00 0.  1.
          1    1    6    6  503    0 -0.15220745163E+03  0.18248678907E+03  0.27953666360E+03  0.36689137740E+03  0.00000000000E+00 0. -1.
         -1    1    6    6    0  503 -0.87946855323E+01  0.11229045724E+02 -0.64537205875E+01  0.15655301687E+02  0.00000000000E+00 0.  1.
<mgrwt>
<rscale>  0 0.19873878E+04</rscale>
<asrwt>0</asrwt>
<pdfrwt beam="1">  1        1 0.43230487E+00 0.19873878E+04</pdfrwt>
<pdfrwt beam="2">  1       -1 0.54061537E-01 0.19873878E+04</pdfrwt>
<totfact> 0.26334794E+00</totfact>
</mgrwt>
</event>
<event>
12    3  0.4192740E-008  0.3212006E+04  0.7818608E-02  0.8185654E-01
         -2   -1    0    0    0  501 -0.00000000000E+00  0.00000000000E+00  0.22334659797E+04  0.22334659797E+04  0.00000000000E+00 0.  1.
          2   -1    0    0  501    0  0.00000000000E+00 -0.00000000000E+00 -0.11548172686E+04  0.11548172686E+04  0.00000000000E+00 0. -1.
         23    2    1    2    0    0  0.15643317042E+03  0.14734009125E+04  0.48994181737E+03  0.15632202098E+04  0.90735076634E+02 0.  0.
        254    2    1    2    0    0 -0.15643317042E+03 -0.14734009125E+04  0.58870689371E+03  0.18250630384E+04  0.88819913406E+03 0.  0.
         23    2    4    4    0    0 -0.83818218843E+02  0.71321042819E+02 -0.44030847365E+02  0.15197641806E+03  0.95110100245E+02 0.  0.
         23    2    4    4    0    0 -0.72614951573E+02 -0.15447219553E+04  0.63273774107E+03  0.16730866204E+04  0.86156484345E+02 0.  0.
          1    1    3    3  502    0  0.66874572680E+02  0.98567165851E+03  0.34772636149E+03  0.10473463846E+04  0.00000000000E+00 0. -1.
         -1    1    3    3    0  502  0.89558597736E+02  0.48772925402E+03  0.14221545588E+03  0.51587382522E+03  0.00000000000E+00 0.  1.
         13    1    5    5    0    0 -0.21281746198E+01 -0.72562583951E+01 -0.37701457253E+02  0.38452337928E+02  0.00000000000E+00 0. -1.
        -13    1    5    5    0    0 -0.81690044223E+02  0.78577301215E+02 -0.63293901119E+01  0.11352408013E+03  0.00000000000E+00 0.  1.
          1    1    6    6  503    0  0.74165063584E+00 -0.17449263092E+03  0.99935030577E+02  0.20108515268E+03  0.00000000000E+00 0. -1.
         -1    1    6    6    0  503 -0.73356602209E+02 -0.13702293244E+04  0.53280271049E+03  0.14720014677E+04  0.00000000000E+00 0.  1.
<mgrwt>
<rscale>  0 0.32120057E+04</rscale>
<asrwt>0</asrwt>
<pdfrwt beam="1">  1        2 0.17766420E+00 0.32120057E+04</pdfrwt>
<pdfrwt beam="2">  1       -2 0.34361015E+00 0.32120057E+04</pdfrwt>
<totfact> 0.28943709E-01</totfact>
</mgrwt>
</event>
<event>
12    3  0.4192740E-008  0.1561674E+04  0.7818608E-02  0.8844445E-01
          3   -1    0    0  501    0  0.00000000000E+00  0.00000000000E+00  0.53370108076E+03  0.53370108076E+03  0.00000000000E+00 0. -1.
         -3   -1    0    0    0  501 -0.00000000000E+00 -0.00000000000E+00 -0.11424114402E+04  0.11424114402E+04  0.00000000000E+00 0.  1.
         23    2    1    2    0    0  0.36187110251E+03 -0.16984043535E+03  0.15511441166E+03  0.43841503644E+03  0.91382685244E+02 0.  0.
        254    2    1    2    0    0 -0.36187110251E+03  0.16984043535E+03 -0.76382477106E+03  0.12376974845E+04  0.88807111983E+03 0.  0.
         23    2    4    4    0    0  0.97355799020E+02 -0.25604888354E+03 -0.44414158496E+03  0.52852722010E+03  0.83905259233E+02 0.  0.
         23    2    4    4    0    0 -0.45922690153E+03  0.42588931889E+03 -0.31968318610E+03  0.70917026438E+03  0.91945991579E+02 0.  0.
          1    1    3    3  502    0  0.10344058820E+03 -0.28119593109E+02  0.81399261775E+02  0.13459757287E+03  0.00000000000E+00 0. -1.
         -1    1    3    3    0  502  0.25843051431E+03 -0.14172084224E+03  0.73715149886E+02  0.30381746357E+03  0.00000000000E+00 0.  1.
         13    1    5    5    0    0  0.85154597017E+02 -0.25438691145E+03 -0.39235101643E+03  0.47529288466E+03  0.00000000000E+00 0. -1.
        -13    1    5    5    0    0  0.12201202002E+02 -0.16619720959E+01 -0.51790568526E+02  0.53234335441E+02  0.00000000000E+00 0.  1.
          4    1    6    6  503    0 -0.34609922782E+03  0.37054261804E+03 -0.25964070002E+03  0.56964883954E+03  0.00000000000E+00 0. -1.
         -4    1    6    6    0  503 -0.11312767371E+03  0.55346700850E+02 -0.60042486082E+02  0.13952142484E+03  0.00000000000E+00 0.  1.
<mgrwt>
<rscale>  0 0.15616737E+04</rscale>
<asrwt>0</asrwt>
<pdfrwt beam="1">  1        3 0.82107858E-01 0.15616737E+04</pdfrwt>
<pdfrwt beam="2">  1       -3 0.17575561E+00 0.15616737E+04</pdfrwt>
<totfact> 0.73007821E-01</totfact>
</mgrwt>
</event>
<event>
12    3  0.4192740E-008  0.1471548E+04  0.7818608E-02  0.8903597E-01
         -1   -1    0    0    0  501 -0.00000000000E+00  0.00000000000E+00  0.31579573307E+03  0.31579573307E+03  0.00000000000E+00 0.  1.
          1   -1    0    0  501    0  0.00000000000E+00 -0.00000000000E+00 -0.17142829422E+04  0.17142829422E+04  0.00000000000E+00 0. -1.
         23    2    1    2    0    0  0.21778767808E+03  0.31772075192E+03 -0.10645082440E+03  0.40960111260E+03  0.89796127437E+02 0.  0.
        254    2    1    2    0    0 -0.21778767808E+03 -0.31772075192E+03 -0.12920363848E+04  0.16204775627E+04  0.89900587471E+03 0.  0.
         23    2    4    4    0    0  0.44750705210E+02  0.19954439109E+03 -0.27004900213E+02  0.22577111094E+03  0.91775488380E+02 0.  0.
         23    2    4    4    0    0 -0.26253838329E+03 -0.51726514301E+03 -0.12650314846E+04  0.13947064518E+04  0.91715859051E+02 0.  0.
          4    1    3    3  502    0  0.69737881976E+02  0.14718413600E+03 -0.75085492817E+01  0.16304269497E+03  0.00000000000E+00 0. -1.
         -4    1    3    3    0  502  0.14804979610E+03  0.17053661592E+03 -0.98942275116E+02  0.24655841762E+03  0.00000000000E+00 0.  1.
         13    1    5    5    0    0  0.35310776220E+02  0.15095701647E+02  0.35681187537E+01  0.38567636652E+02  0.00000000000E+00 0.  1.
        -13    1    5    5    0    0  0.94399289896E+01  0.18444868945E+03 -0.30573018967E+02  0.18720347429E+03  0.00000000000E+00 0. -1.
          3    1    6    6  503    0 -0.22408226745E+03 -0.35605082835E+03 -0.87293391975E+03  0.96901944418E+03  0.00000000000E+00 0. -1.
         -3    1    6    6    0  503 -0.38456115839E+02 -0.16121431466E+03 -0.39209756482E+03  0.42568700760E+03  0.00000000000E+00 0.  1.
<mgrwt>
<rscale>  0 0.14715478E+04</rscale>
<asrwt>0</asrwt>
<pdfrwt beam="1">  1        1 0.26373584E+00 0.14715478E+04</pdfrwt>
<pdfrwt beam="2">  1       -1 0.48583958E-01 0.14715478E+04</pdfrwt>
<totfact> 0.19156649E+01</totfact>
</mgrwt>
</event>
<event>
12    3  0.4192740E-008  0.1140629E+04  0.7818608E-02  0.9166472E-01
          1   -1    0    0  501    0  0.00000000000E+00  0.00000000000E+00  0.15262048477E+04  0.15262048477E+04  0.00000000000E+00 0. -1.
         -1   -1    0    0    0  501 -0.00000000000E+00 -0.00000000000E+00 -0.21311602219E+03  0.21311602219E+03  0.00000000000E+00 0.  1.
         23    2    1    2    0    0  0.54043387800E+02 -0.18597727283E+03  0.18267721789E+03  0.28167050430E+03  0.91973220448E+02 0.  0.
        254    2    1    2    0    0 -0.54043387800E+02  0.18597727283E+03  0.11304116076E+04  0.14576503656E+04  0.89966991276E+03 0.  0.
         23    2    4    4    0    0  0.34863772567E+03  0.17194568780E+03  0.21525290163E+03  0.45363102685E+03  0.91289175380E+02 0.  0.
         23    2    4    4    0    0 -0.40268111347E+03  0.14031585023E+02  0.91515870599E+03  0.10040193388E+04  0.90500889091E+02 0.  0.
          2    1    3    3  502    0  0.17312619089E+02 -0.16946988621E+03  0.16670441390E+03  0.23834875859E+03  0.00000000000E+00 0. -1.
         -2    1    3    3    0  502  0.36730768711E+02 -0.16507386620E+02  0.15972803998E+02  0.43321745702E+02  0.00000000000E+00 0.  1.
         13    1    5    5    0    0  0.24562067512E+03  0.78225142226E+02  0.11636294989E+03  0.28282331062E+03  0.00000000000E+00 0.  1.
        -13    1    5    5    0    0  0.10301705055E+03  0.93720545577E+02  0.98889951739E+02  0.17080771623E+03  0.00000000000E+00 0. -1.
          1    1    6    6  503    0 -0.16480642039E+03 -0.37850410064E+02  0.35351958287E+03  0.39187996277E+03  0.00000000000E+00 0. -1.
         -1    1    6    6    0  503 -0.23787469308E+03  0.51881995088E+02  0.56163912311E+03  0.61213937599E+03  0.00000000000E+00 0.  1.
<mgrwt>
<rscale>  0 0.11406291E+04</rscale>
<asrwt>0</asrwt>
<pdfrwt beam="1">  1        1 0.23480074E+00 0.11406291E+04</pdfrwt>
<pdfrwt beam="2">  1       -1 0.32787081E-01 0.11406291E+04</pdfrwt>
<totfact> 0.54361665E+01</totfact>
</mgrwt>
</event>
<event>
12    3  0.4192740E-008  0.1615462E+04  0.7818608E-02  0.8811105E-01
          2   -1    0    0  501    0  0.00000000000E+00  0.00000000000E+00  0.27765139244E+04  0.27765139244E+04  0.00000000000E+00 0. -1.
         -2   -1    0    0    0  501 -0.00000000000E+00 -0.00000000000E+00 -0.23498158712E+03  0.23498158712E+03  0.00000000000E+00 0.  1.
         23    2    1    2    0    0  0.41530587674E+03 -0.48715112838E+02  0.20127306697E+03  0.47304691285E+03  0.91708237303E+02 0.  0.
        254    2    1    2    0    0 -0.41530587674E+03  0.48715112838E+02  0.23402592703E+04  0.25384485987E+04  0.88997511333E+03 0.  0.
         23    2    4    4    0    0 -0.28847470440E+02  0.32623708521E+03  0.17134862766E+04  0.17468806145E+04  0.91070570428E+02 0.  0.
         23    2    4    4    0    0 -0.38645840630E+03 -0.27752197237E+03  0.62677299370E+03  0.79156798419E+03  0.85830897771E+02 0.  0.
          2    1    3    3  502    0  0.37194326218E+03 -0.18385199601E+02  0.15734923697E+03  0.40427538661E+03  0.00000000000E+00 0.  1.
         -2    1    3    3    0  502  0.43362614564E+02 -0.30329913237E+02  0.43923829998E+02  0.68771526233E+02  0.00000000000E+00 0. -1.
         13    1    5    5    0    0 -0.14682652290E+02  0.23514765809E+03  0.99549855048E+03  0.10229992011E+04  0.00000000000E+00 0. -1.
        -13    1    5    5    0    0 -0.14164818150E+02  0.91089427121E+02  0.71798772613E+03  0.72388141341E+03  0.00000000000E+00 0.  1.
          2    1    6    6  503    0 -0.34736863306E+03 -0.21360686306E+03  0.54481204206E+03  0.68052407772E+03  0.00000000000E+00 0. -1.
         -2    1    6    6    0  503 -0.39089773240E+02 -0.63915109317E+02  0.81960951642E+02  0.11104390647E+03  0.00000000000E+00 0.  1.
<mgrwt>
<rscale>  0 0.16154623E+04</rscale>
<asrwt>0</asrwt>
<pdfrwt beam="1">  1        2 0.42715596E+00 0.16154623E+04</pdfrwt>
<pdfrwt beam="2">  1       -2 0.36151015E-01 0.16154623E+04</pdfrwt>
<totfact> 0.16538847E+01</totfact>
</mgrwt>
</event>
<event>
12    3  0.4192740E-008  0.1833681E+04  0.7818608E-02  0.8688591E-01
          2   -1    0    0  501    0  0.00000000000E+00  0.00000000000E+00  0.10935732686E+04  0.10935732686E+04  0.00000000000E+00 0. -1.
         -2   -1    0    0    0  501 -0.00000000000E+00 -0.00000000000E+00 -0.76866965969E+03  0.76866965969E+03  0.00000000000E+00 0.  1.
         23    2    1    2    0    0 -0.18688186889E+03  0.66539759773E+03  0.25602723251E+03  0.74236449205E+03  0.88748517069E+02 0.  0.
        254    2    1    2    0    0  0.18688186889E+03 -0.66539759773E+03  0.68876376418E+02  0.11198784363E+04  0.87846739313E+03 0.  0.
         23    2    4    4    0    0  0.23948081963E+03  0.12948857112E+03 -0.92869107529E+02  0.30182877700E+03  0.91419836338E+02 0.  0.
         23    2    4    4    0    0 -0.52598950735E+02 -0.79488616885E+03  0.16174548395E+03  0.81804965926E+03  0.91831216890E+02 0.  0.
          4    1    3    3  502    0 -0.41945010559E+02  0.19718474132E+03  0.34636123751E+02  0.20455040256E+03  0.00000000000E+00 0.  1.
         -4    1    3    3    0  502 -0.14493685833E+03  0.46821285641E+03  0.22139110876E+03  0.53781408949E+03  0.00000000000E+00 0. -1.
         13    1    5    5    0    0  0.26577856315E+02 -0.57469815035E+01  0.10630573504E+02  0.29196221258E+02  0.00000000000E+00 0. -1.
        -13    1    5    5    0    0  0.21290296331E+03  0.13523555262E+03 -0.10349968103E+03  0.27263255575E+03  0.00000000000E+00 0.  1.
          1    1    6    6  503    0 -0.47135224021E+02 -0.23770407932E+03  0.20378760235E+02  0.24318768994E+03  0.00000000000E+00 0. -1.
         -1    1    6    6    0  503 -0.54637267140E+01 -0.55718208952E+03  0.14136672371E+03  0.57486196932E+03  0.00000000000E+00 0.  1.
<mgrwt>
<rscale>  0 0.18336811E+04</rscale>
<asrwt>0</asrwt>
<pdfrwt beam="1">  1        2 0.16824204E+00 0.18336811E+04</pdfrwt>
<pdfrwt beam="2">  1       -2 0.11825687E+00 0.18336811E+04</pdfrwt>
<totfact> 0.11400294E+01</totfact>
</mgrwt>
</event>
<event>
12    3  0.4192740E-008  0.2551799E+04  0.7818608E-02  0.8384761E-01
         -3   -1    0    0    0  501 -0.00000000000E+00  0.00000000000E+00  0.12411451811E+04  0.12411451811E+04  0.00000000000E+00 0. -1.
          3   -1    0    0  501    0  0.00000000000E+00 -0.00000000000E+00 -0.13116273678E+04  0.13116273678E+04  0.00000000000E+00 0.  1.
         23    2    1    2    0    0  0.14515194848E+03  0.73579795272E+02  0.10728355232E+04  0.10888370094E+04  0.90038317965E+02 0.  0.
        254    2    1    2    0    0 -0.14515194848E+03 -0.73579795272E+02 -0.11433177099E+04  0.14639355395E+04  0.89969372754E+03 0.  0.
         23    2    4    4    0    0  0.35400475181E+02  0.32960902083E+03 -0.15727223976E+03  0.37938979504E+03  0.96471544626E+02 0.  0.
         23    2    4    4    0    0 -0.18055242366E+03 -0.40318881610E+03 -0.98604547019E+03  0.10845457444E+04  0.93773148229E+02 0.  0.
          3    1    3    3  502    0  0.61779379831E+02  0.61358053344E+02  0.75563302464E+03  0.76063313785E+03  0.00000000000E+00 0. -1.
         -3    1    3    3    0  502  0.83372568651E+02  0.12221741928E+02  0.31720249860E+03  0.32820387155E+03  0.00000000000E+00 0.  1.
         13    1    5    5    0    0  0.31422033201E+02  0.90561717935E+02 -0.88871986542E+02  0.13071724797E+03  0.00000000000E+00 0.  1.
        -13    1    5    5    0    0  0.39784419806E+01  0.23904730290E+03 -0.68400253217E+02  0.24867254706E+03  0.00000000000E+00 0. -1.
          2    1    6    6  503    0 -0.23668537207E+02 -0.62534366417E+02 -0.82079893662E+02  0.10586716007E+03  0.00000000000E+00 0.  1.
         -2    1    6    6    0  503 -0.15688388646E+03 -0.34065444969E+03 -0.90396557653E+03  0.97867858435E+03  0.00000000000E+00 0. -1.
<mgrwt>
<rscale>  0 0.25517994E+04</rscale>
<asrwt>0</asrwt>
<pdfrwt beam="1">  1        3 0.20178882E+00 0.25517994E+04</pdfrwt>
<pdfrwt beam="2">  1       -3 0.19094541E+00 0.25517994E+04</pdfrwt>
<totfact> 0.55537474E-02</totfact>
</mgrwt>
</event>
<event>
12    3  0.4192740E-008  0.1742551E+04  0.7818608E-02  0.8737461E-01
          2   -1    0    0  501    0  0.00000000000E+00  0.00000000000E+00  0.71240434617E+03  0.71240434617E+03  0.00000000000E+00 0. -1.
         -2   -1    0    0    0  501 -0.00000000000E+00 -0.00000000000E+00 -0.10655765936E+04  0.10655765936E+04  0.00000000000E+00 0.  1.
         23    2    1    2    0    0 -0.12442216663E+03  0.50614369196E+03  0.22364675902E+03  0.57467741042E+03  0.92595576412E+02 0.  0.
        254    2    1    2    0    0  0.12442216663E+03 -0.50614369196E+03 -0.57681900644E+03  0.12033035293E+04  0.91845353996E+03 0.  0.
         23    2    4    4    0    0 -0.10511658052E+03  0.23583465449E+02  0.19139411663E+03  0.23805309067E+03  0.91825327403E+02 0.  0.
         23    2    4    4    0    0  0.22953874715E+03 -0.52972715741E+03 -0.76821312307E+03  0.96525043867E+03  0.90874139109E+02 0.  0.
          4    1    3    3  502    0 -0.12015147371E+03  0.35561938816E+03  0.18852283924E+03  0.42005045743E+03  0.00000000000E+00 0. -1.
         -4    1    3    3    0  502 -0.42706929154E+01  0.15052430379E+03  0.35123919787E+02  0.15462695299E+03  0.00000000000E+00 0.  1.
         13    1    5    5    0    0 -0.18007235945E+01 -0.82165780974E+01  0.88219007842E+02  0.88619118173E+02  0.00000000000E+00 0. -1.
        -13    1    5    5    0    0 -0.10331585693E+03  0.31800043546E+02  0.10317510879E+03  0.14943397249E+03  0.00000000000E+00 0.  1.
          1    1    6    6  503    0  0.72471196618E+02 -0.95668868708E+02 -0.12234826429E+03  0.17138758576E+03  0.00000000000E+00 0. -1.
         -1    1    6    6    0  503  0.15706755053E+03 -0.43405828870E+03 -0.64586485878E+03  0.79386285291E+03  0.00000000000E+00 0.  1.
<mgrwt>
<rscale>  0 0.17425515E+04</rscale>
<asrwt>0</asrwt>
<pdfrwt beam="1">  1        2 0.10960067E+00 0.17425515E+04</pdfrwt>
<pdfrwt beam="2">  1       -2 0.16393486E+00 0.17425515E+04</pdfrwt>
<totfact> 0.89499598E+00</totfact>
</mgrwt>
</event>
<event>
12    3  0.4192740E-008  0.1693849E+04  0.7818608E-02  0.8764880E-01
          1   -1    0    0  501    0  0.00000000000E+00  0.00000000000E+00  0.12220233787E+04  0.12220233787E+04  0.00000000000E+00 0. -1.
         -1   -1    0    0    0  501 -0.00000000000E+00 -0.00000000000E+00 -0.58696190018E+03  0.58696190018E+03  0.00000000000E+00 0.  1.
         23    2    1    2    0    0  0.29411973637E+03 -0.10029803299E+03  0.78634547736E+03  0.85042295048E+03  0.91180426605E+02 0.  0.
        254    2    1    2    0    0 -0.29411973637E+03  0.10029803299E+03 -0.15128399879E+03  0.95856232844E+03  0.89408544025E+03 0.  0.
         23    2    4    4    0    0  0.26149601667E+03  0.11774802398E+02  0.15077883254E+03  0.31335795958E+03  0.83307513356E+02 0.  0.
         23    2    4    4    0    0 -0.55561575304E+03  0.88523230596E+02 -0.30206283133E+03  0.64520436886E+03  0.92203558160E+02 0.  0.
          2    1    3    3  502    0  0.28879561157E+03 -0.10994315983E+03  0.77618422449E+03  0.83543542778E+03  0.00000000000E+00 0. -1.
         -2    1    3    3    0  502  0.53241247986E+01  0.96451268388E+01  0.10161252874E+02  0.14987522696E+02  0.00000000000E+00 0.  1.
         13    1    5    5    0    0  0.26327053492E+03  0.13922901978E+02  0.15678594296E+03  0.30673613035E+03  0.00000000000E+00 0.  1.
        -13    1    5    5    0    0 -0.17745182430E+01 -0.21480995793E+01 -0.60071104138E+01  0.66218292277E+01  0.00000000000E+00 0. -1.
          3    1    6    6  503    0 -0.14726115734E+03  0.35939073049E+01 -0.40086868582E+02  0.15266211600E+03  0.00000000000E+00 0. -1.
         -3    1    6    6    0  503 -0.40835459570E+03  0.84929323291E+02 -0.26197596275E+03  0.49254225286E+03  0.00000000000E+00 0.  1.
<mgrwt>
<rscale>  0 0.16938491E+04</rscale>
<asrwt>0</asrwt>
<pdfrwt beam="1">  1        1 0.18800360E+00 0.16938491E+04</pdfrwt>
<pdfrwt beam="2">  1       -1 0.90301831E-01 0.16938491E+04</pdfrwt>
<totfact> 0.11756385E+01</totfact>
</mgrwt>
</event>
<event>
12    3  0.4192740E-008  0.1228616E+04  0.7818608E-02  0.9088171E-01
          2   -1    0    0  501    0  0.00000000000E+00  0.00000000000E+00  0.27874266246E+03  0.27874266246E+03  0.00000000000E+00 0. -1.
         -2   -1    0    0    0  501 -0.00000000000E+00 -0.00000000000E+00 -0.13538443349E+04  0.13538443349E+04  0.00000000000E+00 0.  1.
         23    2    1    2    0    0  0.96505108237E+02 -0.15140226980E+03 -0.51913819472E+03  0.55704882407E+03  0.92536716821E+02 0.  0.
        254    2    1    2    0    0 -0.96505108237E+02  0.15140226980E+03 -0.55596347768E+03  0.10755381733E+04  0.90302330558E+03 0.  0.
         23    2    4    4    0    0  0.14027935346E+03 -0.29486633067E+03 -0.42805313398E+03  0.54624542093E+03  0.92358672633E+02 0.  0.
         23    2    4    4    0    0 -0.23678446170E+03  0.44626860047E+03 -0.12791034370E+03  0.52929275233E+03  0.92559259805E+02 0.  0.
          1    1    3    3  502    0  0.55077776084E+02 -0.57833063832E+02 -0.11402772127E+03  0.13921402914E+03  0.00000000000E+00 0. -1.
         -1    1    3    3    0  502  0.41427332153E+02 -0.93569205964E+02 -0.40511047345E+03  0.41783479493E+03  0.00000000000E+00 0.  1.
         13    1    5    5    0    0  0.71464803131E+02 -0.16601320924E+03 -0.16194814052E+03  0.24268251677E+03  0.00000000000E+00 0. -1.
        -13    1    5    5    0    0  0.68814550332E+02 -0.12885312143E+03 -0.26610499345E+03  0.30356290416E+03  0.00000000000E+00 0.  1.
          4    1    6    6  503    0 -0.17788472939E+03  0.38517955233E+03 -0.13201159688E+03  0.44433470064E+03  0.00000000000E+00 0. -1.
         -4    1    6    6    0  503 -0.58899732313E+02  0.61089048137E+02  0.41012531806E+01  0.84958051687E+02  0.00000000000E+00 0.  1.
<mgrwt>
<rscale>  0 0.12286158E+04</rscale>
<asrwt>0</asrwt>
<pdfrwt beam="1">  1        2 0.42883487E-01 0.12286158E+04</pdfrwt>
<pdfrwt beam="2">  1       -2 0.20828374E+00 0.12286158E+04</pdfrwt>
<totfact> 0.13782964E+01</totfact>
</mgrwt>
</event>
<event>
12    3  0.4192740E-008  0.1419272E+04  0.7818608E-02  0.8939985E-01
         -2   -1    0    0    0  501 -0.00000000000E+00  0.00000000000E+00  0.12549986155E+03  0.12549986155E+03  0.00000000000E+00 0.  1.
          2   -1    0    0  501    0  0.00000000000E+00 -0.00000000000E+00 -0.40126227226E+04  0.40126227226E+04  0.00000000000E+00 0. -1.
         23    2    1    2    0    0  0.11374517508E+03 -0.28731395257E+02 -0.21498072784E+04  0.21550225507E+04  0.93206232716E+02 0.  0.
        254    2    1    2    0    0 -0.11374517508E+03  0.28731395257E+02 -0.17373155826E+04  0.19831000334E+04  0.94902942579E+03 0.  0.
         23    2    4    4    0    0 -0.43368380352E+03  0.23637234943E+03 -0.13117727794E+04  0.14047128151E+04  0.92286181239E+02 0.  0.
         23    2    4    4    0    0  0.31993862844E+03 -0.20764095417E+03 -0.42554280324E+03  0.57838721829E+03  0.89272644640E+02 0.  0.
          3    1    3    3  502    0 -0.16407164613E+02 -0.53924263004E+01 -0.20573228213E+03  0.20645591593E+03  0.00000000000E+00 0.  1.
         -3    1    3    3    0  502  0.13015233969E+03 -0.23338968956E+02 -0.19440749963E+04  0.19485666348E+04  0.00000000000E+00 0. -1.
         13    1    5    5    0    0 -0.14880098203E+03  0.47045908209E+02 -0.50083402913E+03  0.52458533573E+03  0.00000000000E+00 0. -1.
        -13    1    5    5    0    0 -0.28488282149E+03  0.18932644122E+03 -0.81093875025E+03  0.88012747940E+03  0.00000000000E+00 0.  1.
          1    1    6    6  503    0  0.26200934382E+02 -0.46860830091E+02 -0.86851795484E+02  0.10210612488E+03  0.00000000000E+00 0. -1.
         -1    1    6    6    0  503  0.29373769406E+03 -0.16078012408E+03 -0.33869100776E+03  0.47628109341E+03  0.00000000000E+00 0.  1.
<mgrwt>
<rscale>  0 0.14192725E+04</rscale>
<asrwt>0</asrwt>
<pdfrwt beam="1">  1        2 0.61732666E+00 0.14192725E+04</pdfrwt>
<pdfrwt beam="2">  1       -2 0.19307668E-01 0.14192725E+04</pdfrwt>
<totfact> 0.75914281E+00</totfact>
</mgrwt>
</event>
<event>
12    3  0.4192740E-008  0.1214373E+04  0.7818608E-02  0.9100368E-01
         -2   -1    0    0    0  501 -0.00000000000E+00  0.00000000000E+00  0.29294498519E+03  0.29294498519E+03  0.00000000000E+00 0.  1.
          2   -1    0    0  501    0  0.00000000000E+00 -0.00000000000E+00 -0.12585145691E+04  0.12585145691E+04  0.00000000000E+00 0. -1.
         23    2    1    2    0    0  0.85566598763E+02 -0.24791702731E+03 -0.27736580043E+03  0.39318336753E+03  0.94217185271E+02 0.  0.
        254    2    1    2    0    0 -0.85566598763E+02  0.24791702731E+03 -0.68820378349E+03  0.11582761868E+04  0.89397694711E+03 0.  0.
         23    2    4    4    0    0 -0.19029695488E+03 -0.27361475764E+03 -0.10145607608E+03  0.36038639009E+03  0.92233660611E+02 0.  0.
         23    2    4    4    0    0  0.10473035612E+03  0.52153178496E+03 -0.58674770740E+03  0.79788979668E+03  0.96909263182E+02 0.  0.
          2    1    3    3  502    0  0.44761747089E+02 -0.13277125502E+03 -0.80778827418E+02  0.16173137952E+03  0.00000000000E+00 0.  1.
         -2    1    3    3    0  502  0.40804851674E+02 -0.11514577229E+03 -0.19658697301E+03  0.23145198801E+03  0.00000000000E+00 0. -1.
         13    1    5    5    0    0 -0.83442929777E+02 -0.19276656025E+03 -0.79569191434E+02  0.22461728675E+03  0.00000000000E+00 0. -1.
        -13    1    5    5    0    0 -0.10685402510E+03 -0.80848197395E+02 -0.21886884650E+02  0.13576910334E+03  0.00000000000E+00 0.  1.
          4    1    6    6  503    0  0.76054197430E+02  0.48483169462E+03 -0.55821538703E+03  0.74327009315E+03  0.00000000000E+00 0. -1.
         -4    1    6    6    0  503  0.28676158687E+02  0.36700090341E+02 -0.28532320373E+02  0.54619703532E+02  0.00000000000E+00 0.  1.
<mgrwt>
<rscale>  0 0.12143731E+04</rscale>
<asrwt>0</asrwt>
<pdfrwt beam="1">  1        2 0.19361763E+00 0.12143731E+04</pdfrwt>
<pdfrwt beam="2">  1       -2 0.45068458E-01 0.12143731E+04</pdfrwt>
<totfact> 0.80438614E+01</totfact>
</mgrwt>
</event>
<event>
12    3  0.4192740E-008  0.1945599E+04  0.7818608E-02  0.8632486E-01
         -1   -1    0    0    0  501 -0.00000000000E+00  0.00000000000E+00  0.50373330572E+03  0.50373330572E+03  0.00000000000E+00 0.  1.
          1   -1    0    0  501    0  0.00000000000E+00 -0.00000000000E+00 -0.18786499184E+04  0.18786499184E+04  0.00000000000E+00 0. -1.
         23    2    1    2    0    0  0.60671496850E+00 -0.16129545372E+03 -0.14552539585E+04  0.14670031362E+04  0.91200473983E+02 0.  0.
        254    2    1    2    0    0 -0.60671496850E+00  0.16129545372E+03  0.80337345802E+02  0.91538008792E+03  0.89746867618E+03 0.  0.
         23    2    4    4    0    0 -0.38908294009E+03  0.23190881955E+03 -0.98172071289E+02  0.47235325611E+03  0.91173505585E+02 0.  0.
         23    2    4    4    0    0  0.38847622512E+03 -0.70613365827E+02  0.17850941709E+03  0.44302683181E+03  0.92234141179E+02 0.  0.
          1    1    3    3  502    0  0.10421361304E+02 -0.10014563493E+03 -0.12050141251E+04  0.12092132958E+04  0.00000000000E+00 0. -1.
         -1    1    3    3    0  502 -0.98146463358E+01 -0.61149818789E+02 -0.25023983336E+03  0.25778984042E+03  0.00000000000E+00 0.  1.
         13    1    5    5    0    0 -0.72040011658E+02  0.41389387731E+02 -0.55728312025E+02  0.10004243828E+03  0.00000000000E+00 0.  1.
        -13    1    5    5    0    0 -0.31704292843E+03  0.19051943182E+03 -0.42443759264E+02  0.37231081782E+03  0.00000000000E+00 0. -1.
          4    1    6    6  503    0  0.32860996020E+03 -0.26001688293E+02  0.13212152679E+03  0.35512911959E+03  0.00000000000E+00 0. -1.
         -4    1    6    6    0  503  0.59866264916E+02 -0.44611677534E+02  0.46387890305E+02  0.87897712225E+02  0.00000000000E+00 0.  1.
<mgrwt>
<rscale>  0 0.19455987E+04</rscale>
<asrwt>0</asrwt>
<pdfrwt beam="1">  1        1 0.28902306E+00 0.19455987E+04</pdfrwt>
<pdfrwt beam="2">  1       -1 0.77497432E-01 0.19455987E+04</pdfrwt>
<totfact> 0.56022681E+00</totfact>
</mgrwt>
</event>
<event>
12    3  0.4192740E-008  0.1299211E+04  0.7818608E-02  0.9030191E-01
         -1   -1    0    0    0  501 -0.00000000000E+00  0.00000000000E+00  0.24225460672E+03  0.24225460672E+03  0.00000000000E+00 0. -1.
          1   -1    0    0  501    0  0.00000000000E+00 -0.00000000000E+00 -0.17419177795E+04  0.17419177795E+04  0.00000000000E+00 0.  1.
         23    2    1    2    0    0  0.25651860224E+03  0.18303986449E+03 -0.55496054425E+03  0.64456698857E+03  0.90443417630E+02 0.  0.
        254    2    1    2    0    0 -0.25651860224E+03 -0.18303986449E+03 -0.94470262857E+03  0.13396053977E+04  0.89597666253E+03 0.  0.
         23    2    4    4    0    0  0.80861589492E+02  0.29693166059E+03 -0.16995899543E+03  0.36356896303E+03  0.92678600735E+02 0.  0.
         23    2    4    4    0    0 -0.33738019173E+03 -0.47997152508E+03 -0.77474363313E+03  0.97603643466E+03  0.90671748844E+02 0.  0.
          1    1    3    3  502    0  0.84611305129E+01  0.29993209372E+02 -0.25864774685E+02  0.40499011192E+02  0.00000000000E+00 0. -1.
         -1    1    3    3    0  502  0.24805747173E+03  0.15304665511E+03 -0.52909576957E+03  0.60406797738E+03  0.00000000000E+00 0.  1.
         13    1    5    5    0    0  0.47990788364E+02  0.13291564636E+03 -0.27751625453E+02  0.14401332415E+03  0.00000000000E+00 0.  1.
        -13    1    5    5    0    0  0.32870801128E+02  0.16401601423E+03 -0.14220736998E+03  0.21955563889E+03  0.00000000000E+00 0. -1.
          2    1    6    6  503    0 -0.11547373475E+03 -0.12724521276E+03 -0.17081962347E+03  0.24229088169E+03  0.00000000000E+00 0. -1.
         -2    1    6    6    0  503 -0.22190645698E+03 -0.35272631232E+03 -0.60392400966E+03  0.73374555296E+03  0.00000000000E+00 0.  1.
<mgrwt>
<rscale>  0 0.12992115E+04</rscale>
<asrwt>0</asrwt>
<pdfrwt beam="1">  1        1 0.26798735E+00 0.12992115E+04</pdfrwt>
<pdfrwt beam="2">  1       -1 0.37269939E-01 0.12992115E+04</pdfrwt>
<totfact> 0.30387424E+01</totfact>
</mgrwt>
</event>
<event>
12    3  0.4192740E-008  0.1625221E+04  0.7818608E-02  0.8805202E-01
         -1   -1    0    0    0  501 -0.00000000000E+00  0.00000000000E+00  0.18200285318E+04  0.18200285318E+04  0.00000000000E+00 0.  1.
          1   -1    0    0  501    0  0.00000000000E+00 -0.00000000000E+00 -0.36281603199E+03  0.36281603199E+03  0.00000000000E+00 0. -1.
         23    2    1    2    0    0  0.13364824374E+03 -0.29621946730E+03 -0.74496073723E+02  0.34553016953E+03  0.90739226316E+02 0.  0.
        254    2    1    2    0    0 -0.13364824374E+03  0.29621946730E+03  0.15317085735E+04  0.18373143942E+04  0.96124149058E+03 0.  0.
         23    2    4    4    0    0  0.21896808485E+03  0.39670800748E+03  0.13335257342E+04  0.14112740934E+04  0.89885580354E+02 0.  0.
         23    2    4    4    0    0 -0.35261632859E+03 -0.10048854019E+03  0.19818283935E+03  0.42604030086E+03  0.88304463371E+02 0.  0.
          1    1    3    3  502    0  0.14079164544E+03 -0.24746537963E+03 -0.80542498351E+02  0.29588595030E+03  0.00000000000E+00 0. -1.
         -1    1    3    3    0  502 -0.71434017047E+01 -0.48754087668E+02  0.60464246277E+01  0.49644219231E+02  0.00000000000E+00 0.  1.
         13    1    5    5    0    0  0.93147055088E+02  0.88516538205E+02  0.34060733752E+03  0.36403970907E+03  0.00000000000E+00 0.  1.
        -13    1    5    5    0    0  0.12582102976E+03  0.30819146928E+03  0.99291839663E+03  0.10472343843E+04  0.00000000000E+00 0. -1.
          3    1    6    6  503    0 -0.23638481227E+01 -0.16464940621E+02  0.53060421816E+01  0.17459557017E+02  0.00000000000E+00 0. -1.
         -3    1    6    6    0  503 -0.35025248047E+03 -0.84023599565E+02  0.19287679717E+03  0.40858074385E+03  0.00000000000E+00 0.  1.
<mgrwt>
<rscale>  0 0.16252206E+04</rscale>
<asrwt>0</asrwt>
<pdfrwt beam="1">  1        1 0.55817852E-01 0.16252206E+04</pdfrwt>
<pdfrwt beam="2">  1       -1 0.28000438E+00 0.16252206E+04</pdfrwt>
<totfact> 0.29138605E+00</totfact>
</mgrwt>
</event>
<event>
12    3  0.4192740E-008  0.1896910E+04  0.7818608E-02  0.8656396E-01
         -1   -1    0    0    0  501 -0.00000000000E+00  0.00000000000E+00  0.77907732374E+03  0.77907732374E+03  0.00000000000E+00 0.  1.
          1   -1    0    0  501    0  0.00000000000E+00 -0.00000000000E+00 -0.11546568962E+04  0.11546568962E+04  0.00000000000E+00 0. -1.
         23    2    1    2    0    0 -0.64945092463E+02 -0.24391041650E+03  0.55230128749E+03  0.61633460986E+03  0.10545844123E+03 0.  0.
        254    2    1    2    0    0  0.64945092463E+02  0.24391041650E+03 -0.92788085992E+03  0.13173996101E+04  0.90048247403E+03 0.  0.
         23    2    4    4    0    0  0.42033619486E+03  0.26893037538E+03 -0.75880837352E+03  0.91227597757E+03  0.86320611770E+02 0.  0.
         23    2    4    4    0    0 -0.35539110240E+03 -0.25019958875E+02 -0.16907248640E+03  0.40512363248E+03  0.92794492980E+02 0.  0.
          4    1    3    3  502    0  0.39304119504E+01 -0.19092119667E+02  0.42182374502E+01  0.19943688191E+02  0.00000000000E+00 0. -1.
         -4    1    3    3    0  502 -0.68875504413E+02 -0.22481829684E+03  0.54808305004E+03  0.59639092167E+03  0.00000000000E+00 0.  1.
         13    1    5    5    0    0  0.29048953136E+03  0.16053740084E+03 -0.43727822117E+03  0.54897055258E+03  0.00000000000E+00 0.  1.
        -13    1    5    5    0    0  0.12984666350E+03  0.10839297454E+03 -0.32153015236E+03  0.36330542499E+03  0.00000000000E+00 0. -1.
          3    1    6    6  503    0 -0.29920020212E+03 -0.55317865445E+02 -0.13727520363E+03  0.33380429703E+03  0.00000000000E+00 0. -1.
         -3    1    6    6    0  503 -0.56190900283E+02  0.30297906570E+02 -0.31797282772E+02  0.71319335448E+02  0.00000000000E+00 0.  1.
<mgrwt>
<rscale>  0 0.18969101E+04</rscale>
<asrwt>0</asrwt>
<pdfrwt beam="1">  1        1 0.17763952E+00 0.18969101E+04</pdfrwt>
<pdfrwt beam="2">  1       -1 0.11985805E+00 0.18969101E+04</pdfrwt>
<totfact> 0.67063057E+00</totfact>
</mgrwt>
</event>
<event>
12    3  0.4192740E-008  0.1349711E+04  0.7818608E-02  0.8991047E-01
         -1   -1    0    0    0  501 -0.00000000000E+00  0.00000000000E+00  0.29266064401E+03  0.29266064401E+03  0.00000000000E+00 0.  1.
          1   -1    0    0  501    0  0.00000000000E+00 -0.00000000000E+00 -0.15561714291E+04  0.15561714291E+04  0.00000000000E+00 0. -1.
         23    2    1    2    0    0  0.48048492543E+02 -0.15683581557E+03  0.94533927801E+02  0.21056819229E+03  0.92174667993E+02 0.  0.
        254    2    1    2    0    0 -0.48048492543E+02  0.15683581557E+03 -0.13580447128E+04  0.16382638808E+04  0.90150816429E+03 0.  0.
         23    2    4    4    0    0 -0.43178171437E+03 -0.69778400845E+02 -0.53207213184E+03  0.69523554899E+03  0.94589856828E+02 0.  0.
         23    2    4    4    0    0  0.38373322182E+03  0.22661421641E+03 -0.82597258100E+03  0.94302833178E+03  0.92013810683E+02 0.  0.
          3    1    3    3  502    0  0.68418109907E+02 -0.14644544378E+03  0.95386672968E+02  0.18768570310E+03  0.00000000000E+00 0.  1.
         -3    1    3    3    0  502 -0.20369617364E+02 -0.10390371788E+02 -0.85274516773E+00  0.22882489196E+02  0.00000000000E+00 0. -1.
         13    1    5    5    0    0 -0.16701783057E+03 -0.73789994534E+02 -0.20965667520E+03  0.27802129500E+03  0.00000000000E+00 0.  1.
        -13    1    5    5    0    0 -0.26476388380E+03  0.40115936893E+01 -0.32241545664E+03  0.41721425399E+03  0.00000000000E+00 0. -1.
          4    1    6    6  503    0  0.11278760692E+03  0.11416705508E+03 -0.32564586415E+03  0.36304323376E+03  0.00000000000E+00 0.  1.
         -4    1    6    6    0  503  0.27094561491E+03  0.11244716134E+03 -0.50032671685E+03  0.57998509802E+03  0.00000000000E+00 0. -1.
<mgrwt>
<rscale>  0 0.13497113E+04</rscale>
<asrwt>0</asrwt>
<pdfrwt beam="1">  1        1 0.23941099E+00 0.13497113E+04</pdfrwt>
<pdfrwt beam="2">  1       -1 0.45024715E-01 0.13497113E+04</pdfrwt>
<totfact> 0.28644239E+01</totfact>
</mgrwt>
</event>
<event>
12    3  0.4192740E-008  0.1743791E+04  0.7818608E-02  0.8736776E-01
         -1   -1    0    0    0  501 -0.00000000000E+00  0.00000000000E+00  0.40020145896E+03  0.40020145896E+03  0.00000000000E+00 0.  1.
          1   -1    0    0  501    0  0.00000000000E+00 -0.00000000000E+00 -0.18995474376E+04  0.18995474376E+04  0.00000000000E+00 0. -1.
         23    2    1    2    0    0 -0.23801082487E+03 -0.29349017671E+02 -0.13348007715E+04  0.13592004708E+04  0.90676913578E+02 0.  0.
        254    2    1    2    0    0  0.23801082487E+03  0.29349017671E+02 -0.16454520721E+03  0.94054842582E+03  0.89445273688E+03 0.  0.
         23    2    4    4    0    0 -0.19328951655E+03 -0.29272763572E+03  0.23083469120E+02  0.36325613368E+03  0.91497902646E+02 0.  0.
         23    2    4    4    0    0  0.43130034142E+03  0.32207665339E+03 -0.18762867633E+03  0.57729229214E+03  0.91151057162E+02 0.  0.
          1    1    3    3  502    0 -0.23107962221E+03 -0.38740277133E+02 -0.11283599091E+04  0.11524299047E+04  0.00000000000E+00 0. -1.
         -1    1    3    3    0  502 -0.69312026628E+01  0.93912594616E+01 -0.20644086238E+03  0.20677056605E+03  0.00000000000E+00 0.  1.
         13    1    5    5    0    0 -0.15120112778E+03 -0.19077631786E+03 -0.21311434996E+02  0.24435949288E+03  0.00000000000E+00 0.  1.
        -13    1    5    5    0    0 -0.42088388766E+02 -0.10195131786E+03  0.44394904116E+02  0.11889664080E+03  0.00000000000E+00 0. -1.
          3    1    6    6  503    0  0.22390286351E+02  0.36764013450E+02  0.37686962188E+01  0.43210191842E+02  0.00000000000E+00 0. -1.
         -3    1    6    6    0  503  0.40891005507E+03  0.28531263994E+03 -0.19139737255E+03  0.53408210030E+03  0.00000000000E+00 0.  1.
<mgrwt>
<rscale>  0 0.17437909E+04</rscale>
<asrwt>0</asrwt>
<pdfrwt beam="1">  1        1 0.29223806E+00 0.17437909E+04</pdfrwt>
<pdfrwt beam="2">  1       -1 0.61569457E-01 0.17437909E+04</pdfrwt>
<totfact> 0.88452720E+00</totfact>
</mgrwt>
</event>
<event>
12    3  0.4192740E-008  0.1718035E+04  0.7818608E-02  0.8751145E-01
         -2   -1    0    0    0  501 -0.00000000000E+00  0.00000000000E+00  0.23979999762E+03  0.23979999762E+03  0.00000000000E+00 0.  1.
          2   -1    0    0  501    0  0.00000000000E+00 -0.00000000000E+00 -0.30771941264E+04  0.30771941264E+04  0.00000000000E+00 0. -1.
         23    2    1    2    0    0  0.31883260558E+03 -0.50676248563E+03 -0.71168659330E+03  0.93483055479E+03  0.94593402812E+02 0.  0.
        254    2    1    2    0    0 -0.31883260558E+03  0.50676248563E+03 -0.21257075355E+04  0.23821635693E+04  0.89308918760E+03 0.  0.
         23    2    4    4    0    0 -0.95047018898E+02 -0.21631012655E+03 -0.93135751130E+03  0.96522554759E+03  0.91703528975E+02 0.  0.
         23    2    4    4    0    0 -0.22378558668E+03  0.72307261218E+03 -0.11943500242E+04  0.14169380217E+04  0.91254510251E+02 0.  0.
          2    1    3    3  502    0  0.22804780859E+03 -0.43022007851E+03 -0.58649366240E+03  0.76227943367E+03  0.00000000000E+00 0. -1.
         -2    1    3    3    0  502  0.90784796988E+02 -0.76542407119E+02 -0.12519293090E+03  0.17255112112E+03  0.00000000000E+00 0.  1.
         13    1    5    5    0    0 -0.83972588880E+02 -0.18215176456E+03 -0.61604829208E+03  0.64787819780E+03  0.00000000000E+00 0.  1.
        -13    1    5    5    0    0 -0.11074430018E+02 -0.34158361988E+02 -0.31530921922E+03  0.31734734979E+03  0.00000000000E+00 0. -1.
          2    1    6    6  503    0 -0.12155553252E+03  0.53177046107E+03 -0.85557741449E+03  0.10146764425E+04  0.00000000000E+00 0.  1.
         -2    1    6    6    0  503 -0.10223005416E+03  0.19130215111E+03 -0.33877260973E+03  0.40226157919E+03  0.00000000000E+00 0. -1.
<mgrwt>
<rscale>  0 0.17180351E+04</rscale>
<asrwt>0</asrwt>
<pdfrwt beam="1">  1        2 0.47341445E+00 0.17180351E+04</pdfrwt>
<pdfrwt beam="2">  1       -2 0.36892310E-01 0.17180351E+04</pdfrwt>
<totfact> 0.10290606E+01</totfact>
</mgrwt>
</event>
<event>
12    3  0.4192740E-008  0.1802839E+04  0.7818608E-02  0.8704791E-01
         -1   -1    0    0    0  501 -0.00000000000E+00  0.00000000000E+00  0.19106247910E+04  0.19106247910E+04  0.00000000000E+00 0.  1.
          1   -1    0    0  501    0  0.00000000000E+00 -0.00000000000E+00 -0.42528343156E+03  0.42528343156E+03  0.00000000000E+00 0. -1.
         23    2    1    2    0    0 -0.51610426586E+03  0.41895818822E+03  0.67157028884E+03  0.94951436289E+03  0.93173471372E+02 0.  0.
        254    2    1    2    0    0  0.51610426586E+03 -0.41895818822E+03  0.81377107061E+03  0.13863938597E+04  0.90441970460E+03 0.  0.
         23    2    4    4    0    0  0.53458342279E+03  0.93052391188E+02  0.61993618817E+03  0.82894929317E+03  0.91639892004E+02 0.  0.
         23    2    4    4    0    0 -0.18479156932E+02 -0.51201057941E+03  0.19383488244E+03  0.55744456651E+03  0.10332555549E+03 0.  0.
          1    1    3    3  502    0 -0.30806430724E+03  0.23099184631E+03  0.32606599102E+03  0.50455909560E+03  0.00000000000E+00 0. -1.
         -1    1    3    3    0  502 -0.20803995862E+03  0.18796634191E+03  0.34550429782E+03  0.44495526729E+03  0.00000000000E+00 0.  1.
         13    1    5    5    0    0  0.21988207749E+02 -0.79490618270E+01  0.53366538121E+02  0.58263678695E+02  0.00000000000E+00 0. -1.
        -13    1    5    5    0    0  0.51259521505E+03  0.10100145301E+03  0.56656965005E+03  0.77068561447E+03  0.00000000000E+00 0.  1.
          1    1    6    6  503    0 -0.29285447590E+02 -0.80122131582E+02  0.35736651716E+01  0.85381288891E+02  0.00000000000E+00 0. -1.
         -1    1    6    6    0  503  0.10806290658E+02 -0.43188844782E+03  0.19026121727E+03  0.47206327762E+03  0.00000000000E+00 0.  1.
<mgrwt>
<rscale>  0 0.18028389E+04</rscale>
<asrwt>0</asrwt>
<pdfrwt beam="1">  1        1 0.65428221E-01 0.18028389E+04</pdfrwt>
<pdfrwt beam="2">  1       -1 0.29394227E+00 0.18028389E+04</pdfrwt>
<totfact> 0.18866162E+00</totfact>
</mgrwt>
</event>
<event>
12    3  0.4192740E-008  0.1430246E+04  0.7818608E-02  0.8932212E-01
         -2   -1    0    0    0  501 -0.00000000000E+00  0.00000000000E+00  0.79245224020E+03  0.79245224020E+03  0.00000000000E+00 0.  1.
          2   -1    0    0  501    0  0.00000000000E+00 -0.00000000000E+00 -0.64533943124E+03  0.64533943124E+03  0.00000000000E+00 0. -1.
         23    2    1    2    0    0  0.21938337603E+02  0.40649327766E+03  0.12821380695E+03  0.43676218681E+03  0.92759646917E+02 0.  0.
        254    2    1    2    0    0 -0.21938337603E+02 -0.40649327766E+03  0.18899002011E+02  0.10010294846E+04  0.91432203374E+03 0.  0.
         23    2    4    4    0    0  0.29685102753E+03  0.66220773845E+02 -0.20903179133E+03  0.38003066276E+03  0.90682365510E+02 0.  0.
         23    2    4    4    0    0 -0.31878936513E+03 -0.47271405150E+03  0.22793079334E+03  0.62099882187E+03  0.92746193446E+02 0.  0.
          4    1    3    3  502    0 -0.20135064068E+02  0.22261936807E+03  0.10417172854E+03  0.24661012321E+03  0.00000000000E+00 0. -1.
         -4    1    3    3    0  502  0.42073401671E+02  0.18387390959E+03  0.24042078410E+02  0.19015206359E+03  0.00000000000E+00 0.  1.
         13    1    5    5    0    0  0.14794274097E+03 -0.12230630004E+02 -0.86132291385E+02  0.17162579799E+03  0.00000000000E+00 0. -1.
        -13    1    5    5    0    0  0.14890828656E+03  0.78451403849E+02 -0.12289949994E+03  0.20840486477E+03  0.00000000000E+00 0.  1.
          2    1    6    6  503    0 -0.26643585068E+03 -0.33123420721E+03  0.14691162931E+03  0.44976348160E+03  0.00000000000E+00 0. -1.
         -2    1    6    6    0  503 -0.52353514454E+02 -0.14147984429E+03  0.81019164034E+02  0.17123534027E+03  0.00000000000E+00 0.  1.
<mgrwt>
<rscale>  0 0.14302457E+04</rscale>
<asrwt>0</asrwt>
<pdfrwt beam="1">  1        2 0.99282989E-01 0.14302457E+04</pdfrwt>
<pdfrwt beam="2">  1       -2 0.12191573E+00 0.14302457E+04</pdfrwt>
<totfact> 0.22484210E+01</totfact>
</mgrwt>
</event>
<event>
12    3  0.4192740E-008  0.1542922E+04  0.7818608E-02  0.8856402E-01
         -1   -1    0    0    0  501 -0.00000000000E+00  0.00000000000E+00  0.36557814420E+03  0.36557814420E+03  0.00000000000E+00 0.  1.
          1   -1    0    0  501    0  0.00000000000E+00 -0.00000000000E+00 -0.16279748605E+04  0.16279748605E+04  0.00000000000E+00 0. -1.
         23    2    1    2    0    0  0.14329438039E+03 -0.48445782736E+03 -0.43142980035E+03  0.67014261608E+03  0.87902146223E+02 0.  0.
        254    2    1    2    0    0 -0.14329438039E+03  0.48445782736E+03 -0.83096691594E+03  0.13234103886E+04  0.89759477236E+03 0.  0.
         23    2    4    4    0    0 -0.41562970994E+03  0.28518484006E+03 -0.11380971734E+03  0.52486831376E+03  0.91954587953E+02 0.  0.
         23    2    4    4    0    0  0.27233532955E+03  0.19927298731E+03 -0.71715719861E+03  0.79854207486E+03  0.97358834318E+02 0.  0.
          1    1    3    3  502    0  0.17296888333E+02 -0.17668960457E+03 -0.11810728077E+03  0.21323163105E+03  0.00000000000E+00 0. -1.
         -1    1    3    3    0  502  0.12599749205E+03 -0.30776822280E+03 -0.31332251958E+03  0.45691098503E+03  0.00000000000E+00 0.  1.
         13    1    5    5    0    0 -0.41035342706E+03  0.27816730537E+03 -0.95924134912E+02  0.50494398158E+03  0.00000000000E+00 0. -1.
        -13    1    5    5    0    0 -0.52762828802E+01  0.70175346902E+01 -0.17885582425E+02  0.19924332180E+02  0.00000000000E+00 0.  1.
          3    1    6    6  503    0  0.18479542513E+03  0.18575136272E+03 -0.51464613048E+03  0.57750632682E+03  0.00000000000E+00 0. -1.
         -3    1    6    6    0  503  0.87539904420E+02  0.13521624584E+02 -0.20251106813E+03  0.22103574804E+03  0.00000000000E+00 0.  1.
<mgrwt>
<rscale>  0 0.15429219E+04</rscale>
<asrwt>0</asrwt>
<pdfrwt beam="1">  1        1 0.25045767E+00 0.15429219E+04</pdfrwt>
<pdfrwt beam="2">  1       -1 0.56242793E-01 0.15429219E+04</pdfrwt>
<totfact> 0.16462233E+01</totfact>
</mgrwt>
</event>
<event>
12    3  0.4192740E-008  0.1454436E+04  0.7818608E-02  0.8915331E-01
          1   -1    0    0  501    0  0.00000000000E+00  0.00000000000E+00  0.42478291033E+03  0.42478291033E+03  0.00000000000E+00 0. -1.
         -1   -1    0    0    0  501 -0.00000000000E+00 -0.00000000000E+00 -0.12449792921E+04  0.12449792921E+04  0.00000000000E+00 0.  1.
         23    2    1    2    0    0 -0.19091357340E+03 -0.28992337071E+03 -0.58205966871E+03  0.68345827432E+03  0.88420593790E+02 0.  0.
        254    2    1    2    0    0  0.19091357340E+03  0.28992337071E+03 -0.23813671305E+03  0.98630392810E+03  0.89195447815E+03 0.  0.
         23    2    4    4    0    0  0.18080600291E+03  0.43361465425E+03 -0.48798786627E+03  0.68362711204E+03  0.92202991352E+02 0.  0.
         23    2    4    4    0    0  0.10107570495E+02 -0.14369128354E+03  0.24985115322E+03  0.30267681606E+03  0.91860264912E+02 0.  0.
          4    1    3    3  502    0  0.59828727906E+01 -0.37987292093E+02 -0.64430786519E+02  0.75034361321E+02  0.00000000000E+00 0. -1.
         -4    1    3    3    0  502 -0.19689644619E+03 -0.25193607861E+03 -0.51762888219E+03  0.60842391300E+03  0.00000000000E+00 0.  1.
         13    1    5    5    0    0  0.17480588156E+03  0.43449739537E+03 -0.46547661778E+03  0.66031323212E+03  0.00000000000E+00 0.  1.
        -13    1    5    5    0    0  0.60001213498E+01 -0.88274112184E+00 -0.22511248492E+02  0.23313879916E+02  0.00000000000E+00 0. -1.
          1    1    6    6  503    0 -0.65986535751E+01  0.10821114422E+02  0.37114397002E+02  0.39218837453E+02  0.00000000000E+00 0. -1.
         -1    1    6    6    0  503  0.16706224070E+02 -0.15451239797E+03  0.21273675622E+03  0.26345797861E+03  0.00000000000E+00 0.  1.
<mgrwt>
<rscale>  0 0.14544359E+04</rscale>
<asrwt>0</asrwt>
<pdfrwt beam="1">  1        1 0.65351218E-01 0.14544359E+04</pdfrwt>
<pdfrwt beam="2">  1       -1 0.19153527E+00 0.14544359E+04</pdfrwt>
<totfact> 0.92621207E+00</totfact>
</mgrwt>
</event>
<event>
12    3  0.4192740E-008  0.3078691E+04  0.7818608E-02  0.8221610E-01
          2   -1    0    0  501    0  0.00000000000E+00  0.00000000000E+00  0.24759313480E+04  0.24759313480E+04  0.00000000000E+00 0. -1.
         -2   -1    0    0    0  501 -0.00000000000E+00 -0.00000000000E+00 -0.95704807175E+03  0.95704807175E+03  0.00000000000E+00 0.  1.
         23    2    1    2    0    0  0.46178610373E+03  0.94611341074E+01 -0.78565127031E+03  0.91605178177E+03  0.92558250194E+02 0.  0.
        254    2    1    2    0    0 -0.46178610373E+03 -0.94611341074E+01  0.23045345466E+04  0.25169276380E+04  0.90039399147E+03 0.  0.
         23    2    4    4    0    0  0.13333844040E+03 -0.17786008877E+03  0.17794410703E+03  0.30032455164E+03  0.95484973812E+02 0.  0.
         23    2    4    4    0    0 -0.59512454413E+03  0.16839895467E+03  0.21265904396E+04  0.22166030864E+04  0.91711034716E+02 0.  0.
          3    1    3    3  502    0  0.10317928858E+03  0.40213774111E+02 -0.20129794645E+03  0.22974763647E+03  0.00000000000E+00 0. -1.
         -3    1    3    3    0  502  0.35860681514E+03 -0.30752640004E+02 -0.58435332386E+03  0.68630414529E+03  0.00000000000E+00 0.  1.
         13    1    5    5    0    0  0.79449978681E+02 -0.40762054235E+02  0.37686045102E+02  0.96923073483E+02  0.00000000000E+00 0. -1.
        -13    1    5    5    0    0  0.53888461724E+02 -0.13709803454E+03  0.14025806193E+03  0.20340147816E+03  0.00000000000E+00 0.  1.
          2    1    6    6  503    0 -0.42919508130E+03  0.80420691774E+02  0.15366977430E+04  0.15975343060E+04  0.00000000000E+00 0. -1.
         -2    1    6    6    0  503 -0.16592946283E+03  0.87978262893E+02  0.58989269657E+03  0.61906878038E+03  0.00000000000E+00 0.  1.
<mgrwt>
<rscale>  0 0.30786915E+04</rscale>
<asrwt>0</asrwt>
<pdfrwt beam="1">  1        2 0.38091251E+00 0.30786915E+04</pdfrwt>
<pdfrwt beam="2">  1       -2 0.14723817E+00 0.30786915E+04</pdfrwt>
<totfact> 0.96201879E-01</totfact>
</mgrwt>
</event>
<event>
12    3  0.4192740E-008  0.1217927E+04  0.7818608E-02  0.9097308E-01
         -1   -1    0    0    0  501 -0.00000000000E+00  0.00000000000E+00  0.48315314772E+03  0.48315314772E+03  0.00000000000E+00 0.  1.
          1   -1    0    0  501    0  0.00000000000E+00 -0.00000000000E+00 -0.76753463432E+03  0.76753463432E+03  0.00000000000E+00 0. -1.
         23    2    1    2    0    0 -0.20934593874E+03 -0.60735827483E+02  0.81948735604E+02  0.25017568118E+03  0.91420530404E+02 0.  0.
        254    2    1    2    0    0  0.20934593874E+03  0.60735827483E+02 -0.36633022221E+03  0.10005121009E+04  0.90515858802E+03 0.  0.
         23    2    4    4    0    0 -0.18678787872E+03  0.26166080991E+03  0.10037005267E+03  0.34942213269E+03  0.93089141495E+02 0.  0.
         23    2    4    4    0    0  0.39613381746E+03 -0.20092498243E+03 -0.46670027488E+03  0.65108996817E+03  0.93894356459E+02 0.  0.
          1    1    3    3  502    0 -0.40694037392E+02  0.24252515671E+02  0.19968106369E+02  0.51409283866E+02  0.00000000000E+00 0. -1.
         -1    1    3    3    0  502 -0.16865190135E+03 -0.84988343154E+02  0.61980629235E+02  0.19876639732E+03  0.00000000000E+00 0.  1.
         13    1    5    5    0    0 -0.13010884821E+03  0.11836978815E+03  0.24275842965E+02  0.17756417342E+03  0.00000000000E+00 0. -1.
        -13    1    5    5    0    0 -0.56679030510E+02  0.14329102176E+03  0.76094209707E+02  0.17185795928E+03  0.00000000000E+00 0.  1.
          2    1    6    6  503    0  0.82689277062E+02 -0.10868674883E+02 -0.12291912021E+03  0.14854209756E+03  0.00000000000E+00 0. -1.
         -2    1    6    6    0  503  0.31344454040E+03 -0.19005630754E+03 -0.34378115467E+03  0.50254787060E+03  0.00000000000E+00 0.  1.
<mgrwt>
<rscale>  0 0.12179274E+04</rscale>
<asrwt>0</asrwt>
<pdfrwt beam="1">  1        1 0.11808225E+00 0.12179274E+04</pdfrwt>
<pdfrwt beam="2">  1       -1 0.74331254E-01 0.12179274E+04</pdfrwt>
<totfact> 0.42547460E+01</totfact>
</mgrwt>
</event>
<event>
12    3  0.4192740E-008  0.1788985E+04  0.7818608E-02  0.8712179E-01
         -2   -1    0    0    0  501 -0.00000000000E+00  0.00000000000E+00  0.64975728348E+03  0.64975728348E+03  0.00000000000E+00 0. -1.
          2   -1    0    0  501    0  0.00000000000E+00 -0.00000000000E+00 -0.12314084926E+04  0.12314084926E+04  0.00000000000E+00 0.  1.
         23    2    1    2    0    0 -0.57504321261E+03  0.29551208954E+03 -0.37815652972E+03  0.75527909651E+03  0.97170269207E+02 0.  0.
        254    2    1    2    0    0  0.57504321261E+03 -0.29551208954E+03 -0.20349467942E+03  0.11258866796E+04  0.89900424878E+03 0.  0.
         23    2    4    4    0    0  0.98089294950E+00  0.22559375262E+03 -0.24441317092E+03  0.34436769301E+03  0.89206538429E+02 0.  0.
         23    2    4    4    0    0  0.57406231966E+03 -0.52110584216E+03  0.40918491494E+02  0.78151898660E+03  0.89435775158E+02 0.  0.
          2    1    3    3  502    0 -0.28766168273E+03  0.15746278650E+03 -0.13644581155E+03  0.35519182470E+03  0.00000000000E+00 0. -1.
         -2    1    3    3    0  502 -0.28738152988E+03  0.13804930305E+03 -0.24171071816E+03  0.40008727181E+03  0.00000000000E+00 0.  1.
         13    1    5    5    0    0 -0.21265424077E+02  0.10380559291E+03 -0.58593574830E+02  0.12108272541E+03  0.00000000000E+00 0. -1.
        -13    1    5    5    0    0  0.22246317026E+02  0.12178815970E+03 -0.18581959609E+03  0.22328496760E+03  0.00000000000E+00 0.  1.
          1    1    6    6  503    0  0.44931091799E+03 -0.37499054033E+03  0.60718884795E+02  0.58837487143E+03  0.00000000000E+00 0.  1.
         -1    1    6    6    0  503  0.12475140167E+03 -0.14611530183E+03 -0.19800393302E+02  0.19314411516E+03  0.00000000000E+00 0. -1.
<mgrwt>
<rscale>  0 0.17889848E+04</rscale>
<asrwt>0</asrwt>
<pdfrwt beam="1">  1        2 0.18944746E+00 0.17889848E+04</pdfrwt>
<pdfrwt beam="2">  1       -2 0.99962660E-01 0.17889848E+04</pdfrwt>
<totfact> 0.14174619E+01</totfact>
</mgrwt>
</event>
<event>
12    3  0.4192740E-008  0.2769277E+04  0.7818608E-02  0.8312871E-01
          2   -1    0    0  501    0  0.00000000000E+00  0.00000000000E+00  0.15432133528E+04  0.15432133528E+04  0.00000000000E+00 0.  1.
         -2   -1    0    0    0  501 -0.00000000000E+00 -0.00000000000E+00 -0.12423578047E+04  0.12423578047E+04  0.00000000000E+00 0. -1.
         23    2    1    2    0    0  0.11989903678E+04 -0.26283213143E+03  0.92543536968E+02  0.12343442369E+04  0.91557400516E+02 0.  0.
        254    2    1    2    0    0 -0.11989903678E+04  0.26283213143E+03  0.20831201109E+03  0.15512269206E+04  0.92533909127E+03 0.  0.
         23    2    4    4    0    0 -0.93437306902E+03  0.36868847849E+03  0.50660215436E+03  0.11286522268E+04  0.90696637604E+02 0.  0.
         23    2    4    4    0    0 -0.26461729877E+03 -0.10585634706E+03 -0.29829014327E+03  0.42257469375E+03  0.91457537721E+02 0.  0.
          1    1    3    3  502    0  0.10824157267E+04 -0.24928445313E+03  0.10792499253E+03  0.11159813385E+04  0.00000000000E+00 0. -1.
         -1    1    3    3    0  502  0.11657464111E+03 -0.13547678299E+02 -0.15381455559E+02  0.11836289838E+03  0.00000000000E+00 0.  1.
         13    1    5    5    0    0 -0.92778959952E+02  0.56923482789E+02  0.79078617983E+02  0.13454235811E+03  0.00000000000E+00 0. -1.
        -13    1    5    5    0    0 -0.84159410907E+03  0.31176499570E+03  0.42752353638E+03  0.99410986874E+03  0.00000000000E+00 0.  1.
          4    1    6    6  503    0 -0.46352886547E+02 -0.56569118071E+02 -0.97895142193E+02  0.12219702973E+03  0.00000000000E+00 0. -1.
         -4    1    6    6    0  503 -0.21826441222E+03 -0.49287228986E+02 -0.20039500107E+03  0.30037766401E+03  0.00000000000E+00 0.  1.
<mgrwt>
<rscale>  0 0.27692766E+04</rscale>
<asrwt>0</asrwt>
<pdfrwt beam="1">  1        2 0.23741744E+00 0.27692766E+04</pdfrwt>
<pdfrwt beam="2">  1       -2 0.19113197E+00 0.27692766E+04</pdfrwt>
<totfact> 0.15948111E+00</totfact>
</mgrwt>
</event>
<event>
12    3  0.4192740E-008  0.1624088E+04  0.7818608E-02  0.8805885E-01
         -1   -1    0    0    0  501 -0.00000000000E+00  0.00000000000E+00  0.35884243320E+03  0.35884243320E+03  0.00000000000E+00 0.  1.
          1   -1    0    0  501    0  0.00000000000E+00 -0.00000000000E+00 -0.18376182129E+04  0.18376182129E+04  0.00000000000E+00 0. -1.
         23    2    1    2    0    0 -0.11433339005E+03 -0.21749196045E+03  0.15964379220E+03  0.30709591681E+03  0.91906935517E+02 0.  0.
        254    2    1    2    0    0  0.11433339005E+03  0.21749196045E+03 -0.16384195719E+04  0.18893647293E+04  0.90824308958E+03 0.  0.
         23    2    4    4    0    0  0.43057135294E+03 -0.53140897276E+02 -0.47507826511E+03  0.65033411053E+03  0.94970797609E+02 0.  0.
         23    2    4    4    0    0 -0.31623796289E+03  0.27063285772E+03 -0.11633413068E+04  0.12390306188E+04  0.92656814594E+02 0.  0.
          2    1    3    3  502    0 -0.13416328341E+02 -0.66035248475E+02  0.89539996024E+02  0.11206276275E+03  0.00000000000E+00 0. -1.
         -2    1    3    3    0  502 -0.10091706171E+03 -0.15145671197E+03  0.70103796172E+02  0.19503315406E+03  0.00000000000E+00 0.  1.
         13    1    5    5    0    0  0.39705492227E+03 -0.36640883433E+02 -0.39160472498E+03  0.55888230091E+03  0.00000000000E+00 0. -1.
        -13    1    5    5    0    0  0.33516430676E+02 -0.16500013843E+02 -0.83473540129E+02  0.91451809625E+02  0.00000000000E+00 0.  1.
          1    1    6    6  503    0 -0.25831617086E+03  0.25466784266E+03 -0.10475892578E+04  0.11086145441E+04  0.00000000000E+00 0. -1.
         -1    1    6    6    0  503 -0.57921792038E+02  0.15965015064E+02 -0.11575204897E+03  0.13041607470E+03  0.00000000000E+00 0.  1.
<mgrwt>
<rscale>  0 0.16240879E+04</rscale>
<asrwt>0</asrwt>
<pdfrwt beam="1">  1        1 0.28271049E+00 0.16240879E+04</pdfrwt>
<pdfrwt beam="2">  1       -1 0.55206529E-01 0.16240879E+04</pdfrwt>
<totfact> 0.12202092E+01</totfact>
</mgrwt>
</event>
<event>
12    3  0.4192740E-008  0.1866718E+04  0.7818608E-02  0.8671603E-01
         -2   -1    0    0    0  501 -0.00000000000E+00  0.00000000000E+00  0.82872903095E+03  0.82872903095E+03  0.00000000000E+00 0.  1.
          2   -1    0    0  501    0  0.00000000000E+00 -0.00000000000E+00 -0.10511986739E+04  0.10511986739E+04  0.00000000000E+00 0. -1.
         23    2    1    2    0    0  0.18092380098E+03  0.67966230819E+03 -0.38294849357E+03  0.80490241295E+03  0.80895430666E+02 0.  0.
        254    2    1    2    0    0 -0.18092380098E+03 -0.67966230819E+03  0.16047885063E+03  0.10750252919E+04  0.79702675097E+03 0.  0.
         23    2    4    4    0    0 -0.77899035961E+02 -0.31800327532E+03 -0.31428525164E+03  0.46262850890E+03  0.89752854712E+02 0.  0.
         23    2    4    4    0    0 -0.10302476502E+03 -0.36165903287E+03  0.47476410227E+03  0.61239678299E+03  0.90650475690E+02 0.  0.
          2    1    3    3  502    0  0.15354777449E+03  0.59227213910E+03 -0.36213668740E+03  0.71098958232E+03  0.00000000000E+00 0. -1.
         -2    1    3    3    0  502  0.27376026499E+02  0.87390169091E+02 -0.20811806167E+02  0.93912830628E+02  0.00000000000E+00 0.  1.
         13    1    5    5    0    0 -0.27906490503E+02 -0.16055162494E+03 -0.21539588745E+03  0.27009439982E+03  0.00000000000E+00 0. -1.
        -13    1    5    5    0    0 -0.49992545458E+02 -0.15745165039E+03 -0.98889364193E+02  0.19253410909E+03  0.00000000000E+00 0.  1.
          1    1    6    6  503    0 -0.11487426987E+03 -0.34238995932E+03  0.42491751977E+03  0.55765749410E+03  0.00000000000E+00 0. -1.
         -1    1    6    6    0  503  0.11849504844E+02 -0.19269073551E+02  0.49846582505E+02  0.54739288888E+02  0.00000000000E+00 0.  1.
<mgrwt>
<rscale>  0 0.18667178E+04</rscale>
<asrwt>0</asrwt>
<pdfrwt beam="1">  1        2 0.16172287E+00 0.18667178E+04</pdfrwt>
<pdfrwt beam="2">  1       -2 0.12749678E+00 0.18667178E+04</pdfrwt>
<totfact> 0.10011083E+01</totfact>
</mgrwt>
</event>
<event>
12    3  0.4192740E-008  0.1435891E+04  0.7818608E-02  0.8928241E-01
          1   -1    0    0  501    0  0.00000000000E+00  0.00000000000E+00  0.21198679696E+04  0.21198679696E+04  0.00000000000E+00 0. -1.
         -1   -1    0    0    0  501 -0.00000000000E+00 -0.00000000000E+00 -0.24314991900E+03  0.24314991900E+03  0.00000000000E+00 0.  1.
         23    2    1    2    0    0  0.55330821794E+02 -0.19700323597E+02 -0.12583737711E+03  0.16601869235E+03  0.90981086734E+02 0.  0.
        254    2    1    2    0    0 -0.55330821794E+02  0.19700323597E+02  0.20025554277E+04  0.21969991962E+04  0.90173589520E+03 0.  0.
         23    2    4    4    0    0 -0.66746345809E+02  0.15088426731E+03  0.20270531685E+04  0.20358041858E+04  0.91285256315E+02 0.  0.
         23    2    4    4    0    0  0.11415524015E+02 -0.13118394371E+03 -0.24497740805E+02  0.16119501048E+03  0.89689190114E+02 0.  0.
          4    1    3    3  502    0  0.24324682445E+02  0.33593994307E+02 -0.76622579932E+02  0.87127873754E+02  0.00000000000E+00 0. -1.
         -4    1    3    3    0  502  0.31006139349E+02 -0.53294317904E+02 -0.49214797174E+02  0.78890818598E+02  0.00000000000E+00 0.  1.
         13    1    5    5    0    0 -0.18935392605E+01  0.11373094946E+03  0.11959608090E+04  0.12013578030E+04  0.00000000000E+00 0. -1.
        -13    1    5    5    0    0 -0.64852806549E+02  0.37153317846E+02  0.83109235953E+03  0.83444638270E+03  0.00000000000E+00 0.  1.
          3    1    6    6  503    0  0.31232442900E+02 -0.83050333536E+02 -0.51461540037E+02  0.10257247922E+03  0.00000000000E+00 0. -1.
         -3    1    6    6    0  503 -0.19816918885E+02 -0.48133610176E+02  0.26963799233E+02  0.58622531264E+02  0.00000000000E+00 0.  1.
<mgrwt>
<rscale>  0 0.14358910E+04</rscale>
<asrwt>0</asrwt>
<pdfrwt beam="1">  1        1 0.32613352E+00 0.14358910E+04</pdfrwt>
<pdfrwt beam="2">  1       -1 0.37407681E-01 0.14358910E+04</pdfrwt>
<totfact> 0.16551289E+01</totfact>
</mgrwt>
</event>
<event>
12    3  0.4192740E-008  0.1244339E+04  0.7818608E-02  0.9074908E-01
         -1   -1    0    0    0  501 -0.00000000000E+00  0.00000000000E+00  0.23262635706E+03  0.23262635706E+03  0.00000000000E+00 0.  1.
          1   -1    0    0  501    0  0.00000000000E+00 -0.00000000000E+00 -0.16640210683E+04  0.16640210683E+04  0.00000000000E+00 0. -1.
         23    2    1    2    0    0 -0.42898806336E+02  0.19296605921E+03 -0.34307944288E+03  0.40682438024E+03  0.93415012940E+02 0.  0.
        254    2    1    2    0    0  0.42898806336E+02 -0.19296605921E+03 -0.10883152684E+04  0.14898230452E+04  0.99803124944E+03 0.  0.
         23    2    4    4    0    0 -0.25236517373E+03  0.13104077713E+03  0.14665280531E+02  0.29937184396E+03  0.92458446474E+02 0.  0.
         23    2    4    4    0    0  0.29526398006E+03 -0.32400683634E+03 -0.11029805489E+04  0.11904512012E+04  0.91906056297E+02 0.  0.
          3    1    3    3  502    0 -0.61208265259E+02  0.18091851328E+03 -0.33004583887E+03  0.38132429235E+03  0.00000000000E+00 0. -1.
         -3    1    3    3    0  502  0.18309458923E+02  0.12047545932E+02 -0.13033604010E+02  0.25500087892E+02  0.00000000000E+00 0.  1.
         13    1    5    5    0    0  0.45949349074E+01  0.17308348937E+01 -0.95025720391E+01  0.10696171819E+02  0.00000000000E+00 0. -1.
        -13    1    5    5    0    0 -0.25696010863E+03  0.12930994224E+03  0.24167852570E+02  0.28867567214E+03  0.00000000000E+00 0.  1.
          2    1    6    6  503    0  0.16347844038E+03 -0.22749041889E+03 -0.61347175648E+03  0.67440691512E+03  0.00000000000E+00 0. -1.
         -2    1    6    6    0  503  0.13178553968E+03 -0.96516417448E+02 -0.48950879246E+03  0.51604428609E+03  0.00000000000E+00 0.  1.
<mgrwt>
<rscale>  0 0.12443394E+04</rscale>
<asrwt>0</asrwt>
<pdfrwt beam="1">  1        1 0.25600324E+00 0.12443394E+04</pdfrwt>
<pdfrwt beam="2">  1       -1 0.35788671E-01 0.12443394E+04</pdfrwt>
<totfact> 0.37100850E+01</totfact>
</mgrwt>
</event>
<event>
12    3  0.4192740E-008  0.1711833E+04  0.7818608E-02  0.8754644E-01
          2   -1    0    0  501    0  0.00000000000E+00  0.00000000000E+00  0.10069959532E+04  0.10069959532E+04  0.00000000000E+00 0. -1.
         -2   -1    0    0    0  501 -0.00000000000E+00 -0.00000000000E+00 -0.72750324636E+03  0.72750324636E+03  0.00000000000E+00 0.  1.
         23    2    1    2    0    0  0.36043339383E+03 -0.13600176546E+03 -0.38424166782E+03  0.55156719637E+03  0.90421243206E+02 0.  0.
        254    2    1    2    0    0 -0.36043339383E+03  0.13600176546E+03  0.66373437467E+03  0.11829320032E+04  0.90020891603E+03 0.  0.
         23    2    4    4    0    0  0.29530250255E+02  0.30080929802E+03  0.67999871067E+03  0.74985558725E+03  0.92341137994E+02 0.  0.
         23    2    4    4    0    0 -0.38996364409E+03 -0.16480753256E+03 -0.16264335995E+02  0.43307641596E+03  0.89763505583E+02 0.  0.
          1    1    3    3  502    0  0.14198641525E+03 -0.10015020879E+03 -0.15415332617E+03  0.23227882901E+03  0.00000000000E+00 0. -1.
         -1    1    3    3    0  502  0.21844697858E+03 -0.35851556664E+02 -0.23008834165E+03  0.31928836736E+03  0.00000000000E+00 0.  1.
         13    1    5    5    0    0 -0.80658384297E+01  0.53892664669E+02  0.57994531334E+02  0.79579160082E+02  0.00000000000E+00 0. -1.
        -13    1    5    5    0    0  0.37596088684E+02  0.24691663335E+03  0.62200417934E+03  0.67027642717E+03  0.00000000000E+00 0.  1.
          3    1    6    6  503    0 -0.74988445270E+02  0.43777744640E+01  0.99330680193E+00  0.75122689593E+02  0.00000000000E+00 0. -1.
         -3    1    6    6    0  503 -0.31497519882E+03 -0.16918530703E+03 -0.17257642797E+02  0.35795372636E+03  0.00000000000E+00 0.  1.
<mgrwt>
<rscale>  0 0.17118327E+04</rscale>
<asrwt>0</asrwt>
<pdfrwt beam="1">  1        2 0.15492245E+00 0.17118327E+04</pdfrwt>
<pdfrwt beam="2">  1       -2 0.11192358E+00 0.17118327E+04</pdfrwt>
<totfact> 0.14930990E+01</totfact>
</mgrwt>
</event>
<event>
12    3  0.4192740E-008  0.1901789E+04  0.7818608E-02  0.8653966E-01
          2   -1    0    0  501    0  0.00000000000E+00  0.00000000000E+00  0.16091113242E+04  0.16091113242E+04  0.00000000000E+00 0. -1.
         -2   -1    0    0    0  501 -0.00000000000E+00 -0.00000000000E+00 -0.56192551425E+03  0.56192551425E+03  0.00000000000E+00 0.  1.
         23    2    1    2    0    0 -0.31773516819E+03 -0.69204262435E+03  0.62944873989E+03  0.99218580645E+03  0.91369181666E+02 0.  0.
        254    2    1    2    0    0  0.31773516819E+03  0.69204262435E+03  0.41773707011E+03  0.11788510320E+04  0.79706139348E+03 0.  0.
         23    2    4    4    0    0 -0.19133677765E+03  0.43473348639E+03  0.33709939801E+02  0.48520312172E+03  0.93181235290E+02 0.  0.
         23    2    4    4    0    0  0.50907194583E+03  0.25730913796E+03  0.38402713030E+03  0.69364791032E+03  0.91150140836E+02 0.  0.
          3    1    3    3  502    0 -0.55934902950E+02 -0.10581117042E+03  0.14423315143E+03  0.18742443577E+03  0.00000000000E+00 0. -1.
         -3    1    3    3    0  502 -0.26180026524E+03 -0.58623145393E+03  0.48521558846E+03  0.80476137068E+03  0.00000000000E+00 0.  1.
         13    1    5    5    0    0 -0.11021557259E+03  0.13935702576E+03  0.15523482572E+02  0.17835030580E+03  0.00000000000E+00 0. -1.
        -13    1    5    5    0    0 -0.81121205062E+02  0.29537646064E+03  0.18186457229E+02  0.30685281592E+03  0.00000000000E+00 0.  1.
          4    1    6    6  503    0  0.40248483372E+03  0.15945807677E+03  0.29084846386E+03  0.52154937307E+03  0.00000000000E+00 0. -1.
         -4    1    6    6    0  503  0.10658711212E+03  0.97851061183E+02  0.93178666441E+02  0.17209853725E+03  0.00000000000E+00 0.  1.
<mgrwt>
<rscale>  0 0.19017894E+04</rscale>
<asrwt>0</asrwt>
<pdfrwt beam="1">  1        2 0.24755559E+00 0.19017894E+04</pdfrwt>
<pdfrwt beam="2">  1       -2 0.86450080E-01 0.19017894E+04</pdfrwt>
<totfact> 0.11964575E+01</totfact>
</mgrwt>
</event>
<event>
12    3  0.4192740E-008  0.1577873E+04  0.7818608E-02  0.8834258E-01
          1   -1    0    0  501    0  0.00000000000E+00  0.00000000000E+00  0.14112727753E+04  0.14112727753E+04  0.00000000000E+00 0. -1.
         -1   -1    0    0    0  501 -0.00000000000E+00 -0.00000000000E+00 -0.44103496266E+03  0.44103496266E+03  0.00000000000E+00 0.  1.
         23    2    1    2    0    0 -0.12191219233E+03 -0.86477362523E+01 -0.27175047667E+03  0.31728362237E+03  0.10901013473E+03 0.  0.
        254    2    1    2    0    0  0.12191219233E+03  0.86477362523E+01  0.12419882893E+04  0.15350241156E+04  0.89377108854E+03 0.  0.
         23    2    4    4    0    0  0.23308064020E+03  0.11507770828E+03  0.13137951869E+04  0.13423054952E+04  0.90314924799E+02 0.  0.
         23    2    4    4    0    0 -0.11116844786E+03 -0.10642997203E+03 -0.71806897588E+02  0.19271862036E+03  0.91095956807E+02 0.  0.
          3    1    3    3  502    0 -0.86022705366E+02  0.43680676209E+02 -0.19607916011E+03  0.21852904690E+03  0.00000000000E+00 0. -1.
         -3    1    3    3    0  502 -0.35889486967E+02 -0.52328412461E+02 -0.75671316562E+02  0.98754575467E+02  0.00000000000E+00 0.  1.
         13    1    5    5    0    0  0.15822090285E+03  0.93808923539E+02  0.70682795780E+03  0.73036958463E+03  0.00000000000E+00 0.  1.
        -13    1    5    5    0    0  0.74859737347E+02  0.21268784744E+02  0.60696722911E+03  0.61193591061E+03  0.00000000000E+00 0. -1.
          3    1    6    6  503    0  0.11724793467E+02 -0.12882895692E+00  0.52940543344E+01  0.12865239603E+02  0.00000000000E+00 0. -1.
         -3    1    6    6    0  503 -0.12289324133E+03 -0.10630114307E+03 -0.77100951922E+02  0.17985338076E+03  0.00000000000E+00 0.  1.
<mgrwt>
<rscale>  0 0.15778728E+04</rscale>
<asrwt>0</asrwt>
<pdfrwt beam="1">  1        1 0.21711889E+00 0.15778728E+04</pdfrwt>
<pdfrwt beam="2">  1       -1 0.67851533E-01 0.15778728E+04</pdfrwt>
<totfact> 0.15948678E+01</totfact>
</mgrwt>
</event>
<event>
12    3  0.4192740E-008  0.1133758E+04  0.7818608E-02  0.9172900E-01
          1   -1    0    0  501    0  0.00000000000E+00  0.00000000000E+00  0.82307567731E+03  0.82307567731E+03  0.00000000000E+00 0. -1.
         -1   -1    0    0    0  501 -0.00000000000E+00 -0.00000000000E+00 -0.39042787347E+03  0.39042787347E+03  0.00000000000E+00 0.  1.
         23    2    1    2    0    0 -0.90134453952E+02 -0.13847177184E+03  0.18433627504E+03  0.26360494115E+03  0.90603815141E+02 0.  0.
        254    2    1    2    0    0  0.90134453952E+02  0.13847177184E+03  0.24831152880E+03  0.94989860963E+03  0.90185924725E+03 0.  0.
         23    2    4    4    0    0  0.45871232761E+03 -0.86068576442E+02  0.12591852680E+03  0.49208355780E+03  0.92010614137E+02 0.  0.
         23    2    4    4    0    0 -0.36857787366E+03  0.22454034828E+03  0.12239300199E+03  0.45781505183E+03  0.91359497509E+02 0.  0.
          2    1    3    3  502    0 -0.57411350479E+02 -0.13743490675E+03  0.17449421107E+03  0.22941806043E+03  0.00000000000E+00 0. -1.
         -2    1    3    3    0  502 -0.32723103473E+02 -0.10368650939E+01  0.98420639716E+01  0.34186880719E+02  0.00000000000E+00 0.  1.
         13    1    5    5    0    0  0.25241997079E+03 -0.35322462552E+01  0.83373623600E+02  0.26585612562E+03  0.00000000000E+00 0. -1.
        -13    1    5    5    0    0  0.20629235682E+03 -0.82536330187E+02  0.42544903205E+02  0.22622743219E+03  0.00000000000E+00 0.  1.
          2    1    6    6  503    0  0.10786641831E+00  0.93871169764E+01  0.14909371949E+02  0.17618710855E+02  0.00000000000E+00 0.  1.
         -2    1    6    6    0  503 -0.36868574008E+03  0.21515323131E+03  0.10748363005E+03  0.44019634097E+03  0.00000000000E+00 0. -1.
<mgrwt>
<rscale>  0 0.11337578E+04</rscale>
<asrwt>0</asrwt>
<pdfrwt beam="1">  1        1 0.12662703E+00 0.11337578E+04</pdfrwt>
<pdfrwt beam="2">  1       -1 0.60065827E-01 0.11337578E+04</pdfrwt>
<totfact> 0.59004195E+01</totfact>
</mgrwt>
</event>
<event>
12    3  0.4192740E-008  0.1444113E+04  0.7818608E-02  0.8922492E-01
         -1   -1    0    0    0  501 -0.00000000000E+00  0.00000000000E+00  0.41624715202E+03  0.41624715202E+03  0.00000000000E+00 0.  1.
          1   -1    0    0  501    0  0.00000000000E+00 -0.00000000000E+00 -0.12525383425E+04  0.12525383425E+04  0.00000000000E+00 0. -1.
         23    2    1    2    0    0  0.32794752682E+03  0.26894328961E+03 -0.19948451979E+03  0.47763066113E+03  0.91961412765E+02 0.  0.
        254    2    1    2    0    0 -0.32794752682E+03 -0.26894328961E+03 -0.63680667065E+03  0.11911548334E+04  0.91293320011E+03 0.  0.
         23    2    4    4    0    0  0.22237842454E+03 -0.18920966789E+03  0.42445210640E+02  0.30866690208E+03  0.90670824488E+02 0.  0.
         23    2    4    4    0    0 -0.55032595136E+03 -0.79733621717E+02 -0.67925188129E+03  0.88248793127E+03  0.90475009935E+02 0.  0.
          3    1    3    3  502    0  0.15933003058E+03  0.12854727855E+03 -0.14698627320E+03  0.25202266956E+03  0.00000000000E+00 0. -1.
         -3    1    3    3    0  502  0.16861749624E+03  0.14039601106E+03 -0.52498246595E+02  0.22560799156E+03  0.00000000000E+00 0.  1.
         13    1    5    5    0    0  0.19090740684E+03 -0.19498519775E+03  0.30791946654E+02  0.27461429188E+03  0.00000000000E+00 0. -1.
        -13    1    5    5    0    0  0.31471017701E+02  0.57755298573E+01  0.11653263985E+02  0.34052610205E+02  0.00000000000E+00 0.  1.
          1    1    6    6  503    0 -0.35001993381E+03 -0.44458560379E+02 -0.36094078678E+03  0.50474624240E+03  0.00000000000E+00 0. -1.
         -1    1    6    6    0  503 -0.20030601755E+03 -0.35275061338E+02 -0.31831109452E+03  0.37774168887E+03  0.00000000000E+00 0.  1.
<mgrwt>
<rscale>  0 0.14441129E+04</rscale>
<asrwt>0</asrwt>
<pdfrwt beam="1">  1        1 0.19269821E+00 0.14441129E+04</pdfrwt>
<pdfrwt beam="2">  1       -1 0.64038023E-01 0.14441129E+04</pdfrwt>
<totfact> 0.23513068E+01</totfact>
</mgrwt>
</event>
<event>
12    3  0.4192740E-008  0.2608628E+04  0.7818608E-02  0.8365276E-01
         -2   -1    0    0    0  501 -0.00000000000E+00  0.00000000000E+00  0.15427748801E+04  0.15427748801E+04  0.00000000000E+00 0.  1.
          2   -1    0    0  501    0  0.00000000000E+00 -0.00000000000E+00 -0.11027115116E+04  0.11027115116E+04  0.00000000000E+00 0. -1.
         23    2    1    2    0    0  0.19515776175E+03  0.71804720323E+03  0.10850826399E+04  0.13188686499E+04  0.91278926292E+02 0.  0.
        254    2    1    2    0    0 -0.19515776175E+03 -0.71804720323E+03 -0.64501927142E+03  0.13266177418E+04  0.88892431300E+03 0.  0.
         23    2    4    4    0    0 -0.21586338395E+01 -0.81785805037E+03 -0.23747253324E+03  0.85710998239E+03  0.96684371096E+02 0.  0.
         23    2    4    4    0    0 -0.19299912791E+03  0.99810847138E+02 -0.40754673818E+03  0.46950775938E+03  0.84453086025E+02 0.  0.
          1    1    3    3  502    0  0.55397434708E+02  0.16857279224E+03  0.32925162759E+03  0.37402178590E+03  0.00000000000E+00 0. -1.
         -1    1    3    3    0  502  0.13976032704E+03  0.54947441099E+03  0.75583101229E+03  0.94484686404E+03  0.00000000000E+00 0.  1.
         13    1    5    5    0    0 -0.18894788277E+02 -0.56046018048E+03 -0.11901644728E+03  0.57326917033E+03  0.00000000000E+00 0.  1.
        -13    1    5    5    0    0  0.16736154437E+02 -0.25739786989E+03 -0.11845608597E+03  0.28384081206E+03  0.00000000000E+00 0. -1.
          2    1    6    6  503    0 -0.20174917677E+02  0.47953767304E+02 -0.10651479580E+03  0.11854110185E+03  0.00000000000E+00 0. -1.
         -2    1    6    6    0  503 -0.17282421023E+03  0.51857079834E+02 -0.30103194238E+03  0.35096665754E+03  0.00000000000E+00 0.  1.
<mgrwt>
<rscale>  0 0.26086285E+04</rscale>
<asrwt>0</asrwt>
<pdfrwt beam="1">  1        2 0.16964793E+00 0.26086285E+04</pdfrwt>
<pdfrwt beam="2">  1       -2 0.23734998E+00 0.26086285E+04</pdfrwt>
<totfact> 0.14757253E+00</totfact>
</mgrwt>
</event>
<event>
12    3  0.4192740E-008  0.1588697E+04  0.7818608E-02  0.8827522E-01
          2   -1    0    0  501    0  0.00000000000E+00  0.00000000000E+00  0.81808621993E+03  0.81808621993E+03  0.00000000000E+00 0. -1.
         -2   -1    0    0    0  501 -0.00000000000E+00 -0.00000000000E+00 -0.77129927714E+03  0.77129927714E+03  0.00000000000E+00 0.  1.
         23    2    1    2    0    0 -0.13298708642E+03 -0.17536469331E+03 -0.46661271102E+03  0.52406978398E+03  0.92105241899E+02 0.  0.
        254    2    1    2    0    0  0.13298708642E+03  0.17536469331E+03  0.51339965380E+03  0.10653157131E+04  0.90712734675E+03 0.  0.
         23    2    4    4    0    0  0.30539717688E+03  0.36927347764E+03  0.53199047565E+01  0.48754661323E+03  0.89683118508E+02 0.  0.
         23    2    4    4    0    0 -0.17241009046E+03 -0.19390878434E+03  0.50807974905E+03  0.57776909986E+03  0.91357788009E+02 0.  0.
          3    1    3    3  502    0 -0.86343962223E+01  0.76401267620E+01 -0.60570694954E+02  0.61658198337E+02  0.00000000000E+00 0. -1.
         -3    1    3    3    0  502 -0.12435269020E+03 -0.18300482007E+03 -0.40604201606E+03  0.46241158564E+03  0.00000000000E+00 0.  1.
         13    1    5    5    0    0  0.12976486108E+03  0.98076601789E+02 -0.17739780940E+02  0.16362346658E+03  0.00000000000E+00 0. -1.
        -13    1    5    5    0    0  0.17563231580E+03  0.27119687585E+03  0.23059685696E+02  0.32392314664E+03  0.00000000000E+00 0.  1.
          1    1    6    6  503    0 -0.14991942705E+03 -0.11415202974E+03  0.39429674250E+03  0.43700851439E+03  0.00000000000E+00 0. -1.
         -1    1    6    6    0  503 -0.22490663407E+02 -0.79756754600E+02  0.11378300655E+03  0.14076058548E+03  0.00000000000E+00 0.  1.
<mgrwt>
<rscale>  0 0.15886967E+04</rscale>
<asrwt>0</asrwt>
<pdfrwt beam="1">  1        2 0.12585942E+00 0.15886967E+04</pdfrwt>
<pdfrwt beam="2">  1       -2 0.11866143E+00 0.15886967E+04</pdfrwt>
<totfact> 0.17518010E+01</totfact>
</mgrwt>
</event>
<event>
12    3  0.4192740E-008  0.1322766E+04  0.7818608E-02  0.9011704E-01
          2   -1    0    0  501    0  0.00000000000E+00  0.00000000000E+00  0.29383632866E+04  0.29383632866E+04  0.00000000000E+00 0. -1.
         -2   -1    0    0    0  501 -0.00000000000E+00 -0.00000000000E+00 -0.14886775869E+03  0.14886775869E+03  0.00000000000E+00 0.  1.
         23    2    1    2    0    0  0.26268409213E+03 -0.22016049674E+03  0.51825034373E+03  0.62775505718E+03  0.89551194599E+02 0.  0.
        254    2    1    2    0    0 -0.26268409213E+03  0.22016049674E+03  0.22712451841E+04  0.24594759881E+04  0.87920070111E+03 0.  0.
         23    2    4    4    0    0 -0.53039419556E+03  0.26793452545E+03  0.18824406207E+04  0.19760847978E+04  0.90672625018E+02 0.  0.
         23    2    4    4    0    0  0.26771010343E+03 -0.47774028705E+02  0.38880456340E+03  0.48339119025E+03  0.92449970257E+02 0.  0.
          1    1    3    3  502    0 -0.54760778592E+01 -0.17161066613E+01  0.22865541935E+02  0.23574678339E+02  0.00000000000E+00 0. -1.
         -1    1    3    3    0  502  0.26816016999E+03 -0.21844439008E+03  0.49538480180E+03  0.60418037884E+03  0.00000000000E+00 0.  1.
         13    1    5    5    0    0 -0.24547868990E+02  0.17889784402E+01  0.39510094605E+02  0.46549391956E+02  0.00000000000E+00 0.  1.
        -13    1    5    5    0    0 -0.50584632657E+03  0.26614554701E+03  0.18429305261E+04  0.19295354059E+04  0.00000000000E+00 0. -1.
          1    1    6    6  503    0  0.14382018234E+03 -0.65004260808E+02  0.25769350620E+03  0.30218494653E+03  0.00000000000E+00 0. -1.
         -1    1    6    6    0  503  0.12388992108E+03  0.17230232102E+02  0.13111105719E+03  0.18120624372E+03  0.00000000000E+00 0.  1.
<mgrwt>
<rscale>  0 0.13227661E+04</rscale>
<asrwt>0</asrwt>
<pdfrwt beam="1">  1        2 0.45205585E+00 0.13227661E+04</pdfrwt>
<pdfrwt beam="2">  1       -2 0.22902734E-01 0.13227661E+04</pdfrwt>
<totfact> 0.31593928E+01</totfact>
</mgrwt>
</event>
<event>
12    3  0.4192740E-008  0.1369586E+04  0.7818608E-02  0.8976133E-01
          1   -1    0    0  501    0  0.00000000000E+00  0.00000000000E+00  0.25462473675E+04  0.25462473675E+04  0.00000000000E+00 0. -1.
         -1   -1    0    0    0  501 -0.00000000000E+00 -0.00000000000E+00 -0.18416967340E+03  0.18416967340E+03  0.00000000000E+00 0.  1.
         23    2    1    2    0    0 -0.12763748651E+03 -0.31332140105E+03  0.32709643483E+03  0.47919870507E+03  0.90430597393E+02 0.  0.
        254    2    1    2    0    0  0.12763748651E+03  0.31332140105E+03  0.20349812592E+04  0.22512183358E+04  0.90131772515E+03 0.  0.
         23    2    4    4    0    0  0.20437356475E+03 -0.18328058013E+03  0.21323432223E+03  0.35931920123E+03  0.91000478962E+02 0.  0.
         23    2    4    4    0    0 -0.76736078247E+02  0.49660198118E+03  0.18217469370E+04  0.18918991346E+04  0.89545962881E+02 0.  0.
          2    1    3    3  502    0 -0.72150359339E+02 -0.78350219459E+02  0.12599322312E+03  0.16498097925E+03  0.00000000000E+00 0. -1.
         -2    1    3    3    0  502 -0.55487127167E+02 -0.23497118159E+03  0.20110321171E+03  0.31421772582E+03  0.00000000000E+00 0.  1.
         13    1    5    5    0    0  0.14687738540E+03 -0.17629498861E+03  0.18569037752E+03  0.29518435875E+03  0.00000000000E+00 0. -1.
        -13    1    5    5    0    0  0.57496179352E+02 -0.69855915267E+01  0.27543944710E+02  0.64134842474E+02  0.00000000000E+00 0.  1.
          1    1    6    6  503    0 -0.94997644588E+02  0.37674079220E+03  0.13471163263E+04  0.14020273084E+04  0.00000000000E+00 0. -1.
         -1    1    6    6    0  503  0.18261566341E+02  0.11986118898E+03  0.47463061071E+03  0.48987182615E+03  0.00000000000E+00 0.  1.
<mgrwt>
<rscale>  0 0.13695861E+04</rscale>
<asrwt>0</asrwt>
<pdfrwt beam="1">  1        1 0.39173034E+00 0.13695861E+04</pdfrwt>
<pdfrwt beam="2">  1       -1 0.28333798E-01 0.13695861E+04</pdfrwt>
<totfact> 0.13924832E+01</totfact>
</mgrwt>
</event>
<event>
12    3  0.4192740E-008  0.1774968E+04  0.7818608E-02  0.8719725E-01
          2   -1    0    0  501    0  0.00000000000E+00  0.00000000000E+00  0.41215011627E+03  0.41215011627E+03  0.00000000000E+00 0. -1.
         -2   -1    0    0    0  501 -0.00000000000E+00 -0.00000000000E+00 -0.19110222937E+04  0.19110222937E+04  0.00000000000E+00 0.  1.
         23    2    1    2    0    0  0.91298029091E+02  0.44690962121E+03  0.61983770772E+02  0.46917324141E+03  0.90653201633E+02 0.  0.
        254    2    1    2    0    0 -0.91298029091E+02 -0.44690962121E+03 -0.15608559482E+04  0.18539991686E+04  0.89049317032E+03 0.  0.
         23    2    4    4    0    0 -0.70499423020E+02  0.26051348371E+03 -0.39214839111E+03  0.48465870557E+03  0.90973932492E+02 0.  0.
         23    2    4    4    0    0 -0.20798606071E+02 -0.70742310492E+03 -0.11687075571E+04  0.13693404630E+04  0.91301249805E+02 0.  0.
          1    1    3    3  502    0  0.27446106217E+02  0.29808707290E+03  0.68556057087E+02  0.30709790742E+03  0.00000000000E+00 0. -1.
         -1    1    3    3    0  502  0.63851922875E+02  0.14882254831E+03 -0.65722863151E+01  0.16207533399E+03  0.00000000000E+00 0.  1.
         13    1    5    5    0    0 -0.36637444988E+02  0.15784316952E+03 -0.15594681410E+03  0.22489147909E+03  0.00000000000E+00 0.  1.
        -13    1    5    5    0    0 -0.33861978032E+02  0.10267031420E+03 -0.23620157700E+03  0.25976722648E+03  0.00000000000E+00 0. -1.
          4    1    6    6  503    0  0.23969427636E+02 -0.13815711655E+03 -0.18848344776E+03  0.23492111951E+03  0.00000000000E+00 0. -1.
         -4    1    6    6    0  503 -0.44768033707E+02 -0.56926598837E+03 -0.98022410934E+03  0.11344193435E+04  0.00000000000E+00 0.  1.
<mgrwt>
<rscale>  0 0.17749682E+04</rscale>
<asrwt>0</asrwt>
<pdfrwt beam="1">  1        2 0.63407710E-01 0.17749682E+04</pdfrwt>
<pdfrwt beam="2">  1       -2 0.29400343E+00 0.17749682E+04</pdfrwt>
<totfact> 0.25188857E+00</totfact>
</mgrwt>
</event>
<event>
12    3  0.4192740E-008  0.1516669E+04  0.7818608E-02  0.8873443E-01
          1   -1    0    0  501    0  0.00000000000E+00  0.00000000000E+00  0.12262896096E+04  0.12262896096E+04  0.00000000000E+00 0. -1.
         -1   -1    0    0    0  501 -0.00000000000E+00 -0.00000000000E+00 -0.46895215649E+03  0.46895215649E+03  0.00000000000E+00 0.  1.
         23    2    1    2    0    0  0.45617030012E+03  0.47384217684E+02  0.11321729455E+03  0.48069648273E+03  0.88962609693E+02 0.  0.
        254    2    1    2    0    0 -0.45617030012E+03 -0.47384217684E+02  0.64412015861E+03  0.12145452834E+04  0.92189633903E+03 0.  0.
         23    2    4    4    0    0  0.10383341209E+03 -0.15200423248E+03  0.60245775808E+03  0.63655081104E+03  0.91405254823E+02 0.  0.
         23    2    4    4    0    0 -0.56000371222E+03  0.10462001480E+03  0.41662400532E+02  0.57799447236E+03  0.88274284318E+02 0.  0.
          2    1    3    3  502    0  0.45238041610E+03  0.41554216519E+02  0.12113588567E+03  0.47015816124E+03  0.00000000000E+00 0. -1.
         -2    1    3    3    0  502  0.37898840215E+01  0.58300011646E+01 -0.79185911215E+01  0.10538321490E+02  0.00000000000E+00 0.  1.
         13    1    5    5    0    0  0.66161486945E+01 -0.12710641916E+02  0.18923659874E+03  0.18977835531E+03  0.00000000000E+00 0. -1.
        -13    1    5    5    0    0  0.97217263397E+02 -0.13929359057E+03  0.41322115934E+03  0.44677245573E+03  0.00000000000E+00 0.  1.
          4    1    6    6  503    0 -0.19517160530E+02  0.20926830241E+02  0.93832617726E+01  0.30114736934E+02  0.00000000000E+00 0. -1.
         -4    1    6    6    0  503 -0.54048655169E+03  0.83693184557E+02  0.32279138759E+02  0.54787973543E+03  0.00000000000E+00 0.  1.
<mgrwt>
<rscale>  0 0.15166689E+04</rscale>
<asrwt>0</asrwt>
<pdfrwt beam="1">  1        1 0.18865994E+00 0.15166689E+04</pdfrwt>
<pdfrwt beam="2">  1       -1 0.72146486E-01 0.15166689E+04</pdfrwt>
<totfact> 0.19146420E+01</totfact>
</mgrwt>
</event>
<event>
12    3  0.4192740E-008  0.1909346E+04  0.7818608E-02  0.8650218E-01
          2   -1    0    0  501    0  0.00000000000E+00  0.00000000000E+00  0.60759368404E+03  0.60759368404E+03  0.00000000000E+00 0. -1.
         -2   -1    0    0    0  501 -0.00000000000E+00 -0.00000000000E+00 -0.15000169038E+04  0.15000169038E+04  0.00000000000E+00 0.  1.
         23    2    1    2    0    0  0.19221271234E+03  0.27794986937E+03 -0.10669115706E+04  0.11228698362E+04  0.91293554287E+02 0.  0.
        254    2    1    2    0    0 -0.19221271234E+03 -0.27794986937E+03  0.17448835076E+03  0.98474075165E+03  0.90833160616E+03 0.  0.
         23    2    4    4    0    0 -0.49932661291E+03 -0.29328392023E+03 -0.56665983086E+02  0.58921830095E+03  0.92868984623E+02 0.  0.
         23    2    4    4    0    0  0.30711390057E+03  0.15334050858E+02  0.23115433384E+03  0.39552245071E+03  0.91932594425E+02 0.  0.
          1    1    3    3  502    0  0.30236657866E+02  0.35585796739E+01 -0.71743093648E+02  0.77935809834E+02  0.00000000000E+00 0. -1.
         -1    1    3    3    0  502  0.16197605448E+03  0.27439128969E+03 -0.99516847691E+03  0.10449340264E+04  0.00000000000E+00 0.  1.
         13    1    5    5    0    0 -0.46573808528E+03 -0.24313663137E+03 -0.59829152986E+02  0.52877869959E+03  0.00000000000E+00 0.  1.
        -13    1    5    5    0    0 -0.33588527633E+02 -0.50147288857E+02  0.31631698999E+01  0.60439601356E+02  0.00000000000E+00 0. -1.
          1    1    6    6  503    0  0.97754337444E+02  0.40970043367E+02  0.10778494369E+03  0.15116894201E+03  0.00000000000E+00 0. -1.
         -1    1    6    6    0  503  0.20935956313E+03 -0.25635992509E+02  0.12336939016E+03  0.24435350870E+03  0.00000000000E+00 0.  1.
<mgrwt>
<rscale>  0 0.19093463E+04</rscale>
<asrwt>0</asrwt>
<pdfrwt beam="1">  1        2 0.93475953E-01 0.19093463E+04</pdfrwt>
<pdfrwt beam="2">  1       -2 0.23077183E+00 0.19093463E+04</pdfrwt>
<totfact> 0.38631620E+00</totfact>
</mgrwt>
</event>
<event>
12    3  0.4192740E-008  0.1489720E+04  0.7818608E-02  0.8891318E-01
          2   -1    0    0  501    0  0.00000000000E+00  0.00000000000E+00  0.38186781156E+04  0.38186781156E+04  0.00000000000E+00 0. -1.
         -2   -1    0    0    0  501 -0.00000000000E+00 -0.00000000000E+00 -0.14529011643E+03  0.14529011643E+03  0.00000000000E+00 0.  1.
         23    2    1    2    0    0 -0.11687821812E+03 -0.19364229794E+02 -0.27720563123E+02  0.15262053166E+03  0.92136343521E+02 0.  0.
        254    2    1    2    0    0  0.11687821812E+03  0.19364229794E+02  0.37011085623E+04  0.38113477003E+04  0.90229219881E+03 0.  0.
         23    2    4    4    0    0 -0.37690849233E+03  0.22055024879E+02  0.20076610158E+04  0.20449638598E+04  0.92887014681E+02 0.  0.
         23    2    4    4    0    0  0.49378671045E+03 -0.26907950856E+01  0.16934475464E+04  0.17663838406E+04  0.92275262127E+02 0.  0.
          1    1    3    3  502    0  0.16970947403E+00 -0.84405457742E+01  0.23066185272E+02  0.24562583685E+02  0.00000000000E+00 0. -1.
         -1    1    3    3    0  502 -0.11704792759E+03 -0.10923684019E+02 -0.50786748395E+02  0.12805794797E+03  0.00000000000E+00 0.  1.
         13    1    5    5    0    0 -0.38235773400E+03  0.19819386366E+02  0.19810244791E+04  0.20176838780E+04  0.00000000000E+00 0.  1.
        -13    1    5    5    0    0  0.54492416725E+01  0.22356385134E+01  0.26636536776E+02  0.27279981777E+02  0.00000000000E+00 0. -1.
          3    1    6    6  503    0  0.15533000177E+02  0.12759498974E+02  0.12379103664E+03  0.12541251796E+03  0.00000000000E+00 0. -1.
         -3    1    6    6    0  503  0.47825371027E+03 -0.15450294059E+02  0.15696565098E+04  0.16409713226E+04  0.00000000000E+00 0.  1.
<mgrwt>
<rscale>  0 0.14897197E+04</rscale>
<asrwt>0</asrwt>
<pdfrwt beam="1">  1        2 0.58748887E+00 0.14897197E+04</pdfrwt>
<pdfrwt beam="2">  1       -2 0.22352328E-01 0.14897197E+04</pdfrwt>
<totfact> 0.82312041E+00</totfact>
</mgrwt>
</event>
<event>
12    3  0.4192740E-008  0.1864786E+04  0.7818608E-02  0.8672586E-01
         -2   -1    0    0    0  501 -0.00000000000E+00  0.00000000000E+00  0.16738610924E+04  0.16738610924E+04  0.00000000000E+00 0.  1.
          2   -1    0    0  501    0  0.00000000000E+00 -0.00000000000E+00 -0.51937201899E+03  0.51937201899E+03  0.00000000000E+00 0. -1.
         23    2    1    2    0    0  0.53134643616E+03 -0.30862357337E+03  0.86590087539E+03  0.10656161471E+04  0.90420692517E+02 0.  0.
        254    2    1    2    0    0 -0.53134643616E+03  0.30862357337E+03  0.28858819798E+03  0.11276169643E+04  0.90036621707E+03 0.  0.
         23    2    4    4    0    0 -0.19214325198E+03 -0.21374605750E+03  0.38688647050E+03  0.49053626059E+03  0.91314158350E+02 0.  0.
         23    2    4    4    0    0 -0.33920318418E+03  0.52236963087E+03 -0.98298272525E+02  0.63708070369E+03  0.90996929724E+02 0.  0.
          2    1    3    3  502    0  0.69127156400E+02 -0.29442704654E+02  0.16087687848E+03  0.17755789659E+03  0.00000000000E+00 0. -1.
         -2    1    3    3    0  502  0.46221927976E+03 -0.27918086872E+03  0.70502399690E+03  0.88805825048E+03  0.00000000000E+00 0.  1.
         13    1    5    5    0    0 -0.11083524385E+03 -0.15581049065E+03  0.18880373236E+03  0.26871585296E+03  0.00000000000E+00 0.  1.
        -13    1    5    5    0    0 -0.81308008136E+02 -0.57935566843E+02  0.19808273814E+03  0.22182040763E+03  0.00000000000E+00 0. -1.
          1    1    6    6  503    0 -0.22999018778E+03  0.28910464647E+03 -0.85525425961E+02  0.37919860439E+03  0.00000000000E+00 0. -1.
         -1    1    6    6    0  503 -0.10921299640E+03  0.23326498440E+03 -0.12772846564E+02  0.25788209930E+03  0.00000000000E+00 0.  1.
<mgrwt>
<rscale>  0 0.18647859E+04</rscale>
<asrwt>0</asrwt>
<pdfrwt beam="1">  1        2 0.79903389E-01 0.18647859E+04</pdfrwt>
<pdfrwt beam="2">  1       -2 0.25751709E+00 0.18647859E+04</pdfrwt>
<totfact> 0.31967469E+00</totfact>
</mgrwt>
</event>
<event>
12    3  0.4192740E-008  0.1434675E+04  0.7818608E-02  0.8929095E-01
         -2   -1    0    0    0  501 -0.00000000000E+00  0.00000000000E+00  0.16829004512E+03  0.16829004512E+03  0.00000000000E+00 0.  1.
          2   -1    0    0  501    0  0.00000000000E+00 -0.00000000000E+00 -0.30576556955E+04  0.30576556955E+04  0.00000000000E+00 0. -1.
         23    2    1    2    0    0  0.15902810129E+03  0.27042126609E+03 -0.22800472822E+03  0.39845608797E+03  0.91452172178E+02 0.  0.
        254    2    1    2    0    0 -0.15902810129E+03 -0.27042126609E+03 -0.26613609222E+04  0.28274896527E+04  0.90190807719E+03 0.  0.
         23    2    4    4    0    0 -0.18164091210E+02  0.57083347845E+02  0.26332088502E+02  0.11473231362E+03  0.94242676606E+02 0.  0.
         23    2    4    4    0    0 -0.14086401008E+03 -0.32750461394E+03 -0.26876930107E+04  0.27127573390E+04  0.90866492200E+02 0.  0.
          2    1    3    3  502    0  0.65128585457E+02  0.10939404897E+03 -0.14904170491E+03  0.19601586771E+03  0.00000000000E+00 0. -1.
         -2    1    3    3    0  502  0.93899515838E+02  0.16102721712E+03 -0.78963023315E+02  0.20244022026E+03  0.00000000000E+00 0.  1.
         13    1    5    5    0    0 -0.31527775608E+02  0.77125840954E+02  0.65798920572E+01  0.83580446021E+02  0.00000000000E+00 0.  1.
        -13    1    5    5    0    0  0.13363684398E+02 -0.20042493109E+02  0.19752196445E+02  0.31151867602E+02  0.00000000000E+00 0. -1.
          1    1    6    6  503    0 -0.94308195365E+02 -0.11119445768E+03 -0.97888859189E+03  0.98968738421E+03  0.00000000000E+00 0. -1.
         -1    1    6    6    0  503 -0.46555814720E+02 -0.21631015626E+03 -0.17088044188E+04  0.17230699548E+04  0.00000000000E+00 0.  1.
<mgrwt>
<rscale>  0 0.14346749E+04</rscale>
<asrwt>0</asrwt>
<pdfrwt beam="1">  1        2 0.47040852E+00 0.14346749E+04</pdfrwt>
<pdfrwt beam="2">  1       -2 0.25890779E-01 0.14346749E+04</pdfrwt>
<totfact> 0.21119765E+01</totfact>
</mgrwt>
</event>
<event>
12    3  0.4192740E-008  0.1274125E+04  0.7818608E-02  0.9050340E-01
         -1   -1    0    0    0  501 -0.00000000000E+00  0.00000000000E+00  0.20241005741E+03  0.20241005741E+03  0.00000000000E+00 0.  1.
          1   -1    0    0  501    0  0.00000000000E+00 -0.00000000000E+00 -0.20050806713E+04  0.20050806713E+04  0.00000000000E+00 0. -1.
         23    2    1    2    0    0 -0.10139555929E+03 -0.19456065238E+02  0.51338762514E+02  0.14646913486E+03  0.90321320925E+02 0.  0.
        254    2    1    2    0    0  0.10139555929E+03  0.19456065238E+02 -0.18540093764E+04  0.20610215938E+04  0.89431518189E+03 0.  0.
         23    2    4    4    0    0  0.19487222602E+03  0.40029932117E+03 -0.12918236520E+04  0.13693710557E+04  0.90299552463E+02 0.  0.
         23    2    4    4    0    0 -0.93476666729E+02 -0.38084325594E+03 -0.56218572435E+03  0.69165053814E+03  0.92456505642E+02 0.  0.
          1    1    3    3  502    0  0.19755429325E+01 -0.13955294132E+02 -0.17261224899E+02  0.22284588603E+02  0.00000000000E+00 0. -1.
         -1    1    3    3    0  502 -0.10337110222E+03 -0.55007711057E+01  0.68599987414E+02  0.12418454626E+03  0.00000000000E+00 0.  1.
         13    1    5    5    0    0  0.14025330744E+03  0.36013401037E+03 -0.10988967506E+04  0.11648783473E+04  0.00000000000E+00 0. -1.
        -13    1    5    5    0    0  0.54618918577E+02  0.40165310805E+02 -0.19292690142E+03  0.20449270830E+03  0.00000000000E+00 0.  1.
          2    1    6    6  503    0 -0.97696891208E+02 -0.34781909387E+03 -0.46456931438E+03  0.58851291615E+03  0.00000000000E+00 0. -1.
         -2    1    6    6    0  503  0.42202244786E+01 -0.33024162065E+02 -0.97616409969E+02  0.10313762199E+03  0.00000000000E+00 0.  1.
<mgrwt>
<rscale>  0 0.12741248E+04</rscale>
<asrwt>0</asrwt>
<pdfrwt beam="1">  1        1 0.30847396E+00 0.12741248E+04</pdfrwt>
<pdfrwt beam="2">  1       -1 0.31140008E-01 0.12741248E+04</pdfrwt>
<totfact> 0.27847444E+01</totfact>
</mgrwt>
</event>
<event>
12    3  0.4192740E-008  0.1641733E+04  0.7818608E-02  0.8795312E-01
         -1   -1    0    0    0  501 -0.00000000000E+00  0.00000000000E+00  0.59600338670E+03  0.59600338670E+03  0.00000000000E+00 0.  1.
          1   -1    0    0  501    0  0.00000000000E+00 -0.00000000000E+00 -0.11305668409E+04  0.11305668409E+04  0.00000000000E+00 0. -1.
         23    2    1    2    0    0 -0.32600754778E+03 -0.46596050402E+03 -0.15330358830E+03  0.59600384898E+03  0.91205730610E+02 0.  0.
        254    2    1    2    0    0  0.32600754778E+03  0.46596050402E+03 -0.38125986593E+03  0.11305663786E+04  0.89967835288E+03 0.  0.
         23    2    4    4    0    0 -0.80328003065E+02  0.46471132813E+03  0.10305499892E+03  0.49143718488E+03  0.92092167458E+02 0.  0.
         23    2    4    4    0    0  0.40633555085E+03  0.12491758847E+01 -0.48431486485E+03  0.63912919377E+03  0.93888751669E+02 0.  0.
          2    1    3    3  502    0 -0.11895898933E+03 -0.24291118190E+03 -0.90854119997E+02  0.28532710099E+03  0.00000000000E+00 0. -1.
         -2    1    3    3    0  502 -0.20704855845E+03 -0.22304932211E+03 -0.62449468300E+02  0.31067674799E+03  0.00000000000E+00 0.  1.
         13    1    5    5    0    0 -0.75939773148E+02  0.46810323888E+03  0.10471713549E+03  0.48564716602E+03  0.00000000000E+00 0.  1.
        -13    1    5    5    0    0 -0.43882299172E+01 -0.33919107530E+01 -0.16621365702E+01  0.57900188549E+01  0.00000000000E+00 0. -1.
          4    1    6    6  503    0  0.12199488215E+03  0.43451030484E+02 -0.14444952498E+03  0.19400105306E+03  0.00000000000E+00 0. -1.
         -4    1    6    6    0  503  0.28434066870E+03 -0.42201854600E+02 -0.33986533987E+03  0.44512814071E+03  0.00000000000E+00 0.  1.
<mgrwt>
<rscale>  0 0.16417328E+04</rscale>
<asrwt>0</asrwt>
<pdfrwt beam="1">  1        1 0.17393336E+00 0.16417328E+04</pdfrwt>
<pdfrwt beam="2">  1       -1 0.91692831E-01 0.16417328E+04</pdfrwt>
<totfact> 0.13331368E+01</totfact>
</mgrwt>
</event>
<event>
12    3  0.4192740E-008  0.2011283E+04  0.7818608E-02  0.8601364E-01
          1   -1    0    0  501    0  0.00000000000E+00  0.00000000000E+00  0.13700306603E+04  0.13700306603E+04  0.00000000000E+00 0. -1.
         -1   -1    0    0    0  501 -0.00000000000E+00 -0.00000000000E+00 -0.73816942067E+03  0.73816942067E+03  0.00000000000E+00 0.  1.
         23    2    1    2    0    0 -0.64831820887E+03  0.13054824568E+03 -0.21990193719E+03  0.70287958309E+03  0.91233228280E+02 0.  0.
        254    2    1    2    0    0  0.64831820887E+03 -0.13054824568E+03  0.85176317685E+03  0.14053204979E+04  0.90114696249E+03 0.  0.
         23    2    4    4    0    0  0.25422775376E+01 -0.25553231468E+02  0.72672230850E+03  0.73302377664E+03  0.92407319181E+02 0.  0.
         23    2    4    4    0    0  0.64577593133E+03 -0.10499501421E+03  0.12504086835E+03  0.67229672126E+03  0.91088726916E+02 0.  0.
          3    1    3    3  502    0 -0.36582879450E+03  0.90078285257E+02 -0.80422107806E+02  0.38524345522E+03  0.00000000000E+00 0. -1.
         -3    1    3    3    0  502 -0.28248941436E+03  0.40469960423E+02 -0.13947982938E+03  0.31763612787E+03  0.00000000000E+00 0.  1.
         13    1    5    5    0    0 -0.30802788409E+02  0.21974881222E+02  0.28099888060E+03  0.28353496799E+03  0.00000000000E+00 0. -1.
        -13    1    5    5    0    0  0.33345065946E+02 -0.47528112690E+02  0.44572342790E+03  0.44948880865E+03  0.00000000000E+00 0.  1.
          4    1    6    6  503    0  0.98421655335E+02 -0.41182826305E+02 -0.22929863249E+01  0.10671506551E+03  0.00000000000E+00 0.  1.
         -4    1    6    6    0  503  0.54735427599E+03 -0.63812187908E+02  0.12733385468E+03  0.56558165575E+03  0.00000000000E+00 0. -1.
<mgrwt>
<rscale>  0 0.20112829E+04</rscale>
<asrwt>0</asrwt>
<pdfrwt beam="1">  1        1 0.21077395E+00 0.20112829E+04</pdfrwt>
<pdfrwt beam="2">  1       -1 0.11356453E+00 0.20112829E+04</pdfrwt>
<totfact> 0.52878901E+00</totfact>
</mgrwt>
</event>
<event>
12    3  0.4192740E-008  0.1729967E+04  0.7818608E-02  0.8744455E-01
         -2   -1    0    0    0  501 -0.00000000000E+00  0.00000000000E+00  0.53004691844E+03  0.53004691844E+03  0.00000000000E+00 0.  1.
          2   -1    0    0  501    0  0.00000000000E+00 -0.00000000000E+00 -0.14115672689E+04  0.14115672689E+04  0.00000000000E+00 0. -1.
         23    2    1    2    0    0 -0.43140232123E+03  0.37853568813E+03 -0.41278696398E+02  0.58277611082E+03  0.92340861025E+02 0.  0.
        254    2    1    2    0    0  0.43140232123E+03 -0.37853568813E+03 -0.84024165404E+03  0.13588380765E+04  0.90057628829E+03 0.  0.
         23    2    4    4    0    0  0.85269437165E+02 -0.61198706180E+03 -0.61264674818E+03  0.87498566956E+03  0.92004582255E+02 0.  0.
         23    2    4    4    0    0  0.34613288407E+03  0.23345137367E+03 -0.22759490586E+03  0.48385240695E+03  0.89477333649E+02 0.  0.
          3    1    3    3  502    0 -0.15289709815E+03  0.17454746674E+03 -0.50325085714E+02  0.23743831835E+03  0.00000000000E+00 0. -1.
         -3    1    3    3    0  502 -0.27850522308E+03  0.20398822139E+03  0.90463893153E+01  0.34533779247E+03  0.00000000000E+00 0.  1.
         13    1    5    5    0    0  0.48099436498E+02 -0.20347048719E+03 -0.26304485681E+03  0.33601546339E+03  0.00000000000E+00 0. -1.
        -13    1    5    5    0    0  0.37170000667E+02 -0.40851657461E+03 -0.34960189137E+03  0.53897020616E+03  0.00000000000E+00 0.  1.
          1    1    6    6  503    0  0.26690879172E+03  0.19632755320E+03 -0.13892117465E+03  0.35928248498E+03  0.00000000000E+00 0. -1.
         -1    1    6    6    0  503  0.79224092341E+02  0.37123820469E+02 -0.88673731207E+02  0.12456992197E+03  0.00000000000E+00 0.  1.
<mgrwt>
<rscale>  0 0.17299675E+04</rscale>
<asrwt>0</asrwt>
<pdfrwt beam="1">  1        2 0.21716419E+00 0.17299675E+04</pdfrwt>
<pdfrwt beam="2">  1       -2 0.81545682E-01 0.17299675E+04</pdfrwt>
<totfact> 0.17911991E+01</totfact>
</mgrwt>
</event>
<event>
12    3  0.4192740E-008  0.1111759E+04  0.7818608E-02  0.9193806E-01
          1   -1    0    0  501    0  0.00000000000E+00  0.00000000000E+00  0.11394684057E+04  0.11394684057E+04  0.00000000000E+00 0. -1.
         -1   -1    0    0    0  501 -0.00000000000E+00 -0.00000000000E+00 -0.27118102270E+03  0.27118102270E+03  0.00000000000E+00 0.  1.
         23    2    1    2    0    0 -0.79382486490E+02  0.55528456874E+02  0.33585002207E+03  0.36104557815E+03  0.90408426003E+02 0.  0.
        254    2    1    2    0    0  0.79382486490E+02 -0.55528456874E+02  0.53243736098E+03  0.10496038503E+04  0.89932958947E+03 0.  0.
         23    2    4    4    0    0  0.24687789037E+03  0.31586832788E+03  0.47347824539E+03  0.62691507330E+03  0.90107530007E+02 0.  0.
         23    2    4    4    0    0 -0.16749540388E+03 -0.37139678475E+03  0.58959115595E+02  0.42268877700E+03  0.95913204727E+02 0.  0.
          1    1    3    3  502    0 -0.25316935595E+02  0.38854698081E+02  0.27119131823E+03  0.27512790821E+03  0.00000000000E+00 0. -1.
         -1    1    3    3    0  502 -0.54065550896E+02  0.16673758792E+02  0.64658703836E+02  0.85917669938E+02  0.00000000000E+00 0.  1.
         13    1    5    5    0    0  0.11577437600E+02  0.50528431742E+02  0.33155682978E+02  0.61534208286E+02  0.00000000000E+00 0.  1.
        -13    1    5    5    0    0  0.23530045277E+03  0.26533989614E+03  0.44032256241E+03  0.56538086501E+03  0.00000000000E+00 0. -1.
          3    1    6    6  503    0 -0.11324202573E+03 -0.18611550368E+03 -0.89210260466E+01  0.21804201844E+03  0.00000000000E+00 0. -1.
         -3    1    6    6    0  503 -0.54253378150E+02 -0.18528128107E+03  0.67880141641E+02  0.20464675855E+03  0.00000000000E+00 0.  1.
<mgrwt>
<rscale>  0 0.11117593E+04</rscale>
<asrwt>0</asrwt>
<pdfrwt beam="1">  1        1 0.17530283E+00 0.11117593E+04</pdfrwt>
<pdfrwt beam="2">  1       -1 0.41720158E-01 0.11117593E+04</pdfrwt>
<totfact> 0.66434301E+01</totfact>
</mgrwt>
</event>
<event>
12    3  0.4192740E-008  0.2809674E+04  0.7818608E-02  0.8300271E-01
         -2   -1    0    0    0  501 -0.00000000000E+00  0.00000000000E+00  0.11410838171E+04  0.11410838171E+04  0.00000000000E+00 0.  1.
          2   -1    0    0  501    0  0.00000000000E+00 -0.00000000000E+00 -0.17295542045E+04  0.17295542045E+04  0.00000000000E+00 0. -1.
         23    2    1    2    0    0  0.27333732403E+03  0.41263136433E+03  0.91715514971E+03  0.10462821242E+04  0.92492049678E+02 0.  0.
        254    2    1    2    0    0 -0.27333732403E+03 -0.41263136433E+03 -0.15056255371E+04  0.18243558974E+04  0.90354205604E+03 0.  0.
         23    2    4    4    0    0 -0.19509215259E+03 -0.40511625098E+03 -0.17894240563E+03  0.49225910218E+03  0.90102798739E+02 0.  0.
         23    2    4    4    0    0 -0.78245171446E+02 -0.75151133489E+01 -0.13266831314E+04  0.13320967952E+04  0.90636399221E+02 0.  0.
          1    1    3    3  502    0  0.40299897913E+01 -0.46918641658E+01  0.63966707721E+01  0.88978539005E+01  0.00000000000E+00 0. -1.
         -1    1    3    3    0  502  0.26930733424E+03  0.41732322849E+03  0.91075847894E+03  0.10373842703E+04  0.00000000000E+00 0.  1.
         13    1    5    5    0    0 -0.68898211851E+02 -0.18291280476E+03 -0.33740261319E+02  0.19834934579E+03  0.00000000000E+00 0.  1.
        -13    1    5    5    0    0 -0.12619394074E+03 -0.22220344622E+03 -0.14520214431E+03  0.29390975639E+03  0.00000000000E+00 0. -1.
          2    1    6    6  503    0 -0.42735604948E+02  0.26019597350E+02 -0.10459957519E+04  0.10471917037E+04  0.00000000000E+00 0. -1.
         -2    1    6    6    0  503 -0.35509566498E+02 -0.33534710699E+02 -0.28068737957E+03  0.28490509154E+03  0.00000000000E+00 0.  1.
<mgrwt>
<rscale>  0 0.28096735E+04</rscale>
<asrwt>0</asrwt>
<pdfrwt beam="1">  1        2 0.26608526E+00 0.28096735E+04</pdfrwt>
<pdfrwt beam="2">  1       -2 0.17555136E+00 0.28096735E+04</pdfrwt>
<totfact> 0.15990136E+00</totfact>
</mgrwt>
</event>
<event>
12    3  0.4192740E-008  0.1411881E+04  0.7818608E-02  0.8945263E-01
          2   -1    0    0  501    0  0.00000000000E+00  0.00000000000E+00  0.24197378543E+04  0.24197378543E+04  0.00000000000E+00 0.  1.
         -2   -1    0    0    0  501 -0.00000000000E+00 -0.00000000000E+00 -0.20595284826E+03  0.20595284826E+03  0.00000000000E+00 0. -1.
         23    2    1    2    0    0 -0.80469343247E+02 -0.17326126332E+03 -0.17691899314E+02  0.21629113733E+03  0.99870276945E+02 0.  0.
        254    2    1    2    0    0  0.80469343247E+02  0.17326126332E+03  0.22314769053E+04  0.24093995652E+04  0.88838184648E+03 0.  0.
         23    2    4    4    0    0 -0.38802921699E+03  0.16559825557E+03  0.10479621810E+04  0.11333353079E+04  0.90745423135E+02 0.  0.
         23    2    4    4    0    0  0.46849856024E+03  0.76630077515E+01  0.11835147243E+04  0.12760642573E+04  0.89906970977E+02 0.  0.
          4    1    3    3  502    0 -0.95245307766E+01 -0.24843051900E+02 -0.42286156768E+02  0.49960113775E+02  0.00000000000E+00 0. -1.
         -4    1    3    3    0  502 -0.70944812470E+02 -0.14841821142E+03  0.24594257454E+02  0.16633102356E+03  0.00000000000E+00 0.  1.
         13    1    5    5    0    0 -0.22032372513E+02 -0.47697208832E+01  0.25370166319E+02  0.33938488695E+02  0.00000000000E+00 0.  1.
        -13    1    5    5    0    0 -0.36599684448E+03  0.17036797645E+03  0.10225920147E+04  0.10993968192E+04  0.00000000000E+00 0. -1.
          4    1    6    6  503    0  0.30519009405E+02  0.46312899605E+01  0.15713632614E+03  0.16013957591E+03  0.00000000000E+00 0.  1.
         -4    1    6    6    0  503  0.43797955083E+03  0.30317177910E+01  0.10263783982E+04  0.11159246814E+04  0.00000000000E+00 0. -1.
<mgrwt>
<rscale>  0 0.14118809E+04</rscale>
<asrwt>0</asrwt>
<pdfrwt beam="1">  1        2 0.37226734E+00 0.14118809E+04</pdfrwt>
<pdfrwt beam="2">  1       -2 0.31685055E-01 0.14118809E+04</pdfrwt>
<totfact> 0.34961313E+01</totfact>
</mgrwt>
</event>
<event>
12    3  0.4192740E-008  0.1630268E+04  0.7818608E-02  0.8802166E-01
         -2   -1    0    0    0  501 -0.00000000000E+00  0.00000000000E+00  0.47868857594E+03  0.47868857594E+03  0.00000000000E+00 0. -1.
          2   -1    0    0  501    0  0.00000000000E+00 -0.00000000000E+00 -0.13880498556E+04  0.13880498556E+04  0.00000000000E+00 0.  1.
         23    2    1    2    0    0  0.34496736516E+03 -0.16302152443E+03 -0.78554489003E+03  0.87800951279E+03  0.90782321202E+02 0.  0.
        254    2    1    2    0    0 -0.34496736516E+03  0.16302152443E+03 -0.12381638965E+03  0.98872891877E+03  0.90370120948E+03 0.  0.
         23    2    4    4    0    0 -0.37392471260E+03  0.39746643844E+03  0.18994981984E+03  0.58501614100E+03  0.91453216470E+02 0.  0.
         23    2    4    4    0    0  0.28957347443E+02 -0.23444491401E+03 -0.31376620948E+03  0.40371277777E+03  0.93444245645E+02 0.  0.
          1    1    3    3  502    0  0.14880377218E+03 -0.22887380219E+02 -0.32525004729E+03  0.35840478241E+03  0.00000000000E+00 0. -1.
         -1    1    3    3    0  502  0.19616359297E+03 -0.14013414421E+03 -0.46029484274E+03  0.51960473038E+03  0.00000000000E+00 0.  1.
         13    1    5    5    0    0 -0.20633001829E+03  0.26491183934E+03  0.14941793225E+03  0.36752697526E+03  0.00000000000E+00 0. -1.
        -13    1    5    5    0    0 -0.16759469431E+03  0.13255459910E+03  0.40531887590E+02  0.21748916574E+03  0.00000000000E+00 0.  1.
          3    1    6    6  503    0 -0.29922743208E+02 -0.90463431704E+02 -0.15114494998E+03  0.17867232282E+03  0.00000000000E+00 0. -1.
         -3    1    6    6    0  503  0.58880090651E+02 -0.14398148230E+03 -0.16262125950E+03  0.22504045495E+03  0.00000000000E+00 0.  1.
<mgrwt>
<rscale>  0 0.16302682E+04</rscale>
<asrwt>0</asrwt>
<pdfrwt beam="1">  1        2 0.21354613E+00 0.16302682E+04</pdfrwt>
<pdfrwt beam="2">  1       -2 0.73644397E-01 0.16302682E+04</pdfrwt>
<totfact> 0.23384202E+01</totfact>
</mgrwt>
</event>
<event>
12    3  0.4192740E-008  0.1548492E+04  0.7818608E-02  0.8852832E-01
         -1   -1    0    0    0  501 -0.00000000000E+00  0.00000000000E+00  0.33247669900E+03  0.33247669900E+03  0.00000000000E+00 0.  1.
          1   -1    0    0  501    0  0.00000000000E+00 -0.00000000000E+00 -0.18030042467E+04  0.18030042467E+04  0.00000000000E+00 0. -1.
         23    2    1    2    0    0  0.35334210405E+03 -0.14778683660E+03 -0.57742651555E+02  0.39725519703E+03  0.88237668787E+02 0.  0.
        254    2    1    2    0    0 -0.35334210405E+03  0.14778683660E+03 -0.14127848961E+04  0.17382257486E+04  0.93743053019E+03 0.  0.
         23    2    4    4    0    0  0.19159286807E+03 -0.24217524901E+03 -0.59964211848E+03  0.68033492378E+03  0.89040776822E+02 0.  0.
         23    2    4    4    0    0 -0.54493497212E+03  0.38996208561E+03 -0.81314277763E+03  0.10578908248E+04  0.94378326031E+02 0.  0.
          1    1    3    3  502    0  0.29984462939E+03 -0.13283168039E+03 -0.79748084153E+02  0.33750676144E+03  0.00000000000E+00 0.  1.
         -1    1    3    3    0  502  0.53497474659E+02 -0.14955156215E+02  0.22005432598E+02  0.59748435595E+02  0.00000000000E+00 0. -1.
         13    1    5    5    0    0  0.96463802268E+02 -0.17548379936E+03 -0.31962766644E+03  0.37717591936E+03  0.00000000000E+00 0.  1.
        -13    1    5    5    0    0  0.95129065799E+02 -0.66691449648E+02 -0.28001445204E+03  0.30315900443E+03  0.00000000000E+00 0. -1.
          1    1    6    6  503    0 -0.57399947190E+02  0.58001773753E+02 -0.60054491351E+02  0.10131881181E+03  0.00000000000E+00 0. -1.
         -1    1    6    6    0  503 -0.48753502493E+03  0.33196031186E+03 -0.75308828628E+03  0.95657201303E+03  0.00000000000E+00 0.  1.
<mgrwt>
<rscale>  0 0.15484920E+04</rscale>
<asrwt>0</asrwt>
<pdfrwt beam="1">  1        1 0.27738527E+00 0.15484920E+04</pdfrwt>
<pdfrwt beam="2">  1       -1 0.51150262E-01 0.15484920E+04</pdfrwt>
<totfact> 0.15018144E+01</totfact>
</mgrwt>
</event>
<event>
12    3  0.4192740E-008  0.1203786E+04  0.7818608E-02  0.9109549E-01
         -1   -1    0    0    0  501 -0.00000000000E+00  0.00000000000E+00  0.18327151159E+03  0.18327151159E+03  0.00000000000E+00 0.  1.
          1   -1    0    0  501    0  0.00000000000E+00 -0.00000000000E+00 -0.19767117346E+04  0.19767117346E+04  0.00000000000E+00 0. -1.
         23    2    1    2    0    0  0.20078768213E+03  0.85083098311E+02 -0.19644269228E+03  0.30627757436E+03  0.87529391013E+02 0.  0.
        254    2    1    2    0    0 -0.20078768213E+03 -0.85083098311E+02 -0.15969975307E+04  0.18537056718E+04  0.91557019266E+03 0.  0.
         23    2    4    4    0    0  0.34397409728E+03  0.77805584146E+01 -0.42197188099E+03  0.55192515360E+03  0.90456564976E+02 0.  0.
         23    2    4    4    0    0 -0.54476177941E+03 -0.92863656726E+02 -0.11750256497E+04  0.13017805182E+04  0.92510459062E+02 0.  0.
          2    1    3    3  502    0  0.63768983986E+02  0.86830192761E+01 -0.10924755268E+03  0.12679473928E+03  0.00000000000E+00 0. -1.
         -2    1    3    3    0  502  0.13701869815E+03  0.76400079035E+02 -0.87195139599E+02  0.17948283508E+03  0.00000000000E+00 0.  1.
         13    1    5    5    0    0  0.16323290556E+03  0.29202613765E+02 -0.25946125898E+03  0.30792518413E+03  0.00000000000E+00 0. -1.
        -13    1    5    5    0    0  0.18074119171E+03 -0.21422055350E+02 -0.16251062201E+03  0.24399996948E+03  0.00000000000E+00 0.  1.
          4    1    6    6  503    0 -0.36745780212E+03 -0.99358521335E+02 -0.74565966887E+03  0.83720110719E+03  0.00000000000E+00 0. -1.
         -4    1    6    6    0  503 -0.17730397729E+03  0.64948646092E+01 -0.42936598086E+03  0.46457941103E+03  0.00000000000E+00 0.  1.
<mgrwt>
<rscale>  0 0.12037856E+04</rscale>
<asrwt>0</asrwt>
<pdfrwt beam="1">  1        1 0.30410950E+00 0.12037856E+04</pdfrwt>
<pdfrwt beam="2">  1       -1 0.28195617E-01 0.12037856E+04</pdfrwt>
<totfact> 0.34841979E+01</totfact>
</mgrwt>
</event>
<event>
12    3  0.4192740E-008  0.2632476E+04  0.7818608E-02  0.8357253E-01
          1   -1    0    0  501    0  0.00000000000E+00  0.00000000000E+00  0.80497143452E+03  0.80497143452E+03  0.00000000000E+00 0. -1.
         -1   -1    0    0    0  501 -0.00000000000E+00 -0.00000000000E+00 -0.21522281734E+04  0.21522281734E+04  0.00000000000E+00 0.  1.
         23    2    1    2    0    0 -0.54742412155E+03  0.23858534300E+03  0.52014959110E+03  0.79701651303E+03  0.89908788105E+02 0.  0.
        254    2    1    2    0    0  0.54742412155E+03 -0.23858534300E+03 -0.18674063300E+04  0.21601830949E+04  0.90696662973E+03 0.  0.
         23    2    4    4    0    0  0.64650802625E+03  0.46932912612E+02 -0.16536129294E+04  0.17784407677E+04  0.90777297501E+02 0.  0.
         23    2    4    4    0    0 -0.99083904699E+02 -0.28551825561E+03 -0.21379340055E+03  0.38174232713E+03  0.93173449813E+02 0.  0.
          4    1    3    3  502    0 -0.55000555504E+03  0.23947636891E+03  0.52056249627E+03  0.79425459039E+03  0.00000000000E+00 0. -1.
         -4    1    3    3    0  502  0.25814334881E+01 -0.89102590624E+00 -0.41290516512E+00  0.27619226446E+01  0.00000000000E+00 0.  1.
         13    1    5    5    0    0  0.57935428763E+03  0.35327509794E+02 -0.15425244388E+04  0.16481143977E+04  0.00000000000E+00 0. -1.
        -13    1    5    5    0    0  0.67153738618E+02  0.11605402818E+02 -0.11108849057E+03  0.13032637002E+03  0.00000000000E+00 0.  1.
          3    1    6    6  503    0 -0.64134633834E+02 -0.96262563159E+02 -0.39891099744E+02  0.12235616928E+03  0.00000000000E+00 0. -1.
         -3    1    6    6    0  503 -0.34949270865E+02 -0.18925569245E+03 -0.17390230080E+03  0.25938615785E+03  0.00000000000E+00 0.  1.
<mgrwt>
<rscale>  0 0.26324758E+04</rscale>
<asrwt>0</asrwt>
<pdfrwt beam="1">  1        1 0.12384176E+00 0.26324758E+04</pdfrwt>
<pdfrwt beam="2">  1       -1 0.33111202E+00 0.26324758E+04</pdfrwt>
<totfact> 0.39799952E-01</totfact>
</mgrwt>
</event>
<event>
12    3  0.4192740E-008  0.1387696E+04  0.7818608E-02  0.8962773E-01
          2   -1    0    0  501    0  0.00000000000E+00  0.00000000000E+00  0.26078675026E+04  0.26078675026E+04  0.00000000000E+00 0. -1.
         -2   -1    0    0    0  501 -0.00000000000E+00 -0.00000000000E+00 -0.18460493300E+03  0.18460493300E+03  0.00000000000E+00 0.  1.
         23    2    1    2    0    0 -0.88397205394E+02  0.32811557556E+03  0.11857823516E+04  0.12370736413E+04  0.93795052070E+02 0.  0.
        254    2    1    2    0    0  0.88397205394E+02 -0.32811557556E+03  0.12374802180E+04  0.15553987943E+04  0.87888237127E+03 0.  0.
         23    2    4    4    0    0 -0.34707695314E+03 -0.13612251023E+03  0.85691819479E+03  0.93922308856E+03  0.94018446747E+02 0.  0.
         23    2    4    4    0    0  0.43547415853E+03 -0.19199306534E+03  0.38056202320E+03  0.61617570574E+03  0.91356263894E+02 0.  0.
          2    1    3    3  502    0  0.13962771800E+02  0.11591123297E+03  0.41119965880E+03  0.42745237433E+03  0.00000000000E+00 0. -1.
         -2    1    3    3    0  502 -0.10235997719E+03  0.21220434260E+03  0.77458269277E+03  0.80962126695E+03  0.00000000000E+00 0.  1.
         13    1    5    5    0    0 -0.82831346847E+02 -0.74284583177E+02  0.29261587929E+03  0.31305476219E+03  0.00000000000E+00 0. -1.
        -13    1    5    5    0    0 -0.26424560629E+03 -0.61837927049E+02  0.56430231550E+03  0.62616832637E+03  0.00000000000E+00 0.  1.
          2    1    6    6  503    0  0.43981462519E+03 -0.19264973348E+03  0.37613612419E+03  0.60994197123E+03  0.00000000000E+00 0.  1.
         -2    1    6    6    0  503 -0.43404666633E+01  0.65666813824E+00  0.44258990132E+01  0.62337345127E+01  0.00000000000E+00 0. -1.
<mgrwt>
<rscale>  0 0.13876962E+04</rscale>
<asrwt>0</asrwt>
<pdfrwt beam="1">  1        2 0.40121036E+00 0.13876962E+04</pdfrwt>
<pdfrwt beam="2">  1       -2 0.28400761E-01 0.13876962E+04</pdfrwt>
<totfact> 0.33465377E+01</totfact>
</mgrwt>
</event>
<event>
12    3  0.4192740E-008  0.1798241E+04  0.7818608E-02  0.8707235E-01
          2   -1    0    0  501    0  0.00000000000E+00  0.00000000000E+00  0.18757005229E+04  0.18757005229E+04  0.00000000000E+00 0. -1.
         -2   -1    0    0    0  501 -0.00000000000E+00 -0.00000000000E+00 -0.43099512456E+03  0.43099512456E+03  0.00000000000E+00 0.  1.
         23    2    1    2    0    0 -0.77334603142E+02  0.53559021414E+03  0.32830713630E+02  0.54958476082E+03  0.90155616793E+02 0.  0.
        254    2    1    2    0    0  0.77334603142E+02 -0.53559021414E+03  0.14118746847E+04  0.17571108867E+04  0.89510391817E+03 0.  0.
         23    2    4    4    0    0 -0.83265497830E+02  0.12047102986E+03  0.86772634567E+03  0.88489103133E+03  0.92933923762E+02 0.  0.
         23    2    4    4    0    0  0.16060010097E+03 -0.65606124400E+03  0.54414833906E+03  0.87221985534E+03  0.91985394696E+02 0.  0.
          4    1    3    3  502    0 -0.72253522511E+02  0.29067045000E+03  0.51461466203E+02  0.30390486097E+03  0.00000000000E+00 0. -1.
         -4    1    3    3    0  502 -0.50810806312E+01  0.24491976414E+03 -0.18630752573E+02  0.24567989984E+03  0.00000000000E+00 0.  1.
         13    1    5    5    0    0 -0.70439686150E+02  0.12856552013E+03  0.63633256529E+03  0.65300074732E+03  0.00000000000E+00 0.  1.
        -13    1    5    5    0    0 -0.12825811680E+02 -0.80944902686E+01  0.23139378038E+03  0.23189028401E+03  0.00000000000E+00 0. -1.
          2    1    6    6  503    0  0.83172670593E+02 -0.40145848190E+03  0.38339997464E+03  0.56132178506E+03  0.00000000000E+00 0.  1.
         -2    1    6    6    0  503  0.77427430379E+02 -0.25460276209E+03  0.16074836442E+03  0.31089807028E+03  0.00000000000E+00 0. -1.
<mgrwt>
<rscale>  0 0.17982411E+04</rscale>
<asrwt>0</asrwt>
<pdfrwt beam="1">  1        2 0.28856931E+00 0.17982411E+04</pdfrwt>
<pdfrwt beam="2">  1       -2 0.66306943E-01 0.17982411E+04</pdfrwt>
<totfact> 0.15466460E+01</totfact>
</mgrwt>
</event>
<event>
12    3  0.4192740E-008  0.2018360E+04  0.7818608E-02  0.8598085E-01
          1   -1    0    0  501    0  0.00000000000E+00  0.00000000000E+00  0.77497042999E+03  0.77497042999E+03  0.00000000000E+00 0. -1.
         -1   -1    0    0    0  501 -0.00000000000E+00 -0.00000000000E+00 -0.13141718132E+04  0.13141718132E+04  0.00000000000E+00 0.  1.
         23    2    1    2    0    0  0.46816221349E+03  0.11434699487E+03 -0.87660301552E+03  0.10045636898E+04  0.92001449042E+02 0.  0.
        254    2    1    2    0    0 -0.46816221349E+03 -0.11434699487E+03  0.33740163227E+03  0.10845785535E+04  0.91116391708E+03 0.  0.
         23    2    4    4    0    0 -0.57801340465E+03 -0.30883556555E+03 -0.10102010697E+02  0.66144431954E+03  0.89037265969E+02 0.  0.
         23    2    4    4    0    0  0.10985119116E+03  0.19448857068E+03  0.34750364297E+03  0.42313423392E+03  0.91600817201E+02 0.  0.
          4    1    3    3  502    0  0.83000338245E+02  0.57293390293E+02 -0.19735335079E+03  0.22163017346E+03  0.00000000000E+00 0. -1.
         -4    1    3    3    0  502  0.38516187524E+03  0.57053604572E+02 -0.67924966474E+03  0.78293351632E+03  0.00000000000E+00 0.  1.
         13    1    5    5    0    0 -0.17045561426E+02 -0.22222317116E+02  0.13426750101E+02  0.31058978744E+02  0.00000000000E+00 0. -1.
        -13    1    5    5    0    0 -0.56096784322E+03 -0.28661324843E+03 -0.23528760797E+02  0.63038534080E+03  0.00000000000E+00 0.  1.
          4    1    6    6  503    0  0.99358022000E+02  0.10437255192E+03  0.25900825987E+03  0.29639656680E+03  0.00000000000E+00 0.  1.
         -4    1    6    6    0  503  0.10493169161E+02  0.90116018763E+02  0.88495383095E+02  0.12673766712E+03  0.00000000000E+00 0. -1.
<mgrwt>
<rscale>  0 0.20183600E+04</rscale>
<asrwt>0</asrwt>
<pdfrwt beam="1">  1        1 0.11922622E+00 0.20183600E+04</pdfrwt>
<pdfrwt beam="2">  1       -1 0.20218028E+00 0.20183600E+04</pdfrwt>
<totfact> 0.31318924E+00</totfact>
</mgrwt>
</event>
<event>
12    3  0.4192740E-008  0.1398239E+04  0.7818608E-02  0.8955094E-01
         -2   -1    0    0    0  501 -0.00000000000E+00  0.00000000000E+00  0.88898580297E+03  0.88898580297E+03  0.00000000000E+00 0.  1.
          2   -1    0    0  501    0  0.00000000000E+00 -0.00000000000E+00 -0.54980410422E+03  0.54980410422E+03  0.00000000000E+00 0. -1.
         23    2    1    2    0    0  0.20365884422E+03 -0.24987588406E+03 -0.12136041366E+03  0.35735708671E+03  0.95188524273E+02 0.  0.
        254    2    1    2    0    0 -0.20365884422E+03  0.24987588406E+03  0.46054211241E+03  0.10814328205E+04  0.92384145050E+03 0.  0.
         23    2    4    4    0    0 -0.31620815596E+03  0.54589960520E+03  0.38169494093E+03  0.74269039975E+03  0.88904584228E+02 0.  0.
         23    2    4    4    0    0  0.11254931174E+03 -0.29602372113E+03  0.78847171476E+02  0.33874242074E+03  0.90731252128E+02 0.  0.
          2    1    3    3  502    0  0.18552097898E+03 -0.25251624505E+03 -0.12711927320E+03  0.33814463958E+03  0.00000000000E+00 0. -1.
         -2    1    3    3    0  502  0.18137865237E+02  0.26403609903E+01  0.57588595396E+01  0.19212447129E+02  0.00000000000E+00 0.  1.
         13    1    5    5    0    0 -0.20444838744E+03  0.42944367583E+03  0.28965752462E+03  0.55688642954E+03  0.00000000000E+00 0. -1.
        -13    1    5    5    0    0 -0.11175976851E+03  0.11645592936E+03  0.92037416310E+02  0.18580397020E+03  0.00000000000E+00 0.  1.
          1    1    6    6  503    0  0.49725765982E+02 -0.23712797631E+03  0.46217370715E+02  0.24665436203E+03  0.00000000000E+00 0. -1.
         -1    1    6    6    0  503  0.62823545755E+02 -0.58895744821E+02  0.32629800761E+02  0.92088058711E+02  0.00000000000E+00 0.  1.
<mgrwt>
<rscale>  0 0.13982390E+04</rscale>
<asrwt>0</asrwt>
<pdfrwt beam="1">  1        2 0.84585247E-01 0.13982390E+04</pdfrwt>
<pdfrwt beam="2">  1       -2 0.13676705E+00 0.13982390E+04</pdfrwt>
<totfact> 0.20444871E+01</totfact>
</mgrwt>
</event>
<event>
12    3  0.4192740E-008  0.2108291E+04  0.7818608E-02  0.8557600E-01
          1   -1    0    0  501    0  0.00000000000E+00  0.00000000000E+00  0.11618980794E+04  0.11618980794E+04  0.00000000000E+00 0. -1.
         -1   -1    0    0    0  501 -0.00000000000E+00 -0.00000000000E+00 -0.95638537253E+03  0.95638537253E+03  0.00000000000E+00 0.  1.
         23    2    1    2    0    0  0.29467497843E+03  0.78166698296E+03 -0.96646749779E+02  0.84732599472E+03  0.10384667511E+03 0.  0.
        254    2    1    2    0    0 -0.29467497843E+03 -0.78166698296E+03  0.30215945664E+03  0.12709574572E+04  0.90895319219E+03 0.  0.
         23    2    4    4    0    0 -0.17580875165E+03  0.17559396402E+03  0.72714443238E+02  0.27515950877E+03  0.93184803767E+02 0.  0.
         23    2    4    4    0    0 -0.11886622678E+03 -0.95726094698E+03  0.22944501340E+03  0.99579794842E+03  0.92145751023E+02 0.  0.
          2    1    3    3  502    0  0.20658880047E+03  0.64825641627E+03 -0.57951715603E+02  0.68284237937E+03  0.00000000000E+00 0. -1.
         -2    1    3    3    0  502  0.88086177957E+02  0.13341056668E+03 -0.38695034176E+02  0.16448361535E+03  0.00000000000E+00 0.  1.
         13    1    5    5    0    0 -0.50162761481E+02  0.11523234514E+02  0.41593339692E+02  0.66174719341E+02  0.00000000000E+00 0.  1.
        -13    1    5    5    0    0 -0.12564599017E+03  0.16407072951E+03  0.31121103545E+02  0.20898478943E+03  0.00000000000E+00 0. -1.
          2    1    6    6  503    0 -0.11412748833E+03 -0.89582663343E+03  0.19061021177E+03  0.92296408033E+03  0.00000000000E+00 0. -1.
         -2    1    6    6    0  503 -0.47387384445E+01 -0.61434313549E+02  0.38834801630E+02  0.72833868090E+02  0.00000000000E+00 0.  1.
<mgrwt>
<rscale>  0 0.21082906E+04</rscale>
<asrwt>0</asrwt>
<pdfrwt beam="1">  1        1 0.17875355E+00 0.21082906E+04</pdfrwt>
<pdfrwt beam="2">  1       -1 0.14713621E+00 0.21082906E+04</pdfrwt>
<totfact> 0.38496053E+00</totfact>
</mgrwt>
</event>
<event>
12    3  0.4192740E-008  0.1942165E+04  0.7818608E-02  0.8634148E-01
          1   -1    0    0  501    0  0.00000000000E+00  0.00000000000E+00  0.15620879183E+04  0.15620879183E+04  0.00000000000E+00 0. -1.
         -1   -1    0    0    0  501 -0.00000000000E+00 -0.00000000000E+00 -0.60368029330E+03  0.60368029330E+03  0.00000000000E+00 0.  1.
         23    2    1    2    0    0  0.61839064727E+03 -0.43518670836E+03  0.48581605748E+03  0.90307922192E+03  0.87979404339E+02 0.  0.
        254    2    1    2    0    0 -0.61839064727E+03  0.43518670836E+03  0.47259156750E+03  0.12626889897E+04  0.89400572211E+03 0.  0.
         23    2    4    4    0    0 -0.10984987510E+03  0.37948762972E+03  0.60285409509E+03  0.72701107923E+03  0.95048372877E+02 0.  0.
         23    2    4    4    0    0 -0.50854077217E+03  0.55699078645E+02 -0.13026252759E+03  0.53567791043E+03  0.90919708030E+02 0.  0.
          4    1    3    3  502    0  0.50265957505E+02 -0.43291211544E+02  0.73970266920E+02  0.99359930903E+02  0.00000000000E+00 0. -1.
         -4    1    3    3    0  502  0.56812468977E+03 -0.39189549682E+03  0.41184579056E+03  0.80371929102E+03  0.00000000000E+00 0.  1.
         13    1    5    5    0    0 -0.37617378434E+02  0.62515921788E+02  0.60944472428E+02  0.95065957928E+02  0.00000000000E+00 0. -1.
        -13    1    5    5    0    0 -0.72232496667E+02  0.31697170793E+03  0.54190962266E+03  0.63194512130E+03  0.00000000000E+00 0.  1.
          3    1    6    6  503    0 -0.42996339564E+02  0.31098635070E+02 -0.19257228391E+02  0.56450431038E+02  0.00000000000E+00 0. -1.
         -3    1    6    6    0  503 -0.46554443261E+03  0.24600443575E+02 -0.11100529920E+03  0.47922747940E+03  0.00000000000E+00 0.  1.
<mgrwt>
<rscale>  0 0.19421655E+04</rscale>
<asrwt>0</asrwt>
<pdfrwt beam="1">  1        1 0.24032122E+00 0.19421655E+04</pdfrwt>
<pdfrwt beam="2">  1       -1 0.92873892E-01 0.19421655E+04</pdfrwt>
<totfact> 0.62226132E+00</totfact>
</mgrwt>
</event>
<event>
12    3  0.4192740E-008  0.1961958E+04  0.7818608E-02  0.8624616E-01
         -1   -1    0    0    0  501 -0.00000000000E+00  0.00000000000E+00  0.61378479430E+03  0.61378479430E+03  0.00000000000E+00 0.  1.
          1   -1    0    0  501    0  0.00000000000E+00 -0.00000000000E+00 -0.15678450335E+04  0.15678450335E+04  0.00000000000E+00 0. -1.
         23    2    1    2    0    0 -0.69415065626E+03  0.32710681162E+03 -0.34127115851E+03  0.84544022859E+03  0.97258298805E+02 0.  0.
        254    2    1    2    0    0  0.69415065626E+03 -0.32710681162E+03 -0.61278908070E+03  0.13361895992E+04  0.90611709388E+03 0.  0.
         23    2    4    4    0    0  0.36628723281E+03  0.15940380698E+03  0.85619486776E+02  0.41852307979E+03  0.90856817035E+02 0.  0.
         23    2    4    4    0    0  0.32786342345E+03 -0.48651061861E+03 -0.69840856747E+03  0.91766651942E+03  0.10074873344E+03 0.  0.
          1    1    3    3  502    0 -0.47560582119E+03  0.21484431460E+03 -0.27988767983E+03  0.59219598950E+03  0.00000000000E+00 0. -1.
         -1    1    3    3    0  502 -0.21854483507E+03  0.11226249703E+03 -0.61383478685E+02  0.25324423909E+03  0.00000000000E+00 0.  1.
         13    1    5    5    0    0  0.35404441108E+03  0.13441893287E+03  0.92553727428E+02  0.38984880017E+03  0.00000000000E+00 0. -1.
        -13    1    5    5    0    0  0.12242821725E+02  0.24984874115E+02 -0.69342406519E+01  0.28674279620E+02  0.00000000000E+00 0.  1.
          1    1    6    6  503    0  0.21217958891E+03 -0.38838739448E+03 -0.49632971892E+03  0.66498732020E+03  0.00000000000E+00 0. -1.
         -1    1    6    6    0  503  0.11568383454E+03 -0.98123224132E+02 -0.20207884855E+03  0.25267919922E+03  0.00000000000E+00 0.  1.
<mgrwt>
<rscale>  0 0.19619576E+04</rscale>
<asrwt>0</asrwt>
<pdfrwt beam="1">  1        1 0.24120693E+00 0.19619576E+04</pdfrwt>
<pdfrwt beam="2">  1       -1 0.94428431E-01 0.19619576E+04</pdfrwt>
<totfact> 0.59310112E+00</totfact>
</mgrwt>
</event>
<event>
12    3  0.4192740E-008  0.1770777E+04  0.7818608E-02  0.8721996E-01
         -2   -1    0    0    0  501 -0.00000000000E+00  0.00000000000E+00  0.33330111913E+03  0.33330111913E+03  0.00000000000E+00 0.  1.
          2   -1    0    0  501    0  0.00000000000E+00 -0.00000000000E+00 -0.23519666494E+04  0.23519666494E+04  0.00000000000E+00 0. -1.
         23    2    1    2    0    0 -0.42303584762E+03 -0.46002549112E+03 -0.47610858066E+03  0.79105051167E+03  0.92188668457E+02 0.  0.
        254    2    1    2    0    0  0.42303584762E+03  0.46002549112E+03 -0.15425569496E+04  0.18942172568E+04  0.90443036906E+03 0.  0.
         23    2    4    4    0    0  0.25425301869E+02 -0.22227754823E+03 -0.13274693386E+03  0.27568981924E+03  0.91265401784E+02 0.  0.
         23    2    4    4    0    0  0.39761054575E+03  0.68230303935E+03 -0.14098100157E+04  0.16185274376E+04  0.91843356550E+02 0.  0.
          4    1    3    3  502    0 -0.13868794529E+03 -0.19333388326E+03 -0.13829285812E+03  0.27520401740E+03  0.00000000000E+00 0. -1.
         -4    1    3    3    0  502 -0.28434790234E+03 -0.26669160786E+03 -0.33781572254E+03  0.51584649428E+03  0.00000000000E+00 0.  1.
         13    1    5    5    0    0 -0.12031388423E+02 -0.76836656905E+01  0.79746493390E+01  0.16352004706E+02  0.00000000000E+00 0. -1.
        -13    1    5    5    0    0  0.37456690292E+02 -0.21459388254E+03 -0.14072158319E+03  0.25933781454E+03  0.00000000000E+00 0.  1.
          3    1    6    6  503    0  0.72263261156E+02  0.17663137853E+03 -0.28325941178E+03  0.34155016785E+03  0.00000000000E+00 0. -1.
         -3    1    6    6    0  503  0.32534728460E+03  0.50567166082E+03 -0.11265506039E+04  0.12769772697E+04  0.00000000000E+00 0.  1.
<mgrwt>
<rscale>  0 0.17707774E+04</rscale>
<asrwt>0</asrwt>
<pdfrwt beam="1">  1        2 0.36184102E+00 0.17707774E+04</pdfrwt>
<pdfrwt beam="2">  1       -2 0.51277096E-01 0.17707774E+04</pdfrwt>
<totfact> 0.14413128E+01</totfact>
</mgrwt>
</event>
<event>
12    3  0.4192740E-008  0.2136719E+04  0.7818608E-02  0.8545239E-01
          1   -1    0    0  501    0  0.00000000000E+00  0.00000000000E+00  0.91057967421E+03  0.91057967421E+03  0.00000000000E+00 0. -1.
         -1   -1    0    0    0  501 -0.00000000000E+00 -0.00000000000E+00 -0.12534784650E+04  0.12534784650E+04  0.00000000000E+00 0.  1.
         23    2    1    2    0    0  0.70216743429E+03 -0.17123170267E+03 -0.64767692658E+03  0.97509316639E+03  0.94667207237E+02 0.  0.
        254    2    1    2    0    0 -0.70216743429E+03  0.17123170267E+03  0.30477813578E+03  0.11889649728E+04  0.89352593293E+03 0.  0.
         23    2    4    4    0    0 -0.54041548963E+03  0.22266945275E+03 -0.21928185982E+03  0.63044713073E+03  0.88025359868E+02 0.  0.
         23    2    4    4    0    0 -0.16175194466E+03 -0.51437750086E+02  0.52405999560E+03  0.55851784211E+03  0.92161636421E+02 0.  0.
          4    1    3    3  502    0  0.10592169108E+03 -0.24889039938E+02 -0.14695271775E+03  0.18284958355E+03  0.00000000000E+00 0. -1.
         -4    1    3    3    0  502  0.59624574321E+03 -0.14634266273E+03 -0.50072420884E+03  0.79224358284E+03  0.00000000000E+00 0.  1.
         13    1    5    5    0    0 -0.32990796852E+03  0.91961316697E+02 -0.14348082069E+03  0.37132586413E+03  0.00000000000E+00 0. -1.
        -13    1    5    5    0    0 -0.21050752111E+03  0.13070813605E+03 -0.75801039134E+02  0.25912126661E+03  0.00000000000E+00 0.  1.
          4    1    6    6  503    0 -0.13367415462E+03 -0.63414939940E+02  0.49398319584E+03  0.51566426286E+03  0.00000000000E+00 0. -1.
         -4    1    6    6    0  503 -0.28077790039E+02  0.11977189854E+02  0.30076799764E+02  0.42853579247E+02  0.00000000000E+00 0.  1.
<mgrwt>
<rscale>  0 0.21367190E+04</rscale>
<asrwt>0</asrwt>
<pdfrwt beam="1">  1        1 0.14008918E+00 0.21367190E+04</pdfrwt>
<pdfrwt beam="2">  1       -1 0.19284284E+00 0.21367190E+04</pdfrwt>
<totfact> 0.27596934E+00</totfact>
</mgrwt>
</event>
<event>
12    3  0.4192740E-008  0.1889540E+04  0.7818608E-02  0.8660081E-01
          1   -1    0    0  501    0  0.00000000000E+00  0.00000000000E+00  0.14020225678E+04  0.14020225678E+04  0.00000000000E+00 0. -1.
         -1   -1    0    0    0  501 -0.00000000000E+00 -0.00000000000E+00 -0.63664485113E+03  0.63664485113E+03  0.00000000000E+00 0.  1.
         23    2    1    2    0    0 -0.65246712196E+03 -0.45152499676E+02  0.65347332913E+03  0.92869674564E+03  0.87739158913E+02 0.  0.
        254    2    1    2    0    0  0.65246712196E+03  0.45152499676E+02  0.11190438751E+03  0.11099706733E+04  0.88980908631E+03 0.  0.
         23    2    4    4    0    0  0.90266283310E+02 -0.19285029949E+03  0.37324266175E+03  0.43943805423E+03  0.91959116123E+02 0.  0.
         23    2    4    4    0    0  0.56220083865E+03  0.23800279916E+03 -0.26133827424E+03  0.67053261903E+03  0.92742569560E+02 0.  0.
          3    1    3    3  502    0 -0.44505325653E+03 -0.56584761662E+02  0.40077929446E+03  0.60157981953E+03  0.00000000000E+00 0. -1.
         -3    1    3    3    0  502 -0.20741386543E+03  0.11432261986E+02  0.25269403467E+03  0.32711692611E+03  0.00000000000E+00 0.  1.
         13    1    5    5    0    0  0.65806499915E+02 -0.39972280460E+02  0.13072775119E+03  0.15171691919E+03  0.00000000000E+00 0. -1.
        -13    1    5    5    0    0  0.24459783395E+02 -0.15287801903E+03  0.24251491056E+03  0.28772113504E+03  0.00000000000E+00 0.  1.
          3    1    6    6  503    0  0.13994909623E+03  0.18922980963E+02 -0.72205419722E+02  0.15861100650E+03  0.00000000000E+00 0. -1.
         -3    1    6    6    0  503  0.42225174242E+03  0.21907981820E+03 -0.18913285452E+03  0.51192161253E+03  0.00000000000E+00 0.  1.
<mgrwt>
<rscale>  0 0.18895401E+04</rscale>
<asrwt>0</asrwt>
<pdfrwt beam="1">  1        1 0.21569578E+00 0.18895401E+04</pdfrwt>
<pdfrwt beam="2">  1       -1 0.97945362E-01 0.18895401E+04</pdfrwt>
<totfact> 0.71663748E+00</totfact>
</mgrwt>
</event>
<event>
12    3  0.4192740E-008  0.2310099E+04  0.7818608E-02  0.8473950E-01
         -1   -1    0    0    0  501 -0.00000000000E+00  0.00000000000E+00  0.14595061096E+04  0.14595061096E+04  0.00000000000E+00 0.  1.
          1   -1    0    0  501    0  0.00000000000E+00 -0.00000000000E+00 -0.91410296741E+03  0.91410296741E+03  0.00000000000E+00 0. -1.
         23    2    1    2    0    0  0.56903591436E+03  0.41855022566E+03  0.92736804230E+03  0.11693269783E+04  0.91257509373E+02 0.  0.
        254    2    1    2    0    0 -0.56903591436E+03 -0.41855022566E+03 -0.38196490010E+03  0.12042820987E+04  0.89744750555E+03 0.  0.
         23    2    4    4    0    0 -0.69656941510E+03 -0.50100147167E+02 -0.38800854572E+03  0.80394907074E+03  0.89802572342E+02 0.  0.
         23    2    4    4    0    0  0.12753350074E+03 -0.36845007849E+03  0.60436456156E+01  0.40033302800E+03  0.90607690088E+02 0.  0.
          3    1    3    3  502    0  0.18471551199E+03  0.18083734543E+03  0.29741997333E+03  0.39405660305E+03  0.00000000000E+00 0. -1.
         -3    1    3    3    0  502  0.38432040237E+03  0.23771288023E+03  0.62994806898E+03  0.77527037523E+03  0.00000000000E+00 0.  1.
         13    1    5    5    0    0 -0.44277586203E+02 -0.23030757257E+02 -0.15315863347E+02  0.52206284008E+02  0.00000000000E+00 0. -1.
        -13    1    5    5    0    0 -0.65229182890E+03 -0.27069389910E+02 -0.37269268237E+03  0.75174278673E+03  0.00000000000E+00 0.  1.
          3    1    6    6  503    0 -0.12541300483E+02 -0.14610581656E+02 -0.39025516071E+01  0.19646455740E+02  0.00000000000E+00 0. -1.
         -3    1    6    6    0  503  0.14007480123E+03 -0.35383949684E+03  0.99461972227E+01  0.38068657226E+03  0.00000000000E+00 0.  1.
<mgrwt>
<rscale>  0 0.23100986E+04</rscale>
<asrwt>0</asrwt>
<pdfrwt beam="1">  1        1 0.14063123E+00 0.23100986E+04</pdfrwt>
<pdfrwt beam="2">  1       -1 0.22453940E+00 0.23100986E+04</pdfrwt>
<totfact> 0.16420978E+00</totfact>
</mgrwt>
</event>
<event>
12    3  0.4192740E-008  0.1654065E+04  0.7818608E-02  0.8788005E-01
          2   -1    0    0  501    0  0.00000000000E+00  0.00000000000E+00  0.11572152403E+04  0.11572152403E+04  0.00000000000E+00 0. -1.
         -2   -1    0    0    0  501 -0.00000000000E+00 -0.00000000000E+00 -0.59105922339E+03  0.59105922339E+03  0.00000000000E+00 0.  1.
         23    2    1    2    0    0  0.14618561916E+03  0.22399198108E+03 -0.33994898430E+03  0.44198589000E+03  0.90794119834E+02 0.  0.
        254    2    1    2    0    0 -0.14618561916E+03 -0.22399198108E+03  0.90610500121E+03  0.13062885737E+04  0.90212023682E+03 0.  0.
         23    2    4    4    0    0 -0.12329902214E+03 -0.11024804383E+03 -0.14905113864E+03  0.24074191349E+03  0.91559526823E+02 0.  0.
         23    2    4    4    0    0 -0.22886597021E+02 -0.11374393725E+03  0.10551561399E+04  0.10655466602E+04  0.92594416647E+02 0.  0.
          1    1    3    3  502    0  0.63088685007E+02  0.88498657680E+02 -0.71767988890E+02  0.13024146351E+03  0.00000000000E+00 0. -1.
         -1    1    3    3    0  502  0.83096934151E+02  0.13549332340E+03 -0.26818099541E+03  0.31174442650E+03  0.00000000000E+00 0.  1.
         13    1    5    5    0    0 -0.12650438352E+03 -0.12069348211E+03 -0.14914690877E+03  0.22981530860E+03  0.00000000000E+00 0. -1.
        -13    1    5    5    0    0  0.32053613889E+01  0.10445438277E+02  0.95770122188E-01  0.10926604887E+02  0.00000000000E+00 0.  1.
          2    1    6    6  503    0 -0.16274981757E+02 -0.12734904876E+03  0.82870419442E+03  0.83859006499E+03  0.00000000000E+00 0. -1.
         -2    1    6    6    0  503 -0.66116152643E+01  0.13605111508E+02  0.22645194543E+03  0.22695659520E+03  0.00000000000E+00 0.  1.
<mgrwt>
<rscale>  0 0.16540650E+04</rscale>
<asrwt>0</asrwt>
<pdfrwt beam="1">  1        2 0.17803311E+00 0.16540650E+04</pdfrwt>
<pdfrwt beam="2">  1       -2 0.90932188E-01 0.16540650E+04</pdfrwt>
<totfact> 0.19809636E+01</totfact>
</mgrwt>
</event>
<event>
12    3  0.4192740E-008  0.2111929E+04  0.7818608E-02  0.8556007E-01
          1   -1    0    0  501    0  0.00000000000E+00  0.00000000000E+00  0.45964995016E+04  0.45964995016E+04  0.00000000000E+00 0. -1.
         -1   -1    0    0    0  501 -0.00000000000E+00 -0.00000000000E+00 -0.24258910149E+03  0.24258910149E+03  0.00000000000E+00 0.  1.
         23    2    1    2    0    0  0.15188399543E+03 -0.78442521793E+03  0.25010815041E+04  0.26271357925E+04  0.89677820625E+02 0.  0.
        254    2    1    2    0    0 -0.15188399543E+03  0.78442521793E+03  0.18528288960E+04  0.22119528106E+04  0.90629390805E+03 0.  0.
         23    2    4    4    0    0  0.21246049845E+03  0.13896630900E+03  0.11659375279E+04  0.11973661743E+04  0.99117799157E+02 0.  0.
         23    2    4    4    0    0 -0.36434449387E+03  0.64545890893E+03  0.68689136814E+03  0.10145866362E+04  0.90565873791E+02 0.  0.
          4    1    3    3  502    0  0.89034554162E+02 -0.62670703218E+03  0.19105139985E+04  0.20126481546E+04  0.00000000000E+00 0. -1.
         -4    1    3    3    0  502  0.62849441264E+02 -0.15771818575E+03  0.59056750564E+03  0.61448763787E+03  0.00000000000E+00 0.  1.
         13    1    5    5    0    0  0.20595311138E+03  0.11354917566E+03  0.90301560589E+03  0.93313840552E+03  0.00000000000E+00 0.  1.
        -13    1    5    5    0    0  0.65073870630E+01  0.25417133340E+02  0.26292192199E+03  0.26422776882E+03  0.00000000000E+00 0. -1.
          1    1    6    6  503    0 -0.27287897462E+03  0.55082032283E+03  0.55317556841E+03  0.82696382769E+03  0.00000000000E+00 0. -1.
         -1    1    6    6    0  503 -0.91465519254E+02  0.94638586097E+02  0.13371579973E+03  0.18762280855E+03  0.00000000000E+00 0.  1.
<mgrwt>
<rscale>  0 0.21119287E+04</rscale>
<asrwt>0</asrwt>
<pdfrwt beam="1">  1        1 0.70715371E+00 0.21119287E+04</pdfrwt>
<pdfrwt beam="2">  1       -1 0.37321404E-01 0.21119287E+04</pdfrwt>
<totfact> 0.16414380E-01</totfact>
</mgrwt>
</event>
<event>
12    3  0.4192740E-008  0.1783114E+04  0.7818608E-02  0.8715331E-01
         -4   -1    0    0    0  501 -0.00000000000E+00  0.00000000000E+00  0.17985367130E+04  0.17985367130E+04  0.00000000000E+00 0.  1.
          4   -1    0    0  501    0  0.00000000000E+00 -0.00000000000E+00 -0.44195606357E+03  0.44195606357E+03  0.00000000000E+00 0. -1.
         23    2    1    2    0    0 -0.43001012577E+03  0.47526495522E+03  0.64353632610E+03  0.91193606396E+03  0.81871214825E+02 0.  0.
        254    2    1    2    0    0  0.43001012577E+03 -0.47526495522E+03  0.71304432334E+03  0.13285567126E+04  0.91969845367E+03 0.  0.
         23    2    4    4    0    0  0.53711087776E+03 -0.68128711814E+03  0.53391112821E+03  0.10225392271E+04  0.88798342861E+02 0.  0.
         23    2    4    4    0    0 -0.10710075199E+03  0.20602216292E+03  0.17913319513E+03  0.30601748557E+03  0.87420233253E+02 0.  0.
          3    1    3    3  502    0 -0.91822099246E+02  0.94304226232E+02  0.88745774714E+02  0.15874633074E+03  0.00000000000E+00 0. -1.
         -3    1    3    3    0  502 -0.33818802652E+03  0.38096072898E+03  0.55479055139E+03  0.75318973322E+03  0.00000000000E+00 0.  1.
         13    1    5    5    0    0  0.51719845997E+03 -0.63668263031E+03  0.52191002259E+03  0.97223921460E+03  0.00000000000E+00 0.  1.
        -13    1    5    5    0    0  0.19912417793E+02 -0.44604487830E+02  0.12001105619E+02  0.50300012455E+02  0.00000000000E+00 0. -1.
          3    1    6    6  503    0 -0.32779137295E+01  0.36173533831E+02 -0.26769417601E+01  0.36420259272E+02  0.00000000000E+00 0. -1.
         -3    1    6    6    0  503 -0.10382283827E+03  0.16984862909E+03  0.18181013689E+03  0.26959722630E+03  0.00000000000E+00 0.  1.
<mgrwt>
<rscale>  0 0.17831144E+04</rscale>
<asrwt>0</asrwt>
<pdfrwt beam="1">  1        4 0.67993242E-01 0.17831144E+04</pdfrwt>
<pdfrwt beam="2">  1       -4 0.27669795E+00 0.17831144E+04</pdfrwt>
<totfact> 0.16319175E-01</totfact>
</mgrwt>
</event>
<event>
12    3  0.4192740E-008  0.1323280E+04  0.7818608E-02  0.9011305E-01
         -1   -1    0    0    0  501 -0.00000000000E+00  0.00000000000E+00  0.73555444874E+03  0.73555444874E+03  0.00000000000E+00 0.  1.
          1   -1    0    0  501    0  0.00000000000E+00 -0.00000000000E+00 -0.59515304718E+03  0.59515304718E+03  0.00000000000E+00 0. -1.
         23    2    1    2    0    0  0.54126499969E+02  0.13361582587E+02 -0.31418512115E+03  0.32913621147E+03  0.80685472411E+02 0.  0.
        254    2    1    2    0    0 -0.54126499969E+02 -0.13361582587E+02  0.45458652272E+03  0.10015712845E+04  0.89072325743E+03 0.  0.
         23    2    4    4    0    0 -0.33528546997E+03  0.29916491983E+03  0.18649307434E+03  0.49499670838E+03  0.91247350059E+02 0.  0.
         23    2    4    4    0    0  0.28115897001E+03 -0.31252650242E+03  0.26809344838E+03  0.50657457608E+03  0.89557372350E+02 0.  0.
          1    1    3    3  502    0  0.74704276453E+02  0.44669086586E+01 -0.22243516376E+03  0.23468720517E+03  0.00000000000E+00 0. -1.
         -1    1    3    3    0  502 -0.20577776485E+02  0.88946739282E+01 -0.91749957391E+02  0.94449006298E+02  0.00000000000E+00 0.  1.
         13    1    5    5    0    0 -0.71372129611E+02  0.11958329080E+03  0.53599943579E+02  0.14922164145E+03  0.00000000000E+00 0. -1.
        -13    1    5    5    0    0 -0.26391334036E+03  0.17958162903E+03  0.13289313076E+03  0.34577506693E+03  0.00000000000E+00 0.  1.
          2    1    6    6  503    0  0.83956442339E+02 -0.52657535559E+02  0.32945261956E+02  0.10443605961E+03  0.00000000000E+00 0. -1.
         -2    1    6    6    0  503  0.19720252767E+03 -0.25986896686E+03  0.23514818642E+03  0.40213851647E+03  0.00000000000E+00 0.  1.
<mgrwt>
<rscale>  0 0.13232800E+04</rscale>
<asrwt>0</asrwt>
<pdfrwt beam="1">  1        1 0.91562007E-01 0.13232800E+04</pdfrwt>
<pdfrwt beam="2">  1       -1 0.11316222E+00 0.13232800E+04</pdfrwt>
<totfact> 0.24258357E+01</totfact>
</mgrwt>
</event>
<event>
12    3  0.4192740E-008  0.1192213E+04  0.7818608E-02  0.9119700E-01
          2   -1    0    0  501    0  0.00000000000E+00  0.00000000000E+00  0.92274452176E+03  0.92274452176E+03  0.00000000000E+00 0. -1.
         -2   -1    0    0    0  501 -0.00000000000E+00 -0.00000000000E+00 -0.38509345227E+03  0.38509345227E+03  0.00000000000E+00 0.  1.
         23    2    1    2    0    0  0.17503534494E+03 -0.48857374182E+02  0.27387669444E+03  0.34087554140E+03  0.90350849352E+02 0.  0.
        254    2    1    2    0    0 -0.17503534494E+03  0.48857374182E+02  0.26377437505E+03  0.96696243263E+03  0.91236780423E+03 0.  0.
         23    2    4    4    0    0 -0.30367773409E+03  0.22208953294E+03  0.50130594604E+03  0.63338364524E+03  0.91231922572E+02 0.  0.
         23    2    4    4    0    0  0.12864238915E+03 -0.17323215876E+03 -0.23753157099E+03  0.33357878739E+03  0.91078620225E+02 0.  0.
          2    1    3    3  502    0  0.34525995131E+01  0.87228987426E+01  0.59862692062E+02  0.60593327247E+02  0.00000000000E+00 0. -1.
         -2    1    3    3    0  502  0.17158274542E+03 -0.57580272925E+02  0.21401400238E+03  0.28028221415E+03  0.00000000000E+00 0.  1.
         13    1    5    5    0    0 -0.20036996239E+03  0.95565826952E+02  0.25837279006E+03  0.34064269808E+03  0.00000000000E+00 0.  1.
        -13    1    5    5    0    0 -0.10330777170E+03  0.12652370599E+03  0.24293315598E+03  0.29274094716E+03  0.00000000000E+00 0. -1.
          2    1    6    6  503    0 -0.64667534850E+01  0.29376393245E+01  0.15939717019E+01  0.72793798653E+01  0.00000000000E+00 0.  1.
         -2    1    6    6    0  503  0.13510914264E+03 -0.17616979808E+03 -0.23912554269E+03  0.32629940752E+03  0.00000000000E+00 0. -1.
<mgrwt>
<rscale>  0 0.11922129E+04</rscale>
<asrwt>0</asrwt>
<pdfrwt beam="1">  1        2 0.14196070E+00 0.11922129E+04</pdfrwt>
<pdfrwt beam="2">  1       -2 0.59245147E-01 0.11922129E+04</pdfrwt>
<totfact> 0.74350892E+01</totfact>
</mgrwt>
</event>
<event>
12    3  0.4192740E-008  0.3125957E+04  0.7818608E-02  0.8208650E-01
         -1   -1    0    0    0  501 -0.00000000000E+00  0.00000000000E+00  0.11395125381E+04  0.11395125381E+04  0.00000000000E+00 0.  1.
          1   -1    0    0  501    0  0.00000000000E+00 -0.00000000000E+00 -0.21438134361E+04  0.21438134361E+04  0.00000000000E+00 0. -1.
         23    2    1    2    0    0  0.21357254202E+03  0.12015001010E+04 -0.12464104917E+04  0.17467073049E+04  0.90728010136E+02 0.  0.
        254    2    1    2    0    0 -0.21357254202E+03 -0.12015001010E+04  0.24210959375E+03  0.15366186693E+04  0.90186703900E+03 0.  0.
         23    2    4    4    0    0 -0.19403229972E+03 -0.99327649715E+02 -0.23368410497E+03  0.33241086289E+03  0.91510685284E+02 0.  0.
         23    2    4    4    0    0 -0.19540242308E+02 -0.11021724513E+04  0.47579369872E+03  0.12042078064E+04  0.92578959973E+02 0.  0.
          1    1    3    3  502    0  0.14283735602E+03  0.94091914569E+03 -0.10111782597E+04  0.13886010305E+04  0.00000000000E+00 0. -1.
         -1    1    3    3    0  502  0.70735186002E+02  0.26058095532E+03 -0.23523223201E+03  0.35810627443E+03  0.00000000000E+00 0.  1.
         13    1    5    5    0    0 -0.19835313185E+03 -0.84885876394E+02 -0.23266045466E+03  0.31730185012E+03  0.00000000000E+00 0. -1.
        -13    1    5    5    0    0  0.43208321336E+01 -0.14441773321E+02 -0.10236503087E+01  0.15109012772E+02  0.00000000000E+00 0.  1.
          3    1    6    6  503    0 -0.18429165242E+02 -0.55896467847E+03  0.29086234637E+03  0.63038246362E+03  0.00000000000E+00 0. -1.
         -3    1    6    6    0  503 -0.11110770655E+01 -0.54320777282E+03  0.18493135235E+03  0.57382534279E+03  0.00000000000E+00 0.  1.
<mgrwt>
<rscale>  0 0.31259573E+04</rscale>
<asrwt>0</asrwt>
<pdfrwt beam="1">  1        1 0.32981745E+00 0.31259573E+04</pdfrwt>
<pdfrwt beam="2">  1       -1 0.17530962E+00 0.31259573E+04</pdfrwt>
<totfact> 0.45075671E-01</totfact>
</mgrwt>
</event>
<event>
12    3  0.4192740E-008  0.1428505E+04  0.7818608E-02  0.8933440E-01
         -1   -1    0    0    0  501 -0.00000000000E+00  0.00000000000E+00  0.74754761213E+03  0.74754761213E+03  0.00000000000E+00 0.  1.
          1   -1    0    0  501    0  0.00000000000E+00 -0.00000000000E+00 -0.68244046554E+03  0.68244046554E+03  0.00000000000E+00 0. -1.
         23    2    1    2    0    0  0.16542494863E+03  0.24348477297E+03 -0.24552844606E+03  0.39420986127E+03  0.92016023604E+02 0.  0.
        254    2    1    2    0    0 -0.16542494863E+03 -0.24348477297E+03  0.31063559265E+03  0.10357782164E+04  0.94323475012E+03 0.  0.
         23    2    4    4    0    0 -0.14359434090E+03 -0.59263167035E+03  0.26512052627E+03  0.67104458609E+03  0.90445075239E+02 0.  0.
         23    2    4    4    0    0 -0.21830607738E+02  0.34914689738E+03  0.45515066383E+02  0.36473363031E+03  0.92622181071E+02 0.  0.
          3    1    3    3  502    0  0.10609003515E+03  0.15977070233E+03 -0.10041339188E+03  0.21648238300E+03  0.00000000000E+00 0. -1.
         -3    1    3    3    0  502  0.59334913482E+02  0.83714070635E+02 -0.14511505419E+03  0.17772747827E+03  0.00000000000E+00 0.  1.
         13    1    5    5    0    0 -0.10742125705E+03 -0.48538660209E+03  0.17734982892E+03  0.52781856899E+03  0.00000000000E+00 0. -1.
        -13    1    5    5    0    0 -0.36173083852E+02 -0.10724506825E+03  0.87770697347E+02  0.14322601710E+03  0.00000000000E+00 0.  1.
          2    1    6    6  503    0 -0.19368106719E+02  0.19960633588E+03  0.71546658589E+02  0.21292425234E+03  0.00000000000E+00 0. -1.
         -2    1    6    6    0  503 -0.24625010195E+01  0.14954056150E+03 -0.26031592207E+02  0.15180937797E+03  0.00000000000E+00 0.  1.
<mgrwt>
<rscale>  0 0.14285051E+04</rscale>
<asrwt>0</asrwt>
<pdfrwt beam="1">  1        1 0.10499084E+00 0.14285051E+04</pdfrwt>
<pdfrwt beam="2">  1       -1 0.11500733E+00 0.14285051E+04</pdfrwt>
<totfact> 0.18912329E+01</totfact>
</mgrwt>
</event>
<event>
12    3  0.4192740E-008  0.1826571E+04  0.7818608E-02  0.8692296E-01
         -1   -1    0    0    0  501 -0.00000000000E+00  0.00000000000E+00  0.62329009999E+03  0.62329009999E+03  0.00000000000E+00 0.  1.
          1   -1    0    0  501    0  0.00000000000E+00 -0.00000000000E+00 -0.13382055158E+04  0.13382055158E+04  0.00000000000E+00 0. -1.
         23    2    1    2    0    0  0.58600952492E+03 -0.30114606706E+03 -0.59632088704E+02  0.66772762624E+03  0.90598453855E+02 0.  0.
        254    2    1    2    0    0 -0.58600952492E+03  0.30114606706E+03 -0.65528332710E+03  0.12937679895E+04  0.90019067702E+03 0.  0.
         23    2    4    4    0    0  0.91934857223E+02  0.78130797411E+02 -0.54574516530E+03  0.56622629778E+03  0.90653159753E+02 0.  0.
         23    2    4    4    0    0 -0.67794438214E+03  0.22301526965E+03 -0.10953816180E+03  0.72754169176E+03  0.89296744567E+02 0.  0.
          1    1    3    3  502    0  0.11610586186E+03 -0.61481065618E+02 -0.48720066575E+02  0.14012186651E+03  0.00000000000E+00 0. -1.
         -1    1    3    3    0  502  0.46990366306E+03 -0.23966500144E+03 -0.10912022129E+02  0.52760575973E+03  0.00000000000E+00 0.  1.
         13    1    5    5    0    0 -0.10754993792E+01  0.55076516129E+02 -0.19934054229E+03  0.20681206718E+03  0.00000000000E+00 0.  1.
        -13    1    5    5    0    0  0.93010356602E+02  0.23054281283E+02 -0.34640462301E+03  0.35941423060E+03  0.00000000000E+00 0. -1.
          3    1    6    6  503    0 -0.24476347781E+03  0.81747884457E+02 -0.83249747295E+02  0.27115013758E+03  0.00000000000E+00 0.  1.
         -3    1    6    6    0  503 -0.43318090433E+03  0.14126738519E+03 -0.26288414502E+02  0.45639155419E+03  0.00000000000E+00 0. -1.
<mgrwt>
<rscale>  0 0.18265708E+04</rscale>
<asrwt>0</asrwt>
<pdfrwt beam="1">  1        1 0.20587777E+00 0.18265708E+04</pdfrwt>
<pdfrwt beam="2">  1       -1 0.95890786E-01 0.18265708E+04</pdfrwt>
<totfact> 0.83864463E+00</totfact>
</mgrwt>
</event>
<event>
12    3  0.4192740E-008  0.2547690E+04  0.7818608E-02  0.8386190E-01
         -2   -1    0    0    0  501 -0.00000000000E+00  0.00000000000E+00  0.14091533009E+04  0.14091533009E+04  0.00000000000E+00 0.  1.
          2   -1    0    0  501    0  0.00000000000E+00 -0.00000000000E+00 -0.11515293701E+04  0.11515293701E+04  0.00000000000E+00 0. -1.
         23    2    1    2    0    0  0.50132713112E+03 -0.56145893337E+03  0.92572041580E+03  0.11967327037E+04  0.92983060823E+02 0.  0.
        254    2    1    2    0    0 -0.50132713112E+03  0.56145893337E+03 -0.66809648499E+03  0.13639499674E+04  0.92056589876E+03 0.  0.
         23    2    4    4    0    0 -0.13387803421E+03  0.34052238527E+03 -0.81732479190E+03  0.90017619571E+03  0.91752629092E+02 0.  0.
         23    2    4    4    0    0 -0.36744909691E+03  0.22093654810E+03  0.14922830691E+03  0.46377377165E+03  0.94790435101E+02 0.  0.
          4    1    3    3  502    0  0.11699873694E+03 -0.87087526578E+02  0.14527576289E+03  0.20585914848E+03  0.00000000000E+00 0. -1.
         -4    1    3    3    0  502  0.38432839418E+03 -0.47437140679E+03  0.78044465292E+03  0.99087355521E+03  0.00000000000E+00 0.  1.
         13    1    5    5    0    0 -0.69521782106E+02  0.24845554664E+03 -0.64260087156E+03  0.69245889190E+03  0.00000000000E+00 0.  1.
        -13    1    5    5    0    0 -0.64356252107E+02  0.92066838628E+02 -0.17472392034E+03  0.20771730380E+03  0.00000000000E+00 0. -1.
          1    1    6    6  503    0 -0.24589866629E+02  0.37080319390E+01  0.33487959688E+02  0.41711562974E+02  0.00000000000E+00 0. -1.
         -1    1    6    6    0  503 -0.34285923028E+03  0.21722851616E+03  0.11574034722E+03  0.42206220868E+03  0.00000000000E+00 0.  1.
<mgrwt>
<rscale>  0 0.25476903E+04</rscale>
<asrwt>0</asrwt>
<pdfrwt beam="1">  1        2 0.17715836E+00 0.25476903E+04</pdfrwt>
<pdfrwt beam="2">  1       -2 0.21679282E+00 0.25476903E+04</pdfrwt>
<totfact> 0.18641768E+00</totfact>
</mgrwt>
</event>
<event>
12    3  0.4192740E-008  0.1491221E+04  0.7818608E-02  0.8890312E-01
         -2   -1    0    0    0  501 -0.00000000000E+00  0.00000000000E+00  0.18473177216E+03  0.18473177216E+03  0.00000000000E+00 0.  1.
          2   -1    0    0  501    0  0.00000000000E+00 -0.00000000000E+00 -0.30094187986E+04  0.30094187986E+04  0.00000000000E+00 0. -1.
         23    2    1    2    0    0  0.42931662343E+03 -0.35275643103E+02 -0.13458580084E+04  0.14160252011E+04  0.90754928155E+02 0.  0.
        254    2    1    2    0    0 -0.42931662343E+03  0.35275643103E+02 -0.14788290180E+04  0.17781253697E+04  0.88839036002E+03 0.  0.
         23    2    4    4    0    0 -0.62963076447E+03  0.96116666067E+02 -0.13927983084E+04  0.15341584549E+04  0.89898408408E+02 0.  0.
         23    2    4    4    0    0  0.20031414104E+03 -0.60841022964E+02 -0.86030709611E+02  0.24396691481E+03  0.91055957243E+02 0.  0.
          2    1    3    3  502    0  0.43045344214E+03 -0.27406077782E+02 -0.13314143710E+04  0.13995375973E+04  0.00000000000E+00 0. -1.
         -2    1    3    3    0  502 -0.11368187081E+01 -0.78695653207E+01 -0.14443637469E+02  0.16487603781E+02  0.00000000000E+00 0.  1.
         13    1    5    5    0    0 -0.47837950279E+03  0.73581523256E+02 -0.95942414195E+03  0.10745956790E+04  0.00000000000E+00 0.  1.
        -13    1    5    5    0    0 -0.15125126168E+03  0.22535142811E+02 -0.43337416646E+03  0.45956277588E+03  0.00000000000E+00 0. -1.
          4    1    6    6  503    0  0.18571624182E+03 -0.45491638813E+02 -0.10267235509E+03  0.21702908602E+03  0.00000000000E+00 0.  1.
         -4    1    6    6    0  503  0.14597899216E+02 -0.15349384151E+02  0.16641645484E+02  0.26937828787E+02  0.00000000000E+00 0. -1.
<mgrwt>
<rscale>  0 0.14912213E+04</rscale>
<asrwt>0</asrwt>
<pdfrwt beam="1">  1        2 0.46298745E+00 0.14912213E+04</pdfrwt>
<pdfrwt beam="2">  1       -2 0.28420276E-01 0.14912213E+04</pdfrwt>
<totfact> 0.18975265E+01</totfact>
</mgrwt>
</event>
<event>
12    3  0.4192740E-008  0.1343792E+04  0.7818608E-02  0.8995540E-01
          2   -1    0    0  501    0  0.00000000000E+00  0.00000000000E+00  0.41873218466E+03  0.41873218466E+03  0.00000000000E+00 0. -1.
         -2   -1    0    0    0  501 -0.00000000000E+00 -0.00000000000E+00 -0.10781224203E+04  0.10781224203E+04  0.00000000000E+00 0.  1.
         23    2    1    2    0    0 -0.11038072901E+02  0.22599145933E+03 -0.50053100736E+03  0.55684358000E+03  0.91375623143E+02 0.  0.
        254    2    1    2    0    0  0.11038072901E+02 -0.22599145933E+03 -0.15885922828E+03  0.94001102497E+03  0.89843780748E+03 0.  0.
         23    2    4    4    0    0  0.36519544937E+03  0.45012668051E+02  0.13122949772E+03  0.40161686144E+03  0.93172237276E+02 0.  0.
         23    2    4    4    0    0 -0.35415737646E+03 -0.27100412738E+03 -0.29008872600E+03  0.53839416353E+03  0.82741295671E+02 0.  0.
          1    1    3    3  502    0  0.10842533347E+02  0.20937897180E+03 -0.47553091008E+03  0.51969872118E+03  0.00000000000E+00 0. -1.
         -1    1    3    3    0  502 -0.21880606249E+02  0.16612487530E+02 -0.25000097290E+02  0.37144858813E+02  0.00000000000E+00 0.  1.
         13    1    5    5    0    0  0.14110569579E+03 -0.23378754366E+02  0.71118159999E+02  0.15973470575E+03  0.00000000000E+00 0.  1.
        -13    1    5    5    0    0  0.22408975357E+03  0.68391422416E+02  0.60111337719E+02  0.24188215569E+03  0.00000000000E+00 0. -1.
          1    1    6    6  503    0 -0.26882825533E+03 -0.19516483037E+03 -0.17177897306E+03  0.37398657391E+03  0.00000000000E+00 0. -1.
         -1    1    6    6    0  503 -0.85329121129E+02 -0.75839297007E+02 -0.11830975294E+03  0.16440758962E+03  0.00000000000E+00 0.  1.
<mgrwt>
<rscale>  0 0.13437925E+04</rscale>
<asrwt>0</asrwt>
<pdfrwt beam="1">  1        2 0.64420335E-01 0.13437925E+04</pdfrwt>
<pdfrwt beam="2">  1       -2 0.16586499E+00 0.13437925E+04</pdfrwt>
<totfact> 0.16817285E+01</totfact>
</mgrwt>
</event>
<event>
12    3  0.4192740E-008  0.1568916E+04  0.7818608E-02  0.8839875E-01
         -2   -1    0    0    0  501 -0.00000000000E+00  0.00000000000E+00  0.47275643604E+03  0.47275643604E+03  0.00000000000E+00 0.  1.
          2   -1    0    0  501    0  0.00000000000E+00 -0.00000000000E+00 -0.13016730039E+04  0.13016730039E+04  0.00000000000E+00 0. -1.
         23    2    1    2    0    0 -0.45514132870E+03 -0.22659979654E+03 -0.39804631978E+03  0.65205660380E+03  0.90751556384E+02 0.  0.
        254    2    1    2    0    0  0.45514132870E+03  0.22659979654E+03 -0.43087024805E+03  0.11223728361E+04  0.90308942842E+03 0.  0.
         23    2    4    4    0    0  0.39550037546E+03  0.35066854033E+03  0.11784704038E+03  0.54920238840E+03  0.91358449698E+02 0.  0.
         23    2    4    4    0    0  0.59640953241E+02 -0.12406874379E+03 -0.54871728843E+03  0.57317044772E+03  0.92106476592E+02 0.  0.
          2    1    3    3  502    0 -0.83217531376E+02 -0.36225123421E+02 -0.11885312294E+03  0.14954424739E+03  0.00000000000E+00 0. -1.
         -2    1    3    3    0  502 -0.37192379733E+03 -0.19037467312E+03 -0.27919319684E+03  0.50251235641E+03  0.00000000000E+00 0.  1.
         13    1    5    5    0    0  0.59956140900E+02  0.17966949222E+02  0.17077297364E+01  0.62613628204E+02  0.00000000000E+00 0. -1.
        -13    1    5    5    0    0  0.33554423456E+03  0.33270159111E+03  0.11613931064E+03  0.48658876020E+03  0.00000000000E+00 0.  1.
          1    1    6    6  503    0  0.26662396860E+02 -0.51615637962E+01 -0.32224647927E+02  0.42142058340E+02  0.00000000000E+00 0. -1.
         -1    1    6    6    0  503  0.32978556381E+02 -0.11890718000E+03 -0.51649264050E+03  0.53102838938E+03  0.00000000000E+00 0.  1.
<mgrwt>
<rscale>  0 0.15689159E+04</rscale>
<asrwt>0</asrwt>
<pdfrwt beam="1">  1        2 0.20025738E+00 0.15689159E+04</pdfrwt>
<pdfrwt beam="2">  1       -2 0.72731761E-01 0.15689159E+04</pdfrwt>
<totfact> 0.27096945E+01</totfact>
</mgrwt>
</event>
<event>
12    3  0.4192740E-008  0.1237608E+04  0.7818608E-02  0.9080560E-01
          2   -1    0    0  501    0  0.00000000000E+00  0.00000000000E+00  0.22975260836E+04  0.22975260836E+04  0.00000000000E+00 0. -1.
         -2   -1    0    0    0  501 -0.00000000000E+00 -0.00000000000E+00 -0.16666557675E+03  0.16666557675E+03  0.00000000000E+00 0.  1.
         23    2    1    2    0    0  0.26860214088E+03 -0.50273140056E+02  0.45065013752E+03  0.53585490677E+03  0.96852650835E+02 0.  0.
        254    2    1    2    0    0 -0.26860214088E+03  0.50273140056E+02  0.16802103694E+04  0.19283367536E+04  0.90592563231E+03 0.  0.
         23    2    4    4    0    0  0.27741699662E+03  0.94420528063E+02  0.25522995793E+03  0.39895160207E+03  0.90247566358E+02 0.  0.
         23    2    4    4    0    0 -0.54601913750E+03 -0.44147388006E+02  0.14249804114E+04  0.15293851515E+04  0.91454241970E+02 0.  0.
          2    1    3    3  502    0  0.15352830639E+03 -0.57928297863E+02  0.19141516721E+03  0.25212376880E+03  0.00000000000E+00 0.  1.
         -2    1    3    3    0  502  0.11507383449E+03  0.76551578070E+01  0.25923497031E+03  0.28373113798E+03  0.00000000000E+00 0. -1.
         13    1    5    5    0    0  0.27930289589E+03  0.97726100600E+02  0.25925458475E+03  0.39341255459E+03  0.00000000000E+00 0. -1.
        -13    1    5    5    0    0 -0.18858992733E+01 -0.33055725378E+01 -0.40246268246E+01  0.55390474767E+01  0.00000000000E+00 0.  1.
          4    1    6    6  503    0 -0.17666720641E+03  0.11577507303E+02  0.36872779357E+03  0.40902998208E+03  0.00000000000E+00 0.  1.
         -4    1    6    6    0  503 -0.36935193109E+03 -0.55724895309E+02  0.10562526179E+04  0.11203551695E+04  0.00000000000E+00 0. -1.
<mgrwt>
<rscale>  0 0.12376082E+04</rscale>
<asrwt>0</asrwt>
<pdfrwt beam="1">  1        2 0.35346553E+00 0.12376082E+04</pdfrwt>
<pdfrwt beam="2">  1       -2 0.25640860E-01 0.12376082E+04</pdfrwt>
<totfact> 0.61551045E+01</totfact>
</mgrwt>
</event>
<event>
12    3  0.4192740E-008  0.1872699E+04  0.7818608E-02  0.8668567E-01
          2   -1    0    0  501    0  0.00000000000E+00  0.00000000000E+00  0.31513748564E+04  0.31513748564E+04  0.00000000000E+00 0. -1.
         -2   -1    0    0    0  501 -0.00000000000E+00 -0.00000000000E+00 -0.27821197250E+03  0.27821197250E+03  0.00000000000E+00 0.  1.
         23    2    1    2    0    0  0.46931648882E+03 -0.33345679506E+03  0.18961740076E+04  0.19835710890E+04  0.87332681169E+02 0.  0.
        254    2    1    2    0    0 -0.46931648882E+03  0.33345679506E+03  0.97698887636E+03  0.14460157400E+04  0.89721951317E+03 0.  0.
         23    2    4    4    0    0 -0.91678544592E+02  0.46470352206E+03  0.12157856033E+03  0.49735645999E+03  0.90707127652E+02 0.  0.
         23    2    4    4    0    0 -0.37763794423E+03 -0.13124672701E+03  0.85541031602E+03  0.94865927996E+03  0.91605133161E+02 0.  0.
          4    1    3    3  502    0  0.45457430388E+03 -0.33621105795E+03  0.18151020008E+04  0.19011236011E+04  0.00000000000E+00 0. -1.
         -4    1    3    3    0  502  0.14742184942E+02  0.27542628947E+01  0.81072006743E+02  0.82447487883E+02  0.00000000000E+00 0.  1.
         13    1    5    5    0    0 -0.53698992628E+00  0.23700215580E+03  0.60052091703E+02  0.24449246190E+03  0.00000000000E+00 0. -1.
        -13    1    5    5    0    0 -0.91141554666E+02  0.22770136627E+03  0.61526468630E+02  0.25286399809E+03  0.00000000000E+00 0.  1.
          4    1    6    6  503    0 -0.37545633429E+03 -0.13418467869E+03  0.80712390625E+03  0.90023440670E+03  0.00000000000E+00 0. -1.
         -4    1    6    6    0  503 -0.21816099390E+01  0.29379516854E+01  0.48286409769E+02  0.48424873262E+02  0.00000000000E+00 0.  1.
<mgrwt>
<rscale>  0 0.18726988E+04</rscale>
<asrwt>0</asrwt>
<pdfrwt beam="1">  1        2 0.48482687E+00 0.18726988E+04</pdfrwt>
<pdfrwt beam="2">  1       -2 0.42801844E-01 0.18726988E+04</pdfrwt>
<totfact> 0.68029789E+00</totfact>
</mgrwt>
</event>
<event>
12    3  0.4192740E-008  0.1354237E+04  0.7818608E-02  0.8987627E-01
          1   -1    0    0  501    0  0.00000000000E+00  0.00000000000E+00  0.70326674781E+03  0.70326674781E+03  0.00000000000E+00 0. -1.
         -1   -1    0    0    0  501 -0.00000000000E+00 -0.00000000000E+00 -0.65194265083E+03  0.65194265083E+03  0.00000000000E+00 0.  1.
         23    2    1    2    0    0 -0.87339451636E+02 -0.35305346502E+03 -0.35794989426E+02  0.37658397829E+03  0.90880594527E+02 0.  0.
        254    2    1    2    0    0  0.87339451636E+02  0.35305346502E+03  0.87119086409E+02  0.97862542035E+03  0.90434675272E+03 0.  0.
         23    2    4    4    0    0  0.36180394471E+03  0.34454443233E+03 -0.22285968634E+03  0.55461574474E+03  0.91209781633E+02 0.  0.
         23    2    4    4    0    0 -0.27446449307E+03  0.85090326860E+01  0.30997877274E+03  0.42400967561E+03  0.91072519779E+02 0.  0.
          1    1    3    3  502    0 -0.41968974891E+02 -0.24163872273E+03  0.15632201158E+02  0.24575400890E+03  0.00000000000E+00 0. -1.
         -1    1    3    3    0  502 -0.45370476745E+02 -0.11141474228E+03 -0.51427190584E+02  0.13082996939E+03  0.00000000000E+00 0.  1.
         13    1    5    5    0    0  0.17154176102E+03  0.16901872812E+03 -0.15710455251E+03  0.28753390521E+03  0.00000000000E+00 0.  1.
        -13    1    5    5    0    0  0.19026218369E+03  0.17552570421E+03 -0.65755133826E+02  0.26708183953E+03  0.00000000000E+00 0. -1.
          2    1    6    6  503    0 -0.57120044065E+02  0.85894504402E+01  0.18974658012E+02  0.60798978112E+02  0.00000000000E+00 0. -1.
         -2    1    6    6    0  503 -0.21734444901E+03 -0.80417754209E-01  0.29100411473E+03  0.36321069749E+03  0.00000000000E+00 0.  1.
<mgrwt>
<rscale>  0 0.13542372E+04</rscale>
<asrwt>0</asrwt>
<pdfrwt beam="1">  1        1 0.10819488E+00 0.13542372E+04</pdfrwt>
<pdfrwt beam="2">  1       -1 0.10029887E+00 0.13542372E+04</pdfrwt>
<totfact> 0.25068844E+01</totfact>
</mgrwt>
</event>
<event>
12    3  0.4192740E-008  0.1555047E+04  0.7818608E-02  0.8848650E-01
         -1   -1    0    0    0  501 -0.00000000000E+00  0.00000000000E+00  0.26534336911E+03  0.26534336911E+03  0.00000000000E+00 0.  1.
          1   -1    0    0  501    0  0.00000000000E+00 -0.00000000000E+00 -0.22783418982E+04  0.22783418982E+04  0.00000000000E+00 0. -1.
         23    2    1    2    0    0 -0.39085340682E+02 -0.41070314504E+03 -0.11746488712E+04  0.12483109048E+04  0.90969265080E+02 0.  0.
        254    2    1    2    0    0  0.39085340682E+02  0.41070314504E+03 -0.83834965790E+03  0.12953743625E+04  0.89719554891E+03 0.  0.
         23    2    4    4    0    0 -0.36606904022E+03 -0.64607911919E+01 -0.46412099292E+03  0.59819658761E+03  0.91556416086E+02 0.  0.
         23    2    4    4    0    0  0.40515438091E+03  0.41716393624E+03 -0.37422866498E+03  0.69717777492E+03  0.88509514074E+02 0.  0.
          3    1    3    3  502    0 -0.56689133464E+02 -0.36607352329E+03 -0.10870565499E+04  0.11484404316E+04  0.00000000000E+00 0. -1.
         -3    1    3    3    0  502  0.17603792782E+02 -0.44629621756E+02 -0.87592321256E+02  0.99870473121E+02  0.00000000000E+00 0.  1.
         13    1    5    5    0    0 -0.79281521302E+02  0.17590468248E+01 -0.47809637267E+02  0.92598138649E+02  0.00000000000E+00 0. -1.
        -13    1    5    5    0    0 -0.28678751892E+03 -0.82198380167E+01 -0.41631135566E+03  0.50559844896E+03  0.00000000000E+00 0.  1.
          1    1    6    6  503    0  0.29270718782E+03  0.34723398622E+03 -0.31108470793E+03  0.55047491722E+03  0.00000000000E+00 0. -1.
         -1    1    6    6    0  503  0.11244719309E+03  0.69929950017E+02 -0.63143957049E+02  0.14670285769E+03  0.00000000000E+00 0.  1.
<mgrwt>
<rscale>  0 0.15550472E+04</rscale>
<asrwt>0</asrwt>
<pdfrwt beam="1">  1        1 0.35051413E+00 0.15550472E+04</pdfrwt>
<pdfrwt beam="2">  1       -1 0.40822058E-01 0.15550472E+04</pdfrwt>
<totfact> 0.10896962E+01</totfact>
</mgrwt>
</event>
<event>
12    3  0.4192740E-008  0.2310198E+04  0.7818608E-02  0.8473911E-01
         -2   -1    0    0    0  501 -0.00000000000E+00  0.00000000000E+00  0.12493369537E+04  0.12493369537E+04  0.00000000000E+00 0.  1.
          2   -1    0    0  501    0  0.00000000000E+00 -0.00000000000E+00 -0.10679691434E+04  0.10679691434E+04  0.00000000000E+00 0. -1.
         23    2    1    2    0    0 -0.49887753298E+03 -0.79150806701E+03 -0.23673740245E+03  0.96961982306E+03  0.93563831203E+02 0.  0.
        254    2    1    2    0    0  0.49887753298E+03  0.79150806701E+03  0.41810521282E+03  0.13476862740E+04  0.87526139593E+03 0.  0.
         23    2    4    4    0    0  0.54798445052E+02  0.81498901425E+03  0.20184669190E+03  0.84662130485E+03  0.93891340749E+02 0.  0.
         23    2    4    4    0    0  0.44407908793E+03 -0.23480947243E+02  0.21625852091E+03  0.50106496919E+03  0.80874991574E+02 0.  0.
          3    1    3    3  502    0 -0.35599242437E+03 -0.52676141250E+03 -0.12044729654E+03  0.64708248558E+03  0.00000000000E+00 0. -1.
         -3    1    3    3    0  502 -0.14288510861E+03 -0.26474665451E+03 -0.11629010591E+03  0.32253733748E+03  0.00000000000E+00 0.  1.
         13    1    5    5    0    0 -0.17109482406E+02  0.41405577278E+02  0.17749196947E+02  0.48189108834E+02  0.00000000000E+00 0. -1.
        -13    1    5    5    0    0  0.71907927458E+02  0.77358343697E+03  0.18409749496E+03  0.79843219602E+03  0.00000000000E+00 0.  1.
          1    1    6    6  503    0 -0.24975985881E+01  0.33634471638E+01  0.43285839163E+01  0.60239035725E+01  0.00000000000E+00 0. -1.
         -1    1    6    6    0  503  0.44657668652E+03 -0.26844394407E+02  0.21192993700E+03  0.49504106562E+03  0.00000000000E+00 0.  1.
<mgrwt>
<rscale>  0 0.23101977E+04</rscale>
<asrwt>0</asrwt>
<pdfrwt beam="1">  1        2 0.16430294E+00 0.23101977E+04</pdfrwt>
<pdfrwt beam="2">  1       -2 0.19220569E+00 0.23101977E+04</pdfrwt>
<totfact> 0.30948938E+00</totfact>
</mgrwt>
</event>
<event>
12    3  0.4192740E-008  0.2226196E+04  0.7818608E-02  0.8507603E-01
          2   -1    0    0  501    0  0.00000000000E+00  0.00000000000E+00  0.21504794504E+04  0.21504794504E+04  0.00000000000E+00 0. -1.
         -2   -1    0    0    0  501 -0.00000000000E+00 -0.00000000000E+00 -0.57614463780E+03  0.57614463780E+03  0.00000000000E+00 0.  1.
         23    2    1    2    0    0 -0.18512918568E+03  0.57588100123E+02 -0.45722671459E+03  0.50472382170E+03  0.90003683215E+02 0.  0.
        254    2    1    2    0    0  0.18512918568E+03 -0.57588100123E+02  0.20315615272E+04  0.22219002665E+04  0.87864062668E+03 0.  0.
         23    2    4    4    0    0 -0.43524200492E+02  0.38068270768E+03  0.98471072084E+03  0.10605319896E+04  0.90880235581E+02 0.  0.
         23    2    4    4    0    0  0.22865338617E+03 -0.43827080780E+03  0.10468508064E+04  0.11613682770E+04  0.92282132181E+02 0.  0.
          1    1    3    3  502    0 -0.21280987697E+02 -0.22809136413E+02 -0.70535278526E+02  0.77125629061E+02  0.00000000000E+00 0. -1.
         -1    1    3    3    0  502 -0.16384819798E+03  0.80397236536E+02 -0.38669143607E+03  0.42759819264E+03  0.00000000000E+00 0.  1.
         13    1    5    5    0    0  0.94692601640E+01  0.12886775590E+01  0.13844208618E+02  0.16822297410E+02  0.00000000000E+00 0. -1.
        -13    1    5    5    0    0 -0.52993460656E+02  0.37939403012E+03  0.97086651222E+03  0.10437096922E+04  0.00000000000E+00 0.  1.
          2    1    6    6  503    0  0.59435336465E+02 -0.16742746576E+03  0.46237034215E+03  0.49532903086E+03  0.00000000000E+00 0. -1.
         -2    1    6    6    0  503  0.16921804970E+03 -0.27084334204E+03  0.58448046425E+03  0.66603924611E+03  0.00000000000E+00 0.  1.
<mgrwt>
<rscale>  0 0.22261960E+04</rscale>
<asrwt>0</asrwt>
<pdfrwt beam="1">  1        2 0.33084299E+00 0.22261960E+04</pdfrwt>
<pdfrwt beam="2">  1       -2 0.88637638E-01 0.22261960E+04</pdfrwt>
<totfact> 0.54959992E+00</totfact>
</mgrwt>
</event>
<event>
12    3  0.4192740E-008  0.1057881E+04  0.7818608E-02  0.9247245E-01
         -2   -1    0    0    0  501 -0.00000000000E+00  0.00000000000E+00  0.15597605365E+03  0.15597605365E+03  0.00000000000E+00 0.  1.
          2   -1    0    0  501    0  0.00000000000E+00 -0.00000000000E+00 -0.17937246976E+04  0.17937246976E+04  0.00000000000E+00 0. -1.
         23    2    1    2    0    0 -0.26872342144E+02 -0.75651037639E+02 -0.11249319825E+03  0.16955497640E+03  0.98229161162E+02 0.  0.
        254    2    1    2    0    0  0.26872342144E+02  0.75651037639E+02 -0.15252554457E+04  0.17801457749E+04  0.91436841745E+03 0.  0.
         23    2    4    4    0    0  0.35670390534E+02  0.13846900494E+03 -0.16230643783E+04  0.16319352371E+04  0.91807405198E+02 0.  0.
         23    2    4    4    0    0 -0.87980483902E+01 -0.62817967303E+02  0.97808932616E+02  0.14821053781E+03  0.91521983952E+02 0.  0.
          2    1    3    3  502    0 -0.40341860817E+01  0.23929585707E+02 -0.27327911808E+02  0.36547427998E+02  0.00000000000E+00 0. -1.
         -2    1    3    3    0  502 -0.22838156062E+02 -0.99580623346E+02 -0.85165286438E+02  0.13300754840E+03  0.00000000000E+00 0.  1.
         13    1    5    5    0    0  0.52537610374E+02  0.14034225368E+03 -0.15312866498E+04  0.15386016224E+04  0.00000000000E+00 0.  1.
        -13    1    5    5    0    0 -0.16867219840E+02 -0.18732487373E+01 -0.91777728536E+02  0.93333614637E+02  0.00000000000E+00 0. -1.
          2    1    6    6  503    0  0.37391330114E+01 -0.64912488698E+02  0.11178463637E+03  0.12931905209E+03  0.00000000000E+00 0.  1.
         -2    1    6    6    0  503 -0.12537181402E+02  0.20945213950E+01 -0.13975703753E+02  0.18891485721E+02  0.00000000000E+00 0. -1.
<mgrwt>
<rscale>  0 0.10578811E+04</rscale>
<asrwt>0</asrwt>
<pdfrwt beam="1">  1        2 0.27595764E+00 0.10578811E+04</pdfrwt>
<pdfrwt beam="2">  1       -2 0.23996316E-01 0.10578811E+04</pdfrwt>
<totfact> 0.13386064E+02</totfact>
</mgrwt>
</event>
<event>
12    3  0.4192740E-008  0.1618009E+04  0.7818608E-02  0.8809560E-01
         -1   -1    0    0    0  501 -0.00000000000E+00  0.00000000000E+00  0.92982613511E+03  0.92982613511E+03  0.00000000000E+00 0.  1.
          1   -1    0    0  501    0  0.00000000000E+00 -0.00000000000E+00 -0.70388258095E+03  0.70388258095E+03  0.00000000000E+00 0. -1.
         23    2    1    2    0    0  0.78675958593E+02  0.78926865306E+02  0.62799416210E+03  0.64457946806E+03  0.93202287982E+02 0.  0.
        254    2    1    2    0    0 -0.78675958593E+02 -0.78926865306E+02 -0.40205060794E+03  0.98912924799E+03  0.89683477930E+03 0.  0.
         23    2    4    4    0    0 -0.36610380098E+03  0.21001073044E+03 -0.34339097847E+02  0.43288817584E+03  0.89869344888E+02 0.  0.
         23    2    4    4    0    0  0.28742784239E+03 -0.28893759575E+03 -0.36771151009E+03  0.55624107215E+03  0.89959306774E+02 0.  0.
          3    1    3    3  502    0 -0.72006171837E+00  0.59336566264E+02  0.19123046004E+03  0.20022596094E+03  0.00000000000E+00 0. -1.
         -3    1    3    3    0  502  0.79396020312E+02  0.19590299042E+02  0.43676370206E+03  0.44435350713E+03  0.00000000000E+00 0.  1.
         13    1    5    5    0    0 -0.12178473576E+03  0.11041938891E+03 -0.39228132874E+02  0.16900535412E+03  0.00000000000E+00 0. -1.
        -13    1    5    5    0    0 -0.24431906522E+03  0.99591341528E+02  0.48890350277E+01  0.26388282172E+03  0.00000000000E+00 0.  1.
          1    1    6    6  503    0  0.25730307854E+03 -0.28938590200E+03 -0.34170349601E+03  0.51644007754E+03  0.00000000000E+00 0. -1.
         -1    1    6    6    0  503  0.30124763848E+02  0.44830625512E+00 -0.26008014083E+02  0.39800994610E+02  0.00000000000E+00 0.  1.
<mgrwt>
<rscale>  0 0.16180092E+04</rscale>
<asrwt>0</asrwt>
<pdfrwt beam="1">  1        1 0.10828963E+00 0.16180092E+04</pdfrwt>
<pdfrwt beam="2">  1       -1 0.14305017E+00 0.16180092E+04</pdfrwt>
<totfact> 0.10252467E+01</totfact>
</mgrwt>
</event>
<event>
12    3  0.4192740E-008  0.2480042E+04  0.7818608E-02  0.8410130E-01
         -1   -1    0    0    0  501 -0.00000000000E+00  0.00000000000E+00  0.12573093609E+04  0.12573093609E+04  0.00000000000E+00 0.  1.
          1   -1    0    0  501    0  0.00000000000E+00 -0.00000000000E+00 -0.12229700384E+04  0.12229700384E+04  0.00000000000E+00 0. -1.
         23    2    1    2    0    0 -0.57541220588E+03  0.77607800172E+03  0.48642839909E+03  0.10856645117E+04  0.93051453936E+02 0.  0.
        254    2    1    2    0    0  0.57541220588E+03 -0.77607800172E+03 -0.45208907657E+03  0.13946148876E+04  0.89842633538E+03 0.  0.
         23    2    4    4    0    0  0.47316449244E+03 -0.16400378255E+03  0.14338940623E+03  0.52937111245E+03  0.94294089331E+02 0.  0.
         23    2    4    4    0    0  0.10224771344E+03 -0.61207421916E+03 -0.59547848280E+03  0.86524377514E+03  0.94671655070E+02 0.  0.
          2    1    3    3  502    0 -0.25912759402E+03  0.38555980429E+03  0.18761153265E+03  0.50100055874E+03  0.00000000000E+00 0. -1.
         -2    1    3    3    0  502 -0.31628461186E+03  0.39051819743E+03  0.29881686643E+03  0.58466395295E+03  0.00000000000E+00 0.  1.
         13    1    5    5    0    0  0.14621532356E+03 -0.95605415891E+02  0.63887152010E+02  0.18601313013E+03  0.00000000000E+00 0.  1.
        -13    1    5    5    0    0  0.32694916888E+03 -0.68398366662E+02  0.79502254217E+02  0.34335798232E+03  0.00000000000E+00 0. -1.
          1    1    6    6  503    0 -0.10455329088E+02 -0.41066756972E+02 -0.20389252514E+02  0.47026737635E+02  0.00000000000E+00 0. -1.
         -1    1    6    6    0  503  0.11270304253E+03 -0.57100746219E+03 -0.57508923028E+03  0.81821703750E+03  0.00000000000E+00 0.  1.
<mgrwt>
<rscale>  0 0.24800417E+04</rscale>
<asrwt>0</asrwt>
<pdfrwt beam="1">  1        1 0.18814924E+00 0.24800417E+04</pdfrwt>
<pdfrwt beam="2">  1       -1 0.19343221E+00 0.24800417E+04</pdfrwt>
<totfact> 0.15296297E+00</totfact>
</mgrwt>
</event>
<event>
12    3  0.4192740E-008  0.1906456E+04  0.7818608E-02  0.8651649E-01
          1   -1    0    0  501    0  0.00000000000E+00  0.00000000000E+00  0.16444655407E+04  0.16444655407E+04  0.00000000000E+00 0. -1.
         -1   -1    0    0    0  501 -0.00000000000E+00 -0.00000000000E+00 -0.55254670243E+03  0.55254670243E+03  0.00000000000E+00 0.  1.
         23    2    1    2    0    0 -0.62870427083E+03 -0.21020598475E+02 -0.35101901540E+02  0.63719103031E+03  0.95233081940E+02 0.  0.
        254    2    1    2    0    0  0.62870427083E+03  0.21020598475E+02  0.11270207398E+04  0.15598212128E+04  0.87587415891E+03 0.  0.
         23    2    4    4    0    0  0.77324456749E+03  0.18700369221E+03  0.66797438105E+03  0.10427253303E+04  0.90602420966E+02 0.  0.
         23    2    4    4    0    0 -0.14454029666E+03 -0.16598309373E+03  0.45904635874E+03  0.51709588248E+03  0.90676939985E+02 0.  0.
          2    1    3    3  502    0 -0.15198130909E+03 -0.32517731636E+02  0.21815442827E+02  0.15694468685E+03  0.00000000000E+00 0. -1.
         -2    1    3    3    0  502 -0.47672296174E+03  0.11497133160E+02 -0.56917344367E+02  0.48024634347E+03  0.00000000000E+00 0.  1.
         13    1    5    5    0    0  0.32929562779E+03  0.34663848849E+02  0.28793809710E+03  0.43880011470E+03  0.00000000000E+00 0. -1.
        -13    1    5    5    0    0  0.44394893970E+03  0.15233984336E+03  0.38003628396E+03  0.60392521561E+03  0.00000000000E+00 0.  1.
          3    1    6    6  503    0 -0.12920285318E+03 -0.95595407772E+02  0.36339502033E+03  0.39735097842E+03  0.00000000000E+00 0. -1.
         -3    1    6    6    0  503 -0.15337443477E+02 -0.70387685962E+02  0.95651338410E+02  0.11974490405E+03  0.00000000000E+00 0.  1.
<mgrwt>
<rscale>  0 0.19064564E+04</rscale>
<asrwt>0</asrwt>
<pdfrwt beam="1">  1        1 0.25299470E+00 0.19064564E+04</pdfrwt>
<pdfrwt beam="2">  1       -1 0.85007186E-01 0.19064564E+04</pdfrwt>
<totfact> 0.66574457E+00</totfact>
</mgrwt>
</event>
<event>
12    3  0.4192740E-008  0.1665409E+04  0.7818608E-02  0.8781343E-01
         -1   -1    0    0    0  501 -0.00000000000E+00  0.00000000000E+00  0.26296632643E+03  0.26296632643E+03  0.00000000000E+00 0.  1.
          1   -1    0    0  501    0  0.00000000000E+00 -0.00000000000E+00 -0.26368272607E+04  0.26368272607E+04  0.00000000000E+00 0. -1.
         23    2    1    2    0    0  0.18970695480E+03  0.35125856683E+03 -0.10076127277E+03  0.42162424617E+03  0.90790205403E+02 0.  0.
        254    2    1    2    0    0 -0.18970695480E+03 -0.35125856683E+03 -0.22730996615E+04  0.24781693410E+04  0.90275683431E+03 0.  0.
         23    2    4    4    0    0 -0.12436175632E+03  0.24565428521E+03 -0.31679316811E+03  0.42970486151E+03  0.92067813969E+02 0.  0.
         23    2    4    4    0    0 -0.65345198473E+02 -0.59691285205E+03 -0.19563064934E+04  0.20484644795E+04  0.92177435205E+02 0.  0.
          2    1    3    3  502    0  0.15647559757E+02  0.52556719649E+02 -0.46046532874E+02  0.71605433427E+02  0.00000000000E+00 0. -1.
         -2    1    3    3    0  502  0.17405939504E+03  0.29870184718E+03 -0.54714739899E+02  0.35001881274E+03  0.00000000000E+00 0.  1.
         13    1    5    5    0    0 -0.51611733507E+02  0.67125643510E+02 -0.16073675554E+03  0.18167533579E+03  0.00000000000E+00 0. -1.
        -13    1    5    5    0    0 -0.72750022817E+02  0.17852864170E+03 -0.15605641257E+03  0.24802952573E+03  0.00000000000E+00 0.  1.
          1    1    6    6  503    0 -0.32323549500E+02 -0.54401373895E+03 -0.17701059749E+04  0.18520990585E+04  0.00000000000E+00 0. -1.
         -1    1    6    6    0  503 -0.33021648973E+02 -0.52899113091E+02 -0.18620051855E+03  0.19636542103E+03  0.00000000000E+00 0.  1.
<mgrwt>
<rscale>  0 0.16654090E+04</rscale>
<asrwt>0</asrwt>
<pdfrwt beam="1">  1        1 0.40566575E+00 0.16654090E+04</pdfrwt>
<pdfrwt beam="2">  1       -1 0.40456357E-01 0.16654090E+04</pdfrwt>
<totfact> 0.62040361E+00</totfact>
</mgrwt>
</event>
<event>
12    3  0.4192740E-008  0.1558606E+04  0.7818608E-02  0.8846389E-01
          1   -1    0    0  501    0  0.00000000000E+00  0.00000000000E+00  0.80927738980E+03  0.80927738980E+03  0.00000000000E+00 0. -1.
         -1   -1    0    0    0  501 -0.00000000000E+00 -0.00000000000E+00 -0.75043887008E+03  0.75043887008E+03  0.00000000000E+00 0.  1.
         23    2    1    2    0    0 -0.19948932672E+03  0.10504555371E+03  0.47959347006E+03  0.53752878999E+03  0.89981907686E+02 0.  0.
        254    2    1    2    0    0  0.19948932672E+03 -0.10504555371E+03 -0.42075495034E+03  0.10221874699E+04  0.90388159376E+03 0.  0.
         23    2    4    4    0    0  0.25231745129E+02 -0.22474387382E+03 -0.65179690636E+03  0.69602212502E+03  0.91984463876E+02 0.  0.
         23    2    4    4    0    0  0.17425758159E+03  0.11969832011E+03  0.23104195602E+03  0.32616534487E+03  0.91159498531E+02 0.  0.
          3    1    3    3  502    0 -0.18459003934E+03  0.11582178876E+03  0.46670279329E+03  0.51507248678E+03  0.00000000000E+00 0. -1.
         -3    1    3    3    0  502 -0.14899287377E+02 -0.10776235045E+02  0.12890676775E+02  0.22456303209E+02  0.00000000000E+00 0.  1.
         13    1    5    5    0    0  0.13077625504E+02 -0.68955589666E+01 -0.12438327872E+03  0.12525882423E+03  0.00000000000E+00 0. -1.
        -13    1    5    5    0    0  0.12154119625E+02 -0.21784831485E+03 -0.52741362764E+03  0.57076330079E+03  0.00000000000E+00 0.  1.
          2    1    6    6  503    0  0.19560307247E+02  0.48166252174E+02  0.22001021888E+02  0.56450318265E+02  0.00000000000E+00 0. -1.
         -2    1    6    6    0  503  0.15469727434E+03  0.71532067932E+02  0.20904093413E+03  0.26971502660E+03  0.00000000000E+00 0.  1.
<mgrwt>
<rscale>  0 0.15586061E+04</rscale>
<asrwt>0</asrwt>
<pdfrwt beam="1">  1        1 0.12450421E+00 0.15586061E+04</pdfrwt>
<pdfrwt beam="2">  1       -1 0.11545213E+00 0.15586061E+04</pdfrwt>
<totfact> 0.14211442E+01</totfact>
</mgrwt>
</event>
<event>
12    3  0.4192740E-008  0.1154297E+04  0.7818608E-02  0.9153828E-01
         -1   -1    0    0    0  501 -0.00000000000E+00  0.00000000000E+00  0.78641196180E+03  0.78641196180E+03  0.00000000000E+00 0.  1.
          1   -1    0    0  501    0  0.00000000000E+00 -0.00000000000E+00 -0.42356990099E+03  0.42356990099E+03  0.00000000000E+00 0. -1.
         23    2    1    2    0    0  0.18346958127E+03 -0.36987538630E+02  0.20606181288E+02  0.20865102970E+03  0.89897008959E+02 0.  0.
        254    2    1    2    0    0 -0.18346958127E+03  0.36987538630E+02  0.34223587952E+03  0.10013308331E+04  0.92223038054E+03 0.  0.
         23    2    4    4    0    0  0.20914125962E+03  0.35727930747E+03  0.19500016493E+03  0.46570611026E+03  0.86420754403E+02 0.  0.
         23    2    4    4    0    0 -0.39261084090E+03 -0.32029176884E+03  0.14723571460E+03  0.53562472282E+03  0.92116222644E+02 0.  0.
          2    1    3    3  502    0  0.83260632598E+02 -0.37821261647E+02 -0.30186271928E+02  0.96301566893E+02  0.00000000000E+00 0. -1.
         -2    1    3    3    0  502  0.10020894867E+03  0.83372301680E+00  0.50792453215E+02  0.11234946280E+03  0.00000000000E+00 0.  1.
         13    1    5    5    0    0  0.86071782997E+02  0.17723897248E+03  0.48282157916E+02  0.20286244593E+03  0.00000000000E+00 0.  1.
        -13    1    5    5    0    0  0.12306947663E+03  0.18004033498E+03  0.14671800701E+03  0.26284366433E+03  0.00000000000E+00 0. -1.
          2    1    6    6  503    0 -0.13780017123E+03 -0.14795237056E+03  0.95809145633E+02  0.22373686226E+03  0.00000000000E+00 0.  1.
         -2    1    6    6    0  503 -0.25481066967E+03 -0.17233939828E+03  0.51426568964E+02  0.31188786057E+03  0.00000000000E+00 0. -1.
<mgrwt>
<rscale>  0 0.11542971E+04</rscale>
<asrwt>0</asrwt>
<pdfrwt beam="1">  1        1 0.65164600E-01 0.11542971E+04</pdfrwt>
<pdfrwt beam="2">  1       -1 0.12098646E+00 0.11542971E+04</pdfrwt>
<totfact> 0.33487261E+01</totfact>
</mgrwt>
</event>
<event>
12    3  0.4192740E-008  0.1733118E+04  0.7818608E-02  0.8742698E-01
         -2   -1    0    0    0  501 -0.00000000000E+00  0.00000000000E+00  0.19753071553E+03  0.19753071553E+03  0.00000000000E+00 0.  1.
          2   -1    0    0  501    0  0.00000000000E+00 -0.00000000000E+00 -0.38015582009E+04  0.38015582009E+04  0.00000000000E+00 0. -1.
         23    2    1    2    0    0 -0.36195652204E+03  0.31132516722E+02 -0.13869752788E+03  0.40144774621E+03  0.99707227687E+02 0.  0.
        254    2    1    2    0    0  0.36195652204E+03 -0.31132516722E+02 -0.34653299575E+04  0.35976411702E+04  0.89583956036E+03 0.  0.
         23    2    4    4    0    0  0.34592681964E+03 -0.42475606255E+03 -0.22019888516E+04  0.22709003574E+04  0.90279861914E+02 0.  0.
         23    2    4    4    0    0  0.16029702399E+02  0.39362354583E+03 -0.12633411059E+04  0.13267408128E+04  0.94942021059E+02 0.  0.
          3    1    3    3  502    0 -0.64989041588E+02 -0.38395532881E+00  0.13329446831E+02  0.66343026017E+02  0.00000000000E+00 0. -1.
         -3    1    3    3    0  502 -0.29696748045E+03  0.31516472051E+02 -0.15202697471E+03  0.33510472019E+03  0.00000000000E+00 0.  1.
         13    1    5    5    0    0  0.44131727189E+02 -0.48164321620E+02 -0.40508240434E+03  0.41031593379E+03  0.00000000000E+00 0. -1.
        -13    1    5    5    0    0  0.30179509245E+03 -0.37659174093E+03 -0.17969064473E+04  0.18605844236E+04  0.00000000000E+00 0.  1.
          4    1    6    6  503    0  0.40311069790E+02  0.20646642021E+03 -0.55002872772E+03  0.58888451019E+03  0.00000000000E+00 0. -1.
         -4    1    6    6    0  503 -0.24281367391E+02  0.18715712562E+03 -0.71331237819E+03  0.73785630265E+03  0.00000000000E+00 0.  1.
<mgrwt>
<rscale>  0 0.17331180E+04</rscale>
<asrwt>0</asrwt>
<pdfrwt beam="1">  1        2 0.58485513E+00 0.17331180E+04</pdfrwt>
<pdfrwt beam="2">  1       -2 0.30389340E-01 0.17331180E+04</pdfrwt>
<totfact> 0.47155472E+00</totfact>
</mgrwt>
</event>
<event>
12    3  0.4192740E-008  0.2013987E+04  0.7818608E-02  0.8600109E-01
          2   -1    0    0  501    0  0.00000000000E+00  0.00000000000E+00  0.18531776327E+04  0.18531776327E+04  0.00000000000E+00 0.  1.
         -2   -1    0    0    0  501 -0.00000000000E+00 -0.00000000000E+00 -0.54718754117E+03  0.54718754117E+03  0.00000000000E+00 0. -1.
         23    2    1    2    0    0 -0.66390649875E+03  0.19550150873E+02  0.10703512540E+04  0.12627610311E+04  0.88088405924E+02 0.  0.
        254    2    1    2    0    0  0.66390649875E+03 -0.19550150873E+02  0.23563883746E+03  0.11376041427E+04  0.89300810539E+03 0.  0.
         23    2    4    4    0    0  0.25393355779E+03  0.12169336194E+03  0.52909698807E+03  0.60609842494E+03  0.90111885015E+02 0.  0.
         23    2    4    4    0    0  0.40997294096E+03 -0.14124351281E+03 -0.29345815061E+03  0.53150571776E+03  0.91395293219E+02 0.  0.
          2    1    3    3  502    0 -0.24278645266E+02  0.24433328426E+00  0.80436980364E+02  0.84021545599E+02  0.00000000000E+00 0. -1.
         -2    1    3    3    0  502 -0.63962785349E+03  0.19305817589E+02  0.98991427366E+03  0.11787394855E+04  0.00000000000E+00 0.  1.
         13    1    5    5    0    0  0.18792924023E+03  0.99299705408E+02  0.46556037640E+03  0.51178539927E+03  0.00000000000E+00 0.  1.
        -13    1    5    5    0    0  0.66004317564E+02  0.22393656532E+02  0.63536611666E+02  0.94313025675E+02  0.00000000000E+00 0. -1.
          1    1    6    6  503    0  0.20666502956E+03 -0.86016783113E+02 -0.20315144999E+03  0.30229097415E+03  0.00000000000E+00 0. -1.
         -1    1    6    6    0  503  0.20330791140E+03 -0.55226729700E+02 -0.90306700614E+02  0.22921474361E+03  0.00000000000E+00 0.  1.
<mgrwt>
<rscale>  0 0.20139868E+04</rscale>
<asrwt>0</asrwt>
<pdfrwt beam="1">  1        2 0.28510425E+00 0.20139868E+04</pdfrwt>
<pdfrwt beam="2">  1       -2 0.84182700E-01 0.20139868E+04</pdfrwt>
<totfact> 0.92143049E+00</totfact>
</mgrwt>
</event>
<event>
12    3  0.4192740E-008  0.2050829E+04  0.7818608E-02  0.8583218E-01
         -2   -1    0    0    0  501 -0.00000000000E+00  0.00000000000E+00  0.10438091927E+04  0.10438091927E+04  0.00000000000E+00 0.  1.
          2   -1    0    0  501    0  0.00000000000E+00 -0.00000000000E+00 -0.10073443347E+04  0.10073443347E+04  0.00000000000E+00 0. -1.
         23    2    1    2    0    0 -0.33679829461E+03 -0.25142565789E+03 -0.69635529487E+03  0.81853895517E+03  0.91909584548E+02 0.  0.
        254    2    1    2    0    0  0.33679829461E+03  0.25142565789E+03  0.73282015292E+03  0.12326145722E+04  0.89758863319E+03 0.  0.
         23    2    4    4    0    0  0.55112084683E+03 -0.18012802022E+02  0.66753153489E+03  0.87063477452E+03  0.91366907002E+02 0.  0.
         23    2    4    4    0    0 -0.21432255222E+03  0.26943845991E+03  0.65288618036E+02  0.36197979770E+03  0.90749822191E+02 0.  0.
          1    1    3    3  502    0 -0.30332092078E+03 -0.18729758098E+03 -0.60214305867E+03  0.69975726358E+03  0.00000000000E+00 0. -1.
         -1    1    3    3    0  502 -0.33477373830E+02 -0.64128076911E+02 -0.94212236199E+02  0.11878169159E+03  0.00000000000E+00 0.  1.
         13    1    5    5    0    0  0.36035775245E+03  0.11061950611E+02  0.37505102794E+03  0.52023393782E+03  0.00000000000E+00 0.  1.
        -13    1    5    5    0    0  0.19076309438E+03 -0.29074752632E+02  0.29248050695E+03  0.35040083670E+03  0.00000000000E+00 0. -1.
          3    1    6    6  503    0 -0.25047246357E+01 -0.28997232038E+01 -0.83564630746E+01  0.91930688715E+01  0.00000000000E+00 0. -1.
         -3    1    6    6    0  503 -0.21181782759E+03  0.27233818311E+03  0.73645081111E+02  0.35278672883E+03  0.00000000000E+00 0.  1.
<mgrwt>
<rscale>  0 0.20508294E+04</rscale>
<asrwt>0</asrwt>
<pdfrwt beam="1">  1        2 0.15497605E+00 0.20508294E+04</pdfrwt>
<pdfrwt beam="2">  1       -2 0.16058603E+00 0.20508294E+04</pdfrwt>
<totfact> 0.57485568E+00</totfact>
</mgrwt>
</event>
<event>
12    3  0.4639464E-008  0.1548944E+04  0.7818608E-02  0.8852543E-01
         -2   -1    0    0    0  501 -0.00000000000E+00  0.00000000000E+00  0.31925758401E+03  0.31925758401E+03  0.00000000000E+00 0.  1.
          2   -1    0    0  501    0  0.00000000000E+00 -0.00000000000E+00 -0.18787549560E+04  0.18787549560E+04  0.00000000000E+00 0. -1.
         23    2    1    2    0    0 -0.23841173121E+03  0.16990643184E+03 -0.97511048497E+03  0.10218194737E+04  0.86984078260E+02 0.  0.
        254    2    1    2    0    0  0.23841173121E+03 -0.16990643184E+03 -0.58438688701E+03  0.11761930663E+04  0.97786182369E+03 0.  0.
         23    2    4    4    0    0 -0.29702978252E+03  0.17091828568E+03 -0.33807978270E+03  0.48917137363E+03  0.86896151931E+02 0.  0.
         23    2    4    4    0    0  0.53544151373E+03 -0.34082471752E+03 -0.24630710431E+03  0.68702169263E+03  0.92046259062E+02 0.  0.
          1    1    3    3  502    0 -0.22589605341E+03  0.17407558599E+03 -0.86220189311E+03  0.90814285278E+03  0.00000000000E+00 0. -1.
         -1    1    3    3    0  502 -0.12515677796E+02 -0.41691541495E+01 -0.11290859186E+03  0.11367662096E+03  0.00000000000E+00 0.  1.
         13    1    5    5    0    0 -0.21723273492E+03  0.81240076597E+02 -0.24415972441E+03  0.33675507745E+03  0.00000000000E+00 0.  1.
        -13    1    5    5    0    0 -0.79797047600E+02  0.89678209081E+02 -0.93920058292E+02  0.15241629617E+03  0.00000000000E+00 0. -1.
          4    1    6    6  503    0  0.50447436214E+03 -0.29728682668E+03 -0.20848836748E+03  0.62156354361E+03  0.00000000000E+00 0.  1.
         -4    1    6    6    0  503  0.30967151585E+02 -0.43537890843E+02 -0.37818736835E+02  0.65458149013E+02  0.00000000000E+00 0. -1.
<mgrwt>
<rscale>  0 0.15489439E+04</rscale>
<asrwt>0</asrwt>
<pdfrwt beam="1">  1        2 0.28903923E+00 0.15489439E+04</pdfrwt>
<pdfrwt beam="2">  1       -2 0.49116551E-01 0.15489439E+04</pdfrwt>
<totfact> 0.29478008E+01</totfact>
</mgrwt>
</event>
<event>
12    3  0.4192740E-008  0.1452379E+04  0.7818608E-02  0.8916753E-01
         -1   -1    0    0    0  501 -0.00000000000E+00  0.00000000000E+00  0.48717520229E+03  0.48717520229E+03  0.00000000000E+00 0.  1.
          1   -1    0    0  501    0  0.00000000000E+00 -0.00000000000E+00 -0.10824677761E+04  0.10824677761E+04  0.00000000000E+00 0. -1.
         23    2    1    2    0    0  0.15630379813E+03  0.37633736271E+03 -0.22375995703E+01  0.41756179572E+03  0.91061289849E+02 0.  0.
        254    2    1    2    0    0 -0.15630379813E+03 -0.37633736271E+03 -0.59305497429E+03  0.11520811827E+04  0.89973116048E+03 0.  0.
         23    2    4    4    0    0 -0.49904712153E+03 -0.16510353283E+03 -0.49412876759E+03  0.72710055732E+03  0.90580215424E+02 0.  0.
         23    2    4    4    0    0  0.34274332340E+03 -0.21123382989E+03 -0.98926206695E+02  0.42498062539E+03  0.93431370345E+02 0.  0.
          4    1    3    3  502    0  0.52799710117E+01  0.11040414814E+03  0.13388632369E+02  0.11133826610E+03  0.00000000000E+00 0. -1.
         -4    1    3    3    0  502  0.15102382712E+03  0.26593321457E+03 -0.15626231939E+02  0.30622352962E+03  0.00000000000E+00 0.  1.
         13    1    5    5    0    0 -0.39094271294E+03 -0.14621509572E+03 -0.34251107613E+03  0.53993415922E+03  0.00000000000E+00 0. -1.
        -13    1    5    5    0    0 -0.10810440859E+03 -0.18888437109E+02 -0.15161769146E+03  0.18716639809E+03  0.00000000000E+00 0.  1.
          1    1    6    6  503    0  0.27472089976E+03 -0.16791954300E+03 -0.11657451011E+03  0.34242979148E+03  0.00000000000E+00 0. -1.
         -1    1    6    6    0  503  0.68022423645E+02 -0.43314286884E+02  0.17648303413E+02  0.82550833916E+02  0.00000000000E+00 0.  1.
<mgrwt>
<rscale>  0 0.14523794E+04</rscale>
<asrwt>0</asrwt>
<pdfrwt beam="1">  1        1 0.16653350E+00 0.14523794E+04</pdfrwt>
<pdfrwt beam="2">  1       -1 0.74950031E-01 0.14523794E+04</pdfrwt>
<totfact> 0.22729683E+01</totfact>
</mgrwt>
</event>
<event>
12    3  0.4192740E-008  0.1467584E+04  0.7818608E-02  0.8906300E-01
         -2   -1    0    0    0  501 -0.00000000000E+00  0.00000000000E+00  0.45896942301E+03  0.45896942301E+03  0.00000000000E+00 0.  1.
          2   -1    0    0  501    0  0.00000000000E+00 -0.00000000000E+00 -0.11731735178E+04  0.11731735178E+04  0.00000000000E+00 0. -1.
         23    2    1    2    0    0 -0.27756677750E+03 -0.14869821561E+03 -0.59321300965E+03  0.67772558379E+03  0.90861525451E+02 0.  0.
        254    2    1    2    0    0  0.27756677750E+03  0.14869821561E+03 -0.12099108515E+03  0.95441735704E+03  0.89281530757E+03 0.  0.
         23    2    4    4    0    0  0.22959274172E+03 -0.28971394511E+03 -0.28499965047E+03  0.47548806115E+03  0.90648212768E+02 0.  0.
         23    2    4    4    0    0  0.47974035776E+02  0.43841216073E+03  0.16400856532E+03  0.47892929589E+03  0.89262143052E+02 0.  0.
          4    1    3    3  502    0 -0.28343779438E+03 -0.14614447338E+03 -0.56488872303E+03  0.64868671930E+03  0.00000000000E+00 0. -1.
         -4    1    3    3    0  502  0.58710168814E+01 -0.25537422309E+01 -0.28324286619E+02  0.29038864494E+02  0.00000000000E+00 0.  1.
         13    1    5    5    0    0  0.10992326595E+03 -0.13335233577E+03 -0.19009731333E+03  0.25691040926E+03  0.00000000000E+00 0. -1.
        -13    1    5    5    0    0  0.11966947578E+03 -0.15636160934E+03 -0.94902337147E+02  0.21857765189E+03  0.00000000000E+00 0.  1.
          4    1    6    6  503    0  0.61652178844E+02  0.24712656809E+03  0.12288586510E+03  0.28279580558E+03  0.00000000000E+00 0. -1.
         -4    1    6    6    0  503 -0.13678143068E+02  0.19128559263E+03  0.41122700221E+02  0.19613349031E+03  0.00000000000E+00 0.  1.
<mgrwt>
<rscale>  0 0.14675841E+04</rscale>
<asrwt>0</asrwt>
<pdfrwt beam="1">  1        2 0.18048823E+00 0.14675841E+04</pdfrwt>
<pdfrwt beam="2">  1       -2 0.70610682E-01 0.14675841E+04</pdfrwt>
<totfact> 0.34728015E+01</totfact>
</mgrwt>
</event>
<event>
12    3  0.4192740E-008  0.1114370E+04  0.7818608E-02  0.9191298E-01
          1   -1    0    0  501    0  0.00000000000E+00  0.00000000000E+00  0.22444350512E+03  0.22444350512E+03  0.00000000000E+00 0. -1.
         -1   -1    0    0    0  501 -0.00000000000E+00 -0.00000000000E+00 -0.13832226677E+04  0.13832226677E+04  0.00000000000E+00 0.  1.
         23    2    1    2    0    0 -0.14877966336E+03  0.85414679859E+02 -0.70332530214E+02  0.20591987357E+03  0.89583892306E+02 0.  0.
        254    2    1    2    0    0  0.14877966336E+03 -0.85414679859E+02 -0.10884466324E+04  0.14017462993E+04  0.86645574625E+03 0.  0.
         23    2    4    4    0    0 -0.16308554822E+03 -0.13677927699E+03  0.32174536865E+02  0.23385985840E+03  0.91377053425E+02 0.  0.
         23    2    4    4    0    0  0.31186521158E+03  0.51364597134E+02 -0.11206211692E+04  0.11678864409E+04  0.90932402241E+02 0.  0.
          4    1    3    3  502    0 -0.12766304975E+03  0.33882079605E+02 -0.25721344303E+02  0.13456387755E+03  0.00000000000E+00 0. -1.
         -4    1    3    3    0  502 -0.21116613610E+02  0.51532600254E+02 -0.44611185911E+02  0.71355996018E+02  0.00000000000E+00 0.  1.
         13    1    5    5    0    0 -0.43878172800E+02 -0.28889254800E+02 -0.31129572454E+02  0.61064993019E+02  0.00000000000E+00 0. -1.
        -13    1    5    5    0    0 -0.11920737542E+03 -0.10789002219E+03  0.63304109319E+02  0.17279486538E+03  0.00000000000E+00 0.  1.
          4    1    6    6  503    0  0.50183134765E+02  0.37431069178E+02 -0.29911320817E+03  0.30559473696E+03  0.00000000000E+00 0.  1.
         -4    1    6    6    0  503  0.26168207682E+03  0.13933527956E+02 -0.82150796108E+03  0.86229170392E+03  0.00000000000E+00 0. -1.
<mgrwt>
<rscale>  0 0.11143704E+04</rscale>
<asrwt>0</asrwt>
<pdfrwt beam="1">  1        1 0.34529770E-01 0.11143704E+04</pdfrwt>
<pdfrwt beam="2">  1       -1 0.21280349E+00 0.11143704E+04</pdfrwt>
<totfact> 0.15699509E+01</totfact>
</mgrwt>
</event>
<event>
12    3  0.4192740E-008  0.1651284E+04  0.7818608E-02  0.8789647E-01
          1   -1    0    0  501    0  0.00000000000E+00  0.00000000000E+00  0.15550712095E+04  0.15550712095E+04  0.00000000000E+00 0. -1.
         -1   -1    0    0    0  501 -0.00000000000E+00 -0.00000000000E+00 -0.43836259151E+03  0.43836259151E+03  0.00000000000E+00 0.  1.
         23    2    1    2    0    0  0.26815667234E+03 -0.45508889111E+03  0.10345028992E+03  0.54613692359E+03  0.92464463922E+02 0.  0.
        254    2    1    2    0    0 -0.26815667234E+03  0.45508889111E+03  0.10132583281E+04  0.14472968774E+04  0.88823527980E+03 0.  0.
         23    2    4    4    0    0  0.91959884215E+02  0.40799306712E+03  0.98196579028E+03  0.10711506060E+04  0.90508808128E+02 0.  0.
         23    2    4    4    0    0 -0.36011655655E+03  0.47095823985E+02  0.31292537804E+02  0.37614627143E+03  0.92762296464E+02 0.  0.
          3    1    3    3  502    0  0.27547524320E+03 -0.43849177719E+03  0.10302872590E+03  0.52799296079E+03  0.00000000000E+00 0.  1.
         -3    1    3    3    0  502 -0.73185708600E+01 -0.16597113919E+02  0.42156402253E+00  0.18143962800E+02  0.00000000000E+00 0. -1.
         13    1    5    5    0    0  0.80611018597E+02  0.20620305977E+03  0.43635038874E+03  0.48930511946E+03  0.00000000000E+00 0. -1.
        -13    1    5    5    0    0  0.11348865618E+02  0.20179000735E+03  0.54561540154E+03  0.58184548655E+03  0.00000000000E+00 0.  1.
          1    1    6    6  503    0 -0.29949277257E+03  0.33950823615E+02  0.60754119071E+02  0.30747299431E+03  0.00000000000E+00 0. -1.
         -1    1    6    6    0  503 -0.60623783986E+02  0.13145000370E+02 -0.29461581268E+02  0.68673277119E+02  0.00000000000E+00 0.  1.
<mgrwt>
<rscale>  0 0.16512844E+04</rscale>
<asrwt>0</asrwt>
<pdfrwt beam="1">  1        1 0.23924172E+00 0.16512844E+04</pdfrwt>
<pdfrwt beam="2">  1       -1 0.67440400E-01 0.16512844E+04</pdfrwt>
<totfact> 0.12748613E+01</totfact>
</mgrwt>
</event>
<event>
12    3  0.4192740E-008  0.1840778E+04  0.7818608E-02  0.8684910E-01
          1   -1    0    0  501    0  0.00000000000E+00  0.00000000000E+00  0.11445028164E+04  0.11445028164E+04  0.00000000000E+00 0. -1.
         -1   -1    0    0    0  501 -0.00000000000E+00 -0.00000000000E+00 -0.74016086553E+03  0.74016086553E+03  0.00000000000E+00 0.  1.
         23    2    1    2    0    0 -0.56657846890E+03  0.21583626664E+03 -0.18935185824E+03  0.64206216734E+03  0.93772304520E+02 0.  0.
        254    2    1    2    0    0  0.56657846890E+03 -0.21583626664E+03  0.59369380916E+03  0.12426015146E+04  0.90773880039E+03 0.  0.
         23    2    4    4    0    0 -0.43802291396E+02  0.13412766136E+03 -0.14317255577E+03  0.21957478415E+03  0.88350635746E+02 0.  0.
         23    2    4    4    0    0  0.61038076030E+03 -0.34996392800E+03  0.73686636493E+03  0.10230267305E+04  0.92586327680E+02 0.  0.
          3    1    3    3  502    0 -0.10681369334E+03  0.58806687468E+01 -0.47874563265E+02  0.11719949299E+03  0.00000000000E+00 0. -1.
         -3    1    3    3    0  502 -0.45976477556E+03  0.20995559789E+03 -0.14147729498E+03  0.52486267435E+03  0.00000000000E+00 0.  1.
         13    1    5    5    0    0 -0.67230915775E+01  0.51416031535E+01 -0.62320349339E+02  0.62892463659E+02  0.00000000000E+00 0.  1.
        -13    1    5    5    0    0 -0.37079199819E+02  0.12898605821E+03 -0.80852206434E+02  0.15668232050E+03  0.00000000000E+00 0. -1.
          1    1    6    6  503    0  0.50568858558E+03 -0.32532603909E+03  0.60696423529E+03  0.85437904949E+03  0.00000000000E+00 0. -1.
         -1    1    6    6    0  503  0.10469217472E+03 -0.24637888909E+02  0.12990212964E+03  0.16864768099E+03  0.00000000000E+00 0.  1.
<mgrwt>
<rscale>  0 0.18407783E+04</rscale>
<asrwt>0</asrwt>
<pdfrwt beam="1">  1        1 0.17607736E+00 0.18407783E+04</pdfrwt>
<pdfrwt beam="2">  1       -1 0.11387090E+00 0.18407783E+04</pdfrwt>
<totfact> 0.77614967E+00</totfact>
</mgrwt>
</event>
<event>
12    3  0.4192740E-008  0.1888415E+04  0.7818608E-02  0.8660644E-01
          2   -1    0    0  501    0  0.00000000000E+00  0.00000000000E+00  0.22652960112E+04  0.22652960112E+04  0.00000000000E+00 0. -1.
         -2   -1    0    0    0  501 -0.00000000000E+00 -0.00000000000E+00 -0.39355928024E+03  0.39355928024E+03  0.00000000000E+00 0.  1.
         23    2    1    2    0    0 -0.64361337955E+03 -0.27058858286E+03  0.10023084580E+04  0.12250144904E+04  0.92638508687E+02 0.  0.
        254    2    1    2    0    0  0.64361337955E+03  0.27058858286E+03  0.86942827294E+03  0.14338408010E+04  0.90140865166E+03 0.  0.
         23    2    4    4    0    0  0.52423892112E+03  0.21869721552E+03  0.25578169607E+02  0.57525001765E+03  0.87197600642E+02 0.  0.
         23    2    4    4    0    0  0.11937445843E+03  0.51891367342E+02  0.84385010333E+03  0.85859078334E+03  0.90289318337E+02 0.  0.
          4    1    3    3  502    0 -0.54598950659E+03 -0.25430916120E+03  0.81816002477E+03  0.10159544856E+04  0.00000000000E+00 0. -1.
         -4    1    3    3    0  502 -0.97623872960E+02 -0.16279421655E+02  0.18414843321E+03  0.20906000477E+03  0.00000000000E+00 0.  1.
         13    1    5    5    0    0  0.37141841608E+03  0.15346260786E+03 -0.21804342410E+02  0.40246470797E+03  0.00000000000E+00 0. -1.
        -13    1    5    5    0    0  0.15282050504E+03  0.65234607660E+02  0.47382512017E+02  0.17278530968E+03  0.00000000000E+00 0.  1.
          1    1    6    6  503    0  0.96436133901E+02 -0.24541630958E+01  0.60012433645E+03  0.60782824058E+03  0.00000000000E+00 0. -1.
         -1    1    6    6    0  503  0.22938324530E+02  0.54345530438E+02  0.24372576688E+03  0.25076254276E+03  0.00000000000E+00 0.  1.
<mgrwt>
<rscale>  0 0.18884155E+04</rscale>
<asrwt>0</asrwt>
<pdfrwt beam="1">  1        2 0.34850707E+00 0.18884155E+04</pdfrwt>
<pdfrwt beam="2">  1       -2 0.60547583E-01 0.18884155E+04</pdfrwt>
<totfact> 0.11300536E+01</totfact>
</mgrwt>
</event>
<event>
12    3  0.4192740E-008  0.2593657E+04  0.7818608E-02  0.8370359E-01
         -2   -1    0    0    0  501 -0.00000000000E+00  0.00000000000E+00  0.65610384453E+03  0.65610384453E+03  0.00000000000E+00 0.  1.
          2   -1    0    0  501    0  0.00000000000E+00 -0.00000000000E+00 -0.25632600503E+04  0.25632600503E+04  0.00000000000E+00 0. -1.
         23    2    1    2    0    0  0.59506690286E+03  0.87093176186E+03 -0.30937007778E+03  0.11030812583E+04  0.91932935618E+02 0.  0.
        254    2    1    2    0    0 -0.59506690286E+03 -0.87093176186E+03 -0.15977861280E+04  0.21162826365E+04  0.90172331356E+03 0.  0.
         23    2    4    4    0    0  0.20889792004E+03 -0.32235744726E+03 -0.32702280081E+03  0.51294661158E+03  0.92831294736E+02 0.  0.
         23    2    4    4    0    0 -0.80396482290E+03 -0.54857431460E+03 -0.12707633272E+04  0.16033360250E+04  0.92486540267E+02 0.  0.
          2    1    3    3  502    0  0.28793637202E+03  0.43354404149E+03 -0.10529611352E+03  0.53099440841E+03  0.00000000000E+00 0. -1.
         -2    1    3    3    0  502  0.30713053084E+03  0.43738772037E+03 -0.20407396426E+03  0.57208684987E+03  0.00000000000E+00 0.  1.
         13    1    5    5    0    0  0.10409024734E+03 -0.15423723052E+03 -0.21871906940E+03  0.28716186061E+03  0.00000000000E+00 0.  1.
        -13    1    5    5    0    0  0.10480767270E+03 -0.16812021674E+03 -0.10830373141E+03  0.22578475097E+03  0.00000000000E+00 0. -1.
          4    1    6    6  503    0 -0.16206822665E+03 -0.13038935072E+03 -0.21784263803E+03  0.30120243660E+03  0.00000000000E+00 0.  1.
         -4    1    6    6    0  503 -0.64189659625E+03 -0.41818496389E+03 -0.10529206891E+04  0.13021335884E+04  0.00000000000E+00 0. -1.
<mgrwt>
<rscale>  0 0.25936575E+04</rscale>
<asrwt>0</asrwt>
<pdfrwt beam="1">  1        2 0.39434770E+00 0.25936575E+04</pdfrwt>
<pdfrwt beam="2">  1       -2 0.10093905E+00 0.25936575E+04</pdfrwt>
<totfact> 0.22859152E+00</totfact>
</mgrwt>
</event>
<event>
12    3  0.4192740E-008  0.1174726E+04  0.7818608E-02  0.9135271E-01
         -2   -1    0    0    0  501 -0.00000000000E+00  0.00000000000E+00  0.84754235587E+03  0.84754235587E+03  0.00000000000E+00 0.  1.
          2   -1    0    0  501    0  0.00000000000E+00 -0.00000000000E+00 -0.40705371121E+03  0.40705371121E+03  0.00000000000E+00 0. -1.
         23    2    1    2    0    0 -0.14572712548E+03  0.76747621416E+02  0.22151230382E+03  0.29083222052E+03  0.91591960666E+02 0.  0.
        254    2    1    2    0    0  0.14572712548E+03 -0.76747621416E+02  0.21897634084E+03  0.96376384657E+03  0.92399324760E+03 0.  0.
         23    2    4    4    0    0 -0.92562265883E+02  0.19204314395E+03 -0.26625940676E+03  0.35311167584E+03  0.91353389245E+02 0.  0.
         23    2    4    4    0    0  0.23828939136E+03 -0.26879076536E+03  0.48523574760E+03  0.61065217073E+03  0.91717137361E+02 0.  0.
          4    1    3    3  502    0 -0.58550379818E+02  0.57419946772E+02  0.16743685628E+03  0.18644113845E+03  0.00000000000E+00 0.  1.
         -4    1    3    3    0  502 -0.87176745657E+02  0.19327674644E+02  0.54075447537E+02  0.10439108208E+03  0.00000000000E+00 0. -1.
         13    1    5    5    0    0 -0.23069749867E+02  0.64322556781E+02 -0.27704454104E+02  0.73736974761E+02  0.00000000000E+00 0.  1.
        -13    1    5    5    0    0 -0.69492516017E+02  0.12772058716E+03 -0.23855495265E+03  0.27937470108E+03  0.00000000000E+00 0. -1.
          1    1    6    6  503    0  0.21554021644E+03 -0.26713153652E+03  0.42535690303E+03  0.54657601270E+03  0.00000000000E+00 0. -1.
         -1    1    6    6    0  503  0.22749174921E+02 -0.16592288395E+01  0.59878844574E+02  0.64076158027E+02  0.00000000000E+00 0.  1.
<mgrwt>
<rscale>  0 0.11747259E+04</rscale>
<asrwt>0</asrwt>
<pdfrwt beam="1">  1        2 0.62623648E-01 0.11747259E+04</pdfrwt>
<pdfrwt beam="2">  1       -2 0.13039113E+00 0.11747259E+04</pdfrwt>
<totfact> 0.33188512E+01</totfact>
</mgrwt>
</event>
<event>
12    3  0.4192740E-008  0.1810952E+04  0.7818608E-02  0.8700497E-01
         -1   -1    0    0    0  501 -0.00000000000E+00  0.00000000000E+00  0.22517156347E+03  0.22517156347E+03  0.00000000000E+00 0.  1.
          1   -1    0    0  501    0  0.00000000000E+00 -0.00000000000E+00 -0.36411662193E+04  0.36411662193E+04  0.00000000000E+00 0. -1.
         23    2    1    2    0    0 -0.25819939083E+03  0.24246994035E+03 -0.55516616907E+02  0.36993239098E+03  0.91155261766E+02 0.  0.
        254    2    1    2    0    0  0.25819939083E+03 -0.24246994035E+03 -0.33604780390E+04  0.34964053918E+04  0.89809766521E+03 0.  0.
         23    2    4    4    0    0  0.44657884425E+03  0.18257170098E+03 -0.16985472433E+04  0.17679873316E+04  0.89170494315E+02 0.  0.
         23    2    4    4    0    0 -0.18837945342E+03 -0.42504164132E+03 -0.16619307957E+04  0.17284180602E+04  0.96269443803E+02 0.  0.
          3    1    3    3  502    0 -0.74733768196E+02  0.58423030922E+02 -0.55813095347E+02  0.11006129321E+03  0.00000000000E+00 0. -1.
         -3    1    3    3    0  502 -0.18346562263E+03  0.18404690943E+03  0.29647844000E+00  0.25987109777E+03  0.00000000000E+00 0.  1.
         13    1    5    5    0    0  0.44049380068E+03  0.16976872815E+03 -0.16771331100E+04  0.17423064248E+04  0.00000000000E+00 0. -1.
        -13    1    5    5    0    0  0.60850435729E+01  0.12802972826E+02 -0.21414133308E+02  0.25680906795E+02  0.00000000000E+00 0.  1.
          3    1    6    6  503    0 -0.18540592845E+03 -0.38430875267E+03 -0.15836108802E+04  0.16400890206E+04  0.00000000000E+00 0. -1.
         -3    1    6    6    0  503 -0.29735249748E+01 -0.40732888649E+02 -0.78319915465E+02  0.88329039545E+02  0.00000000000E+00 0.  1.
<mgrwt>
<rscale>  0 0.18109523E+04</rscale>
<asrwt>0</asrwt>
<pdfrwt beam="1">  1        1 0.56017940E+00 0.18109523E+04</pdfrwt>
<pdfrwt beam="2">  1       -1 0.34641780E-01 0.18109523E+04</pdfrwt>
<totfact> 0.14469057E+00</totfact>
</mgrwt>
</event>
<event>
12    3  0.4192740E-008  0.1276502E+04  0.7818608E-02  0.9048410E-01
         -1   -1    0    0    0  501 -0.00000000000E+00  0.00000000000E+00  0.34896798772E+03  0.34896798772E+03  0.00000000000E+00 0.  1.
          1   -1    0    0  501    0  0.00000000000E+00 -0.00000000000E+00 -0.11673396283E+04  0.11673396283E+04  0.00000000000E+00 0. -1.
         23    2    1    2    0    0  0.23235172664E+03 -0.13923538171E+03 -0.39244449641E+03  0.48536299359E+03  0.90502687225E+02 0.  0.
        254    2    1    2    0    0 -0.23235172664E+03  0.13923538171E+03 -0.42592714413E+03  0.10309446224E+04  0.89892105655E+03 0.  0.
         23    2    4    4    0    0 -0.46362333611E+03  0.33512214619E+03 -0.41843756736E+03  0.71444954286E+03  0.89970555531E+02 0.  0.
         23    2    4    4    0    0  0.23127160947E+03 -0.19588676448E+03 -0.74895767769E+01  0.31649507952E+03  0.90856258748E+02 0.  0.
          1    1    3    3  502    0  0.19384846779E+03 -0.13655900855E+03 -0.37339254478E+03  0.44232067980E+03  0.00000000000E+00 0. -1.
         -1    1    3    3    0  502  0.38503258859E+02 -0.26763731659E+01 -0.19051951621E+02  0.43042313793E+02  0.00000000000E+00 0.  1.
         13    1    5    5    0    0 -0.15102538842E+03  0.16287568724E+03 -0.16555222189E+03  0.27702832998E+03  0.00000000000E+00 0.  1.
        -13    1    5    5    0    0 -0.31259794769E+03  0.17224645895E+03 -0.25288534547E+03  0.43742121288E+03  0.00000000000E+00 0. -1.
          4    1    6    6  503    0  0.17068603337E+03 -0.86553180432E+02 -0.67177926479E+01  0.19149491839E+03  0.00000000000E+00 0. -1.
         -4    1    6    6    0  503  0.60585576102E+02 -0.10933358404E+03 -0.77178412899E+00  0.12500016113E+03  0.00000000000E+00 0.  1.
<mgrwt>
<rscale>  0 0.12765017E+04</rscale>
<asrwt>0</asrwt>
<pdfrwt beam="1">  1        1 0.17959071E+00 0.12765017E+04</pdfrwt>
<pdfrwt beam="2">  1       -1 0.53687383E-01 0.12765017E+04</pdfrwt>
<totfact> 0.38911430E+01</totfact>
</mgrwt>
</event>
<event>
12    3  0.4192740E-008  0.1432706E+04  0.7818608E-02  0.8930478E-01
          1   -1    0    0  501    0  0.00000000000E+00  0.00000000000E+00  0.12829827995E+04  0.12829827995E+04  0.00000000000E+00 0. -1.
         -1   -1    0    0    0  501 -0.00000000000E+00 -0.00000000000E+00 -0.39997567031E+03  0.39997567031E+03  0.00000000000E+00 0.  1.
         23    2    1    2    0    0  0.84866537458E+02 -0.21817898941E+03  0.68084987917E+03  0.72559185838E+03  0.90125392608E+02 0.  0.
        254    2    1    2    0    0 -0.84866537458E+02  0.21817898941E+03  0.20215725000E+03  0.95736661140E+03  0.90602366101E+03 0.  0.
         23    2    4    4    0    0 -0.38762923567E+02 -0.27263181088E+03 -0.16789367329E+03  0.33426100463E+03  0.87814948285E+02 0.  0.
         23    2    4    4    0    0 -0.46103613892E+02  0.49081080028E+03  0.37005092329E+03  0.62310560677E+03  0.91116005576E+02 0.  0.
          3    1    3    3  502    0  0.30185085147E+02 -0.11295164197E+03  0.46325450286E+03  0.47778022899E+03  0.00000000000E+00 0. -1.
         -3    1    3    3    0  502  0.54681452311E+02 -0.10522734743E+03  0.21759537631E+03  0.24781162940E+03  0.00000000000E+00 0.  1.
         13    1    5    5    0    0 -0.53012044955E+02 -0.17225298660E+03 -0.14246958932E+03  0.22973670187E+03  0.00000000000E+00 0.  1.
        -13    1    5    5    0    0  0.14249121388E+02 -0.10037882428E+03 -0.25424083972E+02  0.10452430277E+03  0.00000000000E+00 0. -1.
          4    1    6    6  503    0 -0.41689722576E+02  0.24292888405E+03  0.13291526542E+03  0.28003382556E+03  0.00000000000E+00 0. -1.
         -4    1    6    6    0  503 -0.44138913156E+01  0.24788191623E+03  0.23713565787E+03  0.34307178121E+03  0.00000000000E+00 0.  1.
<mgrwt>
<rscale>  0 0.14327064E+04</rscale>
<asrwt>0</asrwt>
<pdfrwt beam="1">  1        1 0.19738197E+00 0.14327064E+04</pdfrwt>
<pdfrwt beam="2">  1       -1 0.61534719E-01 0.14327064E+04</pdfrwt>
<totfact> 0.24235062E+01</totfact>
</mgrwt>
</event>
<event>
12    3  0.4192740E-008  0.2161112E+04  0.7818608E-02  0.8534791E-01
          1   -1    0    0  501    0  0.00000000000E+00  0.00000000000E+00  0.31448556618E+04  0.31448556618E+04  0.00000000000E+00 0. -1.
         -1   -1    0    0    0  501 -0.00000000000E+00 -0.00000000000E+00 -0.37127353979E+03  0.37127353979E+03  0.00000000000E+00 0.  1.
         23    2    1    2    0    0 -0.54597288343E+03  0.65673695807E+02  0.95400800759E+01  0.55785114574E+03  0.93313792689E+02 0.  0.
        254    2    1    2    0    0  0.54597288343E+03 -0.65673695807E+02  0.27640420419E+04  0.29582780558E+04  0.89948942317E+03 0.  0.
         23    2    4    4    0    0  0.37351150427E+03 -0.27995831103E+03  0.55753103388E+03  0.73273931965E+03  0.90435375243E+02 0.  0.
         23    2    4    4    0    0  0.17246137916E+03  0.21428461522E+03  0.22065110080E+04  0.22255387362E+04  0.93118279676E+02 0.  0.
          2    1    3    3  502    0 -0.44883075122E+03  0.86676844887E+02  0.22194575596E+02  0.45766201269E+03  0.00000000000E+00 0. -1.
         -2    1    3    3    0  502 -0.97142132216E+02 -0.21003149080E+02 -0.12654495521E+02  0.10018913304E+03  0.00000000000E+00 0.  1.
         13    1    5    5    0    0  0.15898941198E+03 -0.10161385450E+03  0.16180156190E+03  0.24856136865E+03  0.00000000000E+00 0. -1.
        -13    1    5    5    0    0  0.21452209229E+03 -0.17834445653E+03  0.39572947197E+03  0.48417795101E+03  0.00000000000E+00 0.  1.
          1    1    6    6  503    0  0.13413812697E+02 -0.52615456610E+01  0.23953414834E+03  0.23996712786E+03  0.00000000000E+00 0. -1.
         -1    1    6    6    0  503  0.15904756646E+03  0.21954616088E+03  0.19669768597E+04  0.19855716083E+04  0.00000000000E+00 0.  1.
<mgrwt>
<rscale>  0 0.21611124E+04</rscale>
<asrwt>0</asrwt>
<pdfrwt beam="1">  1        1 0.48382393E+00 0.21611124E+04</pdfrwt>
<pdfrwt beam="2">  1       -1 0.57119008E-01 0.21611124E+04</pdfrwt>
<totfact> 0.13290901E+00</totfact>
</mgrwt>
</event>
<event>
12    3  0.4192740E-008  0.1565170E+04  0.7818608E-02  0.8842236E-01
          2   -1    0    0  501    0  0.00000000000E+00  0.00000000000E+00  0.52066803116E+03  0.52066803116E+03  0.00000000000E+00 0. -1.
         -2   -1    0    0    0  501 -0.00000000000E+00 -0.00000000000E+00 -0.11762560182E+04  0.11762560182E+04  0.00000000000E+00 0.  1.
         23    2    1    2    0    0  0.32413316805E+03  0.39318014294E+03 -0.14736529747E+03  0.53843288751E+03  0.92414869006E+02 0.  0.
        254    2    1    2    0    0 -0.32413316805E+03 -0.39318014294E+03 -0.50822268953E+03  0.11584911618E+04  0.90783177650E+03 0.  0.
         23    2    4    4    0    0 -0.27039428437E+02  0.25584601217E+03 -0.30631590839E+03  0.41077256579E+03  0.93361407640E+02 0.  0.
         23    2    4    4    0    0 -0.29709373962E+03 -0.64902615511E+03 -0.20190678114E+03  0.74771859603E+03  0.93899469923E+02 0.  0.
          1    1    3    3  502    0  0.23936238180E+03  0.32935899177E+03 -0.14530858671E+03  0.43230345899E+03  0.00000000000E+00 0. -1.
         -1    1    3    3    0  502  0.84770786251E+02  0.63821151171E+02 -0.20567107643E+01  0.10612942852E+03  0.00000000000E+00 0.  1.
         13    1    5    5    0    0 -0.88271730531E+00  0.24518013401E+03 -0.26900902777E+03  0.36397793109E+03  0.00000000000E+00 0.  1.
        -13    1    5    5    0    0 -0.26156711132E+02  0.10665878158E+02 -0.37306880623E+02  0.46794634692E+02  0.00000000000E+00 0. -1.
          4    1    6    6  503    0 -0.30206793126E+02 -0.78750520317E+02 -0.56468088998E+02  0.10150241315E+03  0.00000000000E+00 0. -1.
         -4    1    6    6    0  503 -0.26688694649E+03 -0.57027563479E+03 -0.14543869214E+03  0.64621618288E+03  0.00000000000E+00 0.  1.
<mgrwt>
<rscale>  0 0.15651695E+04</rscale>
<asrwt>0</asrwt>
<pdfrwt beam="1">  1        2 0.80102774E-01 0.15651695E+04</pdfrwt>
<pdfrwt beam="2">  1       -2 0.18096247E+00 0.15651695E+04</pdfrwt>
<totfact> 0.10073156E+01</totfact>
</mgrwt>
</event>
<event>
12    3  0.4192740E-008  0.1945617E+04  0.7818608E-02  0.8632477E-01
          2   -1    0    0  501    0  0.00000000000E+00  0.00000000000E+00  0.63638731314E+03  0.63638731314E+03  0.00000000000E+00 0. -1.
         -2   -1    0    0    0  501 -0.00000000000E+00 -0.00000000000E+00 -0.14870762391E+04  0.14870762391E+04  0.00000000000E+00 0.  1.
         23    2    1    2    0    0 -0.70728105192E+02 -0.42254838216E+03 -0.10251302853E+04  0.11149763518E+04  0.93437482554E+02 0.  0.
        254    2    1    2    0    0  0.70728105192E+02  0.42254838216E+03  0.17444135934E+03  0.10084872004E+04  0.89614008136E+03 0.  0.
         23    2    4    4    0    0  0.40701173729E+03  0.17543165325E+03  0.32366206576E+03  0.55617092164E+03  0.90189478416E+02 0.  0.
         23    2    4    4    0    0 -0.33628363210E+03  0.24711672891E+03 -0.14922070642E+03  0.45231627877E+03  0.90387155572E+02 0.  0.
          3    1    3    3  502    0 -0.10836010803E+02 -0.30504954230E+03 -0.67408154776E+03  0.73997200989E+03  0.00000000000E+00 0. -1.
         -3    1    3    3    0  502 -0.59892094390E+02 -0.11749883986E+03 -0.35104873749E+03  0.37500434188E+03  0.00000000000E+00 0.  1.
         13    1    5    5    0    0  0.36712856801E+03  0.17704013594E+03  0.31550139960E+03  0.51542965410E+03  0.00000000000E+00 0. -1.
        -13    1    5    5    0    0  0.39883169283E+02 -0.16084826944E+01  0.81606661642E+01  0.40741267541E+02  0.00000000000E+00 0.  1.
          3    1    6    6  503    0 -0.32387817853E+03  0.20808360380E+03 -0.14406504366E+03  0.41103600512E+03  0.00000000000E+00 0. -1.
         -3    1    6    6    0  503 -0.12405453565E+02  0.39033125115E+02 -0.51556627607E+01  0.41280273653E+02  0.00000000000E+00 0.  1.
<mgrwt>
<rscale>  0 0.19456171E+04</rscale>
<asrwt>0</asrwt>
<pdfrwt beam="1">  1        2 0.97905740E-01 0.19456171E+04</pdfrwt>
<pdfrwt beam="2">  1       -2 0.22878096E+00 0.19456171E+04</pdfrwt>
<totfact> 0.37457487E+00</totfact>
</mgrwt>
</event>
<event>
12    3  0.4192740E-008  0.1817249E+04  0.7818608E-02  0.8697180E-01
         -2   -1    0    0    0  501 -0.00000000000E+00  0.00000000000E+00  0.20502875153E+03  0.20502875153E+03  0.00000000000E+00 0.  1.
          2   -1    0    0  501    0  0.00000000000E+00 -0.00000000000E+00 -0.40267456081E+04  0.40267456081E+04  0.00000000000E+00 0. -1.
         23    2    1    2    0    0 -0.26421150511E+03 -0.63033259583E+03 -0.15314574537E+04  0.16789474318E+04  0.79847638362E+02 0.  0.
        254    2    1    2    0    0  0.26421150511E+03  0.63033259583E+03 -0.22902594028E+04  0.25528269278E+04  0.89694497623E+03 0.  0.
         23    2    4    4    0    0 -0.21357522696E+03  0.13730926298E+03 -0.13961308557E+04  0.14220114492E+04  0.92016216824E+02 0.  0.
         23    2    4    4    0    0  0.47778673207E+03  0.49302333285E+03 -0.89412854715E+03  0.11308154786E+04  0.89025950383E+02 0.  0.
          2    1    3    3  502    0  0.92186591533E-01 -0.51906356308E+02 -0.10389788350E+03  0.11614236315E+03  0.00000000000E+00 0.  1.
         -2    1    3    3    0  502 -0.26430369170E+03 -0.57842623953E+03 -0.14275595702E+04  0.15628050687E+04  0.00000000000E+00 0. -1.
         13    1    5    5    0    0 -0.74980622086E+02  0.41883388198E+02 -0.26868765157E+03  0.28208042470E+03  0.00000000000E+00 0.  1.
        -13    1    5    5    0    0 -0.13859460487E+03  0.95425874786E+02 -0.11274432041E+04  0.11399310245E+04  0.00000000000E+00 0. -1.
          2    1    6    6  503    0  0.23742837456E+02  0.41947757738E+02 -0.98935030067E+02  0.11005215529E+03  0.00000000000E+00 0.  1.
         -2    1    6    6    0  503  0.45404389461E+03  0.45107557511E+03 -0.79519351709E+03  0.10207633234E+04  0.00000000000E+00 0. -1.
<mgrwt>
<rscale>  0 0.18172492E+04</rscale>
<asrwt>0</asrwt>
<pdfrwt beam="1">  1        2 0.61949932E+00 0.18172492E+04</pdfrwt>
<pdfrwt beam="2">  1       -2 0.31542885E-01 0.18172492E+04</pdfrwt>
<totfact> 0.29055269E+00</totfact>
</mgrwt>
</event>
<event>
12    3  0.4192740E-008  0.1700467E+04  0.7818608E-02  0.8761098E-01
         -1   -1    0    0    0  501 -0.00000000000E+00  0.00000000000E+00  0.34369808436E+03  0.34369808436E+03  0.00000000000E+00 0.  1.
          1   -1    0    0  501    0  0.00000000000E+00 -0.00000000000E+00 -0.21032917504E+04  0.21032917504E+04  0.00000000000E+00 0. -1.
         23    2    1    2    0    0 -0.19125844646E+03  0.37299919605E+03 -0.12744385150E+04  0.13444970871E+04  0.88151546303E+02 0.  0.
        254    2    1    2    0    0  0.19125844646E+03 -0.37299919605E+03 -0.48515515103E+03  0.11024927476E+04  0.89688714142E+03 0.  0.
         23    2    4    4    0    0  0.11379896592E+03  0.28127771097E+03 -0.22433744267E+03  0.38774181491E+03  0.89157565680E+02 0.  0.
         23    2    4    4    0    0  0.77459480544E+02 -0.65427690703E+03 -0.26081770836E+03  0.71475093273E+03  0.93620385891E+02 0.  0.
          3    1    3    3  502    0 -0.97249741157E+02  0.20470559965E+03 -0.82275982175E+03  0.85340237811E+03  0.00000000000E+00 0. -1.
         -3    1    3    3    0  502 -0.94008705303E+02  0.16829359640E+03 -0.45167869328E+03  0.49109470901E+03  0.00000000000E+00 0.  1.
         13    1    5    5    0    0  0.11671264946E+03  0.25537699046E+03 -0.17200903223E+03  0.32928157702E+03  0.00000000000E+00 0.  1.
        -13    1    5    5    0    0 -0.29136835455E+01  0.25900720513E+02 -0.52328410443E+02  0.58460237892E+02  0.00000000000E+00 0. -1.
          2    1    6    6  503    0  0.23316059926E+02 -0.28991802645E+03 -0.16389775047E+03  0.33385411982E+03  0.00000000000E+00 0. -1.
         -2    1    6    6    0  503  0.54143420617E+02 -0.36435888057E+03 -0.96919957893E+02  0.38089681291E+03  0.00000000000E+00 0.  1.
<mgrwt>
<rscale>  0 0.17004674E+04</rscale>
<asrwt>0</asrwt>
<pdfrwt beam="1">  1        1 0.32358335E+00 0.17004674E+04</pdfrwt>
<pdfrwt beam="2">  1       -1 0.52876629E-01 0.17004674E+04</pdfrwt>
<totfact> 0.87027938E+00</totfact>
</mgrwt>
</event>
<event>
12    3  0.4192740E-008  0.2280461E+04  0.7818608E-02  0.8485665E-01
         -1   -1    0    0    0  501 -0.00000000000E+00  0.00000000000E+00  0.34735627613E+03  0.34735627613E+03  0.00000000000E+00 0.  1.
          1   -1    0    0  501    0  0.00000000000E+00 -0.00000000000E+00 -0.37429171639E+04  0.37429171639E+04  0.00000000000E+00 0. -1.
         23    2    1    2    0    0 -0.42198081233E+02  0.72407872045E+03 -0.31584990153E+03  0.79635185657E+03  0.91347948499E+02 0.  0.
        254    2    1    2    0    0  0.42198081233E+02 -0.72407872045E+03 -0.30797109863E+04  0.32939215835E+04  0.91609440981E+03 0.  0.
         23    2    4    4    0    0  0.47473953249E+02 -0.33795967721E+03 -0.24219558360E+03  0.42873690351E+03  0.93199313579E+02 0.  0.
         23    2    4    4    0    0 -0.52758720167E+01 -0.38611904324E+03 -0.28375154027E+04  0.28651846800E+04  0.93133450532E+02 0.  0.
          3    1    3    3  502    0 -0.65867651313E+01  0.15033062960E+01 -0.70087664764E+01  0.97348966217E+01  0.00000000000E+00 0. -1.
         -3    1    3    3    0  502 -0.35611316101E+02  0.72257541416E+03 -0.30884113505E+03  0.78661695995E+03  0.00000000000E+00 0.  1.
         13    1    5    5    0    0 -0.21044024573E+02 -0.12323459969E+03 -0.58784958904E+02  0.13814951656E+03  0.00000000000E+00 0.  1.
        -13    1    5    5    0    0  0.68517977822E+02 -0.21472507752E+03 -0.18341062470E+03  0.29058738695E+03  0.00000000000E+00 0. -1.
          1    1    6    6  503    0 -0.36775612726E+02 -0.32801815716E+03 -0.22808010445E+04  0.23045610779E+04  0.00000000000E+00 0. -1.
         -1    1    6    6    0  503  0.31499740709E+02 -0.58100886076E+02 -0.55671435817E+03  0.56062360209E+03  0.00000000000E+00 0.  1.
<mgrwt>
<rscale>  0 0.22804612E+04</rscale>
<asrwt>0</asrwt>
<pdfrwt beam="1">  1        1 0.57583344E+00 0.22804612E+04</pdfrwt>
<pdfrwt beam="2">  1       -1 0.53439425E-01 0.22804612E+04</pdfrwt>
<totfact> 0.51033125E-01</totfact>
</mgrwt>
</event>
<event>
12    3  0.4192740E-008  0.1563673E+04  0.7818608E-02  0.8843181E-01
          2   -1    0    0  501    0  0.00000000000E+00  0.00000000000E+00  0.76397455526E+03  0.76397455526E+03  0.00000000000E+00 0.  1.
         -2   -1    0    0    0  501 -0.00000000000E+00 -0.00000000000E+00 -0.80011599940E+03  0.80011599940E+03  0.00000000000E+00 0. -1.
         23    2    1    2    0    0 -0.96734639613E+02 -0.42393282590E+03 -0.31640647704E+03  0.54558407727E+03  0.92045072001E+02 0.  0.
        254    2    1    2    0    0  0.96734639613E+02  0.42393282590E+03  0.28026503291E+03  0.10185064774E+04  0.87734276337E+03 0.  0.
         23    2    4    4    0    0  0.14966496638E+03  0.17929756373E+03  0.57142517198E+03  0.62400971085E+03  0.91182090070E+02 0.  0.
         23    2    4    4    0    0 -0.52930326769E+02  0.24463526218E+03 -0.29116013907E+03  0.39449676654E+03  0.90583890597E+02 0.  0.
          4    1    3    3  502    0 -0.47550867721E+02 -0.60536967624E+02 -0.43035029637E+02  0.88191968149E+02  0.00000000000E+00 0.  1.
         -4    1    3    3    0  502 -0.49183771892E+02 -0.36339585828E+03 -0.27337144740E+03  0.45739210912E+03  0.00000000000E+00 0. -1.
         13    1    5    5    0    0  0.41885235743E+02  0.50729063420E+02  0.28110922402E+03  0.28870435861E+03  0.00000000000E+00 0. -1.
        -13    1    5    5    0    0  0.10777973064E+03  0.12856850031E+03  0.29031594796E+03  0.33530535225E+03  0.00000000000E+00 0.  1.
          3    1    6    6  503    0 -0.44849454205E+02  0.52260221276E+02 -0.11207545820E+03  0.13154281661E+03  0.00000000000E+00 0. -1.
         -3    1    6    6    0  503 -0.80808725648E+01  0.19237504090E+03 -0.17908468086E+03  0.26295394993E+03  0.00000000000E+00 0.  1.
<mgrwt>
<rscale>  0 0.15636729E+04</rscale>
<asrwt>0</asrwt>
<pdfrwt beam="1">  1        2 0.11753455E+00 0.15636729E+04</pdfrwt>
<pdfrwt beam="2">  1       -2 0.12309477E+00 0.15636729E+04</pdfrwt>
<totfact> 0.17538984E+01</totfact>
</mgrwt>
</event>
<event>
12    3  0.4192740E-008  0.3836115E+04  0.7818608E-02  0.8038449E-01
          2   -1    0    0  501    0  0.00000000000E+00  0.00000000000E+00  0.31713376142E+04  0.31713376142E+04  0.00000000000E+00 0. -1.
         -2   -1    0    0    0  501 -0.00000000000E+00 -0.00000000000E+00 -0.11600610636E+04  0.11600610636E+04  0.00000000000E+00 0.  1.
         23    2    1    2    0    0 -0.37889950106E+01 -0.15112312891E+04  0.20754770937E+04  0.25690058314E+04  0.91386158552E+02 0.  0.
        254    2    1    2    0    0  0.37889950106E+01  0.15112312891E+04 -0.64200543143E+02  0.17623928463E+04  0.90447358693E+03 0.  0.
         23    2    4    4    0    0  0.23797766096E+03  0.11609067181E+04 -0.35676913442E+03  0.12412810729E+04  0.95690706474E+02 0.  0.
         23    2    4    4    0    0 -0.23418866595E+03  0.35032457100E+03  0.29256859127E+03  0.52111177348E+03  0.91594014852E+02 0.  0.
          3    1    3    3  502    0  0.36432516074E+01 -0.11499170830E+04  0.16425175047E+04  0.20050402301E+04  0.00000000000E+00 0. -1.
         -3    1    3    3    0  502 -0.74322466180E+01 -0.36131420605E+03  0.43295958897E+03  0.56396560132E+03  0.00000000000E+00 0.  1.
         13    1    5    5    0    0 -0.77052595244E+01  0.41682751382E+02 -0.20508240166E+02  0.47089390544E+02  0.00000000000E+00 0. -1.
        -13    1    5    5    0    0  0.24568292049E+03  0.11192239667E+04 -0.33626089425E+03  0.11941916823E+04  0.00000000000E+00 0.  1.
          4    1    6    6  503    0 -0.12462652055E+03  0.25373369221E+03  0.16587998082E+03  0.32776321365E+03  0.00000000000E+00 0. -1.
         -4    1    6    6    0  503 -0.10956214540E+03  0.96590878792E+02  0.12668861045E+03  0.19334855983E+03  0.00000000000E+00 0.  1.
<mgrwt>
<rscale>  0 0.38361154E+04</rscale>
<asrwt>0</asrwt>
<pdfrwt beam="1">  1        2 0.48789809E+00 0.38361154E+04</pdfrwt>
<pdfrwt beam="2">  1       -2 0.17847094E+00 0.38361154E+04</pdfrwt>
<totfact> 0.20088810E-01</totfact>
</mgrwt>
</event>
<event>
12    3  0.4410788E-008  0.1774985E+04  0.7818608E-02  0.8719716E-01
         -1   -1    0    0    0  501 -0.00000000000E+00  0.00000000000E+00  0.29961972028E+03  0.29961972028E+03  0.00000000000E+00 0.  1.
          1   -1    0    0  501    0  0.00000000000E+00 -0.00000000000E+00 -0.26288096774E+04  0.26288096774E+04  0.00000000000E+00 0. -1.
         23    2    1    2    0    0 -0.30678466567E+03  0.32971889355E+03 -0.81362667814E+02  0.46659752507E+03  0.90895472054E+02 0.  0.
        254    2    1    2    0    0  0.30678466567E+03 -0.32971889355E+03 -0.22478272893E+04  0.24618318726E+04  0.89724983508E+03 0.  0.
         23    2    4    4    0    0  0.60209010274E+03 -0.24626589542E+03 -0.17605044712E+04  0.18788481806E+04  0.86805007789E+02 0.  0.
         23    2    4    4    0    0 -0.29530543707E+03 -0.83452998125E+02 -0.48732281813E+03  0.58298369207E+03  0.90646302141E+02 0.  0.
          3    1    3    3  502    0 -0.48243326523E+02  0.23792826740E+02  0.12454551169E+02  0.55214427491E+02  0.00000000000E+00 0. -1.
         -3    1    3    3    0  502 -0.25854133915E+03  0.30592606681E+03 -0.93817218983E+02  0.41138309758E+03  0.00000000000E+00 0.  1.
         13    1    5    5    0    0  0.35907063282E+03 -0.11512703864E+03 -0.92556748532E+03  0.99943039991E+03  0.00000000000E+00 0.  1.
        -13    1    5    5    0    0  0.24301946992E+03 -0.13113885678E+03 -0.83493698589E+03  0.87941778065E+03  0.00000000000E+00 0. -1.
          4    1    6    6  503    0 -0.15515772404E+03 -0.22506569522E+02 -0.17297014084E+03  0.23345049716E+03  0.00000000000E+00 0. -1.
         -4    1    6    6    0  503 -0.14014771303E+03 -0.60946428603E+02 -0.31435267729E+03  0.34953319491E+03  0.00000000000E+00 0.  1.
<mgrwt>
<rscale>  0 0.17749853E+04</rscale>
<asrwt>0</asrwt>
<pdfrwt beam="1">  1        1 0.40443225E+00 0.17749853E+04</pdfrwt>
<pdfrwt beam="2">  1       -1 0.46095342E-01 0.17749853E+04</pdfrwt>
<totfact> 0.48840085E+00</totfact>
</mgrwt>
</event>
<event>
12    3  0.4192740E-008  0.3054656E+04  0.7818608E-02  0.8228293E-01
          1   -1    0    0  501    0  0.00000000000E+00  0.00000000000E+00  0.32797713748E+04  0.32797713748E+04  0.00000000000E+00 0. -1.
         -1   -1    0    0    0  501 -0.00000000000E+00 -0.00000000000E+00 -0.71124814869E+03  0.71124814869E+03  0.00000000000E+00 0.  1.
         23    2    1    2    0    0  0.21434306381E+03  0.11807847546E+04  0.21099537725E+04  0.24291423643E+04  0.92909194734E+02 0.  0.
        254    2    1    2    0    0 -0.21434306381E+03 -0.11807847546E+04  0.45856945363E+03  0.15618771592E+04  0.88824474719E+03 0.  0.
         23    2    4    4    0    0  0.18283218190E+03 -0.19101507884E+03 -0.16297494375E+03  0.32409176972E+03  0.92521758678E+02 0.  0.
         23    2    4    4    0    0 -0.39717524571E+03 -0.98976967573E+03  0.62154439737E+03  0.12377853894E+04  0.91668127690E+02 0.  0.
          2    1    3    3  502    0  0.13115669236E+03  0.88870661035E+03  0.15202261817E+04  0.17658111906E+04  0.00000000000E+00 0. -1.
         -2    1    3    3    0  502  0.83186371456E+02  0.29207814422E+03  0.58972759077E+03  0.66333117373E+03  0.00000000000E+00 0.  1.
         13    1    5    5    0    0  0.18323829830E+03 -0.19558389810E+03 -0.16875435212E+03  0.31671338229E+03  0.00000000000E+00 0. -1.
        -13    1    5    5    0    0 -0.40611640819E+00  0.45688192561E+01  0.57794083741E+01  0.73783874313E+01  0.00000000000E+00 0.  1.
          1    1    6    6  503    0 -0.32432126301E+03 -0.88426932604E+03  0.53680869569E+03  0.10841033615E+04  0.00000000000E+00 0. -1.
         -1    1    6    6    0  503 -0.72853982699E+02 -0.10550034969E+03  0.84735701686E+02  0.15368202797E+03  0.00000000000E+00 0.  1.
<mgrwt>
<rscale>  0 0.30546563E+04</rscale>
<asrwt>0</asrwt>
<pdfrwt beam="1">  1        1 0.50458020E+00 0.30546563E+04</pdfrwt>
<pdfrwt beam="2">  1       -1 0.10942279E+00 0.30546563E+04</pdfrwt>
<totfact> 0.24197875E-01</totfact>
</mgrwt>
</event>
<event>
12    3  0.4192740E-008  0.1294543E+04  0.7818608E-02  0.9033904E-01
         -3   -1    0    0    0  501 -0.00000000000E+00  0.00000000000E+00  0.43277471481E+03  0.43277471481E+03  0.00000000000E+00 0.  1.
          3   -1    0    0  501    0  0.00000000000E+00 -0.00000000000E+00 -0.96807960093E+03  0.96807960093E+03  0.00000000000E+00 0. -1.
         23    2    1    2    0    0  0.30636191331E+03  0.10219141293E+03 -0.89780305228E+02  0.34777614883E+03  0.92666281287E+02 0.  0.
        254    2    1    2    0    0 -0.30636191331E+03 -0.10219141293E+03 -0.44552458089E+03  0.10530781669E+04  0.89787569664E+03 0.  0.
         23    2    4    4    0    0  0.22969189435E+03 -0.14266613672E+03 -0.41929768454E+03  0.50726480768E+03  0.91624472457E+02 0.  0.
         23    2    4    4    0    0 -0.53605380766E+03  0.40474723790E+02 -0.26226896353E+02  0.54581335922E+03  0.90733042683E+02 0.  0.
          3    1    3    3  502    0  0.55548754814E+02 -0.11190371513E+02 -0.36539290520E+02  0.67424093080E+02  0.00000000000E+00 0. -1.
         -3    1    3    3    0  502  0.25081315850E+03  0.11338178444E+03 -0.53241014708E+02  0.28035205575E+03  0.00000000000E+00 0.  1.
         13    1    5    5    0    0  0.52290382445E+01 -0.31297686766E+02 -0.26458666789E+02  0.41315240361E+02  0.00000000000E+00 0.  1.
        -13    1    5    5    0    0  0.22446285611E+03 -0.11136844995E+03 -0.39283901775E+03  0.46594956732E+03  0.00000000000E+00 0. -1.
          2    1    6    6  503    0 -0.37427094684E+03 -0.13490163516E+02 -0.12642734663E+02  0.37472732073E+03  0.00000000000E+00 0.  1.
         -2    1    6    6    0  503 -0.16178286082E+03  0.53964887306E+02 -0.13584161690E+02  0.17108603849E+03  0.00000000000E+00 0. -1.
<mgrwt>
<rscale>  0 0.12945430E+04</rscale>
<asrwt>0</asrwt>
<pdfrwt beam="1">  1        3 0.14893532E+00 0.12945430E+04</pdfrwt>
<pdfrwt beam="2">  1       -3 0.66580726E-01 0.12945430E+04</pdfrwt>
<totfact> 0.18418807E+00</totfact>
</mgrwt>
</event>
<event>
12    3  0.4192740E-008  0.1640938E+04  0.7818608E-02  0.8795786E-01
         -1   -1    0    0    0  501 -0.00000000000E+00  0.00000000000E+00  0.57469095231E+03  0.57469095231E+03  0.00000000000E+00 0.  1.
          1   -1    0    0  501    0  0.00000000000E+00 -0.00000000000E+00 -0.11713583812E+04  0.11713583812E+04  0.00000000000E+00 0. -1.
         23    2    1    2    0    0  0.29784593243E+03 -0.12265847997E+03 -0.70797124722E+03  0.78355368384E+03  0.94740627010E+02 0.  0.
        254    2    1    2    0    0 -0.29784593243E+03  0.12265847997E+03  0.11130381832E+03  0.96249564967E+03  0.90014000772E+03 0.  0.
         23    2    4    4    0    0  0.19803834172E+03  0.24848822339E+03  0.26121776838E+03  0.42136408839E+03  0.91364054803E+02 0.  0.
         23    2    4    4    0    0 -0.49588427415E+03 -0.12582974342E+03 -0.14991395006E+03  0.54113156128E+03  0.92816143620E+02 0.  0.
          3    1    3    3  502    0  0.18518193746E+03 -0.77185237658E+02 -0.54143681765E+03  0.57741123853E+03  0.00000000000E+00 0. -1.
         -3    1    3    3    0  502  0.11266399497E+03 -0.45473242312E+02 -0.16653442957E+03  0.20614244532E+03  0.00000000000E+00 0.  1.
         13    1    5    5    0    0 -0.66287271727E+01  0.17009997072E+02  0.31258672431E+02  0.36199235164E+02  0.00000000000E+00 0.  1.
        -13    1    5    5    0    0  0.20466706890E+03  0.23147822632E+03  0.22995909595E+03  0.38516485323E+03  0.00000000000E+00 0. -1.
          2    1    6    6  503    0 -0.31237154878E+03 -0.33569095752E+02 -0.80492343720E+02  0.32431756979E+03  0.00000000000E+00 0. -1.
         -2    1    6    6    0  503 -0.18351272538E+03 -0.92260647670E+02 -0.69421606337E+02  0.21681399150E+03  0.00000000000E+00 0.  1.
<mgrwt>
<rscale>  0 0.16409376E+04</rscale>
<asrwt>0</asrwt>
<pdfrwt beam="1">  1        1 0.18020898E+00 0.16409376E+04</pdfrwt>
<pdfrwt beam="2">  1       -1 0.88413993E-01 0.16409376E+04</pdfrwt>
<totfact> 0.13476316E+01</totfact>
</mgrwt>
</event>
<event>
12    3  0.4192740E-008  0.1427630E+04  0.7818608E-02  0.8934058E-01
          2   -1    0    0  501    0  0.00000000000E+00  0.00000000000E+00  0.50848684957E+03  0.50848684957E+03  0.00000000000E+00 0.  1.
         -2   -1    0    0    0  501 -0.00000000000E+00 -0.00000000000E+00 -0.10020557038E+04  0.10020557038E+04  0.00000000000E+00 0. -1.
         23    2    1    2    0    0 -0.15899741142E+03 -0.30973962143E+03  0.88350732980E+02  0.37040607329E+03  0.90421220914E+02 0.  0.
        254    2    1    2    0    0  0.15899741142E+03  0.30973962143E+03 -0.58191958719E+03  0.11401364801E+04  0.91654894974E+03 0.  0.
         23    2    4    4    0    0  0.30101197563E+03  0.92681130973E+02  0.14709204861E+03  0.36096832747E+03  0.97283406404E+02 0.  0.
         23    2    4    4    0    0 -0.14201456421E+03  0.21705849045E+03 -0.72901163580E+03  0.77916815258E+03  0.91446815919E+02 0.  0.
          1    1    3    3  502    0 -0.93883387707E+02 -0.24102204524E+03  0.33035435222E+02  0.26076245274E+03  0.00000000000E+00 0. -1.
         -1    1    3    3    0  502 -0.65114023712E+02 -0.68717576189E+02  0.55315297759E+02  0.10964362055E+03  0.00000000000E+00 0.  1.
         13    1    5    5    0    0  0.11632062345E+03  0.84743516334E+02  0.77369639486E+02  0.16339526344E+03  0.00000000000E+00 0.  1.
        -13    1    5    5    0    0  0.18469135218E+03  0.79376146383E+01  0.69722409125E+02  0.19757306403E+03  0.00000000000E+00 0. -1.
          1    1    6    6  503    0 -0.60879595969E+02  0.42584285598E+02 -0.12679156042E+03  0.14695525299E+03  0.00000000000E+00 0. -1.
         -1    1    6    6    0  503 -0.81134968242E+02  0.17447420486E+03 -0.60222007538E+03  0.63221289960E+03  0.00000000000E+00 0.  1.
<mgrwt>
<rscale>  0 0.14276304E+04</rscale>
<asrwt>0</asrwt>
<pdfrwt beam="1">  1        2 0.78228747E-01 0.14276304E+04</pdfrwt>
<pdfrwt beam="2">  1       -2 0.15416241E+00 0.14276304E+04</pdfrwt>
<totfact> 0.16321913E+01</totfact>
</mgrwt>
</event>
<event>
12    3  0.4192740E-008  0.1299535E+04  0.7818608E-02  0.9029934E-01
         -2   -1    0    0    0  501 -0.00000000000E+00  0.00000000000E+00  0.11709436411E+04  0.11709436411E+04  0.00000000000E+00 0.  1.
          2   -1    0    0  501    0  0.00000000000E+00 -0.00000000000E+00 -0.36056200973E+03  0.36056200973E+03  0.00000000000E+00 0. -1.
         23    2    1    2    0    0 -0.29025363341E+03  0.32557349371E+02  0.39053502229E+03  0.49595808741E+03  0.90275512304E+02 0.  0.
        254    2    1    2    0    0  0.29025363341E+03 -0.32557349371E+02  0.41984660912E+03  0.10355475635E+04  0.90043346690E+03 0.  0.
         23    2    4    4    0    0 -0.18583433955E+03 -0.22261129968E+03 -0.78692074407E+02  0.31421446569E+03  0.91913521175E+02 0.  0.
         23    2    4    4    0    0  0.47608797296E+03  0.19005395031E+03  0.49853868352E+03  0.72133309777E+03  0.94870211062E+02 0.  0.
          3    1    3    3  502    0 -0.20672749418E+03  0.13137842635E+02  0.33474451439E+03  0.39365308290E+03  0.00000000000E+00 0. -1.
         -3    1    3    3    0  502 -0.83526139226E+02  0.19419506736E+02  0.55790507906E+02  0.10230500451E+03  0.00000000000E+00 0.  1.
         13    1    5    5    0    0 -0.87699890970E+02 -0.15308584966E+03 -0.80521209034E+02  0.19393352817E+03  0.00000000000E+00 0.  1.
        -13    1    5    5    0    0 -0.98134448584E+02 -0.69525450017E+02  0.18291346275E+01  0.12028093753E+03  0.00000000000E+00 0. -1.
          3    1    6    6  503    0  0.13982750588E+03  0.46845840649E+02  0.20518351540E+03  0.25267872720E+03  0.00000000000E+00 0.  1.
         -3    1    6    6    0  503  0.33626046708E+03  0.14320810966E+03  0.29335516812E+03  0.46865437057E+03  0.00000000000E+00 0. -1.
<mgrwt>
<rscale>  0 0.12995350E+04</rscale>
<asrwt>0</asrwt>
<pdfrwt beam="1">  1        2 0.55471079E-01 0.12995350E+04</pdfrwt>
<pdfrwt beam="2">  1       -2 0.18014517E+00 0.12995350E+04</pdfrwt>
<totfact> 0.15830563E+01</totfact>
</mgrwt>
</event>
<event>
12    3  0.4192740E-008  0.1409182E+04  0.7818608E-02  0.8947199E-01
         -4   -1    0    0    0  501 -0.00000000000E+00  0.00000000000E+00  0.21568003353E+03  0.21568003353E+03  0.00000000000E+00 0.  1.
          4   -1    0    0  501    0  0.00000000000E+00 -0.00000000000E+00 -0.23017817215E+04  0.23017817215E+04  0.00000000000E+00 0. -1.
         23    2    1    2    0    0 -0.17226300754E+03 -0.84567096802E+02  0.16204026025E+02  0.22830999074E+03  0.12262440126E+03 0.  0.
        254    2    1    2    0    0  0.17226300754E+03  0.84567096802E+02 -0.21023057140E+04  0.22891517643E+04  0.88526851701E+03 0.  0.
         23    2    4    4    0    0 -0.17185310898E+03  0.53877420730E+02 -0.53388294944E+02  0.20933463645E+03  0.92381883771E+02 0.  0.
         23    2    4    4    0    0  0.34411611652E+03  0.30689676072E+02 -0.20489174191E+04  0.20798171279E+04  0.90658354663E+02 0.  0.
          1    1    3    3  502    0 -0.46477366782E+02 -0.65742136517E+02 -0.39238404205E+02  0.89564649842E+02  0.00000000000E+00 0. -1.
         -1    1    3    3    0  502 -0.12578564076E+03 -0.18824960285E+02  0.55442430230E+02  0.13874534090E+03  0.00000000000E+00 0.  1.
         13    1    5    5    0    0 -0.12972335267E+03  0.65656443642E+02 -0.71458669389E+02  0.16200388345E+03  0.00000000000E+00 0. -1.
        -13    1    5    5    0    0 -0.42129756308E+02 -0.11779022912E+02  0.18070374445E+02  0.47330753004E+02  0.00000000000E+00 0.  1.
          4    1    6    6  503    0  0.31134729583E+03  0.41268171931E+02 -0.19487501318E+04  0.19738964707E+04  0.00000000000E+00 0. -1.
         -4    1    6    6    0  503  0.32768820691E+02 -0.10578495859E+02 -0.10016728728E+03  0.10592065722E+03  0.00000000000E+00 0.  1.
<mgrwt>
<rscale>  0 0.14091818E+04</rscale>
<asrwt>0</asrwt>
<pdfrwt beam="1">  1        4 0.35412025E+00 0.14091818E+04</pdfrwt>
<pdfrwt beam="2">  1       -4 0.33181545E-01 0.14091818E+04</pdfrwt>
<totfact> 0.24299117E-01</totfact>
</mgrwt>
</event>
<event>
12    3  0.4192740E-008  0.2289831E+04  0.7818608E-02  0.8481942E-01
         -1   -1    0    0    0  501 -0.00000000000E+00  0.00000000000E+00  0.68682719373E+03  0.68682719373E+03  0.00000000000E+00 0.  1.
          1   -1    0    0  501    0  0.00000000000E+00 -0.00000000000E+00 -0.19085312533E+04  0.19085312533E+04  0.00000000000E+00 0. -1.
         23    2    1    2    0    0  0.93217854310E+03 -0.23373724630E+03 -0.38360481416E+03  0.10389205932E+04  0.92808453794E+02 0.  0.
        254    2    1    2    0    0 -0.93217854310E+03  0.23373724630E+03 -0.83809924545E+03  0.15564378538E+04  0.89246765267E+03 0.  0.
         23    2    4    4    0    0 -0.62115018225E+03 -0.28004284504E+03 -0.32381991390E+03  0.76013404709E+03  0.93235663413E+02 0.  0.
         23    2    4    4    0    0 -0.31102836085E+03  0.51378009134E+03 -0.51427933156E+03  0.79630380674E+03  0.94381662669E+02 0.  0.
          2    1    3    3  502    0  0.19811793829E+02 -0.12392609087E+02 -0.24211675208E+02  0.33649504470E+02  0.00000000000E+00 0. -1.
         -2    1    3    3    0  502  0.91236674928E+03 -0.22134463721E+03 -0.35939313895E+03  0.10052710888E+04  0.00000000000E+00 0.  1.
         13    1    5    5    0    0 -0.53376810809E+03 -0.27249227068E+03 -0.27076034382E+03  0.65762572531E+03  0.00000000000E+00 0. -1.
        -13    1    5    5    0    0 -0.87382074163E+02 -0.75505743604E+01 -0.53059570071E+02  0.10250832178E+03  0.00000000000E+00 0.  1.
          3    1    6    6  503    0 -0.31059744703E+03  0.51607741045E+03 -0.51621063557E+03  0.79327176173E+03  0.00000000000E+00 0. -1.
         -3    1    6    6    0  503 -0.43091381746E+00 -0.22973191067E+01  0.19313040087E+01  0.30320450146E+01  0.00000000000E+00 0.  1.
<mgrwt>
<rscale>  0 0.22898307E+04</rscale>
<asrwt>0</asrwt>
<pdfrwt beam="1">  1        1 0.29362019E+00 0.22898307E+04</pdfrwt>
<pdfrwt beam="2">  1       -1 0.10566572E+00 0.22898307E+04</pdfrwt>
<totfact> 0.26087146E+00</totfact>
</mgrwt>
</event>
<event>
12    3  0.4192740E-008  0.2570205E+04  0.7818608E-02  0.8378393E-01
          2   -1    0    0  501    0  0.00000000000E+00  0.00000000000E+00  0.16162230400E+04  0.16162230400E+04  0.00000000000E+00 0. -1.
         -2   -1    0    0    0  501 -0.00000000000E+00 -0.00000000000E+00 -0.10218198595E+04  0.10218198595E+04  0.00000000000E+00 0.  1.
         23    2    1    2    0    0  0.74854285890E+03  0.34254174971E+02 -0.59922004828E+03  0.96401632563E+03  0.93664559556E+02 0.  0.
        254    2    1    2    0    0 -0.74854285890E+03 -0.34254174971E+02  0.11936232289E+04  0.16740265739E+04  0.90340400564E+03 0.  0.
         23    2    4    4    0    0 -0.42235862857E+03  0.41793666174E+03  0.51696632065E+03  0.79242172077E+03  0.87293427586E+02 0.  0.
         23    2    4    4    0    0 -0.32618423032E+03 -0.45219083671E+03  0.67665690821E+03  0.88160485309E+03  0.92140331255E+02 0.  0.
          3    1    3    3  502    0  0.92672784831E+02 -0.22787444064E+02 -0.96084781532E+02  0.13542450996E+03  0.00000000000E+00 0. -1.
         -3    1    3    3    0  502  0.65587007407E+03  0.57041619035E+02 -0.50313526675E+03  0.82859181568E+03  0.00000000000E+00 0.  1.
         13    1    5    5    0    0 -0.37167085645E+03  0.40058773871E+03  0.46084568690E+03  0.71483460259E+03  0.00000000000E+00 0. -1.
        -13    1    5    5    0    0 -0.50687772128E+02  0.17348923035E+02  0.56120633754E+02  0.77587118175E+02  0.00000000000E+00 0.  1.
          3    1    6    6  503    0 -0.30521674376E+03 -0.44994752819E+03  0.65679052218E+03  0.85263346686E+03  0.00000000000E+00 0. -1.
         -3    1    6    6    0  503 -0.20967486564E+02 -0.22433085281E+01  0.19866386036E+02  0.28971386230E+02  0.00000000000E+00 0.  1.
<mgrwt>
<rscale>  0 0.25702053E+04</rscale>
<asrwt>0</asrwt>
<pdfrwt beam="1">  1        2 0.24864970E+00 0.25702053E+04</pdfrwt>
<pdfrwt beam="2">  1       -2 0.15720306E+00 0.25702053E+04</pdfrwt>
<totfact> 0.25595501E+00</totfact>
</mgrwt>
</event>
<event>
12    3  0.4192740E-008  0.1449416E+04  0.7818608E-02  0.8918805E-01
          2   -1    0    0  501    0  0.00000000000E+00  0.00000000000E+00  0.21139660666E+04  0.21139660666E+04  0.00000000000E+00 0. -1.
         -2   -1    0    0    0  501 -0.00000000000E+00 -0.00000000000E+00 -0.24844392075E+03  0.24844392075E+03  0.00000000000E+00 0.  1.
         23    2    1    2    0    0  0.17785682810E+03 -0.16758739159E+03 -0.17828934650E+02  0.26259752824E+03  0.94451076254E+02 0.  0.
        254    2    1    2    0    0 -0.17785682810E+03  0.16758739159E+03  0.18833510805E+04  0.20998124591E+04  0.89581386786E+03 0.  0.
         23    2    4    4    0    0 -0.19025154459E+03 -0.33756131755E+03  0.62899281111E+03  0.74444786119E+03  0.91800698632E+02 0.  0.
         23    2    4    4    0    0  0.12394716497E+02  0.50514870914E+03  0.12543582694E+04  0.13553645979E+04  0.90937769682E+02 0.  0.
          1    1    3    3  502    0  0.13335710061E+03 -0.95802331906E+02 -0.50876883437E+02  0.17190305509E+03  0.00000000000E+00 0. -1.
         -1    1    3    3    0  502  0.44499727485E+02 -0.71785059682E+02  0.33047948787E+02  0.90694473144E+02  0.00000000000E+00 0.  1.
         13    1    5    5    0    0 -0.12354039342E+03 -0.12634564011E+03  0.27805613068E+03  0.32945509768E+03  0.00000000000E+00 0. -1.
        -13    1    5    5    0    0 -0.66711151176E+02 -0.21121567745E+03  0.35093668043E+03  0.41499276351E+03  0.00000000000E+00 0.  1.
          1    1    6    6  503    0  0.21858467304E+02  0.20696348272E+03  0.62800693420E+03  0.66159231040E+03  0.00000000000E+00 0. -1.
         -1    1    6    6    0  503 -0.94637508077E+01  0.29818522642E+03  0.62635133515E+03  0.69377228749E+03  0.00000000000E+00 0.  1.
<mgrwt>
<rscale>  0 0.14494165E+04</rscale>
<asrwt>0</asrwt>
<pdfrwt beam="1">  1        2 0.32522554E+00 0.14494165E+04</pdfrwt>
<pdfrwt beam="2">  1       -2 0.38222143E-01 0.14494165E+04</pdfrwt>
<totfact> 0.36207637E+01</totfact>
</mgrwt>
</event>
<event>
12    3  0.4192740E-008  0.1359586E+04  0.7818608E-02  0.8983603E-01
          2   -1    0    0  501    0  0.00000000000E+00  0.00000000000E+00  0.15290959348E+04  0.15290959348E+04  0.00000000000E+00 0. -1.
         -2   -1    0    0    0  501 -0.00000000000E+00 -0.00000000000E+00 -0.30221688306E+03  0.30221688306E+03  0.00000000000E+00 0.  1.
         23    2    1    2    0    0  0.53286580834E+02  0.23981759223E+03 -0.31568005384E+02  0.26494437191E+03  0.94058726358E+02 0.  0.
        254    2    1    2    0    0 -0.53286580834E+02 -0.23981759223E+03  0.12584470572E+04  0.15663684460E+04  0.89970504926E+03 0.  0.
         23    2    4    4    0    0  0.19591252803E+03  0.10877532608E+03  0.83163581476E+01  0.24158158919E+03  0.89881656736E+02 0.  0.
         23    2    4    4    0    0 -0.24919910887E+03 -0.34859291831E+03  0.12501306990E+04  0.13247868568E+04  0.92823664959E+02 0.  0.
          3    1    3    3  502    0 -0.22708538982E+02  0.37535489036E+02  0.97567132650E+01  0.44942008562E+02  0.00000000000E+00 0. -1.
         -3    1    3    3    0  502  0.75995119815E+02  0.20228210319E+03 -0.41324718649E+02  0.22000236335E+03  0.00000000000E+00 0.  1.
         13    1    5    5    0    0  0.11513491269E+03  0.13336149214E+02 -0.37556321196E+01  0.11596553699E+03  0.00000000000E+00 0. -1.
        -13    1    5    5    0    0  0.80777615342E+02  0.95439176868E+02  0.12071990267E+02  0.12561605220E+03  0.00000000000E+00 0.  1.
          2    1    6    6  503    0 -0.11820979993E+03 -0.16910086440E+03  0.74292170502E+03  0.77103911634E+03  0.00000000000E+00 0. -1.
         -2    1    6    6    0  503 -0.13098930894E+03 -0.17949205392E+03  0.50720899399E+03  0.55374774045E+03  0.00000000000E+00 0.  1.
<mgrwt>
<rscale>  0 0.13595861E+04</rscale>
<asrwt>0</asrwt>
<pdfrwt beam="1">  1        2 0.23524552E+00 0.13595861E+04</pdfrwt>
<pdfrwt beam="2">  1       -2 0.46494906E-01 0.13595861E+04</pdfrwt>
<totfact> 0.52309566E+01</totfact>
</mgrwt>
</event>
<event>
12    3  0.4192740E-008  0.3682731E+04  0.7818608E-02  0.8071800E-01
         -2   -1    0    0    0  501 -0.00000000000E+00  0.00000000000E+00  0.21854114469E+04  0.21854114469E+04  0.00000000000E+00 0.  1.
          2   -1    0    0  501    0  0.00000000000E+00 -0.00000000000E+00 -0.15514825175E+04  0.15514825175E+04  0.00000000000E+00 0. -1.
         23    2    1    2    0    0  0.12140034620E+04 -0.94397104750E+03 -0.49495867068E+03  0.16182349099E+04  0.93885001584E+02 0.  0.
        254    2    1    2    0    0 -0.12140034620E+04  0.94397104750E+03  0.11288876000E+04  0.21186590545E+04  0.92165244619E+03 0.  0.
         23    2    4    4    0    0 -0.61686817870E+03  0.10379186968E+03  0.82828278465E+03  0.10410723152E+04  0.80499018646E+02 0.  0.
         23    2    4    4    0    0 -0.59713528333E+03  0.84017917782E+03  0.30060481538E+03  0.10775867394E+04  0.91423893843E+02 0.  0.
          2    1    3    3  502    0  0.68708760324E+03 -0.47939300550E+03 -0.25069907845E+03  0.87450389146E+03  0.00000000000E+00 0. -1.
         -2    1    3    3    0  502  0.52691585879E+03 -0.46457804200E+03 -0.24425959223E+03  0.74373101841E+03  0.00000000000E+00 0.  1.
         13    1    5    5    0    0 -0.16002504954E+03  0.63048837575E+02  0.22048008491E+03  0.27963304569E+03  0.00000000000E+00 0.  1.
        -13    1    5    5    0    0 -0.45684312916E+03  0.40743032106E+02  0.60780269974E+03  0.76143926950E+03  0.00000000000E+00 0. -1.
          2    1    6    6  503    0 -0.52871805951E+03  0.69537877517E+03  0.23576935635E+03  0.90481026564E+03  0.00000000000E+00 0. -1.
         -2    1    6    6    0  503 -0.68417223817E+02  0.14480040265E+03  0.64835459029E+02  0.17277647372E+03  0.00000000000E+00 0.  1.
<mgrwt>
<rscale>  0 0.36827314E+04</rscale>
<asrwt>0</asrwt>
<pdfrwt beam="1">  1        2 0.23868962E+00 0.36827314E+04</pdfrwt>
<pdfrwt beam="2">  1       -2 0.33621715E+00 0.36827314E+04</pdfrwt>
<totfact> 0.18245238E-01</totfact>
</mgrwt>
</event>
