<event>
12    7  0.1497947E-008  0.1251890E+04  0.7818608E-02  0.9068611E-01
         -1   -1    0    0    0  501 -0.00000000000E+00  0.00000000000E+00  0.52323091920E+03  0.52323091920E+03  0.00000000000E+00 0.  1.
          2   -1    0    0  501    0  0.00000000000E+00 -0.00000000000E+00 -0.74882291449E+03  0.74882291449E+03  0.00000000000E+00 0. -1.
         24    2    1    2    0    0  0.15162224406E+03 -0.23386310520E+03  0.40270107613E+02  0.29358850868E+03  0.83013697642E+02 0.  0.
        254    2    1    2    0    0 -0.15162224406E+03  0.23386310520E+03 -0.26586210290E+03  0.97846532500E+03  0.89946121518E+03 0.  0.
         23    2    4    4    0    0  0.26757201396E+03  0.38137248669E+03 -0.46404068143E+02  0.47745467551E+03  0.93647602038E+02 0.  0.
         23    2    4    4    0    0 -0.41919425802E+03 -0.14750938149E+03 -0.21945803476E+03  0.50101064949E+03  0.73259800033E+02 0.  0.
          4    1    3    3  502    0  0.15240605092E+02  0.53234773076E+00  0.14732554651E+02  0.21203952562E+02  0.00000000000E+00 0. -1.
         -3    1    3    3    0  502  0.13638163897E+03 -0.23439545293E+03  0.25537552961E+02  0.27238455612E+03  0.00000000000E+00 0.  1.
         13    1    5    5    0    0  0.73900012350E+01 -0.45004875232E+01 -0.55284797819E+01  0.10267940149E+02  0.00000000000E+00 0. -1.
        -13    1    5    5    0    0  0.26018201273E+03  0.38587297421E+03 -0.40875588361E+02  0.46718673536E+03  0.00000000000E+00 0.  1.
          3    1    6    6  503    0 -0.91966261548E+02 -0.59918535141E+02 -0.73846246204E+02  0.13229244950E+03  0.00000000000E+00 0. -1.
         -3    1    6    6    0  503 -0.32722799647E+03 -0.87590846346E+02 -0.14561178856E+03  0.36871819999E+03  0.00000000000E+00 0.  1.
<mgrwt>
<rscale>  0 0.12518903E+04</rscale>
<asrwt>0</asrwt>
<pdfrwt beam="1">  1        2 0.11520353E+00 0.12518903E+04</pdfrwt>
<pdfrwt beam="2">  1       -1 0.80497064E-01 0.12518903E+04</pdfrwt>
<totfact> 0.64987317E+01</totfact>
</mgrwt>
</event>
<event>
12    7  0.1497947E-008  0.1493727E+04  0.7818608E-02  0.8888635E-01
         -1   -1    0    0    0  501 -0.00000000000E+00  0.00000000000E+00  0.33204849956E+03  0.33204849956E+03  0.00000000000E+00 0.  1.
          2   -1    0    0  501    0  0.00000000000E+00 -0.00000000000E+00 -0.16798893749E+04  0.16798893749E+04  0.00000000000E+00 0. -1.
         24    2    1    2    0    0  0.38989815030E+03  0.21771114954E+03 -0.61032868747E+03  0.76051927246E+03  0.80434723747E+02 0.  0.
        254    2    1    2    0    0 -0.38989815030E+03 -0.21771114954E+03 -0.73751218787E+03  0.12514186020E+04  0.90703118908E+03 0.  0.
         23    2    4    4    0    0 -0.56597160059E+03 -0.31147478377E-01 -0.75669366291E+03  0.94941593083E+03  0.92094823852E+02 0.  0.
         23    2    4    4    0    0  0.17607345029E+03 -0.21768000206E+03  0.19181475038E+02  0.30200267118E+03  0.11158512995E+03 0.  0.
          4    1    3    3  502    0  0.10212471624E+03  0.55903564261E+02 -0.10426475719E+03  0.15628757390E+03  0.00000000000E+00 0. -1.
         -3    1    3    3    0  502  0.28777343406E+03  0.16180758528E+03 -0.50606393029E+03  0.60423169856E+03  0.00000000000E+00 0.  1.
         13    1    5    5    0    0 -0.47428593773E+03 -0.20530148016E+02 -0.67303923090E+03  0.82362032760E+03  0.00000000000E+00 0. -1.
        -13    1    5    5    0    0 -0.91685662860E+02  0.20499000537E+02 -0.83654432015E+02  0.12579560323E+03  0.00000000000E+00 0.  1.
          1    1    6    6  503    0  0.12201953984E+03 -0.21426965216E+03  0.80453629268E+01  0.24670828889E+03  0.00000000000E+00 0. -1.
         -1    1    6    6    0  503  0.54053910446E+02 -0.34103498997E+01  0.11136112111E+02  0.55294382299E+02  0.00000000000E+00 0.  1.
<mgrwt>
<rscale>  0 0.14937265E+04</rscale>
<asrwt>0</asrwt>
<pdfrwt beam="1">  1        2 0.25844453E+00 0.14937265E+04</pdfrwt>
<pdfrwt beam="2">  1       -1 0.51084383E-01 0.14937265E+04</pdfrwt>
<totfact> 0.42693540E+01</totfact>
</mgrwt>
</event>
<event>
12    7  0.1497947E-008  0.1383406E+04  0.7818608E-02  0.8965918E-01
         -1   -1    0    0    0  501 -0.00000000000E+00  0.00000000000E+00  0.80882926193E+03  0.80882926193E+03  0.00000000000E+00 0.  1.
          2   -1    0    0  501    0  0.00000000000E+00 -0.00000000000E+00 -0.59153817042E+03  0.59153817042E+03  0.00000000000E+00 0. -1.
         24    2    1    2    0    0  0.26208497603E+03  0.10744412829E+03 -0.20725701020E+03  0.36067211374E+03  0.83042940631E+02 0.  0.
        254    2    1    2    0    0 -0.26208497603E+03 -0.10744412829E+03  0.42454810172E+03  0.10396953186E+04  0.90581040483E+03 0.  0.
         23    2    4    4    0    0 -0.44996404751E+03 -0.32665945196E+03  0.47554835143E+03  0.73717720572E+03  0.90055296778E+02 0.  0.
         23    2    4    4    0    0  0.18787907148E+03  0.21921532367E+03 -0.51000249712E+02  0.30251811289E+03  0.74580691338E+02 0.  0.
          2    1    3    3  502    0  0.18802686100E+03  0.63625646016E+02 -0.97351420268E+02  0.22108736354E+03  0.00000000000E+00 0. -1.
         -1    1    3    3    0  502  0.74058115030E+02  0.43818482272E+02 -0.10990558993E+03  0.13958475020E+03  0.00000000000E+00 0.  1.
         13    1    5    5    0    0 -0.38082713279E+03 -0.29857689815E+03  0.37631862652E+03  0.61301972060E+03  0.00000000000E+00 0. -1.
        -13    1    5    5    0    0 -0.69136914722E+02 -0.28082553811E+02  0.99229724913E+02  0.12415748512E+03  0.00000000000E+00 0.  1.
          1    1    6    6  503    0  0.15305004157E+03  0.17929501281E+03 -0.10742746844E+02  0.23597970983E+03  0.00000000000E+00 0. -1.
         -1    1    6    6    0  503  0.34829029919E+02  0.39920310864E+02 -0.40257502868E+02  0.66538403060E+02  0.00000000000E+00 0.  1.
<mgrwt>
<rscale>  0 0.13834065E+04</rscale>
<asrwt>0</asrwt>
<pdfrwt beam="1">  1        2 0.91005872E-01 0.13834065E+04</pdfrwt>
<pdfrwt beam="2">  1       -1 0.12443527E+00 0.13834065E+04</pdfrwt>
<totfact> 0.31812842E+01</totfact>
</mgrwt>
</event>
<event>
11    7  0.1497947E-008  0.1954399E+04  0.7818608E-02  0.8628242E-01
          2   -1    0    0  501    0  0.00000000000E+00  0.00000000000E+00  0.43903652178E+03  0.43903652178E+03  0.00000000000E+00 0. -1.
         -1   -1    0    0    0  501 -0.00000000000E+00 -0.00000000000E+00 -0.21750334598E+04  0.21750334598E+04  0.00000000000E+00 0.  1.
         24    2    1    2    0    0  0.59889679549E+02  0.59094841256E+03 -0.49402700433E+02  0.60102546631E+03  0.77357509798E+02 0.  0.
        254    2    1    2    0    0 -0.59889679549E+02 -0.59094841256E+03 -0.16865942376E+04  0.20130445153E+04  0.92463035758E+03 0.  0.
         23    2    4    4    0    0 -0.24228438459E+03 -0.76046473618E+03 -0.11490885618E+04  0.14021411342E+04  0.92665524772E+02 0.  0.
          2    1    3    3  502    0  0.67795213719E+02  0.38277572014E+03 -0.55136439085E+02  0.39262382741E+03  0.00000000000E+00 0. -1.
         -1    1    3    3    0  502 -0.79055341705E+01  0.20817269242E+03  0.57337386525E+01  0.20840163890E+03  0.00000000000E+00 0.  1.
         13    1    5    5    0    0 -0.10643561876E+03 -0.19945897384E+03 -0.33720635509E+03  0.40598097135E+03  0.00000000000E+00 0.  1.
        -13    1    5    5    0    0 -0.13584876583E+03 -0.56100576234E+03 -0.81188220668E+03  0.99616016286E+03  0.00000000000E+00 0. -1.
          3    1    4    4  503    0  0.13441063843E+03  0.19137891080E+03 -0.47243611013E+03  0.52715081843E+03  0.00000000000E+00 0. -1.
         -3    1    4    4    0  503  0.47984066605E+02 -0.21862587179E+02 -0.65069565698E+02  0.83752562625E+02  0.00000000000E+00 0.  1.
<mgrwt>
<rscale>  0 0.19543993E+04</rscale>
<asrwt>0</asrwt>
<pdfrwt beam="1">  1        2 0.67544080E-01 0.19543993E+04</pdfrwt>
<pdfrwt beam="2">  1       -1 0.33462053E+00 0.19543993E+04</pdfrwt>
<totfact> 0.14987463E+00</totfact>
</mgrwt>
</event>
<event>
12    7  0.1497947E-008  0.3851425E+04  0.7818608E-02  0.8035208E-01
          2   -1    0    0  501    0  0.00000000000E+00  0.00000000000E+00  0.20881622250E+04  0.20881622250E+04  0.00000000000E+00 0. -1.
         -1   -1    0    0    0  501 -0.00000000000E+00 -0.00000000000E+00 -0.17759003246E+04  0.17759003246E+04  0.00000000000E+00 0.  1.
         24    2    1    2    0    0 -0.14007171985E+04 -0.86176477157E+03 -0.63181858649E+03  0.17636837941E+04  0.82089021578E+02 0.  0.
        254    2    1    2    0    0  0.14007171985E+04  0.86176477157E+03  0.94408048696E+03  0.21003787556E+04  0.90313662271E+03 0.  0.
         23    2    4    4    0    0  0.22429653504E+03  0.61814869168E+02 -0.15865067198E+03  0.29621151476E+03  0.91876069114E+02 0.  0.
         23    2    4    4    0    0  0.11764206635E+04  0.79994990240E+03  0.11027311589E+04  0.18041672408E+04  0.12295527700E+03 0.  0.
          4    1    3    3  502    0 -0.13542655295E+03 -0.72985621955E+02 -0.83495999006E+02  0.17503952156E+03  0.00000000000E+00 0. -1.
         -3    1    3    3    0  502 -0.12652906456E+04 -0.78877914961E+03 -0.54832258749E+03  0.15886442725E+04  0.00000000000E+00 0.  1.
         13    1    5    5    0    0  0.21640689381E+03  0.75870278745E+02 -0.16061493167E+03  0.27997392586E+03  0.00000000000E+00 0.  1.
        -13    1    5    5    0    0  0.78896412300E+01 -0.14055409576E+02  0.19642596959E+01  0.16237588899E+02  0.00000000000E+00 0. -1.
          2    1    6    6  503    0  0.45768131832E+02  0.64670096595E+02  0.61918427261E+02  0.10055264750E+03  0.00000000000E+00 0. -1.
         -2    1    6    6    0  503  0.11306525316E+04  0.73527980580E+03  0.10408127317E+04  0.17036145933E+04  0.00000000000E+00 0.  1.
<mgrwt>
<rscale>  0 0.38514247E+04</rscale>
<asrwt>0</asrwt>
<pdfrwt beam="1">  1        2 0.32125573E+00 0.38514247E+04</pdfrwt>
<pdfrwt beam="2">  1       -1 0.27321544E+00 0.38514247E+04</pdfrwt>
<totfact> 0.26683712E-01</totfact>
</mgrwt>
</event>
<event>
11    7  0.1497947E-008  0.2322476E+04  0.7818608E-02  0.8469112E-01
          2   -1    0    0  501    0  0.00000000000E+00  0.00000000000E+00  0.15468791237E+04  0.15468791237E+04  0.00000000000E+00 0. -1.
         -1   -1    0    0    0  501 -0.00000000000E+00 -0.00000000000E+00 -0.87173801226E+03  0.87173801226E+03  0.00000000000E+00 0.  1.
         24    2    1    2    0    0 -0.63776762972E+03  0.15231190637E+03  0.10555241402E+04  0.12443658785E+04  0.66096615602E+02 0.  0.
        254    2    1    2    0    0  0.63776762972E+03 -0.15231190637E+03 -0.38038302878E+03  0.11742512575E+04  0.89678776796E+03 0.  0.
         23    2    4    4    0    0  0.16994247342E+03  0.68489227014E+02  0.26369055719E+03  0.33443671356E+03  0.93509287974E+02 0.  0.
          4    1    3    3  502    0 -0.58419402400E+03  0.14654346962E+03  0.93299427612E+03  0.11105115783E+04  0.00000000000E+00 0. -1.
         -3    1    3    3    0  502 -0.53573605726E+02  0.57684367512E+01  0.12252986409E+03  0.13385430022E+03  0.00000000000E+00 0.  1.
         13    1    5    5    0    0  0.25997321470E+02  0.81893467915E+01  0.11741657495E+03  0.12053870000E+03  0.00000000000E+00 0. -1.
        -13    1    5    5    0    0  0.14394515195E+03  0.60299880222E+02  0.14627398223E+03  0.21389801356E+03  0.00000000000E+00 0.  1.
          2    1    4    4  503    0  0.11237209859E+03 -0.20840554338E+02 -0.23938509715E+03  0.26526786836E+03  0.00000000000E+00 0. -1.
         -2    1    4    4    0  503  0.35545305771E+03 -0.19996057905E+03 -0.40468848882E+03  0.57454667555E+03  0.00000000000E+00 0.  1.
<mgrwt>
<rscale>  0 0.23224757E+04</rscale>
<asrwt>0</asrwt>
<pdfrwt beam="1">  1        2 0.23798140E+00 0.23224757E+04</pdfrwt>
<pdfrwt beam="2">  1       -1 0.13411354E+00 0.23224757E+04</pdfrwt>
<totfact> 0.57680452E+00</totfact>
</mgrwt>
</event>
<event>
12    7  0.1497947E-008  0.1990594E+04  0.7818608E-02  0.8611031E-01
          2   -1    0    0  501    0  0.00000000000E+00  0.00000000000E+00  0.13094065045E+04  0.13094065045E+04  0.00000000000E+00 0. -1.
         -1   -1    0    0    0  501 -0.00000000000E+00 -0.00000000000E+00 -0.75653859496E+03  0.75653859496E+03  0.00000000000E+00 0.  1.
         24    2    1    2    0    0 -0.28188481255E+03 -0.60208959083E+03  0.65613388999E+03  0.93743357877E+03  0.79366933107E+02 0.  0.
        254    2    1    2    0    0  0.28188481255E+03  0.60208959083E+03 -0.10326598050E+03  0.11285115206E+04  0.90603723243E+03 0.  0.
         23    2    4    4    0    0 -0.20694658485E+03  0.58275854603E+03 -0.92263246185E+01  0.62490099418E+03  0.89340447207E+02 0.  0.
         23    2    4    4    0    0  0.48883139740E+03  0.19331044800E+02 -0.94039655881E+02  0.50361052646E+03  0.73826019185E+02 0.  0.
          2    1    3    3  502    0 -0.26906923108E+03 -0.56331097242E+03  0.63842288816E+03  0.89291729006E+03  0.00000000000E+00 0. -1.
         -1    1    3    3    0  502 -0.12815581472E+02 -0.38778618414E+02  0.17711001833E+02  0.44516288709E+02  0.00000000000E+00 0.  1.
         13    1    5    5    0    0 -0.28350263895E+02  0.12048611179E+03 -0.35087909950E+02  0.12865380687E+03  0.00000000000E+00 0.  1.
        -13    1    5    5    0    0 -0.17859632095E+03  0.46227243424E+03  0.25861585332E+02  0.49624718730E+03  0.00000000000E+00 0. -1.
          1    1    6    6  503    0  0.21967351399E+03  0.32935322105E+02 -0.70661150229E+02  0.23309694623E+03  0.00000000000E+00 0. -1.
         -1    1    6    6    0  503  0.26915788341E+03 -0.13604277306E+02 -0.23378505652E+02  0.27051358023E+03  0.00000000000E+00 0.  1.
<mgrwt>
<rscale>  0 0.19905944E+04</rscale>
<asrwt>0</asrwt>
<pdfrwt beam="1">  1        2 0.20144715E+00 0.19905944E+04</pdfrwt>
<pdfrwt beam="2">  1       -1 0.11639055E+00 0.19905944E+04</pdfrwt>
<totfact> 0.11537001E+01</totfact>
</mgrwt>
</event>
<event>
11    7  0.1497947E-008  0.1535077E+04  0.7818608E-02  0.8861456E-01
         -1   -1    0    0    0  501 -0.00000000000E+00  0.00000000000E+00  0.64798601959E+03  0.64798601959E+03  0.00000000000E+00 0.  1.
          2   -1    0    0  501    0  0.00000000000E+00 -0.00000000000E+00 -0.90914842975E+03  0.90914842975E+03  0.00000000000E+00 0. -1.
         24    2    1    2    0    0 -0.13877611465E+03  0.32133683303E+02  0.40456556139E+03  0.43637736518E+03  0.80377408381E+02 0.  0.
        254    2    1    2    0    0  0.13877611465E+03 -0.32133683303E+02 -0.66572797155E+03  0.11207570842E+04  0.89028721545E+03 0.  0.
         23    2    4    4    0    0 -0.68924413969E+02 -0.26844454931E+03  0.70657914558E+02  0.30061981395E+03  0.92556365282E+02 0.  0.
          2    1    3    3  502    0 -0.79509575748E+02 -0.22837806309E+02  0.20439291371E+03  0.22049898233E+03  0.00000000000E+00 0. -1.
         -1    1    3    3    0  502 -0.59266538907E+02  0.54971489612E+02  0.20017264768E+03  0.21587838285E+03  0.00000000000E+00 0.  1.
         13    1    5    5    0    0 -0.87351748996E+02 -0.23665491876E+03  0.46139660145E+02  0.25644638205E+03  0.00000000000E+00 0.  1.
        -13    1    5    5    0    0  0.18427335026E+02 -0.31789630547E+02  0.24518254413E+02  0.44173431901E+02  0.00000000000E+00 0. -1.
          1    1    4    4  503    0  0.13921394929E+03  0.50090978481E+02 -0.43346771742E+03  0.45802171548E+03  0.00000000000E+00 0. -1.
         -1    1    4    4    0  503  0.68486579333E+02  0.18621988753E+03 -0.30291816869E+03  0.36211555473E+03  0.00000000000E+00 0.  1.
<mgrwt>
<rscale>  0 0.15350772E+04</rscale>
<asrwt>0</asrwt>
<pdfrwt beam="1">  1        2 0.13986899E+00 0.15350772E+04</pdfrwt>
<pdfrwt beam="2">  1       -1 0.99690157E-01 0.15350772E+04</pdfrwt>
<totfact> 0.30526017E+01</totfact>
</mgrwt>
</event>
<event>
12    7  0.1497947E-008  0.1573846E+04  0.7818608E-02  0.8836778E-01
          2   -1    0    0  501    0  0.00000000000E+00  0.00000000000E+00  0.25873480525E+04  0.25873480525E+04  0.00000000000E+00 0. -1.
         -1   -1    0    0    0  501 -0.00000000000E+00 -0.00000000000E+00 -0.23933692638E+03  0.23933692638E+03  0.00000000000E+00 0.  1.
         24    2    1    2    0    0 -0.15229026371E+03  0.10084560712E+03 -0.86209451429E+02  0.21620208268E+03  0.77130474784E+02 0.  0.
        254    2    1    2    0    0  0.15229026371E+03 -0.10084560712E+03  0.24342205776E+04  0.26104828962E+04  0.92511024764E+03 0.  0.
         23    2    4    4    0    0 -0.23417311435E+02 -0.36825239506E+03  0.41481705893E+03  0.56293528042E+03  0.93084588485E+02 0.  0.
         23    2    4    4    0    0  0.17570757515E+03  0.26740678794E+03  0.20194035186E+04  0.20475476158E+04  0.10991417415E+03 0.  0.
          2    1    3    3  502    0 -0.84263310214E+02  0.10153894119E+02 -0.38716850183E+02  0.93286663045E+02  0.00000000000E+00 0. -1.
         -1    1    3    3    0  502 -0.68026953496E+02  0.90691713005E+02 -0.47492601246E+02  0.12291541963E+03  0.00000000000E+00 0.  1.
         13    1    5    5    0    0 -0.32554895198E+02 -0.19843465804E+03  0.28588216915E+03  0.34952074238E+03  0.00000000000E+00 0. -1.
        -13    1    5    5    0    0  0.91375837629E+01 -0.16981773702E+03  0.12893488978E+03  0.21341453804E+03  0.00000000000E+00 0.  1.
          3    1    6    6  503    0  0.12422318643E+03  0.15944515745E+03  0.93682320029E+03  0.95837981348E+03  0.00000000000E+00 0. -1.
         -3    1    6    6    0  503  0.51484388715E+02  0.10796163049E+03  0.10825803184E+04  0.10891678023E+04  0.00000000000E+00 0.  1.
<mgrwt>
<rscale>  0 0.15738462E+04</rscale>
<asrwt>0</asrwt>
<pdfrwt beam="1">  1        2 0.39805353E+00 0.15738462E+04</pdfrwt>
<pdfrwt beam="2">  1       -1 0.36821068E-01 0.15738462E+04</pdfrwt>
<totfact> 0.24057718E+01</totfact>
</mgrwt>
</event>
<event>
12    7  0.1497947E-008  0.2250554E+04  0.7818608E-02  0.8497676E-01
          2   -1    0    0  501    0  0.00000000000E+00  0.00000000000E+00  0.11513868293E+04  0.11513868293E+04  0.00000000000E+00 0. -1.
         -1   -1    0    0    0  501 -0.00000000000E+00 -0.00000000000E+00 -0.10997595673E+04  0.10997595673E+04  0.00000000000E+00 0.  1.
         24    2    1    2    0    0  0.39238358892E+03 -0.83773312962E+03  0.23962901167E+03  0.95896105042E+03  0.80140848932E+02 0.  0.
        254    2    1    2    0    0 -0.39238358892E+03  0.83773312962E+03 -0.18800174961E+03  0.12921853462E+04  0.88240389494E+03 0.  0.
         23    2    4    4    0    0 -0.31871845765E+03  0.99701797114E+03 -0.65910091917E+02  0.10527439772E+04  0.91101324295E+02 0.  0.
         23    2    4    4    0    0 -0.73665131271E+02 -0.15928484152E+03 -0.12209165769E+03  0.23944136902E+03  0.10783127568E+03 0.  0.
          2    1    3    3  502    0  0.32491449189E+03 -0.64401182158E+03  0.21288508143E+03  0.75209089296E+03  0.00000000000E+00 0. -1.
         -3    1    3    3    0  502  0.67469097029E+02 -0.19372130804E+03  0.26743930242E+02  0.20687015746E+03  0.00000000000E+00 0.  1.
         13    1    5    5    0    0 -0.35224820827E+02  0.12748425544E+03 -0.38508188101E+02  0.13775305419E+03  0.00000000000E+00 0.  1.
        -13    1    5    5    0    0 -0.28349363682E+03  0.86953371571E+03 -0.27401903816E+02  0.91499092302E+03  0.00000000000E+00 0. -1.
          2    1    6    6  503    0 -0.45662561561E+02 -0.16997478681E+03 -0.10443716603E+03  0.20465487859E+03  0.00000000000E+00 0. -1.
         -2    1    6    6    0  503 -0.28002569710E+02  0.10689945291E+02 -0.17654491660E+02  0.34786490431E+02  0.00000000000E+00 0.  1.
<mgrwt>
<rscale>  0 0.22505543E+04</rscale>
<asrwt>0</asrwt>
<pdfrwt beam="1">  1        2 0.17713643E+00 0.22505543E+04</pdfrwt>
<pdfrwt beam="2">  1       -1 0.16919378E+00 0.22505543E+04</pdfrwt>
<totfact> 0.52457161E+00</totfact>
</mgrwt>
</event>
<event>
11    7  0.1497947E-008  0.1498131E+04  0.7818608E-02  0.8885696E-01
          2   -1    0    0  501    0  0.00000000000E+00  0.00000000000E+00  0.39646149766E+04  0.39646149766E+04  0.00000000000E+00 0. -1.
         -1   -1    0    0    0  501 -0.00000000000E+00 -0.00000000000E+00 -0.14152683713E+03  0.14152683713E+03  0.00000000000E+00 0.  1.
         24    2    1    2    0    0  0.45807900773E+03 -0.11270839368E+03  0.92187847318E+03  0.10386048004E+04  0.79375390960E+02 0.  0.
        254    2    1    2    0    0 -0.45807900773E+03  0.11270839368E+03  0.29012096663E+04  0.30675370134E+04  0.87762534221E+03 0.  0.
         23    2    4    4    0    0 -0.53203237234E+03 -0.19744880399E+03  0.12445171623E+04  0.13715415104E+04  0.10128510295E+03 0.  0.
          2    1    3    3  502    0  0.82653059714E+02 -0.13065033027E+02  0.23573821892E+03  0.25014941781E+03  0.00000000000E+00 0. -1.
         -1    1    3    3    0  502  0.37542594801E+03 -0.99643360650E+02  0.68614025425E+03  0.78845538255E+03  0.00000000000E+00 0.  1.
         13    1    5    5    0    0 -0.37070151240E+03 -0.18024231592E+03  0.94273652273E+03  0.10289115876E+04  0.00000000000E+00 0. -1.
        -13    1    5    5    0    0 -0.16133085994E+03 -0.17206488069E+02  0.30178063955E+03  0.34262992282E+03  0.00000000000E+00 0.  1.
          1    1    4    4  503    0  0.56416320170E+01  0.29057150539E+03  0.12701974853E+04  0.13030215959E+04  0.00000000000E+00 0. -1.
         -1    1    4    4    0  503  0.68311732594E+02  0.19585692281E+02  0.38649501872E+03  0.39297390708E+03  0.00000000000E+00 0.  1.
<mgrwt>
<rscale>  0 0.14981314E+04</rscale>
<asrwt>0</asrwt>
<pdfrwt beam="1">  1        2 0.60994068E+00 0.14981314E+04</pdfrwt>
<pdfrwt beam="2">  1       -1 0.21773363E-01 0.14981314E+04</pdfrwt>
<totfact> 0.72930765E+00</totfact>
</mgrwt>
</event>
<event>
11    7  0.1497947E-008  0.2955691E+04  0.7818608E-02  0.8256498E-01
          2   -1    0    0  501    0  0.00000000000E+00  0.00000000000E+00  0.18884084730E+04  0.18884084730E+04  0.00000000000E+00 0. -1.
         -1   -1    0    0    0  501 -0.00000000000E+00 -0.00000000000E+00 -0.11565439547E+04  0.11565439547E+04  0.00000000000E+00 0.  1.
         24    2    1    2    0    0 -0.94293929394E+03  0.16918602136E+03 -0.63259576670E+03  0.11508101372E+04  0.80175718697E+02 0.  0.
        254    2    1    2    0    0  0.94293929394E+03 -0.16918602136E+03  0.13644602849E+04  0.18941422905E+04  0.89903544189E+03 0.  0.
         23    2    4    4    0    0  0.27559657173E+03 -0.44172610231E+03  0.34825641865E+03  0.63278722667E+03  0.89787088695E+02 0.  0.
          4    1    3    3  502    0 -0.33068577068E+01 -0.21636967364E+01  0.16445135652E+01  0.42803406787E+01  0.00000000000E+00 0. -1.
         -3    1    3    3    0  502 -0.93963243624E+03  0.17134971810E+03 -0.63424028026E+03  0.11465297965E+04  0.00000000000E+00 0.  1.
         13    1    5    5    0    0  0.19945882738E+02 -0.25082520110E+02  0.52341019227E+02  0.61372252256E+02  0.00000000000E+00 0.  1.
        -13    1    5    5    0    0  0.25565068899E+03 -0.41664358220E+03  0.29591539942E+03  0.57141497441E+03  0.00000000000E+00 0. -1.
          3    1    4    4  503    0  0.46804656458E+03  0.21327565236E+03  0.56209167887E+03  0.76190625799E+03  0.00000000000E+00 0. -1.
         -3    1    4    4    0  503  0.19929615764E+03  0.59264428580E+02  0.45411218741E+03  0.49944880589E+03  0.00000000000E+00 0.  1.
<mgrwt>
<rscale>  0 0.29556911E+04</rscale>
<asrwt>0</asrwt>
<pdfrwt beam="1">  1        2 0.29052438E+00 0.29556911E+04</pdfrwt>
<pdfrwt beam="2">  1       -1 0.17792984E+00 0.29556911E+04</pdfrwt>
<totfact> 0.16226641E+00</totfact>
</mgrwt>
</event>
<event>
11    7  0.1497947E-008  0.2351735E+04  0.7818608E-02  0.8457798E-01
         -1   -1    0    0    0  501 -0.00000000000E+00  0.00000000000E+00  0.16083649476E+04  0.16083649476E+04  0.00000000000E+00 0.  1.
          2   -1    0    0  501    0  0.00000000000E+00 -0.00000000000E+00 -0.85967045627E+03  0.85967045627E+03  0.00000000000E+00 0. -1.
         24    2    1    2    0    0 -0.48617645996E+03 -0.84699144538E+03 -0.14190236464E+02  0.97998141339E+03  0.80000931295E+02 0.  0.
        254    2    1    2    0    0  0.48617645996E+03  0.84699144538E+03  0.76288472779E+03  0.14880539905E+04  0.82374116802E+03 0.  0.
         23    2    4    4    0    0  0.45053758953E+03  0.17003088934E+03  0.19526549927E+03  0.52768487012E+03  0.91804597035E+02 0.  0.
          2    1    3    3  502    0 -0.26130450422E+03 -0.42451626727E+03 -0.44196355758E+02  0.50044722295E+03  0.00000000000E+00 0. -1.
         -1    1    3    3    0  502 -0.22487195574E+03 -0.42247517811E+03  0.30006119293E+02  0.47953419044E+03  0.00000000000E+00 0.  1.
         13    1    5    5    0    0  0.22926266228E+03  0.10012001668E+03  0.53742531961E+02  0.25587818546E+03  0.00000000000E+00 0.  1.
        -13    1    5    5    0    0  0.22127492725E+03  0.69910872662E+02  0.14152296731E+03  0.27180668465E+03  0.00000000000E+00 0. -1.
          4    1    4    4  503    0  0.68259206442E+02  0.67940849439E+03  0.40374619183E+03  0.79326301372E+03  0.00000000000E+00 0. -1.
         -4    1    4    4    0  503 -0.32620336006E+02 -0.24479383476E+01  0.16387303669E+03  0.16710610664E+03  0.00000000000E+00 0.  1.
<mgrwt>
<rscale>  0 0.23517345E+04</rscale>
<asrwt>0</asrwt>
<pdfrwt beam="1">  1        2 0.13225699E+00 0.23517345E+04</pdfrwt>
<pdfrwt beam="2">  1       -1 0.24744076E+00 0.23517345E+04</pdfrwt>
<totfact> 0.23315701E+00</totfact>
</mgrwt>
</event>
<event>
12    7  0.1497947E-008  0.1544896E+04  0.7818608E-02  0.8855134E-01
          2   -1    0    0  501    0  0.00000000000E+00  0.00000000000E+00  0.91257782913E+03  0.91257782913E+03  0.00000000000E+00 0. -1.
         -1   -1    0    0    0  501 -0.00000000000E+00 -0.00000000000E+00 -0.65383596900E+03  0.65383596900E+03  0.00000000000E+00 0.  1.
         24    2    1    2    0    0  0.37140277850E+03  0.20654721213E+03  0.36961581467E+03  0.56695652233E+03  0.64977481030E+02 0.  0.
        254    2    1    2    0    0 -0.37140277850E+03 -0.20654721213E+03 -0.11087395454E+03  0.99945727580E+03  0.89778618703E+03 0.  0.
         23    2    4    4    0    0 -0.37299999796E+03  0.27821643321E+03  0.43972014681E+02  0.47553820630E+03  0.87576625805E+02 0.  0.
         23    2    4    4    0    0  0.15972194538E+01 -0.48476364534E+03 -0.15484596922E+03  0.52391906950E+03  0.12456152794E+03 0.  0.
          4    1    3    3  502    0  0.83177905757E+02  0.34545192024E+02  0.11271140151E+03  0.14427679761E+03  0.00000000000E+00 0. -1.
         -3    1    3    3    0  502  0.28822487275E+03  0.17200202011E+03  0.25690441316E+03  0.42267972472E+03  0.00000000000E+00 0.  1.
         13    1    5    5    0    0 -0.12150132901E+02  0.89826012781E+01  0.19476826327E+02  0.24650752910E+02  0.00000000000E+00 0.  1.
        -13    1    5    5    0    0 -0.36084986506E+03  0.26923383194E+03  0.24495188353E+02  0.45088745339E+03  0.00000000000E+00 0. -1.
          1    1    6    6  503    0  0.35938991460E+02 -0.40354013292E+03 -0.91502833002E+02  0.41534204992E+03  0.00000000000E+00 0. -1.
         -1    1    6    6    0  503 -0.34341772006E+02 -0.81223512424E+02 -0.63343136214E+02  0.10857701958E+03  0.00000000000E+00 0.  1.
<mgrwt>
<rscale>  0 0.15448964E+04</rscale>
<asrwt>0</asrwt>
<pdfrwt beam="1">  1        2 0.14039659E+00 0.15448964E+04</pdfrwt>
<pdfrwt beam="2">  1       -1 0.10059015E+00 0.15448964E+04</pdfrwt>
<totfact> 0.29721961E+01</totfact>
</mgrwt>
</event>
<event>
11    7  0.1497947E-008  0.3107171E+04  0.7818608E-02  0.8213773E-01
         -1   -1    0    0    0  501 -0.00000000000E+00  0.00000000000E+00  0.11538498400E+04  0.11538498400E+04  0.00000000000E+00 0.  1.
          2   -1    0    0  501    0  0.00000000000E+00 -0.00000000000E+00 -0.20918035797E+04  0.20918035797E+04  0.00000000000E+00 0. -1.
         24    2    1    2    0    0 -0.24698094533E+03  0.23645611403E+03 -0.17968208567E+04  0.18307981216E+04  0.79658583718E+02 0.  0.
        254    2    1    2    0    0  0.24698094533E+03 -0.23645611403E+03  0.85886711697E+03  0.14148552980E+04  0.10710983655E+04 0.  0.
         23    2    4    4    0    0  0.22184941405E+03 -0.63854692447E+03  0.46792005283E+03  0.82729736456E+03  0.92262756862E+02 0.  0.
          2    1    3    3  502    0 -0.12051359174E+03  0.14885053698E+03 -0.11567593408E+04  0.11725067934E+04  0.00000000000E+00 0. -1.
         -1    1    3    3    0  502 -0.12646735359E+03  0.87605577049E+02 -0.64006151590E+03  0.65829132821E+03  0.00000000000E+00 0.  1.
         13    1    5    5    0    0  0.39736848693E+02 -0.44036929848E+02  0.55069427709E+02  0.80937693337E+02  0.00000000000E+00 0. -1.
        -13    1    5    5    0    0  0.18211256536E+03 -0.59450999462E+03  0.41285062512E+03  0.74635967122E+03  0.00000000000E+00 0.  1.
          4    1    4    4  503    0  0.29328059692E+02 -0.22776556563E+01  0.52705644578E+02  0.60358990805E+02  0.00000000000E+00 0. -1.
         -4    1    4    4    0  503 -0.41965284080E+01  0.40436846610E+03  0.33824141956E+03  0.52719894265E+03  0.00000000000E+00 0.  1.
<mgrwt>
<rscale>  0 0.31071706E+04</rscale>
<asrwt>0</asrwt>
<pdfrwt beam="1">  1        2 0.32181593E+00 0.31071706E+04</pdfrwt>
<pdfrwt beam="2">  1       -1 0.17751536E+00 0.31071706E+04</pdfrwt>
<totfact> 0.12427756E+00</totfact>
</mgrwt>
</event>
<event>
12    7  0.1497947E-008  0.1559382E+04  0.7818608E-02  0.8845897E-01
         -1   -1    0    0    0  501 -0.00000000000E+00  0.00000000000E+00  0.19817565963E+03  0.19817565963E+03  0.00000000000E+00 0.  1.
          2   -1    0    0  501    0  0.00000000000E+00 -0.00000000000E+00 -0.30675708092E+04  0.30675708092E+04  0.00000000000E+00 0. -1.
         24    2    1    2    0    0 -0.92559759472E+02  0.41723654448E+03 -0.17420266136E+04  0.17954859900E+04  0.80371478387E+02 0.  0.
        254    2    1    2    0    0  0.92559759472E+02 -0.41723654448E+03 -0.11273685360E+04  0.14702604789E+04  0.84145850564E+03 0.  0.
         23    2    4    4    0    0 -0.78264156607E+01 -0.31162888768E+03  0.72120509374E+01  0.32504768115E+03  0.91815929591E+02 0.  0.
         23    2    4    4    0    0  0.10038617513E+03 -0.10560765680E+03 -0.11345805869E+04  0.11452127977E+04  0.54853282010E+02 0.  0.
          4    1    3    3  502    0 -0.10258088337E+02  0.17929687892E+03 -0.61535452710E+03  0.64102557920E+03  0.00000000000E+00 0. -1.
         -3    1    3    3    0  502 -0.82301671135E+02  0.23793966556E+03 -0.11266720865E+04  0.11544604108E+04  0.00000000000E+00 0.  1.
         13    1    5    5    0    0 -0.18583010233E+02 -0.87346250714E+01 -0.68239238447E+01  0.21637649620E+02  0.00000000000E+00 0. -1.
        -13    1    5    5    0    0  0.10756594572E+02 -0.30289426261E+03  0.14035974782E+02  0.30341003153E+03  0.00000000000E+00 0.  1.
          2    1    6    6  503    0  0.29057412115E+02 -0.31173233528E+01 -0.28691809834E+03  0.28840257637E+03  0.00000000000E+00 0. -1.
         -2    1    6    6    0  503  0.71328763018E+02 -0.10249033345E+03 -0.84766248856E+03  0.85681022134E+03  0.00000000000E+00 0.  1.
<mgrwt>
<rscale>  0 0.15593818E+04</rscale>
<asrwt>0</asrwt>
<pdfrwt beam="1">  1        2 0.47193393E+00 0.15593818E+04</pdfrwt>
<pdfrwt beam="2">  1       -1 0.30488566E-01 0.15593818E+04</pdfrwt>
<totfact> 0.17268408E+01</totfact>
</mgrwt>
</event>
<event>
11    7  0.1497947E-008  0.2511807E+04  0.7818608E-02  0.8398791E-01
          2   -1    0    0  501    0  0.00000000000E+00  0.00000000000E+00  0.24932325886E+04  0.24932325886E+04  0.00000000000E+00 0. -1.
         -1   -1    0    0    0  501 -0.00000000000E+00 -0.00000000000E+00 -0.63262971220E+03  0.63262971220E+03  0.00000000000E+00 0.  1.
         24    2    1    2    0    0  0.36055886109E+03  0.45283633080E+03  0.19669338537E+04  0.20518941764E+04  0.79859198574E+02 0.  0.
        254    2    1    2    0    0 -0.36055886109E+03 -0.45283633080E+03 -0.10633097728E+03  0.10739681244E+04  0.89835283752E+03 0.  0.
         23    2    4    4    0    0  0.16311742080E+03 -0.34066908970E+03  0.21978683160E+03  0.44652919011E+03  0.91756986849E+02 0.  0.
          2    1    3    3  502    0  0.27203708071E+03  0.28381411282E+03  0.13591707567E+04  0.14148850730E+04  0.00000000000E+00 0. -1.
         -1    1    3    3    0  502  0.88521780384E+02  0.16902221798E+03  0.60776309701E+03  0.63700910343E+03  0.00000000000E+00 0.  1.
         13    1    5    5    0    0  0.12088126542E+03 -0.17857304083E+03  0.16059396086E+03  0.26886991558E+03  0.00000000000E+00 0. -1.
        -13    1    5    5    0    0  0.42236155373E+02 -0.16209604887E+03  0.59192870737E+02  0.17765927453E+03  0.00000000000E+00 0.  1.
          3    1    4    4  503    0 -0.29860623028E+03 -0.74992019356E+02 -0.18402867593E+03  0.35868654462E+03  0.00000000000E+00 0. -1.
         -3    1    4    4    0  503 -0.22507005161E+03 -0.37175221749E+02 -0.14208913295E+03  0.26875238966E+03  0.00000000000E+00 0.  1.
<mgrwt>
<rscale>  0 0.25118065E+04</rscale>
<asrwt>0</asrwt>
<pdfrwt beam="1">  1        2 0.38357424E+00 0.25118065E+04</pdfrwt>
<pdfrwt beam="2">  1       -1 0.97327649E-01 0.25118065E+04</pdfrwt>
<totfact> 0.36082230E+00</totfact>
</mgrwt>
</event>
<event>
12    7  0.1497947E-008  0.2262084E+04  0.7818608E-02  0.8493023E-01
          2   -1    0    0  501    0  0.00000000000E+00  0.00000000000E+00  0.25395976167E+04  0.25395976167E+04  0.00000000000E+00 0. -1.
         -1   -1    0    0    0  501 -0.00000000000E+00 -0.00000000000E+00 -0.50372396791E+03  0.50372396791E+03  0.00000000000E+00 0.  1.
         24    2    1    2    0    0 -0.91665841769E+03 -0.43391563446E+02  0.11934974495E+04  0.15077126228E+04  0.81337005589E+02 0.  0.
        254    2    1    2    0    0  0.91665841769E+03  0.43391563446E+02  0.84237619933E+03  0.15356089619E+04  0.89797090154E+03 0.  0.
         23    2    4    4    0    0  0.92900543031E+03 -0.75383285762E+02  0.31298775993E+03  0.98731153472E+03  0.89938864924E+02 0.  0.
         23    2    4    4    0    0 -0.12347012614E+02  0.11877484921E+03  0.52938843941E+03  0.54829742713E+03  0.78217870696E+02 0.  0.
          2    1    3    3  502    0 -0.90916090047E+03 -0.51010896147E+02  0.11793137211E+04  0.14899518473E+04  0.00000000000E+00 0. -1.
         -1    1    3    3    0  502 -0.74975172195E+01  0.76193327007E+01  0.14183728411E+02  0.17760775515E+02  0.00000000000E+00 0.  1.
         13    1    5    5    0    0  0.17645713355E+03 -0.10518280542E+01  0.25478762956E+02  0.17829019514E+03  0.00000000000E+00 0.  1.
        -13    1    5    5    0    0  0.75254829676E+03 -0.74331457708E+02  0.28750899697E+03  0.80902133958E+03  0.00000000000E+00 0. -1.
          4    1    6    6  503    0 -0.29824190091E+02  0.24255081142E+02  0.24758250189E+03  0.25054916986E+03  0.00000000000E+00 0. -1.
         -4    1    6    6    0  503  0.17477177478E+02  0.94519768067E+02  0.28180593752E+03  0.29774825727E+03  0.00000000000E+00 0.  1.
<mgrwt>
<rscale>  0 0.22620842E+04</rscale>
<asrwt>0</asrwt>
<pdfrwt beam="1">  1        2 0.39070732E+00 0.22620842E+04</pdfrwt>
<pdfrwt beam="2">  1       -1 0.77495996E-01 0.22620842E+04</pdfrwt>
<totfact> 0.57013816E+00</totfact>
</mgrwt>
</event>
<event>
11    7  0.1497947E-008  0.2674964E+04  0.7818608E-02  0.8343174E-01
          2   -1    0    0  501    0  0.00000000000E+00  0.00000000000E+00  0.96412224357E+03  0.96412224357E+03  0.00000000000E+00 0. -1.
         -1   -1    0    0    0  501 -0.00000000000E+00 -0.00000000000E+00 -0.18554265409E+04  0.18554265409E+04  0.00000000000E+00 0.  1.
         24    2    1    2    0    0 -0.35986483112E+03  0.57425030064E+02 -0.15841759779E+04  0.16278459093E+04  0.86420164109E+02 0.  0.
        254    2    1    2    0    0  0.35986483112E+03 -0.57425030064E+02  0.69287168058E+03  0.11917028751E+04  0.89848998108E+03 0.  0.
         23    2    4    4    0    0 -0.17155387166E+03 -0.17694487314E+03 -0.33988400432E+02  0.26499451112E+03  0.91250537258E+02 0.  0.
          4    1    3    3  502    0 -0.51523183421E+02  0.36073845393E+02 -0.34640482841E+03  0.35206855283E+03  0.00000000000E+00 0. -1.
         -3    1    3    3    0  502 -0.30834164769E+03  0.21351184671E+02 -0.12377711495E+04  0.12757773565E+04  0.00000000000E+00 0.  1.
         13    1    5    5    0    0 -0.57021529081E+02 -0.74460839694E+02 -0.56762936011E+02  0.10962619364E+03  0.00000000000E+00 0.  1.
        -13    1    5    5    0    0 -0.11453234258E+03 -0.10248403345E+03  0.22774535579E+02  0.15536831749E+03  0.00000000000E+00 0. -1.
          1    1    4    4  503    0  0.31241736151E+03  0.11225044490E+03  0.56111180173E+03  0.65195952650E+03  0.00000000000E+00 0. -1.
         -1    1    4    4    0  503  0.21900134127E+03  0.72693981725E+01  0.16574827928E+03  0.27474883751E+03  0.00000000000E+00 0.  1.
<mgrwt>
<rscale>  0 0.26749639E+04</rscale>
<asrwt>0</asrwt>
<pdfrwt beam="1">  1        2 0.14832650E+00 0.26749639E+04</pdfrwt>
<pdfrwt beam="2">  1       -1 0.28545024E+00 0.26749639E+04</pdfrwt>
<totfact> 0.10928218E+00</totfact>
</mgrwt>
</event>
<event>
12    7  0.1497947E-008  0.2302131E+04  0.7818608E-02  0.8477081E-01
         -1   -1    0    0    0  501 -0.00000000000E+00  0.00000000000E+00  0.94149038625E+03  0.94149038625E+03  0.00000000000E+00 0.  1.
          2   -1    0    0  501    0  0.00000000000E+00 -0.00000000000E+00 -0.14072924626E+04  0.14072924626E+04  0.00000000000E+00 0. -1.
         24    2    1    2    0    0  0.39120483071E+03  0.64614486330E+03 -0.82941806050E+03  0.11260935028E+04  0.98019661422E+02 0.  0.
        254    2    1    2    0    0 -0.39120483071E+03 -0.64614486330E+03  0.36361598415E+03  0.12226893460E+04  0.89006081200E+03 0.  0.
         23    2    4    4    0    0 -0.68184795077E+02 -0.78278117136E+03  0.30203278044E+03  0.84610286028E+03  0.85268524082E+02 0.  0.
         23    2    4    4    0    0 -0.32302003564E+03  0.13663630805E+03  0.61583203714E+02  0.37658648577E+03  0.12252945027E+03 0.  0.
          2    1    3    3  502    0  0.97075624004E+02  0.17793312784E+03 -0.16261915929E+03  0.25986316731E+03  0.00000000000E+00 0. -1.
         -3    1    3    3    0  502  0.29412920671E+03  0.46821173546E+03 -0.66679890122E+03  0.86623033549E+03  0.00000000000E+00 0.  1.
         13    1    5    5    0    0 -0.41088794196E+02 -0.14151161646E+03  0.38794885377E+02  0.15237739246E+03  0.00000000000E+00 0.  1.
        -13    1    5    5    0    0 -0.27096000881E+02 -0.64126955490E+03  0.26323789506E+03  0.69372546782E+03  0.00000000000E+00 0. -1.
          3    1    6    6  503    0 -0.26238498936E+03  0.95238961617E+02 -0.24815696458E+01  0.27914602028E+03  0.00000000000E+00 0. -1.
         -3    1    6    6    0  503 -0.60635046278E+02  0.41397346436E+02  0.64064773360E+02  0.97440465490E+02  0.00000000000E+00 0.  1.
<mgrwt>
<rscale>  0 0.23021315E+04</rscale>
<asrwt>0</asrwt>
<pdfrwt beam="1">  1        2 0.21650653E+00 0.23021315E+04</pdfrwt>
<pdfrwt beam="2">  1       -1 0.14484467E+00 0.23021315E+04</pdfrwt>
<totfact> 0.56720503E+00</totfact>
</mgrwt>
</event>
<event>
12    7  0.1497947E-008  0.2749718E+04  0.7818608E-02  0.8319051E-01
         -1   -1    0    0    0  501 -0.00000000000E+00  0.00000000000E+00  0.10288976393E+04  0.10288976393E+04  0.00000000000E+00 0.  1.
          2   -1    0    0  501    0  0.00000000000E+00 -0.00000000000E+00 -0.18371480489E+04  0.18371480489E+04  0.00000000000E+00 0. -1.
         24    2    1    2    0    0 -0.65788650956E+03 -0.10321118322E+04 -0.40982495931E+03  0.12933384399E+04  0.81843321530E+02 0.  0.
        254    2    1    2    0    0  0.65788650956E+03  0.10321118322E+04 -0.39842545030E+03  0.15727072482E+04  0.90365687931E+03 0.  0.
         23    2    4    4    0    0 -0.22246732510E+02  0.40618610155E+03  0.20426816960E+03  0.46416222207E+03  0.90769031561E+02 0.  0.
         23    2    4    4    0    0  0.68013324207E+03  0.62592573068E+03 -0.60269361990E+03  0.11085450262E+04  0.10615191127E+03 0.  0.
          4    1    3    3  502    0 -0.86326918297E+02 -0.13995469250E+03 -0.85110197865E+02  0.18515776666E+03  0.00000000000E+00 0. -1.
         -3    1    3    3    0  502 -0.57155959126E+03 -0.89215713973E+03 -0.32471476145E+03  0.11081806733E+04  0.00000000000E+00 0.  1.
         13    1    5    5    0    0 -0.36878820300E+02  0.36614938345E+03  0.20554935567E+03  0.42151625830E+03  0.00000000000E+00 0. -1.
        -13    1    5    5    0    0  0.14632087790E+02  0.40036718092E+02 -0.12811860716E+01  0.42645963776E+02  0.00000000000E+00 0.  1.
          3    1    6    6  503    0  0.46916635920E+03  0.49542291606E+03 -0.44358754954E+03  0.81383711667E+03  0.00000000000E+00 0. -1.
         -3    1    6    6    0  503  0.21096688288E+03  0.13050281462E+03 -0.15910607036E+03  0.29470790949E+03  0.00000000000E+00 0.  1.
<mgrwt>
<rscale>  0 0.27497180E+04</rscale>
<asrwt>0</asrwt>
<pdfrwt beam="1">  1        2 0.28263816E+00 0.27497180E+04</pdfrwt>
<pdfrwt beam="2">  1       -1 0.15829195E+00 0.27497180E+04</pdfrwt>
<totfact> 0.24637683E+00</totfact>
</mgrwt>
</event>
<event>
12    7  0.1497947E-008  0.1550718E+04  0.7818608E-02  0.8851409E-01
          2   -1    0    0  501    0  0.00000000000E+00  0.00000000000E+00  0.93791599291E+03  0.93791599291E+03  0.00000000000E+00 0. -1.
         -1   -1    0    0    0  501 -0.00000000000E+00 -0.00000000000E+00 -0.64097578852E+03  0.64097578852E+03  0.00000000000E+00 0.  1.
         24    2    1    2    0    0  0.21187026613E+03 -0.34976671729E+03 -0.21894944182E+03  0.47025296648E+03  0.77286662634E+02 0.  0.
        254    2    1    2    0    0 -0.21187026613E+03  0.34976671729E+03  0.51588964621E+03  0.11086388149E+04  0.89202697759E+03 0.  0.
         23    2    4    4    0    0 -0.48137530258E+03 -0.13740759059E+02  0.39205825099E+03  0.62774782829E+03  0.91905785182E+02 0.  0.
         23    2    4    4    0    0  0.26950503645E+03  0.36350747634E+03  0.12383139522E+03  0.48089098666E+03  0.10559960499E+03 0.  0.
          4    1    3    3  502    0  0.28634843735E+02 -0.11292731981E+03 -0.68308774544E+02  0.13505044434E+03  0.00000000000E+00 0. -1.
         -3    1    3    3    0  502  0.18323542239E+03 -0.23683939747E+03 -0.15064066728E+03  0.33520252215E+03  0.00000000000E+00 0.  1.
         13    1    5    5    0    0 -0.20634508487E+03  0.39379812499E+02  0.17365436122E+03  0.27255256530E+03  0.00000000000E+00 0. -1.
        -13    1    5    5    0    0 -0.27503021771E+03 -0.53120571558E+02  0.21840388978E+03  0.35519526298E+03  0.00000000000E+00 0.  1.
          1    1    6    6  503    0  0.24781940744E+03  0.26136500354E+03  0.92268882945E+02  0.37180595818E+03  0.00000000000E+00 0. -1.
         -1    1    6    6    0  503  0.21685629012E+02  0.10214247280E+03  0.31562512273E+02  0.10908502847E+03  0.00000000000E+00 0.  1.
<mgrwt>
<rscale>  0 0.15507178E+04</rscale>
<asrwt>0</asrwt>
<pdfrwt beam="1">  1        2 0.14429477E+00 0.15507178E+04</pdfrwt>
<pdfrwt beam="2">  1       -1 0.98611660E-01 0.15507178E+04</pdfrwt>
<totfact> 0.29898458E+01</totfact>
</mgrwt>
</event>
<event>
12    7  0.1497947E-008  0.1232516E+04  0.7818608E-02  0.9084862E-01
          2   -1    0    0  501    0  0.00000000000E+00  0.00000000000E+00  0.19267687286E+04  0.19267687286E+04  0.00000000000E+00 0. -1.
         -1   -1    0    0    0  501 -0.00000000000E+00 -0.00000000000E+00 -0.19710410671E+03  0.19710410671E+03  0.00000000000E+00 0.  1.
         24    2    1    2    0    0  0.62771882437E+01 -0.18897945923E+02 -0.70130579210E+02  0.10845122869E+03  0.80292187735E+02 0.  0.
        254    2    1    2    0    0 -0.62771882437E+01  0.18897945923E+02  0.17997952011E+04  0.20154216066E+04  0.90678826143E+03 0.  0.
         23    2    4    4    0    0  0.41509976524E+03  0.14568323665E+03  0.85676323973E+03  0.96786761687E+03  0.95880416630E+02 0.  0.
         23    2    4    4    0    0 -0.42137695348E+03 -0.12678529072E+03  0.94303196138E+03  0.10475539898E+04  0.12011259053E+03 0.  0.
          2    1    3    3  502    0 -0.12832777883E+02  0.20150594541E+02  0.22737980659E+01  0.23997850032E+02  0.00000000000E+00 0. -1.
         -1    1    3    3    0  502  0.19109966127E+02 -0.39048540464E+02 -0.72404377276E+02  0.84453378656E+02  0.00000000000E+00 0.  1.
         13    1    5    5    0    0  0.39535577469E+03  0.14765581243E+03  0.76214114879E+03  0.87118744149E+03  0.00000000000E+00 0.  1.
        -13    1    5    5    0    0  0.19743990543E+02 -0.19725757870E+01  0.94622090942E+02  0.96680175383E+02  0.00000000000E+00 0. -1.
          2    1    6    6  503    0 -0.49676666957E+01 -0.17251245161E+02  0.11486185708E+02  0.21312335257E+02  0.00000000000E+00 0. -1.
         -2    1    6    6    0  503 -0.41640928679E+03 -0.10953404556E+03  0.93154577567E+03  0.10262416545E+04  0.00000000000E+00 0.  1.
<mgrwt>
<rscale>  0 0.12325162E+04</rscale>
<asrwt>0</asrwt>
<pdfrwt beam="1">  1        2 0.29642595E+00 0.12325162E+04</pdfrwt>
<pdfrwt beam="2">  1       -1 0.30323710E-01 0.12325162E+04</pdfrwt>
<totfact> 0.82477524E+01</totfact>
</mgrwt>
</event>
<event>
12    7  0.1497947E-008  0.1988573E+04  0.7818608E-02  0.8611982E-01
         -1   -1    0    0    0  501 -0.00000000000E+00  0.00000000000E+00  0.80587151303E+03  0.80587151303E+03  0.00000000000E+00 0.  1.
          2   -1    0    0  501    0  0.00000000000E+00 -0.00000000000E+00 -0.12267528190E+04  0.12267528190E+04  0.00000000000E+00 0. -1.
         24    2    1    2    0    0  0.40452981477E+03  0.46674635053E+00  0.52216749063E+03  0.66547101772E+03  0.80920938280E+02 0.  0.
        254    2    1    2    0    0 -0.40452981477E+03 -0.46674635053E+00 -0.94304879659E+03  0.13671533143E+04  0.90339502054E+03 0.  0.
         23    2    4    4    0    0 -0.81184724425E+02  0.25372402414E+03 -0.89536650446E+03  0.93870734402E+03  0.92322589356E+02 0.  0.
         23    2    4    4    0    0 -0.32334509035E+03 -0.25419077049E+03 -0.47682292129E+02  0.42844597027E+03  0.11012426255E+03 0.  0.
          2    1    3    3  502    0  0.36189053883E+02  0.79781179514E+01  0.18436927164E+02  0.41391040942E+02  0.00000000000E+00 0. -1.
         -1    1    3    3    0  502  0.36834076089E+03 -0.75113716009E+01  0.50373056347E+03  0.62407997677E+03  0.00000000000E+00 0.  1.
         13    1    5    5    0    0 -0.91435363279E+02  0.21126565898E+03 -0.65184757059E+03  0.69130229250E+03  0.00000000000E+00 0. -1.
        -13    1    5    5    0    0  0.10250638854E+02  0.42458365164E+02 -0.24351893386E+03  0.24740505152E+03  0.00000000000E+00 0.  1.
          4    1    6    6  503    0 -0.16520197927E+03 -0.76999093187E+02  0.14799154495E+02  0.18286489352E+03  0.00000000000E+00 0. -1.
         -4    1    6    6    0  503 -0.15814311107E+03 -0.17719167731E+03 -0.62481446625E+02  0.24558107675E+03  0.00000000000E+00 0.  1.
<mgrwt>
<rscale>  0 0.19885725E+04</rscale>
<asrwt>0</asrwt>
<pdfrwt beam="1">  1        2 0.18873120E+00 0.19885725E+04</pdfrwt>
<pdfrwt beam="2">  1       -1 0.12398023E+00 0.19885725E+04</pdfrwt>
<totfact> 0.11056556E+01</totfact>
</mgrwt>
</event>
<event>
11    7  0.1497947E-008  0.2701374E+04  0.7818608E-02  0.8334559E-01
         -1   -1    0    0    0  501 -0.00000000000E+00  0.00000000000E+00  0.70048846510E+03  0.70048846510E+03  0.00000000000E+00 0.  1.
          2   -1    0    0  501    0  0.00000000000E+00 -0.00000000000E+00 -0.26044054640E+04  0.26044054640E+04  0.00000000000E+00 0. -1.
         24    2    1    2    0    0  0.12131589004E+03 -0.20041296536E+03 -0.22950294064E+04  0.23083191263E+04  0.79336694327E+02 0.  0.
        254    2    1    2    0    0 -0.12131589004E+03  0.20041296536E+03  0.39111240746E+03  0.99657480277E+03  0.88617691257E+03 0.  0.
         23    2    4    4    0    0  0.39093200776E+02  0.48975154966E+03  0.18712100445E+03  0.53319153506E+03  0.88848657907E+02 0.  0.
          2    1    3    3  502    0  0.61003853627E+02 -0.15106553152E+03 -0.12847152456E+04  0.12950040646E+04  0.00000000000E+00 0. -1.
         -1    1    3    3    0  502  0.60312036412E+02 -0.49347433836E+02 -0.10103141607E+04  0.10133150617E+04  0.00000000000E+00 0.  1.
         13    1    5    5    0    0  0.43259079093E+02  0.48776840203E+03  0.17465284464E+03  0.51989708413E+03  0.00000000000E+00 0. -1.
        -13    1    5    5    0    0 -0.41658783169E+01  0.19831476298E+01  0.12468159802E+02  0.13294450930E+02  0.00000000000E+00 0.  1.
          3    1    4    4  503    0 -0.22801007483E+03 -0.24255483695E+03  0.15077102503E+03  0.36544951107E+03  0.00000000000E+00 0. -1.
         -3    1    4    4    0  503  0.67600984012E+02 -0.46783747361E+02  0.53220377985E+02  0.97933756639E+02  0.00000000000E+00 0.  1.
<mgrwt>
<rscale>  0 0.27013745E+04</rscale>
<asrwt>0</asrwt>
<pdfrwt beam="1">  1        2 0.40067776E+00 0.27013745E+04</pdfrwt>
<pdfrwt beam="2">  1       -1 0.10776746E+00 0.27013745E+04</pdfrwt>
<totfact> 0.24159854E+00</totfact>
</mgrwt>
</event>
<event>
11    7  0.1497947E-008  0.1499596E+04  0.7818608E-02  0.8884722E-01
         -1   -1    0    0    0  501 -0.00000000000E+00  0.00000000000E+00  0.29878121444E+03  0.29878121444E+03  0.00000000000E+00 0.  1.
          2   -1    0    0  501    0  0.00000000000E+00 -0.00000000000E+00 -0.18816339335E+04  0.18816339335E+04  0.00000000000E+00 0. -1.
         24    2    1    2    0    0 -0.45928659004E+03  0.94453687925E+02 -0.62324764792E+03  0.78377346543E+03  0.77443808826E+02 0.  0.
        254    2    1    2    0    0  0.45928659004E+03 -0.94453687925E+02 -0.95960507117E+03  0.13966416825E+04  0.89994467931E+03 0.  0.
         23    2    4    4    0    0  0.13481177757E+03  0.21443426474E+02  0.15713947384E+03  0.22691671902E+03  0.90356777399E+02 0.  0.
          4    1    3    3  502    0 -0.89115696364E+02  0.39648309035E+02 -0.92911963898E+02  0.13470793883E+03  0.00000000000E+00 0. -1.
         -3    1    3    3    0  502 -0.37017089367E+03  0.54805378889E+02 -0.53033568402E+03  0.64906552660E+03  0.00000000000E+00 0.  1.
         13    1    5    5    0    0  0.14397608130E+03  0.79768412210E+01  0.12478667281E+03  0.19069466614E+03  0.00000000000E+00 0.  1.
        -13    1    5    5    0    0 -0.91643037221E+01  0.13466585253E+02  0.32352801024E+02  0.36222052885E+02  0.00000000000E+00 0. -1.
          3    1    4    4  503    0  0.45181534334E+02 -0.26753905812E+02 -0.12571684401E+03  0.13624194430E+03  0.00000000000E+00 0. -1.
         -3    1    4    4    0  503  0.27929327813E+03 -0.89143208586E+02 -0.99102770100E+03  0.10334830192E+04  0.00000000000E+00 0.  1.
<mgrwt>
<rscale>  0 0.14995958E+04</rscale>
<asrwt>0</asrwt>
<pdfrwt beam="1">  1        2 0.28948214E+00 0.14995958E+04</pdfrwt>
<pdfrwt beam="2">  1       -1 0.45966341E-01 0.14995958E+04</pdfrwt>
<totfact> 0.40274012E+01</totfact>
</mgrwt>
</event>
<event>
12    7  0.1497947E-008  0.1412760E+04  0.7818608E-02  0.8944634E-01
         -1   -1    0    0    0  501 -0.00000000000E+00  0.00000000000E+00  0.73543568899E+03  0.73543568899E+03  0.00000000000E+00 0.  1.
          2   -1    0    0  501    0  0.00000000000E+00 -0.00000000000E+00 -0.67847189855E+03  0.67847189855E+03  0.00000000000E+00 0. -1.
         24    2    1    2    0    0 -0.19714450656E+03 -0.18288352448E+03  0.32882629291E+03  0.43213091027E+03  0.79360271595E+02 0.  0.
        254    2    1    2    0    0  0.19714450656E+03  0.18288352448E+03 -0.27186250247E+03  0.98177667727E+03  0.90424768941E+03 0.  0.
         23    2    4    4    0    0 -0.24451768980E+03  0.13369840890E+03 -0.41024266364E+03  0.50407505222E+03  0.90157917188E+02 0.  0.
         23    2    4    4    0    0  0.44166219636E+03  0.49185115586E+02  0.13838016117E+03  0.47770162506E+03  0.10754116556E+03 0.  0.
          2    1    3    3  502    0 -0.15063586877E+01 -0.27388462347E-01 -0.43924336217E+01  0.46436343251E+01  0.00000000000E+00 0. -1.
         -1    1    3    3    0  502 -0.19563814787E+03 -0.18285613602E+03  0.33321872653E+03  0.42748727594E+03  0.00000000000E+00 0.  1.
         13    1    5    5    0    0 -0.74447180143E+02  0.86498614726E+02 -0.19245071142E+03  0.22374465202E+03  0.00000000000E+00 0. -1.
        -13    1    5    5    0    0 -0.17007050965E+03  0.47199794173E+02 -0.21779195222E+03  0.28033040020E+03  0.00000000000E+00 0.  1.
          3    1    6    6  503    0  0.52759882065E+02 -0.22656283332E+02  0.40565372834E+02  0.70302644354E+02  0.00000000000E+00 0. -1.
         -3    1    6    6    0  503  0.38890231429E+03  0.71841398917E+02  0.97814788335E+02  0.40739898070E+03  0.00000000000E+00 0.  1.
<mgrwt>
<rscale>  0 0.14127596E+04</rscale>
<asrwt>0</asrwt>
<pdfrwt beam="1">  1        2 0.10438029E+00 0.14127596E+04</pdfrwt>
<pdfrwt beam="2">  1       -1 0.11314395E+00 0.14127596E+04</pdfrwt>
<totfact> 0.33802188E+01</totfact>
</mgrwt>
</event>
<event>
11    7  0.1497947E-008  0.2076085E+04  0.7818608E-02  0.8571852E-01
         -1   -1    0    0    0  501 -0.00000000000E+00  0.00000000000E+00  0.87951183549E+03  0.87951183549E+03  0.00000000000E+00 0.  1.
          2   -1    0    0  501    0  0.00000000000E+00 -0.00000000000E+00 -0.12251483159E+04  0.12251483159E+04  0.00000000000E+00 0. -1.
         24    2    1    2    0    0 -0.47783483640E+03  0.14221750880E+03 -0.82625531531E+03  0.96829248762E+03  0.79627538066E+02 0.  0.
        254    2    1    2    0    0  0.47783483640E+03 -0.14221750880E+03  0.48061883487E+03  0.11363676638E+04  0.90099114990E+03 0.  0.
         23    2    4    4    0    0  0.14215609065E+03 -0.35217750163E+03  0.39447145203E+03  0.55509564553E+03  0.91028031138E+02 0.  0.
          4    1    3    3  502    0 -0.25041880148E+03  0.76803184774E+02 -0.50971673282E+03  0.57307892392E+03  0.00000000000E+00 0. -1.
         -3    1    3    3    0  502 -0.22741603493E+03  0.65414324029E+02 -0.31653858249E+03  0.39521356370E+03  0.00000000000E+00 0.  1.
         13    1    5    5    0    0  0.40998261082E+02 -0.15828899095E+03  0.22644178413E+03  0.27930654068E+03  0.00000000000E+00 0.  1.
        -13    1    5    5    0    0  0.10115782957E+03 -0.19388851068E+03  0.16802966790E+03  0.27578910485E+03  0.00000000000E+00 0. -1.
          1    1    4    4  503    0  0.48828506938E+02 -0.10762576335E+03  0.97434986985E+02  0.15317018220E+03  0.00000000000E+00 0. -1.
         -1    1    4    4    0  503  0.28685023882E+03  0.31758575618E+03 -0.11287604152E+02  0.42810183607E+03  0.00000000000E+00 0.  1.
<mgrwt>
<rscale>  0 0.20760852E+04</rscale>
<asrwt>0</asrwt>
<pdfrwt beam="1">  1        2 0.18848436E+00 0.20760852E+04</pdfrwt>
<pdfrwt beam="2">  1       -1 0.13530951E+00 0.20760852E+04</pdfrwt>
<totfact> 0.88210715E+00</totfact>
</mgrwt>
</event>
<event>
12    7  0.1497947E-008  0.1243192E+04  0.7818608E-02  0.9075869E-01
          2   -1    0    0  501    0  0.00000000000E+00  0.00000000000E+00  0.11110494044E+04  0.11110494044E+04  0.00000000000E+00 0. -1.
         -1   -1    0    0    0  501 -0.00000000000E+00 -0.00000000000E+00 -0.34776249530E+03  0.34776249530E+03  0.00000000000E+00 0.  1.
         24    2    1    2    0    0  0.15519272357E+03 -0.23141481729E+03  0.10290036004E+03  0.30739186065E+03  0.79143368559E+02 0.  0.
        254    2    1    2    0    0 -0.15519272357E+03  0.23141481729E+03  0.66038654904E+03  0.11514200390E+04  0.90112158615E+03 0.  0.
         23    2    4    4    0    0 -0.50049537444E+03  0.26840706026E+03  0.36253367090E+03  0.68005772179E+03  0.92248970702E+02 0.  0.
         23    2    4    4    0    0  0.34530265087E+03 -0.36992242972E+02  0.29785287815E+03  0.47136231725E+03  0.11341847454E+03 0.  0.
          2    1    3    3  502    0  0.73973792561E+02 -0.11526159390E+03  0.92520650724E+02  0.16527984700E+03  0.00000000000E+00 0. -1.
         -1    1    3    3    0  502  0.81218931010E+02 -0.11615322338E+03  0.10379709317E+02  0.14211201365E+03  0.00000000000E+00 0.  1.
         13    1    5    5    0    0 -0.39127154880E+03  0.17442326145E+03  0.24081256360E+03  0.49143421718E+03  0.00000000000E+00 0.  1.
        -13    1    5    5    0    0 -0.10922382564E+03  0.93983798815E+02  0.12172110729E+03  0.18862350460E+03  0.00000000000E+00 0. -1.
          1    1    6    6  503    0  0.90918186469E+01  0.39066276856E+01 -0.97095701399E+01  0.13863573078E+02  0.00000000000E+00 0. -1.
         -1    1    6    6    0  503  0.33621083222E+03 -0.40898870658E+02  0.30756244829E+03  0.45749874417E+03  0.00000000000E+00 0.  1.
<mgrwt>
<rscale>  0 0.12431916E+04</rscale>
<asrwt>0</asrwt>
<pdfrwt beam="1">  1        2 0.17093068E+00 0.12431916E+04</pdfrwt>
<pdfrwt beam="2">  1       -1 0.53501923E-01 0.12431916E+04</pdfrwt>
<totfact> 0.84805407E+01</totfact>
</mgrwt>
</event>
<event>
12    7  0.1497947E-008  0.1913331E+04  0.7818608E-02  0.8648249E-01
         -3   -1    0    0    0  501 -0.00000000000E+00  0.00000000000E+00  0.22038062763E+04  0.22038062763E+04  0.00000000000E+00 0.  1.
          4   -1    0    0  501    0  0.00000000000E+00 -0.00000000000E+00 -0.41528552843E+03  0.41528552843E+03  0.00000000000E+00 0. -1.
         24    2    1    2    0    0 -0.20675471071E+03 -0.23429142202E+02  0.16644100363E+04  0.16795795242E+04  0.86198457998E+02 0.  0.
        254    2    1    2    0    0  0.20675471071E+03  0.23429142202E+02  0.12411071159E+03  0.93951228053E+03  0.90773532564E+03 0.  0.
         23    2    4    4    0    0  0.30405475660E+03  0.11342982824E+03 -0.32306554302E+03  0.46673622135E+03  0.90309104158E+02 0.  0.
         23    2    4    4    0    0 -0.97300045888E+02 -0.90000686034E+02  0.44717625461E+03  0.47277605917E+03  0.77350998851E+02 0.  0.
          4    1    3    3  502    0  0.69745487002E+01 -0.84113751511E+01  0.74021119148E+02  0.74823269385E+02  0.00000000000E+00 0. -1.
         -3    1    3    3    0  502 -0.21372925941E+03 -0.15017767051E+02  0.15903889172E+04  0.16047562548E+04  0.00000000000E+00 0.  1.
         13    1    5    5    0    0  0.43464701427E+02  0.60515846858E+01 -0.93290011858E+02  0.10309620876E+03  0.00000000000E+00 0. -1.
        -13    1    5    5    0    0  0.26059005517E+03  0.10737824355E+03 -0.22977553116E+03  0.36364001260E+03  0.00000000000E+00 0.  1.
          3    1    6    6  503    0 -0.16030613261E+02 -0.67011156200E+02  0.19238126567E+03  0.20434780889E+03  0.00000000000E+00 0. -1.
         -3    1    6    6    0  503 -0.81269432627E+02 -0.22989529834E+02  0.25479498894E+03  0.26842825029E+03  0.00000000000E+00 0.  1.
<mgrwt>
<rscale>  0 0.19133310E+04</rscale>
<asrwt>0</asrwt>
<pdfrwt beam="1">  1        4 0.63890082E-01 0.19133310E+04</pdfrwt>
<pdfrwt beam="2">  1       -3 0.33904711E+00 0.19133310E+04</pdfrwt>
<totfact> 0.11322254E-01</totfact>
</mgrwt>
</event>
<event>
12    7  0.1497947E-008  0.1522398E+04  0.7818608E-02  0.8869694E-01
          2   -1    0    0  501    0  0.00000000000E+00  0.00000000000E+00  0.38076789688E+04  0.38076789688E+04  0.00000000000E+00 0. -1.
         -3   -1    0    0    0  501 -0.00000000000E+00 -0.00000000000E+00 -0.15217247324E+03  0.15217247324E+03  0.00000000000E+00 0.  1.
         24    2    1    2    0    0  0.19742529819E+03  0.67231580751E+02  0.32459556187E+02  0.22571064006E+03  0.79967721189E+02 0.  0.
        254    2    1    2    0    0 -0.19742529819E+03 -0.67231580751E+02  0.36230469393E+04  0.37341408019E+04  0.87968265320E+03 0.  0.
         23    2    4    4    0    0 -0.42899947481E+03 -0.66490739941E+02  0.93042884903E+03  0.10306865117E+04  0.90306557432E+02 0.  0.
         23    2    4    4    0    0  0.23157417662E+03 -0.74084081033E+00  0.26926180903E+04  0.27034542903E+04  0.69611574806E+02 0.  0.
          4    1    3    3  502    0  0.31024783741E+02  0.45809524982E+02  0.12807767043E+02  0.56789864253E+02  0.00000000000E+00 0. -1.
         -3    1    3    3    0  502  0.16640051445E+03  0.21422055769E+02  0.19651789143E+02  0.16892077580E+03  0.00000000000E+00 0.  1.
         13    1    5    5    0    0 -0.16457108510E+03 -0.45100737874E+02  0.45969217075E+03  0.49034132037E+03  0.00000000000E+00 0.  1.
        -13    1    5    5    0    0 -0.26442838971E+03 -0.21390002067E+02  0.47073667828E+03  0.54034519129E+03  0.00000000000E+00 0. -1.
          3    1    6    6  503    0  0.17655399722E+03  0.28135691534E+02  0.18917077471E+04  0.19001371349E+04  0.00000000000E+00 0. -1.
         -3    1    6    6    0  503  0.55020179407E+02 -0.28876532344E+02  0.80091034320E+03  0.80331715536E+03  0.00000000000E+00 0.  1.
<mgrwt>
<rscale>  0 0.15223980E+04</rscale>
<asrwt>0</asrwt>
<pdfrwt beam="1">  1        2 0.58579669E+00 0.15223980E+04</pdfrwt>
<pdfrwt beam="2">  1       -3 0.23411153E-01 0.15223980E+04</pdfrwt>
<totfact> 0.53662859E+00</totfact>
</mgrwt>
</event>
<event>
11    7  0.1497947E-008  0.1723460E+04  0.7818608E-02  0.8748096E-01
          2   -1    0    0  501    0  0.00000000000E+00  0.00000000000E+00  0.16087300586E+04  0.16087300586E+04  0.00000000000E+00 0. -1.
         -1   -1    0    0    0  501 -0.00000000000E+00 -0.00000000000E+00 -0.46159329545E+03  0.46159329545E+03  0.00000000000E+00 0.  1.
         24    2    1    2    0    0  0.61238521452E+02  0.46316326360E+03  0.92000160852E+03  0.10362495163E+04  0.95601962032E+02 0.  0.
        254    2    1    2    0    0 -0.61238521452E+02 -0.46316326360E+03  0.22713515466E+03  0.10340738378E+04  0.89411853699E+03 0.  0.
         23    2    4    4    0    0 -0.13972335896E+03 -0.52412536746E+03 -0.19253232910E+03  0.58286418689E+03  0.91825621402E+02 0.  0.
          2    1    3    3  502    0  0.83187018735E+02  0.41431871263E+03  0.79717070152E+03  0.90225340292E+03  0.00000000000E+00 0. -1.
         -1    1    3    3    0  502 -0.21948497284E+02  0.48844550968E+02  0.12283090701E+03  0.13399611341E+03  0.00000000000E+00 0.  1.
         13    1    5    5    0    0 -0.11740124899E+03 -0.50868897675E+03 -0.19018265290E+03  0.55562304649E+03  0.00000000000E+00 0. -1.
        -13    1    5    5    0    0 -0.22322109966E+02 -0.15436390718E+02 -0.23496762039E+01  0.27241140395E+02  0.00000000000E+00 0.  1.
          3    1    4    4  503    0  0.42163614133E+02  0.79395044391E+02  0.39149850181E+03  0.40168696811E+03  0.00000000000E+00 0. -1.
         -3    1    4    4    0  503  0.36321223372E+02 -0.18432940524E+02  0.28168981955E+02  0.49522682763E+02  0.00000000000E+00 0.  1.
<mgrwt>
<rscale>  0 0.17234605E+04</rscale>
<asrwt>0</asrwt>
<pdfrwt beam="1">  1        2 0.24749693E+00 0.17234605E+04</pdfrwt>
<pdfrwt beam="2">  1       -1 0.71014354E-01 0.17234605E+04</pdfrwt>
<totfact> 0.23899246E+01</totfact>
</mgrwt>
</event>
<event>
12    7  0.1497947E-008  0.1577886E+04  0.7818608E-02  0.8834250E-01
          2   -1    0    0  501    0  0.00000000000E+00  0.00000000000E+00  0.95160403528E+03  0.95160403528E+03  0.00000000000E+00 0. -1.
         -1   -1    0    0    0  501 -0.00000000000E+00 -0.00000000000E+00 -0.65408605185E+03  0.65408605185E+03  0.00000000000E+00 0.  1.
         24    2    1    2    0    0  0.15190416278E+03 -0.49270883119E+03  0.21470094789E+03  0.56398349474E+03  0.78383788585E+02 0.  0.
        254    2    1    2    0    0 -0.15190416278E+03  0.49270883119E+03  0.82817035536E+02  0.10417065924E+04  0.90136401983E+03 0.  0.
         23    2    4    4    0    0  0.13732288226E+03  0.35463124765E+03 -0.32791282865E+03  0.51034053674E+03  0.91102933279E+02 0.  0.
         23    2    4    4    0    0 -0.28922704503E+03  0.13807758355E+03  0.41072986419E+03  0.53136605565E+03  0.10456175735E+03 0.  0.
          2    1    3    3  502    0  0.65371727888E+01 -0.35699120548E+02  0.38907845547E+02  0.53206975868E+02  0.00000000000E+00 0. -1.
         -1    1    3    3    0  502  0.14536698999E+03 -0.45700971065E+03  0.17579310235E+03  0.51077651888E+03  0.00000000000E+00 0.  1.
         13    1    5    5    0    0  0.78463501160E+02  0.30221371191E+03 -0.26136661351E+03  0.40718810805E+03  0.00000000000E+00 0. -1.
        -13    1    5    5    0    0  0.58859381096E+02  0.52417535737E+02 -0.66546215139E+02  0.10315242869E+03  0.00000000000E+00 0.  1.
          4    1    6    6  503    0 -0.11875666523E+03  0.40731674873E+02  0.24149914129E+03  0.27218385352E+03  0.00000000000E+00 0. -1.
         -4    1    6    6    0  503 -0.17047037980E+03  0.97345908673E+02  0.16923072290E+03  0.25918220212E+03  0.00000000000E+00 0.  1.
<mgrwt>
<rscale>  0 0.15778858E+04</rscale>
<asrwt>0</asrwt>
<pdfrwt beam="1">  1        2 0.14640062E+00 0.15778858E+04</pdfrwt>
<pdfrwt beam="2">  1       -1 0.10062862E+00 0.15778858E+04</pdfrwt>
<totfact> 0.27897261E+01</totfact>
</mgrwt>
</event>
<event>
12    7  0.1497947E-008  0.1162727E+04  0.7818608E-02  0.9146122E-01
         -1   -1    0    0    0  501 -0.00000000000E+00  0.00000000000E+00  0.36611883780E+03  0.36611883780E+03  0.00000000000E+00 0.  1.
          2   -1    0    0  501    0  0.00000000000E+00 -0.00000000000E+00 -0.92315295499E+03  0.92315295499E+03  0.00000000000E+00 0. -1.
         24    2    1    2    0    0 -0.56970841169E+02  0.20177072353E+03 -0.29669237228E+03  0.37180685422E+03  0.79100388495E+02 0.  0.
        254    2    1    2    0    0  0.56970841169E+02 -0.20177072353E+03 -0.26034174491E+03  0.91746493856E+03  0.85440446378E+03 0.  0.
         23    2    4    4    0    0  0.41899542595E+03  0.40562128556E+02 -0.14842135623E+03  0.45580230866E+03  0.92327635915E+02 0.  0.
         23    2    4    4    0    0 -0.36202458478E+03 -0.24233285208E+03 -0.11192038868E+03  0.46166262990E+03  0.10401537993E+03 0.  0.
          2    1    3    3  502    0 -0.68610129391E+02  0.20003945859E+03 -0.28735109569E+03  0.35678254868E+03  0.00000000000E+00 0. -1.
         -1    1    3    3    0  502  0.11639288222E+02  0.17312649322E+01 -0.93412765913E+01  0.15024305539E+02  0.00000000000E+00 0.  1.
         13    1    5    5    0    0  0.32276851710E+02  0.28806266220E+02 -0.67645454523E+01  0.43787614745E+02  0.00000000000E+00 0.  1.
        -13    1    5    5    0    0  0.38671857424E+03  0.11755862336E+02 -0.14165681078E+03  0.41201469392E+03  0.00000000000E+00 0. -1.
          4    1    6    6  503    0 -0.32243174436E+03 -0.19744467221E+03 -0.12889086655E+03  0.39944897526E+03  0.00000000000E+00 0. -1.
         -4    1    6    6    0  503 -0.39592840423E+02 -0.44888179867E+02  0.16970477874E+02  0.62213654642E+02  0.00000000000E+00 0.  1.
<mgrwt>
<rscale>  0 0.11627273E+04</rscale>
<asrwt>0</asrwt>
<pdfrwt beam="1">  1        2 0.14202353E+00 0.11627273E+04</pdfrwt>
<pdfrwt beam="2">  1       -1 0.56325976E-01 0.11627273E+04</pdfrwt>
<totfact> 0.10181214E+02</totfact>
</mgrwt>
</event>
<event>
12    7  0.1497947E-008  0.1725528E+04  0.7818608E-02  0.8746937E-01
          2   -1    0    0  501    0  0.00000000000E+00  0.00000000000E+00  0.24026927067E+04  0.24026927067E+04  0.00000000000E+00 0. -1.
         -1   -1    0    0    0  501 -0.00000000000E+00 -0.00000000000E+00 -0.30980328594E+03  0.30980328594E+03  0.00000000000E+00 0.  1.
         24    2    1    2    0    0 -0.65163534970E+02 -0.14101677232E+03  0.17587929784E+04  0.17673722544E+04  0.78229970323E+02 0.  0.
        254    2    1    2    0    0  0.65163534970E+02  0.14101677232E+03  0.33409644229E+03  0.94512373819E+03  0.87034845400E+03 0.  0.
         23    2    4    4    0    0 -0.20430970562E+03  0.40980741535E+03  0.28565999197E+03  0.54745335079E+03  0.91754927916E+02 0.  0.
         23    2    4    4    0    0  0.26947324059E+03 -0.26879064302E+03  0.48436450316E+02  0.39767038740E+03  0.10455338408E+03 0.  0.
          2    1    3    3  502    0 -0.64896207092E+02 -0.14555369498E+03  0.14823621095E+04  0.14909040276E+04  0.00000000000E+00 0. -1.
         -1    1    3    3    0  502 -0.26732787820E+00  0.45369226592E+01  0.27643086890E+03  0.27646822676E+03  0.00000000000E+00 0.  1.
         13    1    5    5    0    0 -0.19759308503E+03  0.39372298120E+03  0.24699707406E+03  0.50504293656E+03  0.00000000000E+00 0.  1.
        -13    1    5    5    0    0 -0.67166205917E+01  0.16084434152E+02  0.38662917911E+02  0.42410414235E+02  0.00000000000E+00 0. -1.
          1    1    6    6  503    0  0.76396992604E+01  0.97686105774E+01  0.10305590544E+01  0.12443986876E+02  0.00000000000E+00 0. -1.
         -1    1    6    6    0  503  0.26183354133E+03 -0.27855925360E+03  0.47405891262E+02  0.38522640052E+03  0.00000000000E+00 0.  1.
<mgrwt>
<rscale>  0 0.17255284E+04</rscale>
<asrwt>0</asrwt>
<pdfrwt beam="1">  1        2 0.36964502E+00 0.17255284E+04</pdfrwt>
<pdfrwt beam="2">  1       -1 0.47662045E-01 0.17255284E+04</pdfrwt>
<totfact> 0.18851670E+01</totfact>
</mgrwt>
</event>
<event>
12    7  0.1497947E-008  0.2192657E+04  0.7818608E-02  0.8521491E-01
         -1   -1    0    0    0  501 -0.00000000000E+00  0.00000000000E+00  0.67590694431E+03  0.67590694431E+03  0.00000000000E+00 0.  1.
          2   -1    0    0  501    0  0.00000000000E+00 -0.00000000000E+00 -0.17782565623E+04  0.17782565623E+04  0.00000000000E+00 0. -1.
         24    2    1    2    0    0 -0.65043432555E+03 -0.64172234793E+03 -0.47950860255E+03  0.10353031443E+04  0.83974502449E+02 0.  0.
        254    2    1    2    0    0  0.65043432555E+03  0.64172234793E+03 -0.62284101547E+03  0.14188603623E+04  0.88902272945E+03 0.  0.
         23    2    4    4    0    0  0.44751630325E+03 -0.11554071575E+03 -0.32944573276E+03  0.57519003905E+03  0.93212614582E+02 0.  0.
         23    2    4    4    0    0  0.20291802230E+03  0.75726306369E+03 -0.29339528271E+03  0.84367032326E+03  0.10524139407E+03 0.  0.
          4    1    3    3  502    0 -0.21041378940E+03 -0.21204955909E+03 -0.11312931748E+03  0.31943265449E+03  0.00000000000E+00 0. -1.
         -3    1    3    3    0  502 -0.44002053615E+03 -0.42967278884E+03 -0.36637928507E+03  0.71587048984E+03  0.00000000000E+00 0.  1.
         13    1    5    5    0    0  0.34265093716E+03 -0.12272466980E+03 -0.27901481017E+03  0.45860688351E+03  0.00000000000E+00 0. -1.
        -13    1    5    5    0    0  0.10486536609E+03  0.71839540447E+01 -0.50430922585E+02  0.11658315553E+03  0.00000000000E+00 0.  1.
          2    1    6    6  503    0  0.10827787850E+03  0.55661090380E+03 -0.23828177185E+03  0.61507560511E+03  0.00000000000E+00 0. -1.
         -2    1    6    6    0  503  0.94640143800E+02  0.20065215988E+03 -0.55113510861E+02  0.22859471815E+03  0.00000000000E+00 0.  1.
<mgrwt>
<rscale>  0 0.21926568E+04</rscale>
<asrwt>0</asrwt>
<pdfrwt beam="1">  1        2 0.27357793E+00 0.21926568E+04</pdfrwt>
<pdfrwt beam="2">  1       -1 0.10398568E+00 0.21926568E+04</pdfrwt>
<totfact> 0.80453224E+00</totfact>
</mgrwt>
</event>
<event>
12    7  0.1497947E-008  0.2877130E+04  0.7818608E-02  0.8279715E-01
         -1   -1    0    0    0  501 -0.00000000000E+00  0.00000000000E+00  0.31645463601E+04  0.31645463601E+04  0.00000000000E+00 0.  1.
          2   -1    0    0  501    0  0.00000000000E+00 -0.00000000000E+00 -0.65395440725E+03  0.65395440725E+03  0.00000000000E+00 0. -1.
         24    2    1    2    0    0 -0.54286283016E+03 -0.10556949711E+04  0.18284253352E+04  0.21814288964E+04  0.79378204353E+02 0.  0.
        254    2    1    2    0    0  0.54286283016E+03  0.10556949711E+04  0.68216661771E+03  0.16370718710E+04  0.89747484214E+03 0.  0.
         23    2    4    4    0    0  0.44398658819E+03  0.39810808411E+02  0.27107348519E+03  0.52981518194E+03  0.92272973772E+02 0.  0.
         23    2    4    4    0    0  0.98876241979E+02  0.10158841626E+04  0.41109313252E+03  0.11072566891E+04  0.12338017975E+03 0.  0.
          2    1    3    3  502    0 -0.45996558125E+03 -0.93077331115E+03  0.15582903346E+04  0.18724785873E+04  0.00000000000E+00 0. -1.
         -1    1    3    3    0  502 -0.82897248911E+02 -0.12492165991E+03  0.27013500053E+03  0.30895030912E+03  0.00000000000E+00 0.  1.
         13    1    5    5    0    0  0.37228633698E+03 -0.18537380058E+01  0.22179864806E+03  0.43335342773E+03  0.00000000000E+00 0.  1.
        -13    1    5    5    0    0  0.71700251207E+02  0.41664546417E+02  0.49274837124E+02  0.96461754208E+02  0.00000000000E+00 0. -1.
          3    1    6    6  503    0  0.41223778122E+01  0.58400170098E+02  0.57836823947E+02  0.82296245786E+02  0.00000000000E+00 0. -1.
         -3    1    6    6    0  503  0.94753864166E+02  0.95748399255E+03  0.35325630858E+03  0.10249604433E+04  0.00000000000E+00 0.  1.
<mgrwt>
<rscale>  0 0.28771298E+04</rscale>
<asrwt>0</asrwt>
<pdfrwt beam="1">  1        2 0.10060837E+00 0.28771298E+04</pdfrwt>
<pdfrwt beam="2">  1       -1 0.48685328E+00 0.28771298E+04</pdfrwt>
<totfact> 0.79784354E-02</totfact>
</mgrwt>
</event>
<event>
11    7  0.1497947E-008  0.1397168E+04  0.7818608E-02  0.8955871E-01
          2   -1    0    0  501    0  0.00000000000E+00  0.00000000000E+00  0.40442928712E+04  0.40442928712E+04  0.00000000000E+00 0. -1.
         -1   -1    0    0    0  501 -0.00000000000E+00 -0.00000000000E+00 -0.12066870534E+03  0.12066870534E+03  0.00000000000E+00 0.  1.
         24    2    1    2    0    0  0.97555463266E+02 -0.39539680691E+03  0.12540134296E+04  0.13209063583E+04  0.79926356289E+02 0.  0.
        254    2    1    2    0    0 -0.97555463266E+02  0.39539680691E+03  0.26696107363E+04  0.28440552183E+04  0.89217313232E+03 0.  0.
         23    2    4    4    0    0 -0.24697415300E+03 -0.18065768519E+03  0.58022935646E+03  0.66221527545E+03  0.90716776142E+02 0.  0.
          4    1    3    3  502    0  0.25025392108E+02 -0.68672166201E+02  0.33416361338E+03  0.34206352797E+03  0.00000000000E+00 0. -1.
         -3    1    3    3    0  502  0.72530071158E+02 -0.32672464071E+03  0.91984981619E+03  0.97884283029E+03  0.00000000000E+00 0.  1.
         13    1    5    5    0    0 -0.25195004859E+03 -0.16961834936E+03  0.53305778370E+03  0.61351431294E+03  0.00000000000E+00 0. -1.
        -13    1    5    5    0    0  0.49758955873E+01 -0.11039335827E+02  0.47171572762E+02  0.48700962508E+02  0.00000000000E+00 0.  1.
          2    1    4    4  503    0  0.15336320886E+03  0.58247356838E+03  0.20892107225E+04  0.21743038368E+04  0.00000000000E+00 0. -1.
         -2    1    4    4    0  503 -0.39445191244E+01 -0.64190762730E+01  0.17065739728E+00  0.75361061078E+01  0.00000000000E+00 0.  1.
<mgrwt>
<rscale>  0 0.13971680E+04</rscale>
<asrwt>0</asrwt>
<pdfrwt beam="1">  1        2 0.62219880E+00 0.13971680E+04</pdfrwt>
<pdfrwt beam="2">  1       -1 0.18564419E-01 0.13971680E+04</pdfrwt>
<totfact> 0.83259134E+00</totfact>
</mgrwt>
</event>
<event>
11    7  0.1497947E-008  0.2034615E+04  0.7818608E-02  0.8590606E-01
          2   -1    0    0  501    0  0.00000000000E+00  0.00000000000E+00  0.14306767829E+04  0.14306767829E+04  0.00000000000E+00 0. -1.
         -1   -1    0    0    0  501 -0.00000000000E+00 -0.00000000000E+00 -0.72337425367E+03  0.72337425367E+03  0.00000000000E+00 0.  1.
         24    2    1    2    0    0  0.19620439108E+03  0.36393757549E+03 -0.45798549381E+03  0.62148742224E+03  0.74492828731E+02 0.  0.
        254    2    1    2    0    0 -0.19620439108E+03 -0.36393757549E+03  0.11652880231E+04  0.15325636144E+04  0.90548789801E+03 0.  0.
         23    2    4    4    0    0 -0.35999261632E+03  0.11443404131E+03  0.78298552020E+03  0.87417034621E+03  0.91747674300E+02 0.  0.
          2    1    3    3  502    0  0.73263784853E+02  0.18150047668E+03 -0.26063495204E+03  0.32594567559E+03  0.00000000000E+00 0. -1.
         -1    1    3    3    0  502  0.12294060623E+03  0.18243709881E+03 -0.19735054177E+03  0.29554174666E+03  0.00000000000E+00 0.  1.
         13    1    5    5    0    0 -0.99811183582E+02  0.75906424893E+02  0.23664513025E+03  0.26781518885E+03  0.00000000000E+00 0. -1.
        -13    1    5    5    0    0 -0.26018143274E+03  0.38527616412E+02  0.54634038995E+03  0.60635515736E+03  0.00000000000E+00 0.  1.
          1    1    4    4  503    0  0.12913358391E+02  0.85705364887E+00  0.60234825782E+02  0.61609444104E+02  0.00000000000E+00 0. -1.
         -1    1    4    4    0  503  0.15087486685E+03 -0.47922867045E+03  0.32206767710E+03  0.59678382406E+03  0.00000000000E+00 0.  1.
<mgrwt>
<rscale>  0 0.20346152E+04</rscale>
<asrwt>0</asrwt>
<pdfrwt beam="1">  1        2 0.22010412E+00 0.20346152E+04</pdfrwt>
<pdfrwt beam="2">  1       -1 0.11128835E+00 0.20346152E+04</pdfrwt>
<totfact> 0.10892953E+01</totfact>
</mgrwt>
</event>
<event>
12    7  0.1497947E-008  0.2746303E+04  0.7818608E-02  0.8320136E-01
         -1   -1    0    0    0  501 -0.00000000000E+00  0.00000000000E+00  0.14739657396E+04  0.14739657396E+04  0.00000000000E+00 0.  1.
          2   -1    0    0  501    0  0.00000000000E+00 -0.00000000000E+00 -0.12792322774E+04  0.12792322774E+04  0.00000000000E+00 0. -1.
         24    2    1    2    0    0 -0.18170201223E+03  0.82064951944E+03  0.98005543265E+03  0.12935783679E+04  0.79718804906E+02 0.  0.
        254    2    1    2    0    0  0.18170201223E+03 -0.82064951944E+03 -0.78532197038E+03  0.14596196491E+04  0.89848632031E+03 0.  0.
         23    2    4    4    0    0  0.78391519596E+02 -0.16917492198E+03  0.18648004801E+03  0.27898954234E+03  0.91076736106E+02 0.  0.
         23    2    4    4    0    0  0.10331049264E+03 -0.65147459746E+03 -0.97180201839E+03  0.11806301067E+04  0.11998365279E+03 0.  0.
          2    1    3    3  502    0 -0.33344988504E+02  0.21714567141E+03  0.30666929974E+03  0.37724022887E+03  0.00000000000E+00 0. -1.
         -1    1    3    3    0  502 -0.14835702373E+03  0.60350384803E+03  0.67338613291E+03  0.91633813905E+03  0.00000000000E+00 0.  1.
         13    1    5    5    0    0  0.59039837153E+02 -0.69942504283E+02  0.37433661218E+02  0.98888499172E+02  0.00000000000E+00 0. -1.
        -13    1    5    5    0    0  0.19351682443E+02 -0.99232417696E+02  0.14904638679E+03  0.18010104317E+03  0.00000000000E+00 0.  1.
          3    1    6    6  503    0 -0.20220731524E+02 -0.23394306314E+03 -0.35435641451E+03  0.42509611063E+03  0.00000000000E+00 0. -1.
         -3    1    6    6    0  503  0.12353122416E+03 -0.41753153432E+03 -0.61744560388E+03  0.75553399609E+03  0.00000000000E+00 0.  1.
<mgrwt>
<rscale>  0 0.27463026E+04</rscale>
<asrwt>0</asrwt>
<pdfrwt beam="1">  1        2 0.19680496E+00 0.27463026E+04</pdfrwt>
<pdfrwt beam="2">  1       -1 0.22676396E+00 0.27463026E+04</pdfrwt>
<totfact> 0.16789332E+00</totfact>
</mgrwt>
</event>
<event>
12    7  0.1497947E-008  0.1795376E+04  0.7818608E-02  0.8708763E-01
         -1   -1    0    0    0  501 -0.00000000000E+00  0.00000000000E+00  0.13891829290E+04  0.13891829290E+04  0.00000000000E+00 0.  1.
          2   -1    0    0  501    0  0.00000000000E+00 -0.00000000000E+00 -0.58008447356E+03  0.58008447356E+03  0.00000000000E+00 0. -1.
         24    2    1    2    0    0  0.12142011868E+03  0.65351251576E+03  0.43414584491E+03  0.79812937993E+03  0.81892850693E+02 0.  0.
        254    2    1    2    0    0 -0.12142011868E+03 -0.65351251576E+03  0.37495261057E+03  0.11711380227E+04  0.88834303874E+03 0.  0.
         23    2    4    4    0    0 -0.36434253052E+03  0.27299690903E+02  0.91237391884E+02  0.38757534203E+03  0.91649503042E+02 0.  0.
         23    2    4    4    0    0  0.24292241184E+03 -0.68081220666E+03  0.28371521868E+03  0.78356268063E+03  0.10468806164E+03 0.  0.
          4    1    3    3  502    0  0.66983839825E+02  0.16387513274E+03  0.11135311243E+03  0.20914447059E+03  0.00000000000E+00 0. -1.
         -3    1    3    3    0  502  0.54436278856E+02  0.48963738301E+03  0.32279273247E+03  0.58898490935E+03  0.00000000000E+00 0.  1.
         13    1    5    5    0    0 -0.25954663737E+03 -0.92149770721E+01  0.31698874642E+02  0.26163751915E+03  0.00000000000E+00 0. -1.
        -13    1    5    5    0    0 -0.10479589315E+03  0.36514667975E+02  0.59538517242E+02  0.12593782289E+03  0.00000000000E+00 0.  1.
          1    1    6    6  503    0  0.11113510625E+03 -0.19499963905E+03  0.57477917934E+02  0.23168854550E+03  0.00000000000E+00 0. -1.
         -1    1    6    6    0  503  0.13178730559E+03 -0.48581256761E+03  0.22623730075E+03  0.55187413512E+03  0.00000000000E+00 0.  1.
<mgrwt>
<rscale>  0 0.17953757E+04</rscale>
<asrwt>0</asrwt>
<pdfrwt beam="1">  1        2 0.89243766E-01 0.17953757E+04</pdfrwt>
<pdfrwt beam="2">  1       -1 0.21372045E+00 0.17953757E+04</pdfrwt>
<totfact> 0.67595304E+00</totfact>
</mgrwt>
</event>
<event>
12    7  0.1497947E-008  0.1346740E+04  0.7818608E-02  0.8993299E-01
          2   -1    0    0  501    0  0.00000000000E+00  0.00000000000E+00  0.17483905086E+04  0.17483905086E+04  0.00000000000E+00 0. -1.
         -1   -1    0    0    0  501 -0.00000000000E+00 -0.00000000000E+00 -0.25933983432E+03  0.25933983432E+03  0.00000000000E+00 0.  1.
         24    2    1    2    0    0 -0.23152860483E+03  0.14035815461E+03  0.50177062920E+02  0.28612983405E+03  0.77760130346E+02 0.  0.
        254    2    1    2    0    0  0.23152860483E+03 -0.14035815461E+03  0.14388736113E+04  0.17216005089E+04  0.90567385756E+03 0.  0.
         23    2    4    4    0    0 -0.21460878525E+03 -0.19196957548E+03  0.12519306027E+03  0.32847604373E+03  0.96508861496E+02 0.  0.
         23    2    4    4    0    0  0.44613739008E+03  0.51611420876E+02  0.13136805511E+04  0.13931244651E+04  0.11548539077E+03 0.  0.
          4    1    3    3  502    0 -0.31755564222E+01  0.91260674902E+01  0.18479291177E+02  0.20853140503E+02  0.00000000000E+00 0. -1.
         -3    1    3    3    0  502 -0.22835304841E+03  0.13123208712E+03  0.31697771743E+02  0.26527669355E+03  0.00000000000E+00 0.  1.
         13    1    5    5    0    0 -0.15530164022E+02 -0.34173304162E+02  0.51958289645E+02  0.64098865628E+02  0.00000000000E+00 0.  1.
        -13    1    5    5    0    0 -0.19907862123E+03 -0.15779627132E+03  0.73234770629E+02  0.26437717811E+03  0.00000000000E+00 0. -1.
          1    1    6    6  503    0  0.98488697476E+02  0.32128842884E+02  0.45267752128E+03  0.46438047369E+03  0.00000000000E+00 0.  1.
         -1    1    6    6    0  503  0.34764869261E+03  0.19482577992E+02  0.86100302979E+03  0.92874399144E+03  0.00000000000E+00 0. -1.
<mgrwt>
<rscale>  0 0.13467402E+04</rscale>
<asrwt>0</asrwt>
<pdfrwt beam="1">  1        2 0.26898315E+00 0.13467402E+04</pdfrwt>
<pdfrwt beam="2">  1       -1 0.39898437E-01 0.13467402E+04</pdfrwt>
<totfact> 0.62782334E+01</totfact>
</mgrwt>
</event>
<event>
11    7  0.1497947E-008  0.1859188E+04  0.7818608E-02  0.8675442E-01
         -1   -1    0    0    0  501 -0.00000000000E+00  0.00000000000E+00  0.64432730513E+03  0.64432730513E+03  0.00000000000E+00 0.  1.
          2   -1    0    0  501    0  0.00000000000E+00 -0.00000000000E+00 -0.13411580035E+04  0.13411580035E+04  0.00000000000E+00 0. -1.
         24    2    1    2    0    0 -0.71070049180E+03 -0.29901283736E+02 -0.29435296239E+03  0.77404066889E+03  0.80659871099E+02 0.  0.
        254    2    1    2    0    0  0.71070049180E+03  0.29901283736E+02 -0.40247773596E+03  0.12114446397E+04  0.89421502522E+03 0.  0.
         23    2    4    4    0    0 -0.85977318978E+02  0.71123954683E+02  0.15837201440E+03  0.21401956984E+03  0.90950343698E+02 0.  0.
          2    1    3    3  502    0 -0.56492697941E+03 -0.12079837409E+02 -0.19962787961E+03  0.59928265857E+03  0.00000000000E+00 0. -1.
         -1    1    3    3    0  502 -0.14577351239E+03 -0.17821446327E+02 -0.94725082782E+02  0.17475801032E+03  0.00000000000E+00 0.  1.
         13    1    5    5    0    0 -0.47263838028E+01 -0.52365865325E+01 -0.99011221721E+01  0.12157004673E+02  0.00000000000E+00 0.  1.
        -13    1    5    5    0    0 -0.81250935175E+02  0.76360541215E+02  0.16827313657E+03  0.20186256516E+03  0.00000000000E+00 0. -1.
          4    1    4    4  503    0  0.30994758361E+03  0.26944618986E+01 -0.34317414010E+03  0.46243189244E+03  0.00000000000E+00 0. -1.
         -4    1    4    4    0  503  0.48673022718E+03 -0.43917132846E+02 -0.21767561026E+03  0.53499317744E+03  0.00000000000E+00 0.  1.
<mgrwt>
<rscale>  0 0.18591877E+04</rscale>
<asrwt>0</asrwt>
<pdfrwt beam="1">  1        2 0.20633200E+00 0.18591877E+04</pdfrwt>
<pdfrwt beam="2">  1       -1 0.99127280E-01 0.18591877E+04</pdfrwt>
<totfact> 0.16294873E+01</totfact>
</mgrwt>
</event>
<event>
11    7  0.1497947E-008  0.1692359E+04  0.7818608E-02  0.8765734E-01
          2   -1    0    0  501    0  0.00000000000E+00  0.00000000000E+00  0.20701300710E+04  0.20701300710E+04  0.00000000000E+00 0. -1.
         -1   -1    0    0    0  501 -0.00000000000E+00 -0.00000000000E+00 -0.34588140307E+03  0.34588140307E+03  0.00000000000E+00 0.  1.
         24    2    1    2    0    0 -0.38571950294E+03  0.18128991962E+03  0.16629101313E+02  0.43441488986E+03  0.82426935051E+02 0.  0.
        254    2    1    2    0    0  0.38571950294E+03 -0.18128991962E+03  0.17076195666E+04  0.19815965842E+04  0.91055744923E+03 0.  0.
         23    2    4    4    0    0  0.48660694673E+02 -0.45423369431E+03  0.53719442843E+03  0.71121064021E+03  0.92447869396E+02 0.  0.
          4    1    3    3  502    0 -0.15427243813E+03  0.73821906041E+02 -0.33711770909E+02  0.17431621403E+03  0.00000000000E+00 0. -1.
         -3    1    3    3    0  502 -0.23144706481E+03  0.10746801358E+03  0.50340872222E+02  0.26009867583E+03  0.00000000000E+00 0.  1.
         13    1    5    5    0    0  0.55255244475E+02 -0.36682599940E+03  0.37888189066E+03  0.53025083022E+03  0.00000000000E+00 0. -1.
        -13    1    5    5    0    0 -0.65945498022E+01 -0.87407694915E+02  0.15831253776E+03  0.18095980999E+03  0.00000000000E+00 0.  1.
          3    1    4    4  503    0  0.27375774239E+03  0.28166512642E+03  0.11260536864E+04  0.11925919041E+04  0.00000000000E+00 0. -1.
         -3    1    4    4    0  503  0.63301065874E+02 -0.87213517343E+01  0.44371451782E+02  0.77794039939E+02  0.00000000000E+00 0.  1.
<mgrwt>
<rscale>  0 0.16923587E+04</rscale>
<asrwt>0</asrwt>
<pdfrwt beam="1">  1        2 0.31848154E+00 0.16923587E+04</pdfrwt>
<pdfrwt beam="2">  1       -1 0.53212525E-01 0.16923587E+04</pdfrwt>
<totfact> 0.23589939E+01</totfact>
</mgrwt>
</event>
<event>
12    7  0.1497947E-008  0.2048252E+04  0.7818608E-02  0.8584388E-01
          2   -1    0    0  501    0  0.00000000000E+00  0.00000000000E+00  0.32940574739E+04  0.32940574739E+04  0.00000000000E+00 0. -1.
         -1   -1    0    0    0  501 -0.00000000000E+00 -0.00000000000E+00 -0.31840195863E+03  0.31840195863E+03  0.00000000000E+00 0.  1.
         24    2    1    2    0    0  0.22614788620E+03 -0.69292258778E+03  0.16243133109E+04  0.17821762574E+04  0.80460558037E+02 0.  0.
        254    2    1    2    0    0 -0.22614788620E+03  0.69292258778E+03  0.13513422044E+04  0.18302831751E+04  0.99625607588E+03 0.  0.
         23    2    4    4    0    0 -0.33535754922E+03  0.85678332561E+03  0.13103656625E+04  0.16037831234E+04  0.92302679288E+02 0.  0.
         23    2    4    4    0    0  0.10920966302E+03 -0.16386073783E+03  0.40976541866E+02  0.22650005171E+03  0.10414463282E+03 0.  0.
          2    1    3    3  502    0  0.22341776996E+03 -0.67932149375E+03  0.16124886973E+04  0.17639481258E+04  0.00000000000E+00 0. -1.
         -1    1    3    3    0  502  0.27301162356E+01 -0.13601094028E+02  0.11824613669E+02  0.18228131606E+02  0.00000000000E+00 0.  1.
         13    1    5    5    0    0 -0.17247505233E+03  0.39581753488E+03  0.54018149102E+03  0.69153106065E+03  0.00000000000E+00 0. -1.
        -13    1    5    5    0    0 -0.16288249689E+03  0.46096579072E+03  0.77018417148E+03  0.91225206275E+03  0.00000000000E+00 0.  1.
          3    1    6    6  503    0  0.50971292582E+02 -0.11792210756E+03  0.70646327528E+02  0.14661036700E+03  0.00000000000E+00 0. -1.
         -3    1    6    6    0  503  0.58238370440E+02 -0.45938630264E+02 -0.29669785661E+02  0.79889684711E+02  0.00000000000E+00 0.  1.
<mgrwt>
<rscale>  0 0.20482523E+04</rscale>
<asrwt>0</asrwt>
<pdfrwt beam="1">  1        2 0.50677805E+00 0.20482523E+04</pdfrwt>
<pdfrwt beam="2">  1       -1 0.48984919E-01 0.20482523E+04</pdfrwt>
<totfact> 0.49595781E+00</totfact>
</mgrwt>
</event>
<event>
12    7  0.1497947E-008  0.1412774E+04  0.7818608E-02  0.8944624E-01
          2   -1    0    0  501    0  0.00000000000E+00  0.00000000000E+00  0.22786118315E+04  0.22786118315E+04  0.00000000000E+00 0. -1.
         -1   -1    0    0    0  501 -0.00000000000E+00 -0.00000000000E+00 -0.21898527444E+03  0.21898527444E+03  0.00000000000E+00 0.  1.
         24    2    1    2    0    0 -0.23811414082E+03  0.35250845934E+02  0.16615203866E+02  0.25428159518E+03  0.80262684065E+02 0.  0.
        254    2    1    2    0    0  0.23811414082E+03 -0.35250845934E+02  0.20430113532E+04  0.22433155107E+04  0.89477825482E+03 0.  0.
         23    2    4    4    0    0  0.36428244553E+03 -0.91521966100E+02  0.20311746244E+04  0.20675548626E+04  0.89636961404E+02 0.  0.
         23    2    4    4    0    0 -0.12616830471E+03  0.56271120166E+02  0.11836728776E+02  0.17576064809E+03  0.10801304176E+03 0.  0.
          2    1    3    3  502    0 -0.41726310134E+02  0.91226951293E+01 -0.28169283779E+02  0.51164607616E+02  0.00000000000E+00 0. -1.
         -1    1    3    3    0  502 -0.19638783068E+03  0.26128150805E+02  0.44784487645E+02  0.20311698757E+03  0.00000000000E+00 0.  1.
         13    1    5    5    0    0  0.23438493124E+03 -0.41258792084E+02  0.10561197260E+04  0.10826021705E+04  0.00000000000E+00 0.  1.
        -13    1    5    5    0    0  0.12989751428E+03 -0.50263174016E+02  0.97505489841E+03  0.98495269215E+03  0.00000000000E+00 0. -1.
          3    1    6    6  503    0 -0.49638270686E+02  0.19616847649E+02 -0.48118062044E+02  0.71861857221E+02  0.00000000000E+00 0. -1.
         -3    1    6    6    0  503 -0.76530034023E+02  0.36654272517E+02  0.59954790820E+02  0.10389879087E+03  0.00000000000E+00 0.  1.
<mgrwt>
<rscale>  0 0.14127738E+04</rscale>
<asrwt>0</asrwt>
<pdfrwt beam="1">  1        2 0.35055565E+00 0.14127738E+04</pdfrwt>
<pdfrwt beam="2">  1       -1 0.33690044E-01 0.14127738E+04</pdfrwt>
<totfact> 0.42982778E+01</totfact>
</mgrwt>
</event>
<event>
12    7  0.1497947E-008  0.2130133E+04  0.7818608E-02  0.8548084E-01
         -1   -1    0    0    0  501 -0.00000000000E+00  0.00000000000E+00  0.52824461621E+03  0.52824461621E+03  0.00000000000E+00 0.  1.
          2   -1    0    0  501    0  0.00000000000E+00 -0.00000000000E+00 -0.21474272820E+04  0.21474272820E+04  0.00000000000E+00 0. -1.
         24    2    1    2    0    0 -0.35799731851E+03 -0.78891268883E+03 -0.80058716837E+03  0.11826487946E+04  0.84693839756E+02 0.  0.
        254    2    1    2    0    0  0.35799731851E+03  0.78891268883E+03 -0.81859549737E+03  0.14930231036E+04  0.89915187195E+03 0.  0.
         23    2    4    4    0    0  0.55863552443E+03  0.76185060756E+03 -0.82078262961E+03  0.12547553870E+04  0.90757692377E+02 0.  0.
         23    2    4    4    0    0 -0.20063820592E+03  0.27062081271E+02  0.21871322381E+01  0.23826771658E+03  0.12561319715E+03 0.  0.
          4    1    3    3  502    0 -0.33946175363E+03 -0.74072164071E+03 -0.77697057773E+03  0.11258712670E+04  0.00000000000E+00 0. -1.
         -3    1    3    3    0  502 -0.18535564878E+02 -0.48191048128E+02 -0.23616590648E+02  0.56777527587E+02  0.00000000000E+00 0.  1.
         13    1    5    5    0    0  0.69599823198E+02  0.66700629906E+02 -0.56576296680E+02  0.11177650364E+03  0.00000000000E+00 0. -1.
        -13    1    5    5    0    0  0.48903570123E+03  0.69514997766E+03 -0.76420633293E+03  0.11429788834E+04  0.00000000000E+00 0.  1.
          1    1    6    6  503    0 -0.15257418936E+02  0.42332187053E+02 -0.23044741774E+02  0.50555543878E+02  0.00000000000E+00 0. -1.
         -1    1    6    6    0  503 -0.18538078699E+03 -0.15270105783E+02  0.25231874012E+02  0.18771217270E+03  0.00000000000E+00 0.  1.
<mgrwt>
<rscale>  0 0.21301332E+04</rscale>
<asrwt>0</asrwt>
<pdfrwt beam="1">  1        2 0.33037343E+00 0.21301332E+04</pdfrwt>
<pdfrwt beam="2">  1       -1 0.81268402E-01 0.21301332E+04</pdfrwt>
<totfact> 0.87228643E+00</totfact>
</mgrwt>
</event>
<event>
11    7  0.1497947E-008  0.1275008E+04  0.7818608E-02  0.9049623E-01
          2   -1    0    0  501    0  0.00000000000E+00  0.00000000000E+00  0.64594986884E+03  0.64594986884E+03  0.00000000000E+00 0. -1.
         -1   -1    0    0    0  501 -0.00000000000E+00 -0.00000000000E+00 -0.62916808293E+03  0.62916808293E+03  0.00000000000E+00 0.  1.
         24    2    1    2    0    0 -0.87471594689E+02  0.29005330102E+03  0.91124923885E+02  0.32606274251E+03  0.78936449048E+02 0.  0.
        254    2    1    2    0    0  0.87471594689E+02 -0.29005330102E+03 -0.74343137978E+02  0.94905520927E+03  0.89632398761E+03 0.  0.
         23    2    4    4    0    0 -0.16291167224E+02  0.15356813458E+03 -0.34728422997E+03  0.39083305273E+03  0.91079990313E+02 0.  0.
          2    1    3    3  502    0 -0.59485431401E+02  0.19490624422E+03  0.99031514585E+02  0.22657052206E+03  0.00000000000E+00 0. -1.
         -1    1    3    3    0  502 -0.27986163288E+02  0.95147056801E+02 -0.79065907000E+01  0.99492220450E+02  0.00000000000E+00 0.  1.
         13    1    5    5    0    0 -0.84284015399E+00 -0.92824944044E+01 -0.32191539996E+01  0.98609347613E+01  0.00000000000E+00 0.  1.
        -13    1    5    5    0    0 -0.15448327070E+02  0.16285062898E+03 -0.34406507597E+03  0.38097211797E+03  0.00000000000E+00 0. -1.
          3    1    4    4  503    0  0.52195050604E+02 -0.42855429327E+03  0.22828209743E+03  0.48836033991E+03  0.00000000000E+00 0. -1.
         -3    1    4    4    0  503  0.51567711309E+02 -0.15067142324E+02  0.44658994560E+02  0.69861816628E+02  0.00000000000E+00 0.  1.
<mgrwt>
<rscale>  0 0.12750075E+04</rscale>
<asrwt>0</asrwt>
<pdfrwt beam="1">  1        2 0.99376903E-01 0.12750075E+04</pdfrwt>
<pdfrwt beam="2">  1       -1 0.96795090E-01 0.12750075E+04</pdfrwt>
<totfact> 0.52203781E+01</totfact>
</mgrwt>
</event>
<event>
12    7  0.1497947E-008  0.1521759E+04  0.7818608E-02  0.8870111E-01
          2   -1    0    0  501    0  0.00000000000E+00  0.00000000000E+00  0.26119295764E+04  0.26119295764E+04  0.00000000000E+00 0. -1.
         -1   -1    0    0    0  501 -0.00000000000E+00 -0.00000000000E+00 -0.22165116983E+03  0.22165116983E+03  0.00000000000E+00 0.  1.
         24    2    1    2    0    0 -0.17573877824E+03 -0.44083096493E+03  0.97372577609E+03  0.10861263292E+04  0.79450979386E+02 0.  0.
        254    2    1    2    0    0  0.17573877824E+03  0.44083096493E+03  0.14165526305E+04  0.17474544171E+04  0.90650952939E+03 0.  0.
         23    2    4    4    0    0  0.48228394211E+03  0.19937932190E+03  0.11583383633E+04  0.12736203451E+04  0.89504774911E+02 0.  0.
         23    2    4    4    0    0 -0.30654516386E+03  0.24145164303E+03  0.25821426725E+03  0.47383407201E+03  0.74667841598E+02 0.  0.
          4    1    3    3  502    0 -0.36681224245E+02 -0.18262667094E+03  0.33540650027E+03  0.38366070111E+03  0.00000000000E+00 0. -1.
         -3    1    3    3    0  502 -0.13905755400E+03 -0.25820429399E+03  0.63831927582E+03  0.70246562809E+03  0.00000000000E+00 0.  1.
         13    1    5    5    0    0  0.23131425839E+03  0.10647821948E+03  0.67005383410E+03  0.71680962462E+03  0.00000000000E+00 0.  1.
        -13    1    5    5    0    0  0.25096968372E+03  0.92901102426E+02  0.48828452916E+03  0.55681072043E+03  0.00000000000E+00 0. -1.
          4    1    6    6  503    0 -0.12439701314E+03  0.12415400500E+03  0.15285984844E+03  0.23292695658E+03  0.00000000000E+00 0. -1.
         -4    1    6    6    0  503 -0.18214815072E+03  0.11729763803E+03  0.10535441881E+03  0.24090711542E+03  0.00000000000E+00 0.  1.
<mgrwt>
<rscale>  0 0.15217585E+04</rscale>
<asrwt>0</asrwt>
<pdfrwt beam="1">  1        2 0.40183530E+00 0.15217585E+04</pdfrwt>
<pdfrwt beam="2">  1       -1 0.34100182E-01 0.15217585E+04</pdfrwt>
<totfact> 0.26836838E+01</totfact>
</mgrwt>
</event>
<event>
12    7  0.1497947E-008  0.1213809E+04  0.7818608E-02  0.9100855E-01
          2   -1    0    0  501    0  0.00000000000E+00  0.00000000000E+00  0.33310322129E+04  0.33310322129E+04  0.00000000000E+00 0. -1.
         -1   -1    0    0    0  501 -0.00000000000E+00 -0.00000000000E+00 -0.11057628064E+03  0.11057628064E+03  0.00000000000E+00 0.  1.
         24    2    1    2    0    0 -0.14045408192E+03  0.19008073805E+03  0.42704064859E+03  0.49497241633E+03  0.82316105777E+02 0.  0.
        254    2    1    2    0    0  0.14045408192E+03 -0.19008073805E+03  0.27934152837E+04  0.29466360772E+04  0.90754459308E+03 0.  0.
         23    2    4    4    0    0  0.40010201516E+03 -0.39862224201E+03  0.20520714426E+04  0.21303475200E+04  0.91662621480E+02 0.  0.
         23    2    4    4    0    0 -0.25964793325E+03  0.20854150396E+03  0.74134384112E+03  0.81628855724E+03  0.76352536363E+02 0.  0.
          4    1    3    3  502    0 -0.61008918919E+00  0.13064413518E+02  0.79946965617E+02  0.81009681031E+02  0.00000000000E+00 0. -1.
         -3    1    3    3    0  502 -0.13984399273E+03  0.17701632453E+03  0.34709368298E+03  0.41396273530E+03  0.00000000000E+00 0.  1.
         13    1    5    5    0    0  0.35996182412E+03 -0.38495485986E+03  0.18355838584E+04  0.19097462816E+04  0.00000000000E+00 0. -1.
        -13    1    5    5    0    0  0.40140191045E+02 -0.13667382145E+02  0.21648758413E+03  0.22060123833E+03  0.00000000000E+00 0.  1.
          1    1    6    6  503    0 -0.15956416254E+03  0.12771205027E+03  0.36182014978E+03  0.41555373965E+03  0.00000000000E+00 0. -1.
         -1    1    6    6    0  503 -0.10008377070E+03  0.80829453684E+02  0.37952369134E+03  0.40073481759E+03  0.00000000000E+00 0.  1.
<mgrwt>
<rscale>  0 0.12138091E+04</rscale>
<asrwt>0</asrwt>
<pdfrwt beam="1">  1        2 0.51246642E+00 0.12138091E+04</pdfrwt>
<pdfrwt beam="2">  1       -1 0.17011738E-01 0.12138091E+04</pdfrwt>
<totfact> 0.32589982E+01</totfact>
</mgrwt>
</event>
<event>
12    7  0.1497947E-008  0.1524012E+04  0.7818608E-02  0.8868641E-01
         -1   -1    0    0    0  501 -0.00000000000E+00  0.00000000000E+00  0.40715567421E+03  0.40715567421E+03  0.00000000000E+00 0.  1.
          2   -1    0    0  501    0  0.00000000000E+00 -0.00000000000E+00 -0.14261201924E+04  0.14261201924E+04  0.00000000000E+00 0. -1.
         24    2    1    2    0    0 -0.30710506920E+03  0.20395338089E+03 -0.72921118630E+03  0.82084422454E+03  0.78267372693E+02 0.  0.
        254    2    1    2    0    0  0.30710506920E+03 -0.20395338089E+03 -0.28975333194E+03  0.10124316421E+04  0.89730169480E+03 0.  0.
         23    2    4    4    0    0 -0.21901151502E+03 -0.22264331209E+03  0.10993323575E+03  0.34304086826E+03  0.89753177364E+02 0.  0.
         23    2    4    4    0    0  0.52611658422E+03  0.18689931196E+02 -0.39968656769E+03  0.66939077386E+03  0.10576711213E+03 0.  0.
          2    1    3    3  502    0 -0.12831535723E+03  0.12024581930E+03 -0.28736637823E+03  0.33690254273E+03  0.00000000000E+00 0. -1.
         -1    1    3    3    0  502 -0.17878971197E+03  0.83707561588E+02 -0.44184480807E+03  0.48394168181E+03  0.00000000000E+00 0.  1.
         13    1    5    5    0    0 -0.78013021124E+01 -0.26720911562E+02  0.36201163210E+02  0.45666088590E+02  0.00000000000E+00 0. -1.
        -13    1    5    5    0    0 -0.21121021291E+03 -0.19592240052E+03  0.73732072544E+02  0.29737477967E+03  0.00000000000E+00 0.  1.
          1    1    6    6  503    0  0.17087895564E+03 -0.27637126653E+01 -0.19320139680E+03  0.25794192236E+03  0.00000000000E+00 0. -1.
         -1    1    6    6    0  503  0.35523762858E+03  0.21453643862E+02 -0.20648517090E+03  0.41144885149E+03  0.00000000000E+00 0.  1.
<mgrwt>
<rscale>  0 0.15240117E+04</rscale>
<asrwt>0</asrwt>
<pdfrwt beam="1">  1        2 0.21940311E+00 0.15240117E+04</pdfrwt>
<pdfrwt beam="2">  1       -1 0.62639335E-01 0.15240117E+04</pdfrwt>
<totfact> 0.39724099E+01</totfact>
</mgrwt>
</event>
<event>
11    7  0.1497947E-008  0.1153176E+04  0.7818608E-02  0.9154858E-01
          2   -1    0    0  501    0  0.00000000000E+00  0.00000000000E+00  0.16770729322E+04  0.16770729322E+04  0.00000000000E+00 0. -1.
         -1   -1    0    0    0  501 -0.00000000000E+00 -0.00000000000E+00 -0.19823462777E+03  0.19823462777E+03  0.00000000000E+00 0.  1.
         24    2    1    2    0    0 -0.41827380565E+02  0.12864314988E+03  0.61511427407E+02  0.16840620161E+03  0.79236375871E+02 0.  0.
        254    2    1    2    0    0  0.41827380565E+02 -0.12864314988E+03  0.14173268770E+04  0.17069013583E+04  0.94148721767E+03 0.  0.
         23    2    4    4    0    0 -0.42480891895E+03 -0.81950009517E+02  0.63132026368E+03  0.77090503405E+03  0.92470938737E+02 0.  0.
          4    1    3    3  502    0  0.13378130955E+02 -0.99231185774E+00  0.14775278268E+02  0.19956650986E+02  0.00000000000E+00 0. -1.
         -3    1    3    3    0  502 -0.55205511520E+02  0.12963546174E+03  0.46736149138E+02  0.14844955062E+03  0.00000000000E+00 0.  1.
         13    1    5    5    0    0 -0.17072931823E+03 -0.78145464077E+02  0.28722647107E+03  0.34315340497E+03  0.00000000000E+00 0. -1.
        -13    1    5    5    0    0 -0.25407960071E+03 -0.38045454401E+01  0.34409379261E+03  0.42775162908E+03  0.00000000000E+00 0.  1.
          1    1    4    4  503    0  0.19691716836E+03  0.57440170428E+02  0.22236133994E+03  0.30252323857E+03  0.00000000000E+00 0. -1.
         -1    1    4    4    0  503  0.26971913115E+03 -0.10413331079E+03  0.56364527335E+03  0.63347308570E+03  0.00000000000E+00 0.  1.
<mgrwt>
<rscale>  0 0.11531764E+04</rscale>
<asrwt>0</asrwt>
<pdfrwt beam="1">  1        2 0.25801121E+00 0.11531764E+04</pdfrwt>
<pdfrwt beam="2">  1       -1 0.30497636E-01 0.11531764E+04</pdfrwt>
<totfact> 0.11286126E+02</totfact>
</mgrwt>
</event>
<event>
12    7  0.1497947E-008  0.2333376E+04  0.7818608E-02  0.8464876E-01
         -1   -1    0    0    0  501 -0.00000000000E+00  0.00000000000E+00  0.93223699869E+03  0.93223699869E+03  0.00000000000E+00 0.  1.
          2   -1    0    0  501    0  0.00000000000E+00 -0.00000000000E+00 -0.14601021441E+04  0.14601021441E+04  0.00000000000E+00 0. -1.
         24    2    1    2    0    0  0.39060145372E+03  0.78271340733E+03  0.25092143610E+03  0.91360252975E+03  0.80611671660E+02 0.  0.
        254    2    1    2    0    0 -0.39060145372E+03 -0.78271340733E+03 -0.77878658148E+03  0.14787366130E+04  0.90274229851E+03 0.  0.
         23    2    4    4    0    0 -0.34804801301E+03 -0.49538124086E+03 -0.94538020383E+03  0.11265787274E+04  0.94318110707E+02 0.  0.
         23    2    4    4    0    0 -0.42553440712E+02 -0.28733216647E+03  0.16659362235E+03  0.35215788565E+03  0.10904665156E+03 0.  0.
          4    1    3    3  502    0  0.34453493581E+02  0.11641496959E+03  0.16269345243E+02  0.12249155057E+03  0.00000000000E+00 0. -1.
         -3    1    3    3    0  502  0.35614796014E+03  0.66629843773E+03  0.23465209085E+03  0.79111097918E+03  0.00000000000E+00 0.  1.
         13    1    5    5    0    0 -0.17341722351E+01 -0.81576775878E+01 -0.45464226345E+02  0.46222839961E+02  0.00000000000E+00 0. -1.
        -13    1    5    5    0    0 -0.34631384078E+03 -0.48722356327E+03 -0.89991597748E+03  0.10803558874E+04  0.00000000000E+00 0.  1.
          1    1    6    6  503    0 -0.78716539728E+02 -0.16753377604E+03  0.97527074202E+02  0.20922569141E+03  0.00000000000E+00 0. -1.
         -1    1    6    6    0  503  0.36163099017E+02 -0.11979839043E+03  0.69066548144E+02  0.14293219424E+03  0.00000000000E+00 0.  1.
<mgrwt>
<rscale>  0 0.23333763E+04</rscale>
<asrwt>0</asrwt>
<pdfrwt beam="1">  1        2 0.22463110E+00 0.23333763E+04</pdfrwt>
<pdfrwt beam="2">  1       -1 0.14342108E+00 0.23333763E+04</pdfrwt>
<totfact> 0.54179926E+00</totfact>
</mgrwt>
</event>
<event>
12    7  0.1497947E-008  0.1811352E+04  0.7818608E-02  0.8700286E-01
          2   -1    0    0  501    0  0.00000000000E+00  0.00000000000E+00  0.16124703912E+04  0.16124703912E+04  0.00000000000E+00 0. -1.
         -1   -1    0    0    0  501 -0.00000000000E+00 -0.00000000000E+00 -0.50869073567E+03  0.50869073567E+03  0.00000000000E+00 0.  1.
         24    2    1    2    0    0 -0.47009036295E+03 -0.66536691396E+02 -0.15139126420E+03  0.50461334522E+03  0.79392900570E+02 0.  0.
        254    2    1    2    0    0  0.47009036295E+03  0.66536691396E+02  0.12551709197E+04  0.16165477816E+04  0.90131049697E+03 0.  0.
         23    2    4    4    0    0  0.60841894481E+03  0.61641773614E+02  0.38620374977E+03  0.72890097338E+03  0.90387897427E+02 0.  0.
         23    2    4    4    0    0 -0.13832858186E+03  0.48949177826E+01  0.86896716996E+03  0.88764680826E+03  0.11685100328E+03 0.  0.
          4    1    3    3  502    0 -0.29117769765E+02 -0.22613557418E+02 -0.18735774078E+01  0.36915143065E+02  0.00000000000E+00 0. -1.
         -3    1    3    3    0  502 -0.44097259319E+03 -0.43923133978E+02 -0.14951768679E+03  0.46769820216E+03  0.00000000000E+00 0.  1.
         13    1    5    5    0    0  0.24706875256E+03  0.61869448275E+02  0.18967382064E+03  0.31756409646E+03  0.00000000000E+00 0. -1.
        -13    1    5    5    0    0  0.36135019225E+03 -0.22767466124E+00  0.19652992912E+03  0.41133687692E+03  0.00000000000E+00 0.  1.
          1    1    6    6  503    0 -0.94939745972E+02 -0.31242389161E+02  0.30723232110E+03  0.32308101364E+03  0.00000000000E+00 0. -1.
         -1    1    6    6    0  503 -0.43388835886E+02  0.36137306943E+02  0.56173484886E+03  0.56456579462E+03  0.00000000000E+00 0.  1.
<mgrwt>
<rscale>  0 0.18113517E+04</rscale>
<asrwt>0</asrwt>
<pdfrwt beam="1">  1        2 0.24807237E+00 0.18113517E+04</pdfrwt>
<pdfrwt beam="2">  1       -1 0.78260114E-01 0.18113517E+04</pdfrwt>
<totfact> 0.19274441E+01</totfact>
</mgrwt>
</event>
<event>
11    7  0.1497947E-008  0.2733225E+04  0.7818608E-02  0.8324304E-01
          2   -1    0    0  501    0  0.00000000000E+00  0.00000000000E+00  0.35518578327E+04  0.35518578327E+04  0.00000000000E+00 0. -1.
         -1   -1    0    0    0  501 -0.00000000000E+00 -0.00000000000E+00 -0.52581776979E+03  0.52581776979E+03  0.00000000000E+00 0.  1.
         24    2    1    2    0    0  0.15549481980E+03 -0.10406359212E+04  0.22808429349E+04  0.25124902222E+04  0.57103972894E+02 0.  0.
        254    2    1    2    0    0 -0.15549481980E+03  0.10406359212E+04  0.74519712799E+03  0.15651853802E+04  0.88734703221E+03 0.  0.
         23    2    4    4    0    0 -0.29812160713E+03  0.65764219950E+03  0.32200565899E+02  0.72851419770E+03  0.91248586873E+02 0.  0.
          4    1    3    3  502    0  0.13910243170E+02 -0.13931289669E+03  0.34893080854E+03  0.37597112549E+03  0.00000000000E+00 0. -1.
         -3    1    3    3    0  502  0.14158457663E+03 -0.90132302448E+03  0.19319121263E+04  0.21365190967E+04  0.00000000000E+00 0.  1.
         13    1    5    5    0    0 -0.18671317883E+03  0.48488281090E+03  0.51017901379E+02  0.52208809383E+03  0.00000000000E+00 0. -1.
        -13    1    5    5    0    0 -0.11140842830E+03  0.17275938860E+03 -0.18817335479E+02  0.20642610387E+03  0.00000000000E+00 0.  1.
          3    1    4    4  503    0  0.61379020845E+02  0.10126959851E+03  0.92073136927E+02  0.15000126108E+03  0.00000000000E+00 0. -1.
         -3    1    4    4    0  503  0.81247766486E+02  0.28172412316E+03  0.62092342517E+03  0.68666992147E+03  0.00000000000E+00 0.  1.
<mgrwt>
<rscale>  0 0.27332252E+04</rscale>
<asrwt>0</asrwt>
<pdfrwt beam="1">  1        2 0.54643965E+00 0.27332252E+04</pdfrwt>
<pdfrwt beam="2">  1       -1 0.80895044E-01 0.27332252E+04</pdfrwt>
<totfact> 0.11322629E+00</totfact>
</mgrwt>
</event>
<event>
11    7  0.1497947E-008  0.1704177E+04  0.7818608E-02  0.8758986E-01
         -1   -1    0    0    0  501 -0.00000000000E+00  0.00000000000E+00  0.81499736538E+03  0.81499736538E+03  0.00000000000E+00 0.  1.
          2   -1    0    0  501    0  0.00000000000E+00 -0.00000000000E+00 -0.89086757654E+03  0.89086757654E+03  0.00000000000E+00 0. -1.
         24    2    1    2    0    0 -0.36458203596E+03 -0.30665112036E+03 -0.40761347545E+03  0.63197302853E+03  0.79285514763E+02 0.  0.
        254    2    1    2    0    0  0.36458203596E+03  0.30665112036E+03  0.33174326430E+03  0.10738919134E+04  0.90345740225E+03 0.  0.
         23    2    4    4    0    0 -0.66403270623E+02 -0.56373447165E+02 -0.23408823935E+03  0.26491819811E+03  0.88300554894E+02 0.  0.
          4    1    3    3  502    0 -0.29823419530E+03 -0.28249794203E+03 -0.32893268277E+03  0.52625605202E+03  0.00000000000E+00 0. -1.
         -3    1    3    3    0  502 -0.66347840660E+02 -0.24153178332E+02 -0.78680792686E+02  0.10571697651E+03  0.00000000000E+00 0.  1.
         13    1    5    5    0    0 -0.87038510084E+01 -0.63393495150E+02 -0.14568477498E+03  0.15911802510E+03  0.00000000000E+00 0. -1.
        -13    1    5    5    0    0 -0.57699419614E+02  0.70200479849E+01 -0.88403464367E+02  0.10580017301E+03  0.00000000000E+00 0.  1.
          1    1    4    4  503    0  0.32109417991E+03  0.28162034181E+03  0.49881115030E+03  0.65667652079E+03  0.00000000000E+00 0. -1.
         -1    1    4    4    0  503  0.10989112667E+03  0.81404225713E+02  0.67020353344E+02  0.15229719448E+03  0.00000000000E+00 0.  1.
<mgrwt>
<rscale>  0 0.17041769E+04</rscale>
<asrwt>0</asrwt>
<pdfrwt beam="1">  1        2 0.13705655E+00 0.17041769E+04</pdfrwt>
<pdfrwt beam="2">  1       -1 0.12538421E+00 0.17041769E+04</pdfrwt>
<totfact> 0.17935934E+01</totfact>
</mgrwt>
</event>
<event>
12    7  0.1619785E-008  0.1913587E+04  0.7818608E-02  0.8648123E-01
         -1   -1    0    0    0  501 -0.00000000000E+00  0.00000000000E+00  0.13192496726E+04  0.13192496726E+04  0.00000000000E+00 0.  1.
          2   -1    0    0  501    0  0.00000000000E+00 -0.00000000000E+00 -0.69391996856E+03  0.69391996856E+03  0.00000000000E+00 0. -1.
         24    2    1    2    0    0 -0.11920218017E+02  0.67431972455E+03  0.57525664696E+03  0.88983424253E+03  0.77689039043E+02 0.  0.
        254    2    1    2    0    0  0.11920218017E+02 -0.67431972455E+03  0.50073057084E+02  0.11233353986E+04  0.89695369128E+03 0.  0.
         23    2    4    4    0    0  0.34029455711E+03 -0.68325724172E+03 -0.24790282684E+02  0.76918286044E+03  0.91579859769E+02 0.  0.
         23    2    4    4    0    0 -0.32837433909E+03  0.89375171704E+01  0.74863339768E+02  0.35415253821E+03  0.10913255653E+03 0.  0.
          4    1    3    3  502    0  0.61528286623E+00  0.11600269454E+02  0.27859583900E+02  0.30184453606E+02  0.00000000000E+00 0. -1.
         -3    1    3    3    0  502 -0.12535500883E+02  0.66271945509E+03  0.54739706306E+03  0.85964978892E+03  0.00000000000E+00 0.  1.
         13    1    5    5    0    0  0.13530624034E+03 -0.37428678125E+03 -0.11691200970E+02  0.39816461102E+03  0.00000000000E+00 0. -1.
        -13    1    5    5    0    0  0.20498831677E+03 -0.30897046047E+03 -0.13099081714E+02  0.37101824941E+03  0.00000000000E+00 0.  1.
          1    1    6    6  503    0 -0.13687593677E+03 -0.44507420273E+02  0.71003022626E+01  0.14410533237E+03  0.00000000000E+00 0. -1.
         -1    1    6    6    0  503 -0.19149840232E+03  0.53444937443E+02  0.67763037506E+02  0.21004720584E+03  0.00000000000E+00 0.  1.
<mgrwt>
<rscale>  0 0.19135869E+04</rscale>
<asrwt>0</asrwt>
<pdfrwt beam="1">  1        2 0.10675692E+00 0.19135869E+04</pdfrwt>
<pdfrwt beam="2">  1       -1 0.20296149E+00 0.19135869E+04</pdfrwt>
<totfact> 0.63535176E+00</totfact>
</mgrwt>
</event>
<event>
12    7  0.1497947E-008  0.2571292E+04  0.7818608E-02  0.8378019E-01
         -1   -1    0    0    0  501 -0.00000000000E+00  0.00000000000E+00  0.42543640769E+03  0.42543640769E+03  0.00000000000E+00 0.  1.
          2   -1    0    0  501    0  0.00000000000E+00 -0.00000000000E+00 -0.38851533588E+04  0.38851533588E+04  0.00000000000E+00 0. -1.
         24    2    1    2    0    0 -0.35306222199E+03  0.93063544500E+03 -0.23817226889E+04  0.25825629801E+04  0.79330420443E+02 0.  0.
        254    2    1    2    0    0  0.35306222199E+03 -0.93063544500E+03 -0.10779942622E+04  0.17280267863E+04  0.91283606457E+03 0.  0.
         23    2    4    4    0    0  0.28460768195E+03  0.45535992178E+02 -0.50517321131E+03  0.58876677427E+03  0.91494709404E+02 0.  0.
         23    2    4    4    0    0  0.68454540039E+02 -0.97617143718E+03 -0.57282105091E+03  0.11392600121E+04  0.11042064970E+03 0.  0.
          4    1    3    3  502    0 -0.33656313998E+03  0.81694292158E+03 -0.20974954713E+04  0.22759959878E+04  0.00000000000E+00 0. -1.
         -3    1    3    3    0  502 -0.16499082010E+02  0.11369252342E+03 -0.28422721759E+03  0.30656699236E+03  0.00000000000E+00 0.  1.
         13    1    5    5    0    0  0.26501184196E+03  0.14226712963E+02 -0.43917050323E+03  0.51313195832E+03  0.00000000000E+00 0.  1.
        -13    1    5    5    0    0  0.19595839991E+02  0.31309279216E+02 -0.66002708079E+02  0.75634815950E+02  0.00000000000E+00 0. -1.
          1    1    6    6  503    0  0.64960399154E+02 -0.38813758452E+03 -0.27499393657E+03  0.48009613946E+03  0.00000000000E+00 0. -1.
         -1    1    6    6    0  503  0.34941408848E+01 -0.58803385266E+03 -0.29782711434E+03  0.65916387260E+03  0.00000000000E+00 0.  1.
<mgrwt>
<rscale>  0 0.25712920E+04</rscale>
<asrwt>0</asrwt>
<pdfrwt beam="1">  1        2 0.59771591E+00 0.25712920E+04</pdfrwt>
<pdfrwt beam="2">  1       -1 0.65451754E-01 0.25712920E+04</pdfrwt>
<totfact> 0.10095460E+00</totfact>
</mgrwt>
</event>
<event>
12    7  0.1497947E-008  0.1318537E+04  0.7818608E-02  0.9014993E-01
          2   -1    0    0  501    0  0.00000000000E+00  0.00000000000E+00  0.30331337972E+04  0.30331337972E+04  0.00000000000E+00 0. -1.
         -1   -1    0    0    0  501 -0.00000000000E+00 -0.00000000000E+00 -0.14329558448E+03  0.14329558448E+03  0.00000000000E+00 0.  1.
         24    2    1    2    0    0 -0.56054182983E+02 -0.21594825531E+03  0.15545487420E+03  0.28341271525E+03  0.79880090449E+02 0.  0.
        254    2    1    2    0    0  0.56054182983E+02  0.21594825531E+03  0.27343833385E+04  0.28930166664E+04  0.91810536972E+03 0.  0.
         23    2    4    4    0    0 -0.12624142968E+03  0.51072148407E+03  0.11524505476E+04  0.12700410088E+04  0.89936458784E+02 0.  0.
         23    2    4    4    0    0  0.18229561267E+03 -0.29477322876E+03  0.15819327909E+04  0.16229756576E+04  0.10684420133E+03 0.  0.
          2    1    3    3  502    0 -0.17923121042E+02 -0.13555098420E+02  0.43585627591E+02  0.49037596735E+02  0.00000000000E+00 0. -1.
         -1    1    3    3    0  502 -0.38131061941E+02 -0.20239315689E+03  0.11186924661E+03  0.23437511851E+03  0.00000000000E+00 0.  1.
         13    1    5    5    0    0  0.45577661549E+01  0.22854065134E+02  0.99749124928E+02  0.10243519634E+03  0.00000000000E+00 0. -1.
        -13    1    5    5    0    0 -0.13079919584E+03  0.48786741894E+03  0.10527014227E+04  0.11676058125E+04  0.00000000000E+00 0.  1.
          1    1    6    6  503    0 -0.66704366527E+01 -0.25966599077E+02  0.56262855775E+02  0.62323895360E+02  0.00000000000E+00 0. -1.
         -1    1    6    6    0  503  0.18896604932E+03 -0.26880662968E+03  0.15256699352E+04  0.15606517622E+04  0.00000000000E+00 0.  1.
<mgrwt>
<rscale>  0 0.13185366E+04</rscale>
<asrwt>0</asrwt>
<pdfrwt beam="1">  1        2 0.46663592E+00 0.13185366E+04</pdfrwt>
<pdfrwt beam="2">  1       -1 0.22045477E-01 0.13185366E+04</pdfrwt>
<totfact> 0.32488399E+01</totfact>
</mgrwt>
</event>
<event>
11    7  0.1497947E-008  0.1362629E+04  0.7818608E-02  0.8981323E-01
          2   -1    0    0  501    0  0.00000000000E+00  0.00000000000E+00  0.89579874461E+03  0.89579874461E+03  0.00000000000E+00 0. -1.
         -1   -1    0    0    0  501 -0.00000000000E+00 -0.00000000000E+00 -0.51818517552E+03  0.51818517552E+03  0.00000000000E+00 0.  1.
         24    2    1    2    0    0  0.10819754180E+03 -0.34596673178E+03  0.22843964109E+03  0.43585476335E+03  0.79906304914E+02 0.  0.
        254    2    1    2    0    0 -0.10819754180E+03  0.34596673178E+03  0.14917392799E+03  0.97812915678E+03  0.89614959633E+03 0.  0.
         23    2    4    4    0    0 -0.23830011121E+03 -0.23384277815E+03  0.27156061642E+01  0.34616676612E+03  0.91403870571E+02 0.  0.
          4    1    3    3  502    0  0.32320270312E+02 -0.12426812795E+03  0.38012523015E+02  0.13391086365E+03  0.00000000000E+00 0. -1.
         -3    1    3    3    0  502  0.75877271484E+02 -0.22169860382E+03  0.19042711808E+03  0.30194389970E+03  0.00000000000E+00 0.  1.
         13    1    5    5    0    0 -0.10497063650E+03 -0.44136336675E+02 -0.70276593342E+01  0.11408873186E+03  0.00000000000E+00 0.  1.
        -13    1    5    5    0    0 -0.13332947471E+03 -0.18970644147E+03  0.97432654984E+01  0.23207803426E+03  0.00000000000E+00 0. -1.
          2    1    4    4  503    0  0.36178938778E+02  0.45910467875E+03  0.92097551597E+02  0.46964665513E+03  0.00000000000E+00 0. -1.
         -2    1    4    4    0  503  0.93923630636E+02  0.12070483117E+03  0.54360770230E+02  0.16231573553E+03  0.00000000000E+00 0.  1.
<mgrwt>
<rscale>  0 0.13626293E+04</rscale>
<asrwt>0</asrwt>
<pdfrwt beam="1">  1        2 0.13781519E+00 0.13626293E+04</pdfrwt>
<pdfrwt beam="2">  1       -1 0.79720797E-01 0.13626293E+04</pdfrwt>
<totfact> 0.51679196E+01</totfact>
</mgrwt>
</event>
<event>
12    7  0.1497947E-008  0.1844465E+04  0.7818608E-02  0.8683004E-01
         -1   -1    0    0    0  501 -0.00000000000E+00  0.00000000000E+00  0.75370337807E+03  0.75370337807E+03  0.00000000000E+00 0.  1.
          2   -1    0    0  501    0  0.00000000000E+00 -0.00000000000E+00 -0.11284452561E+04  0.11284452561E+04  0.00000000000E+00 0. -1.
         24    2    1    2    0    0 -0.33333079477E+03 -0.20898294816E+03  0.45057693546E+03  0.60360161857E+03  0.80821085146E+02 0.  0.
        254    2    1    2    0    0  0.33333079477E+03  0.20898294816E+03 -0.82531881348E+03  0.12785470156E+04  0.89372704773E+03 0.  0.
         23    2    4    4    0    0  0.39748275678E+03  0.48112642840E+03 -0.72671063132E+03  0.96232066243E+03  0.92073522926E+02 0.  0.
         23    2    4    4    0    0 -0.64151962010E+02 -0.27214348024E+03 -0.98608182164E+02  0.31622635317E+03  0.10999083954E+03 0.  0.
          2    1    3    3  502    0 -0.21524308990E+03 -0.10652146172E+03  0.31876528088E+03  0.39910864919E+03  0.00000000000E+00 0. -1.
         -1    1    3    3    0  502 -0.11808770486E+03 -0.10246148644E+03  0.13181165458E+03  0.20449296938E+03  0.00000000000E+00 0.  1.
         13    1    5    5    0    0  0.16916848886E+03  0.15028394429E+03 -0.30430912952E+03  0.37921931365E+03  0.00000000000E+00 0.  1.
        -13    1    5    5    0    0  0.22831426792E+03  0.33084248411E+03 -0.42240150179E+03  0.58310134878E+03  0.00000000000E+00 0. -1.
          1    1    6    6  503    0 -0.15833066546E+02 -0.21275912193E+03 -0.10794429367E+03  0.23910060748E+03  0.00000000000E+00 0. -1.
         -1    1    6    6    0  503 -0.48318895464E+02 -0.59384358311E+02  0.93361115045E+01  0.77125745694E+02  0.00000000000E+00 0.  1.
<mgrwt>
<rscale>  0 0.18444652E+04</rscale>
<asrwt>0</asrwt>
<pdfrwt beam="1">  1        2 0.17360696E+00 0.18444652E+04</pdfrwt>
<pdfrwt beam="2">  1       -1 0.11595437E+00 0.18444652E+04</pdfrwt>
<totfact> 0.15108394E+01</totfact>
</mgrwt>
</event>
<event>
11    7  0.1497947E-008  0.1184311E+04  0.7818608E-02  0.9126701E-01
         -1   -1    0    0    0  501 -0.00000000000E+00  0.00000000000E+00  0.20907421098E+03  0.20907421098E+03  0.00000000000E+00 0.  1.
          2   -1    0    0  501    0  0.00000000000E+00 -0.00000000000E+00 -0.16771477702E+04  0.16771477702E+04  0.00000000000E+00 0. -1.
         24    2    1    2    0    0 -0.17273856820E+03  0.11742783162E+03 -0.47346265907E+03  0.52681025746E+03  0.98662299037E+02 0.  0.
        254    2    1    2    0    0  0.17273856820E+03 -0.11742783162E+03 -0.99461090016E+03  0.13594117237E+04  0.90284078513E+03 0.  0.
         23    2    4    4    0    0  0.30146355263E+03  0.33229734612E+02 -0.88031974651E+03  0.93545522998E+03  0.90161756799E+02 0.  0.
          4    1    3    3  502    0 -0.37324251996E+02  0.34194567744E+00 -0.17368208944E+03  0.17764764256E+03  0.00000000000E+00 0. -1.
         -3    1    3    3    0  502 -0.13541431620E+03  0.11708588594E+03 -0.29978056963E+03  0.34916261490E+03  0.00000000000E+00 0.  1.
         13    1    5    5    0    0  0.38794894696E+02 -0.77801800778E+01 -0.22171712261E+03  0.22522002023E+03  0.00000000000E+00 0.  1.
        -13    1    5    5    0    0  0.26266865793E+03  0.41009914690E+02 -0.65860262390E+03  0.71023520975E+03  0.00000000000E+00 0. -1.
          3    1    4    4  503    0 -0.12299679005E+03 -0.22045706136E+02  0.10925856703E+03  0.16598692115E+03  0.00000000000E+00 0. -1.
         -3    1    4    4    0  503 -0.57281943780E+01 -0.12861186009E+03 -0.22354972068E+03  0.25796957259E+03  0.00000000000E+00 0.  1.
<mgrwt>
<rscale>  0 0.11843114E+04</rscale>
<asrwt>0</asrwt>
<pdfrwt beam="1">  1        2 0.25802273E+00 0.11843114E+04</pdfrwt>
<pdfrwt beam="2">  1       -1 0.32165264E-01 0.11843114E+04</pdfrwt>
<totfact> 0.10251139E+02</totfact>
</mgrwt>
</event>
<event>
11    7  0.1497947E-008  0.1907812E+04  0.7818608E-02  0.8650978E-01
          2   -1    0    0  501    0  0.00000000000E+00  0.00000000000E+00  0.15677236947E+04  0.15677236947E+04  0.00000000000E+00 0. -1.
         -1   -1    0    0    0  501 -0.00000000000E+00 -0.00000000000E+00 -0.58041894876E+03  0.58041894876E+03  0.00000000000E+00 0.  1.
         24    2    1    2    0    0  0.16157847814E+03 -0.21446704054E+03 -0.39025347526E+03  0.48026892649E+03  0.79099625328E+02 0.  0.
        254    2    1    2    0    0 -0.16157847814E+03  0.21446704054E+03  0.13775582212E+04  0.16678737170E+04  0.90112838536E+03 0.  0.
         23    2    4    4    0    0  0.22207700463E+02 -0.30016391292E+03  0.78197075387E+03  0.84293371295E+03  0.92018628246E+02 0.  0.
          2    1    3    3  502    0  0.15020818918E+02 -0.45800743573E+02 -0.12180460096E+03  0.13099501490E+03  0.00000000000E+00 0. -1.
         -1    1    3    3    0  502  0.14655765922E+03 -0.16866629696E+03 -0.26844887430E+03  0.34927391160E+03  0.00000000000E+00 0.  1.
         13    1    5    5    0    0 -0.21601835660E+02 -0.74643977153E+02  0.12751535307E+03  0.14932691618E+03  0.00000000000E+00 0. -1.
        -13    1    5    5    0    0  0.43809536122E+02 -0.22551993577E+03  0.65445540080E+03  0.69360679677E+03  0.00000000000E+00 0.  1.
          4    1    4    4  503    0 -0.42632931278E+02  0.29919334581E+03  0.40103141488E+03  0.50215577336E+03  0.00000000000E+00 0. -1.
         -4    1    4    4    0  503 -0.14115324733E+03  0.21543760765E+03  0.19455605250E+03  0.32278423069E+03  0.00000000000E+00 0.  1.
<mgrwt>
<rscale>  0 0.19078119E+04</rscale>
<asrwt>0</asrwt>
<pdfrwt beam="1">  1        2 0.24118826E+00 0.19078119E+04</pdfrwt>
<pdfrwt beam="2">  1       -1 0.89295224E-01 0.19078119E+04</pdfrwt>
<totfact> 0.15237686E+01</totfact>
</mgrwt>
</event>
<event>
12    7  0.1497947E-008  0.1277435E+04  0.7818608E-02  0.9047653E-01
          2   -1    0    0  501    0  0.00000000000E+00  0.00000000000E+00  0.27090425194E+03  0.27090425194E+03  0.00000000000E+00 0. -1.
         -1   -1    0    0    0  501 -0.00000000000E+00 -0.00000000000E+00 -0.15059196363E+04  0.15059196363E+04  0.00000000000E+00 0.  1.
         24    2    1    2    0    0 -0.16297781991E+03  0.95904090744E+02 -0.65328358414E+03  0.68468554003E+03  0.79091611485E+02 0.  0.
        254    2    1    2    0    0  0.16297781991E+03 -0.95904090744E+02 -0.58173180018E+03  0.10921383482E+04  0.90476235543E+03 0.  0.
         23    2    4    4    0    0  0.43272645051E+03  0.12260561355E+03 -0.63131458162E+02  0.46346021345E+03  0.92333477125E+02 0.  0.
         23    2    4    4    0    0 -0.26974863059E+03 -0.21850970429E+03 -0.51860034202E+03  0.62867813473E+03  0.76020180004E+02 0.  0.
          2    1    3    3  502    0 -0.52437836686E+02 -0.81302891740E+01 -0.17940389460E+03  0.18708710730E+03  0.00000000000E+00 0. -1.
         -1    1    3    3    0  502 -0.11053998323E+03  0.10403437992E+03 -0.47387968954E+03  0.49759843273E+03  0.00000000000E+00 0.  1.
         13    1    5    5    0    0  0.39454321103E+03  0.81206143884E+02 -0.54530627661E+02  0.40648785040E+03  0.00000000000E+00 0. -1.
        -13    1    5    5    0    0  0.38183239477E+02  0.41399469663E+02 -0.86008305015E+01  0.56972363042E+02  0.00000000000E+00 0.  1.
          1    1    6    6  503    0 -0.24273697836E+03 -0.20696566908E+03 -0.50244707249E+03  0.59515467695E+03  0.00000000000E+00 0. -1.
         -1    1    6    6    0  503 -0.27011652227E+02 -0.11544035209E+02 -0.16153269535E+02  0.33523457781E+02  0.00000000000E+00 0.  1.
<mgrwt>
<rscale>  0 0.12774350E+04</rscale>
<asrwt>0</asrwt>
<pdfrwt beam="1">  1        2 0.41677577E-01 0.12774350E+04</pdfrwt>
<pdfrwt beam="2">  1       -1 0.23167994E+00 0.12774350E+04</pdfrwt>
<totfact> 0.12746305E+01</totfact>
</mgrwt>
</event>
<event>
12    7  0.1497947E-008  0.1820141E+04  0.7818608E-02  0.8695662E-01
         -1   -1    0    0    0  501 -0.00000000000E+00  0.00000000000E+00  0.37612386293E+03  0.37612386293E+03  0.00000000000E+00 0.  1.
          2   -1    0    0  501    0  0.00000000000E+00 -0.00000000000E+00 -0.22020086997E+04  0.22020086997E+04  0.00000000000E+00 0. -1.
         24    2    1    2    0    0 -0.23676454382E+03 -0.63892279054E+03 -0.63765451610E+03  0.93684154293E+03  0.82395468146E+02 0.  0.
        254    2    1    2    0    0  0.23676454382E+03  0.63892279054E+03 -0.11882303207E+04  0.16412910197E+04  0.90424838120E+03 0.  0.
         23    2    4    4    0    0  0.46857484213E+03  0.59927566614E+02 -0.65334833241E+03  0.81174039396E+03  0.94364865342E+02 0.  0.
         23    2    4    4    0    0 -0.23181029831E+03  0.57899522393E+03 -0.53488198826E+03  0.82955062574E+03  0.11438538174E+03 0.  0.
          2    1    3    3  502    0 -0.17889440347E+03 -0.50715843245E+03 -0.45599041018E+03  0.70508165298E+03  0.00000000000E+00 0. -1.
         -1    1    3    3    0  502 -0.57870140354E+02 -0.13176435809E+03 -0.18166410592E+03  0.23175988994E+03  0.00000000000E+00 0.  1.
         13    1    5    5    0    0  0.47136021553E+03  0.57946242325E+02 -0.65401923011E+03  0.80825699696E+03  0.00000000000E+00 0.  1.
        -13    1    5    5    0    0 -0.27853733985E+01  0.19813242891E+01  0.67089770613E+00  0.34833969971E+01  0.00000000000E+00 0. -1.
          1    1    6    6  503    0 -0.82787413755E+02  0.35261654798E+03 -0.32706540247E+03  0.48802045375E+03  0.00000000000E+00 0. -1.
         -1    1    6    6    0  503 -0.14902288456E+03  0.22637867595E+03 -0.20781658579E+03  0.34153017198E+03  0.00000000000E+00 0.  1.
<mgrwt>
<rscale>  0 0.18201407E+04</rscale>
<asrwt>0</asrwt>
<pdfrwt beam="1">  1        2 0.33877057E+00 0.18201407E+04</pdfrwt>
<pdfrwt beam="2">  1       -1 0.57865210E-01 0.18201407E+04</pdfrwt>
<totfact> 0.16728168E+01</totfact>
</mgrwt>
</event>
<event>
12    7  0.1497947E-008  0.1422208E+04  0.7818608E-02  0.8937898E-01
          2   -1    0    0  501    0  0.00000000000E+00  0.00000000000E+00  0.52621988712E+03  0.52621988712E+03  0.00000000000E+00 0. -1.
         -1   -1    0    0    0  501 -0.00000000000E+00 -0.00000000000E+00 -0.96094572435E+03  0.96094572435E+03  0.00000000000E+00 0.  1.
         24    2    1    2    0    0  0.21534583575E+02  0.81648657473E+02  0.30305805239E+03  0.32414037121E+03  0.78054824128E+02 0.  0.
        254    2    1    2    0    0 -0.21534583575E+02 -0.81648657473E+02 -0.73778388962E+03  0.11630252403E+04  0.89508234265E+03 0.  0.
         23    2    4    4    0    0 -0.12951865078E+02  0.34478948839E+03 -0.60216387132E+03  0.69993567141E+03  0.90890450949E+02 0.  0.
         23    2    4    4    0    0 -0.85827184975E+01 -0.42643814587E+03 -0.13562001830E+03  0.46308956885E+03  0.11889492883E+03 0.  0.
          2    1    3    3  502    0  0.33892453832E+02  0.88350229666E+02  0.28964195610E+03  0.30470793269E+03  0.00000000000E+00 0. -1.
         -3    1    3    3    0  502 -0.12357870256E+02 -0.67015721933E+01  0.13416096293E+02  0.19432438521E+02  0.00000000000E+00 0.  1.
         13    1    5    5    0    0 -0.43213649672E+02  0.10500466746E+03 -0.22401129774E+03  0.25114629446E+03  0.00000000000E+00 0. -1.
        -13    1    5    5    0    0  0.30261784595E+02  0.23978482094E+03 -0.37815257358E+03  0.44878937695E+03  0.00000000000E+00 0.  1.
          1    1    6    6  503    0 -0.59949071330E+02 -0.28123621417E+03 -0.10452165630E+03  0.30596155960E+03  0.00000000000E+00 0.  1.
         -1    1    6    6    0  503  0.51366352833E+02 -0.14520193169E+03 -0.31098362004E+02  0.15712800925E+03  0.00000000000E+00 0. -1.
<mgrwt>
<rscale>  0 0.14222078E+04</rscale>
<asrwt>0</asrwt>
<pdfrwt beam="1">  1        2 0.80956906E-01 0.14222078E+04</pdfrwt>
<pdfrwt beam="2">  1       -1 0.14783780E+00 0.14222078E+04</pdfrwt>
<totfact> 0.23380285E+01</totfact>
</mgrwt>
</event>
<event>
12    7  0.1497947E-008  0.1430710E+04  0.7818608E-02  0.8931884E-01
         -1   -1    0    0    0  501 -0.00000000000E+00  0.00000000000E+00  0.29423315926E+03  0.29423315926E+03  0.00000000000E+00 0.  1.
          2   -1    0    0  501    0  0.00000000000E+00 -0.00000000000E+00 -0.17392082068E+04  0.17392082068E+04  0.00000000000E+00 0. -1.
         24    2    1    2    0    0  0.32055504234E+03 -0.28711409048E+03 -0.49794486903E+03  0.66315795002E+03  0.81482132706E+02 0.  0.
        254    2    1    2    0    0 -0.32055504234E+03  0.28711409048E+03 -0.94703017855E+03  0.13702834161E+04  0.89197558554E+03 0.  0.
         23    2    4    4    0    0  0.25562364179E+03  0.25586051021E+03 -0.55492563470E+03  0.66869778544E+03  0.91685447474E+02 0.  0.
         23    2    4    4    0    0 -0.57617868413E+03  0.31253580270E+02 -0.39210454385E+03  0.70158563065E+03  0.74281636369E+02 0.  0.
          2    1    3    3  502    0  0.26950707600E+03 -0.21311760531E+03 -0.43034152346E+03  0.55067867630E+03  0.00000000000E+00 0. -1.
         -1    1    3    3    0  502  0.51047966339E+02 -0.73996485168E+02 -0.67603345569E+02  0.11247927372E+03  0.00000000000E+00 0.  1.
         13    1    5    5    0    0  0.14539327476E+03  0.11036503433E+03 -0.34650136286E+03  0.39164121286E+03  0.00000000000E+00 0. -1.
        -13    1    5    5    0    0  0.11023036703E+03  0.14549547588E+03 -0.20842427185E+03  0.27705657259E+03  0.00000000000E+00 0.  1.
          3    1    6    6  503    0 -0.57120796055E+03  0.31380670393E+02 -0.37561071229E+03  0.68435859596E+03  0.00000000000E+00 0. -1.
         -3    1    6    6    0  503 -0.49707235756E+01 -0.12709012331E+00 -0.16493831559E+02  0.17227034691E+02  0.00000000000E+00 0.  1.
<mgrwt>
<rscale>  0 0.14307099E+04</rscale>
<asrwt>0</asrwt>
<pdfrwt beam="1">  1        2 0.26757050E+00 0.14307099E+04</pdfrwt>
<pdfrwt beam="2">  1       -1 0.45266639E-01 0.14307099E+04</pdfrwt>
<totfact> 0.49978450E+01</totfact>
</mgrwt>
</event>
<event>
12    7  0.1497947E-008  0.1895072E+04  0.7818608E-02  0.8657313E-01
          4   -1    0    0  501    0  0.00000000000E+00  0.00000000000E+00  0.18000807878E+04  0.18000807878E+04  0.00000000000E+00 0. -1.
         -3   -1    0    0    0  501 -0.00000000000E+00 -0.00000000000E+00 -0.49876887271E+03  0.49876887271E+03  0.00000000000E+00 0.  1.
         24    2    1    2    0    0  0.18091422649E+03 -0.43243768514E+03 -0.17462989320E+03  0.50645304704E+03  0.79162998764E+02 0.  0.
        254    2    1    2    0    0 -0.18091422649E+03  0.43243768514E+03  0.14759418083E+04  0.17923966135E+04  0.90252373356E+03 0.  0.
         23    2    4    4    0    0 -0.46681380416E+03  0.46704494514E+03  0.74650341139E+03  0.10008576093E+04  0.91665163762E+02 0.  0.
         23    2    4    4    0    0  0.28589957766E+03 -0.34607259998E+02  0.72943839690E+03  0.79153900422E+03  0.10731910069E+03 0.  0.
          4    1    3    3  502    0  0.20676723581E+02 -0.13105932536E+03 -0.66460353607E+02  0.14839491994E+03  0.00000000000E+00 0. -1.
         -3    1    3    3    0  502  0.16023750291E+03 -0.30137835978E+03 -0.10816953960E+03  0.35805812710E+03  0.00000000000E+00 0.  1.
         13    1    5    5    0    0 -0.17372810302E+03  0.15992956970E+03  0.20439465869E+03  0.31230769690E+03  0.00000000000E+00 0. -1.
        -13    1    5    5    0    0 -0.29308570114E+03  0.30711537544E+03  0.54210875270E+03  0.68854991236E+03  0.00000000000E+00 0.  1.
          3    1    6    6  503    0  0.29397676346E+03 -0.33249998473E+02  0.68210097983E+03  0.74349824919E+03  0.00000000000E+00 0. -1.
         -3    1    6    6    0  503 -0.80771858014E+01 -0.13572615249E+01  0.47337417067E+02  0.48040755030E+02  0.00000000000E+00 0.  1.
<mgrwt>
<rscale>  0 0.18950718E+04</rscale>
<asrwt>0</asrwt>
<pdfrwt beam="1">  1        4 0.27693550E+00 0.18950718E+04</pdfrwt>
<pdfrwt beam="2">  1       -3 0.76733674E-01 0.18950718E+04</pdfrwt>
<totfact> 0.14681305E-01</totfact>
</mgrwt>
</event>
<event>
12    7  0.1497947E-008  0.1370543E+04  0.7818608E-02  0.8975422E-01
          2   -1    0    0  501    0  0.00000000000E+00  0.00000000000E+00  0.11647591870E+04  0.11647591870E+04  0.00000000000E+00 0. -1.
         -1   -1    0    0    0  501 -0.00000000000E+00 -0.00000000000E+00 -0.40317067724E+03  0.40317067724E+03  0.00000000000E+00 0.  1.
         24    2    1    2    0    0  0.46545804453E+02  0.14973655497E+03  0.61873610051E+03  0.64332045863E+03  0.80245265371E+02 0.  0.
        254    2    1    2    0    0 -0.46545804453E+02 -0.14973655497E+03  0.14285240925E+03  0.92460940561E+03  0.89994899539E+03 0.  0.
         23    2    4    4    0    0  0.42091015971E+02 -0.29531685412E+03 -0.30328863469E+03  0.43525320474E+03  0.92074200284E+02 0.  0.
         23    2    4    4    0    0 -0.88636820425E+02  0.14558029915E+03  0.44614104394E+03  0.48935620087E+03  0.10666560272E+03 0.  0.
          4    1    3    3  502    0  0.29632877014E+02  0.93914736131E+01  0.17088432122E+03  0.17368868246E+03  0.00000000000E+00 0. -1.
         -3    1    3    3    0  502  0.16912927439E+02  0.14034508135E+03  0.44785177929E+03  0.46963177617E+03  0.00000000000E+00 0.  1.
         13    1    5    5    0    0 -0.20788425199E+02 -0.15686786817E+03 -0.13072438871E+03  0.20525241165E+03  0.00000000000E+00 0. -1.
        -13    1    5    5    0    0  0.62879441170E+02 -0.13844898595E+03 -0.17256424598E+03  0.23000079309E+03  0.00000000000E+00 0.  1.
          4    1    6    6  503    0  0.15811233223E+02  0.17177751031E+02  0.15558584185E+02  0.28056011270E+02  0.00000000000E+00 0. -1.
         -4    1    6    6    0  503 -0.10444805365E+03  0.12840254812E+03  0.43058245976E+03  0.46130018960E+03  0.00000000000E+00 0.  1.
<mgrwt>
<rscale>  0 0.13705426E+04</rscale>
<asrwt>0</asrwt>
<pdfrwt beam="1">  1        2 0.17919372E+00 0.13705426E+04</pdfrwt>
<pdfrwt beam="2">  1       -1 0.62026259E-01 0.13705426E+04</pdfrwt>
<totfact> 0.58316737E+01</totfact>
</mgrwt>
</event>
<event>
12    7  0.1497947E-008  0.1068648E+04  0.7818608E-02  0.9236300E-01
         -3   -1    0    0    0  501 -0.00000000000E+00  0.00000000000E+00  0.20293074447E+03  0.20293074447E+03  0.00000000000E+00 0.  1.
          2   -1    0    0  501    0  0.00000000000E+00 -0.00000000000E+00 -0.14068950678E+04  0.14068950678E+04  0.00000000000E+00 0. -1.
         24    2    1    2    0    0  0.18510309593E+02 -0.13673835510E+03 -0.17336323055E+03  0.23541227682E+03  0.79524342519E+02 0.  0.
        254    2    1    2    0    0 -0.18510309593E+02  0.13673835510E+03 -0.10306010928E+04  0.13744135354E+04  0.89879583034E+03 0.  0.
         23    2    4    4    0    0 -0.35899693227E+03 -0.15688264698E+03 -0.25964878650E+03  0.47920785222E+03  0.93443624680E+02 0.  0.
         23    2    4    4    0    0  0.34048662268E+03  0.29362100208E+03 -0.77095230627E+03  0.89520568321E+03  0.69866469948E+02 0.  0.
          2    1    3    3  502    0  0.35712000463E+02 -0.74383171245E+02 -0.14030761814E+03  0.16277109955E+03  0.00000000000E+00 0. -1.
         -1    1    3    3    0  502 -0.17201690869E+02 -0.62355183859E+02 -0.33055612407E+02  0.72641177265E+02  0.00000000000E+00 0.  1.
         13    1    5    5    0    0 -0.22850012329E+03 -0.14026168457E+03 -0.20142913870E+03  0.33534958539E+03  0.00000000000E+00 0. -1.
        -13    1    5    5    0    0 -0.13049680899E+03 -0.16620962412E+02 -0.58219647800E+02  0.14385826684E+03  0.00000000000E+00 0.  1.
          2    1    6    6  503    0  0.27638750690E+03  0.27085082642E+03 -0.65481086204E+03  0.76060994550E+03  0.00000000000E+00 0. -1.
         -2    1    6    6    0  503  0.64099115777E+02  0.22770175667E+02 -0.11614144423E+03  0.13459573772E+03  0.00000000000E+00 0.  1.
<mgrwt>
<rscale>  0 0.10686482E+04</rscale>
<asrwt>0</asrwt>
<pdfrwt beam="1">  1        2 0.21644539E+00 0.10686482E+04</pdfrwt>
<pdfrwt beam="2">  1       -3 0.31220115E-01 0.10686482E+04</pdfrwt>
<totfact> 0.92202745E+01</totfact>
</mgrwt>
</event>
<event>
11    7  0.1497947E-008  0.3225364E+04  0.7818608E-02  0.8182150E-01
          2   -1    0    0  501    0  0.00000000000E+00  0.00000000000E+00  0.11140953423E+04  0.11140953423E+04  0.00000000000E+00 0. -1.
         -1   -1    0    0    0  501 -0.00000000000E+00 -0.00000000000E+00 -0.23343998333E+04  0.23343998333E+04  0.00000000000E+00 0.  1.
         24    2    1    2    0    0  0.14243640634E+04  0.89834180123E+02 -0.11912673391E+03  0.14343575318E+04  0.79417789412E+02 0.  0.
        254    2    1    2    0    0 -0.14243640634E+04 -0.89834180123E+02 -0.11011777571E+04  0.20141376438E+04  0.89848474143E+03 0.  0.
         23    2    4    4    0    0 -0.79529160991E+03  0.12162869860E+03 -0.10404536150E+04  0.13183068727E+04  0.90038884146E+02 0.  0.
          2    1    3    3  502    0  0.71822574591E+03  0.56154436446E+02 -0.98456915415E+02  0.72711436997E+03  0.00000000000E+00 0. -1.
         -1    1    3    3    0  502  0.70613831749E+03  0.33679743677E+02 -0.20669818496E+02  0.70724316183E+03  0.00000000000E+00 0.  1.
         13    1    5    5    0    0 -0.47304655275E+03  0.11415804379E+03 -0.60081153664E+03  0.77316208042E+03  0.00000000000E+00 0.  1.
        -13    1    5    5    0    0 -0.32224505716E+03  0.74706548082E+01 -0.43964207832E+03  0.54514479231E+03  0.00000000000E+00 0. -1.
          3    1    4    4  503    0 -0.62014641953E+03 -0.23825104363E+03 -0.63959430637E+02  0.66740988172E+03  0.00000000000E+00 0. -1.
         -3    1    4    4    0  503 -0.89260339502E+01  0.26788164908E+02  0.32352885286E+01  0.28420889379E+02  0.00000000000E+00 0.  1.
<mgrwt>
<rscale>  0 0.32253645E+04</rscale>
<asrwt>0</asrwt>
<pdfrwt beam="1">  1        2 0.17139929E+00 0.32253645E+04</pdfrwt>
<pdfrwt beam="2">  1       -1 0.35913843E+00 0.32253645E+04</pdfrwt>
<totfact> 0.27604352E-01</totfact>
</mgrwt>
</event>
<event>
12    7  0.1497947E-008  0.1799573E+04  0.7818608E-02  0.8706527E-01
          2   -1    0    0  501    0  0.00000000000E+00  0.00000000000E+00  0.16390224044E+04  0.16390224044E+04  0.00000000000E+00 0. -1.
         -1   -1    0    0    0  501 -0.00000000000E+00 -0.00000000000E+00 -0.49396259665E+03  0.49396259665E+03  0.00000000000E+00 0.  1.
         24    2    1    2    0    0 -0.25950744117E+01  0.59424574822E+03  0.80701550209E+03  0.10051459415E+04  0.76873919231E+02 0.  0.
        254    2    1    2    0    0  0.25950744117E+01 -0.59424574822E+03  0.33804430565E+03  0.11278390595E+04  0.89700181042E+03 0.  0.
         23    2    4    4    0    0 -0.16208009258E+03 -0.21800086139E+03  0.57440917276E+03  0.64201064673E+03  0.91855543044E+02 0.  0.
         23    2    4    4    0    0  0.16467516699E+03 -0.37624488683E+03 -0.23636486710E+03  0.48582841279E+03  0.10715769121E+03 0.  0.
          4    1    3    3  502    0 -0.22896437254E+02  0.26868943269E+03  0.41849762396E+03  0.49785391365E+03  0.00000000000E+00 0. -1.
         -1    1    3    3    0  502  0.20301362842E+02  0.32555631553E+03  0.38851787813E+03  0.50729202787E+03  0.00000000000E+00 0.  1.
         13    1    5    5    0    0 -0.31657426633E+02 -0.11161882946E+03  0.19425852934E+03  0.22626827434E+03  0.00000000000E+00 0. -1.
        -13    1    5    5    0    0 -0.13042266594E+03 -0.10638203193E+03  0.38015064342E+03  0.41574237239E+03  0.00000000000E+00 0.  1.
          1    1    6    6  503    0  0.42045521178E+02 -0.65328980550E+02 -0.95554644167E+02  0.12315190446E+03  0.00000000000E+00 0. -1.
         -1    1    6    6    0  503  0.12262964581E+03 -0.31091590628E+03 -0.14081022294E+03  0.36267650833E+03  0.00000000000E+00 0.  1.
<mgrwt>
<rscale>  0 0.17995730E+04</rscale>
<asrwt>0</asrwt>
<pdfrwt beam="1">  1        2 0.25215729E+00 0.17995730E+04</pdfrwt>
<pdfrwt beam="2">  1       -1 0.75994247E-01 0.17995730E+04</pdfrwt>
<totfact> 0.19836706E+01</totfact>
</mgrwt>
</event>
<event>
12    7  0.1497947E-008  0.2473242E+04  0.7818608E-02  0.8412581E-01
          2   -1    0    0  501    0  0.00000000000E+00  0.00000000000E+00  0.11599827725E+04  0.11599827725E+04  0.00000000000E+00 0. -1.
         -1   -1    0    0    0  501 -0.00000000000E+00 -0.00000000000E+00 -0.13183229906E+04  0.13183229906E+04  0.00000000000E+00 0.  1.
         24    2    1    2    0    0  0.10006998153E+04 -0.44752399470E+03  0.13789068203E+03  0.11077683304E+04  0.80367826468E+02 0.  0.
        254    2    1    2    0    0 -0.10006998153E+04  0.44752399470E+03 -0.29623090020E+03  0.13705374327E+04  0.76742573707E+03 0.  0.
         23    2    4    4    0    0 -0.11970445589E+03 -0.98371454733E+02 -0.27279835162E+03  0.32703881977E+03  0.92354475386E+02 0.  0.
         23    2    4    4    0    0 -0.88099535942E+03  0.54589544944E+03 -0.23432548574E+02  0.10434986129E+04  0.11910334064E+03 0.  0.
          2    1    3    3  502    0  0.99098326125E+03 -0.43829138376E+03  0.14387308035E+03  0.10930904008E+04  0.00000000000E+00 0. -1.
         -1    1    3    3    0  502  0.97165540552E+01 -0.92326109409E+01 -0.59823983187E+01  0.14677929593E+02  0.00000000000E+00 0.  1.
         13    1    5    5    0    0 -0.61085610409E+01 -0.25130051572E+02 -0.39964916603E+01  0.26168797366E+02  0.00000000000E+00 0. -1.
        -13    1    5    5    0    0 -0.11359589485E+03 -0.73241403162E+02 -0.26880185996E+03  0.30087002241E+03  0.00000000000E+00 0.  1.
          2    1    6    6  503    0 -0.86766832633E+03  0.51492778775E+03 -0.28746680141E+02  0.10093687744E+04  0.00000000000E+00 0.  1.
         -2    1    6    6    0  503 -0.13327033082E+02  0.30967661689E+02  0.53141315675E+01  0.34129838493E+02  0.00000000000E+00 0. -1.
<mgrwt>
<rscale>  0 0.24732424E+04</rscale>
<asrwt>0</asrwt>
<pdfrwt beam="1">  1        2 0.17845889E+00 0.24732424E+04</pdfrwt>
<pdfrwt beam="2">  1       -1 0.20281892E+00 0.24732424E+04</pdfrwt>
<totfact> 0.29357249E+00</totfact>
</mgrwt>
</event>
<event>
11    7  0.1497947E-008  0.2217759E+04  0.7818608E-02  0.8511073E-01
          2   -1    0    0  501    0  0.00000000000E+00  0.00000000000E+00  0.21920703357E+04  0.21920703357E+04  0.00000000000E+00 0. -1.
         -1   -1    0    0    0  501 -0.00000000000E+00 -0.00000000000E+00 -0.56093709994E+03  0.56093709994E+03  0.00000000000E+00 0.  1.
         24    2    1    2    0    0 -0.48945881707E+03 -0.41246238309E+03 -0.14301991550E+03  0.66062384676E+03  0.79208709124E+02 0.  0.
        254    2    1    2    0    0  0.48945881707E+03  0.41246238309E+03  0.17741531513E+04  0.20923835889E+04  0.90595503633E+03 0.  0.
         23    2    4    4    0    0 -0.17219444283E+03  0.21972029475E+03  0.16782086242E+03  0.33839082417E+03  0.91741887685E+02 0.  0.
          4    1    3    3  502    0 -0.18238655286E+03 -0.11366460036E+03 -0.25976813972E+02  0.21647006930E+03  0.00000000000E+00 0. -1.
         -3    1    3    3    0  502 -0.30707226421E+03 -0.29879778273E+03 -0.11704310153E+03  0.44415377746E+03  0.00000000000E+00 0.  1.
         13    1    5    5    0    0 -0.13845200594E+03  0.15139976116E+03  0.16301699631E+03  0.26204081116E+03  0.00000000000E+00 0.  1.
        -13    1    5    5    0    0 -0.33742436898E+02  0.68320533589E+02  0.48038661038E+01  0.76350013014E+02  0.00000000000E+00 0. -1.
          4    1    4    4  503    0  0.46465963752E+03  0.16733842851E+03  0.12799048476E+04  0.13718845240E+04  0.00000000000E+00 0. -1.
         -4    1    4    4    0  503  0.19699362239E+03  0.25403659836E+02  0.32642744129E+03  0.38210824071E+03  0.00000000000E+00 0.  1.
<mgrwt>
<rscale>  0 0.22177588E+04</rscale>
<asrwt>0</asrwt>
<pdfrwt beam="1">  1        2 0.33724159E+00 0.22177588E+04</pdfrwt>
<pdfrwt beam="2">  1       -1 0.86298017E-01 0.22177588E+04</pdfrwt>
<totfact> 0.71777668E+00</totfact>
</mgrwt>
</event>
<event>
11    7  0.1497947E-008  0.1378673E+04  0.7818608E-02  0.8969402E-01
         -1   -1    0    0    0  501 -0.00000000000E+00  0.00000000000E+00  0.17350066919E+03  0.17350066919E+03  0.00000000000E+00 0.  1.
          2   -1    0    0  501    0  0.00000000000E+00 -0.00000000000E+00 -0.27388081241E+04  0.27388081241E+04  0.00000000000E+00 0. -1.
         24    2    1    2    0    0 -0.32038832454E+02  0.85559765714E+02 -0.16011305700E+04  0.16064187901E+04  0.92818461127E+02 0.  0.
        254    2    1    2    0    0  0.32038832454E+02 -0.85559765714E+02 -0.96417688490E+03  0.13058900032E+04  0.87599353578E+03 0.  0.
         23    2    4    4    0    0  0.17184373705E+03 -0.36582708964E+03 -0.20618254235E+03  0.46211498580E+03  0.87631557419E+02 0.  0.
          4    1    3    3  502    0  0.16540348692E+02  0.69391364653E+02 -0.11859070710E+04  0.11880506410E+04  0.00000000000E+00 0. -1.
         -3    1    3    3    0  502 -0.48579181146E+02  0.16168401061E+02 -0.41522349906E+03  0.41836814913E+03  0.00000000000E+00 0.  1.
         13    1    5    5    0    0  0.42284341754E+02 -0.25696130146E+02 -0.28304384418E+02  0.57003463397E+02  0.00000000000E+00 0. -1.
        -13    1    5    5    0    0  0.12955939529E+03 -0.34013095949E+03 -0.17787815793E+03  0.40511152240E+03  0.00000000000E+00 0.  1.
          2    1    4    4  503    0 -0.28252187761E+02  0.25232229114E+03 -0.55859287634E+03  0.61358840131E+03  0.00000000000E+00 0.  1.
         -2    1    4    4    0  503 -0.11155271683E+03  0.27945032786E+02 -0.19940146621E+03  0.23018661607E+03  0.00000000000E+00 0. -1.
<mgrwt>
<rscale>  0 0.13786733E+04</rscale>
<asrwt>0</asrwt>
<pdfrwt beam="1">  1        2 0.42135510E+00 0.13786733E+04</pdfrwt>
<pdfrwt beam="2">  1       -1 0.26692411E-01 0.13786733E+04</pdfrwt>
<totfact> 0.35184852E+01</totfact>
</mgrwt>
</event>
<event>
11    7  0.1497947E-008  0.1188382E+04  0.7818608E-02  0.9123087E-01
         -1   -1    0    0    0  501 -0.00000000000E+00  0.00000000000E+00  0.41716850307E+03  0.41716850307E+03  0.00000000000E+00 0.  1.
          2   -1    0    0  501    0  0.00000000000E+00 -0.00000000000E+00 -0.84633123076E+03  0.84633123076E+03  0.00000000000E+00 0. -1.
         24    2    1    2    0    0  0.34726149884E+02  0.28495056752E+02 -0.35186076715E+03  0.36126680050E+03  0.68482318445E+02 0.  0.
        254    2    1    2    0    0 -0.34726149884E+02 -0.28495056752E+02 -0.77301960544E+02  0.90223293332E+03  0.89779218037E+03 0.  0.
         23    2    4    4    0    0  0.23508563847E+03  0.26132040229E+03 -0.18050468631E+03  0.40475753961E+03  0.87710398602E+02 0.  0.
          2    1    3    3  502    0  0.40240536744E+02  0.43702321304E+02 -0.32071653433E+03  0.32617217705E+03  0.00000000000E+00 0. -1.
         -1    1    3    3    0  502 -0.55143868601E+01 -0.15207264553E+02 -0.31144232816E+02  0.35094623453E+02  0.00000000000E+00 0.  1.
         13    1    5    5    0    0  0.63593795322E+00  0.33403334238E+02 -0.53865994480E+01  0.33840842320E+02  0.00000000000E+00 0.  1.
        -13    1    5    5    0    0  0.23444970052E+03  0.22791706805E+03 -0.17511808687E+03  0.37091669729E+03  0.00000000000E+00 0. -1.
          1    1    4    4  503    0 -0.93405042334E+02 -0.27497240254E+02 -0.85277918106E+02  0.12943308492E+03  0.00000000000E+00 0.  1.
         -1    1    4    4    0  503 -0.17640674602E+03 -0.26231821878E+03  0.18848064388E+03  0.36804230880E+03  0.00000000000E+00 0. -1.
<mgrwt>
<rscale>  0 0.11883816E+04</rscale>
<asrwt>0</asrwt>
<pdfrwt beam="1">  1        2 0.13020480E+00 0.11883816E+04</pdfrwt>
<pdfrwt beam="2">  1       -1 0.64179770E-01 0.11883816E+04</pdfrwt>
<totfact> 0.88606523E+01</totfact>
</mgrwt>
</event>
<event>
11    7  0.1497947E-008  0.2688629E+04  0.7818608E-02  0.8338704E-01
         -1   -1    0    0    0  501 -0.00000000000E+00  0.00000000000E+00  0.20946410045E+04  0.20946410045E+04  0.00000000000E+00 0.  1.
          2   -1    0    0  501    0  0.00000000000E+00 -0.00000000000E+00 -0.86276455088E+03  0.86276455088E+03  0.00000000000E+00 0. -1.
         24    2    1    2    0    0 -0.33086673167E+03 -0.40192706871E+02 -0.71059530560E+03  0.78906257425E+03  0.81153003158E+02 0.  0.
        254    2    1    2    0    0  0.33086673167E+03  0.40192706871E+02  0.19424717593E+04  0.21683429812E+04  0.90411641986E+03 0.  0.
         23    2    4    4    0    0  0.16791079364E+03 -0.13289061157E+03  0.15950267956E+04  0.16118539879E+04  0.90049155630E+02 0.  0.
          4    1    3    3  502    0 -0.14896341736E+03 -0.27181953337E+02 -0.41471892012E+03  0.44149829106E+03  0.00000000000E+00 0. -1.
         -3    1    3    3    0  502 -0.18190331431E+03 -0.13010753534E+02 -0.29587638548E+03  0.34756428319E+03  0.00000000000E+00 0.  1.
         13    1    5    5    0    0  0.11064086071E+02 -0.32212975187E+02  0.10933582084E+03  0.11451817100E+03  0.00000000000E+00 0. -1.
        -13    1    5    5    0    0  0.15684670757E+03 -0.10067763638E+03  0.14856909748E+04  0.14973358169E+04  0.00000000000E+00 0.  1.
          1    1    4    4  503    0 -0.56852245411E+01  0.14546691012E+03  0.35678958598E+03  0.38534627594E+03  0.00000000000E+00 0. -1.
         -1    1    4    4    0  503  0.16864116257E+03  0.27616408319E+02 -0.93446223238E+01  0.17114271731E+03  0.00000000000E+00 0.  1.
<mgrwt>
<rscale>  0 0.26886294E+04</rscale>
<asrwt>0</asrwt>
<pdfrwt beam="1">  1        2 0.13273301E+00 0.26886294E+04</pdfrwt>
<pdfrwt beam="2">  1       -1 0.32225246E+00 0.26886294E+04</pdfrwt>
<totfact> 0.73661919E-01</totfact>
</mgrwt>
</event>
<event>
12    7  0.1497947E-008  0.1772595E+04  0.7818608E-02  0.8721011E-01
          2   -1    0    0  501    0  0.00000000000E+00  0.00000000000E+00  0.55398450975E+03  0.55398450975E+03  0.00000000000E+00 0. -1.
         -1   -1    0    0    0  501 -0.00000000000E+00 -0.00000000000E+00 -0.14179510495E+04  0.14179510495E+04  0.00000000000E+00 0.  1.
         24    2    1    2    0    0  0.20548150207E+02 -0.23913122698E+03  0.36060412967E+03  0.44049195321E+03  0.79949060732E+02 0.  0.
        254    2    1    2    0    0 -0.20548150207E+02  0.23913122698E+03 -0.12245706694E+04  0.15314436061E+04  0.88777261948E+03 0.  0.
         23    2    4    4    0    0 -0.81314200130E+02  0.68827526869E+02  0.11100686971E+03  0.17849962666E+03  0.90500629829E+02 0.  0.
         23    2    4    4    0    0  0.60766049924E+02  0.17030370012E+03 -0.13355775391E+04  0.13529439794E+04  0.11829702114E+03 0.  0.
          2    1    3    3  502    0  0.28605618656E+02 -0.12028392502E+03  0.24534927892E+03  0.27474128322E+03  0.00000000000E+00 0. -1.
         -1    1    3    3    0  502 -0.80574684499E+01 -0.11884730196E+03  0.11525485075E+03  0.16575066999E+03  0.00000000000E+00 0.  1.
         13    1    5    5    0    0 -0.41726212997E+02  0.24215126754E+02  0.10856905449E+03  0.11880525580E+03  0.00000000000E+00 0. -1.
        -13    1    5    5    0    0 -0.39587987134E+02  0.44612400115E+02  0.24378152209E+01  0.59694370860E+02  0.00000000000E+00 0.  1.
          3    1    6    6  503    0  0.11945670989E+01  0.14503874283E+03 -0.10596536341E+04  0.10695342389E+04  0.00000000000E+00 0. -1.
         -3    1    6    6    0  503  0.59571482825E+02  0.25264957283E+02 -0.27592390506E+03  0.28340974051E+03  0.00000000000E+00 0.  1.
<mgrwt>
<rscale>  0 0.17725946E+04</rscale>
<asrwt>0</asrwt>
<pdfrwt beam="1">  1        2 0.85228385E-01 0.17725946E+04</pdfrwt>
<pdfrwt beam="2">  1       -1 0.21814632E+00 0.17725946E+04</pdfrwt>
<totfact> 0.66808828E+00</totfact>
</mgrwt>
</event>
<event>
12    7  0.1497947E-008  0.1406633E+04  0.7818608E-02  0.8949032E-01
         -1   -1    0    0    0  501 -0.00000000000E+00  0.00000000000E+00  0.33757006220E+03  0.33757006220E+03  0.00000000000E+00 0.  1.
          2   -1    0    0  501    0  0.00000000000E+00 -0.00000000000E+00 -0.14653366787E+04  0.14653366787E+04  0.00000000000E+00 0. -1.
         24    2    1    2    0    0 -0.35147732414E+03 -0.18688141741E+03 -0.20950733969E+03  0.45821058353E+03  0.87193118497E+02 0.  0.
        254    2    1    2    0    0  0.35147732414E+03  0.18688141741E+03 -0.91825927679E+03  0.13446961574E+04  0.89807944115E+03 0.  0.
         23    2    4    4    0    0  0.26386708023E+03  0.12146856279E+03  0.95771801828E+02  0.31902139139E+03  0.90675037183E+02 0.  0.
         23    2    4    4    0    0  0.87610243909E+02  0.65412854625E+02 -0.10140310786E+04  0.10256747660E+04  0.10860617260E+03 0.  0.
          4    1    3    3  502    0 -0.22957023595E+02  0.66251371414E+01 -0.16316732133E+01  0.23949524671E+02  0.00000000000E+00 0. -1.
         -3    1    3    3    0  502 -0.32852030054E+03 -0.19350655456E+03 -0.20787566648E+03  0.43426105886E+03  0.00000000000E+00 0.  1.
         13    1    5    5    0    0  0.58382703498E+02  0.61129520887E+02  0.26639510551E+00  0.84530641533E+02  0.00000000000E+00 0.  1.
        -13    1    5    5    0    0  0.20548437673E+03  0.60339041903E+02  0.95505406722E+02  0.23449074986E+03  0.00000000000E+00 0. -1.
          2    1    6    6  503    0  0.10951737869E+03  0.52269326900E+02 -0.68602471757E+03  0.69667499732E+03  0.00000000000E+00 0. -1.
         -2    1    6    6    0  503 -0.21907134786E+02  0.13143527726E+02 -0.32800636105E+03  0.32899976864E+03  0.00000000000E+00 0.  1.
<mgrwt>
<rscale>  0 0.14066326E+04</rscale>
<asrwt>0</asrwt>
<pdfrwt beam="1">  1        2 0.22543641E+00 0.14066326E+04</pdfrwt>
<pdfrwt beam="2">  1       -1 0.51933856E-01 0.14066326E+04</pdfrwt>
<totfact> 0.54950584E+01</totfact>
</mgrwt>
</event>
<event>
11    7  0.1497947E-008  0.1812377E+04  0.7818608E-02  0.8699745E-01
         -1   -1    0    0    0  501 -0.00000000000E+00  0.00000000000E+00  0.15521442431E+04  0.15521442431E+04  0.00000000000E+00 0.  1.
          2   -1    0    0  501    0  0.00000000000E+00 -0.00000000000E+00 -0.52906032972E+03  0.52906032972E+03  0.00000000000E+00 0. -1.
         24    2    1    2    0    0 -0.36720763743E+03  0.41971244019E+03 -0.59792210211E+02  0.56611890192E+03  0.76912425990E+02 0.  0.
        254    2    1    2    0    0  0.36720763743E+03 -0.41971244019E+03  0.10828761236E+04  0.15150856709E+04  0.90103491035E+03 0.  0.
         23    2    4    4    0    0  0.18018697404E+03  0.96785990864E+01 -0.10466237542E+03  0.22741910787E+03  0.90577132316E+02 0.  0.
          2    1    3    3  502    0 -0.20639774842E+03  0.22209730563E+03  0.49832058549E+01  0.30323600719E+03  0.00000000000E+00 0. -1.
         -1    1    3    3    0  502 -0.16080988901E+03  0.19761513457E+03 -0.64775416065E+02  0.26288289473E+03  0.00000000000E+00 0.  1.
         13    1    5    5    0    0 -0.25736207673E+01 -0.11170536427E+02  0.58075904503E+01  0.12850389673E+02  0.00000000000E+00 0.  1.
        -13    1    5    5    0    0  0.18276059481E+03  0.20849135513E+02 -0.11046996587E+03  0.21456871819E+03  0.00000000000E+00 0. -1.
          1    1    4    4  503    0  0.17445236709E+03 -0.26481514946E+03  0.92200306954E+03  0.97501300095E+03  0.00000000000E+00 0. -1.
         -1    1    4    4    0  503  0.12568296292E+02 -0.16457588982E+03  0.26553542944E+03  0.31265356206E+03  0.00000000000E+00 0.  1.
<mgrwt>
<rscale>  0 0.18123774E+04</rscale>
<asrwt>0</asrwt>
<pdfrwt beam="1">  1        2 0.81393898E-01 0.18123774E+04</pdfrwt>
<pdfrwt beam="2">  1       -1 0.23879142E+00 0.18123774E+04</pdfrwt>
<totfact> 0.51284772E+00</totfact>
</mgrwt>
</event>
<event>
12    7  0.1497947E-008  0.1334789E+04  0.7818608E-02  0.9002423E-01
         -1   -1    0    0    0  501 -0.00000000000E+00  0.00000000000E+00  0.21889140138E+03  0.21889140138E+03  0.00000000000E+00 0.  1.
          2   -1    0    0  501    0  0.00000000000E+00 -0.00000000000E+00 -0.20348690005E+04  0.20348690005E+04  0.00000000000E+00 0. -1.
         24    2    1    2    0    0 -0.34467554346E+03  0.96562383951E+02 -0.45919568931E+03  0.58771051712E+03  0.80108967070E+02 0.  0.
        254    2    1    2    0    0  0.34467554346E+03 -0.96562383951E+02 -0.13567819098E+04  0.16660498847E+04  0.89818680875E+03 0.  0.
         23    2    4    4    0    0  0.60161135603E+03 -0.18284574216E+03 -0.70782656993E+03  0.95115322203E+03  0.91132922431E+02 0.  0.
         23    2    4    4    0    0 -0.25693581256E+03  0.86283358207E+02 -0.64895533984E+03  0.71489666268E+03  0.12834864833E+03 0.  0.
          2    1    3    3  502    0 -0.28213758073E+03  0.91654466426E+02 -0.32776460846E+03  0.44207668366E+03  0.00000000000E+00 0. -1.
         -1    1    3    3    0  502 -0.62537962733E+02  0.49079175247E+01 -0.13143108085E+03  0.14563383347E+03  0.00000000000E+00 0.  1.
         13    1    5    5    0    0  0.54747793459E+03 -0.15172956352E+03 -0.66878910376E+03  0.87751513640E+03  0.00000000000E+00 0.  1.
        -13    1    5    5    0    0  0.54133421439E+02 -0.31116178641E+02 -0.39037466172E+02  0.73638085629E+02  0.00000000000E+00 0. -1.
          3    1    6    6  503    0 -0.10442437869E+03 -0.67779747928E+01 -0.13522583387E+03  0.17098660167E+03  0.00000000000E+00 0. -1.
         -3    1    6    6    0  503 -0.15251143388E+03  0.93061333000E+02 -0.51372950597E+03  0.54391006101E+03  0.00000000000E+00 0.  1.
<mgrwt>
<rscale>  0 0.13347889E+04</rscale>
<asrwt>0</asrwt>
<pdfrwt beam="1">  1        2 0.31305677E+00 0.13347889E+04</pdfrwt>
<pdfrwt beam="2">  1       -1 0.33675600E-01 0.13347889E+04</pdfrwt>
<totfact> 0.59226259E+01</totfact>
</mgrwt>
</event>
<event>
12    7  0.1497947E-008  0.2044741E+04  0.7818608E-02  0.8585984E-01
         -1   -1    0    0    0  501 -0.00000000000E+00  0.00000000000E+00  0.16658011084E+04  0.16658011084E+04  0.00000000000E+00 0.  1.
          2   -1    0    0  501    0  0.00000000000E+00 -0.00000000000E+00 -0.62747071888E+03  0.62747071888E+03  0.00000000000E+00 0. -1.
         24    2    1    2    0    0 -0.42461210328E+03  0.64412746476E+03  0.89457374818E+02  0.78065115105E+03  0.78854096965E+02 0.  0.
        254    2    1    2    0    0  0.42461210328E+03 -0.64412746476E+03  0.94887301468E+03  0.15126206762E+04  0.89020541617E+03 0.  0.
         23    2    4    4    0    0  0.61751724883E+03 -0.35451530194E+03  0.31009317993E+03  0.78320337007E+03  0.10119825467E+03 0.  0.
         23    2    4    4    0    0 -0.19290514554E+03 -0.28961216283E+03  0.63877983474E+03  0.72941730613E+03  0.54058571714E+02 0.  0.
          4    1    3    3  502    0 -0.13088350502E+03  0.22611700358E+03 -0.39342173845E+01  0.26129460243E+03  0.00000000000E+00 0. -1.
         -1    1    3    3    0  502 -0.29372859826E+03  0.41801046118E+03  0.93391592202E+02  0.51935654862E+03  0.00000000000E+00 0.  1.
         13    1    5    5    0    0  0.36813911291E+03 -0.26004783047E+03  0.22143940804E+03  0.50218193120E+03  0.00000000000E+00 0.  1.
        -13    1    5    5    0    0  0.24937813592E+03 -0.94467471466E+02  0.88653771897E+02  0.28102143888E+03  0.00000000000E+00 0. -1.
          3    1    6    6  503    0 -0.12163226914E+02 -0.49701226912E+02  0.10889167053E+03  0.12031438798E+03  0.00000000000E+00 0. -1.
         -3    1    6    6    0  503 -0.18074191863E+03 -0.23991093592E+03  0.52988816422E+03  0.60910291815E+03  0.00000000000E+00 0.  1.
<mgrwt>
<rscale>  0 0.20447410E+04</rscale>
<asrwt>0</asrwt>
<pdfrwt beam="1">  1        2 0.96533957E-01 0.20447410E+04</pdfrwt>
<pdfrwt beam="2">  1       -1 0.25627709E+00 0.20447410E+04</pdfrwt>
<totfact> 0.31491675E+00</totfact>
</mgrwt>
</event>
<event>
11    7  0.1497947E-008  0.2748389E+04  0.7818608E-02  0.8319473E-01
          2   -1    0    0  501    0  0.00000000000E+00  0.00000000000E+00  0.35646636848E+04  0.35646636848E+04  0.00000000000E+00 0. -1.
         -1   -1    0    0    0  501 -0.00000000000E+00 -0.00000000000E+00 -0.52975851705E+03  0.52975851705E+03  0.00000000000E+00 0.  1.
         24    2    1    2    0    0 -0.12135080359E+04  0.14875864205E+03  0.14659281604E+04  0.19104929539E+04  0.79417055994E+02 0.  0.
        254    2    1    2    0    0  0.12135080359E+04 -0.14875864205E+03  0.15689770074E+04  0.21839292480E+04  0.90173567295E+03 0.  0.
         23    2    4    4    0    0  0.12382460276E+04  0.42076780854E+02  0.14604193029E+04  0.19172852664E+04  0.90191861911E+02 0.  0.
          4    1    3    3  502    0 -0.20721649776E+03  0.50212212803E+02  0.22895698876E+03  0.31285978643E+03  0.00000000000E+00 0. -1.
         -3    1    3    3    0  502 -0.10062915381E+04  0.98546429247E+02  0.12369711716E+04  0.15976331675E+04  0.00000000000E+00 0.  1.
         13    1    5    5    0    0  0.10635502876E+03 -0.10346238988E+02  0.16076705141E+03  0.19304010367E+03  0.00000000000E+00 0. -1.
        -13    1    5    5    0    0  0.11318909989E+04  0.52423019842E+02  0.12996522515E+04  0.17242451627E+04  0.00000000000E+00 0.  1.
          3    1    4    4  503    0  0.49245642500E+02 -0.24389024999E+02  0.52659399968E+02  0.76111564500E+02  0.00000000000E+00 0. -1.
         -3    1    4    4    0  503 -0.73983634298E+02 -0.16644639791E+03  0.55898304527E+02  0.19053241711E+03  0.00000000000E+00 0.  1.
<mgrwt>
<rscale>  0 0.27483893E+04</rscale>
<asrwt>0</asrwt>
<pdfrwt beam="1">  1        2 0.54840978E+00 0.27483893E+04</pdfrwt>
<pdfrwt beam="2">  1       -1 0.81501313E-01 0.27483893E+04</pdfrwt>
<totfact> 0.10897376E+00</totfact>
</mgrwt>
</event>
<event>
11    7  0.1497947E-008  0.1454900E+04  0.7818608E-02  0.8915010E-01
         -1   -1    0    0    0  501 -0.00000000000E+00  0.00000000000E+00  0.38120221992E+03  0.38120221992E+03  0.00000000000E+00 0.  1.
          2   -1    0    0  501    0  0.00000000000E+00 -0.00000000000E+00 -0.13881965325E+04  0.13881965325E+04  0.00000000000E+00 0. -1.
         24    2    1    2    0    0  0.25702447899E+03 -0.36139407491E+03 -0.23644855563E+03  0.50875362111E+03  0.79088983707E+02 0.  0.
        254    2    1    2    0    0 -0.25702447899E+03  0.36139407491E+03 -0.77054575694E+03  0.12606451313E+04  0.89376625768E+03 0.  0.
         23    2    4    4    0    0  0.26662312700E+03  0.49096010658E+02 -0.31198518680E+02  0.28937156638E+03  0.96250951946E+02 0.  0.
          4    1    3    3  502    0  0.90717843492E+02 -0.98304890847E+02 -0.35929493802E+02  0.13850814856E+03  0.00000000000E+00 0. -1.
         -3    1    3    3    0  502  0.16630663550E+03 -0.26308918407E+03 -0.20051906183E+03  0.37024547255E+03  0.00000000000E+00 0.  1.
         13    1    5    5    0    0  0.27238371722E+03  0.42001276981E+02 -0.22119031212E+02  0.27648914665E+03  0.00000000000E+00 0. -1.
        -13    1    5    5    0    0 -0.57605902163E+01  0.70947336776E+01 -0.90794874676E+01  0.12882419737E+02  0.00000000000E+00 0.  1.
          3    1    4    4  503    0 -0.45404928113E+03  0.30804572765E+03 -0.70555061102E+03  0.89378665504E+03  0.00000000000E+00 0. -1.
         -3    1    4    4    0  503 -0.69598324864E+02  0.42523366016E+01 -0.33796627235E+02  0.77486909881E+02  0.00000000000E+00 0.  1.
<mgrwt>
<rscale>  0 0.14549001E+04</rscale>
<asrwt>0</asrwt>
<pdfrwt beam="1">  1        2 0.21356870E+00 0.14549001E+04</pdfrwt>
<pdfrwt beam="2">  1       -1 0.58646495E-01 0.14549001E+04</pdfrwt>
<totfact> 0.47847452E+01</totfact>
</mgrwt>
</event>
<event>
11    7  0.1497947E-008  0.2453895E+04  0.7818608E-02  0.8419597E-01
         -1   -1    0    0    0  501 -0.00000000000E+00  0.00000000000E+00  0.77344977806E+03  0.77344977806E+03  0.00000000000E+00 0.  1.
          2   -1    0    0  501    0  0.00000000000E+00 -0.00000000000E+00 -0.19463453546E+04  0.19463453546E+04  0.00000000000E+00 0. -1.
         24    2    1    2    0    0  0.40093222469E+03 -0.60391298434E+03  0.34829893419E+03  0.80763016665E+03  0.74140387656E+02 0.  0.
        254    2    1    2    0    0 -0.40093222469E+03  0.60391298434E+03 -0.15211945107E+04  0.19121649660E+04  0.90381667183E+03 0.  0.
         23    2    4    4    0    0  0.11258170515E+03 -0.40228737357E+02  0.13858579828E+02  0.15121374148E+03  0.91545309728E+02 0.  0.
          4    1    3    3  502    0  0.97339169136E+02 -0.13497034762E+03  0.46994015250E+02  0.17291716530E+03  0.00000000000E+00 0. -1.
         -3    1    3    3    0  502  0.30359305556E+03 -0.46894263672E+03  0.30130491894E+03  0.63471300136E+03  0.00000000000E+00 0.  1.
         13    1    5    5    0    0  0.93474260782E+02  0.11967531815E+02  0.13838888823E+01  0.94247410547E+02  0.00000000000E+00 0. -1.
        -13    1    5    5    0    0  0.19107444372E+02 -0.52196269172E+02  0.12474690946E+02  0.56966330934E+02  0.00000000000E+00 0.  1.
          3    1    4    4  503    0 -0.14319524301E+02  0.26834330376E+01  0.82116393228E+01  0.16723654189E+02  0.00000000000E+00 0. -1.
         -3    1    4    4    0  503 -0.49919440554E+03  0.64145828866E+03 -0.15432647298E+04  0.17442275703E+04  0.00000000000E+00 0.  1.
<mgrwt>
<rscale>  0 0.24538952E+04</rscale>
<asrwt>0</asrwt>
<pdfrwt beam="1">  1        2 0.29943775E+00 0.24538952E+04</pdfrwt>
<pdfrwt beam="2">  1       -1 0.11899227E+00 0.24538952E+04</pdfrwt>
<totfact> 0.46079286E+00</totfact>
</mgrwt>
</event>
<event>
11    7  0.1497947E-008  0.1567253E+04  0.7818608E-02  0.8840922E-01
         -1   -1    0    0    0  501 -0.00000000000E+00  0.00000000000E+00  0.40226157022E+03  0.40226157022E+03  0.00000000000E+00 0.  1.
          2   -1    0    0  501    0  0.00000000000E+00 -0.00000000000E+00 -0.15265456797E+04  0.15265456797E+04  0.00000000000E+00 0. -1.
         24    2    1    2    0    0 -0.15846972531E+03  0.46631080191E+03 -0.51657235751E+03  0.71799638561E+03  0.78188179343E+02 0.  0.
        254    2    1    2    0    0  0.15846972531E+03 -0.46631080191E+03 -0.60771175191E+03  0.12108108643E+04  0.92422451699E+03 0.  0.
         23    2    4    4    0    0 -0.25203843639E+03  0.10725253036E+03 -0.33287260446E+03  0.44057190455E+03  0.90955778233E+02 0.  0.
          2    1    3    3  502    0 -0.92382885241E+02  0.25095815294E+03 -0.33510546742E+03  0.42873099527E+03  0.00000000000E+00 0. -1.
         -1    1    3    3    0  502 -0.66086840066E+02  0.21535264897E+03 -0.18146689009E+03  0.28926539034E+03  0.00000000000E+00 0.  1.
         13    1    5    5    0    0 -0.21589900317E+03  0.12359227175E+03 -0.28154247369E+03  0.37570413053E+03  0.00000000000E+00 0. -1.
        -13    1    5    5    0    0 -0.36139433220E+02 -0.16339741383E+02 -0.51330130768E+02  0.64867774022E+02  0.00000000000E+00 0.  1.
          2    1    4    4  503    0  0.20913662610E+03 -0.40146526171E+03 -0.20067689764E+03  0.49516027909E+03  0.00000000000E+00 0. -1.
         -2    1    4    4    0  503  0.20137153560E+03 -0.17209807055E+03 -0.74162249819E+02  0.27507868063E+03  0.00000000000E+00 0.  1.
<mgrwt>
<rscale>  0 0.15672532E+04</rscale>
<asrwt>0</asrwt>
<pdfrwt beam="1">  1        2 0.23485318E+00 0.15672532E+04</pdfrwt>
<pdfrwt beam="2">  1       -1 0.61886396E-01 0.15672532E+04</pdfrwt>
<totfact> 0.35573339E+01</totfact>
</mgrwt>
</event>
<event>
12    7  0.1497947E-008  0.1734788E+04  0.7818608E-02  0.8741768E-01
          2   -1    0    0  501    0  0.00000000000E+00  0.00000000000E+00  0.16213487017E+04  0.16213487017E+04  0.00000000000E+00 0. -1.
         -1   -1    0    0    0  501 -0.00000000000E+00 -0.00000000000E+00 -0.46404116205E+03  0.46404116205E+03  0.00000000000E+00 0.  1.
         24    2    1    2    0    0  0.16757153875E+03  0.19396284703E+03 -0.26921101020E+03  0.38159630750E+03  0.86251766675E+02 0.  0.
        254    2    1    2    0    0 -0.16757153875E+03 -0.19396284703E+03  0.14265185499E+04  0.17037935563E+04  0.89568716788E+03 0.  0.
         23    2    4    4    0    0  0.35227188852E+03 -0.15528840984E+02  0.46965508912E+03  0.59444365173E+03  0.91927819542E+02 0.  0.
         23    2    4    4    0    0 -0.51984342727E+03 -0.17843400605E+03  0.95686346076E+03  0.11093499046E+04  0.11398966988E+03 0.  0.
          4    1    3    3  502    0  0.13739414839E+03  0.12724304379E+03 -0.14276736787E+03  0.23547922527E+03  0.00000000000E+00 0. -1.
         -3    1    3    3    0  502  0.30177390362E+02  0.66719803241E+02 -0.12644364232E+03  0.14611708222E+03  0.00000000000E+00 0.  1.
         13    1    5    5    0    0  0.19394594142E+03 -0.34233315942E+02  0.32019044001E+03  0.37591071544E+03  0.00000000000E+00 0. -1.
        -13    1    5    5    0    0  0.15832594710E+03  0.18704474958E+02  0.14946464911E+03  0.21853293629E+03  0.00000000000E+00 0.  1.
          1    1    6    6  503    0 -0.15715437084E+03 -0.38596047431E+02  0.18983490741E+03  0.24944827765E+03  0.00000000000E+00 0. -1.
         -1    1    6    6    0  503 -0.36268905643E+03 -0.13983795862E+03  0.76702855335E+03  0.85990162692E+03  0.00000000000E+00 0.  1.
<mgrwt>
<rscale>  0 0.17347882E+04</rscale>
<asrwt>0</asrwt>
<pdfrwt beam="1">  1        2 0.24943826E+00 0.17347882E+04</pdfrwt>
<pdfrwt beam="2">  1       -1 0.71390949E-01 0.17347882E+04</pdfrwt>
<totfact> 0.23237109E+01</totfact>
</mgrwt>
</event>
<event>
12    7  0.1497947E-008  0.1569134E+04  0.7818608E-02  0.8839738E-01
         -1   -1    0    0    0  501 -0.00000000000E+00  0.00000000000E+00  0.77152134340E+03  0.77152134340E+03  0.00000000000E+00 0.  1.
          2   -1    0    0  501    0  0.00000000000E+00 -0.00000000000E+00 -0.79783297326E+03  0.79783297326E+03  0.00000000000E+00 0. -1.
         24    2    1    2    0    0  0.70319615780E+02  0.51742865696E+03 -0.57627631068E+01  0.52828037679E+03  0.79810297969E+02 0.  0.
        254    2    1    2    0    0 -0.70319615780E+02 -0.51742865696E+03 -0.20548866757E+02  0.10410739399E+04  0.90040847894E+03 0.  0.
         23    2    4    4    0    0  0.16370173920E+03 -0.19760301266E+03 -0.40272323526E+03  0.48604628681E+03  0.90607828968E+02 0.  0.
         23    2    4    4    0    0 -0.23402135498E+03 -0.31982564430E+03  0.38217436851E+03  0.55502765307E+03  0.70313657189E+02 0.  0.
          4    1    3    3  502    0  0.67032982946E+01  0.27911005249E+03  0.22018864308E+02  0.28005746909E+03  0.00000000000E+00 0. -1.
         -3    1    3    3    0  502  0.63616317485E+02  0.23831860447E+03 -0.27781627415E+02  0.24822290770E+03  0.00000000000E+00 0.  1.
         13    1    5    5    0    0  0.15100611336E+03 -0.13306667245E+03 -0.34030874097E+03  0.39537276685E+03  0.00000000000E+00 0. -1.
        -13    1    5    5    0    0  0.12695625839E+02 -0.64536340209E+02 -0.62414494292E+02  0.90673519954E+02  0.00000000000E+00 0.  1.
          3    1    6    6  503    0 -0.22467116075E+03 -0.31120423600E+03  0.38306697978E+03  0.54227808178E+03  0.00000000000E+00 0. -1.
         -3    1    6    6    0  503 -0.93501942296E+01 -0.86214082975E+01 -0.89261127420E+00  0.12749571289E+02  0.00000000000E+00 0.  1.
<mgrwt>
<rscale>  0 0.15691337E+04</rscale>
<asrwt>0</asrwt>
<pdfrwt beam="1">  1        2 0.12274353E+00 0.15691337E+04</pdfrwt>
<pdfrwt beam="2">  1       -1 0.11869559E+00 0.15691337E+04</pdfrwt>
<totfact> 0.24129855E+01</totfact>
</mgrwt>
</event>
<event>
12    7  0.1497947E-008  0.1192092E+04  0.7818608E-02  0.9119807E-01
         -3   -1    0    0    0  501 -0.00000000000E+00  0.00000000000E+00  0.23098746159E+04  0.23098746159E+04  0.00000000000E+00 0.  1.
          4   -1    0    0  501    0  0.00000000000E+00 -0.00000000000E+00 -0.15380519685E+03  0.15380519685E+03  0.00000000000E+00 0. -1.
         24    2    1    2    0    0 -0.14493961103E+03  0.16202560041E+01  0.60778072228E+02  0.17609806997E+03  0.79413097844E+02 0.  0.
        254    2    1    2    0    0  0.14493961103E+03 -0.16202560041E+01  0.20952913468E+04  0.22875817427E+04  0.90651766985E+03 0.  0.
         23    2    4    4    0    0  0.51013701027E+03  0.86634620013E+02  0.12338008594E+04  0.13409924312E+04  0.90833987182E+02 0.  0.
         23    2    4    4    0    0 -0.36519739924E+03 -0.88254876017E+02  0.86149048737E+03  0.94658931154E+03  0.11272711005E+03 0.  0.
          4    1    3    3  502    0 -0.12598285421E+03  0.16940200020E+02  0.20127189483E+02  0.12870024743E+03  0.00000000000E+00 0. -1.
         -3    1    3    3    0  502 -0.18956756817E+02 -0.15319944016E+02  0.40650882745E+02  0.47397822540E+02  0.00000000000E+00 0.  1.
         13    1    5    5    0    0  0.50731867684E+03  0.74728946917E+02  0.11971547084E+04  0.13023578814E+04  0.00000000000E+00 0. -1.
        -13    1    5    5    0    0  0.28183334259E+01  0.11905673096E+02  0.36646150967E+02  0.38634549769E+02  0.00000000000E+00 0.  1.
          3    1    6    6  503    0 -0.11891686584E+03  0.59633426962E+01  0.17952723043E+03  0.21542239647E+03  0.00000000000E+00 0. -1.
         -3    1    6    6    0  503 -0.24628053340E+03 -0.94218218714E+02  0.68196325695E+03  0.73116691507E+03  0.00000000000E+00 0.  1.
<mgrwt>
<rscale>  0 0.11920918E+04</rscale>
<asrwt>0</asrwt>
<pdfrwt beam="1">  1        4 0.23662340E-01 0.11920918E+04</pdfrwt>
<pdfrwt beam="2">  1       -3 0.35536530E+00 0.11920918E+04</pdfrwt>
<totfact> 0.72623264E-01</totfact>
</mgrwt>
</event>
<event>
12    7  0.1497947E-008  0.1453821E+04  0.7818608E-02  0.8915756E-01
         -1   -1    0    0    0  501 -0.00000000000E+00  0.00000000000E+00  0.18761205365E+04  0.18761205365E+04  0.00000000000E+00 0.  1.
          2   -1    0    0  501    0  0.00000000000E+00 -0.00000000000E+00 -0.28164424631E+03  0.28164424631E+03  0.00000000000E+00 0. -1.
         24    2    1    2    0    0  0.31379825486E+03 -0.85764934594E+02  0.47286730513E+02  0.33812008212E+03  0.79146612627E+02 0.  0.
        254    2    1    2    0    0 -0.31379825486E+03  0.85764934594E+02  0.15471895597E+04  0.18196447007E+04  0.90082536287E+03 0.  0.
         23    2    4    4    0    0 -0.45549916952E+03  0.56068465182E+02  0.29269543150E+03  0.55233419769E+03  0.93697834015E+02 0.  0.
         23    2    4    4    0    0  0.14170091465E+03  0.29696469412E+02  0.12544941282E+04  0.12673105030E+04  0.10658031649E+03 0.  0.
          2    1    3    3  502    0  0.21568140689E+03 -0.78005340606E+02  0.64391397036E+02  0.23822164984E+03  0.00000000000E+00 0. -1.
         -1    1    3    3    0  502  0.98116847977E+02 -0.77595939880E+01 -0.17104666523E+02  0.99898432283E+02  0.00000000000E+00 0.  1.
         13    1    5    5    0    0 -0.38087868628E+02 -0.18795062730E+02  0.13337654912E+02  0.44517784741E+02  0.00000000000E+00 0. -1.
        -13    1    5    5    0    0 -0.41741130089E+03  0.74863527912E+02  0.27935777659E+03  0.50781641295E+03  0.00000000000E+00 0.  1.
          4    1    6    6  503    0 -0.72138962027E+01  0.28336352868E+02  0.27672375439E+03  0.27826430859E+03  0.00000000000E+00 0. -1.
         -4    1    6    6    0  503  0.14891481086E+03  0.13601165439E+01  0.97777037377E+03  0.98904619439E+03  0.00000000000E+00 0.  1.
<mgrwt>
<rscale>  0 0.14538206E+04</rscale>
<asrwt>0</asrwt>
<pdfrwt beam="1">  1        2 0.43329885E-01 0.14538206E+04</pdfrwt>
<pdfrwt beam="2">  1       -1 0.28863392E+00 0.14538206E+04</pdfrwt>
<totfact> 0.51313381E+00</totfact>
</mgrwt>
</event>
<event>
11    7  0.1497947E-008  0.2568139E+04  0.7818608E-02  0.8379105E-01
         -1   -1    0    0    0  501 -0.00000000000E+00  0.00000000000E+00  0.48251098154E+03  0.48251098154E+03  0.00000000000E+00 0.  1.
          2   -1    0    0  501    0  0.00000000000E+00 -0.00000000000E+00 -0.34171963230E+04  0.34171963230E+04  0.00000000000E+00 0. -1.
         24    2    1    2    0    0  0.25816587595E+03  0.27108822697E+03  0.32030152506E+03  0.49914638341E+03  0.80097433250E+02 0.  0.
        254    2    1    2    0    0 -0.25816587595E+03 -0.27108822697E+03 -0.32549868665E+04  0.34005609211E+04  0.91034972989E+03 0.  0.
         23    2    4    4    0    0 -0.48801929954E+03 -0.10275685679E+03 -0.28177300098E+04  0.28630524611E+04  0.93515658788E+02 0.  0.
          4    1    3    3  502    0  0.17474757530E+01  0.32549177572E+02  0.26192827777E+02  0.41815868508E+02  0.00000000000E+00 0. -1.
         -3    1    3    3    0  502  0.25641840019E+03  0.23853904940E+03  0.29410869729E+03  0.45733051491E+03  0.00000000000E+00 0.  1.
         13    1    5    5    0    0 -0.46348616481E+02 -0.27719432901E+02 -0.45791193358E+03  0.46108556704E+03  0.00000000000E+00 0.  1.
        -13    1    5    5    0    0 -0.44167068306E+03 -0.75037423887E+02 -0.23598180762E+04  0.24019668940E+04  0.00000000000E+00 0. -1.
          2    1    4    4  503    0  0.14174725430E+03 -0.17212025765E+03 -0.33572974938E+03  0.40302869850E+03  0.00000000000E+00 0. -1.
         -2    1    4    4    0  503  0.88106169291E+02  0.37888874649E+01 -0.10152710729E+03  0.13447976149E+03  0.00000000000E+00 0.  1.
<mgrwt>
<rscale>  0 0.25681392E+04</rscale>
<asrwt>0</asrwt>
<pdfrwt beam="1">  1        2 0.52572251E+00 0.25681392E+04</pdfrwt>
<pdfrwt beam="2">  1       -1 0.74232459E-01 0.25681392E+04</pdfrwt>
<totfact> 0.17105742E+00</totfact>
</mgrwt>
</event>
<event>
12    7  0.1497947E-008  0.1352248E+04  0.7818608E-02  0.8989128E-01
         -1   -1    0    0    0  501 -0.00000000000E+00  0.00000000000E+00  0.40211216723E+03  0.40211216723E+03  0.00000000000E+00 0.  1.
          2   -1    0    0  501    0  0.00000000000E+00 -0.00000000000E+00 -0.11368553902E+04  0.11368553902E+04  0.00000000000E+00 0. -1.
         24    2    1    2    0    0 -0.15943607649E+03 -0.28911762635E+03 -0.12157669248E+02  0.34004245016E+03  0.80449951132E+02 0.  0.
        254    2    1    2    0    0  0.15943607649E+03  0.28911762635E+03 -0.72258555375E+03  0.11989251073E+04  0.89793243958E+03 0.  0.
         23    2    4    4    0    0 -0.27092480796E+03  0.12469150764E+03 -0.64974842705E+03  0.72077637502E+03  0.91637005007E+02 0.  0.
         23    2    4    4    0    0  0.43036088445E+03  0.16442611871E+03 -0.72837126694E+02  0.47814873227E+03  0.10523556323E+03 0.  0.
          2    1    3    3  502    0 -0.96545031423E+00  0.34346506565E+01 -0.63410680125E+01  0.72758547938E+01  0.00000000000E+00 0. -1.
         -1    1    3    3    0  502 -0.15847062618E+03 -0.29255227701E+03 -0.58166012356E+01  0.33276659537E+03  0.00000000000E+00 0.  1.
         13    1    5    5    0    0 -0.23354546167E+03  0.69820099695E+02 -0.47621903692E+03  0.53497934550E+03  0.00000000000E+00 0.  1.
        -13    1    5    5    0    0 -0.37379346291E+02  0.54871407945E+02 -0.17352939014E+03  0.18579702952E+03  0.00000000000E+00 0. -1.
          2    1    6    6  503    0  0.16812421835E+03  0.88459097366E+02 -0.77284053356E+02  0.20509409939E+03  0.00000000000E+00 0. -1.
         -2    1    6    6    0  503  0.26223666610E+03  0.75967021343E+02  0.44469266618E+01  0.27305463287E+03  0.00000000000E+00 0.  1.
<mgrwt>
<rscale>  0 0.13522476E+04</rscale>
<asrwt>0</asrwt>
<pdfrwt beam="1">  1        2 0.17490083E+00 0.13522476E+04</pdfrwt>
<pdfrwt beam="2">  1       -1 0.61863410E-01 0.13522476E+04</pdfrwt>
<totfact> 0.61040154E+01</totfact>
</mgrwt>
</event>
<event>
12    7  0.1497947E-008  0.1492498E+04  0.7818608E-02  0.8889457E-01
          2   -1    0    0  501    0  0.00000000000E+00  0.00000000000E+00  0.12686721301E+04  0.12686721301E+04  0.00000000000E+00 0. -1.
         -1   -1    0    0    0  501 -0.00000000000E+00 -0.00000000000E+00 -0.43895319147E+03  0.43895319147E+03  0.00000000000E+00 0.  1.
         24    2    1    2    0    0  0.44602062375E+03 -0.80985269316E+02  0.13216771519E+03  0.47938875991E+03  0.82778424315E+02 0.  0.
        254    2    1    2    0    0 -0.44602062375E+03  0.80985269316E+02  0.69755122342E+03  0.12282365616E+04  0.90360075884E+03 0.  0.
         23    2    4    4    0    0 -0.53141258926E+03 -0.24766765678E+03  0.62392413462E+03  0.86099285513E+03  0.91042641617E+02 0.  0.
         23    2    4    4    0    0  0.85391965503E+02  0.32865292610E+03  0.73627088803E+02  0.36724370650E+03  0.11892206757E+03 0.  0.
          4    1    3    3  502    0  0.32333981044E+03 -0.26324637740E+02  0.11400807087E+03  0.34385965130E+03  0.00000000000E+00 0. -1.
         -3    1    3    3    0  502  0.12268081331E+03 -0.54660631576E+02  0.18159644313E+02  0.13552910861E+03  0.00000000000E+00 0.  1.
         13    1    5    5    0    0 -0.20977961460E+03 -0.14751596568E+03  0.27002901708E+03  0.37240316446E+03  0.00000000000E+00 0. -1.
        -13    1    5    5    0    0 -0.32163297466E+03 -0.10015169110E+03  0.35389511753E+03  0.48858969067E+03  0.00000000000E+00 0.  1.
          2    1    6    6  503    0  0.38136537362E+02  0.25747907740E+03  0.95715041029E+01  0.26046397922E+03  0.00000000000E+00 0.  1.
         -2    1    6    6    0  503  0.47255428141E+02  0.71173848698E+02  0.64055584700E+02  0.10677972728E+03  0.00000000000E+00 0. -1.
<mgrwt>
<rscale>  0 0.14924981E+04</rscale>
<asrwt>0</asrwt>
<pdfrwt beam="1">  1        2 0.19518033E+00 0.14924981E+04</pdfrwt>
<pdfrwt beam="2">  1       -1 0.67531261E-01 0.14924981E+04</pdfrwt>
<totfact> 0.42207983E+01</totfact>
</mgrwt>
</event>
<event>
11    7  0.1497947E-008  0.1379544E+04  0.7818608E-02  0.8968760E-01
          2   -1    0    0  501    0  0.00000000000E+00  0.00000000000E+00  0.17097573509E+04  0.17097573509E+04  0.00000000000E+00 0. -1.
         -1   -1    0    0    0  501 -0.00000000000E+00 -0.00000000000E+00 -0.27827659059E+03  0.27827659059E+03  0.00000000000E+00 0.  1.
         24    2    1    2    0    0  0.69489672789E+02 -0.38195816994E+03  0.33678916743E+03  0.52016683178E+03  0.80160659800E+02 0.  0.
        254    2    1    2    0    0 -0.69489672789E+02  0.38195816994E+03  0.10946915929E+04  0.14678671097E+04  0.89753178775E+03 0.  0.
         23    2    4    4    0    0  0.22466440245E+03  0.36982918913E+03  0.38913078261E+03  0.58909501506E+03  0.91446421120E+02 0.  0.
          4    1    3    3  502    0  0.31256393793E+02 -0.45001974258E+02  0.68729170052E+02  0.87896749974E+02  0.00000000000E+00 0. -1.
         -3    1    3    3    0  502  0.38233278996E+02 -0.33695619569E+03  0.26805999737E+03  0.43227008181E+03  0.00000000000E+00 0.  1.
         13    1    5    5    0    0  0.20487213564E+03  0.36735292735E+03  0.38110958504E+03  0.56759605443E+03  0.00000000000E+00 0. -1.
        -13    1    5    5    0    0  0.19792266808E+02  0.24762617805E+01  0.80211975694E+01  0.21498960632E+02  0.00000000000E+00 0.  1.
          4    1    4    4  503    0 -0.23629845068E+03  0.15426020314E+03  0.66140612180E+03  0.71909055482E+03  0.00000000000E+00 0. -1.
         -4    1    4    4    0  503 -0.57855624564E+02 -0.14213122233E+03  0.44154688506E+02  0.15968153986E+03  0.00000000000E+00 0.  1.
<mgrwt>
<rscale>  0 0.13795440E+04</rscale>
<asrwt>0</asrwt>
<pdfrwt beam="1">  1        2 0.26303959E+00 0.13795440E+04</pdfrwt>
<pdfrwt beam="2">  1       -1 0.42811784E-01 0.13795440E+04</pdfrwt>
<totfact> 0.57793195E+01</totfact>
</mgrwt>
</event>
<event>
12    7  0.1497947E-008  0.1117069E+04  0.7818608E-02  0.9188713E-01
         -1   -1    0    0    0  501 -0.00000000000E+00  0.00000000000E+00  0.18867080727E+03  0.18867080727E+03  0.00000000000E+00 0.  1.
          2   -1    0    0  501    0  0.00000000000E+00 -0.00000000000E+00 -0.16534656840E+04  0.16534656840E+04  0.00000000000E+00 0. -1.
         24    2    1    2    0    0 -0.82843395100E+02  0.12688756995E+03 -0.10008867413E+03  0.20376459883E+03  0.92405549231E+02 0.  0.
        254    2    1    2    0    0  0.82843395100E+02 -0.12688756995E+03 -0.13647062026E+04  0.16383718925E+04  0.89379860986E+03 0.  0.
         23    2    4    4    0    0  0.39655041638E+03  0.12436675263E+03 -0.38746650795E+03  0.57542823507E+03  0.90928747033E+02 0.  0.
         23    2    4    4    0    0 -0.31370702128E+03 -0.25125432258E+03 -0.97723969470E+03  0.10629436574E+04  0.11537316896E+03 0.  0.
          4    1    3    3  502    0 -0.70390475592E+02  0.11217570170E+03 -0.11805684104E+03  0.17741371092E+03  0.00000000000E+00 0. -1.
         -3    1    3    3    0  502 -0.12452919508E+02  0.14711868245E+02  0.17968166910E+02  0.26350887910E+02  0.00000000000E+00 0.  1.
         13    1    5    5    0    0  0.36381547480E+03  0.13902711055E+03 -0.35790657764E+03  0.52894929387E+03  0.00000000000E+00 0.  1.
        -13    1    5    5    0    0  0.32734941587E+02 -0.14660357916E+02 -0.29559930310E+02  0.46478941197E+02  0.00000000000E+00 0. -1.
          1    1    6    6  503    0 -0.25787730733E+02 -0.25860198395E+02 -0.28958637815E+02  0.46608578840E+02  0.00000000000E+00 0. -1.
         -1    1    6    6    0  503 -0.28791929055E+03 -0.22539412418E+03 -0.94828105688E+03  0.10163350786E+04  0.00000000000E+00 0.  1.
<mgrwt>
<rscale>  0 0.11170689E+04</rscale>
<asrwt>0</asrwt>
<pdfrwt beam="1">  1        2 0.25437934E+00 0.11170689E+04</pdfrwt>
<pdfrwt beam="2">  1       -1 0.29026278E-01 0.11170689E+04</pdfrwt>
<totfact> 0.12716033E+02</totfact>
</mgrwt>
</event>
<event>
12    7  0.1497947E-008  0.1805566E+04  0.7818608E-02  0.8703345E-01
         -1   -1    0    0    0  501 -0.00000000000E+00  0.00000000000E+00  0.28783958826E+03  0.28783958826E+03  0.00000000000E+00 0.  1.
          2   -1    0    0  501    0  0.00000000000E+00 -0.00000000000E+00 -0.28314981971E+04  0.28314981971E+04  0.00000000000E+00 0. -1.
         24    2    1    2    0    0 -0.52837698233E+03 -0.39758543067E+03 -0.12093292513E+04  0.13809553050E+04  0.85462894186E+02 0.  0.
        254    2    1    2    0    0  0.52837698233E+03  0.39758543067E+03 -0.13343293576E+04  0.17383824804E+04  0.89681793216E+03 0.  0.
         23    2    4    4    0    0  0.43170223227E+03 -0.14674326721E+03 -0.95925125225E+03  0.10658607212E+04  0.89418724765E+02 0.  0.
         23    2    4    4    0    0  0.96674750061E+02  0.54432869788E+03 -0.37507810532E+03  0.67252175912E+03  0.77215236632E+02 0.  0.
          2    1    3    3  502    0 -0.32331662112E+02 -0.36038460209E+02 -0.13790246443E+03  0.14615470120E+03  0.00000000000E+00 0. -1.
         -1    1    3    3    0  502 -0.49604532022E+03 -0.36154697046E+03 -0.10714267869E+04  0.12348006038E+04  0.00000000000E+00 0.  1.
         13    1    5    5    0    0  0.41153809887E+03 -0.15569642644E+03 -0.93314524953E+03  0.10316806874E+04  0.00000000000E+00 0. -1.
        -13    1    5    5    0    0  0.20164133400E+02  0.89531592333E+01 -0.26106002721E+02  0.34180033852E+02  0.00000000000E+00 0.  1.
          1    1    6    6  503    0  0.69198290900E+02  0.44200123796E+03 -0.26616199623E+03  0.52057247916E+03  0.00000000000E+00 0. -1.
         -1    1    6    6    0  503  0.27476459161E+02  0.10232745992E+03 -0.10891610909E+03  0.15194927996E+03  0.00000000000E+00 0.  1.
<mgrwt>
<rscale>  0 0.18055661E+04</rscale>
<asrwt>0</asrwt>
<pdfrwt beam="1">  1        2 0.43561510E+00 0.18055661E+04</pdfrwt>
<pdfrwt beam="2">  1       -1 0.44283014E-01 0.18055661E+04</pdfrwt>
<totfact> 0.12030228E+01</totfact>
</mgrwt>
</event>
<event>
11    7  0.1497947E-008  0.2555884E+04  0.7818608E-02  0.8383343E-01
          2   -1    0    0  501    0  0.00000000000E+00  0.00000000000E+00  0.95095446888E+03  0.95095446888E+03  0.00000000000E+00 0. -1.
         -1   -1    0    0    0  501 -0.00000000000E+00 -0.00000000000E+00 -0.17173653372E+04  0.17173653372E+04  0.00000000000E+00 0.  1.
         24    2    1    2    0    0  0.29674518722E+03 -0.10404718951E+04 -0.61073640667E+03  0.12449798369E+04  0.79601287916E+02 0.  0.
        254    2    1    2    0    0 -0.29674518722E+03  0.10404718951E+04 -0.15567446169E+03  0.14233399693E+04  0.91160444236E+03 0.  0.
         23    2    4    4    0    0 -0.37938131254E+03  0.63488767289E+03  0.28942059701E+03  0.79954625483E+03  0.92181311276E+02 0.  0.
          2    1    3    3  502    0  0.77043653670E+02 -0.40769923174E+03 -0.24341213754E+03  0.48104454766E+03  0.00000000000E+00 0. -1.
         -1    1    3    3    0  502  0.21970153355E+03 -0.63277266341E+03 -0.36732426913E+03  0.76393528921E+03  0.00000000000E+00 0.  1.
         13    1    5    5    0    0 -0.35714009519E+03  0.62727170079E+03  0.28027330603E+03  0.77432032149E+03  0.00000000000E+00 0. -1.
        -13    1    5    5    0    0 -0.22241217357E+02  0.76159720959E+01  0.91472909802E+01  0.25225933338E+02  0.00000000000E+00 0.  1.
          3    1    4    4  503    0  0.84086643086E+02  0.38864793635E+03 -0.35799257092E+03  0.53504809392E+03  0.00000000000E+00 0. -1.
         -3    1    4    4    0  503 -0.14505177607E+01  0.16936285906E+02 -0.87102487774E+02  0.88745620503E+02  0.00000000000E+00 0.  1.
<mgrwt>
<rscale>  0 0.25558844E+04</rscale>
<asrwt>0</asrwt>
<pdfrwt beam="1">  1        2 0.14630069E+00 0.25558844E+04</pdfrwt>
<pdfrwt beam="2">  1       -1 0.26421005E+00 0.25558844E+04</pdfrwt>
<totfact> 0.15459915E+00</totfact>
</mgrwt>
</event>
<event>
12    7  0.1497947E-008  0.2601076E+04  0.7818608E-02  0.8367836E-01
         -1   -1    0    0    0  501 -0.00000000000E+00  0.00000000000E+00  0.97984448241E+03  0.97984448241E+03  0.00000000000E+00 0.  1.
          2   -1    0    0  501    0  0.00000000000E+00 -0.00000000000E+00 -0.17261918633E+04  0.17261918633E+04  0.00000000000E+00 0. -1.
         24    2    1    2    0    0  0.60034647708E+03  0.57096894175E+03 -0.11358364891E+04  0.14081261124E+04  0.79203494947E+02 0.  0.
        254    2    1    2    0    0 -0.60034647708E+03 -0.57096894175E+03  0.38948910821E+03  0.12979102333E+04  0.92002596875E+03 0.  0.
         23    2    4    4    0    0 -0.54745245734E+02  0.67990833747E+02  0.43184844009E+03  0.44987689076E+03  0.90974426227E+02 0.  0.
         23    2    4    4    0    0 -0.54560123135E+03 -0.63895977550E+03 -0.42359331874E+02  0.84803334249E+03  0.10684539592E+03 0.  0.
          2    1    3    3  502    0  0.45553110040E+03  0.45799060947E+03 -0.92904839011E+03  0.11315453561E+04  0.00000000000E+00 0. -1.
         -1    1    3    3    0  502  0.14481537668E+03  0.11297833228E+03 -0.20678809898E+03  0.27658075633E+03  0.00000000000E+00 0.  1.
         13    1    5    5    0    0 -0.38319107935E+02  0.72708311893E+02  0.42245471939E+03  0.43037523463E+03  0.00000000000E+00 0. -1.
        -13    1    5    5    0    0 -0.16426137800E+02 -0.47174781454E+01  0.93937207003E+01  0.19501656126E+02  0.00000000000E+00 0.  1.
          3    1    6    6  503    0 -0.10762570556E+03 -0.10435957392E+03 -0.46368587478E+02  0.15692118745E+03  0.00000000000E+00 0. -1.
         -3    1    6    6    0  503 -0.43797552578E+03 -0.53460020158E+03  0.40092556034E+01  0.69111215504E+03  0.00000000000E+00 0.  1.
<mgrwt>
<rscale>  0 0.26010764E+04</rscale>
<asrwt>0</asrwt>
<pdfrwt beam="1">  1        2 0.26556797E+00 0.26010764E+04</pdfrwt>
<pdfrwt beam="2">  1       -1 0.15074531E+00 0.26010764E+04</pdfrwt>
<totfact> 0.32872157E+00</totfact>
</mgrwt>
</event>
<event>
11    7  0.1497947E-008  0.1095649E+04  0.7818608E-02  0.9209443E-01
          2   -1    0    0  501    0  0.00000000000E+00  0.00000000000E+00  0.13029051191E+04  0.13029051191E+04  0.00000000000E+00 0. -1.
         -1   -1    0    0    0  501 -0.00000000000E+00 -0.00000000000E+00 -0.23034055897E+03  0.23034055897E+03  0.00000000000E+00 0.  1.
         24    2    1    2    0    0 -0.10345721807E+03  0.25181401829E+02  0.38348854055E+03  0.40605354368E+03  0.80489257892E+02 0.  0.
        254    2    1    2    0    0  0.10345721807E+03 -0.25181401829E+02  0.68907601963E+03  0.11271921344E+04  0.88566294273E+03 0.  0.
         23    2    4    4    0    0  0.45390780288E+03  0.71560838155E+02  0.48117265775E+03  0.67160762818E+03  0.91522852890E+02 0.  0.
          2    1    3    3  502    0 -0.97443954021E+02  0.15032055184E+02  0.38156859474E+03  0.39410135670E+03  0.00000000000E+00 0. -1.
         -1    1    3    3    0  502 -0.60132640453E+01  0.10149346645E+02  0.19199458077E+01  0.11952186984E+02  0.00000000000E+00 0.  1.
         13    1    5    5    0    0  0.28067492015E+03  0.33416123404E+02  0.35570754192E+03  0.45433787370E+03  0.00000000000E+00 0. -1.
        -13    1    5    5    0    0  0.17323288273E+03  0.38144714751E+02  0.12546511583E+03  0.21726975448E+03  0.00000000000E+00 0.  1.
          4    1    4    4  503    0 -0.94926448912E+02 -0.28846769496E+02  0.15793762733E+03  0.18651396983E+03  0.00000000000E+00 0. -1.
         -4    1    4    4    0  503 -0.25552413590E+03 -0.67895470489E+02  0.49965734546E+02  0.26907053642E+03  0.00000000000E+00 0.  1.
<mgrwt>
<rscale>  0 0.10956494E+04</rscale>
<asrwt>0</asrwt>
<pdfrwt beam="1">  1        2 0.20044694E+00 0.10956494E+04</pdfrwt>
<pdfrwt beam="2">  1       -1 0.35437010E-01 0.10956494E+04</pdfrwt>
<totfact> 0.14130121E+02</totfact>
</mgrwt>
</event>
<event>
11    7  0.1497947E-008  0.1659361E+04  0.7818608E-02  0.8784888E-01
         -1   -1    0    0    0  501 -0.00000000000E+00  0.00000000000E+00  0.74249637567E+03  0.74249637567E+03  0.00000000000E+00 0.  1.
          2   -1    0    0  501    0  0.00000000000E+00 -0.00000000000E+00 -0.92710151906E+03  0.92710151906E+03  0.00000000000E+00 0. -1.
         24    2    1    2    0    0  0.23907496495E+03  0.23068841100E+03  0.41315365377E+03  0.53616368386E+03  0.80009827072E+02 0.  0.
        254    2    1    2    0    0 -0.23907496495E+03 -0.23068841100E+03 -0.59775879715E+03  0.11334342109E+04  0.90387142281E+03 0.  0.
         23    2    4    4    0    0  0.26796486587E+03  0.13742504445E+03 -0.14556599194E+03  0.34705093364E+03  0.92542316513E+02 0.  0.
          2    1    3    3  502    0  0.93950407088E+02  0.66140899664E+02  0.91854363703E+02  0.14710037978E+03  0.00000000000E+00 0. -1.
         -1    1    3    3    0  502  0.14512455787E+03  0.16454751133E+03  0.32129929006E+03  0.38906330407E+03  0.00000000000E+00 0.  1.
         13    1    5    5    0    0  0.61068393486E+01  0.58930438583E+01  0.11721083981E+02  0.14470841801E+02  0.00000000000E+00 0. -1.
        -13    1    5    5    0    0  0.26185802652E+03  0.13153200060E+03 -0.15728707592E+03  0.33258009184E+03  0.00000000000E+00 0.  1.
          1    1    4    4  503    0 -0.21203916439E+03 -0.17117481100E+03 -0.28479232132E+03  0.39416759055E+03  0.00000000000E+00 0. -1.
         -1    1    4    4    0  503 -0.29500066644E+03 -0.19693864445E+03 -0.16740048389E+03  0.39221568669E+03  0.00000000000E+00 0.  1.
<mgrwt>
<rscale>  0 0.16593607E+04</rscale>
<asrwt>0</asrwt>
<pdfrwt beam="1">  1        2 0.14263100E+00 0.16593607E+04</pdfrwt>
<pdfrwt beam="2">  1       -1 0.11423021E+00 0.16593607E+04</pdfrwt>
<totfact> 0.21369148E+01</totfact>
</mgrwt>
</event>
<event>
12    7  0.1497947E-008  0.1070941E+04  0.7818608E-02  0.9233987E-01
          2   -1    0    0  501    0  0.00000000000E+00  0.00000000000E+00  0.12204611309E+04  0.12204611309E+04  0.00000000000E+00 0. -1.
         -1   -1    0    0    0  501 -0.00000000000E+00 -0.00000000000E+00 -0.23493457617E+03  0.23493457617E+03  0.00000000000E+00 0.  1.
         24    2    1    2    0    0 -0.72091921619E+02 -0.16802972155E+03  0.45959509374E+03  0.50005638650E+03  0.73467727642E+02 0.  0.
        254    2    1    2    0    0  0.72091921619E+02  0.16802972155E+03  0.52593146099E+03  0.95533932056E+03  0.77629767697E+03 0.  0.
         23    2    4    4    0    0 -0.25843573658E+03  0.29681143430E+03  0.38213643809E+03  0.55629380238E+03  0.92457989263E+02 0.  0.
         23    2    4    4    0    0  0.33052765820E+03 -0.12878171275E+03  0.14379502290E+03  0.39904551818E+03  0.11281424821E+03 0.  0.
          4    1    3    3  502    0 -0.66080470135E+02 -0.17004422705E+03  0.39434844975E+03  0.43450243671E+03  0.00000000000E+00 0. -1.
         -3    1    3    3    0  502 -0.60114514845E+01  0.20145055017E+01  0.65246643995E+02  0.65553949797E+02  0.00000000000E+00 0.  1.
         13    1    5    5    0    0 -0.83464398269E+02  0.76016309188E+02  0.16809834728E+03  0.20248910934E+03  0.00000000000E+00 0.  1.
        -13    1    5    5    0    0 -0.17497133831E+03  0.22079512511E+03  0.21403809080E+03  0.35380469304E+03  0.00000000000E+00 0. -1.
          3    1    6    6  503    0  0.16401165799E+03 -0.11599610344E+03  0.10863657650E+03  0.22837868929E+03  0.00000000000E+00 0.  1.
         -3    1    6    6    0  503  0.16651600020E+03 -0.12785609311E+02  0.35158446406E+02  0.17066682889E+03  0.00000000000E+00 0. -1.
<mgrwt>
<rscale>  0 0.10709407E+04</rscale>
<asrwt>0</asrwt>
<pdfrwt beam="1">  1        2 0.18776325E+00 0.10709407E+04</pdfrwt>
<pdfrwt beam="2">  1       -1 0.36143782E-01 0.10709407E+04</pdfrwt>
<totfact> 0.15272189E+02</totfact>
</mgrwt>
</event>
<event>
12    7  0.1497947E-008  0.1262500E+04  0.7818608E-02  0.9059843E-01
          2   -1    0    0  501    0  0.00000000000E+00  0.00000000000E+00  0.88236422476E+03  0.88236422476E+03  0.00000000000E+00 0. -1.
         -1   -1    0    0    0  501 -0.00000000000E+00 -0.00000000000E+00 -0.45160113771E+03  0.45160113771E+03  0.00000000000E+00 0.  1.
         24    2    1    2    0    0  0.13761090737E+03 -0.22044943324E+03  0.26524184310E+03  0.38265238440E+03  0.92384509089E+02 0.  0.
        254    2    1    2    0    0 -0.13761090737E+03  0.22044943324E+03  0.16552124395E+03  0.95131297807E+03  0.90003576907E+03 0.  0.
         23    2    4    4    0    0  0.85117192458E+02  0.52743619363E+03  0.89339830983E+02  0.54893518145E+03  0.88962650766E+02 0.  0.
         23    2    4    4    0    0 -0.22272809983E+03 -0.30698676039E+03  0.76181412970E+02  0.40237779662E+03  0.11070504065E+03 0.  0.
          2    1    3    3  502    0  0.97464769852E+02 -0.19089106800E+03  0.25248747686E+03  0.33119285495E+03  0.00000000000E+00 0. -1.
         -1    1    3    3    0  502  0.40146137517E+02 -0.29558365237E+02  0.12754366243E+02  0.51459529450E+02  0.00000000000E+00 0.  1.
         13    1    5    5    0    0  0.45063503292E+02  0.83232627866E+02  0.28185820322E+02  0.98756418210E+02  0.00000000000E+00 0.  1.
        -13    1    5    5    0    0  0.40053689167E+02  0.44420356576E+03  0.61154010662E+02  0.45017876324E+03  0.00000000000E+00 0. -1.
          3    1    6    6  503    0 -0.10395426263E+03 -0.23233088487E+03  0.56411225241E+02  0.26070357711E+03  0.00000000000E+00 0. -1.
         -3    1    6    6    0  503 -0.11877383720E+03 -0.74655875519E+02  0.19770187729E+02  0.14167421951E+03  0.00000000000E+00 0.  1.
<mgrwt>
<rscale>  0 0.12625002E+04</rscale>
<asrwt>0</asrwt>
<pdfrwt beam="1">  1        2 0.13574834E+00 0.12625002E+04</pdfrwt>
<pdfrwt beam="2">  1       -1 0.69477098E-01 0.12625002E+04</pdfrwt>
<totfact> 0.70851768E+01</totfact>
</mgrwt>
</event>
<event>
11    7  0.1497947E-008  0.1424279E+04  0.7818608E-02  0.8936429E-01
         -1   -1    0    0    0  501 -0.00000000000E+00  0.00000000000E+00  0.16524947834E+03  0.16524947834E+03  0.00000000000E+00 0.  1.
          2   -1    0    0  501    0  0.00000000000E+00 -0.00000000000E+00 -0.30689529986E+04  0.30689529986E+04  0.00000000000E+00 0. -1.
         24    2    1    2    0    0 -0.88113727748E+02  0.83391879712E+02 -0.17764542439E+04  0.17823669669E+04  0.79524143969E+02 0.  0.
        254    2    1    2    0    0  0.88113727748E+02 -0.83391879712E+02 -0.11272492763E+04  0.14518355100E+04  0.90687219742E+03 0.  0.
         23    2    4    4    0    0 -0.30997494903E+03 -0.92521697637E+02 -0.12527223701E+03  0.35880187980E+03  0.91656543790E+02 0.  0.
          4    1    3    3  502    0 -0.55983768999E+02  0.31539390585E+02 -0.13548236061E+04  0.13563465336E+04  0.00000000000E+00 0. -1.
         -3    1    3    3    0  502 -0.32129958749E+02  0.51852489127E+02 -0.42163063781E+03  0.42602043334E+03  0.00000000000E+00 0.  1.
         13    1    5    5    0    0 -0.65332307442E+02 -0.51324495753E+02 -0.59359350666E+02  0.10210801522E+03  0.00000000000E+00 0. -1.
        -13    1    5    5    0    0 -0.24464264159E+03 -0.41197201884E+02 -0.65912886346E+02  0.25669386458E+03  0.00000000000E+00 0.  1.
          4    1    4    4  503    0  0.24731779379E+03  0.41740808883E+02 -0.40437850520E+03  0.47584699402E+03  0.00000000000E+00 0. -1.
         -4    1    4    4    0  503  0.15077088299E+03 -0.32610990958E+02 -0.59759853411E+03  0.61718663616E+03  0.00000000000E+00 0.  1.
<mgrwt>
<rscale>  0 0.14242793E+04</rscale>
<asrwt>0</asrwt>
<pdfrwt beam="1">  1        2 0.47214663E+00 0.14242793E+04</pdfrwt>
<pdfrwt beam="2">  1       -1 0.25422996E-01 0.14242793E+04</pdfrwt>
<totfact> 0.23945180E+01</totfact>
</mgrwt>
</event>
<event>
12    7  0.1497947E-008  0.2358005E+04  0.7818608E-02  0.8455395E-01
          2   -1    0    0  501    0  0.00000000000E+00  0.00000000000E+00  0.16156096803E+04  0.16156096803E+04  0.00000000000E+00 0. -1.
         -1   -1    0    0    0  501 -0.00000000000E+00 -0.00000000000E+00 -0.86038532274E+03  0.86038532274E+03  0.00000000000E+00 0.  1.
         24    2    1    2    0    0  0.79620513283E+03  0.55790719699E+03  0.51496984437E+02  0.97678578700E+03  0.79091594270E+02 0.  0.
        254    2    1    2    0    0 -0.79620513283E+03 -0.55790719699E+03  0.70372737315E+03  0.14992092161E+04  0.89843920429E+03 0.  0.
         23    2    4    4    0    0 -0.61471636786E+03 -0.75738330187E+03  0.35221054084E+03  0.10410683751E+04  0.90914342884E+02 0.  0.
         23    2    4    4    0    0 -0.18148876497E+03  0.19947610487E+03  0.35151683230E+03  0.45814084093E+03  0.11661928877E+03 0.  0.
          4    1    3    3  502    0  0.54727233650E+02  0.64239466165E+02 -0.17790851302E+01  0.84409384905E+02  0.00000000000E+00 0. -1.
         -3    1    3    3    0  502  0.74147789918E+03  0.49366773083E+03  0.53276069567E+02  0.89237640210E+03  0.00000000000E+00 0.  1.
         13    1    5    5    0    0 -0.21768505251E+03 -0.20257056515E+03  0.11310471003E+03  0.31814193590E+03  0.00000000000E+00 0. -1.
        -13    1    5    5    0    0 -0.39703131535E+03 -0.55481273672E+03  0.23910583081E+03  0.72292643922E+03  0.00000000000E+00 0.  1.
          3    1    6    6  503    0 -0.13255571069E+02  0.90652614144E+02  0.87342237026E+02  0.12657911749E+03  0.00000000000E+00 0. -1.
         -3    1    6    6    0  503 -0.16823319390E+03  0.10882349073E+03  0.26417459527E+03  0.33156172344E+03  0.00000000000E+00 0.  1.
<mgrwt>
<rscale>  0 0.23580050E+04</rscale>
<asrwt>0</asrwt>
<pdfrwt beam="1">  1        2 0.24855534E+00 0.23580050E+04</pdfrwt>
<pdfrwt beam="2">  1       -1 0.13236697E+00 0.23580050E+04</pdfrwt>
<totfact> 0.54410486E+00</totfact>
</mgrwt>
</event>
<event>
11    7  0.1497947E-008  0.2266242E+04  0.7818608E-02  0.8491352E-01
         -1   -1    0    0    0  501 -0.00000000000E+00  0.00000000000E+00  0.41067146680E+03  0.41067146680E+03  0.00000000000E+00 0.  1.
          2   -1    0    0  501    0  0.00000000000E+00 -0.00000000000E+00 -0.31264975987E+04  0.31264975987E+04  0.00000000000E+00 0. -1.
         24    2    1    2    0    0 -0.37291364951E+03 -0.29197946915E+01 -0.24957330001E+04  0.25248830478E+04  0.85311677282E+02 0.  0.
        254    2    1    2    0    0  0.37291364951E+03  0.29197946915E+01 -0.22009313186E+03  0.10122860177E+04  0.91499119109E+03 0.  0.
         23    2    4    4    0    0 -0.15487625136E+03 -0.74034940812E+02  0.14207025706E+03  0.24339733970E+03  0.97931002927E+02 0.  0.
          4    1    3    3  502    0 -0.33841591270E+03  0.11410722132E+02 -0.20697252124E+04  0.20972405655E+04  0.00000000000E+00 0. -1.
         -3    1    3    3    0  502 -0.34497736806E+02 -0.14330516823E+02 -0.42600778766E+03  0.42764248234E+03  0.00000000000E+00 0.  1.
         13    1    5    5    0    0 -0.21195830861E+02 -0.13192038095E+02 -0.14376722273E+02  0.28809430024E+02  0.00000000000E+00 0.  1.
        -13    1    5    5    0    0 -0.13368042050E+03 -0.60842902717E+02  0.15644697933E+03  0.21458790967E+03  0.00000000000E+00 0. -1.
          2    1    4    4  503    0  0.29133171423E+03  0.20758006875E+03 -0.58525909794E+02  0.36247611614E+03  0.00000000000E+00 0. -1.
         -2    1    4    4    0  503  0.23645818664E+03 -0.13062533325E+03 -0.30363747913E+03  0.40641256187E+03  0.00000000000E+00 0.  1.
<mgrwt>
<rscale>  0 0.22662421E+04</rscale>
<asrwt>0</asrwt>
<pdfrwt beam="1">  1        2 0.48099964E+00 0.22662421E+04</pdfrwt>
<pdfrwt beam="2">  1       -1 0.63180225E-01 0.22662421E+04</pdfrwt>
<totfact> 0.38081643E+00</totfact>
</mgrwt>
</event>
<event>
11    7  0.1497947E-008  0.1200181E+04  0.7818608E-02  0.9112698E-01
          2   -1    0    0  501    0  0.00000000000E+00  0.00000000000E+00  0.95486181033E+03  0.95486181033E+03  0.00000000000E+00 0. -1.
         -1   -1    0    0    0  501 -0.00000000000E+00 -0.00000000000E+00 -0.37713149884E+03  0.37713149884E+03  0.00000000000E+00 0.  1.
         24    2    1    2    0    0 -0.21706392512E+02 -0.24112819336E+03  0.12036337554E+03  0.28099650415E+03  0.76535743674E+02 0.  0.
        254    2    1    2    0    0  0.21706392512E+02  0.24112819336E+03  0.45736693595E+03  0.10509968050E+04  0.91476543275E+03 0.  0.
         23    2    4    4    0    0  0.21342743418E+03  0.17110631342E+03 -0.19996584283E+03  0.35071880470E+03  0.90491444464E+02 0.  0.
          2    1    3    3  502    0  0.13161497587E+01 -0.22596542717E+03  0.11190885771E+03  0.25216204901E+03  0.00000000000E+00 0. -1.
         -1    1    3    3    0  502 -0.23022542271E+02 -0.15162766192E+02  0.84545178311E+01  0.28834455136E+02  0.00000000000E+00 0.  1.
         13    1    5    5    0    0  0.84530748052E+02  0.19588795923E+02 -0.82324465936E+02  0.11960972362E+03  0.00000000000E+00 0. -1.
        -13    1    5    5    0    0  0.12889668613E+03  0.15151751750E+03 -0.11764137689E+03  0.23110908109E+03  0.00000000000E+00 0.  1.
          1    1    4    4  503    0  0.13675888117E+02 -0.60674150206E+01  0.10563059312E+03  0.10668488948E+03  0.00000000000E+00 0. -1.
         -1    1    4    4    0  503 -0.20539692978E+03  0.76089294962E+02  0.55170218566E+03  0.59359311084E+03  0.00000000000E+00 0.  1.
<mgrwt>
<rscale>  0 0.12001808E+04</rscale>
<asrwt>0</asrwt>
<pdfrwt beam="1">  1        2 0.14690182E+00 0.12001808E+04</pdfrwt>
<pdfrwt beam="2">  1       -1 0.58020231E-01 0.12001808E+04</pdfrwt>
<totfact> 0.91303641E+01</totfact>
</mgrwt>
</event>
<event>
12    7  0.1497947E-008  0.1566475E+04  0.7818608E-02  0.8841413E-01
          4   -1    0    0  501    0  0.00000000000E+00  0.00000000000E+00  0.18535878350E+04  0.18535878350E+04  0.00000000000E+00 0. -1.
         -3   -1    0    0    0  501 -0.00000000000E+00 -0.00000000000E+00 -0.33095869208E+03  0.33095869208E+03  0.00000000000E+00 0.  1.
         24    2    1    2    0    0 -0.30087532850E+03  0.34749792013E+03  0.17324270375E+03  0.49628756391E+03  0.70764001374E+02 0.  0.
        254    2    1    2    0    0  0.30087532850E+03 -0.34749792013E+03  0.13493864392E+04  0.16882589632E+04  0.90448537674E+03 0.  0.
         23    2    4    4    0    0 -0.31290429520E+03 -0.92846772639E+02  0.36187545057E+03  0.49582623125E+03  0.91434067654E+02 0.  0.
         23    2    4    4    0    0  0.61377962370E+03 -0.25465114750E+03  0.98751098861E+03  0.11924327319E+04  0.71730287628E+02 0.  0.
          2    1    3    3  502    0 -0.22611975940E+02  0.21635354310E+02  0.32846994588E+02  0.45368657303E+02  0.00000000000E+00 0. -1.
         -1    1    3    3    0  502 -0.27826335256E+03  0.32586256582E+03  0.14039570917E+03  0.45091890661E+03  0.00000000000E+00 0.  1.
         13    1    5    5    0    0 -0.16344263897E+03 -0.97680881160E+01  0.13811780619E+03  0.21420887042E+03  0.00000000000E+00 0.  1.
        -13    1    5    5    0    0 -0.14946165623E+03 -0.83078684523E+02  0.22375764438E+03  0.28161736083E+03  0.00000000000E+00 0. -1.
          3    1    6    6  503    0  0.91288633223E+02 -0.66837597653E+02  0.16509475323E+03  0.20014284039E+03  0.00000000000E+00 0. -1.
         -3    1    6    6    0  503  0.52249099048E+03 -0.18781354984E+03  0.82241623538E+03  0.99228989154E+03  0.00000000000E+00 0.  1.
<mgrwt>
<rscale>  0 0.15664750E+04</rscale>
<asrwt>0</asrwt>
<pdfrwt beam="1">  1        4 0.28516735E+00 0.15664750E+04</pdfrwt>
<pdfrwt beam="2">  1       -3 0.50916723E-01 0.15664750E+04</pdfrwt>
<totfact> 0.32215145E-01</totfact>
</mgrwt>
</event>
<event>
11    7  0.1497947E-008  0.1507829E+04  0.7818608E-02  0.8879264E-01
          2   -1    0    0  501    0  0.00000000000E+00  0.00000000000E+00  0.11954801060E+04  0.11954801060E+04  0.00000000000E+00 0. -1.
         -1   -1    0    0    0  501 -0.00000000000E+00 -0.00000000000E+00 -0.47544641619E+03  0.47544641619E+03  0.00000000000E+00 0.  1.
         24    2    1    2    0    0  0.39540627212E+03 -0.25642109534E+03  0.23705246345E+03  0.53359006482E+03  0.80166007028E+02 0.  0.
        254    2    1    2    0    0 -0.39540627212E+03  0.25642109534E+03  0.48298122640E+03  0.11373364574E+04  0.91551376512E+03 0.  0.
         23    2    4    4    0    0  0.15922822397E+03  0.85293156945E+02  0.49916883915E+03  0.53876756819E+03  0.92045709425E+02 0.  0.
          2    1    3    3  502    0  0.29368292781E+03 -0.18087734940E+03  0.21067861147E+03  0.40416797862E+03  0.00000000000E+00 0. -1.
         -1    1    3    3    0  502  0.10172334432E+03 -0.75543745941E+02  0.26373851983E+02  0.12942208621E+03  0.00000000000E+00 0.  1.
         13    1    5    5    0    0 -0.55170260993E+01  0.45673872862E+01  0.90794373078E+02  0.91076433758E+02  0.00000000000E+00 0. -1.
        -13    1    5    5    0    0  0.16474525007E+03  0.80725769659E+02  0.40837446607E+03  0.44769113443E+03  0.00000000000E+00 0.  1.
          3    1    4    4  503    0 -0.52401391367E+02  0.42182826083E+01 -0.44061051614E+02  0.68593556510E+02  0.00000000000E+00 0. -1.
         -3    1    4    4    0  503 -0.50223310473E+03  0.16690965579E+03  0.27873438861E+02  0.52997533270E+03  0.00000000000E+00 0.  1.
<mgrwt>
<rscale>  0 0.15078285E+04</rscale>
<asrwt>0</asrwt>
<pdfrwt beam="1">  1        2 0.18392002E+00 0.15078285E+04</pdfrwt>
<pdfrwt beam="2">  1       -1 0.73145603E-01 0.15078285E+04</pdfrwt>
<totfact> 0.39537572E+01</totfact>
</mgrwt>
</event>
<event>
11    7  0.1497947E-008  0.1464817E+04  0.7818608E-02  0.8908192E-01
          2   -1    0    0  501    0  0.00000000000E+00  0.00000000000E+00  0.11820399513E+04  0.11820399513E+04  0.00000000000E+00 0. -1.
         -1   -1    0    0    0  501 -0.00000000000E+00 -0.00000000000E+00 -0.45381038258E+03  0.45381038258E+03  0.00000000000E+00 0.  1.
         24    2    1    2    0    0  0.14932608901E+03 -0.25557576895E+03  0.58500591175E+03  0.66457750836E+03  0.10869265525E+03 0.  0.
        254    2    1    2    0    0 -0.14932608901E+03  0.25557576895E+03  0.14322365702E+03  0.97127282557E+03  0.91391500219E+03 0.  0.
         23    2    4    4    0    0 -0.10781525605E+03 -0.12629517053E+03  0.42857757212E+03  0.46878221064E+03  0.92214023588E+02 0.  0.
          2    1    3    3  502    0  0.12669755657E+03 -0.18184646321E+03  0.51399189508E+03  0.55973929220E+03  0.00000000000E+00 0. -1.
         -1    1    3    3    0  502  0.22628532438E+02 -0.73729305734E+02  0.71014016672E+02  0.10483821616E+03  0.00000000000E+00 0.  1.
         13    1    5    5    0    0 -0.91009694943E+01  0.63294272996E+01  0.10336340308E+03  0.10395615610E+03  0.00000000000E+00 0.  1.
        -13    1    5    5    0    0 -0.98714286557E+02 -0.13262459783E+03  0.32521416905E+03  0.36482605453E+03  0.00000000000E+00 0. -1.
          4    1    4    4  503    0 -0.27069211211E+02  0.34204597073E+03 -0.17685065656E+03  0.38601080686E+03  0.00000000000E+00 0. -1.
         -4    1    4    4    0  503 -0.14441621745E+02  0.39824968748E+02 -0.10850325854E+03  0.11647980807E+03  0.00000000000E+00 0.  1.
<mgrwt>
<rscale>  0 0.14648167E+04</rscale>
<asrwt>0</asrwt>
<pdfrwt beam="1">  1        2 0.18185230E+00 0.14648167E+04</pdfrwt>
<pdfrwt beam="2">  1       -1 0.69816982E-01 0.14648167E+04</pdfrwt>
<totfact> 0.44495279E+01</totfact>
</mgrwt>
</event>
<event>
12    7  0.1497947E-008  0.2166446E+04  0.7818608E-02  0.8532525E-01
          2   -1    0    0  501    0  0.00000000000E+00  0.00000000000E+00  0.43147365790E+04  0.43147365790E+04  0.00000000000E+00 0. -1.
         -1   -1    0    0    0  501 -0.00000000000E+00 -0.00000000000E+00 -0.27194517630E+03  0.27194517630E+03  0.00000000000E+00 0.  1.
         24    2    1    2    0    0 -0.36126498167E+03 -0.92223149869E+01  0.34086614115E+04  0.34286818168E+04  0.79302864689E+02 0.  0.
        254    2    1    2    0    0  0.36126498167E+03  0.92223149869E+01  0.63412999117E+03  0.11579999385E+04  0.89902479042E+03 0.  0.
         23    2    4    4    0    0 -0.58860989652E+01 -0.38485493958E+03  0.14080514986E+03  0.41829986903E+03  0.83670302540E+02 0.  0.
         23    2    4    4    0    0  0.36715108064E+03  0.39407725456E+03  0.49332484131E+03  0.73970006947E+03  0.11700425268E+03 0.  0.
          2    1    3    3  502    0 -0.24575256561E+03  0.28468421548E+02  0.24056145647E+04  0.24183023402E+04  0.00000000000E+00 0. -1.
         -1    1    3    3    0  502 -0.11551241606E+03 -0.37690736535E+02  0.10030468468E+04  0.10103794766E+04  0.00000000000E+00 0.  1.
         13    1    5    5    0    0  0.10706459664E+01 -0.29680916270E+03  0.69627962536E+02  0.30486862501E+03  0.00000000000E+00 0.  1.
        -13    1    5    5    0    0 -0.69567449316E+01 -0.88045776874E+02  0.71177187326E+02  0.11343124403E+03  0.00000000000E+00 0. -1.
          1    1    6    6  503    0  0.78147623943E+02  0.25788505833E+02  0.87809697079E+02  0.12034384514E+03  0.00000000000E+00 0. -1.
         -1    1    6    6    0  503  0.28900345670E+03  0.36828874873E+03  0.40551514423E+03  0.61935622434E+03  0.00000000000E+00 0.  1.
<mgrwt>
<rscale>  0 0.21664458E+04</rscale>
<asrwt>0</asrwt>
<pdfrwt beam="1">  1        2 0.66380558E+00 0.21664458E+04</pdfrwt>
<pdfrwt beam="2">  1       -1 0.41837723E-01 0.21664458E+04</pdfrwt>
<totfact> 0.10872817E+00</totfact>
</mgrwt>
</event>
<event>
12    7  0.1516767E-008  0.1114541E+04  0.7818608E-02  0.9191134E-01
         -1   -1    0    0    0  501 -0.00000000000E+00  0.00000000000E+00  0.22545937720E+03  0.22545937720E+03  0.00000000000E+00 0.  1.
          2   -1    0    0  501    0  0.00000000000E+00 -0.00000000000E+00 -0.13774113932E+04  0.13774113932E+04  0.00000000000E+00 0. -1.
         24    2    1    2    0    0  0.75860634361E+02  0.18618897361E+03 -0.36936424716E+03  0.42841679354E+03  0.81791394192E+02 0.  0.
        254    2    1    2    0    0 -0.75860634361E+02 -0.18618897361E+03 -0.78258776882E+03  0.11744539768E+04  0.85233641133E+03 0.  0.
         23    2    4    4    0    0  0.35221034118E+03  0.25281688653E+02 -0.20707548373E+03  0.41951236110E+03  0.91755528086E+02 0.  0.
         23    2    4    4    0    0 -0.42807097554E+03 -0.21147066226E+03 -0.57551228509E+03  0.75494161575E+03  0.10372006463E+03 0.  0.
          2    1    3    3  502    0  0.56312551893E+02  0.16583135241E+03 -0.35692059121E+03  0.39757194239E+03  0.00000000000E+00 0. -1.
         -1    1    3    3    0  502  0.19548082468E+02  0.20357621200E+02 -0.12443655952E+02  0.30844851151E+02  0.00000000000E+00 0.  1.
         13    1    5    5    0    0  0.14034613075E+03  0.53386256247E+02 -0.70528517354E+02  0.16589575201E+03  0.00000000000E+00 0.  1.
        -13    1    5    5    0    0  0.21186421043E+03 -0.28104567594E+02 -0.13654696638E+03  0.25361660909E+03  0.00000000000E+00 0. -1.
          3    1    6    6  503    0 -0.32718222691E+03 -0.11161648542E+03 -0.38617414174E+03  0.51830195559E+03  0.00000000000E+00 0. -1.
         -3    1    6    6    0  503 -0.10088874863E+03 -0.99854176842E+02 -0.18933814334E+03  0.23663966016E+03  0.00000000000E+00 0.  1.
<mgrwt>
<rscale>  0 0.11145408E+04</rscale>
<asrwt>0</asrwt>
<pdfrwt beam="1">  1        2 0.21190944E+00 0.11145408E+04</pdfrwt>
<pdfrwt beam="2">  1       -1 0.34686058E-01 0.11145408E+04</pdfrwt>
<totfact> 0.13280341E+02</totfact>
</mgrwt>
</event>
<event>
12    7  0.1497947E-008  0.2411237E+04  0.7818608E-02  0.8435309E-01
          2   -1    0    0  501    0  0.00000000000E+00  0.00000000000E+00  0.36951336794E+04  0.36951336794E+04  0.00000000000E+00 0. -1.
         -1   -1    0    0    0  501 -0.00000000000E+00 -0.00000000000E+00 -0.39335951759E+03  0.39335951759E+03  0.00000000000E+00 0.  1.
         24    2    1    2    0    0 -0.50834853766E+03  0.89491026135E+03  0.13303989612E+04  0.16839574795E+04  0.80428758095E+02 0.  0.
        254    2    1    2    0    0  0.50834853766E+03 -0.89491026135E+03  0.19713752006E+04  0.24045357175E+04  0.91443382682E+03 0.  0.
         23    2    4    4    0    0  0.71825277247E+03 -0.88259732601E+03  0.15239341382E+04  0.19039989508E+04  0.89284164487E+02 0.  0.
         23    2    4    4    0    0 -0.20990423481E+03 -0.12312935344E+02  0.44744106244E+03  0.50053676675E+03  0.78244196812E+02 0.  0.
          4    1    3    3  502    0 -0.14737652483E+03  0.30000872809E+03  0.48473052094E+03  0.58880281498E+03  0.00000000000E+00 0. -1.
         -3    1    3    3    0  502 -0.36097201283E+03  0.59490153326E+03  0.84566844030E+03  0.10951546645E+04  0.00000000000E+00 0.  1.
         13    1    5    5    0    0  0.13083568609E+03 -0.11313775689E+03  0.21336962249E+03  0.27467203095E+03  0.00000000000E+00 0. -1.
        -13    1    5    5    0    0  0.58741708639E+03 -0.76945956912E+03  0.13105645157E+04  0.16293269198E+04  0.00000000000E+00 0.  1.
          3    1    6    6  503    0  0.29689832338E+01  0.38544438799E+01  0.10146350400E+00  0.48664046182E+01  0.00000000000E+00 0. -1.
         -3    1    6    6    0  503 -0.21287321805E+03 -0.16167379224E+02  0.44733959894E+03  0.49567036213E+03  0.00000000000E+00 0.  1.
<mgrwt>
<rscale>  0 0.24112370E+04</rscale>
<asrwt>0</asrwt>
<pdfrwt beam="1">  1        2 0.56848208E+00 0.24112370E+04</pdfrwt>
<pdfrwt beam="2">  1       -1 0.60516851E-01 0.24112370E+04</pdfrwt>
<totfact> 0.16699452E+00</totfact>
</mgrwt>
</event>
<event>
12    7  0.1497947E-008  0.1460027E+04  0.7818608E-02  0.8911478E-01
          2   -1    0    0  501    0  0.00000000000E+00  0.00000000000E+00  0.12944333536E+04  0.12944333536E+04  0.00000000000E+00 0. -1.
         -1   -1    0    0    0  501 -0.00000000000E+00 -0.00000000000E+00 -0.41170113866E+03  0.41170113866E+03  0.00000000000E+00 0.  1.
         24    2    1    2    0    0 -0.37453255266E+03  0.17020241963E+03  0.48782729440E+03  0.64305290639E+03  0.79360409554E+02 0.  0.
        254    2    1    2    0    0  0.37453255266E+03 -0.17020241963E+03  0.39490492056E+03  0.10630815859E+04  0.89718953701E+03 0.  0.
         23    2    4    4    0    0  0.66458581866E+03 -0.77575664620E+02  0.25836503847E+03  0.72312067298E+03  0.91971302519E+02 0.  0.
         23    2    4    4    0    0 -0.29005326600E+03 -0.92626755012E+02  0.13653988209E+03  0.33996091291E+03  0.64958987408E+02 0.  0.
          2    1    3    3  502    0 -0.34834902746E+03  0.14598190631E+03  0.47064950887E+03  0.60346393604E+03  0.00000000000E+00 0. -1.
         -1    1    3    3    0  502 -0.26183525202E+02  0.24220513324E+02  0.17177785528E+02  0.39588970349E+02  0.00000000000E+00 0.  1.
         13    1    5    5    0    0  0.79134064064E+02 -0.35288247734E+02  0.16177591150E+02  0.88142923589E+02  0.00000000000E+00 0.  1.
        -13    1    5    5    0    0  0.58545175459E+03 -0.42287416886E+02  0.24218744732E+03  0.63497774939E+03  0.00000000000E+00 0. -1.
          1    1    6    6  503    0 -0.10995076894E+03 -0.47281559606E+02  0.21805939635E+02  0.12165614030E+03  0.00000000000E+00 0. -1.
         -1    1    6    6    0  503 -0.18010249706E+03 -0.45345195406E+02  0.11473394246E+03  0.21830477261E+03  0.00000000000E+00 0.  1.
<mgrwt>
<rscale>  0 0.14600270E+04</rscale>
<asrwt>0</asrwt>
<pdfrwt beam="1">  1        2 0.19914359E+00 0.14600270E+04</pdfrwt>
<pdfrwt beam="2">  1       -1 0.63338637E-01 0.14600270E+04</pdfrwt>
<totfact> 0.46515849E+01</totfact>
</mgrwt>
</event>
<event>
12    7  0.1497947E-008  0.2648644E+04  0.7818608E-02  0.8351863E-01
          2   -1    0    0  501    0  0.00000000000E+00  0.00000000000E+00  0.14533470422E+04  0.14533470422E+04  0.00000000000E+00 0. -1.
         -1   -1    0    0    0  501 -0.00000000000E+00 -0.00000000000E+00 -0.12067517323E+04  0.12067517323E+04  0.00000000000E+00 0.  1.
         24    2    1    2    0    0  0.10269147280E+04 -0.56343182524E+02  0.68010434675E+03  0.12356392766E+04  0.80833697938E+02 0.  0.
        254    2    1    2    0    0 -0.10269147280E+04  0.56343182524E+02 -0.43350903682E+03  0.14244594979E+04  0.88511375733E+03 0.  0.
         23    2    4    4    0    0  0.21570539142E+02  0.26821000997E+03 -0.86233019369E+02  0.29822158082E+03  0.95383856234E+02 0.  0.
         23    2    4    4    0    0 -0.10484852671E+04 -0.21186682745E+03 -0.34727601745E+03  0.11262379171E+04  0.60019210552E+02 0.  0.
          2    1    3    3  502    0  0.93235844553E+03 -0.32454754679E+02  0.63244299388E+03  0.11270890482E+04  0.00000000000E+00 0. -1.
         -1    1    3    3    0  502  0.94556282467E+02 -0.23888427845E+02  0.47661352868E+02  0.10855022845E+03  0.00000000000E+00 0.  1.
         13    1    5    5    0    0 -0.33979664632E+02  0.54390806837E+02 -0.26326969941E+02  0.69325946248E+02  0.00000000000E+00 0. -1.
        -13    1    5    5    0    0  0.55550203774E+02  0.21381920314E+03 -0.59906049427E+02  0.22889563457E+03  0.00000000000E+00 0.  1.
          4    1    6    6  503    0 -0.75553333309E+03 -0.12516753820E+03 -0.24544430859E+03  0.80420174002E+03  0.00000000000E+00 0.  1.
         -4    1    6    6    0  503 -0.29295193405E+03 -0.86699289252E+02 -0.10183170887E+03  0.32203617708E+03  0.00000000000E+00 0. -1.
<mgrwt>
<rscale>  0 0.26486442E+04</rscale>
<asrwt>0</asrwt>
<pdfrwt beam="1">  1        2 0.22359185E+00 0.26486442E+04</pdfrwt>
<pdfrwt beam="2">  1       -1 0.18565411E+00 0.26486442E+04</pdfrwt>
<totfact> 0.25672775E+00</totfact>
</mgrwt>
</event>
<event>
12    7  0.1497947E-008  0.1912275E+04  0.7818608E-02  0.8648770E-01
         -1   -1    0    0    0  501 -0.00000000000E+00  0.00000000000E+00  0.39755581916E+03  0.39755581916E+03  0.00000000000E+00 0.  1.
          2   -1    0    0  501    0  0.00000000000E+00 -0.00000000000E+00 -0.22995493856E+04  0.22995493856E+04  0.00000000000E+00 0. -1.
         24    2    1    2    0    0 -0.35773296835E+03  0.64382117856E+03 -0.85484524925E+03  0.11306020896E+04  0.70866764061E+02 0.  0.
        254    2    1    2    0    0  0.35773296835E+03 -0.64382117856E+03 -0.10471483172E+04  0.15665031152E+04  0.90273685258E+03 0.  0.
         23    2    4    4    0    0  0.44954109239E+03 -0.69714660336E+03 -0.11214305931E+04  0.13978620310E+04  0.91165245908E+02 0.  0.
         23    2    4    4    0    0 -0.91808124043E+02  0.53325424802E+02  0.74282275931E+02  0.16864108421E+03  0.10793343409E+03 0.  0.
          2    1    3    3  502    0 -0.11665982198E+03  0.24952633153E+03 -0.36329256075E+03  0.45591050534E+03  0.00000000000E+00 0. -1.
         -3    1    3    3    0  502 -0.24107314637E+03  0.39429484703E+03 -0.49155268851E+03  0.67469158426E+03  0.00000000000E+00 0.  1.
         13    1    5    5    0    0  0.45191152238E+01  0.13778366434E+01 -0.15293497969E+01  0.49658581356E+01  0.00000000000E+00 0. -1.
        -13    1    5    5    0    0  0.44502197717E+03 -0.69852444001E+03 -0.11199012433E+04  0.13928961728E+04  0.00000000000E+00 0.  1.
          2    1    6    6  503    0 -0.32437914521E+02  0.43887699898E+02 -0.18896335751E+02  0.57753095204E+02  0.00000000000E+00 0. -1.
         -2    1    6    6    0  503 -0.59370209522E+02  0.94377249037E+01  0.93178611683E+02  0.11088798900E+03  0.00000000000E+00 0.  1.
<mgrwt>
<rscale>  0 0.19122753E+04</rscale>
<asrwt>0</asrwt>
<pdfrwt beam="1">  1        2 0.35377682E+00 0.19122753E+04</pdfrwt>
<pdfrwt beam="2">  1       -1 0.61162435E-01 0.19122753E+04</pdfrwt>
<totfact> 0.13105076E+01</totfact>
</mgrwt>
</event>
<event>
12    7  0.1497947E-008  0.1238327E+04  0.7818608E-02  0.9079955E-01
          2   -1    0    0  501    0  0.00000000000E+00  0.00000000000E+00  0.77170535586E+03  0.77170535586E+03  0.00000000000E+00 0. -1.
         -1   -1    0    0    0  501 -0.00000000000E+00 -0.00000000000E+00 -0.49677448023E+03  0.49677448023E+03  0.00000000000E+00 0.  1.
         24    2    1    2    0    0  0.14682762216E+03 -0.13294392712E+03 -0.15032566906E+03  0.26085105215E+03  0.78822752035E+02 0.  0.
        254    2    1    2    0    0 -0.14682762216E+03  0.13294392712E+03  0.42525654470E+03  0.10076287839E+04  0.89176241176E+03 0.  0.
         23    2    4    4    0    0 -0.33455177784E+02 -0.61013634203E+02 -0.25588897384E+03  0.28147784555E+03  0.94385900026E+02 0.  0.
         23    2    4    4    0    0 -0.11337244438E+03  0.19395756133E+03  0.68114551854E+03  0.72615093839E+03  0.11341570063E+03 0.  0.
          2    1    3    3  502    0  0.62830145898E+02 -0.42172955894E+02 -0.10437035474E+03  0.12891608274E+03  0.00000000000E+00 0. -1.
         -1    1    3    3    0  502  0.83997476265E+02 -0.90770971230E+02 -0.45955314329E+02  0.13193496941E+03  0.00000000000E+00 0.  1.
         13    1    5    5    0    0 -0.17086489743E+02 -0.13934332942E+02 -0.13333652871E+01  0.22088269042E+02  0.00000000000E+00 0.  1.
        -13    1    5    5    0    0 -0.16368688040E+02 -0.47079301261E+02 -0.25455560856E+03  0.25938957651E+03  0.00000000000E+00 0. -1.
          4    1    6    6  503    0 -0.61733910633E+02  0.89218747248E+02  0.49232264766E+03  0.50413554723E+03  0.00000000000E+00 0. -1.
         -4    1    6    6    0  503 -0.51638533746E+02  0.10473881408E+03  0.18882287089E+03  0.22201539116E+03  0.00000000000E+00 0.  1.
<mgrwt>
<rscale>  0 0.12383271E+04</rscale>
<asrwt>0</asrwt>
<pdfrwt beam="1">  1        2 0.11872390E+00 0.12383271E+04</pdfrwt>
<pdfrwt beam="2">  1       -1 0.76426844E-01 0.12383271E+04</pdfrwt>
<totfact> 0.69803129E+01</totfact>
</mgrwt>
</event>
<event>
12    7  0.1497947E-008  0.4306265E+04  0.7818608E-02  0.7945461E-01
         -1   -1    0    0    0  501 -0.00000000000E+00  0.00000000000E+00  0.12568663977E+04  0.12568663977E+04  0.00000000000E+00 0.  1.
          2   -1    0    0  501    0  0.00000000000E+00 -0.00000000000E+00 -0.36885217861E+04  0.36885217861E+04  0.00000000000E+00 0. -1.
         24    2    1    2    0    0 -0.18790055143E+04  0.67005203539E+03 -0.56938376811E+03  0.20761639622E+04  0.81409272731E+02 0.  0.
        254    2    1    2    0    0  0.18790055143E+04 -0.67005203539E+03 -0.18622716203E+04  0.28692242216E+04  0.88586714202E+03 0.  0.
         23    2    4    4    0    0  0.13308038977E+04 -0.86603609489E+03 -0.13211752078E+04  0.20675516661E+04  0.90600388127E+02 0.  0.
         23    2    4    4    0    0  0.54820161658E+03  0.19598405950E+03 -0.54109641245E+03  0.80167255552E+03  0.10468426202E+03 0.  0.
          4    1    3    3  502    0 -0.17348924674E+04  0.61074676301E+03 -0.50316456497E+03  0.19068398101E+04  0.00000000000E+00 0. -1.
         -3    1    3    3    0  502 -0.14411304683E+03  0.59305272376E+02 -0.66219203146E+02  0.16932415204E+03  0.00000000000E+00 0.  1.
         13    1    5    5    0    0  0.56733625427E+01  0.19291291668E+01 -0.76469772426E+01  0.97151861964E+01  0.00000000000E+00 0. -1.
        -13    1    5    5    0    0  0.13251305351E+04 -0.86796522406E+03 -0.13135282306E+04  0.20578364799E+04  0.00000000000E+00 0.  1.
          3    1    6    6  503    0  0.16364260079E+03  0.91214469083E+01 -0.14459363502E+03  0.21856216707E+03  0.00000000000E+00 0. -1.
         -3    1    6    6    0  503  0.38455901579E+03  0.18686261260E+03 -0.39650277743E+03  0.58311038845E+03  0.00000000000E+00 0.  1.
<mgrwt>
<rscale>  0 0.43062648E+04</rscale>
<asrwt>0</asrwt>
<pdfrwt beam="1">  1        2 0.56746487E+00 0.43062648E+04</pdfrwt>
<pdfrwt beam="2">  1       -1 0.19336407E+00 0.43062648E+04</pdfrwt>
<totfact> 0.86772256E-02</totfact>
</mgrwt>
</event>
<event>
12    7  0.1497947E-008  0.1690394E+04  0.7818608E-02  0.8766862E-01
         -1   -1    0    0    0  501 -0.00000000000E+00  0.00000000000E+00  0.16810609459E+03  0.16810609459E+03  0.00000000000E+00 0.  1.
          2   -1    0    0  501    0  0.00000000000E+00 -0.00000000000E+00 -0.42494456458E+04  0.42494456458E+04  0.00000000000E+00 0. -1.
         24    2    1    2    0    0  0.16778876670E+03 -0.57336059511E+03 -0.11716359066E+04  0.13180911811E+04  0.87967163334E+02 0.  0.
        254    2    1    2    0    0 -0.16778876670E+03  0.57336059511E+03 -0.29097036446E+04  0.30994605593E+04  0.88509040036E+03 0.  0.
         23    2    4    4    0    0  0.57240602394E+02  0.69729193976E+03 -0.14381847115E+04  0.16019400159E+04  0.91345576028E+02 0.  0.
         23    2    4    4    0    0 -0.22502936909E+03 -0.12393134465E+03 -0.14715189331E+04  0.14975205434E+04  0.10584239353E+03 0.  0.
          4    1    3    3  502    0  0.27635826635E+02 -0.43725935264E+02 -0.15241919066E+03  0.16095746646E+03  0.00000000000E+00 0. -1.
         -3    1    3    3    0  502  0.14015294006E+03 -0.52963465985E+03 -0.10192167159E+04  0.11571337147E+04  0.00000000000E+00 0.  1.
         13    1    5    5    0    0  0.42138933998E+02  0.44688885439E+03 -0.10179860119E+04  0.11125560024E+04  0.00000000000E+00 0.  1.
        -13    1    5    5    0    0  0.15101668396E+02  0.25040308537E+03 -0.42019869958E+03  0.48938401351E+03  0.00000000000E+00 0. -1.
          1    1    6    6  503    0 -0.42890037691E+02  0.70107654174E+01 -0.42579124270E+03  0.42800337443E+03  0.00000000000E+00 0. -1.
         -1    1    6    6    0  503 -0.18213933140E+03 -0.13094211006E+03 -0.10457276904E+04  0.10695171690E+04  0.00000000000E+00 0.  1.
<mgrwt>
<rscale>  0 0.16903937E+04</rscale>
<asrwt>0</asrwt>
<pdfrwt beam="1">  1        2 0.65376087E+00 0.16903937E+04</pdfrwt>
<pdfrwt beam="2">  1       -1 0.25862476E-01 0.16903937E+04</pdfrwt>
<totfact> 0.30815314E+00</totfact>
</mgrwt>
</event>
<event>
12    7  0.1497947E-008  0.1331525E+04  0.7818608E-02  0.9004933E-01
          2   -1    0    0  501    0  0.00000000000E+00  0.00000000000E+00  0.91426690671E+03  0.91426690671E+03  0.00000000000E+00 0. -1.
         -1   -1    0    0    0  501 -0.00000000000E+00 -0.00000000000E+00 -0.48480325205E+03  0.48480325205E+03  0.00000000000E+00 0.  1.
         24    2    1    2    0    0  0.11083341200E+03  0.21277593890E+03  0.38475978069E+03  0.46008312102E+03  0.77966300531E+02 0.  0.
        254    2    1    2    0    0 -0.11083341200E+03 -0.21277593890E+03  0.44703873972E+02  0.93898703774E+03  0.90671967846E+03 0.  0.
         23    2    4    4    0    0  0.33219635479E+03 -0.20202835719E+03 -0.16674552000E+03  0.43307411987E+03  0.92624238831E+02 0.  0.
         23    2    4    4    0    0 -0.44302976679E+03 -0.10747581716E+02  0.21144939397E+03  0.50591291788E+03  0.12184477624E+03 0.  0.
          2    1    3    3  502    0  0.10241005980E+03  0.11449445669E+03  0.23248456613E+03  0.27865009321E+03  0.00000000000E+00 0. -1.
         -1    1    3    3    0  502  0.84233521979E+01  0.98281482208E+02  0.15227521457E+03  0.18143302781E+03  0.00000000000E+00 0.  1.
         13    1    5    5    0    0  0.18445285183E+03 -0.76662663263E+02 -0.12250410471E+03  0.23432301243E+03  0.00000000000E+00 0. -1.
        -13    1    5    5    0    0  0.14774350296E+03 -0.12536569392E+03 -0.44241415290E+02  0.19875110743E+03  0.00000000000E+00 0.  1.
          1    1    6    6  503    0 -0.75712324659E+01  0.21316923531E+02  0.62958514035E+01  0.23481323105E+02  0.00000000000E+00 0.  1.
         -1    1    6    6    0  503 -0.43545853432E+03 -0.32064505247E+02  0.20515354256E+03  0.48243159477E+03  0.00000000000E+00 0. -1.
<mgrwt>
<rscale>  0 0.13315248E+04</rscale>
<asrwt>0</asrwt>
<pdfrwt beam="1">  1        2 0.14065645E+00 0.13315248E+04</pdfrwt>
<pdfrwt beam="2">  1       -1 0.74585116E-01 0.13315248E+04</pdfrwt>
<totfact> 0.57913765E+01</totfact>
</mgrwt>
</event>
<event>
12    7  0.1497947E-008  0.3139486E+04  0.7818608E-02  0.8204984E-01
          2   -1    0    0  501    0  0.00000000000E+00  0.00000000000E+00  0.13872490548E+04  0.13872490548E+04  0.00000000000E+00 0. -1.
         -1   -1    0    0    0  501 -0.00000000000E+00 -0.00000000000E+00 -0.17762439067E+04  0.17762439067E+04  0.00000000000E+00 0.  1.
         24    2    1    2    0    0 -0.27051911762E+03  0.12167033568E+04 -0.88047039074E+03  0.15280237999E+04  0.77980591406E+02 0.  0.
        254    2    1    2    0    0  0.27051911762E+03 -0.12167033568E+04  0.49147553890E+03  0.16354691616E+04  0.93790379130E+03 0.  0.
         23    2    4    4    0    0  0.24340436083E+02 -0.10625959005E+04  0.69456166128E+03  0.12727620656E+04  0.88345173922E+02 0.  0.
         23    2    4    4    0    0  0.24617868154E+03 -0.15410745636E+03 -0.20308612238E+03  0.36270709602E+03  0.77197234730E+02 0.  0.
          4    1    3    3  502    0 -0.12978566751E+02  0.11160276779E+03 -0.10379178428E+03  0.15295867238E+03  0.00000000000E+00 0. -1.
         -3    1    3    3    0  502 -0.25754055087E+03  0.11051005890E+04 -0.77667860647E+03  0.13750651275E+04  0.00000000000E+00 0.  1.
         13    1    5    5    0    0  0.56417951084E+02 -0.80101230253E+03  0.52264446625E+03  0.95810277742E+03  0.00000000000E+00 0.  1.
        -13    1    5    5    0    0 -0.32077515001E+02 -0.26158359794E+03  0.17191719503E+03  0.31465928817E+03  0.00000000000E+00 0. -1.
          4    1    6    6  503    0  0.21183682546E+03 -0.13809890664E+03 -0.20385072412E+03  0.32480958477E+03  0.00000000000E+00 0.  1.
         -4    1    6    6    0  503  0.34341856083E+02 -0.16008549715E+02  0.76460173409E+00  0.37897511251E+02  0.00000000000E+00 0. -1.
<mgrwt>
<rscale>  0 0.31394857E+04</rscale>
<asrwt>0</asrwt>
<pdfrwt beam="1">  1        2 0.21342293E+00 0.31394857E+04</pdfrwt>
<pdfrwt beam="2">  1       -1 0.27326829E+00 0.31394857E+04</pdfrwt>
<totfact> 0.69785925E-01</totfact>
</mgrwt>
</event>
<event>
12    7  0.1836850E-008  0.1518784E+04  0.7818608E-02  0.8872057E-01
         -1   -1    0    0    0  501 -0.00000000000E+00  0.00000000000E+00  0.87183732870E+03  0.87183732870E+03  0.00000000000E+00 0.  1.
          2   -1    0    0  501    0  0.00000000000E+00 -0.00000000000E+00 -0.66144914081E+03  0.66144914081E+03  0.00000000000E+00 0. -1.
         24    2    1    2    0    0 -0.20849984682E+03  0.32034839714E+03  0.34492322770E+03  0.51888156041E+03  0.64581414173E+02 0.  0.
        254    2    1    2    0    0  0.20849984682E+03 -0.32034839714E+03 -0.13453503980E+03  0.10144049091E+04  0.92995825767E+03 0.  0.
         23    2    4    4    0    0  0.42579869818E+03  0.16175449584E+03 -0.86722902723E+02  0.47240550436E+03  0.90427044601E+02 0.  0.
         23    2    4    4    0    0 -0.21729885137E+03 -0.48210289297E+03 -0.47812137080E+02  0.54199940474E+03  0.10879045946E+03 0.  0.
          4    1    3    3  502    0 -0.84246012418E+02  0.10118152879E+03  0.15502412949E+03  0.20339019913E+03  0.00000000000E+00 0. -1.
         -3    1    3    3    0  502 -0.12425383440E+03  0.21916686835E+03  0.18989909821E+03  0.31549136128E+03  0.00000000000E+00 0.  1.
         13    1    5    5    0    0  0.43000480054E+03  0.16307349324E+03 -0.85025788256E+02  0.46768202591E+03  0.00000000000E+00 0.  1.
        -13    1    5    5    0    0 -0.42061023584E+01 -0.13189974032E+01 -0.16971144674E+01  0.47234784550E+01  0.00000000000E+00 0. -1.
          3    1    6    6  503    0 -0.93953074465E+01  0.46709331836E+01 -0.22323334701E+01  0.10727195884E+02  0.00000000000E+00 0. -1.
         -3    1    6    6    0  503 -0.20790354392E+03 -0.48677382616E+03 -0.45579803610E+02  0.53127220886E+03  0.00000000000E+00 0.  1.
<mgrwt>
<rscale>  0 0.15187838E+04</rscale>
<asrwt>0</asrwt>
<pdfrwt beam="1">  1        2 0.10176141E+00 0.15187838E+04</pdfrwt>
<pdfrwt beam="2">  1       -1 0.13412882E+00 0.15187838E+04</pdfrwt>
<totfact> 0.22716005E+01</totfact>
</mgrwt>
</event>
<event>
11    7  0.1497947E-008  0.2186050E+04  0.7818608E-02  0.8524257E-01
         -1   -1    0    0    0  501 -0.00000000000E+00  0.00000000000E+00  0.62041142168E+03  0.62041142168E+03  0.00000000000E+00 0.  1.
          2   -1    0    0  501    0  0.00000000000E+00 -0.00000000000E+00 -0.19256627399E+04  0.19256627399E+04  0.00000000000E+00 0. -1.
         24    2    1    2    0    0  0.75677799901E+03 -0.94635373446E+02 -0.10923963939E+04  0.13357181475E+04  0.95625804332E+02 0.  0.
        254    2    1    2    0    0 -0.75677799901E+03  0.94635373446E+02 -0.21285492431E+03  0.12103560141E+04  0.91541557136E+03 0.  0.
         23    2    4    4    0    0  0.15561146379E+03  0.18783216226E+03 -0.35786303785E+02  0.26139033415E+03  0.86881519348E+02 0.  0.
          2    1    3    3  502    0  0.56963775273E+03 -0.11124347212E+03 -0.80718758688E+03  0.99419016282E+03  0.00000000000E+00 0. -1.
         -1    1    3    3    0  502  0.18714024628E+03  0.16608098676E+02 -0.28520880701E+03  0.34152798467E+03  0.00000000000E+00 0.  1.
         13    1    5    5    0    0  0.37880483183E+02  0.10437684490E+03  0.58556428501E+01  0.11119237973E+03  0.00000000000E+00 0. -1.
        -13    1    5    5    0    0  0.11773098061E+03  0.83455317363E+02 -0.41641946635E+02  0.15019795442E+03  0.00000000000E+00 0.  1.
          4    1    4    4  503    0 -0.52001029385E+03 -0.86391542018E+02 -0.17845428873E+03  0.55652505551E+03  0.00000000000E+00 0. -1.
         -4    1    4    4    0  503 -0.39237916896E+03 -0.68052467992E+01  0.13856682008E+01  0.39244062442E+03  0.00000000000E+00 0.  1.
<mgrwt>
<rscale>  0 0.21860495E+04</rscale>
<asrwt>0</asrwt>
<pdfrwt beam="1">  1        2 0.29625580E+00 0.21860495E+04</pdfrwt>
<pdfrwt beam="2">  1       -1 0.95447912E-01 0.21860495E+04</pdfrwt>
<totfact> 0.81096026E+00</totfact>
</mgrwt>
</event>
<event>
12    7  0.1497947E-008  0.1625449E+04  0.7818608E-02  0.8805065E-01
         -1   -1    0    0    0  501 -0.00000000000E+00  0.00000000000E+00  0.42792073135E+03  0.42792073135E+03  0.00000000000E+00 0.  1.
          2   -1    0    0  501    0  0.00000000000E+00 -0.00000000000E+00 -0.15435590624E+04  0.15435590624E+04  0.00000000000E+00 0. -1.
         24    2    1    2    0    0 -0.10469732498E+03 -0.54780991636E+03 -0.35802062165E+03  0.66758668959E+03  0.80224611427E+02 0.  0.
        254    2    1    2    0    0  0.10469732498E+03  0.54780991636E+03 -0.75761770943E+03  0.13038931042E+04  0.90282633945E+03 0.  0.
         23    2    4    4    0    0 -0.32219867408E+03  0.33183974071E+03 -0.91399663007E+02  0.48011270351E+03  0.90690190078E+02 0.  0.
         23    2    4    4    0    0  0.42689599906E+03  0.21597017564E+03 -0.66621804642E+03  0.82378040068E+03  0.76709532597E+02 0.  0.
          2    1    3    3  502    0 -0.42025614332E+02 -0.14875999781E+03 -0.14004113317E+03  0.20858381574E+03  0.00000000000E+00 0. -1.
         -1    1    3    3    0  502 -0.62671710647E+02 -0.39904991855E+03 -0.21797948847E+03  0.45900287386E+03  0.00000000000E+00 0.  1.
         13    1    5    5    0    0 -0.19936186819E+03  0.17838724583E+03 -0.93939525674E+02  0.28353447489E+03  0.00000000000E+00 0.  1.
        -13    1    5    5    0    0 -0.12283680589E+03  0.15345249488E+03  0.25398626666E+01  0.19657822862E+03  0.00000000000E+00 0. -1.
          2    1    6    6  503    0  0.13769805096E+03  0.10118414549E+03 -0.19712825985E+03  0.26088030851E+03  0.00000000000E+00 0. -1.
         -2    1    6    6    0  503  0.28919794810E+03  0.11478603016E+03 -0.46908978658E+03  0.56290009218E+03  0.00000000000E+00 0.  1.
<mgrwt>
<rscale>  0 0.16254488E+04</rscale>
<asrwt>0</asrwt>
<pdfrwt beam="1">  1        2 0.23747063E+00 0.16254488E+04</pdfrwt>
<pdfrwt beam="2">  1       -1 0.65833958E-01 0.16254488E+04</pdfrwt>
<totfact> 0.30591188E+01</totfact>
</mgrwt>
</event>
<event>
12    7  0.1497947E-008  0.1448029E+04  0.7818608E-02  0.8919768E-01
         -1   -1    0    0    0  501 -0.00000000000E+00  0.00000000000E+00  0.17652390553E+03  0.17652390553E+03  0.00000000000E+00 0.  1.
          2   -1    0    0  501    0  0.00000000000E+00 -0.00000000000E+00 -0.29695509166E+04  0.29695509166E+04  0.00000000000E+00 0. -1.
         24    2    1    2    0    0 -0.23724599261E+03 -0.27593819075E+02 -0.17036036711E+04  0.17218348690E+04  0.73503524274E+02 0.  0.
        254    2    1    2    0    0  0.23724599261E+03  0.27593819075E+02 -0.10894233400E+04  0.14242399532E+04  0.88575908157E+03 0.  0.
         23    2    4    4    0    0 -0.82056916789E+02 -0.30963480130E+02  0.11520571516E+03  0.17129851945E+03  0.91535519141E+02 0.  0.
         23    2    4    4    0    0  0.31930290940E+03  0.58557299206E+02 -0.12046290552E+04  0.12529414337E+04  0.11553255177E+03 0.  0.
          4    1    3    3  502    0 -0.20681911766E+03 -0.39561698279E+02 -0.15804164661E+04  0.15943824766E+04  0.00000000000E+00 0. -1.
         -3    1    3    3    0  502 -0.30426874949E+02  0.11967879204E+02 -0.12318720498E+03  0.12745239238E+03  0.00000000000E+00 0.  1.
         13    1    5    5    0    0 -0.72281565355E+02 -0.54867536217E+02  0.11363740914E+03  0.14542534846E+03  0.00000000000E+00 0. -1.
        -13    1    5    5    0    0 -0.97753514335E+01  0.23904056086E+02  0.15683060269E+01  0.25873170985E+02  0.00000000000E+00 0.  1.
          3    1    6    6  503    0  0.31079976104E+03  0.79899457216E+02 -0.11020778565E+04  0.11478484293E+04  0.00000000000E+00 0. -1.
         -3    1    6    6    0  503  0.85031483606E+01 -0.21342158010E+02 -0.10255119866E+03  0.10509300446E+03  0.00000000000E+00 0.  1.
<mgrwt>
<rscale>  0 0.14480286E+04</rscale>
<asrwt>0</asrwt>
<pdfrwt beam="1">  1        2 0.45685394E+00 0.14480286E+04</pdfrwt>
<pdfrwt beam="2">  1       -1 0.27157527E-01 0.14480286E+04</pdfrwt>
<totfact> 0.24590444E+01</totfact>
</mgrwt>
</event>
<event>
12    7  0.1497947E-008  0.2442057E+04  0.7818608E-02  0.8423924E-01
          2   -1    0    0  501    0  0.00000000000E+00  0.00000000000E+00  0.40969400445E+04  0.40969400445E+04  0.00000000000E+00 0. -1.
         -1   -1    0    0    0  501 -0.00000000000E+00 -0.00000000000E+00 -0.36390825901E+03  0.36390825901E+03  0.00000000000E+00 0.  1.
         24    2    1    2    0    0  0.43649929311E+03  0.85389940275E+03  0.82855529595E+03  0.12697948647E+04  0.78735615448E+02 0.  0.
        254    2    1    2    0    0 -0.43649929311E+03 -0.85389940275E+03  0.29044764895E+04  0.31910534387E+04  0.90948477061E+03 0.  0.
         23    2    4    4    0    0 -0.37996762098E+03  0.51218310556E+02  0.67720346845E+03  0.78387549240E+03  0.94114513153E+02 0.  0.
         23    2    4    4    0    0 -0.56531672132E+02 -0.90511771331E+03  0.22272730211E+04  0.24071779463E+04  0.10642673610E+03 0.  0.
          2    1    3    3  502    0  0.29204778729E+03  0.60193067990E+03  0.53274065817E+03  0.85523392259E+03  0.00000000000E+00 0. -1.
         -1    1    3    3    0  502  0.14445150582E+03  0.25196872284E+03  0.29581463778E+03  0.41456094214E+03  0.00000000000E+00 0.  1.
         13    1    5    5    0    0  0.11519994295E+01  0.30327006738E+01  0.37850589875E+02  0.37989360746E+02  0.00000000000E+00 0. -1.
        -13    1    5    5    0    0 -0.38111962041E+03  0.48185609882E+02  0.63935287857E+03  0.74588613166E+03  0.00000000000E+00 0.  1.
          2    1    6    6  503    0 -0.20947676751E+02 -0.50090527189E+02  0.18644894263E+03  0.19419339402E+03  0.00000000000E+00 0. -1.
         -2    1    6    6    0  503 -0.35583995381E+02 -0.85502718612E+03  0.20408240784E+04  0.22129845523E+04  0.00000000000E+00 0.  1.
<mgrwt>
<rscale>  0 0.24420568E+04</rscale>
<asrwt>0</asrwt>
<pdfrwt beam="1">  1        2 0.63029844E+00 0.24420568E+04</pdfrwt>
<pdfrwt beam="2">  1       -1 0.55985889E-01 0.24420568E+04</pdfrwt>
<totfact> 0.94083888E-01</totfact>
</mgrwt>
</event>
<event>
11    7  0.1497947E-008  0.2497790E+04  0.7818608E-02  0.8403773E-01
          2   -1    0    0  501    0  0.00000000000E+00  0.00000000000E+00  0.11907233921E+04  0.11907233921E+04  0.00000000000E+00 0. -1.
         -1   -1    0    0    0  501 -0.00000000000E+00 -0.00000000000E+00 -0.13099088631E+04  0.13099088631E+04  0.00000000000E+00 0.  1.
         24    2    1    2    0    0  0.10126372822E+04  0.22706738666E+03  0.26244382755E+03  0.10740372530E+04  0.87666383382E+02 0.  0.
        254    2    1    2    0    0 -0.10126372822E+04 -0.22706738666E+03 -0.38162929853E+03  0.14265950021E+04  0.90140918300E+03 0.  0.
         23    2    4    4    0    0 -0.10941127624E+04 -0.11288454431E+03 -0.38002226435E+03  0.11674183732E+04  0.92860538448E+02 0.  0.
          2    1    3    3  502    0  0.87709732991E+03  0.21964781736E+03  0.24769522722E+03  0.93749550153E+03  0.00000000000E+00 0. -1.
         -1    1    3    3    0  502  0.13553995231E+03  0.74195692998E+01  0.14748600332E+02  0.13654175146E+03  0.00000000000E+00 0.  1.
         13    1    5    5    0    0 -0.50182392622E+03 -0.36187888669E+02 -0.21995870013E+03  0.54910713524E+03  0.00000000000E+00 0. -1.
        -13    1    5    5    0    0 -0.59228883618E+03 -0.76696655644E+02 -0.16006356423E+03  0.61831123800E+03  0.00000000000E+00 0.  1.
          2    1    4    4  503    0  0.68868117089E+02  0.30403420041E+02 -0.66264809023E+02  0.10029062975E+03  0.00000000000E+00 0.  1.
         -2    1    4    4    0  503  0.12607363084E+02 -0.14458626238E+03  0.64657774848E+02  0.15888599914E+03  0.00000000000E+00 0. -1.
<mgrwt>
<rscale>  0 0.24977903E+04</rscale>
<asrwt>0</asrwt>
<pdfrwt beam="1">  1        2 0.18318821E+00 0.24977903E+04</pdfrwt>
<pdfrwt beam="2">  1       -1 0.20152444E+00 0.24977903E+04</pdfrwt>
<totfact> 0.28653460E+00</totfact>
</mgrwt>
</event>
<event>
11    7  0.1497947E-008  0.2512742E+04  0.7818608E-02  0.8398460E-01
         -1   -1    0    0    0  501 -0.00000000000E+00  0.00000000000E+00  0.11004904175E+04  0.11004904175E+04  0.00000000000E+00 0.  1.
          2   -1    0    0  501    0  0.00000000000E+00 -0.00000000000E+00 -0.14343309680E+04  0.14343309680E+04  0.00000000000E+00 0. -1.
         24    2    1    2    0    0 -0.62817287780E+03 -0.19604270046E+03 -0.10242549410E+04  0.12200078517E+04  0.79291040902E+02 0.  0.
        254    2    1    2    0    0  0.62817287780E+03  0.19604270046E+03  0.69041439054E+03  0.13148135338E+04  0.90500204050E+03 0.  0.
         23    2    4    4    0    0  0.39845841921E+03  0.23313813287E+03 -0.49999191489E+02  0.47330372539E+03  0.91618756154E+02 0.  0.
          2    1    3    3  502    0 -0.48210829636E+03 -0.11782180120E+03 -0.74087314080E+03  0.89174177710E+03  0.00000000000E+00 0. -1.
         -1    1    3    3    0  502 -0.14606458143E+03 -0.78220899255E+02 -0.28338180022E+03  0.32826607459E+03  0.00000000000E+00 0.  1.
         13    1    5    5    0    0  0.19308513119E+03  0.14936068667E+03 -0.59637113722E+02  0.25129080353E+03  0.00000000000E+00 0.  1.
        -13    1    5    5    0    0  0.20537328802E+03  0.83777446203E+02  0.96379222333E+01  0.22201292185E+03  0.00000000000E+00 0. -1.
          4    1    4    4  503    0  0.17832239534E+03 -0.11372034758E+03  0.19282825616E+03  0.28620609796E+03  0.00000000000E+00 0. -1.
         -4    1    4    4    0  503  0.51392063246E+02  0.76624915162E+02  0.54758532586E+03  0.55530371049E+03  0.00000000000E+00 0.  1.
<mgrwt>
<rscale>  0 0.25127415E+04</rscale>
<asrwt>0</asrwt>
<pdfrwt beam="1">  1        2 0.22066630E+00 0.25127415E+04</pdfrwt>
<pdfrwt beam="2">  1       -1 0.16930622E+00 0.25127415E+04</pdfrwt>
<totfact> 0.34951982E+00</totfact>
</mgrwt>
</event>
<event>
12    7  0.1497947E-008  0.1244876E+04  0.7818608E-02  0.9074459E-01
         -1   -1    0    0    0  501 -0.00000000000E+00  0.00000000000E+00  0.21703635185E+03  0.21703635185E+03  0.00000000000E+00 0.  1.
          2   -1    0    0  501    0  0.00000000000E+00 -0.00000000000E+00 -0.17850890551E+04  0.17850890551E+04  0.00000000000E+00 0. -1.
         24    2    1    2    0    0 -0.15612002316E+03 -0.11208995022E+03 -0.73673377630E+03  0.76567592673E+03  0.80903331630E+02 0.  0.
        254    2    1    2    0    0  0.15612002316E+03  0.11208995022E+03 -0.83131892697E+03  0.12364494802E+04  0.89486230241E+03 0.  0.
         23    2    4    4    0    0 -0.24029170368E+03  0.23816821856E+03 -0.57770715360E+02  0.35482400660E+03  0.89991204667E+02 0.  0.
         23    2    4    4    0    0  0.39641172683E+03 -0.12607826834E+03 -0.77354821161E+03  0.88162547365E+03  0.76476487746E+02 0.  0.
          2    1    3    3  502    0 -0.66425628473E+02 -0.61902088488E+02 -0.49081265085E+03  0.49914055226E+03  0.00000000000E+00 0. -1.
         -1    1    3    3    0  502 -0.89694394685E+02 -0.50187861733E+02 -0.24592112545E+03  0.26653537447E+03  0.00000000000E+00 0.  1.
         13    1    5    5    0    0 -0.12074737093E+03  0.62376620123E+02 -0.39090020915E+02  0.14141711374E+03  0.00000000000E+00 0.  1.
        -13    1    5    5    0    0 -0.11954433274E+03  0.17579159843E+03 -0.18680694445E+02  0.21340689285E+03  0.00000000000E+00 0. -1.
          3    1    6    6  503    0  0.14828427947E+02 -0.23252583398E+02 -0.44439338089E+02  0.52301239755E+02  0.00000000000E+00 0. -1.
         -3    1    6    6    0  503  0.38158329889E+03 -0.10282568494E+03 -0.72910887352E+03  0.82932423389E+03  0.00000000000E+00 0.  1.
<mgrwt>
<rscale>  0 0.12448762E+04</rscale>
<asrwt>0</asrwt>
<pdfrwt beam="1">  1        2 0.27462909E+00 0.12448762E+04</pdfrwt>
<pdfrwt beam="2">  1       -1 0.33390207E-01 0.12448762E+04</pdfrwt>
<totfact> 0.83225833E+01</totfact>
</mgrwt>
</event>
<event>
12    7  0.1497947E-008  0.2818048E+04  0.7818608E-02  0.8297687E-01
         -1   -1    0    0    0  501 -0.00000000000E+00  0.00000000000E+00  0.70808480323E+03  0.70808480323E+03  0.00000000000E+00 0.  1.
          2   -1    0    0  501    0  0.00000000000E+00 -0.00000000000E+00 -0.28038296918E+04  0.28038296918E+04  0.00000000000E+00 0. -1.
         24    2    1    2    0    0 -0.88082181840E+03 -0.75656859682E+03 -0.15698513629E+04  0.19543285911E+04  0.81998920248E+02 0.  0.
        254    2    1    2    0    0  0.88082181840E+03  0.75656859682E+03 -0.52589352565E+03  0.15575859039E+04  0.89513503466E+03 0.  0.
         23    2    4    4    0    0  0.81773715421E+03  0.20663786829E+03 -0.51880502172E+03  0.99419020057E+03  0.88669286422E+02 0.  0.
         23    2    4    4    0    0  0.63084664185E+02  0.54993072853E+03 -0.70885039340E+01  0.56339570334E+03  0.10469474972E+03 0.  0.
          4    1    3    3  502    0 -0.18825509690E+03 -0.14627902711E+03 -0.27215391330E+03  0.36180835784E+03  0.00000000000E+00 0. -1.
         -3    1    3    3    0  502 -0.69256672149E+03 -0.61028956971E+03 -0.12976974496E+04  0.15925202332E+04  0.00000000000E+00 0.  1.
         13    1    5    5    0    0  0.81959034287E+03  0.20512736362E+03 -0.51431511494E+03  0.98910343387E+03  0.00000000000E+00 0.  1.
        -13    1    5    5    0    0 -0.18531886619E+01  0.15105046650E+01 -0.44899067749E+01  0.50867666948E+01  0.00000000000E+00 0. -1.
          1    1    6    6  503    0  0.18278362398E+02  0.89123901330E+01  0.21317455265E+01  0.20446847406E+02  0.00000000000E+00 0. -1.
         -1    1    6    6    0  503  0.44806301787E+02  0.54101833840E+03 -0.92202494605E+01  0.54294885594E+03  0.00000000000E+00 0.  1.
<mgrwt>
<rscale>  0 0.28180484E+04</rscale>
<asrwt>0</asrwt>
<pdfrwt beam="1">  1        2 0.43135842E+00 0.28180484E+04</pdfrwt>
<pdfrwt beam="2">  1       -1 0.10893612E+00 0.28180484E+04</pdfrwt>
<totfact> 0.17731488E+00</totfact>
</mgrwt>
</event>
<event>
11    7  0.1497947E-008  0.1787126E+04  0.7818608E-02  0.8713176E-01
         -1   -1    0    0    0  501 -0.00000000000E+00  0.00000000000E+00  0.49587700715E+03  0.49587700715E+03  0.00000000000E+00 0.  1.
          2   -1    0    0  501    0  0.00000000000E+00 -0.00000000000E+00 -0.16101867546E+04  0.16101867546E+04  0.00000000000E+00 0. -1.
         24    2    1    2    0    0 -0.61990723204E+03  0.16461607373E+02 -0.14269471420E+03  0.64053659095E+03  0.73276067287E+02 0.  0.
        254    2    1    2    0    0  0.61990723204E+03 -0.16461607373E+02 -0.97161503323E+03  0.14655271708E+04  0.90508461187E+03 0.  0.
         23    2    4    4    0    0  0.52317804467E+03  0.81117920995E+02 -0.10923314079E+04  0.12171992665E+04  0.89948686382E+02 0.  0.
          2    1    3    3  502    0 -0.32794600084E+03  0.21196016097E+02 -0.11077203719E+03  0.34679719548E+03  0.00000000000E+00 0. -1.
         -1    1    3    3    0  502 -0.29196123119E+03 -0.47344087237E+01 -0.31922677013E+02  0.29373939547E+03  0.00000000000E+00 0.  1.
         13    1    5    5    0    0  0.22820465825E+03  0.30742816725E+02 -0.37643468236E+03  0.44127718830E+03  0.00000000000E+00 0.  1.
        -13    1    5    5    0    0  0.29497338642E+03  0.50375104270E+02 -0.71589672550E+03  0.77592207818E+03  0.00000000000E+00 0. -1.
          4    1    4    4  503    0  0.67296989158E+02 -0.40365265776E+01 -0.25662317019E+02  0.72136903256E+02  0.00000000000E+00 0. -1.
         -4    1    4    4    0  503  0.29432198206E+02 -0.93543001791E+02  0.14637869166E+03  0.17619100104E+03  0.00000000000E+00 0.  1.
<mgrwt>
<rscale>  0 0.17871257E+04</rscale>
<asrwt>0</asrwt>
<pdfrwt beam="1">  1        2 0.24772103E+00 0.17871257E+04</pdfrwt>
<pdfrwt beam="2">  1       -1 0.76288772E-01 0.17871257E+04</pdfrwt>
<totfact> 0.20441285E+01</totfact>
</mgrwt>
</event>
<event>
11    7  0.1497947E-008  0.3327289E+04  0.7818608E-02  0.8155986E-01
         -1   -1    0    0    0  501 -0.00000000000E+00  0.00000000000E+00  0.11413997264E+04  0.11413997264E+04  0.00000000000E+00 0.  1.
          2   -1    0    0  501    0  0.00000000000E+00 -0.00000000000E+00 -0.24248407944E+04  0.24248407944E+04  0.00000000000E+00 0. -1.
         24    2    1    2    0    0  0.13907436009E+04  0.50429642475E+03 -0.10469486951E+04  0.18140931586E+04  0.79685446134E+02 0.  0.
        254    2    1    2    0    0 -0.13907436009E+04 -0.50429642475E+03 -0.23649237286E+03  0.17521473623E+04  0.90863033689E+03 0.  0.
         23    2    4    4    0    0 -0.11385378764E+04 -0.26893859568E+03  0.13595477590E+03  0.11812508716E+04  0.90958541992E+02 0.  0.
          2    1    3    3  502    0  0.75494145586E+03  0.27601665440E+03 -0.52020004045E+03  0.95746011789E+03  0.00000000000E+00 0. -1.
         -1    1    3    3    0  502  0.63580214507E+03  0.22827977035E+03 -0.52674865466E+03  0.85663304070E+03  0.00000000000E+00 0.  1.
         13    1    5    5    0    0 -0.11038276047E+04 -0.24376116080E+03  0.13384798916E+03  0.11383190100E+04  0.00000000000E+00 0. -1.
        -13    1    5    5    0    0 -0.34710271725E+02 -0.25177434879E+02  0.21067867402E+01  0.42931861603E+02  0.00000000000E+00 0.  1.
          4    1    4    4  503    0 -0.28653795179E+03 -0.12048399047E+03 -0.29226850770E+03  0.42666294704E+03  0.00000000000E+00 0. -1.
         -4    1    4    4    0  503  0.34332227253E+02 -0.11487383860E+03 -0.80178641060E+02  0.14423354362E+03  0.00000000000E+00 0.  1.
<mgrwt>
<rscale>  0 0.33272888E+04</rscale>
<asrwt>0</asrwt>
<pdfrwt beam="1">  1        2 0.37305242E+00 0.33272888E+04</pdfrwt>
<pdfrwt beam="2">  1       -1 0.17559996E+00 0.33272888E+04</pdfrwt>
<totfact> 0.81582985E-01</totfact>
</mgrwt>
</event>
<event>
12    7  0.1497947E-008  0.1286498E+04  0.7818608E-02  0.9040341E-01
          4   -1    0    0  501    0  0.00000000000E+00  0.00000000000E+00  0.86685815966E+03  0.86685815966E+03  0.00000000000E+00 0. -1.
         -3   -1    0    0    0  501 -0.00000000000E+00 -0.00000000000E+00 -0.47732093562E+03  0.47732093562E+03  0.00000000000E+00 0.  1.
         24    2    1    2    0    0 -0.15576324086E+03  0.14456100579E+03  0.36432360848E+03  0.42936528214E+03  0.80391431210E+02 0.  0.
        254    2    1    2    0    0  0.15576324086E+03 -0.14456100579E+03  0.25213615568E+02  0.91481381314E+03  0.88943156831E+03 0.  0.
         23    2    4    4    0    0 -0.22322823916E+03 -0.37279355228E+03 -0.73012035787E+02  0.44980642924E+03  0.90494127045E+02 0.  0.
         23    2    4    4    0    0  0.37899148002E+03  0.22823254649E+03  0.98225651356E+02  0.46500738391E+03  0.10420629205E+03 0.  0.
          4    1    3    3  502    0 -0.12891836828E+03  0.74297851485E+02  0.20638461760E+03  0.25443020024E+03  0.00000000000E+00 0. -1.
         -3    1    3    3    0  502 -0.26844872580E+02  0.70263154309E+02  0.15793899088E+03  0.17493508189E+03  0.00000000000E+00 0.  1.
         13    1    5    5    0    0 -0.97815193813E+01 -0.67961024712E+02  0.74830315229E+01  0.69067899650E+02  0.00000000000E+00 0.  1.
        -13    1    5    5    0    0 -0.21344671978E+03 -0.30483252757E+03 -0.80495067310E+02  0.38073852958E+03  0.00000000000E+00 0. -1.
          1    1    6    6  503    0  0.34082043938E+03  0.19035026882E+03  0.51482213852E+02  0.39375400325E+03  0.00000000000E+00 0. -1.
         -1    1    6    6    0  503  0.38171040643E+02  0.37882277672E+02  0.46743437504E+02  0.71253380657E+02  0.00000000000E+00 0.  1.
<mgrwt>
<rscale>  0 0.12864984E+04</rscale>
<asrwt>0</asrwt>
<pdfrwt beam="1">  1        4 0.13336279E+00 0.12864984E+04</pdfrwt>
<pdfrwt beam="2">  1       -3 0.73433990E-01 0.12864984E+04</pdfrwt>
<totfact> 0.15968857E+00</totfact>
</mgrwt>
</event>
<event>
12    7  0.1497947E-008  0.1935530E+04  0.7818608E-02  0.8637370E-01
         -1   -1    0    0    0  501 -0.00000000000E+00  0.00000000000E+00  0.13489659193E+04  0.13489659193E+04  0.00000000000E+00 0.  1.
          2   -1    0    0  501    0  0.00000000000E+00 -0.00000000000E+00 -0.69428701767E+03  0.69428701767E+03  0.00000000000E+00 0. -1.
         24    2    1    2    0    0 -0.37405661082E+03 -0.65253036070E+03  0.37220563000E+03  0.84298613888E+03  0.79839711922E+02 0.  0.
        254    2    1    2    0    0  0.37405661082E+03  0.65253036070E+03  0.28247327164E+03  0.12002667981E+04  0.89170343595E+03 0.  0.
         23    2    4    4    0    0  0.42891060876E+03 -0.38947017719E+02  0.22759272369E+03  0.49560430883E+03  0.91345511997E+02 0.  0.
         23    2    4    4    0    0 -0.54853997945E+02  0.69147737842E+03  0.54880547950E+02  0.70466248927E+03  0.11129880176E+03 0.  0.
          2    1    3    3  502    0 -0.95124963596E+02 -0.17275977213E+03  0.59550134466E+02  0.20601193189E+03  0.00000000000E+00 0. -1.
         -1    1    3    3    0  502 -0.27893164722E+03 -0.47977058858E+03  0.31265549553E+03  0.63697420699E+03  0.00000000000E+00 0.  1.
         13    1    5    5    0    0  0.22353288610E+03 -0.21755550462E+02  0.67129201611E+02  0.23440687885E+03  0.00000000000E+00 0.  1.
        -13    1    5    5    0    0  0.20537772266E+03 -0.17191467257E+02  0.16046352207E+03  0.26119742998E+03  0.00000000000E+00 0. -1.
          3    1    6    6  503    0 -0.76786650909E+02  0.63370696156E+03  0.33304714631E+02  0.63921037766E+03  0.00000000000E+00 0. -1.
         -3    1    6    6    0  503  0.21932652965E+02  0.57770416861E+02  0.21575833319E+02  0.65452111606E+02  0.00000000000E+00 0.  1.
<mgrwt>
<rscale>  0 0.19355304E+04</rscale>
<asrwt>0</asrwt>
<pdfrwt beam="1">  1        2 0.10681339E+00 0.19355304E+04</pdfrwt>
<pdfrwt beam="2">  1       -1 0.20753322E+00 0.19355304E+04</pdfrwt>
<totfact> 0.58975786E+00</totfact>
</mgrwt>
</event>
<event>
11    7  0.1497947E-008  0.1659141E+04  0.7818608E-02  0.8785017E-01
         -1   -1    0    0    0  501 -0.00000000000E+00  0.00000000000E+00  0.17355083237E+04  0.17355083237E+04  0.00000000000E+00 0.  1.
          2   -1    0    0  501    0  0.00000000000E+00 -0.00000000000E+00 -0.39653344856E+03  0.39653344856E+03  0.00000000000E+00 0. -1.
         24    2    1    2    0    0 -0.50563628449E+03 -0.95377432833E+02  0.28068316064E+03  0.59145793972E+03  0.79212062848E+02 0.  0.
        254    2    1    2    0    0  0.50563628449E+03  0.95377432833E+02  0.10582917145E+04  0.15405838325E+04  0.99430995430E+03 0.  0.
         23    2    4    4    0    0  0.43106554123E+03  0.11853836779E+03  0.53350645668E+02  0.45710259739E+03  0.78915446358E+02 0.  0.
          4    1    3    3  502    0 -0.34063419680E+03 -0.96348178940E+02  0.16946636498E+03  0.39247098806E+03  0.00000000000E+00 0. -1.
         -3    1    3    3    0  502 -0.16500208769E+03  0.97074610676E+00  0.11121679566E+03  0.19898695165E+03  0.00000000000E+00 0.  1.
         13    1    5    5    0    0  0.35400627310E+03  0.74906975730E+02  0.65480428230E+02  0.36772161058E+03  0.00000000000E+00 0. -1.
        -13    1    5    5    0    0  0.77059268125E+02  0.43631392064E+02 -0.12129782562E+02  0.89380986806E+02  0.00000000000E+00 0.  1.
          3    1    4    4  503    0  0.39962275747E+01  0.13440570834E+03  0.81813100811E+03  0.82910747838E+03  0.00000000000E+00 0. -1.
         -3    1    4    4    0  503  0.70574515686E+02 -0.15756664330E+03  0.18681006072E+03  0.25437375677E+03  0.00000000000E+00 0.  1.
<mgrwt>
<rscale>  0 0.16591409E+04</rscale>
<asrwt>0</asrwt>
<pdfrwt beam="1">  1        2 0.61005147E-01 0.16591409E+04</pdfrwt>
<pdfrwt beam="2">  1       -1 0.26700128E+00 0.16591409E+04</pdfrwt>
<totfact> 0.47409889E+00</totfact>
</mgrwt>
</event>
<event>
12    7  0.1497947E-008  0.3347460E+04  0.7818608E-02  0.8150923E-01
          2   -1    0    0  501    0  0.00000000000E+00  0.00000000000E+00  0.17138859061E+04  0.17138859061E+04  0.00000000000E+00 0. -1.
         -1   -1    0    0    0  501 -0.00000000000E+00 -0.00000000000E+00 -0.16345151748E+04  0.16345151748E+04  0.00000000000E+00 0.  1.
         24    2    1    2    0    0 -0.96085551975E+03 -0.14196695884E+03  0.12481149250E+04  0.15835208312E+04  0.79683181129E+02 0.  0.
        254    2    1    2    0    0  0.96085551975E+03  0.14196695884E+03 -0.11687441937E+04  0.17648802498E+04  0.89746384809E+03 0.  0.
         23    2    4    4    0    0  0.69730067442E+03  0.49929021663E+03 -0.78024945631E+03  0.11629874319E+04  0.90728174582E+02 0.  0.
         23    2    4    4    0    0  0.26355484533E+03 -0.35732325779E+03 -0.38849473739E+03  0.60189281793E+03  0.11918781922E+03 0.  0.
          4    1    3    3  502    0 -0.95512813145E+03 -0.13490817290E+03  0.12288880728E+04  0.15622534551E+04  0.00000000000E+00 0. -1.
         -3    1    3    3    0  502 -0.57273882999E+01 -0.70587859435E+01  0.19226852254E+02  0.21267376033E+02  0.00000000000E+00 0.  1.
         13    1    5    5    0    0  0.25080023139E+03  0.22815830521E+03 -0.28018087798E+03  0.43983893948E+03  0.00000000000E+00 0. -1.
        -13    1    5    5    0    0  0.44650044304E+03  0.27113191142E+03 -0.50006857832E+03  0.72314849239E+03  0.00000000000E+00 0.  1.
          2    1    6    6  503    0  0.44792881028E+02 -0.15580428586E+03 -0.12913842498E+03  0.20726338434E+03  0.00000000000E+00 0. -1.
         -2    1    6    6    0  503  0.21876196430E+03 -0.20151897193E+03 -0.25935631241E+03  0.39462943360E+03  0.00000000000E+00 0.  1.
<mgrwt>
<rscale>  0 0.33474602E+04</rscale>
<asrwt>0</asrwt>
<pdfrwt beam="1">  1        2 0.26367476E+00 0.33474602E+04</pdfrwt>
<pdfrwt beam="2">  1       -1 0.25146387E+00 0.33474602E+04</pdfrwt>
<totfact> 0.62212604E-01</totfact>
</mgrwt>
</event>
<event>
11    7  0.1497947E-008  0.2767427E+04  0.7818608E-02  0.8313453E-01
         -1   -1    0    0    0  501 -0.00000000000E+00  0.00000000000E+00  0.10130713094E+04  0.10130713094E+04  0.00000000000E+00 0.  1.
          2   -1    0    0  501    0  0.00000000000E+00 -0.00000000000E+00 -0.18899590975E+04  0.18899590975E+04  0.00000000000E+00 0. -1.
         24    2    1    2    0    0  0.85852364324E+03  0.35686542752E+03  0.46173137192E+03  0.10411919990E+04  0.80430961113E+02 0.  0.
        254    2    1    2    0    0 -0.85852364324E+03 -0.35686542752E+03 -0.13386191600E+04  0.18618384079E+04  0.90006956512E+03 0.  0.
         23    2    4    4    0    0 -0.90974741983E+03 -0.29980187586E+03 -0.14365761107E+04  0.17289993747E+04  0.90368044649E+02 0.  0.
          2    1    3    3  502    0  0.14339666157E+03  0.92426915552E+02  0.91843535368E+02  0.19375389611E+03  0.00000000000E+00 0. -1.
         -1    1    3    3    0  502  0.71512698167E+03  0.26443851197E+03  0.36988783655E+03  0.84743810284E+03  0.00000000000E+00 0.  1.
         13    1    5    5    0    0 -0.54585177186E+02 -0.40453259941E+02 -0.11738131763E+03  0.13562588815E+03  0.00000000000E+00 0. -1.
        -13    1    5    5    0    0 -0.85516224265E+03 -0.25934861592E+03 -0.13191947930E+04  0.15933734866E+04  0.00000000000E+00 0.  1.
          4    1    4    4  503    0  0.25186050374E+02 -0.58011150446E+02  0.75076875405E+02  0.98163984893E+02  0.00000000000E+00 0. -1.
         -4    1    4    4    0  503  0.26037726218E+02  0.94759878459E+00  0.22880075201E+02  0.34675048251E+02  0.00000000000E+00 0.  1.
<mgrwt>
<rscale>  0 0.27674272E+04</rscale>
<asrwt>0</asrwt>
<pdfrwt beam="1">  1        2 0.29076294E+00 0.27674272E+04</pdfrwt>
<pdfrwt beam="2">  1       -1 0.15585712E+00 0.27674272E+04</pdfrwt>
<totfact> 0.24001776E+00</totfact>
</mgrwt>
</event>
<event>
12    7  0.1497947E-008  0.2767085E+04  0.7818608E-02  0.8313560E-01
          2   -1    0    0  501    0  0.00000000000E+00  0.00000000000E+00  0.15199434002E+04  0.15199434002E+04  0.00000000000E+00 0. -1.
         -1   -1    0    0    0  501 -0.00000000000E+00 -0.00000000000E+00 -0.12593826639E+04  0.12593826639E+04  0.00000000000E+00 0.  1.
         24    2    1    2    0    0 -0.35913567926E+03 -0.40182057700E+03  0.12397556208E+04  0.13544749800E+04  0.84677387479E+02 0.  0.
        254    2    1    2    0    0  0.35913567926E+03  0.40182057700E+03 -0.97919488454E+03  0.14248510841E+04  0.88370797084E+03 0.  0.
         23    2    4    4    0    0 -0.12307003946E+03 -0.14281284479E+03 -0.17217732929E+02  0.21391210957E+03  0.99600185963E+02 0.  0.
         23    2    4    4    0    0  0.48220571871E+03  0.54463342179E+03 -0.96197715161E+03  0.12109389745E+04  0.10874392174E+03 0.  0.
          2    1    3    3  502    0 -0.28390340119E+03 -0.36272890870E+03  0.10575416604E+04  0.11535023909E+04  0.00000000000E+00 0. -1.
         -1    1    3    3    0  502 -0.75232278073E+02 -0.39091668297E+02  0.18221396038E+03  0.20097258906E+03  0.00000000000E+00 0.  1.
         13    1    5    5    0    0 -0.12302308892E+02 -0.16671675549E+02 -0.39463872328E+02  0.44572287229E+02  0.00000000000E+00 0. -1.
        -13    1    5    5    0    0 -0.11076773056E+03 -0.12614116924E+03  0.22246139399E+02  0.16933982234E+03  0.00000000000E+00 0.  1.
          2    1    6    6  503    0  0.10076604654E+03  0.79061401956E+02 -0.11668454044E+03  0.17326218108E+03  0.00000000000E+00 0. -1.
         -2    1    6    6    0  503  0.38143967218E+03  0.46557201984E+03 -0.84529261117E+03  0.10376767935E+04  0.00000000000E+00 0.  1.
<mgrwt>
<rscale>  0 0.27670854E+04</rscale>
<asrwt>0</asrwt>
<pdfrwt beam="1">  1        2 0.23383745E+00 0.27670854E+04</pdfrwt>
<pdfrwt beam="2">  1       -1 0.19375118E+00 0.27670854E+04</pdfrwt>
<totfact> 0.20440583E+00</totfact>
</mgrwt>
</event>
<event>
11    7  0.1497947E-008  0.1793547E+04  0.7818608E-02  0.8709739E-01
         -1   -1    0    0    0  501 -0.00000000000E+00  0.00000000000E+00  0.82646326011E+03  0.82646326011E+03  0.00000000000E+00 0.  1.
          2   -1    0    0  501    0  0.00000000000E+00 -0.00000000000E+00 -0.97306505883E+03  0.97306505883E+03  0.00000000000E+00 0. -1.
         24    2    1    2    0    0 -0.46442628267E+03 -0.13513509416E+02 -0.53618202462E+03  0.71402772038E+03  0.80436527646E+02 0.  0.
        254    2    1    2    0    0  0.46442628267E+03  0.13513509416E+02  0.38958022590E+03  0.10855005986E+04  0.90036904105E+03 0.  0.
         23    2    4    4    0    0 -0.17586814749E+02  0.16547354851E+02 -0.21451894806E+03  0.23455719641E+03  0.91736515662E+02 0.  0.
          2    1    3    3  502    0 -0.40385065332E+03  0.15032140839E+02 -0.47037755124E+03  0.62014220640E+03  0.00000000000E+00 0. -1.
         -1    1    3    3    0  502 -0.60575629357E+02 -0.28545650255E+02 -0.65804473375E+02  0.93885513987E+02  0.00000000000E+00 0.  1.
         13    1    5    5    0    0  0.12614714941E+02  0.32329824310E+02 -0.27007390914E+02  0.43974398653E+02  0.00000000000E+00 0. -1.
        -13    1    5    5    0    0 -0.30201529689E+02 -0.15782469459E+02 -0.18751155715E+03  0.19058279776E+03  0.00000000000E+00 0.  1.
          2    1    4    4  503    0  0.49213359575E+03 -0.98521618957E+02  0.52741502067E+03  0.72805809486E+03  0.00000000000E+00 0.  1.
         -2    1    4    4    0  503 -0.10120498332E+02  0.95487773522E+02  0.76684153293E+02  0.12288530728E+03  0.00000000000E+00 0. -1.
<mgrwt>
<rscale>  0 0.17935468E+04</rscale>
<asrwt>0</asrwt>
<pdfrwt beam="1">  1        2 0.14970232E+00 0.17935468E+04</pdfrwt>
<pdfrwt beam="2">  1       -1 0.12714819E+00 0.17935468E+04</pdfrwt>
<totfact> 0.15156324E+01</totfact>
</mgrwt>
</event>
<event>
12    7  0.1497947E-008  0.3816322E+04  0.7818608E-02  0.8042661E-01
          2   -1    0    0  501    0  0.00000000000E+00  0.00000000000E+00  0.19582255012E+04  0.19582255012E+04  0.00000000000E+00 0. -1.
         -1   -1    0    0    0  501 -0.00000000000E+00 -0.00000000000E+00 -0.18593765283E+04  0.18593765283E+04  0.00000000000E+00 0.  1.
         24    2    1    2    0    0  0.70752920616E+03  0.10764071371E+04  0.13002311811E+04  0.18320548901E+04  0.81080784696E+02 0.  0.
        254    2    1    2    0    0 -0.70752920616E+03 -0.10764071371E+04 -0.12013822083E+04  0.19855471394E+04  0.91642148051E+03 0.  0.
         23    2    4    4    0    0  0.16215438342E+02 -0.78388947954E+03 -0.66039012840E+03  0.10291577731E+04  0.91131463623E+02 0.  0.
         23    2    4    4    0    0 -0.72374464450E+03 -0.29251765756E+03 -0.54099207989E+03  0.95638936628E+03  0.11240684594E+03 0.  0.
          4    1    3    3  502    0  0.57266306579E+03  0.92334285444E+03  0.11049031212E+04  0.15496179920E+04  0.00000000000E+00 0. -1.
         -3    1    3    3    0  502  0.13486614037E+03  0.15306428265E+03  0.19532805991E+03  0.28243689814E+03  0.00000000000E+00 0.  1.
         13    1    5    5    0    0  0.46225212854E+02 -0.66808530859E+03 -0.56313882448E+03  0.87498576302E+03  0.00000000000E+00 0.  1.
        -13    1    5    5    0    0 -0.30009774512E+02 -0.11580417095E+03 -0.97251303920E+02  0.15417201007E+03  0.00000000000E+00 0. -1.
          4    1    6    6  503    0 -0.27706148095E+03 -0.69431804858E+02 -0.24241900309E+03  0.37463423871E+03  0.00000000000E+00 0. -1.
         -4    1    6    6    0  503 -0.44668316355E+03 -0.22308585270E+03 -0.29857307680E+03  0.58175512758E+03  0.00000000000E+00 0.  1.
<mgrwt>
<rscale>  0 0.38163221E+04</rscale>
<asrwt>0</asrwt>
<pdfrwt beam="1">  1        2 0.30126546E+00 0.38163221E+04</pdfrwt>
<pdfrwt beam="2">  1       -1 0.28605793E+00 0.38163221E+04</pdfrwt>
<totfact> 0.26109981E-01</totfact>
</mgrwt>
</event>
<event>
12    7  0.1497947E-008  0.1499602E+04  0.7818608E-02  0.8884718E-01
         -1   -1    0    0    0  501 -0.00000000000E+00  0.00000000000E+00  0.77904258365E+03  0.77904258365E+03  0.00000000000E+00 0.  1.
          2   -1    0    0  501    0  0.00000000000E+00 -0.00000000000E+00 -0.72165653787E+03  0.72165653787E+03  0.00000000000E+00 0. -1.
         24    2    1    2    0    0  0.41687432286E+03 -0.19645084374E+03  0.13919112815E+03  0.48756686435E+03  0.77266693944E+02 0.  0.
        254    2    1    2    0    0 -0.41687432286E+03  0.19645084374E+03 -0.81805082363E+02  0.10131322572E+04  0.89853645666E+03 0.  0.
         23    2    4    4    0    0 -0.29799213692E+03  0.42267626878E+03 -0.34781052221E+03  0.62988980791E+03  0.91293312364E+02 0.  0.
         23    2    4    4    0    0 -0.11888218593E+03 -0.22622542504E+03  0.26600543985E+03  0.38324244926E+03  0.10394692791E+03 0.  0.
          2    1    3    3  502    0  0.14718587902E+02  0.49321617063E+01  0.13504039082E+02  0.20574793327E+02  0.00000000000E+00 0. -1.
         -1    1    3    3    0  502  0.40215573496E+03 -0.20138300545E+03  0.12568708907E+03  0.46699207103E+03  0.00000000000E+00 0.  1.
         13    1    5    5    0    0 -0.53143363914E+02  0.14736131635E+03 -0.10825781319E+03  0.19041882470E+03  0.00000000000E+00 0. -1.
        -13    1    5    5    0    0 -0.24484877301E+03  0.27531495243E+03 -0.23955270903E+03  0.43947098320E+03  0.00000000000E+00 0.  1.
          3    1    6    6  503    0 -0.92769713750E+02 -0.11125965942E+03  0.87241989577E+02  0.16910380347E+03  0.00000000000E+00 0. -1.
         -3    1    6    6    0  503 -0.26112472184E+02 -0.11496576561E+03  0.17876345027E+03  0.21413864579E+03  0.00000000000E+00 0.  1.
<mgrwt>
<rscale>  0 0.14996015E+04</rscale>
<asrwt>0</asrwt>
<pdfrwt beam="1">  1        2 0.11102408E+00 0.14996015E+04</pdfrwt>
<pdfrwt beam="2">  1       -1 0.11985271E+00 0.14996015E+04</pdfrwt>
<totfact> 0.27013380E+01</totfact>
</mgrwt>
</event>
<event>
11    7  0.1497947E-008  0.1823363E+04  0.7818608E-02  0.8693973E-01
         -1   -1    0    0    0  501 -0.00000000000E+00  0.00000000000E+00  0.31370070889E+03  0.31370070889E+03  0.00000000000E+00 0.  1.
          2   -1    0    0  501    0  0.00000000000E+00 -0.00000000000E+00 -0.26495412609E+04  0.26495412609E+04  0.00000000000E+00 0. -1.
         24    2    1    2    0    0 -0.47583281613E+02 -0.67752676382E+03 -0.93047903494E+03  0.11547852099E+04  0.80193280196E+02 0.  0.
        254    2    1    2    0    0  0.47583281613E+02  0.67752676382E+03 -0.14053615170E+04  0.18084567598E+04  0.91332807594E+03 0.  0.
         23    2    4    4    0    0 -0.37258149388E+03  0.50724171626E+03 -0.61478805644E+03  0.88421017022E+03  0.88046252008E+02 0.  0.
          2    1    3    3  502    0  0.12644131959E+02 -0.96061942418E+02 -0.16888824404E+03  0.19470749813E+03  0.00000000000E+00 0. -1.
         -1    1    3    3    0  502 -0.60227413571E+02 -0.58146482140E+03 -0.76159079090E+03  0.96007771178E+03  0.00000000000E+00 0.  1.
         13    1    5    5    0    0 -0.12852514180E+03  0.21668743970E+03 -0.29530098887E+03  0.38816856214E+03  0.00000000000E+00 0.  1.
        -13    1    5    5    0    0 -0.24405635207E+03  0.29055427655E+03 -0.31948706757E+03  0.49604160809E+03  0.00000000000E+00 0. -1.
          3    1    4    4  503    0  0.18799198724E+03  0.15694529545E+03 -0.37109047018E+03  0.44461325901E+03  0.00000000000E+00 0. -1.
         -3    1    4    4    0  503  0.23217278825E+03  0.13339752108E+02 -0.41948299041E+03  0.47963333061E+03  0.00000000000E+00 0.  1.
<mgrwt>
<rscale>  0 0.18233628E+04</rscale>
<asrwt>0</asrwt>
<pdfrwt beam="1">  1        2 0.40762171E+00 0.18233628E+04</pdfrwt>
<pdfrwt beam="2">  1       -1 0.48261650E-01 0.18233628E+04</pdfrwt>
<totfact> 0.13126894E+01</totfact>
</mgrwt>
</event>
<event>
11    7  0.1497947E-008  0.1620456E+04  0.7818608E-02  0.8808079E-01
          2   -1    0    0  501    0  0.00000000000E+00  0.00000000000E+00  0.90821085877E+03  0.90821085877E+03  0.00000000000E+00 0. -1.
         -1   -1    0    0    0  501 -0.00000000000E+00 -0.00000000000E+00 -0.72281602770E+03  0.72281602770E+03  0.00000000000E+00 0.  1.
         24    2    1    2    0    0  0.30779527575E+03  0.15143307390E+03  0.50432710620E+03  0.61526561815E+03  0.80845798810E+02 0.  0.
        254    2    1    2    0    0 -0.30779527575E+03 -0.15143307390E+03 -0.31893227512E+03  0.10157612683E+04  0.90132305555E+03 0.  0.
         23    2    4    4    0    0 -0.45674305421E+03 -0.36864286577E+03 -0.24300077938E+02  0.59369793451E+03  0.85877608257E+02 0.  0.
          2    1    3    3  502    0  0.30315632310E+03  0.13988079293E+03  0.50154510362E+03  0.60250965422E+03  0.00000000000E+00 0. -1.
         -1    1    3    3    0  502  0.46389526499E+01  0.11552280975E+02  0.27820025800E+01  0.12755963929E+02  0.00000000000E+00 0.  1.
         13    1    5    5    0    0 -0.27798524462E+03 -0.19669672032E+03 -0.50599483001E+02  0.34427562169E+03  0.00000000000E+00 0. -1.
        -13    1    5    5    0    0 -0.17875780959E+03 -0.17194614545E+03  0.26299405063E+02  0.24942231282E+03  0.00000000000E+00 0.  1.
          1    1    4    4  503    0  0.25954048426E+02  0.12658894346E+03 -0.60953748970E+02  0.14287663472E+03  0.00000000000E+00 0. -1.
         -1    1    4    4    0  503  0.12299373003E+03  0.90620848410E+02 -0.23367844821E+03  0.27918669910E+03  0.00000000000E+00 0.  1.
<mgrwt>
<rscale>  0 0.16204559E+04</rscale>
<asrwt>0</asrwt>
<pdfrwt beam="1">  1        2 0.13972475E+00 0.16204559E+04</pdfrwt>
<pdfrwt beam="2">  1       -1 0.11120247E+00 0.16204559E+04</pdfrwt>
<totfact> 0.23531769E+01</totfact>
</mgrwt>
</event>
<event>
12    7  0.1497947E-008  0.1860400E+04  0.7818608E-02  0.8674823E-01
          2   -1    0    0  501    0  0.00000000000E+00  0.00000000000E+00  0.10918775851E+04  0.10918775851E+04  0.00000000000E+00 0. -1.
         -1   -1    0    0    0  501 -0.00000000000E+00 -0.00000000000E+00 -0.79246236514E+03  0.79246236514E+03  0.00000000000E+00 0.  1.
         24    2    1    2    0    0 -0.24118924970E+03 -0.50084043087E+03  0.64629086692E+03  0.85630158002E+03  0.80914275084E+02 0.  0.
        254    2    1    2    0    0  0.24118924970E+03  0.50084043087E+03 -0.34687564696E+03  0.10280383702E+04  0.79216588215E+03 0.  0.
         23    2    4    4    0    0  0.39040165373E+03 -0.23043321551E+02 -0.80648022682E+02  0.40990813771E+03  0.92607407372E+02 0.  0.
         23    2    4    4    0    0 -0.14921240403E+03  0.52388375242E+03 -0.26622762428E+03  0.61813023251E+03  0.12037154504E+03 0.  0.
          4    1    3    3  502    0 -0.24209891257E+03 -0.49704155831E+03  0.64819987372E+03  0.85195379596E+03  0.00000000000E+00 0. -1.
         -3    1    3    3    0  502  0.90966287370E+00 -0.37988725605E+01 -0.19090067998E+01  0.43477840605E+01  0.00000000000E+00 0.  1.
         13    1    5    5    0    0  0.39057654582E+03 -0.20746431207E+02 -0.67928896790E+02  0.39698209981E+03  0.00000000000E+00 0. -1.
        -13    1    5    5    0    0 -0.17489208744E+00 -0.22968903441E+01 -0.12719125892E+02  0.12926037906E+02  0.00000000000E+00 0.  1.
          2    1    6    6  503    0 -0.69039115643E+02  0.39958520371E+03 -0.15956052528E+03  0.43576862638E+03  0.00000000000E+00 0.  1.
         -2    1    6    6    0  503 -0.80173288385E+02  0.12429854871E+03 -0.10666709900E+03  0.18236160613E+03  0.00000000000E+00 0. -1.
<mgrwt>
<rscale>  0 0.18603998E+04</rscale>
<asrwt>0</asrwt>
<pdfrwt beam="1">  1        2 0.16798117E+00 0.18603998E+04</pdfrwt>
<pdfrwt beam="2">  1       -1 0.12191729E+00 0.18603998E+04</pdfrwt>
<totfact> 0.14063178E+01</totfact>
</mgrwt>
</event>
<event>
11    7  0.1497947E-008  0.1278644E+04  0.7818608E-02  0.9046674E-01
         -1   -1    0    0    0  501 -0.00000000000E+00  0.00000000000E+00  0.62459219335E+03  0.62459219335E+03  0.00000000000E+00 0.  1.
          2   -1    0    0  501    0  0.00000000000E+00 -0.00000000000E+00 -0.65439902332E+03  0.65439902332E+03  0.00000000000E+00 0. -1.
         24    2    1    2    0    0  0.27570525196E+03  0.87923541623E+02 -0.91792219031E+02  0.31330194778E+03  0.77384519638E+02 0.  0.
        254    2    1    2    0    0 -0.27570525196E+03 -0.87923541623E+02  0.61985389061E+02  0.96568926888E+03  0.91922230198E+03 0.  0.
         23    2    4    4    0    0 -0.49188008559E+03 -0.12689906630E+03  0.29536347796E+03  0.59475900296E+03  0.91920051420E+02 0.  0.
          4    1    3    3  502    0  0.27907318234E+03  0.91955654151E+02 -0.92387133498E+02  0.30801471696E+03  0.00000000000E+00 0. -1.
         -3    1    3    3    0  502 -0.33679303801E+01 -0.40321125277E+01  0.59491446656E+00  0.52872308162E+01  0.00000000000E+00 0.  1.
         13    1    5    5    0    0 -0.84274581006E+01  0.69584743073E+01 -0.26860913662E+01  0.11254221499E+02  0.00000000000E+00 0.  1.
        -13    1    5    5    0    0 -0.48345262749E+03 -0.13385754061E+03  0.29804956933E+03  0.58350478146E+03  0.00000000000E+00 0. -1.
          4    1    4    4  503    0  0.12054375015E+03  0.22094254520E+02 -0.24419325828E+03  0.27322023931E+03  0.00000000000E+00 0. -1.
         -4    1    4    4    0  503  0.95631083490E+02  0.16881270160E+02  0.10815169378E+02  0.97710026611E+02  0.00000000000E+00 0.  1.
<mgrwt>
<rscale>  0 0.12786438E+04</rscale>
<asrwt>0</asrwt>
<pdfrwt beam="1">  1        2 0.10067677E+00 0.12786438E+04</pdfrwt>
<pdfrwt beam="2">  1       -1 0.96091107E-01 0.12786438E+04</pdfrwt>
<totfact> 0.52208940E+01</totfact>
</mgrwt>
</event>
<event>
11    7  0.1497947E-008  0.1976143E+04  0.7818608E-02  0.8617856E-01
         -1   -1    0    0    0  501 -0.00000000000E+00  0.00000000000E+00  0.36565506916E+03  0.36565506916E+03  0.00000000000E+00 0.  1.
          2   -1    0    0  501    0  0.00000000000E+00 -0.00000000000E+00 -0.26699624107E+04  0.26699624107E+04  0.00000000000E+00 0. -1.
         24    2    1    2    0    0  0.26667271566E+03 -0.50872261285E+02 -0.19635925776E+04  0.19838190624E+04  0.78357750807E+02 0.  0.
        254    2    1    2    0    0 -0.26667271566E+03  0.50872261285E+02 -0.34071476391E+03  0.10517984175E+04  0.95733538345E+03 0.  0.
         23    2    4    4    0    0 -0.84084573848E+02 -0.12981082376E+03  0.30551150070E+03  0.35431848047E+03  0.91012323439E+02 0.  0.
          2    1    3    3  502    0  0.19398318363E+03 -0.19760132220E+02 -0.15927598822E+04  0.16046507348E+04  0.00000000000E+00 0. -1.
         -1    1    3    3    0  502  0.72689532021E+02 -0.31112129065E+02 -0.37083269540E+03  0.37916832755E+03  0.00000000000E+00 0.  1.
         13    1    5    5    0    0 -0.98467476859E+02 -0.12754852624E+03  0.25409222099E+03  0.30087759524E+03  0.00000000000E+00 0. -1.
        -13    1    5    5    0    0  0.14382903011E+02 -0.22622975188E+01  0.51419279703E+02  0.53440885231E+02  0.00000000000E+00 0.  1.
          3    1    4    4  503    0 -0.13323180372E+03  0.13788077385E+03 -0.53705161315E+03  0.57025104691E+03  0.00000000000E+00 0. -1.
         -3    1    4    4    0  503 -0.49356338087E+02  0.42802311192E+02 -0.10917465146E+03  0.12722889009E+03  0.00000000000E+00 0.  1.
<mgrwt>
<rscale>  0 0.19761430E+04</rscale>
<asrwt>0</asrwt>
<pdfrwt beam="1">  1        2 0.41076347E+00 0.19761430E+04</pdfrwt>
<pdfrwt beam="2">  1       -1 0.56254624E-01 0.19761430E+04</pdfrwt>
<totfact> 0.93853828E+00</totfact>
</mgrwt>
</event>
<event>
12    7  0.1497947E-008  0.2757535E+04  0.7818608E-02  0.8316575E-01
          2   -1    0    0  501    0  0.00000000000E+00  0.00000000000E+00  0.12442714234E+04  0.12442714234E+04  0.00000000000E+00 0. -1.
         -1   -1    0    0    0  501 -0.00000000000E+00 -0.00000000000E+00 -0.15278010275E+04  0.15278010275E+04  0.00000000000E+00 0.  1.
         24    2    1    2    0    0  0.69666960185E+03 -0.69865320767E+03  0.61800418188E+03  0.11669624324E+04  0.80045681309E+02 0.  0.
        254    2    1    2    0    0 -0.69666960185E+03  0.69865320767E+03 -0.90153378596E+03  0.16051100185E+04  0.88890391240E+03 0.  0.
         23    2    4    4    0    0 -0.48774098807E+03  0.42390035226E+02 -0.39827134268E+02  0.49951477929E+03  0.90777902470E+02 0.  0.
         23    2    4    4    0    0 -0.20892861378E+03  0.65626317245E+03 -0.86170665169E+03  0.11055952392E+04  0.73959192758E+02 0.  0.
          2    1    3    3  502    0  0.44503688107E+03 -0.45677684081E+03  0.35455809503E+03  0.72966728758E+03  0.00000000000E+00 0. -1.
         -1    1    3    3    0  502  0.25163272078E+03 -0.24187636686E+03  0.26344608685E+03  0.43729514483E+03  0.00000000000E+00 0.  1.
         13    1    5    5    0    0 -0.34945719586E+03  0.23820260797E+02  0.12523368291E+02  0.35049189907E+03  0.00000000000E+00 0. -1.
        -13    1    5    5    0    0 -0.13828379221E+03  0.18569774430E+02 -0.52350502559E+02  0.14902288022E+03  0.00000000000E+00 0.  1.
          2    1    6    6  503    0 -0.36566994975E+02  0.52490512418E+02 -0.64954538580E+02  0.91167379569E+02  0.00000000000E+00 0. -1.
         -2    1    6    6    0  503 -0.17236161881E+03  0.60377266003E+03 -0.79675211311E+03  0.10144278596E+04  0.00000000000E+00 0.  1.
<mgrwt>
<rscale>  0 0.27575345E+04</rscale>
<asrwt>0</asrwt>
<pdfrwt beam="1">  1        2 0.19142637E+00 0.27575345E+04</pdfrwt>
<pdfrwt beam="2">  1       -1 0.23504631E+00 0.27575345E+04</pdfrwt>
<totfact> 0.15500287E+00</totfact>
</mgrwt>
</event>
<event>
11    7  0.1497947E-008  0.2202333E+04  0.7818608E-02  0.8517458E-01
          2   -1    0    0  501    0  0.00000000000E+00  0.00000000000E+00  0.34511990065E+04  0.34511990065E+04  0.00000000000E+00 0. -1.
         -1   -1    0    0    0  501 -0.00000000000E+00 -0.00000000000E+00 -0.35134674561E+03  0.35134674561E+03  0.00000000000E+00 0.  1.
         24    2    1    2    0    0 -0.47595746374E+03  0.70833911628E+03  0.18545439120E+04  0.20430439210E+04  0.80097008572E+02 0.  0.
        254    2    1    2    0    0  0.47595746374E+03 -0.70833911628E+03  0.12453083489E+04  0.17595018311E+04  0.90375549726E+03 0.  0.
         23    2    4    4    0    0  0.18754092504E+03 -0.84984303076E+03  0.97715556092E+03  0.13116196924E+04  0.90046942002E+02 0.  0.
          2    1    3    3  502    0 -0.46436566455E+03  0.66089330018E+03  0.17651543687E+04  0.19411814367E+04  0.00000000000E+00 0. -1.
         -1    1    3    3    0  502 -0.11591799196E+02  0.47445816097E+02  0.89389543274E+02  0.10186248436E+03  0.00000000000E+00 0.  1.
         13    1    5    5    0    0  0.13488472484E+03 -0.63767856851E+03  0.78723277657E+03  0.10220387910E+04  0.00000000000E+00 0.  1.
        -13    1    5    5    0    0  0.52656200202E+02 -0.21216446226E+03  0.18992278435E+03  0.28958090144E+03  0.00000000000E+00 0. -1.
          4    1    4    4  503    0  0.30526023721E+03  0.14969829015E+03  0.25507767315E+03  0.42503883333E+03  0.00000000000E+00 0. -1.
         -4    1    4    4    0  503 -0.16843698508E+02 -0.81943756684E+01  0.13075114844E+02  0.22843305369E+02  0.00000000000E+00 0.  1.
<mgrwt>
<rscale>  0 0.22023329E+04</rscale>
<asrwt>0</asrwt>
<pdfrwt beam="1">  1        2 0.53095367E+00 0.22023329E+04</pdfrwt>
<pdfrwt beam="2">  1       -1 0.54053348E-01 0.22023329E+04</pdfrwt>
<totfact> 0.31691293E+00</totfact>
</mgrwt>
</event>
<event>
11    7  0.1497947E-008  0.1819994E+04  0.7818608E-02  0.8695738E-01
          2   -1    0    0  501    0  0.00000000000E+00  0.00000000000E+00  0.16120991040E+04  0.16120991040E+04  0.00000000000E+00 0. -1.
         -1   -1    0    0    0  501 -0.00000000000E+00 -0.00000000000E+00 -0.51367488044E+03  0.51367488044E+03  0.00000000000E+00 0.  1.
         24    2    1    2    0    0 -0.45690742347E+02  0.68801418543E+03  0.53117367457E+03  0.87408144879E+03  0.80135780214E+02 0.  0.
        254    2    1    2    0    0  0.45690742347E+02 -0.68801418543E+03  0.56725054897E+03  0.12516925356E+04  0.87721710833E+03 0.  0.
         23    2    4    4    0    0  0.33495310245E+03 -0.26765404522E+02  0.29270813856E+03  0.45454739869E+03  0.89584125597E+02 0.  0.
          2    1    3    3  502    0 -0.14720425908E+02  0.37949916961E+03  0.34053372366E+03  0.51009756677E+03  0.00000000000E+00 0. -1.
         -1    1    3    3    0  502 -0.30970316440E+02  0.30851501583E+03  0.19063995091E+03  0.36398388203E+03  0.00000000000E+00 0.  1.
         13    1    5    5    0    0  0.22587215581E+03 -0.15091201001E+02  0.24882420451E+03  0.33639182491E+03  0.00000000000E+00 0.  1.
        -13    1    5    5    0    0  0.10908094664E+03 -0.11674203521E+02  0.43883934050E+02  0.11815557378E+03  0.00000000000E+00 0. -1.
          1    1    4    4  503    0 -0.19135664232E+03 -0.43490170030E+03  0.27802947754E+03  0.55050635225E+03  0.00000000000E+00 0. -1.
         -1    1    4    4    0  503 -0.97905717783E+02 -0.22634708061E+03 -0.34870671310E+01  0.24663878469E+03  0.00000000000E+00 0.  1.
<mgrwt>
<rscale>  0 0.18199943E+04</rscale>
<asrwt>0</asrwt>
<pdfrwt beam="1">  1        2 0.24801524E+00 0.18199943E+04</pdfrwt>
<pdfrwt beam="2">  1       -1 0.79026905E-01 0.18199943E+04</pdfrwt>
<totfact> 0.18875542E+01</totfact>
</mgrwt>
</event>
<event>
11    7  0.1497947E-008  0.1192281E+04  0.7818608E-02  0.9119640E-01
          2   -1    0    0  501    0  0.00000000000E+00  0.00000000000E+00  0.39240344290E+03  0.39240344290E+03  0.00000000000E+00 0. -1.
         -1   -1    0    0    0  501 -0.00000000000E+00 -0.00000000000E+00 -0.90565886922E+03  0.90565886922E+03  0.00000000000E+00 0.  1.
         24    2    1    2    0    0  0.15221230250E+03 -0.17265369241E+03 -0.21204913824E+03  0.32280302130E+03  0.79114290702E+02 0.  0.
        254    2    1    2    0    0 -0.15221230250E+03  0.17265369241E+03 -0.30120628808E+03  0.97525929081E+03  0.89856973786E+03 0.  0.
         23    2    4    4    0    0 -0.21999567087E+03  0.21238431808E+03 -0.56598013159E+03  0.65033300614E+03  0.95364121934E+02 0.  0.
          2    1    3    3  502    0  0.10715081925E+03 -0.15642211205E+03 -0.13757261194E+03  0.23425498662E+03  0.00000000000E+00 0. -1.
         -1    1    3    3    0  502  0.45061483257E+02 -0.16231580366E+02 -0.74476526307E+02  0.88548034677E+02  0.00000000000E+00 0.  1.
         13    1    5    5    0    0 -0.79176371628E+02  0.11016198073E+03 -0.16772845140E+03  0.21572527259E+03  0.00000000000E+00 0. -1.
        -13    1    5    5    0    0 -0.14081929924E+03  0.10222233735E+03 -0.39825168019E+03  0.43460773355E+03  0.00000000000E+00 0.  1.
          3    1    4    4  503    0  0.12409690838E+03 -0.33846682874E+02  0.15509225020E+03  0.20149254746E+03  0.00000000000E+00 0. -1.
         -3    1    4    4    0  503 -0.56313540015E+02 -0.58839427961E+01  0.10968159331E+03  0.12343373721E+03  0.00000000000E+00 0.  1.
<mgrwt>
<rscale>  0 0.11922813E+04</rscale>
<asrwt>0</asrwt>
<pdfrwt beam="1">  1        2 0.60369762E-01 0.11922813E+04</pdfrwt>
<pdfrwt beam="2">  1       -1 0.13933213E+00 0.11922813E+04</pdfrwt>
<totfact> 0.38981005E+01</totfact>
</mgrwt>
</event>
<event>
12    7  0.1815275E-008  0.2158824E+04  0.7818608E-02  0.8535765E-01
         -1   -1    0    0    0  501 -0.00000000000E+00  0.00000000000E+00  0.17581416793E+04  0.17581416793E+04  0.00000000000E+00 0.  1.
          2   -1    0    0  501    0  0.00000000000E+00 -0.00000000000E+00 -0.66270548857E+03  0.66270548857E+03  0.00000000000E+00 0. -1.
         24    2    1    2    0    0 -0.43471627689E+03 -0.35754239507E+03 -0.26971112906E+03  0.62922043273E+03  0.79746185856E+02 0.  0.
        254    2    1    2    0    0  0.43471627689E+03  0.35754239507E+03  0.13651473198E+04  0.17916267352E+04  0.10146350810E+04 0.  0.
         23    2    4    4    0    0 -0.78141890081E+02 -0.29746564016E+03  0.33954382839E+03  0.46695050019E+03  0.90337125101E+02 0.  0.
         23    2    4    4    0    0  0.51285816697E+03  0.65500803524E+03  0.10256034914E+04  0.13246762350E+04  0.10414211545E+03 0.  0.
          4    1    3    3  502    0 -0.32801708007E+03 -0.28064780741E+03 -0.24170335288E+03  0.49475135918E+03  0.00000000000E+00 0. -1.
         -3    1    3    3    0  502 -0.10669919682E+03 -0.76894587668E+02 -0.28007776182E+02  0.13446907355E+03  0.00000000000E+00 0.  1.
         13    1    5    5    0    0 -0.76199763908E+02 -0.29739490802E+03  0.34460906598E+03  0.46152523625E+03  0.00000000000E+00 0. -1.
        -13    1    5    5    0    0 -0.19421261731E+01 -0.70732137638E-01 -0.50652375863E+01  0.54252639487E+01  0.00000000000E+00 0.  1.
          4    1    6    6  503    0  0.48509464029E+03  0.64303715939E+03  0.10055836391E+04  0.12884145504E+04  0.00000000000E+00 0. -1.
         -4    1    6    6    0  503  0.27763526683E+02  0.11970875843E+02  0.20019852331E+02  0.36261684595E+02  0.00000000000E+00 0.  1.
<mgrwt>
<rscale>  0 0.21588239E+04</rscale>
<asrwt>0</asrwt>
<pdfrwt beam="1">  1        2 0.10195469E+00 0.21588239E+04</pdfrwt>
<pdfrwt beam="2">  1       -1 0.27048333E+00 0.21588239E+04</pdfrwt>
<totfact> 0.23573402E+00</totfact>
</mgrwt>
</event>
<event>
12    7  0.1497947E-008  0.1972559E+04  0.7818608E-02  0.8619559E-01
         -1   -1    0    0    0  501 -0.00000000000E+00  0.00000000000E+00  0.14093991061E+04  0.14093991061E+04  0.00000000000E+00 0.  1.
          2   -1    0    0  501    0  0.00000000000E+00 -0.00000000000E+00 -0.69018563023E+03  0.69018563023E+03  0.00000000000E+00 0. -1.
         24    2    1    2    0    0  0.28708847340E+03  0.30854604585E+03 -0.40945519000E+03  0.59286298149E+03  0.78819466135E+02 0.  0.
        254    2    1    2    0    0 -0.28708847340E+03 -0.30854604585E+03  0.11286686659E+04  0.15067217548E+04  0.90481878584E+03 0.  0.
         23    2    4    4    0    0 -0.10233740922E+03  0.27065173218E+03  0.69098330008E+03  0.75425684686E+03  0.87864467220E+02 0.  0.
         23    2    4    4    0    0 -0.18475106418E+03 -0.57919777803E+03  0.43768536577E+03  0.75246490796E+03  0.70936143888E+02 0.  0.
          2    1    3    3  502    0  0.23895015600E+03  0.25740980561E+03 -0.37776842862E+03  0.51581583026E+03  0.00000000000E+00 0. -1.
         -1    1    3    3    0  502  0.48138317400E+02  0.51136240235E+02 -0.31686761376E+02  0.77047151238E+02  0.00000000000E+00 0.  1.
         13    1    5    5    0    0 -0.22959625773E+02  0.59582679740E+02  0.76172831725E+02  0.99395877347E+02  0.00000000000E+00 0.  1.
        -13    1    5    5    0    0 -0.79377783450E+02  0.21106905244E+03  0.61481046835E+03  0.65486096952E+03  0.00000000000E+00 0. -1.
          4    1    6    6  503    0 -0.13228887973E+03 -0.30180354645E+03  0.22522988752E+03  0.39914186774E+03  0.00000000000E+00 0. -1.
         -4    1    6    6    0  503 -0.52462184445E+02 -0.27739423158E+03  0.21245547825E+03  0.35332304022E+03  0.00000000000E+00 0.  1.
<mgrwt>
<rscale>  0 0.19725588E+04</rscale>
<asrwt>0</asrwt>
<pdfrwt beam="1">  1        2 0.10618241E+00 0.19725588E+04</pdfrwt>
<pdfrwt beam="2">  1       -1 0.21683063E+00 0.19725588E+04</pdfrwt>
<totfact> 0.51242125E+00</totfact>
</mgrwt>
</event>
<event>
12    7  0.1497947E-008  0.1894133E+04  0.7818608E-02  0.8657782E-01
         -1   -1    0    0    0  501 -0.00000000000E+00  0.00000000000E+00  0.23847661691E+03  0.23847661691E+03  0.00000000000E+00 0.  1.
          2   -1    0    0  501    0  0.00000000000E+00 -0.00000000000E+00 -0.37611014545E+04  0.37611014545E+04  0.00000000000E+00 0. -1.
         24    2    1    2    0    0 -0.41345205939E+03  0.60752670751E+03 -0.14212879944E+04  0.16018650768E+04  0.76686735153E+02 0.  0.
        254    2    1    2    0    0  0.41345205939E+03 -0.60752670751E+03 -0.21013368431E+04  0.23977129946E+04  0.89071868196E+03 0.  0.
         23    2    4    4    0    0  0.84450583568E+02 -0.67321754522E+03 -0.82152432831E+03  0.10699033091E+04  0.97144760886E+02 0.  0.
         23    2    4    4    0    0  0.32900147582E+03  0.65690837706E+02 -0.12798125148E+04  0.13278096855E+04  0.11225520271E+03 0.  0.
          2    1    3    3  502    0 -0.29531072910E+03  0.40598838406E+03 -0.89815470634E+03  0.10289396830E+04  0.00000000000E+00 0. -1.
         -3    1    3    3    0  502 -0.11814133029E+03  0.20153832345E+03 -0.52313328808E+03  0.57292539378E+03  0.00000000000E+00 0.  1.
         13    1    5    5    0    0  0.66330519923E+02 -0.37952872217E+03 -0.53417613981E+03  0.65862427618E+03  0.00000000000E+00 0.  1.
        -13    1    5    5    0    0  0.18120063645E+02 -0.29368882305E+03 -0.28734818850E+03  0.41127903293E+03  0.00000000000E+00 0. -1.
          1    1    6    6  503    0  0.26329093603E+03  0.12768515425E+02 -0.85550430799E+03  0.89519426549E+03  0.00000000000E+00 0. -1.
         -1    1    6    6    0  503  0.65710539798E+02  0.52922322282E+02 -0.42430820684E+03  0.43261542000E+03  0.00000000000E+00 0.  1.
<mgrwt>
<rscale>  0 0.18941328E+04</rscale>
<asrwt>0</asrwt>
<pdfrwt beam="1">  1        2 0.57863095E+00 0.18941328E+04</pdfrwt>
<pdfrwt beam="2">  1       -1 0.36688713E-01 0.18941328E+04</pdfrwt>
<totfact> 0.40345358E+00</totfact>
</mgrwt>
</event>
<event>
11    7  0.1497947E-008  0.2021164E+04  0.7818608E-02  0.8596789E-01
          2   -1    0    0  501    0  0.00000000000E+00  0.00000000000E+00  0.18059328155E+04  0.18059328155E+04  0.00000000000E+00 0. -1.
         -1   -1    0    0    0  501 -0.00000000000E+00 -0.00000000000E+00 -0.56551155068E+03  0.56551155068E+03  0.00000000000E+00 0.  1.
         24    2    1    2    0    0 -0.25812106474E+03 -0.10132964612E+03  0.13911973846E+04  0.14207738872E+04  0.79209181328E+02 0.  0.
        254    2    1    2    0    0  0.25812106474E+03  0.10132964612E+03 -0.15077611980E+03  0.95067047896E+03  0.89674229298E+03 0.  0.
         23    2    4    4    0    0  0.18024384963E+03  0.45939561253E+03 -0.19727643445E+03  0.53912343782E+03  0.90575468397E+02 0.  0.
          2    1    3    3  502    0 -0.11302005894E+03 -0.75821750708E+01  0.64213729741E+03  0.65205163279E+03  0.00000000000E+00 0. -1.
         -3    1    3    3    0  502 -0.14510100580E+03 -0.93747471049E+02  0.74906008719E+03  0.76872225442E+03  0.00000000000E+00 0.  1.
         13    1    5    5    0    0  0.17050435357E+03  0.40200997246E+03 -0.20117665639E+03  0.48078664667E+03  0.00000000000E+00 0.  1.
        -13    1    5    5    0    0  0.97394960569E+01  0.57385640072E+02  0.39002219415E+01  0.58336791145E+02  0.00000000000E+00 0. -1.
          3    1    4    4  503    0  0.53886760056E+01  0.17246616673E+02  0.22063304369E+02  0.28517941991E+02  0.00000000000E+00 0. -1.
         -3    1    4    4    0  503  0.72488539108E+02 -0.37531258308E+03  0.24437010281E+02  0.38302909915E+03  0.00000000000E+00 0.  1.
<mgrwt>
<rscale>  0 0.20211639E+04</rscale>
<asrwt>0</asrwt>
<pdfrwt beam="1">  1        2 0.27783581E+00 0.20211639E+04</pdfrwt>
<pdfrwt beam="2">  1       -1 0.87001778E-01 0.20211639E+04</pdfrwt>
<totfact> 0.11769686E+01</totfact>
</mgrwt>
</event>
<event>
12    7  0.1497947E-008  0.2431256E+04  0.7818608E-02  0.8427894E-01
         -1   -1    0    0    0  501 -0.00000000000E+00  0.00000000000E+00  0.55985362586E+03  0.55985362586E+03  0.00000000000E+00 0.  1.
          2   -1    0    0  501    0  0.00000000000E+00 -0.00000000000E+00 -0.26395313425E+04  0.26395313425E+04  0.00000000000E+00 0. -1.
         24    2    1    2    0    0  0.61148051320E+03 -0.84782237497E+03 -0.92971980292E+03  0.14012702577E+04  0.80425279559E+02 0.  0.
        254    2    1    2    0    0 -0.61148051320E+03  0.84782237497E+03 -0.11499579138E+04  0.17981147107E+04  0.90448997338E+03 0.  0.
         23    2    4    4    0    0 -0.80725052386E+03  0.46834058800E+03 -0.67740961303E+03  0.11566651933E+04  0.89410686965E+02 0.  0.
         23    2    4    4    0    0  0.19577001066E+03  0.37948178697E+03 -0.47254830073E+03  0.64144951742E+03  0.76310308272E+02 0.  0.
          4    1    3    3  502    0  0.60114131408E+03 -0.81625212885E+03 -0.91213964256E+03  0.13636851341E+04  0.00000000000E+00 0. -1.
         -3    1    3    3    0  502  0.10339199115E+02 -0.31570246123E+02 -0.17580160358E+02  0.37585123611E+02  0.00000000000E+00 0.  1.
         13    1    5    5    0    0 -0.53333603422E+03  0.35698547841E+03 -0.47063633938E+03  0.79585458542E+03  0.00000000000E+00 0. -1.
        -13    1    5    5    0    0 -0.27391448964E+03  0.11135510959E+03 -0.20677327364E+03  0.36081060788E+03  0.00000000000E+00 0.  1.
          2    1    6    6  503    0  0.40272759811E+02  0.14569764569E+03 -0.13786238799E+03  0.20458674728E+03  0.00000000000E+00 0.  1.
         -2    1    6    6    0  503  0.15549725085E+03  0.23378414128E+03 -0.33468591275E+03  0.43686277013E+03  0.00000000000E+00 0. -1.
<mgrwt>
<rscale>  0 0.24312558E+04</rscale>
<asrwt>0</asrwt>
<pdfrwt beam="1">  1        2 0.40608175E+00 0.24312558E+04</pdfrwt>
<pdfrwt beam="2">  1       -1 0.86131326E-01 0.24312558E+04</pdfrwt>
<totfact> 0.39141630E+00</totfact>
</mgrwt>
</event>
<event>
12    7  0.1497947E-008  0.2276068E+04  0.7818608E-02  0.8487417E-01
          2   -1    0    0  501    0  0.00000000000E+00  0.00000000000E+00  0.14698357961E+04  0.14698357961E+04  0.00000000000E+00 0. -1.
         -1   -1    0    0    0  501 -0.00000000000E+00 -0.00000000000E+00 -0.88113375553E+03  0.88113375553E+03  0.00000000000E+00 0.  1.
         24    2    1    2    0    0  0.23531644755E+03  0.36335368262E+03  0.11494379203E+04  0.12308443137E+04  0.79815179135E+02 0.  0.
        254    2    1    2    0    0 -0.23531644755E+03 -0.36335368262E+03 -0.56073587972E+03  0.11201252379E+04  0.86767280277E+03 0.  0.
         23    2    4    4    0    0 -0.49276710357E+03 -0.72705561318E+02 -0.11482303429E+03  0.51884702824E+03  0.88951630102E+02 0.  0.
         23    2    4    4    0    0  0.25745065602E+03 -0.29064812130E+03 -0.44591284544E+03  0.60127820969E+03  0.10927053134E+03 0.  0.
          2    1    3    3  502    0  0.21056581958E+03  0.30972311353E+03  0.90631888101E+03  0.98065298934E+03  0.00000000000E+00 0. -1.
         -1    1    3    3    0  502  0.24750627965E+02  0.53630569082E+02  0.24311903928E+03  0.25019132436E+03  0.00000000000E+00 0.  1.
         13    1    5    5    0    0 -0.19674873056E+03 -0.57141367033E+02 -0.12511813944E+02  0.20526018682E+03  0.00000000000E+00 0. -1.
        -13    1    5    5    0    0 -0.29601837301E+03 -0.15564194285E+02 -0.10231122034E+03  0.31358684142E+03  0.00000000000E+00 0.  1.
          2    1    6    6  503    0  0.10974287010E+03 -0.62877210017E+02 -0.18966176814E+03  0.22796628560E+03  0.00000000000E+00 0. -1.
         -2    1    6    6    0  503  0.14770778592E+03 -0.22777091128E+03 -0.25625107729E+03  0.37331192408E+03  0.00000000000E+00 0.  1.
<mgrwt>
<rscale>  0 0.22760685E+04</rscale>
<asrwt>0</asrwt>
<pdfrwt beam="1">  1        2 0.22612858E+00 0.22760685E+04</pdfrwt>
<pdfrwt beam="2">  1       -1 0.13555904E+00 0.22760685E+04</pdfrwt>
<totfact> 0.62277239E+00</totfact>
</mgrwt>
</event>
<event>
12    7  0.1497947E-008  0.2400716E+04  0.7818608E-02  0.8439235E-01
          2   -1    0    0  501    0  0.00000000000E+00  0.00000000000E+00  0.92821813437E+03  0.92821813437E+03  0.00000000000E+00 0. -1.
         -1   -1    0    0    0  501 -0.00000000000E+00 -0.00000000000E+00 -0.15522854364E+04  0.15522854364E+04  0.00000000000E+00 0.  1.
         24    2    1    2    0    0  0.54867083443E+03 -0.17113961182E+03  0.60394663066E+03  0.83683939103E+03  0.72250829832E+02 0.  0.
        254    2    1    2    0    0 -0.54867083443E+03  0.17113961182E+03 -0.12280139327E+04  0.16436641798E+04  0.92913145766E+03 0.  0.
         23    2    4    4    0    0 -0.20658692368E+03  0.47430978957E+03 -0.30795345535E+03  0.60913379395E+03  0.92524130607E+02 0.  0.
         23    2    4    4    0    0 -0.34208391076E+03 -0.30317017776E+03 -0.92006047736E+03  0.10345303858E+04  0.12168927026E+03 0.  0.
          4    1    3    3  502    0  0.22913281048E+03 -0.41811141704E+02  0.27464566698E+03  0.36011145331E+03  0.00000000000E+00 0. -1.
         -3    1    3    3    0  502  0.31953802395E+03 -0.12932847011E+03  0.32930096368E+03  0.47672793773E+03  0.00000000000E+00 0.  1.
         13    1    5    5    0    0 -0.59460811068E+02  0.15189074923E+03 -0.14822059126E+03  0.22039902774E+03  0.00000000000E+00 0. -1.
        -13    1    5    5    0    0 -0.14712611261E+03  0.32241904035E+03 -0.15973286409E+03  0.38873476621E+03  0.00000000000E+00 0.  1.
          4    1    6    6  503    0 -0.24659505425E+02 -0.47007506017E+02 -0.20041699531E+03  0.20732768469E+03  0.00000000000E+00 0. -1.
         -4    1    6    6    0  503 -0.31742440533E+03 -0.25616267174E+03 -0.71964348205E+03  0.82720270112E+03  0.00000000000E+00 0.  1.
<mgrwt>
<rscale>  0 0.24007161E+04</rscale>
<asrwt>0</asrwt>
<pdfrwt beam="1">  1        2 0.14280279E+00 0.24007161E+04</pdfrwt>
<pdfrwt beam="2">  1       -1 0.23881314E+00 0.24007161E+04</pdfrwt>
<totfact> 0.23756203E+00</totfact>
</mgrwt>
</event>
<event>
12    7  0.1497947E-008  0.1580314E+04  0.7818608E-02  0.8832734E-01
          2   -1    0    0  501    0  0.00000000000E+00  0.00000000000E+00  0.52139497728E+03  0.52139497728E+03  0.00000000000E+00 0. -1.
         -1   -1    0    0    0  501 -0.00000000000E+00 -0.00000000000E+00 -0.11974565068E+04  0.11974565068E+04  0.00000000000E+00 0.  1.
         24    2    1    2    0    0 -0.34286126174E+03  0.39535168601E+03 -0.23616411806E+03  0.57971369362E+03  0.80235126219E+02 0.  0.
        254    2    1    2    0    0  0.34286126174E+03 -0.39535168601E+03 -0.43989741146E+03  0.11391377905E+04  0.91119063462E+03 0.  0.
         23    2    4    4    0    0 -0.15103678940E+02 -0.55773469710E+03 -0.46285814932E+03  0.73052805884E+03  0.90207898200E+02 0.  0.
         23    2    4    4    0    0  0.35796494068E+03  0.16238301109E+03  0.22960737857E+02  0.40860973162E+03  0.10921344352E+03 0.  0.
          2    1    3    3  502    0 -0.11657917663E+03  0.17233599984E+03 -0.60531756071E+02  0.21668985846E+03  0.00000000000E+00 0. -1.
         -1    1    3    3    0  502 -0.22628208511E+03  0.22301568616E+03 -0.17563236198E+03  0.36302383516E+03  0.00000000000E+00 0.  1.
         13    1    5    5    0    0 -0.43322049321E+02 -0.17344542751E+03 -0.12594068454E+03  0.21868052566E+03  0.00000000000E+00 0.  1.
        -13    1    5    5    0    0  0.28218370381E+02 -0.38428926959E+03 -0.33691746478E+03  0.51184753318E+03  0.00000000000E+00 0. -1.
          3    1    6    6  503    0  0.27397070889E+03  0.15405249598E+03  0.53530881551E+02  0.31883800923E+03  0.00000000000E+00 0. -1.
         -3    1    6    6    0  503  0.83994231790E+02  0.83305151069E+01 -0.30570143693E+02  0.89771722393E+02  0.00000000000E+00 0.  1.
<mgrwt>
<rscale>  0 0.15803137E+04</rscale>
<asrwt>0</asrwt>
<pdfrwt beam="1">  1        2 0.80214612E-01 0.15803137E+04</pdfrwt>
<pdfrwt beam="2">  1       -1 0.18422408E+00 0.15803137E+04</pdfrwt>
<totfact> 0.12492757E+01</totfact>
</mgrwt>
</event>
<event>
12    7  0.1497947E-008  0.2498656E+04  0.7818608E-02  0.8403465E-01
          2   -1    0    0  501    0  0.00000000000E+00  0.00000000000E+00  0.15882223845E+04  0.15882223845E+04  0.00000000000E+00 0. -1.
         -1   -1    0    0    0  501 -0.00000000000E+00 -0.00000000000E+00 -0.98274663869E+03  0.98274663869E+03  0.00000000000E+00 0.  1.
         24    2    1    2    0    0 -0.66807236457E+03 -0.14658815133E+03 -0.60153603195E+03  0.91419301060E+03  0.78067230647E+02 0.  0.
        254    2    1    2    0    0  0.66807236457E+03  0.14658815133E+03  0.12070117778E+04  0.16567760126E+04  0.90566028611E+03 0.  0.
         23    2    4    4    0    0  0.94967885628E+02 -0.22763012491E+03 -0.52630108590E+01  0.26281728532E+03  0.90613757844E+02 0.  0.
         23    2    4    4    0    0  0.57310447894E+03  0.37421827624E+03  0.12122747886E+04  0.13939587273E+04  0.70871067231E+02 0.  0.
          2    1    3    3  502    0 -0.32584778981E+03 -0.71952350674E+02 -0.24175695415E+03  0.41206837754E+03  0.00000000000E+00 0. -1.
         -1    1    3    3    0  502 -0.34222457476E+03 -0.74635800651E+02 -0.35977907779E+03  0.50212463306E+03  0.00000000000E+00 0.  1.
         13    1    5    5    0    0  0.47402565022E+02 -0.12147344225E+03  0.42385939370E+02  0.13711078805E+03  0.00000000000E+00 0.  1.
        -13    1    5    5    0    0  0.47565320605E+02 -0.10615668266E+03 -0.47648950229E+02  0.12570649727E+03  0.00000000000E+00 0. -1.
          3    1    6    6  503    0  0.12925930613E+03  0.53892486036E+02  0.27328803328E+03  0.30708096230E+03  0.00000000000E+00 0. -1.
         -3    1    6    6    0  503  0.44384517281E+03  0.32032579020E+03  0.93898675534E+03  0.10868777650E+04  0.00000000000E+00 0.  1.
<mgrwt>
<rscale>  0 0.24986558E+04</rscale>
<asrwt>0</asrwt>
<pdfrwt beam="1">  1        2 0.24434190E+00 0.24986558E+04</pdfrwt>
<pdfrwt beam="2">  1       -1 0.15119179E+00 0.24986558E+04</pdfrwt>
<totfact> 0.39279273E+00</totfact>
</mgrwt>
</event>
<event>
11    7  0.1497947E-008  0.2174945E+04  0.7818608E-02  0.8528929E-01
          2   -1    0    0  501    0  0.00000000000E+00  0.00000000000E+00  0.21830800425E+04  0.21830800425E+04  0.00000000000E+00 0. -1.
         -1   -1    0    0    0  501 -0.00000000000E+00 -0.00000000000E+00 -0.54171026847E+03  0.54171026847E+03  0.00000000000E+00 0.  1.
         24    2    1    2    0    0 -0.14051877521E+03  0.76654037792E+03  0.12155558342E+04  0.14460681273E+04  0.78786835987E+02 0.  0.
        254    2    1    2    0    0  0.14051877521E+03 -0.76654037792E+03  0.42581393979E+03  0.12787221836E+04  0.92004523500E+03 0.  0.
         23    2    4    4    0    0 -0.38028562538E+02 -0.24303820294E+02  0.47736159022E+03  0.48793998165E+03  0.90412889745E+02 0.  0.
          4    1    3    3  502    0 -0.98569339588E+02  0.51231416867E+03  0.87958251807E+03  0.10226666750E+04  0.00000000000E+00 0. -1.
         -3    1    3    3    0  502 -0.41949435625E+02  0.25422620925E+03  0.33597331613E+03  0.42340145225E+03  0.00000000000E+00 0.  1.
         13    1    5    5    0    0  0.22609226376E+02 -0.34070438740E+01  0.26802236893E+03  0.26899586486E+03  0.00000000000E+00 0.  1.
        -13    1    5    5    0    0 -0.60637788915E+02 -0.20896776420E+02  0.20933922129E+03  0.21894411680E+03  0.00000000000E+00 0. -1.
          2    1    4    4  503    0  0.17827811487E+03 -0.32554295985E+03 -0.46449809513E+02  0.37405733485E+03  0.00000000000E+00 0. -1.
         -2    1    4    4    0  503  0.26922288617E+00 -0.41669359777E+03 -0.50978409128E+01  0.41672486714E+03  0.00000000000E+00 0.  1.
<mgrwt>
<rscale>  0 0.21749454E+04</rscale>
<asrwt>0</asrwt>
<pdfrwt beam="1">  1        2 0.33585846E+00 0.21749454E+04</pdfrwt>
<pdfrwt beam="2">  1       -1 0.83340043E-01 0.21749454E+04</pdfrwt>
<totfact> 0.78611824E+00</totfact>
</mgrwt>
</event>
<event>
12    7  0.1497947E-008  0.1608213E+04  0.7818608E-02  0.8815518E-01
          4   -1    0    0  501    0  0.00000000000E+00  0.00000000000E+00  0.79860065318E+03  0.79860065318E+03  0.00000000000E+00 0. -1.
         -3   -1    0    0    0  501 -0.00000000000E+00 -0.00000000000E+00 -0.80965015321E+03  0.80965015321E+03  0.00000000000E+00 0.  1.
         24    2    1    2    0    0  0.16666490524E+03  0.11932852666E+03  0.49722335918E+03  0.54372158570E+03  0.79909986451E+02 0.  0.
        254    2    1    2    0    0 -0.16666490524E+03 -0.11932852666E+03 -0.50827285921E+03  0.10645292207E+04  0.91261419799E+03 0.  0.
         23    2    4    4    0    0  0.30176928407E+03  0.71312995868E+02 -0.44279837391E+03  0.54887908402E+03  0.95118897992E+02 0.  0.
         23    2    4    4    0    0 -0.46843418930E+03 -0.19064152253E+03 -0.65474485307E+02  0.51565013667E+03  0.76376536994E+02 0.  0.
          4    1    3    3  502    0  0.12748157656E+03  0.49314552900E+02  0.35535783901E+03  0.38073963707E+03  0.00000000000E+00 0. -1.
         -3    1    3    3    0  502  0.39183328673E+02  0.70013973759E+02  0.14186552017E+03  0.16298194864E+03  0.00000000000E+00 0.  1.
         13    1    5    5    0    0  0.21778612067E+03  0.63150268528E+02 -0.24498393974E+03  0.33382013346E+03  0.00000000000E+00 0.  1.
        -13    1    5    5    0    0  0.83983163393E+02  0.81627273400E+01 -0.19781443417E+03  0.21505895056E+03  0.00000000000E+00 0. -1.
          2    1    6    6  503    0 -0.54107649799E+02  0.26706119004E+01 -0.10058348932E+02  0.55099367673E+02  0.00000000000E+00 0. -1.
         -2    1    6    6    0  503 -0.41432653950E+03 -0.19331213443E+03 -0.55416136375E+02  0.46055076900E+03  0.00000000000E+00 0.  1.
<mgrwt>
<rscale>  0 0.16082128E+04</rscale>
<asrwt>0</asrwt>
<pdfrwt beam="1">  1        4 0.12286164E+00 0.16082128E+04</pdfrwt>
<pdfrwt beam="2">  1       -3 0.12456156E+00 0.16082128E+04</pdfrwt>
<totfact> 0.56438080E-01</totfact>
</mgrwt>
</event>
<event>
12    7  0.1497947E-008  0.1696719E+04  0.7818608E-02  0.8763238E-01
          2   -1    0    0  501    0  0.00000000000E+00  0.00000000000E+00  0.12988772309E+04  0.12988772309E+04  0.00000000000E+00 0. -1.
         -1   -1    0    0    0  501 -0.00000000000E+00 -0.00000000000E+00 -0.55410484851E+03  0.55410484851E+03  0.00000000000E+00 0.  1.
         24    2    1    2    0    0  0.15804618440E+03  0.18913112868E+03 -0.33454134009E+03  0.42327221852E+03  0.80574701361E+02 0.  0.
        254    2    1    2    0    0 -0.15804618440E+03 -0.18913112868E+03  0.10793137225E+04  0.14297098609E+04  0.90465628532E+03 0.  0.
         23    2    4    4    0    0 -0.49503706689E+03  0.26251777774E+02  0.76288293370E+03  0.91420931024E+03  0.89651765030E+02 0.  0.
         23    2    4    4    0    0  0.33699088249E+03 -0.21538290646E+03  0.31643078879E+03  0.51550055066E+03  0.75231126260E+02 0.  0.
          2    1    3    3  502    0  0.19468202153E+02  0.33353957465E+02 -0.14386136948E+02  0.41212356277E+02  0.00000000000E+00 0. -1.
         -1    1    3    3    0  502  0.13857798225E+03  0.15577717122E+03 -0.32015520314E+03  0.38205986224E+03  0.00000000000E+00 0.  1.
         13    1    5    5    0    0 -0.96560050515E+02 -0.34676420143E+01  0.21856032285E+03  0.23896544231E+03  0.00000000000E+00 0.  1.
        -13    1    5    5    0    0 -0.39847701638E+03  0.29719419789E+02  0.54432261085E+03  0.67524386793E+03  0.00000000000E+00 0. -1.
          4    1    6    6  503    0  0.20148436536E+02 -0.35888744181E+02  0.47230501296E+02  0.62647280120E+02  0.00000000000E+00 0. -1.
         -4    1    6    6    0  503  0.31684244596E+03 -0.17949416228E+03  0.26920028749E+03  0.45285327054E+03  0.00000000000E+00 0.  1.
<mgrwt>
<rscale>  0 0.16967194E+04</rscale>
<asrwt>0</asrwt>
<pdfrwt beam="1">  1        2 0.19982726E+00 0.16967194E+04</pdfrwt>
<pdfrwt beam="2">  1       -1 0.85246900E-01 0.16967194E+04</pdfrwt>
<totfact> 0.24442053E+01</totfact>
</mgrwt>
</event>
<event>
11    7  0.1497947E-008  0.1275400E+04  0.7818608E-02  0.9049303E-01
          2   -1    0    0  501    0  0.00000000000E+00  0.00000000000E+00  0.11754670767E+04  0.11754670767E+04  0.00000000000E+00 0. -1.
         -1   -1    0    0    0  501 -0.00000000000E+00 -0.00000000000E+00 -0.34595746207E+03  0.34595746207E+03  0.00000000000E+00 0.  1.
         24    2    1    2    0    0 -0.73342166487E+02 -0.15098948222E+02  0.49249960715E+03  0.50442494369E+03  0.79256603183E+02 0.  0.
        254    2    1    2    0    0  0.73342166487E+02  0.15098948222E+02  0.33701000744E+03  0.10169995951E+04  0.95661140470E+03 0.  0.
         23    2    4    4    0    0  0.11654706585E+03 -0.35867542906E+03  0.44961895282E+03  0.59382436085E+03  0.90768314059E+02 0.  0.
          2    1    3    3  502    0 -0.71289231845E+02 -0.14029157765E+02  0.49540809243E+03  0.50070764912E+03  0.00000000000E+00 0. -1.
         -1    1    3    3    0  502 -0.20529346416E+01 -0.10697904575E+01 -0.29084852791E+01  0.37172945652E+01  0.00000000000E+00 0.  1.
         13    1    5    5    0    0  0.89781353321E+02 -0.20987950711E+03  0.32890165682E+03  0.40035783840E+03  0.00000000000E+00 0. -1.
        -13    1    5    5    0    0  0.26765712527E+02 -0.14879592195E+03  0.12071729599E+03  0.19346652245E+03  0.00000000000E+00 0.  1.
          1    1    4    4  503    0  0.39614164667E+02  0.33356836075E+02  0.85111908086E+01  0.52482386800E+02  0.00000000000E+00 0.  1.
         -1    1    4    4    0  503 -0.82819064028E+02  0.34041754121E+03 -0.12112013618E+03  0.37069284741E+03  0.00000000000E+00 0. -1.
<mgrwt>
<rscale>  0 0.12754005E+04</rscale>
<asrwt>0</asrwt>
<pdfrwt beam="1">  1        2 0.18084109E+00 0.12754005E+04</pdfrwt>
<pdfrwt beam="2">  1       -1 0.53224225E-01 0.12754005E+04</pdfrwt>
<totfact> 0.78082340E+01</totfact>
</mgrwt>
</event>
<event>
12    7  0.1497947E-008  0.1483954E+04  0.7818608E-02  0.8895194E-01
          2   -1    0    0  501    0  0.00000000000E+00  0.00000000000E+00  0.67373591690E+03  0.67373591690E+03  0.00000000000E+00 0. -1.
         -1   -1    0    0    0  501 -0.00000000000E+00 -0.00000000000E+00 -0.81713038606E+03  0.81713038606E+03  0.00000000000E+00 0.  1.
         24    2    1    2    0    0  0.10125011247E+03 -0.34698473537E+03  0.24593543579E+03  0.44465720132E+03  0.81152918947E+02 0.  0.
        254    2    1    2    0    0 -0.10125011247E+03  0.34698473537E+03 -0.38932990495E+03  0.10462091016E+04  0.90129113920E+03 0.  0.
         23    2    4    4    0    0 -0.28380637136E+03  0.56150910616E+03 -0.40497526098E+03  0.75368523870E+03  0.90542499962E+02 0.  0.
         23    2    4    4    0    0  0.18255625889E+03 -0.21452437079E+03  0.15645356030E+02  0.29252386294E+03  0.77317138451E+02 0.  0.
          2    1    3    3  502    0  0.92523738816E+02 -0.23104800507E+03  0.13135758018E+03  0.28142252355E+03  0.00000000000E+00 0. -1.
         -1    1    3    3    0  502  0.87263736555E+01 -0.11593673030E+03  0.11457785562E+03  0.16323467777E+03  0.00000000000E+00 0.  1.
         13    1    5    5    0    0 -0.27815879396E+03  0.53731789913E+03 -0.40629880479E+03  0.72880831372E+03  0.00000000000E+00 0. -1.
        -13    1    5    5    0    0 -0.56475774005E+01  0.24191207030E+02  0.13235438017E+01  0.24876924976E+02  0.00000000000E+00 0.  1.
          4    1    6    6  503    0  0.15306922525E+03 -0.15535511684E+03  0.40636157393E+02  0.22184836563E+03  0.00000000000E+00 0. -1.
         -4    1    6    6    0  503  0.29487033643E+02 -0.59169253956E+02 -0.24990801363E+02  0.70675497307E+02  0.00000000000E+00 0.  1.
<mgrwt>
<rscale>  0 0.14839543E+04</rscale>
<asrwt>0</asrwt>
<pdfrwt beam="1">  1        2 0.10365168E+00 0.14839543E+04</pdfrwt>
<pdfrwt beam="2">  1       -1 0.12571237E+00 0.14839543E+04</pdfrwt>
<totfact> 0.26222015E+01</totfact>
</mgrwt>
</event>
<event>
11    7  0.1497947E-008  0.1716722E+04  0.7818608E-02  0.8751884E-01
          2   -1    0    0  501    0  0.00000000000E+00  0.00000000000E+00  0.44792529531E+03  0.44792529531E+03  0.00000000000E+00 0. -1.
         -1   -1    0    0    0  501 -0.00000000000E+00 -0.00000000000E+00 -0.16448801528E+04  0.16448801528E+04  0.00000000000E+00 0.  1.
         24    2    1    2    0    0  0.71191390631E+02  0.25338446006E+03  0.24036226374E+03  0.36544758929E+03  0.80659928017E+02 0.  0.
        254    2    1    2    0    0 -0.71191390631E+02 -0.25338446006E+03 -0.14373171212E+04  0.17273578588E+04  0.92120180567E+03 0.  0.
         23    2    4    4    0    0  0.22437548079E+03 -0.45601293894E+03 -0.10474363686E+04  0.11679717555E+04  0.93503574456E+02 0.  0.
          4    1    3    3  502    0  0.75481271405E+02  0.15741859360E+03  0.18589137830E+03  0.25501694153E+03  0.00000000000E+00 0. -1.
         -3    1    3    3    0  502 -0.42898807746E+01  0.95965866461E+02  0.54470885436E+02  0.11043064775E+03  0.00000000000E+00 0.  1.
         13    1    5    5    0    0  0.22997969984E+03 -0.45174907727E+03 -0.10122269226E+04  0.11320650308E+04  0.00000000000E+00 0.  1.
        -13    1    5    5    0    0 -0.56042190537E+01 -0.42638616730E+01 -0.35209446007E+02  0.35906724659E+02  0.00000000000E+00 0. -1.
          1    1    4    4  503    0 -0.47566796625E+02 -0.33888337226E+02 -0.54569014711E+02  0.79929950004E+02  0.00000000000E+00 0. -1.
         -1    1    4    4    0  503 -0.24800007479E+03  0.23651681611E+03 -0.33531173785E+03  0.47945615330E+03  0.00000000000E+00 0.  1.
<mgrwt>
<rscale>  0 0.17167218E+04</rscale>
<asrwt>0</asrwt>
<pdfrwt beam="1">  1        2 0.68911582E-01 0.17167218E+04</pdfrwt>
<pdfrwt beam="2">  1       -1 0.25305849E+00 0.17167218E+04</pdfrwt>
<totfact> 0.50591446E+00</totfact>
</mgrwt>
</event>
<event>
11    7  0.1497947E-008  0.2740820E+04  0.7818608E-02  0.8321881E-01
         -1   -1    0    0    0  501 -0.00000000000E+00  0.00000000000E+00  0.10321715172E+04  0.10321715172E+04  0.00000000000E+00 0.  1.
          2   -1    0    0  501    0  0.00000000000E+00 -0.00000000000E+00 -0.18194877617E+04  0.18194877617E+04  0.00000000000E+00 0. -1.
         24    2    1    2    0    0  0.92941605857E+03 -0.52118760954E+03  0.26937936119E+03  0.11019147249E+04  0.78740628304E+02 0.  0.
        254    2    1    2    0    0 -0.92941605857E+03  0.52118760954E+03 -0.10566956057E+04  0.17497445539E+04  0.89974977998E+03 0.  0.
         23    2    4    4    0    0 -0.47544349733E+01  0.57149094788E+02 -0.59559510207E+03  0.60553339722E+03  0.92997558365E+02 0.  0.
          2    1    3    3  502    0  0.18103839116E+03 -0.11160231037E+03  0.22953052713E+02  0.21390843224E+03  0.00000000000E+00 0. -1.
         -1    1    3    3    0  502  0.74837766741E+03 -0.40958529917E+03  0.24642630848E+03  0.88800629270E+03  0.00000000000E+00 0.  1.
         13    1    5    5    0    0 -0.23627208372E+02  0.77410882113E+02 -0.41371152023E+03  0.42155416214E+03  0.00000000000E+00 0. -1.
        -13    1    5    5    0    0  0.18872773399E+02 -0.20261787325E+02 -0.18188358184E+03  0.18397923509E+03  0.00000000000E+00 0.  1.
          3    1    4    4  503    0 -0.19799751634E+03  0.29430585543E+02 -0.77434126277E+02  0.21462809638E+03  0.00000000000E+00 0. -1.
         -3    1    4    4    0  503 -0.72666410725E+03  0.43460792921E+03 -0.38366637736E+03  0.92958306031E+03  0.00000000000E+00 0.  1.
<mgrwt>
<rscale>  0 0.27408199E+04</rscale>
<asrwt>0</asrwt>
<pdfrwt beam="1">  1        2 0.27992119E+00 0.27408199E+04</pdfrwt>
<pdfrwt beam="2">  1       -1 0.15879562E+00 0.27408199E+04</pdfrwt>
<totfact> 0.24997676E+00</totfact>
</mgrwt>
</event>
<event>
11    7  0.1497947E-008  0.1180610E+04  0.7818608E-02  0.9130000E-01
          2   -1    0    0  501    0  0.00000000000E+00  0.00000000000E+00  0.75923083890E+03  0.75923083890E+03  0.00000000000E+00 0. -1.
         -1   -1    0    0    0  501 -0.00000000000E+00 -0.00000000000E+00 -0.45896412128E+03  0.45896412128E+03  0.00000000000E+00 0.  1.
         24    2    1    2    0    0 -0.18136512195E+02 -0.23198104046E+02 -0.18403039079E+03  0.20328441103E+03  0.81180551426E+02 0.  0.
        254    2    1    2    0    0  0.18136512195E+02  0.23198104046E+02  0.48429710841E+03  0.10149105491E+04  0.89142170068E+03 0.  0.
         23    2    4    4    0    0 -0.65704198988E+01 -0.40155579722E+03  0.37184060110E+03  0.55473560559E+03  0.90420853688E+02 0.  0.
          4    1    3    3  502    0 -0.76417595965E+01 -0.49554770544E+02 -0.72139892067E+02  0.87853490544E+02  0.00000000000E+00 0. -1.
         -3    1    3    3    0  502 -0.10494752598E+02  0.26356666498E+02 -0.11189049872E+03  0.11543092049E+03  0.00000000000E+00 0.  1.
         13    1    5    5    0    0  0.25379703437E+02 -0.30213598127E+03  0.24088788165E+03  0.38724314332E+03  0.00000000000E+00 0. -1.
        -13    1    5    5    0    0 -0.31950123335E+02 -0.99419815958E+02  0.13095271945E+03  0.16749246227E+03  0.00000000000E+00 0.  1.
          1    1    4    4  503    0 -0.47745591847E+02  0.10261590604E+03  0.51774715551E+02  0.12445998105E+03  0.00000000000E+00 0. -1.
         -1    1    4    4    0  503  0.72452523941E+02  0.32213799523E+03  0.60681791754E+02  0.33571496250E+03  0.00000000000E+00 0.  1.
<mgrwt>
<rscale>  0 0.11806095E+04</rscale>
<asrwt>0</asrwt>
<pdfrwt beam="1">  1        2 0.11680474E+00 0.11806095E+04</pdfrwt>
<pdfrwt beam="2">  1       -1 0.70609865E-01 0.11806095E+04</pdfrwt>
<totfact> 0.84409934E+01</totfact>
</mgrwt>
</event>
<event>
11    7  0.1497947E-008  0.1274072E+04  0.7818608E-02  0.9050383E-01
         -1   -1    0    0    0  501 -0.00000000000E+00  0.00000000000E+00  0.12834129360E+03  0.12834129360E+03  0.00000000000E+00 0.  1.
          2   -1    0    0  501    0  0.00000000000E+00 -0.00000000000E+00 -0.31619962319E+04  0.31619962319E+04  0.00000000000E+00 0. -1.
         24    2    1    2    0    0 -0.25861122960E+03  0.11288769277E+03 -0.12260537193E+04  0.12606787340E+04  0.80496885861E+02 0.  0.
        254    2    1    2    0    0  0.25861122960E+03 -0.11288769277E+03 -0.18076012190E+04  0.20296587914E+04  0.87890229463E+03 0.  0.
         23    2    4    4    0    0 -0.82961435688E+02  0.25707172567E+03 -0.89497158822E+03  0.93964008199E+03  0.94767441665E+02 0.  0.
          4    1    3    3  502    0 -0.25957857294E+03  0.11310964357E+03 -0.11406419498E+04  0.11752611985E+04  0.00000000000E+00 0. -1.
         -3    1    3    3    0  502  0.96734334196E+00 -0.22195079716E+00 -0.85411769489E+02  0.85417535568E+02  0.00000000000E+00 0.  1.
         13    1    5    5    0    0 -0.52709131100E+02  0.60072424545E+02 -0.35957151154E+03  0.36834578945E+03  0.00000000000E+00 0.  1.
        -13    1    5    5    0    0 -0.30252304588E+02  0.19699930113E+03 -0.53540007669E+03  0.57129429254E+03  0.00000000000E+00 0. -1.
          3    1    4    4  503    0  0.33042743064E+03 -0.23547064710E+03 -0.84867889547E+03  0.94068303917E+03  0.00000000000E+00 0. -1.
         -3    1    4    4    0  503  0.11145234646E+02 -0.13448877135E+03 -0.63950735303E+02  0.14933567029E+03  0.00000000000E+00 0.  1.
<mgrwt>
<rscale>  0 0.12740717E+04</rscale>
<asrwt>0</asrwt>
<pdfrwt beam="1">  1        2 0.48646088E+00 0.12740717E+04</pdfrwt>
<pdfrwt beam="2">  1       -1 0.19744817E-01 0.12740717E+04</pdfrwt>
<totfact> 0.32567981E+01</totfact>
</mgrwt>
</event>
<event>
12    7  0.1497947E-008  0.1846159E+04  0.7818608E-02  0.8682130E-01
         -1   -1    0    0    0  501 -0.00000000000E+00  0.00000000000E+00  0.10617393394E+04  0.10617393394E+04  0.00000000000E+00 0.  1.
          2   -1    0    0  501    0  0.00000000000E+00 -0.00000000000E+00 -0.80252851357E+03  0.80252851357E+03  0.00000000000E+00 0. -1.
         24    2    1    2    0    0  0.20927590323E+03 -0.53875873287E+03  0.49766806938E+03  0.76715788163E+03  0.82464126457E+02 0.  0.
        254    2    1    2    0    0 -0.20927590323E+03  0.53875873287E+03 -0.23845724355E+03  0.10971099713E+04  0.90151597673E+03 0.  0.
         23    2    4    4    0    0 -0.50271705228E+02  0.51185156081E+03 -0.53820961776E+03  0.74987512582E+03  0.90132386128E+02 0.  0.
         23    2    4    4    0    0 -0.15900419800E+03  0.26907172061E+02  0.29975237421E+03  0.34723484552E+03  0.68660186484E+02 0.  0.
          4    1    3    3  502    0  0.14119572841E+03 -0.28898228537E+03  0.23487281748E+03  0.39826151631E+03  0.00000000000E+00 0. -1.
         -3    1    3    3    0  502  0.68080174818E+02 -0.24977644750E+03  0.26279525190E+03  0.36889636532E+03  0.00000000000E+00 0.  1.
         13    1    5    5    0    0 -0.51210982667E+02  0.51161194068E+03 -0.51874843006E+03  0.73038981118E+03  0.00000000000E+00 0. -1.
        -13    1    5    5    0    0  0.93927743905E+00  0.23962013077E+00 -0.19461187700E+02  0.19485314639E+02  0.00000000000E+00 0.  1.
          1    1    6    6  503    0 -0.86823117476E+02 -0.19292979307E+02  0.13791453875E+03  0.16410634594E+03  0.00000000000E+00 0. -1.
         -1    1    6    6    0  503 -0.72181080526E+02  0.46200151369E+02  0.16183783546E+03  0.18312849958E+03  0.00000000000E+00 0.  1.
<mgrwt>
<rscale>  0 0.18461594E+04</rscale>
<asrwt>0</asrwt>
<pdfrwt beam="1">  1        2 0.12346592E+00 0.18461594E+04</pdfrwt>
<pdfrwt beam="2">  1       -1 0.16334451E+00 0.18461594E+04</pdfrwt>
<totfact> 0.10154802E+01</totfact>
</mgrwt>
</event>
<event>
11    7  0.1497947E-008  0.1649273E+04  0.7818608E-02  0.8790837E-01
         -1   -1    0    0    0  501 -0.00000000000E+00  0.00000000000E+00  0.27783415781E+03  0.27783415781E+03  0.00000000000E+00 0.  1.
          2   -1    0    0  501    0  0.00000000000E+00 -0.00000000000E+00 -0.24475953326E+04  0.24475953326E+04  0.00000000000E+00 0. -1.
         24    2    1    2    0    0  0.40464384624E+03  0.75936735740E+02 -0.10068828970E+03  0.43122030511E+03  0.79434184866E+02 0.  0.
        254    2    1    2    0    0 -0.40464384624E+03 -0.75936735740E+02 -0.20690728851E+04  0.22942091853E+04  0.90157093562E+03 0.  0.
         23    2    4    4    0    0 -0.13179644542E+02 -0.36386551371E+03 -0.14434530857E+04  0.14914567325E+04  0.91184203939E+02 0.  0.
          2    1    3    3  502    0  0.78321403130E+02  0.78243783392E-01 -0.48591170938E+02  0.92170224061E+02  0.00000000000E+00 0. -1.
         -1    1    3    3    0  502  0.32632244311E+03  0.75858491956E+02 -0.52097118766E+02  0.33905008105E+03  0.00000000000E+00 0.  1.
         13    1    5    5    0    0 -0.34285632863E+02 -0.54740354072E+02 -0.29063194799E+03  0.29772292518E+03  0.00000000000E+00 0.  1.
        -13    1    5    5    0    0  0.21105988321E+02 -0.30912515964E+03 -0.11528211377E+04  0.11937338073E+04  0.00000000000E+00 0. -1.
          3    1    4    4  503    0 -0.35434280015E+03  0.25270398773E+03 -0.60981273253E+03  0.74919269496E+03  0.00000000000E+00 0. -1.
         -3    1    4    4    0  503 -0.37121401548E+02  0.35224790239E+02 -0.15807066831E+02  0.53559757861E+02  0.00000000000E+00 0.  1.
<mgrwt>
<rscale>  0 0.16492733E+04</rscale>
<asrwt>0</asrwt>
<pdfrwt beam="1">  1        2 0.37655313E+00 0.16492733E+04</pdfrwt>
<pdfrwt beam="2">  1       -1 0.42743717E-01 0.16492733E+04</pdfrwt>
<totfact> 0.21921801E+01</totfact>
</mgrwt>
</event>
<event>
11    7  0.1497947E-008  0.1677228E+04  0.7818608E-02  0.8774460E-01
         -1   -1    0    0    0  501 -0.00000000000E+00  0.00000000000E+00  0.11128650557E+04  0.11128650557E+04  0.00000000000E+00 0.  1.
          2   -1    0    0  501    0  0.00000000000E+00 -0.00000000000E+00 -0.63194824976E+03  0.63194824976E+03  0.00000000000E+00 0. -1.
         24    2    1    2    0    0 -0.31744148621E+03  0.47669567084E+03  0.37921425136E+03  0.69146705086E+03  0.79469328774E+02 0.  0.
        254    2    1    2    0    0  0.31744148621E+03 -0.47669567084E+03  0.10170255455E+03  0.10533462546E+04  0.87817256997E+03 0.  0.
         23    2    4    4    0    0  0.30554693914E+03  0.21200893569E+01  0.36426084713E+03  0.48435944642E+03  0.92491522780E+02 0.  0.
          2    1    3    3  502    0 -0.33412705144E+02  0.50796686765E+02  0.13357699148E+02  0.62250625522E+02  0.00000000000E+00 0. -1.
         -1    1    3    3    0  502 -0.28402878107E+03  0.42589898408E+03  0.36585655222E+03  0.62921642534E+03  0.00000000000E+00 0.  1.
         13    1    5    5    0    0 -0.48288768981E+01  0.67550461955E+01  0.55468890721E+01  0.99858239308E+01  0.00000000000E+00 0.  1.
        -13    1    5    5    0    0  0.31037581604E+03 -0.46349568386E+01  0.35871395806E+03  0.47437362249E+03  0.00000000000E+00 0. -1.
          1    1    4    4  503    0 -0.33141648213E+02 -0.43982865375E+03 -0.25350344647E+03  0.50873530532E+03  0.00000000000E+00 0. -1.
         -1    1    4    4    0  503  0.45036195283E+02 -0.38987106454E+02 -0.90548461069E+01  0.60251502829E+02  0.00000000000E+00 0.  1.
<mgrwt>
<rscale>  0 0.16772276E+04</rscale>
<asrwt>0</asrwt>
<pdfrwt beam="1">  1        2 0.97222808E-01 0.16772276E+04</pdfrwt>
<pdfrwt beam="2">  1       -1 0.17121001E+00 0.16772276E+04</pdfrwt>
<totfact> 0.12219559E+01</totfact>
</mgrwt>
</event>
<event>
11    7  0.1497947E-008  0.2246539E+04  0.7818608E-02  0.8499303E-01
         -1   -1    0    0    0  501 -0.00000000000E+00  0.00000000000E+00  0.59750202476E+03  0.59750202476E+03  0.00000000000E+00 0.  1.
          2   -1    0    0  501    0  0.00000000000E+00 -0.00000000000E+00 -0.21116819174E+04  0.21116819174E+04  0.00000000000E+00 0. -1.
         24    2    1    2    0    0  0.76469198277E+02 -0.47903544191E+03  0.33064493785E+03  0.59219699741E+03  0.77773491155E+02 0.  0.
        254    2    1    2    0    0 -0.76469198277E+02  0.47903544191E+03 -0.18448248305E+04  0.21169869447E+04  0.91811359657E+03 0.  0.
         23    2    4    4    0    0  0.23838465762E+03  0.22379541480E+03 -0.15220258471E+04  0.15592846194E+04  0.88849379982E+02 0.  0.
          2    1    3    3  502    0 -0.39602613274E+01 -0.12457460097E+03  0.11489887392E+03  0.16951774570E+03  0.00000000000E+00 0. -1.
         -1    1    3    3    0  502  0.80429459604E+02 -0.35446084094E+03  0.21574606392E+03  0.42267925171E+03  0.00000000000E+00 0.  1.
         13    1    5    5    0    0  0.22599424309E+03  0.21772667851E+03 -0.13200602223E+04  0.13568482947E+04  0.00000000000E+00 0. -1.
        -13    1    5    5    0    0  0.12390414532E+02  0.60687362966E+01 -0.20196562486E+03  0.20243632470E+03  0.00000000000E+00 0.  1.
          1    1    4    4  503    0 -0.22663086134E+03  0.16269338124E+03 -0.91833321273E+02  0.29370740969E+03  0.00000000000E+00 0. -1.
         -1    1    4    4    0  503 -0.88222994556E+02  0.92546645861E+02 -0.23096566204E+03  0.26399491561E+03  0.00000000000E+00 0.  1.
<mgrwt>
<rscale>  0 0.22465389E+04</rscale>
<asrwt>0</asrwt>
<pdfrwt beam="1">  1        2 0.32487415E+00 0.22465389E+04</pdfrwt>
<pdfrwt beam="2">  1       -1 0.91923387E-01 0.22465389E+04</pdfrwt>
<totfact> 0.69128014E+00</totfact>
</mgrwt>
</event>
<event>
12    7  0.1497947E-008  0.1336541E+04  0.7818608E-02  0.9001080E-01
          2   -1    0    0  501    0  0.00000000000E+00  0.00000000000E+00  0.73854321334E+03  0.73854321334E+03  0.00000000000E+00 0. -1.
         -1   -1    0    0    0  501 -0.00000000000E+00 -0.00000000000E+00 -0.60468405908E+03  0.60468405908E+03  0.00000000000E+00 0.  1.
         24    2    1    2    0    0 -0.23664028415E+03  0.13170595312E+03  0.28152382178E+03  0.39874018157E+03  0.79956162994E+02 0.  0.
        254    2    1    2    0    0  0.23664028415E+03 -0.13170595312E+03 -0.14766466752E+03  0.94448709084E+03  0.89269587686E+03 0.  0.
         23    2    4    4    0    0 -0.26598240651E+03 -0.27190778014E+03 -0.10779363887E+03  0.40641933867E+03  0.94216393428E+02 0.  0.
         23    2    4    4    0    0  0.50262269066E+03  0.14020182701E+03 -0.39871028654E+02  0.53806775217E+03  0.12506432561E+03 0.  0.
          2    1    3    3  502    0 -0.54474775113E+02  0.36797811842E+02  0.12229784704E+03  0.13884647446E+03  0.00000000000E+00 0. -1.
         -3    1    3    3    0  502 -0.18216550904E+03  0.94908141282E+02  0.15922597474E+03  0.25989370711E+03  0.00000000000E+00 0.  1.
         13    1    5    5    0    0 -0.14086475848E+03 -0.20160830310E+03 -0.46203228429E+02  0.25024693080E+03  0.00000000000E+00 0.  1.
        -13    1    5    5    0    0 -0.12511764802E+03 -0.70299477043E+02 -0.61590410440E+02  0.15617240786E+03  0.00000000000E+00 0. -1.
          2    1    6    6  503    0  0.27329212386E+03  0.32523383604E+02 -0.67026525987E+02  0.28326473594E+03  0.00000000000E+00 0. -1.
         -2    1    6    6    0  503  0.22933056680E+03  0.10767844341E+03  0.27155497333E+02  0.25480301623E+03  0.00000000000E+00 0.  1.
<mgrwt>
<rscale>  0 0.13365408E+04</rscale>
<asrwt>0</asrwt>
<pdfrwt beam="1">  1        2 0.11362203E+00 0.13365408E+04</pdfrwt>
<pdfrwt beam="2">  1       -1 0.93028317E-01 0.13365408E+04</pdfrwt>
<totfact> 0.47960860E+01</totfact>
</mgrwt>
</event>
<event>
11    7  0.1497947E-008  0.3002567E+04  0.7818608E-02  0.8242998E-01
          4   -1    0    0  501    0  0.00000000000E+00  0.00000000000E+00  0.95749055043E+03  0.95749055043E+03  0.00000000000E+00 0. -1.
         -3   -1    0    0    0  501 -0.00000000000E+00 -0.00000000000E+00 -0.23539151636E+04  0.23539151636E+04  0.00000000000E+00 0.  1.
         24    2    1    2    0    0  0.68736747279E+02  0.93215613247E+02  0.86516296022E+03  0.87656786396E+03  0.80314266531E+02 0.  0.
        254    2    1    2    0    0 -0.68736747279E+02 -0.93215613247E+02 -0.22615875734E+04  0.24348378501E+04  0.89456308502E+03 0.  0.
         23    2    4    4    0    0 -0.55430976705E+02  0.18032763259E+03 -0.68863532926E+02  0.22004636141E+03  0.89930899877E+02 0.  0.
          4    1    3    3  502    0  0.33090609664E+02  0.71837673293E+02  0.74952684538E+03  0.75368835184E+03  0.00000000000E+00 0. -1.
         -3    1    3    3    0  502  0.35646137614E+02  0.21377939954E+02  0.11563611484E+03  0.12287951212E+03  0.00000000000E+00 0.  1.
         13    1    5    5    0    0 -0.29302399133E+02  0.34832335889E+02  0.17589675768E+02  0.48798759329E+02  0.00000000000E+00 0.  1.
        -13    1    5    5    0    0 -0.26128577573E+02  0.14549529670E+03 -0.86453208695E+02  0.17124760209E+03  0.00000000000E+00 0. -1.
          1    1    4    4  503    0 -0.18374369823E+02 -0.26599608622E+03 -0.21886465952E+04  0.22048277606E+04  0.00000000000E+00 0. -1.
         -1    1    4    4    0  503  0.50685992502E+01 -0.75471596122E+01 -0.40774452724E+01  0.99637280433E+01  0.00000000000E+00 0.  1.
<mgrwt>
<rscale>  0 0.30025666E+04</rscale>
<asrwt>0</asrwt>
<pdfrwt beam="1">  1        4 0.14730624E+00 0.30025666E+04</pdfrwt>
<pdfrwt beam="2">  1       -3 0.36214079E+00 0.30025666E+04</pdfrwt>
<totfact> 0.10429294E-02</totfact>
</mgrwt>
</event>
<event>
12    7  0.1497947E-008  0.1184396E+04  0.7818608E-02  0.9126625E-01
         -1   -1    0    0    0  501 -0.00000000000E+00  0.00000000000E+00  0.20924032335E+03  0.20924032335E+03  0.00000000000E+00 0.  1.
          2   -1    0    0  501    0  0.00000000000E+00 -0.00000000000E+00 -0.16760560121E+04  0.16760560121E+04  0.00000000000E+00 0. -1.
         24    2    1    2    0    0 -0.59462170312E+02 -0.21829711619E+03 -0.43726971357E+03  0.49887354437E+03  0.80502361647E+02 0.  0.
        254    2    1    2    0    0  0.59462170312E+02  0.21829711619E+03 -0.10295459752E+04  0.13864227911E+04  0.90056307940E+03 0.  0.
         23    2    4    4    0    0 -0.24502555702E+03 -0.24830792812E+03 -0.36214916242E+03  0.51075491752E+03  0.89578006067E+02 0.  0.
         23    2    4    4    0    0  0.30448772733E+03  0.46660504431E+03 -0.66739681275E+03  0.87566787355E+03  0.10460724460E+03 0.  0.
          2    1    3    3  502    0 -0.54985635741E+02 -0.17079040906E+03 -0.39975780984E+03  0.43817700818E+03  0.00000000000E+00 0. -1.
         -1    1    3    3    0  502 -0.44765345715E+01 -0.47506707138E+02 -0.37511903726E+02  0.60696536195E+02  0.00000000000E+00 0.  1.
         13    1    5    5    0    0 -0.12082671710E+03 -0.15423159114E+03 -0.14617367855E+03  0.24444472499E+03  0.00000000000E+00 0.  1.
        -13    1    5    5    0    0 -0.12419883992E+03 -0.94076336975E+02 -0.21597548387E+03  0.26631019254E+03  0.00000000000E+00 0. -1.
          1    1    6    6  503    0  0.15320431383E+03  0.14262305698E+03 -0.24269746063E+03  0.32049174022E+03  0.00000000000E+00 0. -1.
         -1    1    6    6    0  503  0.15128341350E+03  0.32398198733E+03 -0.42469935212E+03  0.55517613332E+03  0.00000000000E+00 0.  1.
<mgrwt>
<rscale>  0 0.11843961E+04</rscale>
<asrwt>0</asrwt>
<pdfrwt beam="1">  1        2 0.25785478E+00 0.11843961E+04</pdfrwt>
<pdfrwt beam="2">  1       -1 0.32190817E-01 0.11843961E+04</pdfrwt>
<totfact> 0.10250972E+02</totfact>
</mgrwt>
</event>
<event>
12    7  0.1497947E-008  0.1973928E+04  0.7818608E-02  0.8618908E-01
          2   -1    0    0  501    0  0.00000000000E+00  0.00000000000E+00  0.12066008849E+04  0.12066008849E+04  0.00000000000E+00 0. -1.
         -1   -1    0    0    0  501 -0.00000000000E+00 -0.00000000000E+00 -0.80730787098E+03  0.80730787098E+03  0.00000000000E+00 0.  1.
         24    2    1    2    0    0 -0.71794188825E+03  0.29943158024E+03  0.22711706732E+03  0.81431194533E+03  0.80137106890E+02 0.  0.
        254    2    1    2    0    0  0.71794188825E+03 -0.29943158024E+03  0.17217594661E+03  0.11995968106E+04  0.89682112217E+03 0.  0.
         23    2    4    4    0    0  0.52673424927E+03 -0.51610018136E+03 -0.15444136721E+03  0.75861149456E+03  0.88492356878E+02 0.  0.
         23    2    4    4    0    0  0.19120763898E+03  0.21666860112E+03  0.32661731382E+03  0.44098531600E+03  0.65448722854E+02 0.  0.
          4    1    3    3  502    0 -0.55595772352E+03  0.24370862330E+03  0.20925303299E+03  0.64208232745E+03  0.00000000000E+00 0. -1.
         -3    1    3    3    0  502 -0.16198416473E+03  0.55722956942E+02  0.17864034326E+02  0.17222961788E+03  0.00000000000E+00 0.  1.
         13    1    5    5    0    0  0.36008913917E+03 -0.38012443049E+03 -0.73179335157E+02  0.52869082260E+03  0.00000000000E+00 0. -1.
        -13    1    5    5    0    0  0.16664511009E+03 -0.13597575087E+03 -0.81262032051E+02  0.22992067196E+03  0.00000000000E+00 0.  1.
          1    1    6    6  503    0  0.32250037956E+01  0.18929818571E+02  0.62712064697E+01  0.20200661157E+02  0.00000000000E+00 0. -1.
         -1    1    6    6    0  503  0.18798263519E+03  0.19773878255E+03  0.32034610735E+03  0.42078465484E+03  0.00000000000E+00 0.  1.
<mgrwt>
<rscale>  0 0.19739285E+04</rscale>
<asrwt>0</asrwt>
<pdfrwt beam="1">  1        2 0.18563090E+00 0.19739285E+04</pdfrwt>
<pdfrwt beam="2">  1       -1 0.12420121E+00 0.19739285E+04</pdfrwt>
<totfact> 0.11330376E+01</totfact>
</mgrwt>
</event>
<event>
12    7  0.1497947E-008  0.1920937E+04  0.7818608E-02  0.8644504E-01
          2   -1    0    0  501    0  0.00000000000E+00  0.00000000000E+00  0.26235122060E+04  0.26235122060E+04  0.00000000000E+00 0. -1.
         -1   -1    0    0    0  501 -0.00000000000E+00 -0.00000000000E+00 -0.35162784143E+03  0.35162784143E+03  0.00000000000E+00 0.  1.
         24    2    1    2    0    0  0.11443233410E+03  0.74182960321E+03  0.97415841811E+03  0.12323489121E+04  0.79330310909E+02 0.  0.
        254    2    1    2    0    0 -0.11443233410E+03 -0.74182960321E+03  0.12977259465E+04  0.17427911354E+04  0.88871952275E+03 0.  0.
         23    2    4    4    0    0  0.30400581908E+03 -0.40922565291E+03  0.10046200679E+04  0.11302387607E+04  0.91065923211E+02 0.  0.
         23    2    4    4    0    0 -0.41843815318E+03 -0.33260395030E+03  0.29310587859E+03  0.61255237468E+03  0.59945640853E+02 0.  0.
          4    1    3    3  502    0 -0.56431419597E+01  0.11443757860E+02  0.73392239678E+01  0.14719675730E+02  0.00000000000E+00 0. -1.
         -3    1    3    3    0  502  0.12007547606E+03  0.73038584535E+03  0.96681919415E+03  0.12176292363E+04  0.00000000000E+00 0.  1.
         13    1    5    5    0    0  0.25744011752E+03 -0.39032694429E+03  0.91038356573E+03  0.10234396779E+04  0.00000000000E+00 0. -1.
        -13    1    5    5    0    0  0.46565701568E+02 -0.18898708613E+02  0.94236502175E+02  0.10679908282E+03  0.00000000000E+00 0.  1.
          1    1    6    6  503    0 -0.30899964479E+01 -0.10755013679E+01 -0.27838685860E+01  0.42958940332E+01  0.00000000000E+00 0.  1.
         -1    1    6    6    0  503 -0.41534815674E+03 -0.33152844893E+03  0.29588974718E+03  0.60825648064E+03  0.00000000000E+00 0. -1.
<mgrwt>
<rscale>  0 0.19209372E+04</rscale>
<asrwt>0</asrwt>
<pdfrwt beam="1">  1        2 0.40361725E+00 0.19209372E+04</pdfrwt>
<pdfrwt beam="2">  1       -1 0.54096593E-01 0.19209372E+04</pdfrwt>
<totfact> 0.10838107E+01</totfact>
</mgrwt>
</event>
<event>
12    7  0.1497947E-008  0.1110251E+04  0.7818608E-02  0.9195258E-01
          2   -1    0    0  501    0  0.00000000000E+00  0.00000000000E+00  0.65159423240E+03  0.65159423240E+03  0.00000000000E+00 0. -1.
         -1   -1    0    0    0  501 -0.00000000000E+00 -0.00000000000E+00 -0.47293865975E+03  0.47293865975E+03  0.00000000000E+00 0.  1.
         24    2    1    2    0    0  0.12374862907E+03 -0.36050730128E+02  0.14952828998E+03  0.21277682972E+03  0.79384453275E+02 0.  0.
        254    2    1    2    0    0 -0.12374862907E+03  0.36050730128E+02  0.29127282662E+02  0.91175606243E+03  0.90212933687E+03 0.  0.
         23    2    4    4    0    0 -0.39589137592E+03 -0.27357335487E+03  0.44956020342E+02  0.49204753405E+03  0.92289598418E+02 0.  0.
         23    2    4    4    0    0  0.27214274685E+03  0.30962408500E+03 -0.15828737680E+02  0.41970852838E+03  0.77304276658E+02 0.  0.
          2    1    3    3  502    0  0.13307247398E+03 -0.33407977302E+02  0.12202119988E+03  0.18361249821E+03  0.00000000000E+00 0. -1.
         -1    1    3    3    0  502 -0.93238449148E+01 -0.26427528257E+01  0.27507090100E+02  0.29164331507E+02  0.00000000000E+00 0.  1.
         13    1    5    5    0    0 -0.22055232248E+03 -0.18069434046E+03  0.65560725697E+02  0.29256107120E+03  0.00000000000E+00 0. -1.
        -13    1    5    5    0    0 -0.17533905343E+03 -0.92879014410E+02 -0.20604705355E+02  0.19948646285E+03  0.00000000000E+00 0.  1.
          3    1    6    6  503    0  0.10482707657E+03  0.17734417735E+03 -0.12610580666E+02  0.20639452504E+03  0.00000000000E+00 0. -1.
         -3    1    6    6    0  503  0.16731567028E+03  0.13227990765E+03 -0.32181570143E+01  0.21331400335E+03  0.00000000000E+00 0.  1.
<mgrwt>
<rscale>  0 0.11102506E+04</rscale>
<asrwt>0</asrwt>
<pdfrwt beam="1">  1        2 0.10024527E+00 0.11102506E+04</pdfrwt>
<pdfrwt beam="2">  1       -1 0.72759794E-01 0.11102506E+04</pdfrwt>
<totfact> 0.96828618E+01</totfact>
</mgrwt>
</event>
<event>
12    7  0.1497947E-008  0.1780940E+04  0.7818608E-02  0.8716501E-01
         -1   -1    0    0    0  501 -0.00000000000E+00  0.00000000000E+00  0.73327382836E+03  0.73327382836E+03  0.00000000000E+00 0.  1.
          2   -1    0    0  501    0  0.00000000000E+00 -0.00000000000E+00 -0.10813654478E+04  0.10813654478E+04  0.00000000000E+00 0. -1.
         24    2    1    2    0    0 -0.27372353799E+03  0.52574264043E+02  0.50774531177E+03  0.58491392307E+03  0.81427067291E+02 0.  0.
        254    2    1    2    0    0  0.27372353799E+03 -0.52574264043E+02 -0.85583693121E+03  0.12297253531E+04  0.83790152330E+03 0.  0.
         23    2    4    4    0    0  0.41223180288E+03 -0.50932057300E+02 -0.71340408438E+02  0.43049885565E+03  0.87810461039E+02 0.  0.
         23    2    4    4    0    0 -0.13850826490E+03 -0.16422067427E+01 -0.78449652278E+03  0.79922649746E+03  0.64350320139E+02 0.  0.
          2    1    3    3  502    0 -0.84118203960E+02  0.26972800819E+02  0.24074771134E+03  0.25644271238E+03  0.00000000000E+00 0. -1.
         -3    1    3    3    0  502 -0.18960533403E+03  0.25601463224E+02  0.26699760043E+03  0.32847121068E+03  0.00000000000E+00 0.  1.
         13    1    5    5    0    0  0.14218020774E+03 -0.58204834578E+02 -0.13483255931E+02  0.15422325516E+03  0.00000000000E+00 0. -1.
        -13    1    5    5    0    0  0.27005159515E+03  0.72727772779E+01 -0.57857152507E+02  0.27627560049E+03  0.00000000000E+00 0.  1.
          2    1    6    6  503    0 -0.10021386243E+03  0.28225024679E+02 -0.52455509503E+03  0.53478735771E+03  0.00000000000E+00 0. -1.
         -2    1    6    6    0  503 -0.38294402464E+02 -0.29867231421E+02 -0.25994142775E+03  0.26443913975E+03  0.00000000000E+00 0.  1.
<mgrwt>
<rscale>  0 0.17809402E+04</rscale>
<asrwt>0</asrwt>
<pdfrwt beam="1">  1        2 0.16636391E+00 0.17809402E+04</pdfrwt>
<pdfrwt beam="2">  1       -1 0.11281136E+00 0.17809402E+04</pdfrwt>
<totfact> 0.17344657E+01</totfact>
</mgrwt>
</event>
<event>
12    7  0.1497947E-008  0.3341333E+04  0.7818608E-02  0.8152457E-01
         -1   -1    0    0    0  501 -0.00000000000E+00  0.00000000000E+00  0.97815864446E+03  0.97815864446E+03  0.00000000000E+00 0.  1.
          2   -1    0    0  501    0  0.00000000000E+00 -0.00000000000E+00 -0.28534499232E+04  0.28534499232E+04  0.00000000000E+00 0. -1.
         24    2    1    2    0    0 -0.13277958020E+04  0.64612996563E+03 -0.12487230612E+04  0.19354993351E+04  0.79515836181E+02 0.  0.
        254    2    1    2    0    0  0.13277958020E+04 -0.64612996563E+03 -0.62656821750E+03  0.18961092325E+04  0.10109979555E+04 0.  0.
         23    2    4    4    0    0  0.38453144295E+03 -0.15989470505E+03 -0.70714545854E+03  0.82595897019E+03  0.93395789945E+02 0.  0.
         23    2    4    4    0    0  0.94326435908E+03 -0.48623526058E+03  0.80577241046E+02  0.10701502623E+04  0.11205584525E+03 0.  0.
          2    1    3    3  502    0 -0.59516781930E+03  0.28367139664E+03 -0.60897920181E+03  0.89752429641E+03  0.00000000000E+00 0. -1.
         -1    1    3    3    0  502 -0.73262798273E+03  0.36245856899E+03 -0.63974385941E+03  0.10379750387E+04  0.00000000000E+00 0.  1.
         13    1    5    5    0    0  0.23789128431E+03 -0.11265670675E+03 -0.52582117413E+03  0.58802355726E+03  0.00000000000E+00 0. -1.
        -13    1    5    5    0    0  0.14664015864E+03 -0.47237998298E+02 -0.18132428441E+03  0.23793541293E+03  0.00000000000E+00 0.  1.
          2    1    6    6  503    0  0.50695958226E+03 -0.28705803077E+03  0.95163843238E+02  0.59031050146E+03  0.00000000000E+00 0.  1.
         -2    1    6    6    0  503  0.43630477682E+03 -0.19917722981E+03 -0.14586602192E+02  0.47983976087E+03  0.00000000000E+00 0. -1.
<mgrwt>
<rscale>  0 0.33413331E+04</rscale>
<asrwt>0</asrwt>
<pdfrwt beam="1">  1        2 0.43899229E+00 0.33413331E+04</pdfrwt>
<pdfrwt beam="2">  1       -1 0.15048595E+00 0.33413331E+04</pdfrwt>
<totfact> 0.70129159E-01</totfact>
</mgrwt>
</event>
<event>
12    7  0.1497947E-008  0.2119587E+04  0.7818608E-02  0.8552664E-01
          2   -1    0    0  501    0  0.00000000000E+00  0.00000000000E+00  0.90019554871E+03  0.90019554871E+03  0.00000000000E+00 0. -1.
         -1   -1    0    0    0  501 -0.00000000000E+00 -0.00000000000E+00 -0.12476875349E+04  0.12476875349E+04  0.00000000000E+00 0.  1.
         24    2    1    2    0    0  0.66113601144E+03 -0.54916324763E+03 -0.26115357165E+03  0.90188997082E+03  0.80766535846E+02 0.  0.
        254    2    1    2    0    0 -0.66113601144E+03  0.54916324763E+03 -0.86338414576E+02  0.12459931128E+04  0.89797740350E+03 0.  0.
         23    2    4    4    0    0 -0.78382764099E+03  0.56979469332E+03 -0.27141619585E+03  0.10104576473E+04  0.91138039609E+02 0.  0.
         23    2    4    4    0    0  0.12269162955E+03 -0.20631445697E+02  0.18507778127E+03  0.23553546554E+03  0.75791014590E+02 0.  0.
          4    1    3    3  502    0  0.13249413303E+02 -0.13872935529E+02  0.58958493436E+01  0.20069039154E+02  0.00000000000E+00 0. -1.
         -3    1    3    3    0  502  0.64788659814E+03 -0.53529031210E+03 -0.26704942099E+03  0.88182093166E+03  0.00000000000E+00 0.  1.
         13    1    5    5    0    0 -0.33184242660E+03  0.18649393035E+03 -0.11044134180E+03  0.39635422557E+03  0.00000000000E+00 0.  1.
        -13    1    5    5    0    0 -0.45198521439E+03  0.38330076297E+03 -0.16097485405E+03  0.61410342171E+03  0.00000000000E+00 0. -1.
          3    1    6    6  503    0  0.75095478921E+02 -0.44399873007E+02  0.82942763809E+02  0.12037517080E+03  0.00000000000E+00 0. -1.
         -3    1    6    6    0  503  0.47596150631E+02  0.23768427311E+02  0.10213501746E+03  0.11516029474E+03  0.00000000000E+00 0.  1.
<mgrwt>
<rscale>  0 0.21195875E+04</rscale>
<asrwt>0</asrwt>
<pdfrwt beam="1">  1        2 0.13849162E+00 0.21195875E+04</pdfrwt>
<pdfrwt beam="2">  1       -1 0.19195193E+00 0.21195875E+04</pdfrwt>
<totfact> 0.52676655E+00</totfact>
</mgrwt>
</event>
<event>
11    7  0.1497947E-008  0.2675679E+04  0.7818608E-02  0.8342940E-01
         -1   -1    0    0    0  501 -0.00000000000E+00  0.00000000000E+00  0.10702400525E+04  0.10702400525E+04  0.00000000000E+00 0.  1.
          2   -1    0    0  501    0  0.00000000000E+00 -0.00000000000E+00 -0.16723481968E+04  0.16723481968E+04  0.00000000000E+00 0. -1.
         24    2    1    2    0    0  0.10727505695E+04 -0.36799513900E+02 -0.78034342437E+03  0.13293132912E+04  0.77394945943E+02 0.  0.
        254    2    1    2    0    0 -0.10727505695E+04  0.36799513900E+02  0.17823528004E+03  0.14132749582E+04  0.90190371093E+03 0.  0.
         23    2    4    4    0    0 -0.39531532071E+03 -0.12778574586E+03  0.36474873035E+03  0.55890365883E+03  0.82025995437E+02 0.  0.
          4    1    3    3  502    0  0.79677318204E+03 -0.53804126842E+02 -0.55323992408E+03  0.97150234239E+03  0.00000000000E+00 0. -1.
         -3    1    3    3    0  502  0.27597738744E+03  0.17004612942E+02 -0.22710350030E+03  0.35781094881E+03  0.00000000000E+00 0.  1.
         13    1    5    5    0    0 -0.39337246188E+03 -0.11779904714E+03  0.36393728949E+03  0.54869742113E+03  0.00000000000E+00 0.  1.
        -13    1    5    5    0    0 -0.19428588321E+01 -0.99866987233E+01  0.81144086613E+00  0.10206237706E+02  0.00000000000E+00 0. -1.
          2    1    4    4  503    0 -0.37341323783E+03  0.25014652172E+03 -0.27432418399E+03  0.52655910061E+03  0.00000000000E+00 0.  1.
         -2    1    4    4    0  503 -0.30402201094E+03 -0.85561261956E+02  0.87810733679E+02  0.32781219873E+03  0.00000000000E+00 0. -1.
<mgrwt>
<rscale>  0 0.26756786E+04</rscale>
<asrwt>0</asrwt>
<pdfrwt beam="1">  1        2 0.25728434E+00 0.26756786E+04</pdfrwt>
<pdfrwt beam="2">  1       -1 0.16465232E+00 0.26756786E+04</pdfrwt>
<totfact> 0.27415079E+00</totfact>
</mgrwt>
</event>
<event>
12    7  0.1497947E-008  0.1744042E+04  0.7818608E-02  0.8736637E-01
         -1   -1    0    0    0  501 -0.00000000000E+00  0.00000000000E+00  0.58617885540E+03  0.58617885540E+03  0.00000000000E+00 0.  1.
          2   -1    0    0  501    0  0.00000000000E+00 -0.00000000000E+00 -0.12972502783E+04  0.12972502783E+04  0.00000000000E+00 0. -1.
         24    2    1    2    0    0 -0.42956730228E+03  0.40496336516E+03 -0.80765764863E+02  0.60064993191E+03  0.75722107841E+02 0.  0.
        254    2    1    2    0    0  0.42956730228E+03 -0.40496336516E+03 -0.63030565806E+03  0.12827792018E+04  0.94853247900E+03 0.  0.
         23    2    4    4    0    0  0.15614905686E+03 -0.68829911491E+03 -0.34705586528E+03  0.79142911382E+03  0.88170681302E+02 0.  0.
         23    2    4    4    0    0  0.27341824542E+03  0.28333574975E+03 -0.28324979279E+03  0.49135008800E+03  0.78471522528E+02 0.  0.
          2    1    3    3  502    0 -0.34116011987E+03  0.31861079927E+03 -0.32344634362E+02  0.46792012585E+03  0.00000000000E+00 0. -1.
         -1    1    3    3    0  502 -0.88407182407E+02  0.86352565895E+02 -0.48421130502E+02  0.13272980606E+03  0.00000000000E+00 0.  1.
         13    1    5    5    0    0  0.14464210253E+03 -0.58995905856E+03 -0.26451915472E+03  0.66252804606E+03  0.00000000000E+00 0.  1.
        -13    1    5    5    0    0  0.11506954325E+02 -0.98340056347E+02 -0.82536710561E+02  0.12890106776E+03  0.00000000000E+00 0. -1.
          3    1    6    6  503    0 -0.47547384403E+01  0.64536725705E+01 -0.11306143766E+02  0.13859520704E+02  0.00000000000E+00 0. -1.
         -3    1    6    6    0  503  0.27817298386E+03  0.27688207718E+03 -0.27194364902E+03  0.47749056729E+03  0.00000000000E+00 0.  1.
<mgrwt>
<rscale>  0 0.17440421E+04</rscale>
<asrwt>0</asrwt>
<pdfrwt beam="1">  1        2 0.19957696E+00 0.17440421E+04</pdfrwt>
<pdfrwt beam="2">  1       -1 0.90181363E-01 0.17440421E+04</pdfrwt>
<totfact> 0.21572150E+01</totfact>
</mgrwt>
</event>
<event>
12    7  0.1497947E-008  0.1503846E+04  0.7818608E-02  0.8881900E-01
         -1   -1    0    0    0  501 -0.00000000000E+00  0.00000000000E+00  0.14462638094E+04  0.14462638094E+04  0.00000000000E+00 0.  1.
          2   -1    0    0  501    0  0.00000000000E+00 -0.00000000000E+00 -0.39093000411E+03  0.39093000411E+03  0.00000000000E+00 0. -1.
         24    2    1    2    0    0 -0.16832325408E+03  0.24975852030E+01 -0.20512844409E+03  0.27740856660E+03  0.80863331939E+02 0.  0.
        254    2    1    2    0    0  0.16832325408E+03 -0.24975852030E+01  0.12604622494E+04  0.15597852469E+04  0.90323085565E+03 0.  0.
         23    2    4    4    0    0  0.31401272051E+01  0.64357539670E+02 -0.11968367091E+03  0.16362936853E+03  0.91096848751E+02 0.  0.
         23    2    4    4    0    0  0.16518312687E+03 -0.66855124873E+02  0.13801459203E+04  0.13961558784E+04  0.11266500045E+03 0.  0.
          4    1    3    3  502    0 -0.17176478540E+03  0.13535515617E+02 -0.20185952813E+03  0.26539333222E+03  0.00000000000E+00 0. -1.
         -3    1    3    3    0  502  0.34415313282E+01 -0.11037930414E+02 -0.32689159626E+01  0.12015234383E+02  0.00000000000E+00 0.  1.
         13    1    5    5    0    0 -0.22587763197E+02  0.77381861055E+02 -0.10118228848E+03  0.12936775088E+03  0.00000000000E+00 0. -1.
        -13    1    5    5    0    0  0.25727890402E+02 -0.13024321385E+02 -0.18501382433E+02  0.34261617650E+02  0.00000000000E+00 0.  1.
          4    1    6    6  503    0  0.13715954918E+03 -0.53197043475E+02  0.69980994838E+03  0.71510602795E+03  0.00000000000E+00 0. -1.
         -4    1    6    6    0  503  0.28023577696E+02 -0.13658081398E+02  0.68033597193E+03  0.68104985045E+03  0.00000000000E+00 0.  1.
<mgrwt>
<rscale>  0 0.15038456E+04</rscale>
<asrwt>0</asrwt>
<pdfrwt beam="1">  1        2 0.60143078E-01 0.15038456E+04</pdfrwt>
<pdfrwt beam="2">  1       -1 0.22250212E+00 0.15038456E+04</pdfrwt>
<totfact> 0.95497012E+00</totfact>
</mgrwt>
</event>
<event>
11    7  0.1497947E-008  0.2192279E+04  0.7818608E-02  0.8521649E-01
          2   -1    0    0  501    0  0.00000000000E+00  0.00000000000E+00  0.21417451612E+04  0.21417451612E+04  0.00000000000E+00 0. -1.
         -1   -1    0    0    0  501 -0.00000000000E+00 -0.00000000000E+00 -0.56100141273E+03  0.56100141273E+03  0.00000000000E+00 0.  1.
         24    2    1    2    0    0  0.42354761379E+03 -0.76040791296E+03  0.33369702641E+03  0.93561757293E+03  0.80085966939E+02 0.  0.
        254    2    1    2    0    0 -0.42354761379E+03  0.76040791296E+03  0.12470467221E+04  0.17671290010E+04  0.90000366887E+03 0.  0.
         23    2    4    4    0    0  0.57723934281E+01  0.78532033092E+03  0.78576132325E+03  0.11146834014E+04  0.91306546644E+02 0.  0.
          4    1    3    3  502    0  0.15938758226E+03 -0.31737606806E+03  0.17515683416E+03  0.39599480616E+03  0.00000000000E+00 0. -1.
         -3    1    3    3    0  502  0.26416003152E+03 -0.44303184490E+03  0.15854019225E+03  0.53962276676E+03  0.00000000000E+00 0.  1.
         13    1    5    5    0    0 -0.17167948387E+02  0.64819561861E+03  0.68317124382E+03  0.94189980721E+03  0.00000000000E+00 0.  1.
        -13    1    5    5    0    0  0.22940341815E+02  0.13712471231E+03  0.10259007942E+03  0.17278359414E+03  0.00000000000E+00 0. -1.
          3    1    4    4  503    0 -0.57330500643E+02  0.56515371373E+02  0.86013638943E+02  0.11780967528E+03  0.00000000000E+00 0. -1.
         -3    1    4    4    0  503 -0.37198950657E+03 -0.81427789336E+02  0.37527175988E+03  0.53463592438E+03  0.00000000000E+00 0.  1.
<mgrwt>
<rscale>  0 0.21922792E+04</rscale>
<asrwt>0</asrwt>
<pdfrwt beam="1">  1        2 0.32949925E+00 0.21922792E+04</pdfrwt>
<pdfrwt beam="2">  1       -1 0.86307911E-01 0.21922792E+04</pdfrwt>
<totfact> 0.76751787E+00</totfact>
</mgrwt>
</event>
<event>
11    7  0.1497947E-008  0.2114398E+04  0.7818608E-02  0.8554927E-01
         -1   -1    0    0    0  501 -0.00000000000E+00  0.00000000000E+00  0.73960594747E+03  0.73960594747E+03  0.00000000000E+00 0.  1.
          2   -1    0    0  501    0  0.00000000000E+00 -0.00000000000E+00 -0.15111692422E+04  0.15111692422E+04  0.00000000000E+00 0. -1.
         24    2    1    2    0    0 -0.78480336932E+03 -0.72677051594E+02 -0.71510179185E+03  0.10672629843E+04  0.80507282438E+02 0.  0.
        254    2    1    2    0    0  0.78480336932E+03  0.72677051594E+02 -0.56461502932E+02  0.11835122055E+04  0.88108737185E+03 0.  0.
         23    2    4    4    0    0  0.16389869635E+02 -0.21648325878E+03 -0.23287447258E+03  0.33282197418E+03  0.96986170975E+02 0.  0.
          2    1    3    3  502    0 -0.48581893071E+03 -0.14697178204E+02 -0.40560705268E+03  0.63305064700E+03  0.00000000000E+00 0. -1.
         -1    1    3    3    0  502 -0.29898443862E+03 -0.57979873390E+02 -0.30949473917E+03  0.43421233726E+03  0.00000000000E+00 0.  1.
         13    1    5    5    0    0  0.49696899042E+02 -0.64215716440E+02 -0.67752988567E+02  0.10575399506E+03  0.00000000000E+00 0.  1.
        -13    1    5    5    0    0 -0.33307029406E+02 -0.15226754234E+03 -0.16512148401E+03  0.22706797912E+03  0.00000000000E+00 0. -1.
          2    1    4    4  503    0  0.54339670030E+03  0.13934459137E+03  0.10054585064E+03  0.56991785121E+03  0.00000000000E+00 0. -1.
         -2    1    4    4    0  503  0.22501679938E+03  0.14981571900E+03  0.75867119012E+02  0.28077238007E+03  0.00000000000E+00 0.  1.
<mgrwt>
<rscale>  0 0.21143980E+04</rscale>
<asrwt>0</asrwt>
<pdfrwt beam="1">  1        2 0.23248757E+00 0.21143980E+04</pdfrwt>
<pdfrwt beam="2">  1       -1 0.11378553E+00 0.21143980E+04</pdfrwt>
<totfact> 0.92377247E+00</totfact>
</mgrwt>
</event>
<event>
11    7  0.1497947E-008  0.1523040E+04  0.7818608E-02  0.8869275E-01
          2   -1    0    0  501    0  0.00000000000E+00  0.00000000000E+00  0.65970282842E+03  0.65970282842E+03  0.00000000000E+00 0. -1.
         -1   -1    0    0    0  501 -0.00000000000E+00 -0.00000000000E+00 -0.87905085729E+03  0.87905085729E+03  0.00000000000E+00 0.  1.
         24    2    1    2    0    0  0.11416019610E+03  0.10831922579E+03  0.39947112391E+03  0.43670833504E+03  0.79820962221E+02 0.  0.
        254    2    1    2    0    0 -0.11416019610E+03 -0.10831922579E+03 -0.61881915279E+03  0.11020453507E+04  0.89822113426E+03 0.  0.
         23    2    4    4    0    0 -0.16528348878E+03 -0.38444119282E+01 -0.79008839203E+03  0.81229709184E+03  0.90848704024E+02 0.  0.
          4    1    3    3  502    0  0.12419177262E+03  0.10344060398E+03  0.38966531322E+03  0.42185614997E+03  0.00000000000E+00 0. -1.
         -3    1    3    3    0  502 -0.10031576521E+02  0.48786218082E+01  0.98058106900E+01  0.14852185076E+02  0.00000000000E+00 0.  1.
         13    1    5    5    0    0 -0.21794596211E+02  0.31591912209E+02 -0.11559489212E+03  0.12179996891E+03  0.00000000000E+00 0.  1.
        -13    1    5    5    0    0 -0.14348889257E+03 -0.35436324137E+02 -0.67449349991E+03  0.69049712294E+03  0.00000000000E+00 0. -1.
          2    1    4    4  503    0  0.86997292947E+02 -0.10977144627E+03  0.19952291589E+03  0.24377795914E+03  0.00000000000E+00 0. -1.
         -2    1    4    4    0  503 -0.35874000262E+02  0.52966324089E+01 -0.28253676641E+02  0.45970299688E+02  0.00000000000E+00 0.  1.
<mgrwt>
<rscale>  0 0.15230395E+04</rscale>
<asrwt>0</asrwt>
<pdfrwt beam="1">  1        2 0.10149274E+00 0.15230395E+04</pdfrwt>
<pdfrwt beam="2">  1       -1 0.13523859E+00 0.15230395E+04</pdfrwt>
<totfact> 0.22306976E+01</totfact>
</mgrwt>
</event>
<event>
11    7  0.1497947E-008  0.2612856E+04  0.7818608E-02  0.8363847E-01
          2   -1    0    0  501    0  0.00000000000E+00  0.00000000000E+00  0.18067075367E+04  0.18067075367E+04  0.00000000000E+00 0. -1.
         -1   -1    0    0    0  501 -0.00000000000E+00 -0.00000000000E+00 -0.94467645414E+03  0.94467645414E+03  0.00000000000E+00 0.  1.
         24    2    1    2    0    0 -0.25854163893E+03  0.14581637961E+03  0.15518408450E+04  0.15820341071E+04  0.80719962599E+02 0.  0.
        254    2    1    2    0    0  0.25854163893E+03 -0.14581637961E+03 -0.68980976243E+03  0.11693498837E+04  0.89634560664E+03 0.  0.
         23    2    4    4    0    0  0.17269534473E+03 -0.49157015932E+03 -0.53060667916E+03  0.74907574533E+03  0.90033997171E+02 0.  0.
          4    1    3    3  502    0 -0.24329840768E+03  0.11119557492E+03  0.14148517358E+04  0.14399180550E+04  0.00000000000E+00 0. -1.
         -3    1    3    3    0  502 -0.15243231249E+02  0.34620804691E+02  0.13698910923E+03  0.14211605210E+03  0.00000000000E+00 0.  1.
         13    1    5    5    0    0  0.15796952809E+03 -0.48869603313E+03 -0.51245964771E+03  0.72552951362E+03  0.00000000000E+00 0. -1.
        -13    1    5    5    0    0  0.14725816646E+02 -0.28741261853E+01 -0.18147031448E+02  0.23546231707E+02  0.00000000000E+00 0.  1.
          1    1    4    4  503    0  0.12332539865E+03  0.17766893673E+03 -0.78407993758E+02  0.23005046950E+03  0.00000000000E+00 0. -1.
         -1    1    4    4    0  503 -0.37479104458E+02  0.16808484298E+03 -0.80795089514E+02  0.19022366887E+03  0.00000000000E+00 0.  1.
<mgrwt>
<rscale>  0 0.26128560E+04</rscale>
<asrwt>0</asrwt>
<pdfrwt beam="1">  1        2 0.27795500E+00 0.26128560E+04</pdfrwt>
<pdfrwt beam="2">  1       -1 0.14533484E+00 0.26128560E+04</pdfrwt>
<totfact> 0.32673773E+00</totfact>
</mgrwt>
</event>
<event>
12    7  0.1497947E-008  0.1769363E+04  0.7818608E-02  0.8722764E-01
         -1   -1    0    0    0  501 -0.00000000000E+00  0.00000000000E+00  0.39686636744E+03  0.39686636744E+03  0.00000000000E+00 0.  1.
          2   -1    0    0  501    0  0.00000000000E+00 -0.00000000000E+00 -0.19721023122E+04  0.19721023122E+04  0.00000000000E+00 0. -1.
         24    2    1    2    0    0 -0.20566375655E+01  0.29025751255E+03  0.19633498949E+03  0.35970625896E+03  0.81163484949E+02 0.  0.
        254    2    1    2    0    0  0.20566375655E+01 -0.29025751255E+03 -0.17715709342E+04  0.20092624206E+04  0.90245124339E+03 0.  0.
         23    2    4    4    0    0  0.32053715984E+03  0.14798629962E+03 -0.47376259489E+03  0.59794101583E+03  0.91861016645E+02 0.  0.
         23    2    4    4    0    0 -0.31848052227E+03 -0.43824381217E+03 -0.12978083393E+04  0.14113214048E+04  0.11846577602E+03 0.  0.
          4    1    3    3  502    0 -0.52079211820E+01  0.41737725146E+02 -0.14295718116E+01  0.42085672371E+02  0.00000000000E+00 0. -1.
         -3    1    3    3    0  502  0.31512836165E+01  0.24851978740E+03  0.19776456130E+03  0.31762058659E+03  0.00000000000E+00 0.  1.
         13    1    5    5    0    0  0.22717123151E+03  0.92512684099E+02 -0.39028029364E+03  0.46095994701E+03  0.00000000000E+00 0. -1.
        -13    1    5    5    0    0  0.93365928330E+02  0.55473615525E+02 -0.83482301249E+02  0.13698106882E+03  0.00000000000E+00 0.  1.
          1    1    6    6  503    0 -0.30301179282E+03 -0.34181249943E+03 -0.10589541675E+04  0.11532718067E+04  0.00000000000E+00 0. -1.
         -1    1    6    6    0  503 -0.15468729457E+02 -0.96431312739E+02 -0.23885417185E+03  0.25804959810E+03  0.00000000000E+00 0.  1.
<mgrwt>
<rscale>  0 0.17693627E+04</rscale>
<asrwt>0</asrwt>
<pdfrwt beam="1">  1        2 0.30340036E+00 0.17693627E+04</pdfrwt>
<pdfrwt beam="2">  1       -1 0.61056364E-01 0.17693627E+04</pdfrwt>
<totfact> 0.20304123E+01</totfact>
</mgrwt>
</event>
<event>
11    7  0.1497947E-008  0.2448450E+04  0.7818608E-02  0.8421584E-01
         -1   -1    0    0    0  501 -0.00000000000E+00  0.00000000000E+00  0.38031023444E+03  0.38031023444E+03  0.00000000000E+00 0.  1.
          2   -1    0    0  501    0  0.00000000000E+00 -0.00000000000E+00 -0.39407994391E+04  0.39407994391E+04  0.00000000000E+00 0. -1.
         24    2    1    2    0    0  0.43460882562E+03 -0.53456211191E+03 -0.29185395602E+04  0.29998071514E+04  0.79550602330E+02 0.  0.
        254    2    1    2    0    0 -0.43460882562E+03  0.53456211191E+03 -0.64194964444E+03  0.13213025221E+04  0.92687621944E+03 0.  0.
         23    2    4    4    0    0 -0.48496814564E+03  0.65985110047E+03 -0.66748518072E+03  0.10604320167E+04  0.91553364493E+02 0.  0.
          2    1    3    3  502    0  0.43151580052E+03 -0.52864524429E+03 -0.29101372603E+04  0.29890752005E+04  0.00000000000E+00 0. -1.
         -1    1    3    3    0  502  0.30930251064E+01 -0.59168676200E+01 -0.84022999179E+01  0.10731950925E+02  0.00000000000E+00 0.  1.
         13    1    5    5    0    0 -0.45198572583E+03  0.56478828244E+03 -0.58533260831E+03  0.93053273058E+03  0.00000000000E+00 0. -1.
        -13    1    5    5    0    0 -0.32982419810E+02  0.95062818023E+02 -0.82152572411E+02  0.12989928614E+03  0.00000000000E+00 0.  1.
          3    1    4    4  503    0  0.54814352259E+02 -0.17603963829E+03  0.65976168912E+02  0.19582497881E+03  0.00000000000E+00 0. -1.
         -3    1    4    4    0  503 -0.44550322448E+01  0.50750649729E+02 -0.40440632631E+02  0.65045526578E+02  0.00000000000E+00 0.  1.
<mgrwt>
<rscale>  0 0.24484496E+04</rscale>
<asrwt>0</asrwt>
<pdfrwt beam="1">  1        2 0.60627684E+00 0.24484496E+04</pdfrwt>
<pdfrwt beam="2">  1       -1 0.58509266E-01 0.24484496E+04</pdfrwt>
<totfact> 0.11552271E+00</totfact>
</mgrwt>
</event>
<event>
11    7  0.1497947E-008  0.2507714E+04  0.7818608E-02  0.8400242E-01
         -1   -1    0    0    0  501 -0.00000000000E+00  0.00000000000E+00  0.13965510390E+04  0.13965510390E+04  0.00000000000E+00 0.  1.
          2   -1    0    0  501    0  0.00000000000E+00 -0.00000000000E+00 -0.11257431368E+04  0.11257431368E+04  0.00000000000E+00 0. -1.
         24    2    1    2    0    0  0.42386672743E+03  0.94494114784E+03 -0.22197115888E+03  0.10621339910E+04  0.79250513947E+02 0.  0.
        254    2    1    2    0    0 -0.42386672743E+03 -0.94494114784E+03  0.49277906105E+03  0.14601601848E+04  0.90369230757E+03 0.  0.
         23    2    4    4    0    0 -0.43049909339E+03 -0.43636047454E+02  0.23738878949E+03  0.50164777391E+03  0.89796868798E+02 0.  0.
          2    1    3    3  502    0  0.27478071438E+01  0.24175983410E+02  0.41800623966E+01  0.24688084972E+02  0.00000000000E+00 0. -1.
         -1    1    3    3    0  502  0.42111892029E+03  0.92076516444E+03 -0.22615122127E+03  0.10374459060E+04  0.00000000000E+00 0.  1.
         13    1    5    5    0    0 -0.13257481934E+03 -0.26113999236E+02  0.30532918055E+02  0.13852899611E+03  0.00000000000E+00 0. -1.
        -13    1    5    5    0    0 -0.29792427405E+03 -0.17522048218E+02  0.20685587143E+03  0.36311877780E+03  0.00000000000E+00 0.  1.
          1    1    4    4  503    0 -0.89543659236E+02 -0.25124355384E+03  0.72972035328E+02  0.27652542052E+03  0.00000000000E+00 0. -1.
         -1    1    4    4    0  503  0.96176025195E+02 -0.65006154655E+03  0.18241823623E+03  0.68198699037E+03  0.00000000000E+00 0.  1.
<mgrwt>
<rscale>  0 0.25077143E+04</rscale>
<asrwt>0</asrwt>
<pdfrwt beam="1">  1        2 0.17319125E+00 0.25077143E+04</pdfrwt>
<pdfrwt beam="2">  1       -1 0.21485401E+00 0.25077143E+04</pdfrwt>
<totfact> 0.25434625E+00</totfact>
</mgrwt>
</event>
<event>
12    7  0.1497947E-008  0.1537540E+04  0.7818608E-02  0.8859866E-01
         -1   -1    0    0    0  501 -0.00000000000E+00  0.00000000000E+00  0.51286287193E+03  0.51286287193E+03  0.00000000000E+00 0.  1.
          2   -1    0    0  501    0  0.00000000000E+00 -0.00000000000E+00 -0.11523693915E+04  0.11523693915E+04  0.00000000000E+00 0. -1.
         24    2    1    2    0    0 -0.31163165235E+03  0.34046142190E+03 -0.45294365389E+03  0.65160557422E+03  0.80022523149E+02 0.  0.
        254    2    1    2    0    0  0.31163165235E+03 -0.34046142190E+03 -0.18656286564E+03  0.10136266892E+04  0.88295248775E+03 0.  0.
         23    2    4    4    0    0 -0.93728202314E+02 -0.51158139762E+03 -0.17491300805E+02  0.52849759256E+03  0.92213108865E+02 0.  0.
         23    2    4    4    0    0  0.40535985466E+03  0.17111997572E+03 -0.16907156484E+03  0.48512909661E+03  0.11474488434E+03 0.  0.
          4    1    3    3  502    0 -0.19021342896E+03  0.23357157403E+03 -0.34039873494E+03  0.45454166751E+03  0.00000000000E+00 0. -1.
         -3    1    3    3    0  502 -0.12141822339E+03  0.10688984787E+03 -0.11254491895E+03  0.19706390671E+03  0.00000000000E+00 0.  1.
         13    1    5    5    0    0 -0.58897929742E+02 -0.14701199988E+03 -0.33670031253E+02  0.16191097937E+03  0.00000000000E+00 0. -1.
        -13    1    5    5    0    0 -0.34830272572E+02 -0.36456939773E+03  0.16178730448E+02  0.36658661319E+03  0.00000000000E+00 0.  1.
          2    1    6    6  503    0  0.22027132533E+03  0.13031399077E+03 -0.14478124074E+03  0.29404557575E+03  0.00000000000E+00 0. -1.
         -2    1    6    6    0  503  0.18508852934E+03  0.40805984949E+02 -0.24290324102E+02  0.19108352086E+03  0.00000000000E+00 0.  1.
<mgrwt>
<rscale>  0 0.15375402E+04</rscale>
<asrwt>0</asrwt>
<pdfrwt beam="1">  1        2 0.17728760E+00 0.15375402E+04</pdfrwt>
<pdfrwt beam="2">  1       -1 0.78901982E-01 0.15375402E+04</pdfrwt>
<totfact> 0.35722541E+01</totfact>
</mgrwt>
</event>
<event>
12    7  0.1497947E-008  0.2075284E+04  0.7818608E-02  0.8572210E-01
         -1   -1    0    0    0  501 -0.00000000000E+00  0.00000000000E+00  0.70711612622E+03  0.70711612622E+03  0.00000000000E+00 0.  1.
          2   -1    0    0  501    0  0.00000000000E+00 -0.00000000000E+00 -0.15226654985E+04  0.15226654985E+04  0.00000000000E+00 0. -1.
         24    2    1    2    0    0  0.74040859648E+03 -0.29657325082E+03 -0.72424771038E+03  0.10803876459E+04  0.80883475245E+02 0.  0.
        254    2    1    2    0    0 -0.74040859648E+03  0.29657325082E+03 -0.91301661934E+02  0.11493939788E+04  0.82256303241E+03 0.  0.
         23    2    4    4    0    0 -0.66371922060E+03  0.49718380596E+03 -0.25493708778E+03  0.87231165333E+03  0.90662898216E+02 0.  0.
         23    2    4    4    0    0 -0.76689375882E+02 -0.20061055514E+03  0.16363542585E+03  0.27708232551E+03  0.62227062543E+02 0.  0.
          2    1    3    3  502    0  0.24285831701E+03 -0.11464114043E+03 -0.19791005363E+03  0.33360327119E+03  0.00000000000E+00 0. -1.
         -1    1    3    3    0  502  0.49755027947E+03 -0.18193211039E+03 -0.52633765675E+03  0.74678437470E+03  0.00000000000E+00 0.  1.
         13    1    5    5    0    0 -0.24766364652E+03  0.23578630723E+03 -0.84551757539E+02  0.35225198962E+03  0.00000000000E+00 0. -1.
        -13    1    5    5    0    0 -0.41605557408E+03  0.26139749873E+03 -0.17038533024E+03  0.52005966372E+03  0.00000000000E+00 0.  1.
          4    1    6    6  503    0 -0.72509481960E+02 -0.20500697817E+03  0.16037346945E+03  0.27019462574E+03  0.00000000000E+00 0.  1.
         -4    1    6    6    0  503 -0.41798939217E+01  0.43964230316E+01  0.32619563912E+01  0.68876997733E+01  0.00000000000E+00 0. -1.
<mgrwt>
<rscale>  0 0.20752844E+04</rscale>
<asrwt>0</asrwt>
<pdfrwt beam="1">  1        2 0.23425623E+00 0.20752844E+04</pdfrwt>
<pdfrwt beam="2">  1       -1 0.10878710E+00 0.20752844E+04</pdfrwt>
<totfact> 0.10158540E+01</totfact>
</mgrwt>
</event>
<event>
11    7  0.1497947E-008  0.2099367E+04  0.7818608E-02  0.8561522E-01
          2   -1    0    0  501    0  0.00000000000E+00  0.00000000000E+00  0.15608725367E+04  0.15608725367E+04  0.00000000000E+00 0. -1.
         -1   -1    0    0    0  501 -0.00000000000E+00 -0.00000000000E+00 -0.70591022350E+03  0.70591022350E+03  0.00000000000E+00 0.  1.
         24    2    1    2    0    0 -0.59659931977E+02 -0.19436489562E+03  0.12507425170E+04  0.12697114989E+04  0.80457605972E+02 0.  0.
        254    2    1    2    0    0  0.59659931977E+02  0.19436489562E+03 -0.39578020384E+03  0.99707126131E+03  0.89228476970E+03 0.  0.
         23    2    4    4    0    0  0.35972516411E+03  0.76879683130E+02 -0.49289526629E+03  0.62216803779E+03  0.93992788826E+02 0.  0.
          4    1    3    3  502    0 -0.95206595411E+01 -0.14933429249E+03  0.93046088963E+03  0.94241649021E+03  0.00000000000E+00 0. -1.
         -3    1    3    3    0  502 -0.50139272436E+02 -0.45030603124E+02  0.32028162738E+03  0.32729500866E+03  0.00000000000E+00 0.  1.
         13    1    5    5    0    0  0.99922956782E+02  0.37623983674E+02 -0.21302902531E+03  0.23828874725E+03  0.00000000000E+00 0.  1.
        -13    1    5    5    0    0  0.25980220732E+03  0.39255699456E+02 -0.27986624097E+03  0.38387929054E+03  0.00000000000E+00 0. -1.
          3    1    4    4  503    0 -0.18752078274E+03  0.46042047245E+02  0.13584138063E+03  0.23608641377E+03  0.00000000000E+00 0. -1.
         -3    1    4    4    0  503 -0.11254444939E+03  0.71443165243E+02 -0.38726318189E+02  0.13881680975E+03  0.00000000000E+00 0.  1.
<mgrwt>
<rscale>  0 0.20993674E+04</rscale>
<asrwt>0</asrwt>
<pdfrwt beam="1">  1        2 0.24013424E+00 0.20993674E+04</pdfrwt>
<pdfrwt beam="2">  1       -1 0.10860157E+00 0.20993674E+04</pdfrwt>
<totfact> 0.96868075E+00</totfact>
</mgrwt>
</event>
<event>
12    7  0.1497947E-008  0.2049069E+04  0.7818608E-02  0.8584017E-01
         -1   -1    0    0    0  501 -0.00000000000E+00  0.00000000000E+00  0.16676504445E+04  0.16676504445E+04  0.00000000000E+00 0.  1.
          2   -1    0    0  501    0  0.00000000000E+00 -0.00000000000E+00 -0.62943122988E+03  0.62943122988E+03  0.00000000000E+00 0. -1.
         24    2    1    2    0    0  0.29570723730E+03  0.68874708655E+03  0.81255710857E+03  0.11083457351E+04  0.79786554841E+02 0.  0.
        254    2    1    2    0    0 -0.29570723730E+03 -0.68874708655E+03  0.22566210604E+03  0.11887359393E+04  0.89462530026E+03 0.  0.
         23    2    4    4    0    0  0.79545692361E+02 -0.37726501616E+03 -0.27364242524E+03  0.48145633035E+03  0.90904408888E+02 0.  0.
         23    2    4    4    0    0 -0.37525292966E+03 -0.31148207039E+03  0.49930453128E+03  0.70727960895E+03  0.11447090847E+03 0.  0.
          2    1    3    3  502    0  0.83626568780E+01  0.80956105882E+02  0.93401456161E+02  0.12388566149E+03  0.00000000000E+00 0. -1.
         -1    1    3    3    0  502  0.28734458042E+03  0.60779098066E+03  0.71915565241E+03  0.98446007358E+03  0.00000000000E+00 0.  1.
         13    1    5    5    0    0 -0.12964448239E+02 -0.27173192215E+02 -0.48657435855E+01  0.30498110662E+02  0.00000000000E+00 0. -1.
        -13    1    5    5    0    0  0.92510140600E+02 -0.35009182394E+03 -0.26877668165E+03  0.45095821969E+03  0.00000000000E+00 0.  1.
          1    1    6    6  503    0 -0.12403499530E+03 -0.40591782980E+02  0.11135126384E+03  0.17155604584E+03  0.00000000000E+00 0. -1.
         -1    1    6    6    0  503 -0.25121793436E+03 -0.27089028741E+03  0.38795326744E+03  0.53572356312E+03  0.00000000000E+00 0.  1.
<mgrwt>
<rscale>  0 0.20490693E+04</rscale>
<asrwt>0</asrwt>
<pdfrwt beam="1">  1        2 0.96835575E-01 0.20490693E+04</pdfrwt>
<pdfrwt beam="2">  1       -1 0.25656160E+00 0.20490693E+04</pdfrwt>
<totfact> 0.31226388E+00</totfact>
</mgrwt>
</event>
<event>
12    7  0.1497947E-008  0.1373549E+04  0.7818608E-02  0.8973191E-01
         -1   -1    0    0    0  501 -0.00000000000E+00  0.00000000000E+00  0.50132954455E+03  0.50132954455E+03  0.00000000000E+00 0.  1.
          2   -1    0    0  501    0  0.00000000000E+00 -0.00000000000E+00 -0.94081699694E+03  0.94081699694E+03  0.00000000000E+00 0. -1.
         24    2    1    2    0    0  0.43499296072E+02  0.28827603764E+03 -0.42607030986E+03  0.52248738951E+03  0.80385947861E+02 0.  0.
        254    2    1    2    0    0 -0.43499296072E+02 -0.28827603764E+03 -0.13417142527E+02  0.91965915198E+03  0.87212251059E+03 0.  0.
         23    2    4    4    0    0  0.10153477573E+03  0.28372838626E+03  0.21863064999E+02  0.31618786595E+03  0.93196915776E+02 0.  0.
         23    2    4    4    0    0 -0.14503407180E+03 -0.57200442390E+03 -0.35280207526E+02  0.60347128603E+03  0.12128048928E+03 0.  0.
          4    1    3    3  502    0  0.56062695737E+02  0.27858947091E+03 -0.38546301025E+03  0.47889127307E+03  0.00000000000E+00 0. -1.
         -3    1    3    3    0  502 -0.12563399665E+02  0.96865667220E+01 -0.40607299616E+02  0.43596116434E+02  0.00000000000E+00 0.  1.
         13    1    5    5    0    0  0.91344981433E+02  0.27713907167E+03  0.39826388068E+02  0.29450995207E+03  0.00000000000E+00 0.  1.
        -13    1    5    5    0    0  0.10189794298E+02  0.65893145869E+01 -0.17963323069E+02  0.21677913881E+02  0.00000000000E+00 0. -1.
          4    1    6    6  503    0 -0.98158241499E+02 -0.16372075499E+03 -0.23544926215E+02  0.19233795657E+03  0.00000000000E+00 0. -1.
         -4    1    6    6    0  503 -0.46875830304E+02 -0.40828366891E+03 -0.11735281311E+02  0.41113332946E+03  0.00000000000E+00 0.  1.
<mgrwt>
<rscale>  0 0.13735492E+04</rscale>
<asrwt>0</asrwt>
<pdfrwt beam="1">  1        2 0.14474108E+00 0.13735492E+04</pdfrwt>
<pdfrwt beam="2">  1       -1 0.77127623E-01 0.13735492E+04</pdfrwt>
<totfact> 0.51659511E+01</totfact>
</mgrwt>
</event>
<event>
12    7  0.1497947E-008  0.2193165E+04  0.7818608E-02  0.8521278E-01
          2   -1    0    0  501    0  0.00000000000E+00  0.00000000000E+00  0.25865650448E+04  0.25865650448E+04  0.00000000000E+00 0. -1.
         -1   -1    0    0    0  501 -0.00000000000E+00 -0.00000000000E+00 -0.46489979932E+03  0.46489979932E+03  0.00000000000E+00 0.  1.
         24    2    1    2    0    0  0.46321967632E+03 -0.75132409117E+03  0.11954650480E+04  0.14880894879E+04  0.78824390925E+02 0.  0.
        254    2    1    2    0    0 -0.46321967632E+03  0.75132409117E+03  0.92620019744E+03  0.15633753561E+04  0.89846276492E+03 0.  0.
         23    2    4    4    0    0  0.22952416899E+03  0.14784278386E+03  0.55322308203E+02  0.29288419821E+03  0.90453097701E+02 0.  0.
         23    2    4    4    0    0 -0.69274384531E+03  0.60348130731E+03  0.87087788923E+03  0.12704911579E+04  0.10786918435E+03 0.  0.
          4    1    3    3  502    0  0.43711712466E+02 -0.98579125083E+02  0.11240291149E+03  0.15576576075E+03  0.00000000000E+00 0. -1.
         -1    1    3    3    0  502  0.41950796385E+03 -0.65274496609E+03  0.10830621365E+04  0.13323237272E+04  0.00000000000E+00 0.  1.
         13    1    5    5    0    0  0.18642544388E+03  0.14995465311E+03  0.66478747070E+02  0.24831485643E+03  0.00000000000E+00 0. -1.
        -13    1    5    5    0    0  0.43098725114E+02 -0.21118692436E+01 -0.11156438867E+02  0.44569341776E+02  0.00000000000E+00 0.  1.
          1    1    6    6  503    0 -0.63245543986E+03  0.58248926978E+03  0.79181962559E+03  0.11688763631E+04  0.00000000000E+00 0. -1.
         -1    1    6    6    0  503 -0.60288405457E+02  0.20992037527E+02  0.79058263640E+02  0.10161479480E+03  0.00000000000E+00 0.  1.
<mgrwt>
<rscale>  0 0.21931654E+04</rscale>
<asrwt>0</asrwt>
<pdfrwt beam="1">  1        2 0.39793308E+00 0.21931654E+04</pdfrwt>
<pdfrwt beam="2">  1       -1 0.71523047E-01 0.21931654E+04</pdfrwt>
<totfact> 0.63668545E+00</totfact>
</mgrwt>
</event>
<event>
12    7  0.1497947E-008  0.2629898E+04  0.7818608E-02  0.8358116E-01
         -1   -1    0    0    0  501 -0.00000000000E+00  0.00000000000E+00  0.90991777280E+03  0.90991777280E+03  0.00000000000E+00 0.  1.
          2   -1    0    0  501    0  0.00000000000E+00 -0.00000000000E+00 -0.19002713966E+04  0.19002713966E+04  0.00000000000E+00 0. -1.
         24    2    1    2    0    0 -0.46104759424E+03 -0.92253960257E+03 -0.10006677422E+04  0.14391064411E+04  0.77763847518E+02 0.  0.
        254    2    1    2    0    0  0.46104759424E+03  0.92253960257E+03  0.10314118437E+02  0.13710827283E+04  0.90339208781E+03 0.  0.
         23    2    4    4    0    0  0.40449461521E+03  0.22595906250E+03  0.34852292201E+03  0.58692274251E+03  0.91305459044E+02 0.  0.
         23    2    4    4    0    0  0.56552979038E+02  0.69658054006E+03 -0.33820880357E+03  0.78415998579E+03  0.10999545566E+03 0.  0.
          4    1    3    3  502    0 -0.29557403773E+03 -0.54237950929E+03 -0.64178105457E+03  0.89074264851E+03  0.00000000000E+00 0. -1.
         -3    1    3    3    0  502 -0.16547355651E+03 -0.38016009328E+03 -0.35888668764E+03  0.54836379256E+03  0.00000000000E+00 0.  1.
         13    1    5    5    0    0  0.36601486223E+03  0.20338367622E+03  0.34431547191E+03  0.54211155985E+03  0.00000000000E+00 0. -1.
        -13    1    5    5    0    0  0.38479752976E+02  0.22575386280E+02  0.42074500960E+01  0.44811182657E+02  0.00000000000E+00 0.  1.
          1    1    6    6  503    0  0.78850926155E+02  0.38576732988E+03 -0.21880301782E+03  0.45045383999E+03  0.00000000000E+00 0. -1.
         -1    1    6    6    0  503 -0.22297947117E+02  0.31081321018E+03 -0.11940578575E+03  0.33370614580E+03  0.00000000000E+00 0.  1.
<mgrwt>
<rscale>  0 0.26298979E+04</rscale>
<asrwt>0</asrwt>
<pdfrwt beam="1">  1        2 0.29234945E+00 0.26298979E+04</pdfrwt>
<pdfrwt beam="2">  1       -1 0.13998735E+00 0.26298979E+04</pdfrwt>
<totfact> 0.31955960E+00</totfact>
</mgrwt>
</event>
<event>
12    7  0.1497947E-008  0.1246943E+04  0.7818608E-02  0.9072731E-01
          2   -1    0    0  501    0  0.00000000000E+00  0.00000000000E+00  0.32312534738E+03  0.32312534738E+03  0.00000000000E+00 0. -1.
         -1   -1    0    0    0  501 -0.00000000000E+00 -0.00000000000E+00 -0.12029908315E+04  0.12029908315E+04  0.00000000000E+00 0.  1.
         24    2    1    2    0    0 -0.15443968813E+03  0.18521999020E+03 -0.60250494051E+01  0.24898504213E+03  0.61637553047E+02 0.  0.
        254    2    1    2    0    0  0.15443968813E+03 -0.18521999020E+03 -0.87384043467E+03  0.12771311367E+04  0.89961590306E+03 0.  0.
         23    2    4    4    0    0  0.33147758914E+03 -0.30643059424E+03 -0.92473666767E+03  0.10330316365E+04  0.90770899595E+02 0.  0.
         23    2    4    4    0    0 -0.17703790101E+03  0.12121060404E+03  0.50896232994E+02  0.24409950025E+03  0.10468863626E+03 0.  0.
          2    1    3    3  502    0 -0.13022051708E+03  0.16616882282E+03  0.15054002406E+02  0.21165085337E+03  0.00000000000E+00 0. -1.
         -1    1    3    3    0  502 -0.24219171056E+02  0.19051167382E+02 -0.21079051811E+02  0.37334188762E+02  0.00000000000E+00 0.  1.
         13    1    5    5    0    0  0.29490605235E+03 -0.26070284052E+03 -0.72589026335E+03  0.82574343787E+03  0.00000000000E+00 0. -1.
        -13    1    5    5    0    0  0.36571536793E+02 -0.45727753726E+02 -0.19884640432E+03  0.20728819859E+03  0.00000000000E+00 0.  1.
          1    1    6    6  503    0 -0.18843676806E+03  0.10873833420E+03  0.58915911293E+02  0.22539637416E+03  0.00000000000E+00 0. -1.
         -1    1    6    6    0  503  0.11398867058E+02  0.12472269844E+02 -0.80196782987E+01  0.18703126083E+02  0.00000000000E+00 0.  1.
<mgrwt>
<rscale>  0 0.12469432E+04</rscale>
<asrwt>0</asrwt>
<pdfrwt beam="1">  1        2 0.49711592E-01 0.12469432E+04</pdfrwt>
<pdfrwt beam="2">  1       -1 0.18507551E+00 0.12469432E+04</pdfrwt>
<totfact> 0.21796448E+01</totfact>
</mgrwt>
</event>
<event>
11    7  0.1497947E-008  0.1278203E+04  0.7818608E-02  0.9047032E-01
         -1   -1    0    0    0  501 -0.00000000000E+00  0.00000000000E+00  0.21763015676E+03  0.21763015676E+03  0.00000000000E+00 0.  1.
          2   -1    0    0  501    0  0.00000000000E+00 -0.00000000000E+00 -0.18768098844E+04  0.18768098844E+04  0.00000000000E+00 0. -1.
         24    2    1    2    0    0 -0.17355179725E+03 -0.15412582275E+03 -0.81511073733E+02  0.26204682665E+03  0.90274518262E+02 0.  0.
        254    2    1    2    0    0  0.17355179725E+03  0.15412582275E+03 -0.15776686539E+04  0.18323932145E+04  0.90263587096E+03 0.  0.
         23    2    4    4    0    0  0.39224878300E+03  0.33966012646E+03 -0.58219080467E+03  0.78512320506E+03  0.90797603585E+02 0.  0.
          4    1    3    3  502    0  0.28274357251E+01 -0.22678190771E+02  0.84822037969E+01  0.24377089873E+02  0.00000000000E+00 0. -1.
         -3    1    3    3    0  502 -0.17637923297E+03 -0.13144763198E+03 -0.89993277529E+02  0.23766973677E+03  0.00000000000E+00 0.  1.
         13    1    5    5    0    0  0.29169969619E+03  0.20670932961E+03 -0.36008355388E+03  0.50742253151E+03  0.00000000000E+00 0. -1.
        -13    1    5    5    0    0  0.10054908681E+03  0.13295079685E+03 -0.22210725079E+03  0.27770067356E+03  0.00000000000E+00 0.  1.
          2    1    4    4  503    0 -0.16698486835E+03 -0.43123695032E+02 -0.48310536342E+03  0.51296626740E+03  0.00000000000E+00 0. -1.
         -2    1    4    4    0  503 -0.51712117402E+02 -0.14241060867E+03 -0.51237248584E+03  0.53430374207E+03  0.00000000000E+00 0.  1.
<mgrwt>
<rscale>  0 0.12782025E+04</rscale>
<asrwt>0</asrwt>
<pdfrwt beam="1">  1        2 0.28873997E+00 0.12782025E+04</pdfrwt>
<pdfrwt beam="2">  1       -1 0.33481564E-01 0.12782025E+04</pdfrwt>
<totfact> 0.73511520E+01</totfact>
</mgrwt>
</event>
<event>
11    7  0.1497947E-008  0.2340851E+04  0.7818608E-02  0.8461986E-01
         -1   -1    0    0    0  501 -0.00000000000E+00  0.00000000000E+00  0.53286172602E+03  0.53286172602E+03  0.00000000000E+00 0.  1.
          2   -1    0    0  501    0  0.00000000000E+00 -0.00000000000E+00 -0.25708279491E+04  0.25708279491E+04  0.00000000000E+00 0. -1.
         24    2    1    2    0    0 -0.17552179458E+03  0.65024615738E+03 -0.18439441073E+04  0.19647214395E+04  0.79827928166E+02 0.  0.
        254    2    1    2    0    0  0.17552179458E+03 -0.65024615738E+03 -0.19402211574E+03  0.11389682357E+04  0.89776171386E+03 0.  0.
         23    2    4    4    0    0  0.15908991406E+03 -0.76632427844E+03  0.89612332214E+02  0.79333352779E+03  0.93729481751E+02 0.  0.
          2    1    3    3  502    0 -0.41098107222E+02  0.95937071658E+02 -0.21945591801E+03  0.24301003289E+03  0.00000000000E+00 0. -1.
         -1    1    3    3    0  502 -0.13442368736E+03  0.55430908572E+03 -0.16244881893E+04  0.17217114066E+04  0.00000000000E+00 0.  1.
         13    1    5    5    0    0  0.14123273200E+03 -0.74345277909E+03  0.73934173486E+02  0.76035187994E+03  0.00000000000E+00 0. -1.
        -13    1    5    5    0    0  0.17857182059E+02 -0.22871499351E+02  0.15678158727E+02  0.32981647847E+02  0.00000000000E+00 0.  1.
          3    1    4    4  503    0 -0.11572177227E+02  0.13122921694E+03 -0.28477923185E+03  0.31377417605E+03  0.00000000000E+00 0. -1.
         -3    1    4    4    0  503  0.28004057757E+02 -0.15151095878E+02  0.11447838966E+01  0.31860531812E+02  0.00000000000E+00 0.  1.
<mgrwt>
<rscale>  0 0.23408510E+04</rscale>
<asrwt>0</asrwt>
<pdfrwt beam="1">  1        2 0.39551199E+00 0.23408510E+04</pdfrwt>
<pdfrwt beam="2">  1       -1 0.81978727E-01 0.23408510E+04</pdfrwt>
<totfact> 0.48173808E+00</totfact>
</mgrwt>
</event>
<event>
12    7  0.1497947E-008  0.1549841E+04  0.7818608E-02  0.8851969E-01
         -1   -1    0    0    0  501 -0.00000000000E+00  0.00000000000E+00  0.53514673174E+03  0.53514673174E+03  0.00000000000E+00 0.  1.
          2   -1    0    0  501    0  0.00000000000E+00 -0.00000000000E+00 -0.11221259553E+04  0.11221259553E+04  0.00000000000E+00 0. -1.
         24    2    1    2    0    0 -0.31166396242E+03  0.11111214992E+03  0.21400913737E+03  0.40187662162E+03  0.78895961842E+02 0.  0.
        254    2    1    2    0    0  0.31166396242E+03 -0.11111214992E+03 -0.80098836097E+03  0.12553960655E+04  0.90827121029E+03 0.  0.
         23    2    4    4    0    0  0.58213519763E+03  0.59845789974E+02 -0.33569860368E+03  0.68070021403E+03  0.90533540562E+02 0.  0.
         23    2    4    4    0    0 -0.27047123521E+03 -0.17095793990E+03 -0.46528975729E+03  0.57469585144E+03  0.10676824029E+03 0.  0.
          2    1    3    3  502    0 -0.27246920146E+02 -0.65152423053E+01  0.38361341764E+02  0.47501953451E+02  0.00000000000E+00 0. -1.
         -1    1    3    3    0  502 -0.28441704228E+03  0.11762739223E+03  0.17564779560E+03  0.35437466817E+03  0.00000000000E+00 0.  1.
         13    1    5    5    0    0  0.49872947727E+03  0.68107749591E+02 -0.31689040372E+03  0.59480188720E+03  0.00000000000E+00 0. -1.
        -13    1    5    5    0    0  0.83405720361E+02 -0.82619596168E+01 -0.18808199965E+02  0.85898326826E+02  0.00000000000E+00 0.  1.
          2    1    6    6  503    0 -0.23166316088E+03 -0.14225995671E+03 -0.44680509577E+03  0.52301100275E+03  0.00000000000E+00 0. -1.
         -2    1    6    6    0  503 -0.38808074332E+02 -0.28697983192E+02 -0.18484661515E+02  0.51684848688E+02  0.00000000000E+00 0.  1.
<mgrwt>
<rscale>  0 0.15498413E+04</rscale>
<asrwt>0</asrwt>
<pdfrwt beam="1">  1        2 0.17263476E+00 0.15498413E+04</pdfrwt>
<pdfrwt beam="2">  1       -1 0.82330267E-01 0.15498413E+04</pdfrwt>
<totfact> 0.34005997E+01</totfact>
</mgrwt>
</event>
<event>
12    7  0.1497947E-008  0.2539512E+04  0.7818608E-02  0.8389043E-01
          2   -1    0    0  501    0  0.00000000000E+00  0.00000000000E+00  0.73120163408E+03  0.73120163408E+03  0.00000000000E+00 0. -1.
         -1   -1    0    0    0  501 -0.00000000000E+00 -0.00000000000E+00 -0.22049740859E+04  0.22049740859E+04  0.00000000000E+00 0.  1.
         24    2    1    2    0    0  0.76987178840E+03  0.29082793688E+03  0.20935560821E+03  0.85283728501E+03  0.78855593107E+02 0.  0.
        254    2    1    2    0    0 -0.76987178840E+03 -0.29082793688E+03 -0.16831280601E+04  0.20833384350E+04  0.91109577364E+03 0.  0.
         23    2    4    4    0    0 -0.24332900632E+03  0.30045797748E+03 -0.33922049757E+03  0.52183356369E+03  0.88066569594E+02 0.  0.
         23    2    4    4    0    0 -0.52654278208E+03 -0.59128591436E+03 -0.13439075625E+04  0.15615048713E+04  0.73099881760E+02 0.  0.
          2    1    3    3  502    0  0.62609448629E+03  0.20758832375E+03  0.15030009476E+03  0.67651854106E+03  0.00000000000E+00 0. -1.
         -1    1    3    3    0  502  0.14377730211E+03  0.83239613130E+02  0.59055513454E+02  0.17631874394E+03  0.00000000000E+00 0.  1.
         13    1    5    5    0    0 -0.16272344141E+03  0.21812820837E+03 -0.28643107378E+03  0.39509694215E+03  0.00000000000E+00 0.  1.
        -13    1    5    5    0    0 -0.80605564915E+02  0.82329769104E+02 -0.52789423788E+02  0.12673662154E+03  0.00000000000E+00 0. -1.
          2    1    6    6  503    0 -0.43355202298E+03 -0.46813834264E+03 -0.10279367302E+04  0.12098656065E+04  0.00000000000E+00 0.  1.
         -2    1    6    6    0  503 -0.92990759100E+02 -0.12314757171E+03 -0.31597083234E+03  0.35163926485E+03  0.00000000000E+00 0. -1.
<mgrwt>
<rscale>  0 0.25395123E+04</rscale>
<asrwt>0</asrwt>
<pdfrwt beam="1">  1        2 0.11249256E+00 0.25395123E+04</pdfrwt>
<pdfrwt beam="2">  1       -1 0.33922678E+00 0.25395123E+04</pdfrwt>
<totfact> 0.71954703E-01</totfact>
</mgrwt>
</event>
<event>
12    7  0.1497947E-008  0.1555666E+04  0.7818608E-02  0.8848257E-01
          2   -1    0    0  501    0  0.00000000000E+00  0.00000000000E+00  0.19247873927E+04  0.19247873927E+04  0.00000000000E+00 0. -1.
         -1   -1    0    0    0  501 -0.00000000000E+00 -0.00000000000E+00 -0.31433308624E+03  0.31433308624E+03  0.00000000000E+00 0.  1.
         24    2    1    2    0    0 -0.14073376693E+03  0.26149091544E+03 -0.47327440129E+02  0.31089477203E+03  0.78944161722E+02 0.  0.
        254    2    1    2    0    0  0.14073376693E+03 -0.26149091544E+03  0.16577817466E+04  0.19282257069E+04  0.93895184408E+03 0.  0.
         23    2    4    4    0    0  0.17389238022E+03 -0.16296381878E+03  0.17339147855E+04  0.17527133756E+04  0.93530355467E+02 0.  0.
         23    2    4    4    0    0 -0.33158613291E+02 -0.98527096668E+02 -0.76133038884E+02  0.17551233138E+03  0.11916902468E+03 0.  0.
          4    1    3    3  502    0 -0.28006918128E+02  0.22514633281E+02 -0.28737786978E+02  0.46012569752E+02  0.00000000000E+00 0. -1.
         -3    1    3    3    0  502 -0.11272684880E+03  0.23897628216E+03 -0.18589653151E+02  0.26488220227E+03  0.00000000000E+00 0.  1.
         13    1    5    5    0    0  0.16857883973E+03 -0.17466786457E+03  0.16660615963E+04  0.16836534474E+04  0.00000000000E+00 0. -1.
        -13    1    5    5    0    0  0.53135404878E+01  0.11704045795E+02  0.67853189155E+02  0.69059928171E+02  0.00000000000E+00 0.  1.
          2    1    6    6  503    0 -0.59808136288E+02 -0.10759155981E+03 -0.39430659442E+02  0.12925839939E+03  0.00000000000E+00 0.  1.
         -2    1    6    6    0  503  0.26649522997E+02  0.90644631383E+01 -0.36702379441E+02  0.46253931991E+02  0.00000000000E+00 0. -1.
<mgrwt>
<rscale>  0 0.15556662E+04</rscale>
<asrwt>0</asrwt>
<pdfrwt beam="1">  1        2 0.29612113E+00 0.15556662E+04</pdfrwt>
<pdfrwt beam="2">  1       -1 0.48358937E-01 0.15556662E+04</pdfrwt>
<totfact> 0.34487279E+01</totfact>
</mgrwt>
</event>
<event>
11    7  0.1497947E-008  0.2394309E+04  0.7818608E-02  0.8441637E-01
         -1   -1    0    0    0  501 -0.00000000000E+00  0.00000000000E+00  0.10106196674E+04  0.10106196674E+04  0.00000000000E+00 0.  1.
          2   -1    0    0  501    0  0.00000000000E+00 -0.00000000000E+00 -0.14181191944E+04  0.14181191944E+04  0.00000000000E+00 0. -1.
         24    2    1    2    0    0  0.80462742471E+03 -0.50015872292E+03 -0.58127527261E+03  0.11143424923E+04  0.79336037583E+02 0.  0.
        254    2    1    2    0    0 -0.80462742471E+03  0.50015872292E+03  0.17377574561E+03  0.13143963695E+04  0.89434655792E+03 0.  0.
         23    2    4    4    0    0  0.27303043367E+02  0.35433403951E+03 -0.90321272536E+02  0.37760149505E+03  0.90149259859E+02 0.  0.
          2    1    3    3  502    0  0.55751523258E+03 -0.37898322410E+03 -0.38525185792E+03  0.77644736637E+03  0.00000000000E+00 0. -1.
         -1    1    3    3    0  502  0.24711219213E+03 -0.12117549882E+03 -0.19602341468E+03  0.33789512592E+03  0.00000000000E+00 0.  1.
         13    1    5    5    0    0  0.13960724703E+02  0.18815408308E+03 -0.94117727043E+02  0.21084356134E+03  0.00000000000E+00 0.  1.
        -13    1    5    5    0    0  0.13342318664E+02  0.16617995644E+03  0.37964545065E+01  0.16675793371E+03  0.00000000000E+00 0. -1.
          3    1    4    4  503    0 -0.32189067476E+02  0.54577681807E+02  0.95163959959E+02  0.11432864336E+03  0.00000000000E+00 0. -1.
         -3    1    4    4    0  503 -0.79974140061E+03  0.91247001601E+02  0.16893305819E+03  0.82246623110E+03  0.00000000000E+00 0.  1.
<mgrwt>
<rscale>  0 0.23943092E+04</rscale>
<asrwt>0</asrwt>
<pdfrwt beam="1">  1        2 0.21817218E+00 0.23943092E+04</pdfrwt>
<pdfrwt beam="2">  1       -1 0.15547995E+00 0.23943092E+04</pdfrwt>
<totfact> 0.45826096E+00</totfact>
</mgrwt>
</event>
<event>
12    7  0.1497947E-008  0.1078036E+04  0.7818608E-02  0.9226868E-01
         -1   -1    0    0    0  501 -0.00000000000E+00  0.00000000000E+00  0.23432339908E+03  0.23432339908E+03  0.00000000000E+00 0.  1.
          2   -1    0    0  501    0  0.00000000000E+00 -0.00000000000E+00 -0.12399118511E+04  0.12399118511E+04  0.00000000000E+00 0. -1.
         24    2    1    2    0    0  0.27711859979E+02  0.27490344893E+02 -0.40361679641E+02  0.10799285567E+03  0.92248173139E+02 0.  0.
        254    2    1    2    0    0 -0.27711859979E+02 -0.27490344893E+02 -0.96522677239E+03  0.13662423945E+04  0.96614279080E+03 0.  0.
         23    2    4    4    0    0 -0.20170842172E+03 -0.11049420893E+03  0.11000239337E+03  0.27143657907E+03  0.93177423830E+02 0.  0.
         23    2    4    4    0    0  0.17399656174E+03  0.83003864041E+02 -0.10752291658E+04  0.10948058155E+04  0.72921668324E+02 0.  0.
          2    1    3    3  502    0 -0.90343370976E+00 -0.29060919726E+02 -0.33323293293E+02  0.44224372508E+02  0.00000000000E+00 0. -1.
         -1    1    3    3    0  502  0.28615293688E+02  0.56551264620E+02 -0.70383863472E+01  0.63768483166E+02  0.00000000000E+00 0.  1.
         13    1    5    5    0    0 -0.15712622148E+03 -0.58949773430E+02  0.37551749052E+02  0.17197051817E+03  0.00000000000E+00 0. -1.
        -13    1    5    5    0    0 -0.44582200245E+02 -0.51544435504E+02  0.72450644313E+02  0.99466060902E+02  0.00000000000E+00 0.  1.
          1    1    6    6  503    0  0.76636017058E+02  0.13204741090E+02 -0.27977655924E+03  0.29038313897E+03  0.00000000000E+00 0. -1.
         -1    1    6    6    0  503  0.97360544687E+02  0.69799122951E+02 -0.79545260652E+03  0.80442267648E+03  0.00000000000E+00 0.  1.
<mgrwt>
<rscale>  0 0.10780359E+04</rscale>
<asrwt>0</asrwt>
<pdfrwt beam="1">  1        2 0.19075567E+00 0.10780359E+04</pdfrwt>
<pdfrwt beam="2">  1       -1 0.36049753E-01 0.10780359E+04</pdfrwt>
<totfact> 0.14935362E+02</totfact>
</mgrwt>
</event>
<event>
11    7  0.1497947E-008  0.1315688E+04  0.7818608E-02  0.9017216E-01
          2   -1    0    0  501    0  0.00000000000E+00  0.00000000000E+00  0.19949777874E+04  0.19949777874E+04  0.00000000000E+00 0. -1.
         -3   -1    0    0    0  501 -0.00000000000E+00 -0.00000000000E+00 -0.21692402963E+03  0.21692402963E+03  0.00000000000E+00 0.  1.
         24    2    1    2    0    0 -0.10221679106E+03 -0.66929621510E+02  0.10258284196E+04  0.10361688573E+04  0.79963165450E+02 0.  0.
        254    2    1    2    0    0  0.10221679106E+03  0.66929621510E+02  0.75222533815E+03  0.11757329597E+04  0.89530843095E+03 0.  0.
         23    2    4    4    0    0  0.93812952806E+02  0.41877654243E+03  0.61550563756E+03  0.75586776953E+03  0.91182413535E+02 0.  0.
          4    1    3    3  502    0 -0.11318497457E+03 -0.45829566474E+02  0.84194514491E+03  0.85075426221E+03  0.00000000000E+00 0. -1.
         -3    1    3    3    0  502  0.10968183512E+02 -0.21100055036E+02  0.18388327465E+03  0.18541459508E+03  0.00000000000E+00 0.  1.
         13    1    5    5    0    0  0.87431857740E+02  0.20535290121E+03  0.27823875682E+03  0.35669447652E+03  0.00000000000E+00 0.  1.
        -13    1    5    5    0    0  0.63810950656E+01  0.21342364122E+03  0.33726688075E+03  0.39917329301E+03  0.00000000000E+00 0. -1.
          4    1    4    4  503    0  0.53166678057E+02 -0.34069969222E+03  0.95005751482E+02  0.35767173323E+03  0.00000000000E+00 0. -1.
         -4    1    4    4    0  503 -0.44762839800E+02 -0.11147228697E+02  0.41713949106E+02  0.62193456927E+02  0.00000000000E+00 0.  1.
<mgrwt>
<rscale>  0 0.13156878E+04</rscale>
<asrwt>0</asrwt>
<pdfrwt beam="1">  1        2 0.30691965E+00 0.13156878E+04</pdfrwt>
<pdfrwt beam="2">  1       -3 0.33372929E-01 0.13156878E+04</pdfrwt>
<totfact> 0.37651987E+01</totfact>
</mgrwt>
</event>
<event>
12    7  0.1497947E-008  0.1624113E+04  0.7818608E-02  0.8805870E-01
          2   -1    0    0  501    0  0.00000000000E+00  0.00000000000E+00  0.19360087794E+04  0.19360087794E+04  0.00000000000E+00 0. -1.
         -1   -1    0    0    0  501 -0.00000000000E+00 -0.00000000000E+00 -0.34061620260E+03  0.34061620260E+03  0.00000000000E+00 0.  1.
         24    2    1    2    0    0 -0.31954416460E+01 -0.66200817301E+02 -0.22511026257E+03  0.24856648100E+03  0.81962833666E+02 0.  0.
        254    2    1    2    0    0  0.31954416460E+01  0.66200817301E+02  0.18205028393E+04  0.20280585010E+04  0.89129004045E+03 0.  0.
         23    2    4    4    0    0  0.21452045106E+03 -0.33014878403E+03  0.10826677776E+04  0.11556729334E+04  0.91614238625E+02 0.  0.
         23    2    4    4    0    0 -0.21132500941E+03  0.39634960133E+03  0.73783506170E+03  0.87238556756E+03  0.12208494640E+03 0.  0.
          4    1    3    3  502    0  0.21451610314E+02 -0.21659669604E+02 -0.18239656613E+02  0.35524610424E+02  0.00000000000E+00 0. -1.
         -3    1    3    3    0  502 -0.24647051960E+02 -0.44541147697E+02 -0.20687060596E+03  0.21304187058E+03  0.00000000000E+00 0.  1.
         13    1    5    5    0    0  0.22272750970E+03 -0.32585100228E+03  0.10635910709E+04  0.11344656827E+04  0.00000000000E+00 0.  1.
        -13    1    5    5    0    0 -0.82070586356E+01 -0.42977817498E+01  0.19076706764E+02  0.21207250655E+02  0.00000000000E+00 0. -1.
          4    1    6    6  503    0 -0.77102821221E+01  0.18586548440E+02  0.11046151255E+03  0.11227935691E+03  0.00000000000E+00 0. -1.
         -4    1    6    6    0  503 -0.20361472729E+03  0.37776305289E+03  0.62737354915E+03  0.76010621065E+03  0.00000000000E+00 0.  1.
<mgrwt>
<rscale>  0 0.16241132E+04</rscale>
<asrwt>0</asrwt>
<pdfrwt beam="1">  1        2 0.29784750E+00 0.16241132E+04</pdfrwt>
<pdfrwt beam="2">  1       -1 0.52402494E-01 0.16241132E+04</pdfrwt>
<totfact> 0.29008972E+01</totfact>
</mgrwt>
</event>
<event>
11    7  0.1497947E-008  0.2015572E+04  0.7818608E-02  0.8599375E-01
          2   -1    0    0  501    0  0.00000000000E+00  0.00000000000E+00  0.42404119837E+04  0.42404119837E+04  0.00000000000E+00 0. -1.
         -1   -1    0    0    0  501 -0.00000000000E+00 -0.00000000000E+00 -0.23951266725E+03  0.23951266725E+03  0.00000000000E+00 0.  1.
         24    2    1    2    0    0 -0.83284165278E+02 -0.68059111499E+03  0.69406780854E+03  0.97887776804E+03  0.79567857360E+02 0.  0.
        254    2    1    2    0    0  0.83284165278E+02  0.68059111499E+03  0.33068315080E+04  0.35010468830E+04  0.92306778552E+03 0.  0.
         23    2    4    4    0    0 -0.32761264514E+03  0.31166432217E+03  0.80017982117E+03  0.92364755427E+03  0.91500619312E+02 0.  0.
          2    1    3    3  502    0 -0.75588906985E+00 -0.38463258315E+01  0.19163034673E+02  0.19559843777E+02  0.00000000000E+00 0. -1.
         -1    1    3    3    0  502 -0.82528276208E+02 -0.67674478916E+03  0.67490477387E+03  0.95931792426E+03  0.00000000000E+00 0.  1.
         13    1    5    5    0    0 -0.14999974912E+03  0.81994212742E+02  0.28937902065E+03  0.33609997508E+03  0.00000000000E+00 0.  1.
        -13    1    5    5    0    0 -0.17761289602E+03  0.22967010943E+03  0.51080080052E+03  0.58754757919E+03  0.00000000000E+00 0. -1.
          4    1    4    4  503    0  0.55177256378E+02 -0.17899466836E+02  0.48912950537E+03  0.49255719826E+03  0.00000000000E+00 0. -1.
         -4    1    4    4    0  503  0.35571955404E+03  0.38682625965E+03  0.20175221814E+04  0.20848421304E+04  0.00000000000E+00 0.  1.
<mgrwt>
<rscale>  0 0.20155718E+04</rscale>
<asrwt>0</asrwt>
<pdfrwt beam="1">  1        2 0.65237102E+00 0.20155718E+04</pdfrwt>
<pdfrwt beam="2">  1       -1 0.36848106E-01 0.20155718E+04</pdfrwt>
<totfact> 0.16219983E+00</totfact>
</mgrwt>
</event>
<event>
12    7  0.1497947E-008  0.2168698E+04  0.7818608E-02  0.8531571E-01
          2   -1    0    0  501    0  0.00000000000E+00  0.00000000000E+00  0.70501907353E+03  0.70501907353E+03  0.00000000000E+00 0. -1.
         -1   -1    0    0    0  501 -0.00000000000E+00 -0.00000000000E+00 -0.16677750388E+04  0.16677750388E+04  0.00000000000E+00 0.  1.
         24    2    1    2    0    0 -0.27265257883E+03 -0.70872293260E+03 -0.92276880346E+03  0.11977121537E+04  0.79903157699E+02 0.  0.
        254    2    1    2    0    0  0.27265257883E+03  0.70872293260E+03 -0.39987161848E+02  0.11750819586E+04  0.89587444014E+03 0.  0.
         23    2    4    4    0    0 -0.25720326366E+03  0.93932472451E+02  0.16127346558E+03  0.33057894093E+03  0.91085000246E+02 0.  0.
         23    2    4    4    0    0  0.52985584249E+03  0.61479046015E+03 -0.20126062742E+03  0.84450301772E+03  0.11817352955E+03 0.  0.
          4    1    3    3  502    0 -0.68128229494E+02 -0.25723369661E+03 -0.28385295448E+03  0.38907985053E+03  0.00000000000E+00 0. -1.
         -3    1    3    3    0  502 -0.20452434934E+03 -0.45148923599E+03 -0.63891584899E+03  0.80863230319E+03  0.00000000000E+00 0.  1.
         13    1    5    5    0    0 -0.24949383977E+03  0.64413050957E+02  0.13875223539E+03  0.29265747905E+03  0.00000000000E+00 0.  1.
        -13    1    5    5    0    0 -0.77094238854E+01  0.29519421494E+02  0.22521230187E+02  0.37921461880E+02  0.00000000000E+00 0. -1.
          3    1    6    6  503    0  0.11231873648E+03  0.65939200939E+02 -0.40473362144E+02  0.13638757212E+03  0.00000000000E+00 0. -1.
         -3    1    6    6    0  503  0.41753710600E+03  0.54885125921E+03 -0.16078726528E+03  0.70811544560E+03  0.00000000000E+00 0.  1.
<mgrwt>
<rscale>  0 0.21686984E+04</rscale>
<asrwt>0</asrwt>
<pdfrwt beam="1">  1        2 0.10846447E+00 0.21686984E+04</pdfrwt>
<pdfrwt beam="2">  1       -1 0.25658078E+00 0.21686984E+04</pdfrwt>
<totfact> 0.26819183E+00</totfact>
</mgrwt>
</event>
<event>
12    7  0.1497947E-008  0.1916375E+04  0.7818608E-02  0.8646748E-01
          2   -1    0    0  501    0  0.00000000000E+00  0.00000000000E+00  0.19165556407E+04  0.19165556407E+04  0.00000000000E+00 0. -1.
         -1   -1    0    0    0  501 -0.00000000000E+00 -0.00000000000E+00 -0.47904845940E+03  0.47904845940E+03  0.00000000000E+00 0.  1.
         24    2    1    2    0    0 -0.23844396528E+01 -0.39757962092E+03 -0.22660672994E+03  0.46469518545E+03  0.80720287441E+02 0.  0.
        254    2    1    2    0    0  0.23844396528E+01  0.39757962092E+03  0.16641139113E+04  0.19309089147E+04  0.89501893083E+03 0.  0.
         23    2    4    4    0    0  0.30255500585E+03  0.43727538401E+03  0.54400587701E+03  0.76592120173E+03  0.89126875885E+02 0.  0.
         23    2    4    4    0    0 -0.30017056620E+03 -0.39695763089E+02  0.11201080343E+04  0.11649877129E+04  0.10428921554E+03 0.  0.
          2    1    3    3  502    0 -0.11308239355E+02 -0.33627965244E+03 -0.15632779105E+03  0.37101247846E+03  0.00000000000E+00 0. -1.
         -1    1    3    3    0  502  0.89237997023E+01 -0.61299968484E+02 -0.70278938892E+02  0.93682706990E+02  0.00000000000E+00 0.  1.
         13    1    5    5    0    0  0.46880557893E+02  0.66918841238E+02  0.42512477607E+02  0.92104444916E+02  0.00000000000E+00 0.  1.
        -13    1    5    5    0    0  0.25567444796E+03  0.37035654277E+03  0.50149339941E+03  0.67381675681E+03  0.00000000000E+00 0. -1.
          4    1    6    6  503    0 -0.12579100539E+03 -0.68896326995E+02  0.50643575461E+03  0.52635278518E+03  0.00000000000E+00 0. -1.
         -4    1    6    6    0  503 -0.17437956080E+03  0.29200563906E+02  0.61367227965E+03  0.63863492777E+03  0.00000000000E+00 0.  1.
<mgrwt>
<rscale>  0 0.19163747E+04</rscale>
<asrwt>0</asrwt>
<pdfrwt beam="1">  1        2 0.29485471E+00 0.19163747E+04</pdfrwt>
<pdfrwt beam="2">  1       -1 0.73699764E-01 0.19163747E+04</pdfrwt>
<totfact> 0.14683722E+01</totfact>
</mgrwt>
</event>
<event>
11    7  0.1525280E-008  0.1978930E+04  0.7818608E-02  0.8616535E-01
          2   -1    0    0  501    0  0.00000000000E+00  0.00000000000E+00  0.22740990933E+04  0.22740990933E+04  0.00000000000E+00 0. -1.
         -1   -1    0    0    0  501 -0.00000000000E+00 -0.00000000000E+00 -0.43051812620E+03  0.43051812620E+03  0.00000000000E+00 0.  1.
         24    2    1    2    0    0 -0.51532087145E+02 -0.42233570353E+03 -0.16857580558E+03  0.46488968962E+03  0.81741169629E+02 0.  0.
        254    2    1    2    0    0  0.51532087145E+02  0.42233570353E+03  0.20121567726E+04  0.22397275298E+04  0.88689431601E+03 0.  0.
         23    2    4    4    0    0  0.28653444719E+03  0.38458914912E+03  0.18682962747E+04  0.19309940025E+04  0.90532118352E+02 0.  0.
          4    1    3    3  502    0 -0.11449796570E+02 -0.36295384266E+01 -0.90303880141E+01  0.15027285130E+02  0.00000000000E+00 0. -1.
         -3    1    3    3    0  502 -0.40082290575E+02 -0.41870616510E+03 -0.15954541757E+03  0.44986240449E+03  0.00000000000E+00 0.  1.
         13    1    5    5    0    0  0.97055258903E+02  0.17021768663E+03  0.61520617926E+03  0.64565658606E+03  0.00000000000E+00 0.  1.
        -13    1    5    5    0    0  0.18947918829E+03  0.21437146249E+03  0.12530900955E+04  0.12853374164E+04  0.00000000000E+00 0. -1.
          2    1    4    4  503    0 -0.24147970051E+03  0.39905171729E+02  0.10008280047E+03  0.26442661636E+03  0.00000000000E+00 0. -1.
         -2    1    4    4    0  503  0.64773404683E+01 -0.21586173192E+01  0.43777697455E+02  0.44306911004E+02  0.00000000000E+00 0.  1.
<mgrwt>
<rscale>  0 0.19789299E+04</rscale>
<asrwt>0</asrwt>
<pdfrwt beam="1">  1        2 0.34986139E+00 0.19789299E+04</pdfrwt>
<pdfrwt beam="2">  1       -1 0.66233559E-01 0.19789299E+04</pdfrwt>
<totfact> 0.11479352E+01</totfact>
</mgrwt>
</event>
<event>
11    7  0.1497947E-008  0.2330758E+04  0.7818608E-02  0.8465892E-01
          2   -1    0    0  501    0  0.00000000000E+00  0.00000000000E+00  0.25927719028E+04  0.25927719028E+04  0.00000000000E+00 0. -1.
         -1   -1    0    0    0  501 -0.00000000000E+00 -0.00000000000E+00 -0.52380542068E+03  0.52380542068E+03  0.00000000000E+00 0.  1.
         24    2    1    2    0    0 -0.11730145828E+03  0.91894480972E+02  0.21884067758E+04  0.21949368814E+04  0.80121590139E+02 0.  0.
        254    2    1    2    0    0  0.11730145828E+03 -0.91894480972E+02 -0.11944029375E+03  0.92164044201E+03  0.90163789452E+03 0.  0.
         23    2    4    4    0    0  0.19043831450E+03  0.33660557480E+03 -0.18412415781E+03  0.43806472364E+03  0.91809215184E+02 0.  0.
          2    1    3    3  502    0 -0.41749978392E+02 -0.75416549840E+01  0.70920470677E+03  0.71047255637E+03  0.00000000000E+00 0. -1.
         -1    1    3    3    0  502 -0.75551479887E+02  0.99436135956E+02  0.14792020691E+04  0.14844643251E+04  0.00000000000E+00 0.  1.
         13    1    5    5    0    0  0.39826178469E+02  0.16583881135E+02 -0.28118508343E+02  0.51495632013E+02  0.00000000000E+00 0.  1.
        -13    1    5    5    0    0  0.15061213603E+03  0.32002169367E+03 -0.15600564946E+03  0.38656909163E+03  0.00000000000E+00 0. -1.
          3    1    4    4  503    0 -0.12587745006E+03 -0.36298153340E+03  0.92170042209E+02  0.39508991724E+03  0.00000000000E+00 0. -1.
         -3    1    4    4    0  503  0.52740593837E+02 -0.65518522372E+02 -0.27486178157E+02  0.88485801131E+02  0.00000000000E+00 0.  1.
<mgrwt>
<rscale>  0 0.23307578E+04</rscale>
<asrwt>0</asrwt>
<pdfrwt beam="1">  1        2 0.39888798E+00 0.23307578E+04</pdfrwt>
<pdfrwt beam="2">  1       -1 0.80585451E-01 0.23307578E+04</pdfrwt>
<totfact> 0.48559748E+00</totfact>
</mgrwt>
</event>
<event>
12    7  0.1497947E-008  0.1359840E+04  0.7818608E-02  0.8983412E-01
         -1   -1    0    0    0  501 -0.00000000000E+00  0.00000000000E+00  0.16919444920E+04  0.16919444920E+04  0.00000000000E+00 0.  1.
          2   -1    0    0  501    0  0.00000000000E+00 -0.00000000000E+00 -0.27323077610E+03  0.27323077610E+03  0.00000000000E+00 0. -1.
         24    2    1    2    0    0  0.30327609854E+03 -0.13085073614E+03  0.13707256186E+03  0.36559549580E+03  0.75979419860E+02 0.  0.
        254    2    1    2    0    0 -0.30327609854E+03  0.13085073614E+03  0.12816411541E+04  0.15995797723E+04  0.89830567910E+03 0.  0.
         23    2    4    4    0    0 -0.16914100204E+03 -0.50360812126E+02  0.13394088927E+04  0.13540631700E+04  0.91246900055E+02 0.  0.
         23    2    4    4    0    0 -0.13413509650E+03  0.18121154826E+03 -0.57767738596E+02  0.24551660227E+03  0.78175706125E+02 0.  0.
          4    1    3    3  502    0  0.18636399677E+03 -0.88956539848E+02  0.45940570841E+02  0.21155458238E+03  0.00000000000E+00 0. -1.
         -3    1    3    3    0  502  0.11691210177E+03 -0.41894196291E+02  0.91131991015E+02  0.15404091342E+03  0.00000000000E+00 0.  1.
         13    1    5    5    0    0 -0.14274780328E+01  0.21321676178E+01  0.29218845130E+03  0.29219971750E+03  0.00000000000E+00 0. -1.
        -13    1    5    5    0    0 -0.16771352400E+03 -0.52492979744E+02  0.10472204414E+04  0.10618634525E+04  0.00000000000E+00 0.  1.
          4    1    6    6  503    0 -0.53096553900E+02  0.31027502180E+02 -0.41282975088E+02  0.74069116099E+02  0.00000000000E+00 0. -1.
         -4    1    6    6    0  503 -0.81038542602E+02  0.15018404608E+03 -0.16484763508E+02  0.17144748617E+03  0.00000000000E+00 0.  1.
<mgrwt>
<rscale>  0 0.13598401E+04</rscale>
<asrwt>0</asrwt>
<pdfrwt beam="1">  1        2 0.42035505E-01 0.13598401E+04</pdfrwt>
<pdfrwt beam="2">  1       -1 0.26029915E+00 0.13598401E+04</pdfrwt>
<totfact> 0.81548310E+00</totfact>
</mgrwt>
</event>
<event>
12    7  0.1674365E-008  0.1466592E+04  0.7818608E-02  0.8906978E-01
         -1   -1    0    0    0  501 -0.00000000000E+00  0.00000000000E+00  0.33854636416E+03  0.33854636416E+03  0.00000000000E+00 0.  1.
          2   -1    0    0  501    0  0.00000000000E+00 -0.00000000000E+00 -0.15883291348E+04  0.15883291348E+04  0.00000000000E+00 0. -1.
         24    2    1    2    0    0  0.28784266688E+03  0.13870818748E+03 -0.83982604284E+03  0.90216675366E+03  0.80645564168E+02 0.  0.
        254    2    1    2    0    0 -0.28784266688E+03 -0.13870818748E+03 -0.40995672781E+03  0.10247087453E+04  0.88310256023E+03 0.  0.
         23    2    4    4    0    0 -0.17089663741E+03  0.28968908867E+03  0.77006069385E+02  0.35725230356E+03  0.92595058755E+02 0.  0.
         23    2    4    4    0    0 -0.11694602947E+03 -0.42839727616E+03 -0.48696279720E+03  0.66745644175E+03  0.10566331316E+03 0.  0.
          2    1    3    3  502    0  0.27974496794E+03  0.13673005439E+03 -0.75155633618E+03  0.81350432163E+03  0.00000000000E+00 0. -1.
         -1    1    3    3    0  502  0.80976989377E+01  0.19781330932E+01 -0.88269706660E+02  0.88662432024E+02  0.00000000000E+00 0.  1.
         13    1    5    5    0    0 -0.98811522665E+02  0.24449370362E+03  0.55217871801E+02  0.26942513151E+03  0.00000000000E+00 0. -1.
        -13    1    5    5    0    0 -0.72085114741E+02  0.45195385052E+02  0.21788197583E+02  0.87827172055E+02  0.00000000000E+00 0.  1.
          2    1    6    6  503    0 -0.12014019560E+03 -0.26719410248E+03 -0.28153704176E+03  0.40631202404E+03  0.00000000000E+00 0. -1.
         -2    1    6    6    0  503  0.31941661264E+01 -0.16120317367E+03 -0.20542575544E+03  0.26114441770E+03  0.00000000000E+00 0.  1.
<mgrwt>
<rscale>  0 0.14665920E+04</rscale>
<asrwt>0</asrwt>
<pdfrwt beam="1">  1        2 0.24435833E+00 0.14665920E+04</pdfrwt>
<pdfrwt beam="2">  1       -1 0.52084057E-01 0.14665920E+04</pdfrwt>
<totfact> 0.46373580E+01</totfact>
</mgrwt>
</event>
<event>
11    7  0.1497947E-008  0.1135422E+04  0.7818608E-02  0.9171338E-01
          2   -1    0    0  501    0  0.00000000000E+00  0.00000000000E+00  0.98636938413E+03  0.98636938413E+03  0.00000000000E+00 0. -1.
         -1   -1    0    0    0  501 -0.00000000000E+00 -0.00000000000E+00 -0.32674978771E+03  0.32674978771E+03  0.00000000000E+00 0.  1.
         24    2    1    2    0    0 -0.59891898959E+02 -0.38790148831E+02 -0.11707886826E+03  0.15541304567E+03  0.73171293312E+02 0.  0.
        254    2    1    2    0    0  0.59891898959E+02  0.38790148831E+02  0.77669846469E+03  0.11577061262E+04  0.85552980912E+03 0.  0.
         23    2    4    4    0    0  0.20241872000E+02 -0.88224417000E+02  0.91163759241E+03  0.92060171808E+03  0.90725642976E+02 0.  0.
          2    1    3    3  502    0 -0.60818393012E+02 -0.33502153249E+02 -0.44141674982E+02  0.82278543200E+02  0.00000000000E+00 0. -1.
         -1    1    3    3    0  502  0.92649405337E+00 -0.52879955827E+01 -0.72937193281E+02  0.73134502475E+02  0.00000000000E+00 0.  1.
         13    1    5    5    0    0  0.30349037309E+02 -0.74044142596E+02  0.88601785193E+03  0.88962420889E+03  0.00000000000E+00 0.  1.
        -13    1    5    5    0    0 -0.10107165308E+02 -0.14180274404E+02  0.25619740487E+02  0.30977509186E+02  0.00000000000E+00 0. -1.
          3    1    4    4  503    0  0.24424507248E+02 -0.27563054556E+02 -0.11131785164E+02  0.38473304663E+02  0.00000000000E+00 0. -1.
         -3    1    4    4    0  503  0.15225519711E+02  0.15457762039E+03 -0.12380734256E+03  0.19863110342E+03  0.00000000000E+00 0.  1.
<mgrwt>
<rscale>  0 0.11354224E+04</rscale>
<asrwt>0</asrwt>
<pdfrwt beam="1">  1        2 0.15174914E+00 0.11354224E+04</pdfrwt>
<pdfrwt beam="2">  1       -1 0.50269198E-01 0.11354224E+04</pdfrwt>
<totfact> 0.11536989E+02</totfact>
</mgrwt>
</event>
<event>
11    7  0.1497947E-008  0.1720614E+04  0.7818608E-02  0.8749694E-01
          2   -1    0    0  501    0  0.00000000000E+00  0.00000000000E+00  0.36602181955E+04  0.36602181955E+04  0.00000000000E+00 0. -1.
         -1   -1    0    0    0  501 -0.00000000000E+00 -0.00000000000E+00 -0.20220868145E+03  0.20220868145E+03  0.00000000000E+00 0.  1.
         24    2    1    2    0    0  0.37377725398E+03  0.20724219267E+03  0.22512182472E+04  0.22928063993E+04  0.79491043970E+02 0.  0.
        254    2    1    2    0    0 -0.37377725398E+03 -0.20724219267E+03  0.12067912668E+04  0.15696204776E+04  0.90813243534E+03 0.  0.
         23    2    4    4    0    0 -0.16207696787E+03 -0.47686089305E+03  0.51398002490E+03  0.72526232250E+03  0.90358815842E+02 0.  0.
          4    1    3    3  502    0  0.35716209767E+03  0.20188838406E+03  0.20386991833E+04  0.20795716009E+04  0.00000000000E+00 0. -1.
         -3    1    3    3    0  502  0.16615156306E+02  0.53538086019E+01  0.21251906396E+03  0.21323479836E+03  0.00000000000E+00 0.  1.
         13    1    5    5    0    0 -0.15398278568E+03 -0.42219221212E+03  0.49042581820E+03  0.66518752651E+03  0.00000000000E+00 0. -1.
        -13    1    5    5    0    0 -0.80941821892E+01 -0.54668680929E+02  0.23554206698E+02  0.60074795988E+02  0.00000000000E+00 0.  1.
          1    1    4    4  503    0 -0.27604113154E+03  0.30312993764E+03  0.58168417406E+03  0.71164804767E+03  0.00000000000E+00 0. -1.
         -1    1    4    4    0  503  0.64340845431E+02 -0.33511237257E+02  0.11112706786E+03  0.13271010747E+03  0.00000000000E+00 0.  1.
<mgrwt>
<rscale>  0 0.17206137E+04</rscale>
<asrwt>0</asrwt>
<pdfrwt beam="1">  1        2 0.56311044E+00 0.17206137E+04</pdfrwt>
<pdfrwt beam="2">  1       -1 0.31109031E-01 0.17206137E+04</pdfrwt>
<totfact> 0.65393231E+00</totfact>
</mgrwt>
</event>
<event>
12    7  0.1497947E-008  0.1886665E+04  0.7818608E-02  0.8661522E-01
          2   -1    0    0  501    0  0.00000000000E+00  0.00000000000E+00  0.62893640033E+03  0.62893640033E+03  0.00000000000E+00 0. -1.
         -1   -1    0    0    0  501 -0.00000000000E+00 -0.00000000000E+00 -0.14148912791E+04  0.14148912791E+04  0.00000000000E+00 0.  1.
         24    2    1    2    0    0 -0.41735175616E+03  0.17005869703E+02  0.34712995400E+03  0.54887142820E+03  0.79302911389E+02 0.  0.
        254    2    1    2    0    0  0.41735175616E+03 -0.17005869703E+02 -0.11330848327E+04  0.14949562512E+04  0.88121578904E+03 0.  0.
         23    2    4    4    0    0 -0.19563968584E+03 -0.17178340261E+03 -0.61250865968E+03  0.67241930659E+03  0.95898079215E+02 0.  0.
         23    2    4    4    0    0  0.61299144200E+03  0.15477753291E+03 -0.52057617304E+03  0.82253694460E+03  0.76504121678E+02 0.  0.
          4    1    3    3  502    0 -0.36647802892E+03  0.82044523821E+01  0.33325206034E+03  0.49540932010E+03  0.00000000000E+00 0. -1.
         -3    1    3    3    0  502 -0.50873727236E+02  0.88014173212E+01  0.13877893660E+02  0.53462108097E+02  0.00000000000E+00 0.  1.
         13    1    5    5    0    0 -0.50063194399E+02 -0.41320416998E+01 -0.17096842785E+03  0.17819539984E+03  0.00000000000E+00 0.  1.
        -13    1    5    5    0    0 -0.14557649144E+03 -0.16765136091E+03 -0.44154023183E+03  0.49422390675E+03  0.00000000000E+00 0. -1.
          4    1    6    6  503    0  0.22411076942E+03  0.78434029464E+02 -0.23491406657E+03  0.33400921038E+03  0.00000000000E+00 0. -1.
         -4    1    6    6    0  503  0.38888067259E+03  0.76343503444E+02 -0.28566210647E+03  0.48852773422E+03  0.00000000000E+00 0.  1.
<mgrwt>
<rscale>  0 0.18866654E+04</rscale>
<asrwt>0</asrwt>
<pdfrwt beam="1">  1        2 0.96759448E-01 0.18866654E+04</pdfrwt>
<pdfrwt beam="2">  1       -1 0.21767558E+00 0.18866654E+04</pdfrwt>
<totfact> 0.57187537E+00</totfact>
</mgrwt>
</event>
<event>
12    7  0.1497947E-008  0.1073958E+04  0.7818608E-02  0.9230952E-01
         -1   -1    0    0    0  501 -0.00000000000E+00  0.00000000000E+00  0.13917063423E+03  0.13917063423E+03  0.00000000000E+00 0.  1.
          2   -1    0    0  501    0  0.00000000000E+00 -0.00000000000E+00 -0.20718926690E+04  0.20718926690E+04  0.00000000000E+00 0. -1.
         24    2    1    2    0    0 -0.16802220330E+03  0.94596210938E+02 -0.50208478689E+03  0.54375283870E+03  0.79988201847E+02 0.  0.
        254    2    1    2    0    0  0.16802220330E+03 -0.94596210938E+02 -0.14306372478E+04  0.16673104645E+04  0.83427893788E+03 0.  0.
         23    2    4    4    0    0 -0.23895108054E+03  0.54863923420E+02 -0.10348900787E+04  0.10674672289E+04  0.91548571299E+02 0.  0.
         23    2    4    4    0    0  0.40697328384E+03 -0.14946013436E+03 -0.39574716916E+03  0.59984323557E+03  0.12341191125E+03 0.  0.
          4    1    3    3  502    0 -0.17430481617E+03  0.78706275541E+02 -0.45061453107E+03  0.48952048207E+03  0.00000000000E+00 0. -1.
         -3    1    3    3    0  502  0.62826128673E+01  0.15889935397E+02 -0.51470255820E+02  0.54232356629E+02  0.00000000000E+00 0.  1.
         13    1    5    5    0    0 -0.51145030445E+02  0.15363597835E+02 -0.10300247312E+03  0.11602311730E+03  0.00000000000E+00 0. -1.
        -13    1    5    5    0    0 -0.18780605009E+03  0.39500325585E+02 -0.93188760555E+03  0.95144411163E+03  0.00000000000E+00 0.  1.
          1    1    6    6  503    0  0.16725708176E+02  0.14654042631E+02 -0.31287939617E+01  0.22456171336E+02  0.00000000000E+00 0. -1.
         -1    1    6    6    0  503  0.39024757566E+03 -0.16411417699E+03 -0.39261837520E+03  0.57738706423E+03  0.00000000000E+00 0.  1.
<mgrwt>
<rscale>  0 0.10739583E+04</rscale>
<asrwt>0</asrwt>
<pdfrwt beam="1">  1        2 0.31875270E+00 0.10739583E+04</pdfrwt>
<pdfrwt beam="2">  1       -1 0.21410868E-01 0.10739583E+04</pdfrwt>
<totfact> 0.12627323E+02</totfact>
</mgrwt>
</event>
<event>
12    7  0.1497947E-008  0.1976007E+04  0.7818608E-02  0.8617921E-01
          2   -1    0    0  501    0  0.00000000000E+00  0.00000000000E+00  0.24626339925E+04  0.24626339925E+04  0.00000000000E+00 0. -1.
         -1   -1    0    0    0  501 -0.00000000000E+00 -0.00000000000E+00 -0.39638498836E+03  0.39638498836E+03  0.00000000000E+00 0.  1.
         24    2    1    2    0    0 -0.23987681112E+03  0.17686319128E+03  0.18703787792E+04  0.18956468979E+04  0.79617276429E+02 0.  0.
        254    2    1    2    0    0  0.23987681112E+03 -0.17686319128E+03  0.19587022485E+03  0.96337208293E+03  0.89492969123E+03 0.  0.
         23    2    4    4    0    0 -0.24479542963E+03 -0.15667375344E+03  0.32842872738E+03  0.44811039686E+03  0.92011039649E+02 0.  0.
         23    2    4    4    0    0  0.48467224075E+03 -0.20189437833E+02 -0.13255850253E+03  0.51526168607E+03  0.11228559209E+03 0.  0.
          4    1    3    3  502    0 -0.18358392645E+03  0.13233086555E+03  0.15990480392E+04  0.16149827081E+04  0.00000000000E+00 0. -1.
         -3    1    3    3    0  502 -0.56292884674E+02  0.44532325728E+02  0.27133074008E+03  0.28066418976E+03  0.00000000000E+00 0.  1.
         13    1    5    5    0    0  0.61885641411E+01 -0.15537913665E+02  0.14629181489E+02  0.22220216881E+02  0.00000000000E+00 0. -1.
        -13    1    5    5    0    0 -0.25098399377E+03 -0.14113583978E+03  0.31379954589E+03  0.42589017997E+03  0.00000000000E+00 0.  1.
          4    1    6    6  503    0  0.62387959098E+02 -0.40961531421E+02 -0.28153468354E+02  0.79766673976E+02  0.00000000000E+00 0. -1.
         -4    1    6    6    0  503  0.42228428165E+03  0.20772093588E+02 -0.10440503418E+03  0.43549501210E+03  0.00000000000E+00 0.  1.
<mgrwt>
<rscale>  0 0.19760072E+04</rscale>
<asrwt>0</asrwt>
<pdfrwt beam="1">  1        2 0.37886676E+00 0.19760072E+04</pdfrwt>
<pdfrwt beam="2">  1       -1 0.60982307E-01 0.19760072E+04</pdfrwt>
<totfact> 0.10579133E+01</totfact>
</mgrwt>
</event>
<event>
12    7  0.1497947E-008  0.2391877E+04  0.7818608E-02  0.8442551E-01
          2   -1    0    0  501    0  0.00000000000E+00  0.00000000000E+00  0.15947460187E+04  0.15947460187E+04  0.00000000000E+00 0. -1.
         -1   -1    0    0    0  501 -0.00000000000E+00 -0.00000000000E+00 -0.89686291430E+03  0.89686291430E+03  0.00000000000E+00 0.  1.
         24    2    1    2    0    0  0.40948266817E+03 -0.90023756338E+03  0.55553310246E+03  0.11372312611E+04  0.81081362126E+02 0.  0.
        254    2    1    2    0    0 -0.40948266817E+03  0.90023756338E+03  0.14235000197E+03  0.13543776719E+04  0.91431484131E+03 0.  0.
         23    2    4    4    0    0 -0.26549425448E+03  0.10694472239E+04  0.16987285340E+03  0.11195450938E+04  0.10158674553E+03 0.  0.
         23    2    4    4    0    0 -0.14398841369E+03 -0.16920966053E+03 -0.27522851423E+02  0.23483257809E+03  0.70882013836E+02 0.  0.
          2    1    3    3  502    0  0.37736400554E+03 -0.84774579315E+03  0.54051426896E+03  0.10738864919E+04  0.00000000000E+00 0. -1.
         -1    1    3    3    0  502  0.32118662631E+02 -0.52491770235E+02  0.15018833505E+02  0.63344769251E+02  0.00000000000E+00 0.  1.
         13    1    5    5    0    0 -0.13204254744E+02  0.53122109495E+02 -0.13648107706E+02  0.56414374981E+02  0.00000000000E+00 0. -1.
        -13    1    5    5    0    0 -0.25228999973E+03  0.10163251144E+04  0.18352096110E+03  0.10631307188E+04  0.00000000000E+00 0.  1.
          3    1    6    6  503    0  0.16042547624E+01 -0.13482348285E+02 -0.16491360877E+02  0.21361468400E+02  0.00000000000E+00 0. -1.
         -3    1    6    6    0  503 -0.14559266846E+03 -0.15572731225E+03 -0.11031490547E+02  0.21347110969E+03  0.00000000000E+00 0.  1.
<mgrwt>
<rscale>  0 0.23918767E+04</rscale>
<asrwt>0</asrwt>
<pdfrwt beam="1">  1        2 0.24534554E+00 0.23918767E+04</pdfrwt>
<pdfrwt beam="2">  1       -1 0.13797891E+00 0.23918767E+04</pdfrwt>
<totfact> 0.50095699E+00</totfact>
</mgrwt>
</event>
<event>
12    7  0.1497947E-008  0.1621336E+04  0.7818608E-02  0.8807546E-01
         -1   -1    0    0    0  501 -0.00000000000E+00  0.00000000000E+00  0.23037790145E+03  0.23037790145E+03  0.00000000000E+00 0.  1.
          2   -1    0    0  501    0  0.00000000000E+00 -0.00000000000E+00 -0.28526302901E+04  0.28526302901E+04  0.00000000000E+00 0. -1.
         24    2    1    2    0    0  0.47373922387E+03 -0.11747231394E+03 -0.40795290556E+03  0.64127746599E+03  0.81133337533E+02 0.  0.
        254    2    1    2    0    0 -0.47373922387E+03  0.11747231394E+03 -0.22142994831E+04  0.24417307256E+04  0.90592391432E+03 0.  0.
         23    2    4    4    0    0  0.74760632104E+02  0.35562732578E+03 -0.51918071341E+03  0.64012632592E+03  0.90294811594E+02 0.  0.
         23    2    4    4    0    0 -0.54849985597E+03 -0.23815501184E+03 -0.16951187697E+04  0.18016043996E+04  0.12157659235E+03 0.  0.
          4    1    3    3  502    0  0.28431947979E+02 -0.15787209537E+02 -0.65019052138E+01  0.33164535610E+02  0.00000000000E+00 0. -1.
         -3    1    3    3    0  502  0.44530727589E+03 -0.10168510440E+03 -0.40145100034E+03  0.60811293038E+03  0.00000000000E+00 0.  1.
         13    1    5    5    0    0  0.16040975560E+01  0.21974348449E+03 -0.31901513148E+03  0.38737633668E+03  0.00000000000E+00 0. -1.
        -13    1    5    5    0    0  0.73156534548E+02  0.13588384128E+03 -0.20016558193E+03  0.25274998923E+03  0.00000000000E+00 0.  1.
          3    1    6    6  503    0 -0.41835614016E+03 -0.23406351367E+03 -0.13652234110E+04  0.14469424835E+04  0.00000000000E+00 0. -1.
         -3    1    6    6    0  503 -0.13014371581E+03 -0.40914981718E+01 -0.32989535865E+03  0.35466191617E+03  0.00000000000E+00 0.  1.
<mgrwt>
<rscale>  0 0.16213365E+04</rscale>
<asrwt>0</asrwt>
<pdfrwt beam="1">  1        2 0.43886623E+00 0.16213365E+04</pdfrwt>
<pdfrwt beam="2">  1       -1 0.35442752E-01 0.16213365E+04</pdfrwt>
<totfact> 0.17844381E+01</totfact>
</mgrwt>
</event>
<event>
12    7  0.1497947E-008  0.1334871E+04  0.7818608E-02  0.9002360E-01
         -1   -1    0    0    0  501 -0.00000000000E+00  0.00000000000E+00  0.19131187624E+03  0.19131187624E+03  0.00000000000E+00 0.  1.
          2   -1    0    0  501    0  0.00000000000E+00 -0.00000000000E+00 -0.23285025443E+04  0.23285025443E+04  0.00000000000E+00 0. -1.
         24    2    1    2    0    0 -0.16745416409E+03  0.15404634858E+03 -0.62455047756E+02  0.24876226105E+03  0.78808977594E+02 0.  0.
        254    2    1    2    0    0  0.16745416409E+03 -0.15404634858E+03 -0.20747356203E+04  0.22710521595E+04  0.89519765550E+03 0.  0.
         23    2    4    4    0    0 -0.12913565641E+03 -0.45886235902E+03 -0.10230884002E+04  0.11317877755E+04  0.83683999951E+02 0.  0.
         23    2    4    4    0    0  0.29658982050E+03  0.30481601044E+03 -0.10516472201E+04  0.11392643840E+04  0.10527648958E+03 0.  0.
          4    1    3    3  502    0 -0.25078290245E+02  0.64695832416E+02  0.16466292347E+00  0.69386587230E+02  0.00000000000E+00 0. -1.
         -3    1    3    3    0  502 -0.14237587384E+03  0.89350516163E+02 -0.62619710680E+02  0.17937567382E+03  0.00000000000E+00 0.  1.
         13    1    5    5    0    0 -0.12706028025E+03 -0.41834653929E+03 -0.97712212779E+03  0.10704792358E+04  0.00000000000E+00 0.  1.
        -13    1    5    5    0    0 -0.20753761630E+01 -0.40515819735E+02 -0.45966272411E+02  0.61308539653E+02  0.00000000000E+00 0. -1.
          3    1    6    6  503    0  0.25891112225E+03  0.24542367556E+03 -0.95709717475E+03  0.10214219264E+04  0.00000000000E+00 0. -1.
         -3    1    6    6    0  503  0.37678698248E+02  0.59392334884E+02 -0.94550045341E+02  0.11784245762E+03  0.00000000000E+00 0.  1.
<mgrwt>
<rscale>  0 0.13348711E+04</rscale>
<asrwt>0</asrwt>
<pdfrwt beam="1">  1        2 0.35823119E+00 0.13348711E+04</pdfrwt>
<pdfrwt beam="2">  1       -1 0.29432594E-01 0.13348711E+04</pdfrwt>
<totfact> 0.51472036E+01</totfact>
</mgrwt>
</event>
<event>
12    7  0.1497947E-008  0.2671500E+04  0.7818608E-02  0.8344312E-01
          2   -1    0    0  501    0  0.00000000000E+00  0.00000000000E+00  0.12520445916E+04  0.12520445916E+04  0.00000000000E+00 0. -1.
         -1   -1    0    0    0  501 -0.00000000000E+00 -0.00000000000E+00 -0.14250516549E+04  0.14250516549E+04  0.00000000000E+00 0.  1.
         24    2    1    2    0    0 -0.86121729435E+03 -0.78980460171E+03  0.10073345034E+03  0.11756001428E+04  0.80012066359E+02 0.  0.
        254    2    1    2    0    0  0.86121729435E+03  0.78980460171E+03 -0.27374051368E+03  0.15014961036E+04  0.90225835737E+03 0.  0.
         23    2    4    4    0    0  0.55276037468E+03 -0.57007076561E+02 -0.17024837762E+03  0.58830440595E+03  0.91234452852E+02 0.  0.
         23    2    4    4    0    0  0.30845691967E+03  0.84681167827E+03 -0.10349213606E+03  0.91319169769E+03  0.10475096539E+03 0.  0.
          2    1    3    3  502    0 -0.25317504631E+02 -0.28236988534E+02 -0.10468638690E+02  0.39343308938E+02  0.00000000000E+00 0. -1.
         -1    1    3    3    0  502 -0.83589978972E+03 -0.76156761318E+03  0.11120208903E+03  0.11362568339E+04  0.00000000000E+00 0.  1.
         13    1    5    5    0    0  0.46723700833E+03 -0.14114464625E+02 -0.14037942866E+03  0.48807378956E+03  0.00000000000E+00 0. -1.
        -13    1    5    5    0    0  0.85523366350E+02 -0.42892611936E+02 -0.29868948957E+02  0.10023061639E+03  0.00000000000E+00 0.  1.
          1    1    6    6  503    0  0.13521544397E+01  0.82216162522E+02 -0.22528913057E+02  0.85257712994E+02  0.00000000000E+00 0. -1.
         -1    1    6    6    0  503  0.30710476523E+03  0.76459551575E+03 -0.80963223000E+02  0.82793398470E+03  0.00000000000E+00 0.  1.
<mgrwt>
<rscale>  0 0.26715001E+04</rscale>
<asrwt>0</asrwt>
<pdfrwt beam="1">  1        2 0.19262224E+00 0.26715001E+04</pdfrwt>
<pdfrwt beam="2">  1       -1 0.21923872E+00 0.26715001E+04</pdfrwt>
<totfact> 0.19679074E+00</totfact>
</mgrwt>
</event>
<event>
12    7  0.1497947E-008  0.1851830E+04  0.7818608E-02  0.8679212E-01
         -1   -1    0    0    0  501 -0.00000000000E+00  0.00000000000E+00  0.44559470725E+03  0.44559470725E+03  0.00000000000E+00 0.  1.
          2   -1    0    0  501    0  0.00000000000E+00 -0.00000000000E+00 -0.19239874247E+04  0.19239874247E+04  0.00000000000E+00 0. -1.
         24    2    1    2    0    0  0.54618391116E+03  0.31561997893E+02 -0.21400257450E+02  0.55341237784E+03  0.80586999000E+02 0.  0.
        254    2    1    2    0    0 -0.54618391116E+03 -0.31561997893E+02 -0.14569924600E+04  0.18161697541E+04  0.93612633908E+03 0.  0.
         23    2    4    4    0    0 -0.72293087538E+03 -0.24390218796E+03 -0.11709180609E+04  0.14004777683E+04  0.90396604750E+02 0.  0.
         23    2    4    4    0    0  0.17674696422E+03  0.21234019007E+03 -0.28607439910E+03  0.41569198586E+03  0.12096867201E+03 0.  0.
          4    1    3    3  502    0  0.29084755822E+03  0.56992134442E+02 -0.91195790366E+01  0.29651909253E+03  0.00000000000E+00 0. -1.
         -3    1    3    3    0  502  0.25533635294E+03 -0.25430136549E+02 -0.12280678413E+02  0.25689328531E+03  0.00000000000E+00 0.  1.
         13    1    5    5    0    0 -0.61529890770E+03 -0.17854368818E+03 -0.94227535376E+03  0.11394531305E+04  0.00000000000E+00 0.  1.
        -13    1    5    5    0    0 -0.10763196768E+03 -0.65358499780E+02 -0.22864270715E+03  0.26102463771E+03  0.00000000000E+00 0. -1.
          2    1    6    6  503    0  0.61537894148E+02  0.12690108466E+02 -0.25540312534E+02  0.67825207950E+02  0.00000000000E+00 0. -1.
         -2    1    6    6    0  503  0.11520907007E+03  0.19965008160E+03 -0.26053408657E+03  0.34786677791E+03  0.00000000000E+00 0.  1.
<mgrwt>
<rscale>  0 0.18518300E+04</rscale>
<asrwt>0</asrwt>
<pdfrwt beam="1">  1        2 0.29599806E+00 0.18518300E+04</pdfrwt>
<pdfrwt beam="2">  1       -1 0.68553032E-01 0.18518300E+04</pdfrwt>
<totfact> 0.16979259E+01</totfact>
</mgrwt>
</event>
<event>
11    7  0.1497947E-008  0.1500601E+04  0.7818608E-02  0.8884053E-01
         -1   -1    0    0    0  501 -0.00000000000E+00  0.00000000000E+00  0.53808999639E+03  0.53808999639E+03  0.00000000000E+00 0.  1.
          2   -1    0    0  501    0  0.00000000000E+00 -0.00000000000E+00 -0.10462023940E+04  0.10462023940E+04  0.00000000000E+00 0. -1.
         24    2    1    2    0    0  0.28808593783E+03 -0.25783096948E+03  0.14055658289E+03  0.41608109880E+03  0.62426047340E+02 0.  0.
        254    2    1    2    0    0 -0.28808593783E+03  0.25783096948E+03 -0.64866898052E+03  0.11682112916E+04  0.89133375296E+03 0.  0.
         23    2    4    4    0    0 -0.48435163997E+03  0.13343084154E+03 -0.69352982726E+03  0.86124650950E+03  0.91441939049E+02 0.  0.
          4    1    3    3  502    0  0.48948074631E+02 -0.69247822395E+02  0.49589750371E+02  0.98236033401E+02  0.00000000000E+00 0. -1.
         -3    1    3    3    0  502  0.23913786320E+03 -0.18858314708E+03  0.90966832517E+02  0.31784506540E+03  0.00000000000E+00 0.  1.
         13    1    5    5    0    0 -0.42822522282E+03  0.13970171407E+03 -0.57925303631E+03  0.73377618552E+03  0.00000000000E+00 0. -1.
        -13    1    5    5    0    0 -0.56126417147E+02 -0.62708725304E+01 -0.11427679096E+03  0.12747032398E+03  0.00000000000E+00 0.  1.
          3    1    4    4  503    0  0.10330072879E+03 -0.40948876861E+02 -0.36069957249E+01  0.11117941133E+03  0.00000000000E+00 0. -1.
         -3    1    4    4    0  503  0.92964973345E+02  0.16534900480E+03  0.48467842467E+02  0.19578537078E+03  0.00000000000E+00 0.  1.
<mgrwt>
<rscale>  0 0.15006013E+04</rscale>
<asrwt>0</asrwt>
<pdfrwt beam="1">  1        2 0.16095421E+00 0.15006013E+04</pdfrwt>
<pdfrwt beam="2">  1       -1 0.82783078E-01 0.15006013E+04</pdfrwt>
<totfact> 0.37614300E+01</totfact>
</mgrwt>
</event>
<event>
12    7  0.2316793E-008  0.2093762E+04  0.7818608E-02  0.8563996E-01
         -3   -1    0    0    0  501 -0.00000000000E+00  0.00000000000E+00  0.14522994519E+04  0.14522994519E+04  0.00000000000E+00 0.  1.
          4   -1    0    0  501    0  0.00000000000E+00 -0.00000000000E+00 -0.75463744243E+03  0.75463744243E+03  0.00000000000E+00 0. -1.
         24    2    1    2    0    0  0.39476689953E+03 -0.66270265173E+03 -0.10543596309E+03  0.78355229444E+03  0.88440636825E+02 0.  0.
        254    2    1    2    0    0 -0.39476689953E+03  0.66270265173E+03  0.80309797258E+03  0.14233845999E+04  0.88658990302E+03 0.  0.
         23    2    4    4    0    0  0.13066408875E+03  0.60125084780E+03  0.31924950804E+03  0.69900549690E+03  0.90070806844E+02 0.  0.
         23    2    4    4    0    0 -0.52543098828E+03  0.61451803929E+02  0.48384846454E+03  0.72437910302E+03  0.10373861669E+03 0.  0.
          4    1    3    3  502    0  0.26646005532E+03 -0.45292872874E+03 -0.30048016140E+02  0.52635375716E+03  0.00000000000E+00 0. -1.
         -3    1    3    3    0  502  0.12830684421E+03 -0.20977392298E+03 -0.75387946945E+02  0.25719853728E+03  0.00000000000E+00 0.  1.
         13    1    5    5    0    0  0.77832720278E+02  0.21412328981E+03  0.15271891900E+03  0.27428048382E+03  0.00000000000E+00 0.  1.
        -13    1    5    5    0    0  0.52831368476E+02  0.38712755799E+03  0.16653058904E+03  0.42472501308E+03  0.00000000000E+00 0. -1.
          3    1    6    6  503    0 -0.32591474297E+03 -0.12819713035E+02  0.29643724299E+03  0.44074913926E+03  0.00000000000E+00 0. -1.
         -3    1    6    6    0  503 -0.19951624532E+03  0.74271516965E+02  0.18741122155E+03  0.28362996376E+03  0.00000000000E+00 0.  1.
<mgrwt>
<rscale>  0 0.20937617E+04</rscale>
<asrwt>0</asrwt>
<pdfrwt beam="1">  1        4 0.11609807E+00 0.20937617E+04</pdfrwt>
<pdfrwt beam="2">  1       -3 0.22343068E+00 0.20937617E+04</pdfrwt>
<totfact> 0.12716625E-01</totfact>
</mgrwt>
</event>
<event>
12    7  0.1497947E-008  0.1906496E+04  0.7818608E-02  0.8651630E-01
         -1   -1    0    0    0  501 -0.00000000000E+00  0.00000000000E+00  0.38992916556E+03  0.38992916556E+03  0.00000000000E+00 0.  1.
          2   -1    0    0  501    0  0.00000000000E+00 -0.00000000000E+00 -0.23303767866E+04  0.23303767866E+04  0.00000000000E+00 0. -1.
         24    2    1    2    0    0  0.10253343132E+03 -0.20842596429E+03  0.24415859927E+03  0.34638474250E+03  0.80090455814E+02 0.  0.
        254    2    1    2    0    0 -0.10253343132E+03  0.20842596429E+03 -0.21846062203E+04  0.23739212097E+04  0.89946822332E+03 0.  0.
         23    2    4    4    0    0  0.20647609292E+03 -0.58125531916E+02 -0.10820999122E+03  0.25641423661E+03  0.89598572132E+02 0.  0.
         23    2    4    4    0    0 -0.30900952424E+03  0.26655149621E+03 -0.20763962291E+04  0.21175069731E+04  0.76667428193E+02 0.  0.
          4    1    3    3  502    0  0.68065632305E+02 -0.53983342707E+02  0.98129890028E+02  0.13105955481E+03  0.00000000000E+00 0. -1.
         -3    1    3    3    0  502  0.34467799013E+02 -0.15444262158E+03  0.14602870924E+03  0.21532518769E+03  0.00000000000E+00 0.  1.
         13    1    5    5    0    0  0.12423345190E+03 -0.83124901999E+01 -0.20344426422E+02  0.12616237058E+03  0.00000000000E+00 0.  1.
        -13    1    5    5    0    0  0.82242641029E+02 -0.49813041716E+02 -0.87865564799E+02  0.13025186604E+03  0.00000000000E+00 0. -1.
          3    1    6    6  503    0 -0.16065639172E+03  0.95730322734E+02 -0.83817269822E+03  0.85878300108E+03  0.00000000000E+00 0. -1.
         -3    1    6    6    0  503 -0.14835313252E+03  0.17082117347E+03 -0.12382235309E+04  0.12587239720E+04  0.00000000000E+00 0.  1.
<mgrwt>
<rscale>  0 0.19064961E+04</rscale>
<asrwt>0</asrwt>
<pdfrwt beam="1">  1        2 0.35851951E+00 0.19064961E+04</pdfrwt>
<pdfrwt beam="2">  1       -1 0.59989102E-01 0.19064961E+04</pdfrwt>
<totfact> 0.13087534E+01</totfact>
</mgrwt>
</event>
<event>
12    7  0.1497947E-008  0.1819012E+04  0.7818608E-02  0.8696254E-01
          2   -1    0    0  501    0  0.00000000000E+00  0.00000000000E+00  0.16199524890E+04  0.16199524890E+04  0.00000000000E+00 0. -1.
         -1   -1    0    0    0  501 -0.00000000000E+00 -0.00000000000E+00 -0.51063322930E+03  0.51063322930E+03  0.00000000000E+00 0.  1.
         24    2    1    2    0    0  0.14993432043E+03  0.19294131609E+03 -0.31152487824E+03  0.40395213360E+03  0.80143150539E+02 0.  0.
        254    2    1    2    0    0 -0.14993432043E+03 -0.19294131609E+03  0.14208441380E+04  0.17266335848E+04  0.95013621110E+03 0.  0.
         23    2    4    4    0    0  0.12425597239E+03 -0.97214208458E+02  0.14003094522E+04  0.14121147242E+04  0.91166239719E+02 0.  0.
         23    2    4    4    0    0 -0.27419029282E+03 -0.95727107636E+02  0.20534685770E+02  0.31451886058E+03  0.11898085782E+03 0.  0.
          4    1    3    3  502    0  0.18974937069E+02  0.59118236949E+02 -0.39062374216E+02  0.73354503994E+02  0.00000000000E+00 0. -1.
         -3    1    3    3    0  502  0.13095938336E+03  0.13382307915E+03 -0.27246250402E+03  0.33059762961E+03  0.00000000000E+00 0.  1.
         13    1    5    5    0    0  0.21050722901E+02 -0.64612396361E+02  0.72612090705E+03  0.72929381346E+03  0.00000000000E+00 0.  1.
        -13    1    5    5    0    0  0.10320524949E+03 -0.32601812097E+02  0.67418854516E+03  0.68282091071E+03  0.00000000000E+00 0. -1.
          4    1    6    6  503    0 -0.18264029124E+03 -0.58437267449E+02  0.69800100779E+02  0.20406970447E+03  0.00000000000E+00 0. -1.
         -4    1    6    6    0  503 -0.91550001577E+02 -0.37289840187E+02 -0.49265415008E+02  0.11044915611E+03  0.00000000000E+00 0.  1.
<mgrwt>
<rscale>  0 0.18190124E+04</rscale>
<asrwt>0</asrwt>
<pdfrwt beam="1">  1        2 0.24922346E+00 0.18190124E+04</pdfrwt>
<pdfrwt beam="2">  1       -1 0.78558959E-01 0.18190124E+04</pdfrwt>
<totfact> 0.18924011E+01</totfact>
</mgrwt>
</event>
<event>
12    7  0.1497947E-008  0.1941156E+04  0.7818608E-02  0.8634637E-01
         -1   -1    0    0    0  501 -0.00000000000E+00  0.00000000000E+00  0.73992126739E+03  0.73992126739E+03  0.00000000000E+00 0.  1.
          2   -1    0    0  501    0  0.00000000000E+00 -0.00000000000E+00 -0.12731373974E+04  0.12731373974E+04  0.00000000000E+00 0. -1.
         24    2    1    2    0    0 -0.64510040847E+03 -0.28094448869E+03 -0.49612410815E+03  0.86443569112E+03  0.77624678130E+02 0.  0.
        254    2    1    2    0    0  0.64510040847E+03  0.28094448869E+03 -0.37092021833E+02  0.11486229737E+04  0.90712434362E+03 0.  0.
         23    2    4    4    0    0 -0.12450449988E+03  0.33474566679E+03 -0.22669369065E+02  0.36922916659E+03  0.90885891306E+02 0.  0.
         23    2    4    4    0    0  0.76960490836E+03 -0.53801178107E+02 -0.14422652768E+02  0.77939380707E+03  0.10981990643E+03 0.  0.
          2    1    3    3  502    0 -0.11197501437E+03 -0.62281012894E+02 -0.12522030772E+03  0.17915762299E+03  0.00000000000E+00 0. -1.
         -1    1    3    3    0  502 -0.53312539410E+03 -0.21866347579E+03 -0.37090380044E+03  0.68527806813E+03  0.00000000000E+00 0.  1.
         13    1    5    5    0    0  0.34454019606E+01  0.34114362239E+02 -0.25100350722E+02  0.42493389039E+02  0.00000000000E+00 0. -1.
        -13    1    5    5    0    0 -0.12794990185E+03  0.30063130455E+03  0.24309816565E+01  0.32673577755E+03  0.00000000000E+00 0.  1.
          4    1    6    6  503    0  0.14937390643E+03 -0.21897404589E+02  0.39364408578E+02  0.15601800188E+03  0.00000000000E+00 0. -1.
         -4    1    6    6    0  503  0.62023100193E+03 -0.31903773518E+02 -0.53787061346E+02  0.62337580518E+03  0.00000000000E+00 0.  1.
<mgrwt>
<rscale>  0 0.19411558E+04</rscale>
<asrwt>0</asrwt>
<pdfrwt beam="1">  1        2 0.19586729E+00 0.19411558E+04</pdfrwt>
<pdfrwt beam="2">  1       -1 0.11383404E+00 0.19411558E+04</pdfrwt>
<totfact> 0.12831522E+01</totfact>
</mgrwt>
</event>
<event>
12    7  0.1497947E-008  0.1916687E+04  0.7818608E-02  0.8646594E-01
          2   -1    0    0  501    0  0.00000000000E+00  0.00000000000E+00  0.18859412410E+04  0.18859412410E+04  0.00000000000E+00 0. -1.
         -1   -1    0    0    0  501 -0.00000000000E+00 -0.00000000000E+00 -0.48698354094E+03  0.48698354094E+03  0.00000000000E+00 0.  1.
         24    2    1    2    0    0 -0.26576817387E+03 -0.68394316887E+03  0.71889754712E+03  0.10301536968E+04  0.77407850399E+02 0.  0.
        254    2    1    2    0    0  0.26576817387E+03  0.68394316887E+03  0.68006015297E+03  0.13427710852E+04  0.89562346722E+03 0.  0.
         23    2    4    4    0    0 -0.11425896851E+03  0.83419536643E+02 -0.16707310580E+03  0.23489735040E+03  0.85143476336E+02 0.  0.
         23    2    4    4    0    0  0.38002714238E+03  0.60052363222E+03  0.84713325877E+03  0.11078737348E+04  0.68557948431E+02 0.  0.
          2    1    3    3  502    0 -0.15172941380E+03 -0.41286630697E+03  0.48183913086E+03  0.65241807951E+03  0.00000000000E+00 0. -1.
         -3    1    3    3    0  502 -0.11403876006E+03 -0.27107686190E+03  0.23705841627E+03  0.37773561730E+03  0.00000000000E+00 0.  1.
         13    1    5    5    0    0 -0.93023222547E+02  0.57612698744E+02 -0.16910195141E+03  0.20141502665E+03  0.00000000000E+00 0.  1.
        -13    1    5    5    0    0 -0.21235745960E+02  0.25806837899E+02  0.20288456098E+01  0.33482323745E+02  0.00000000000E+00 0. -1.
          3    1    6    6  503    0  0.10793942358E+03  0.13802080760E+03  0.24686864196E+03  0.30272890328E+03  0.00000000000E+00 0. -1.
         -3    1    6    6    0  503  0.27208771879E+03  0.46250282462E+03  0.60026461681E+03  0.80514483150E+03  0.00000000000E+00 0.  1.
<mgrwt>
<rscale>  0 0.19166871E+04</rscale>
<asrwt>0</asrwt>
<pdfrwt beam="1">  1        2 0.29014480E+00 0.19166871E+04</pdfrwt>
<pdfrwt beam="2">  1       -1 0.74920546E-01 0.19166871E+04</pdfrwt>
<totfact> 0.14754450E+01</totfact>
</mgrwt>
</event>
<event>
12    7  0.1497947E-008  0.2951776E+04  0.7818608E-02  0.8257637E-01
          2   -1    0    0  501    0  0.00000000000E+00  0.00000000000E+00  0.22311653650E+04  0.22311653650E+04  0.00000000000E+00 0. -1.
         -1   -1    0    0    0  501 -0.00000000000E+00 -0.00000000000E+00 -0.97628127283E+03  0.97628127283E+03  0.00000000000E+00 0.  1.
         24    2    1    2    0    0  0.42532130710E+03  0.44425723371E+03 -0.67619165705E+03  0.91717831005E+03  0.75618723806E+02 0.  0.
        254    2    1    2    0    0 -0.42532130710E+03 -0.44425723371E+03  0.19310757492E+04  0.22902683278E+04  0.10667768089E+04 0.  0.
         23    2    4    4    0    0 -0.75495227310E+03 -0.30408655928E+03  0.10360613950E+04  0.13204552268E+04  0.88075089517E+02 0.  0.
         23    2    4    4    0    0  0.32963096600E+03 -0.14017067443E+03  0.89501435417E+03  0.96981310100E+03  0.10574670203E+03 0.  0.
          4    1    3    3  502    0  0.72194383216E+01 -0.61892920178E+00 -0.17474607980E+01  0.74536556318E+01  0.00000000000E+00 0. -1.
         -3    1    3    3    0  502  0.41810186878E+03  0.44487616291E+03 -0.67444419625E+03  0.90972465442E+03  0.00000000000E+00 0.  1.
         13    1    5    5    0    0 -0.48304278030E+03 -0.19162967811E+03  0.72799315564E+03  0.89444189067E+03  0.00000000000E+00 0. -1.
        -13    1    5    5    0    0 -0.27190949280E+03 -0.11245688117E+03  0.30806823940E+03  0.42601333608E+03  0.00000000000E+00 0.  1.
          2    1    6    6  503    0  0.16562369925E+03 -0.22419972290E+02  0.33208042669E+03  0.37176776985E+03  0.00000000000E+00 0. -1.
         -2    1    6    6    0  503  0.16400726674E+03 -0.11775070214E+03  0.56293392748E+03  0.59804533114E+03  0.00000000000E+00 0.  1.
<mgrwt>
<rscale>  0 0.29517757E+04</rscale>
<asrwt>0</asrwt>
<pdfrwt beam="1">  1        2 0.34325621E+00 0.29517757E+04</pdfrwt>
<pdfrwt beam="2">  1       -1 0.15019712E+00 0.29517757E+04</pdfrwt>
<totfact> 0.16846880E+00</totfact>
</mgrwt>
</event>
<event>
12    7  0.1497947E-008  0.3790944E+04  0.7818608E-02  0.8048101E-01
         -3   -1    0    0    0  501 -0.00000000000E+00  0.00000000000E+00  0.26944156271E+04  0.26944156271E+04  0.00000000000E+00 0.  1.
          2   -1    0    0  501    0  0.00000000000E+00 -0.00000000000E+00 -0.13334299803E+04  0.13334299803E+04  0.00000000000E+00 0. -1.
         24    2    1    2    0    0  0.45008445371E+03  0.45778188960E+03  0.24039179097E+04  0.24894415532E+04  0.79734911123E+02 0.  0.
        254    2    1    2    0    0 -0.45008445371E+03 -0.45778188960E+03 -0.10429322629E+04  0.15384040542E+04  0.93104191920E+03 0.  0.
         23    2    4    4    0    0 -0.60103279896E+03 -0.33704053290E+03 -0.11091410656E+04  0.13089608575E+04  0.91366715408E+02 0.  0.
         23    2    4    4    0    0  0.15094834525E+03 -0.12074135670E+03  0.66208802783E+02  0.22944319677E+03  0.10438724456E+03 0.  0.
          2    1    3    3  502    0  0.10976355427E+03  0.96540876214E+02  0.67825973229E+03  0.69383315218E+03  0.00000000000E+00 0. -1.
         -1    1    3    3    0  502  0.34032089944E+03  0.36124101338E+03  0.17256581774E+04  0.17956084010E+04  0.00000000000E+00 0.  1.
         13    1    5    5    0    0 -0.23811613132E+03 -0.18028647418E+03 -0.44074223724E+03  0.53240607102E+03  0.00000000000E+00 0.  1.
        -13    1    5    5    0    0 -0.36291666764E+03 -0.15675405872E+03 -0.66839882839E+03  0.77655478646E+03  0.00000000000E+00 0. -1.
          2    1    6    6  503    0  0.11244213471E+03 -0.97898548652E+02 -0.51617803953E+00  0.14908932197E+03  0.00000000000E+00 0. -1.
         -2    1    6    6    0  503  0.38506210541E+02 -0.22842808047E+02  0.66724980822E+02  0.80353874800E+02  0.00000000000E+00 0.  1.
<mgrwt>
<rscale>  0 0.37909442E+04</rscale>
<asrwt>0</asrwt>
<pdfrwt beam="1">  1        2 0.20514307E+00 0.37909442E+04</pdfrwt>
<pdfrwt beam="2">  1       -3 0.41452548E+00 0.37909442E+04</pdfrwt>
<totfact> 0.69645687E-02</totfact>
</mgrwt>
</event>
<event>
12    7  0.1497947E-008  0.1980316E+04  0.7818608E-02  0.8615879E-01
         -1   -1    0    0    0  501 -0.00000000000E+00  0.00000000000E+00  0.25205654838E+03  0.25205654838E+03  0.00000000000E+00 0.  1.
          2   -1    0    0  501    0  0.00000000000E+00 -0.00000000000E+00 -0.38896555752E+04  0.38896555752E+04  0.00000000000E+00 0. -1.
         24    2    1    2    0    0 -0.43805343020E+03 -0.32275146416E+03 -0.26497349943E+03  0.60982702030E+03  0.74958148032E+02 0.  0.
        254    2    1    2    0    0  0.43805343020E+03  0.32275146416E+03 -0.33726255274E+04  0.35318851033E+04  0.89640957127E+03 0.  0.
         23    2    4    4    0    0  0.34241867094E+03 -0.17726997550E+03 -0.67060980613E+03  0.77949498409E+03  0.96019413318E+02 0.  0.
         23    2    4    4    0    0  0.95634759264E+02  0.50002143966E+03 -0.27020157213E+04  0.27523901192E+04  0.12487979403E+03 0.  0.
          2    1    3    3  502    0 -0.27996464914E+03 -0.16045957868E+03 -0.15496752168E+03  0.35796985059E+03  0.00000000000E+00 0. -1.
         -1    1    3    3    0  502 -0.15808878106E+03 -0.16229188548E+03 -0.11000597775E+03  0.25185716971E+03  0.00000000000E+00 0.  1.
         13    1    5    5    0    0  0.22031326471E+03 -0.16069992326E+03 -0.43025223169E+03  0.50939118839E+03  0.00000000000E+00 0.  1.
        -13    1    5    5    0    0  0.12210540623E+03 -0.16570052247E+02 -0.24035757444E+03  0.27010379570E+03  0.00000000000E+00 0. -1.
          3    1    6    6  503    0 -0.28662803583E+02  0.58828410069E+02 -0.37322904832E+03  0.37892249953E+03  0.00000000000E+00 0. -1.
         -3    1    6    6    0  503  0.12429756285E+03  0.44119302960E+03 -0.23287866730E+04  0.23734676197E+04  0.00000000000E+00 0.  1.
<mgrwt>
<rscale>  0 0.19803163E+04</rscale>
<asrwt>0</asrwt>
<pdfrwt beam="1">  1        2 0.59840854E+00 0.19803163E+04</pdfrwt>
<pdfrwt beam="2">  1       -1 0.38777931E-01 0.19803163E+04</pdfrwt>
<totfact> 0.28872946E+00</totfact>
</mgrwt>
</event>
<event>
12    7  0.1497947E-008  0.2489565E+04  0.7818608E-02  0.8406712E-01
         -1   -1    0    0    0  501 -0.00000000000E+00  0.00000000000E+00  0.64042592995E+03  0.64042592995E+03  0.00000000000E+00 0.  1.
          2   -1    0    0  501    0  0.00000000000E+00 -0.00000000000E+00 -0.24194579484E+04  0.24194579484E+04  0.00000000000E+00 0. -1.
         24    2    1    2    0    0 -0.10519594475E+04 -0.26437962440E+03 -0.76762417113E+03  0.13312475916E+04  0.80361788383E+02 0.  0.
        254    2    1    2    0    0  0.10519594475E+04  0.26437962440E+03 -0.10114078473E+04  0.17286362868E+04  0.88810039601E+03 0.  0.
         23    2    4    4    0    0  0.10974578084E+04  0.39363308936E+03 -0.67601743717E+03  0.13508415600E+04  0.91720742632E+02 0.  0.
         23    2    4    4    0    0 -0.45498360894E+02 -0.12925346496E+03 -0.33539041015E+03  0.37779472679E+03  0.10707739874E+03 0.  0.
          2    1    3    3  502    0 -0.93236568878E+02 -0.20792506112E+01 -0.76571635518E+02  0.12066729642E+03  0.00000000000E+00 0. -1.
         -1    1    3    3    0  502 -0.95872287860E+03 -0.26230037379E+03 -0.69105253561E+03  0.12105802952E+04  0.00000000000E+00 0.  1.
         13    1    5    5    0    0  0.88223863436E+02  0.19693044832E+02 -0.79072789875E+02  0.12009900996E+03  0.00000000000E+00 0.  1.
        -13    1    5    5    0    0  0.10092339449E+04  0.37394004453E+03 -0.59694464730E+03  0.12307425500E+04  0.00000000000E+00 0. -1.
          2    1    6    6  503    0 -0.47838632117E+02 -0.13189882495E+03 -0.21121883891E+03  0.25357293361E+03  0.00000000000E+00 0. -1.
         -2    1    6    6    0  503  0.23402712233E+01  0.26453599873E+01 -0.12417157123E+03  0.12422179318E+03  0.00000000000E+00 0.  1.
<mgrwt>
<rscale>  0 0.24895651E+04</rscale>
<asrwt>0</asrwt>
<pdfrwt beam="1">  1        2 0.37222430E+00 0.24895651E+04</pdfrwt>
<pdfrwt beam="2">  1       -1 0.98527067E-01 0.24895651E+04</pdfrwt>
<totfact> 0.38780572E+00</totfact>
</mgrwt>
</event>
<event>
12    7  0.1497947E-008  0.4303869E+04  0.7818608E-02  0.7945903E-01
         -1   -1    0    0    0  501 -0.00000000000E+00  0.00000000000E+00  0.14931754488E+04  0.14931754488E+04  0.00000000000E+00 0.  1.
          2   -1    0    0  501    0  0.00000000000E+00 -0.00000000000E+00 -0.31013243359E+04  0.31013243359E+04  0.00000000000E+00 0. -1.
         24    2    1    2    0    0 -0.92771037279E+03  0.64144403007E+03 -0.26053602088E+04  0.28401201389E+04  0.79269204204E+02 0.  0.
        254    2    1    2    0    0  0.92771037279E+03 -0.64144403007E+03  0.99721132170E+03  0.17543796457E+04  0.90073333554E+03 0.  0.
         23    2    4    4    0    0  0.40275580640E+03 -0.78273374978E+03  0.67524002671E+03  0.11132048201E+04  0.91605213462E+02 0.  0.
         23    2    4    4    0    0  0.52495456639E+03  0.14128971971E+03  0.32197129499E+03  0.64117482566E+03  0.10908510710E+03 0.  0.
          2    1    3    3  502    0 -0.45777498048E+03  0.35080891038E+03 -0.12606033586E+04  0.13862704108E+04  0.00000000000E+00 0. -1.
         -1    1    3    3    0  502 -0.46993539231E+03  0.29063511969E+03 -0.13447568502E+04  0.14538497281E+04  0.00000000000E+00 0.  1.
         13    1    5    5    0    0  0.33801877104E+02 -0.74321931501E+02  0.98894493442E+02  0.12824366351E+03  0.00000000000E+00 0. -1.
        -13    1    5    5    0    0  0.36895392929E+03 -0.70841181828E+03  0.57634553327E+03  0.98496115656E+03  0.00000000000E+00 0.  1.
          1    1    6    6  503    0  0.88896068960E+02 -0.40338926836E+01  0.19968096730E+02  0.91200374198E+02  0.00000000000E+00 0. -1.
         -1    1    6    6    0  503  0.43605849743E+03  0.14532361239E+03  0.30200319826E+03  0.54997445146E+03  0.00000000000E+00 0.  1.
<mgrwt>
<rscale>  0 0.43038687E+04</rscale>
<asrwt>0</asrwt>
<pdfrwt beam="1">  1        2 0.47712682E+00 0.43038687E+04</pdfrwt>
<pdfrwt beam="2">  1       -1 0.22971930E+00 0.43038687E+04</pdfrwt>
<totfact> 0.12437925E-01</totfact>
</mgrwt>
</event>
<event>
12    7  0.1497947E-008  0.2127670E+04  0.7818608E-02  0.8549151E-01
         -1   -1    0    0    0  501 -0.00000000000E+00  0.00000000000E+00  0.10293008752E+04  0.10293008752E+04  0.00000000000E+00 0.  1.
          2   -1    0    0  501    0  0.00000000000E+00 -0.00000000000E+00 -0.10995279939E+04  0.10995279939E+04  0.00000000000E+00 0. -1.
         24    2    1    2    0    0 -0.12198692465E+03 -0.47161228093E+03  0.69294990148E+03  0.85082309823E+03  0.80133795614E+02 0.  0.
        254    2    1    2    0    0  0.12198692465E+03  0.47161228093E+03 -0.76317702017E+03  0.12780057709E+04  0.90197596030E+03 0.  0.
         23    2    4    4    0    0 -0.24321782843E+03  0.39077209989E+03 -0.75543176672E+03  0.88898763084E+03  0.88114173078E+02 0.  0.
         23    2    4    4    0    0  0.36520475308E+03  0.80840181042E+02 -0.77452534480E+01  0.38901814003E+03  0.10660899483E+03 0.  0.
          2    1    3    3  502    0  0.24474472412E+01 -0.50455153214E+01  0.30788749632E+02  0.31295276429E+02  0.00000000000E+00 0. -1.
         -1    1    3    3    0  502 -0.12443437189E+03 -0.46656676561E+03  0.66216115185E+03  0.81952782180E+03  0.00000000000E+00 0.  1.
         13    1    5    5    0    0 -0.20523169974E+03  0.31136448213E+03 -0.53987297828E+03  0.65614840089E+03  0.00000000000E+00 0. -1.
        -13    1    5    5    0    0 -0.37986128695E+02  0.79407617759E+02 -0.21555878844E+03  0.23283922995E+03  0.00000000000E+00 0.  1.
          2    1    6    6  503    0  0.17660635456E+03  0.87840487382E+02 -0.27931995318E+02  0.19921333303E+03  0.00000000000E+00 0. -1.
         -2    1    6    6    0  503  0.18859839852E+03 -0.70003063406E+01  0.20186741870E+02  0.18980480700E+03  0.00000000000E+00 0.  1.
<mgrwt>
<rscale>  0 0.21276702E+04</rscale>
<asrwt>0</asrwt>
<pdfrwt beam="1">  1        2 0.16915815E+00 0.21276702E+04</pdfrwt>
<pdfrwt beam="2">  1       -1 0.15835398E+00 0.21276702E+04</pdfrwt>
<totfact> 0.68755974E+00</totfact>
</mgrwt>
</event>
<event>
12    7  0.1497947E-008  0.2659069E+04  0.7818608E-02  0.8348409E-01
          2   -1    0    0  501    0  0.00000000000E+00  0.00000000000E+00  0.32626629091E+04  0.32626629091E+04  0.00000000000E+00 0. -1.
         -1   -1    0    0    0  501 -0.00000000000E+00 -0.00000000000E+00 -0.54178517344E+03  0.54178517344E+03  0.00000000000E+00 0.  1.
         24    2    1    2    0    0 -0.35228250962E+03 -0.12585292106E+02  0.28127462040E+04  0.28358911676E+04  0.80474529929E+02 0.  0.
        254    2    1    2    0    0  0.35228250962E+03  0.12585292106E+02 -0.91868468297E+02  0.96855691502E+03  0.89744154462E+03 0.  0.
         23    2    4    4    0    0 -0.22817360682E+03 -0.21015603945E+03  0.46872326251E+02  0.32689274266E+03  0.91831881536E+02 0.  0.
         23    2    4    4    0    0  0.58045611644E+03  0.22274133156E+03 -0.13874079455E+03  0.64166417236E+03  0.77077221781E+02 0.  0.
          4    1    3    3  502    0 -0.32649040537E+03  0.60660758756E+01  0.26516011265E+04  0.26716327061E+04  0.00000000000E+00 0. -1.
         -1    1    3    3    0  502 -0.25792104249E+02 -0.18651367981E+02  0.16114507747E+03  0.16425846146E+03  0.00000000000E+00 0.  1.
         13    1    5    5    0    0 -0.76878539724E+02 -0.38657607803E+02  0.47305161338E+02  0.98196225998E+02  0.00000000000E+00 0.  1.
        -13    1    5    5    0    0 -0.15129506710E+03 -0.17149843165E+03 -0.43283508665E+00  0.22869651666E+03  0.00000000000E+00 0. -1.
          2    1    6    6  503    0  0.51084193963E+03  0.21767520315E+03 -0.13656435578E+03  0.57183197237E+03  0.00000000000E+00 0. -1.
         -2    1    6    6    0  503  0.69614176807E+02  0.50661284108E+01 -0.21764387725E+01  0.69832199989E+02  0.00000000000E+00 0.  1.
<mgrwt>
<rscale>  0 0.26590693E+04</rscale>
<asrwt>0</asrwt>
<pdfrwt beam="1">  1        2 0.50194813E+00 0.26590693E+04</pdfrwt>
<pdfrwt beam="2">  1       -1 0.83351567E-01 0.26590693E+04</pdfrwt>
<totfact> 0.16858598E+00</totfact>
</mgrwt>
</event>
<event>
11    7  0.1497947E-008  0.2601495E+04  0.7818608E-02  0.8367694E-01
          2   -1    0    0  501    0  0.00000000000E+00  0.00000000000E+00  0.19975329415E+04  0.19975329415E+04  0.00000000000E+00 0. -1.
         -1   -1    0    0    0  501 -0.00000000000E+00 -0.00000000000E+00 -0.84701675686E+03  0.84701675686E+03  0.00000000000E+00 0.  1.
         24    2    1    2    0    0  0.10338572553E+04  0.34828919392E+03  0.13073689303E+03  0.11015471861E+04  0.78408424417E+02 0.  0.
        254    2    1    2    0    0 -0.10338572553E+04 -0.34828919392E+03  0.10197792916E+04  0.17430025123E+04  0.89885581007E+03 0.  0.
         23    2    4    4    0    0 -0.16586229546E+03 -0.50233620966E+02  0.74954125319E+03  0.77475478566E+03  0.91646985419E+02 0.  0.
          2    1    3    3  502    0  0.25046828054E+03  0.11898968065E+03  0.42511775598E+02  0.28053547855E+03  0.00000000000E+00 0. -1.
         -1    1    3    3    0  502  0.78338897475E+03  0.22929951327E+03  0.88225117429E+02  0.82101170753E+03  0.00000000000E+00 0.  1.
         13    1    5    5    0    0 -0.80809206850E+02 -0.54457349803E+01  0.51419675404E+03  0.52053634436E+03  0.00000000000E+00 0.  1.
        -13    1    5    5    0    0 -0.85053088606E+02 -0.44787885986E+02  0.23534449916E+03  0.25421844130E+03  0.00000000000E+00 0. -1.
          4    1    4    4  503    0 -0.68405558838E+03 -0.20920206899E+03  0.26821658798E+03  0.76396183918E+03  0.00000000000E+00 0.  1.
         -4    1    4    4    0  503 -0.18393937146E+03 -0.88853503963E+02  0.20214504194E+01  0.20428588743E+03  0.00000000000E+00 0. -1.
<mgrwt>
<rscale>  0 0.26014949E+04</rscale>
<asrwt>0</asrwt>
<pdfrwt beam="1">  1        2 0.30731276E+00 0.26014949E+04</pdfrwt>
<pdfrwt beam="2">  1       -1 0.13031027E+00 0.26014949E+04</pdfrwt>
<totfact> 0.33998298E+00</totfact>
</mgrwt>
</event>
<event>
11    7  0.1497947E-008  0.1042791E+04  0.7818608E-02  0.9262819E-01
         -1   -1    0    0    0  501 -0.00000000000E+00  0.00000000000E+00  0.52142759674E+03  0.52142759674E+03  0.00000000000E+00 0.  1.
          2   -1    0    0  501    0  0.00000000000E+00 -0.00000000000E+00 -0.52136336422E+03  0.52136336422E+03  0.00000000000E+00 0. -1.
         24    2    1    2    0    0 -0.68560284701E+02  0.13200019129E+02 -0.12454074108E+03  0.16305399728E+03  0.78749328235E+02 0.  0.
        254    2    1    2    0    0  0.68560284701E+02 -0.13200019129E+02  0.12460497360E+03  0.87973696368E+03  0.86806449800E+03 0.  0.
         23    2    4    4    0    0  0.12347086217E+03  0.57299442529E+02 -0.22559905181E+03  0.27886056478E+03  0.91323614117E+02 0.  0.
          4    1    3    3  502    0 -0.62370405762E+02  0.16211850807E+02 -0.13553905753E+03  0.15007907161E+03  0.00000000000E+00 0. -1.
         -3    1    3    3    0  502 -0.61898789390E+01 -0.30118316782E+01  0.10998316448E+02  0.12974925666E+02  0.00000000000E+00 0.  1.
         13    1    5    5    0    0  0.18478281832E+02 -0.21415618846E+02 -0.18875689583E+02  0.34005400854E+02  0.00000000000E+00 0. -1.
        -13    1    5    5    0    0  0.10499258034E+03  0.78715061375E+02 -0.20672336222E+03  0.24485516393E+03  0.00000000000E+00 0.  1.
          1    1    4    4  503    0  0.96441546545E+02  0.17988646108E+02 -0.86185734300E+02  0.13058539002E+03  0.00000000000E+00 0. -1.
         -1    1    4    4    0  503 -0.15135212401E+03 -0.88488107766E+02  0.43638975971E+03  0.47029100889E+03  0.00000000000E+00 0.  1.
<mgrwt>
<rscale>  0 0.10427910E+04</rscale>
<asrwt>0</asrwt>
<pdfrwt beam="1">  1        2 0.80209748E-01 0.10427910E+04</pdfrwt>
<pdfrwt beam="2">  1       -1 0.80219630E-01 0.10427910E+04</pdfrwt>
<totfact> 0.10363236E+02</totfact>
</mgrwt>
</event>
<event>
11    7  0.1497947E-008  0.1594544E+04  0.7818608E-02  0.8823907E-01
         -1   -1    0    0    0  501 -0.00000000000E+00  0.00000000000E+00  0.54070274171E+03  0.54070274171E+03  0.00000000000E+00 0.  1.
          2   -1    0    0  501    0  0.00000000000E+00 -0.00000000000E+00 -0.11755863291E+04  0.11755863291E+04  0.00000000000E+00 0. -1.
         24    2    1    2    0    0 -0.22196821443E+03 -0.40382512902E+03  0.86565963506E+02  0.47566969277E+03  0.80145914035E+02 0.  0.
        254    2    1    2    0    0  0.22196821443E+03  0.40382512902E+03 -0.72144955088E+03  0.12406193780E+04  0.89794340782E+03 0.  0.
         23    2    4    4    0    0  0.54345039862E+02  0.40452887139E+03 -0.14803250190E+03  0.44428659542E+03  0.94233572069E+02 0.  0.
          2    1    3    3  502    0 -0.37101894583E+01  0.88955399347E+00 -0.55331911892E+01  0.67210874760E+01  0.00000000000E+00 0. -1.
         -1    1    3    3    0  502 -0.21825802497E+03 -0.40471468301E+03  0.92099154695E+02  0.46894860529E+03  0.00000000000E+00 0.  1.
         13    1    5    5    0    0  0.23916639110E+01  0.10248210737E+03 -0.80777663207E+02  0.13051181272E+03  0.00000000000E+00 0.  1.
        -13    1    5    5    0    0  0.51953375951E+02  0.30204676402E+03 -0.67254838694E+02  0.31377478270E+03  0.00000000000E+00 0. -1.
          3    1    4    4  503    0 -0.15544219588E+03  0.11884412508E+03 -0.29211520874E+03  0.35159280070E+03  0.00000000000E+00 0. -1.
         -3    1    4    4    0  503  0.32306537045E+03 -0.11954786745E+03 -0.28130184024E+03  0.44473998192E+03  0.00000000000E+00 0.  1.
<mgrwt>
<rscale>  0 0.15945441E+04</rscale>
<asrwt>0</asrwt>
<pdfrwt beam="1">  1        2 0.18085943E+00 0.15945441E+04</pdfrwt>
<pdfrwt beam="2">  1       -1 0.83185038E-01 0.15945441E+04</pdfrwt>
<totfact> 0.30750407E+01</totfact>
</mgrwt>
</event>
<event>
12    7  0.1497947E-008  0.1756949E+04  0.7818608E-02  0.8729535E-01
          2   -1    0    0  501    0  0.00000000000E+00  0.00000000000E+00  0.20374440490E+04  0.20374440490E+04  0.00000000000E+00 0. -1.
         -1   -1    0    0    0  501 -0.00000000000E+00 -0.00000000000E+00 -0.37876723917E+03  0.37876723917E+03  0.00000000000E+00 0.  1.
         24    2    1    2    0    0 -0.78844797840E+02  0.55357490671E+02  0.15123916920E+04  0.15175824519E+04  0.80292679754E+02 0.  0.
        254    2    1    2    0    0  0.78844797840E+02 -0.55357490671E+02  0.14628511777E+03  0.89862883619E+03  0.88139292919E+03 0.  0.
         23    2    4    4    0    0 -0.10446410173E+03 -0.28098303014E+03  0.39105312846E+03  0.49991795175E+03  0.84446417471E+02 0.  0.
         23    2    4    4    0    0  0.18330889957E+03  0.22562553947E+03 -0.24476801069E+03  0.39871088444E+03  0.12062318845E+03 0.  0.
          4    1    3    3  502    0 -0.45373080653E+02  0.70766612837E+02  0.12172797534E+04  0.12201789328E+04  0.00000000000E+00 0. -1.
         -3    1    3    3    0  502 -0.33471717187E+02 -0.15409122166E+02  0.29511193860E+03  0.29740351915E+03  0.00000000000E+00 0.  1.
         13    1    5    5    0    0  0.11643720615E+02 -0.23864176700E+02  0.17499602492E+02  0.31801120211E+02  0.00000000000E+00 0. -1.
        -13    1    5    5    0    0 -0.11610782235E+03 -0.25711885344E+03  0.37355352596E+03  0.46811683153E+03  0.00000000000E+00 0.  1.
          4    1    6    6  503    0  0.12083520446E+03  0.16386147416E+03 -0.94076667684E+02  0.22428140528E+03  0.00000000000E+00 0.  1.
         -4    1    6    6    0  503  0.62473695113E+02  0.61764065310E+02 -0.15069134301E+03  0.17442947916E+03  0.00000000000E+00 0. -1.
<mgrwt>
<rscale>  0 0.17569486E+04</rscale>
<asrwt>0</asrwt>
<pdfrwt beam="1">  1        2 0.31345292E+00 0.17569486E+04</pdfrwt>
<pdfrwt beam="2">  1       -1 0.58271884E-01 0.17569486E+04</pdfrwt>
<totfact> 0.20502002E+01</totfact>
</mgrwt>
</event>
<event>
11    7  0.1497947E-008  0.2366056E+04  0.7818608E-02  0.8452322E-01
         -3   -1    0    0    0  501 -0.00000000000E+00  0.00000000000E+00  0.10335495624E+04  0.10335495624E+04  0.00000000000E+00 0.  1.
          2   -1    0    0  501    0  0.00000000000E+00 -0.00000000000E+00 -0.13541250820E+04  0.13541250820E+04  0.00000000000E+00 0. -1.
         24    2    1    2    0    0 -0.19342232488E+02 -0.72610510563E+03 -0.93947240806E+03  0.11903562521E+04  0.82078346992E+02 0.  0.
        254    2    1    2    0    0  0.19342232488E+02  0.72610510563E+03  0.61889688851E+03  0.11973183923E+04  0.72314260533E+03 0.  0.
         23    2    4    4    0    0 -0.58114102669E+02  0.77896351312E+03  0.71100416614E+03  0.10602573769E+04  0.91964000145E+02 0.  0.
          4    1    3    3  502    0 -0.37454241548E+02 -0.63957562256E+03 -0.85186328614E+03  0.10658943923E+04  0.00000000000E+00 0. -1.
         -3    1    3    3    0  502  0.18112009061E+02 -0.86529483066E+02 -0.87609121922E+02  0.12446185984E+03  0.00000000000E+00 0.  1.
         13    1    5    5    0    0 -0.44951230341E+01  0.42676479720E+03  0.43683910413E+03  0.61071826659E+03  0.00000000000E+00 0.  1.
        -13    1    5    5    0    0 -0.53618979635E+02  0.35219871593E+03  0.27416506202E+03  0.44953911032E+03  0.00000000000E+00 0. -1.
          3    1    4    4  503    0  0.66940294321E+02 -0.31427739623E+02 -0.52056102681E+02  0.90435300895E+02  0.00000000000E+00 0. -1.
         -3    1    4    4    0  503  0.10516040835E+02 -0.21430667871E+02 -0.40051174950E+02  0.46625714527E+02  0.00000000000E+00 0.  1.
<mgrwt>
<rscale>  0 0.23660561E+04</rscale>
<asrwt>0</asrwt>
<pdfrwt beam="1">  1        2 0.20832694E+00 0.23660561E+04</pdfrwt>
<pdfrwt beam="2">  1       -3 0.15900762E+00 0.23660561E+04</pdfrwt>
<totfact> 0.24281603E+00</totfact>
</mgrwt>
</event>
<event>
12    7  0.1497947E-008  0.1855642E+04  0.7818608E-02  0.8677257E-01
          2   -1    0    0  501    0  0.00000000000E+00  0.00000000000E+00  0.23964550289E+04  0.23964550289E+04  0.00000000000E+00 0. -1.
         -1   -1    0    0    0  501 -0.00000000000E+00 -0.00000000000E+00 -0.35921873191E+03  0.35921873191E+03  0.00000000000E+00 0.  1.
         24    2    1    2    0    0  0.41721359207E+03 -0.55785647176E+03  0.57838646514E+03  0.90894671531E+03  0.79888695878E+02 0.  0.
        254    2    1    2    0    0 -0.41721359207E+03  0.55785647176E+03  0.14588498318E+04  0.18467270455E+04  0.89268523239E+03 0.  0.
         23    2    4    4    0    0 -0.60517828037E+03  0.64912316507E+03  0.10102762140E+04  0.13478150224E+04  0.91354646547E+02 0.  0.
         23    2    4    4    0    0  0.18796468830E+03 -0.91266693305E+02  0.44857361780E+03  0.49891202309E+03  0.63518366176E+02 0.  0.
          2    1    3    3  502    0  0.30331552875E+03 -0.38344130775E+03  0.36003845160E+03  0.60716985523E+03  0.00000000000E+00 0. -1.
         -1    1    3    3    0  502  0.11389806332E+03 -0.17441516402E+03  0.21834801354E+03  0.30177686008E+03  0.00000000000E+00 0.  1.
         13    1    5    5    0    0 -0.12654544540E+01  0.18394323008E+02  0.15017973637E+02  0.23780076242E+02  0.00000000000E+00 0. -1.
        -13    1    5    5    0    0 -0.60391282592E+03  0.63072884206E+03  0.99525824038E+03  0.13240349461E+04  0.00000000000E+00 0.  1.
          3    1    6    6  503    0  0.49346156646E+02 -0.68115970826E+01  0.61239583001E+02  0.78941291836E+02  0.00000000000E+00 0. -1.
         -3    1    6    6    0  503  0.13861853166E+03 -0.84455096223E+02  0.38733403480E+03  0.41997073125E+03  0.00000000000E+00 0.  1.
<mgrwt>
<rscale>  0 0.18556417E+04</rscale>
<asrwt>0</asrwt>
<pdfrwt beam="1">  1        2 0.36868538E+00 0.18556417E+04</pdfrwt>
<pdfrwt beam="2">  1       -1 0.55264422E-01 0.18556417E+04</pdfrwt>
<totfact> 0.14157017E+01</totfact>
</mgrwt>
</event>
<event>
11    7  0.1497947E-008  0.1568645E+04  0.7818608E-02  0.8840046E-01
          2   -1    0    0  501    0  0.00000000000E+00  0.00000000000E+00  0.16187011914E+04  0.16187011914E+04  0.00000000000E+00 0. -1.
         -1   -1    0    0    0  501 -0.00000000000E+00 -0.00000000000E+00 -0.38003394732E+03  0.38003394732E+03  0.00000000000E+00 0.  1.
         24    2    1    2    0    0 -0.93682590275E+02 -0.20835068541E+03 -0.18445230040E+03  0.30344962618E+03  0.76632817230E+02 0.  0.
        254    2    1    2    0    0  0.93682590275E+02  0.20835068541E+03  0.14231195445E+04  0.16952855126E+04  0.89248938106E+03 0.  0.
         23    2    4    4    0    0  0.10835243404E+03 -0.11382553530E+03 -0.46294699821E+02  0.18442621809E+03  0.84695503057E+02 0.  0.
          2    1    3    3  502    0 -0.23346331754E+02 -0.32757415790E+02 -0.14410589667E+01  0.40251411734E+02  0.00000000000E+00 0. -1.
         -1    1    3    3    0  502 -0.70336258521E+02 -0.17559326962E+03 -0.18301124143E+03  0.26319821445E+03  0.00000000000E+00 0.  1.
         13    1    5    5    0    0  0.75405805660E+02 -0.71558864766E+02 -0.70516843724E+02  0.12561581072E+03  0.00000000000E+00 0.  1.
        -13    1    5    5    0    0  0.32946628377E+02 -0.42266670536E+02  0.24222143903E+02  0.58810407369E+02  0.00000000000E+00 0. -1.
          1    1    4    4  503    0 -0.33849828430E+02  0.58720214027E+02  0.14110149970E+03  0.15653596276E+03  0.00000000000E+00 0. -1.
         -1    1    4    4    0  503  0.19179984669E+02  0.26345600668E+03  0.13283127446E+04  0.13543233317E+04  0.00000000000E+00 0.  1.
<mgrwt>
<rscale>  0 0.15686445E+04</rscale>
<asrwt>0</asrwt>
<pdfrwt beam="1">  1        2 0.24903095E+00 0.15686445E+04</pdfrwt>
<pdfrwt beam="2">  1       -1 0.58466762E-01 0.15686445E+04</pdfrwt>
<totfact> 0.35340185E+01</totfact>
</mgrwt>
</event>
<event>
12    7  0.1497947E-008  0.1100779E+04  0.7818608E-02  0.9204433E-01
         -1   -1    0    0    0  501 -0.00000000000E+00  0.00000000000E+00  0.22098345235E+03  0.22098345235E+03  0.00000000000E+00 0.  1.
          2   -1    0    0  501    0  0.00000000000E+00 -0.00000000000E+00 -0.13708197105E+04  0.13708197105E+04  0.00000000000E+00 0. -1.
         24    2    1    2    0    0  0.11884562603E+03  0.13512782890E+03 -0.48145403627E+02  0.20301736511E+03  0.80710951403E+02 0.  0.
        254    2    1    2    0    0 -0.11884562603E+03 -0.13512782890E+03 -0.11016908545E+04  0.13887857977E+04  0.82620786736E+03 0.  0.
         23    2    4    4    0    0 -0.39186708371E+03 -0.28146569792E+03 -0.45885191397E+03  0.67176521181E+03  0.89110439571E+02 0.  0.
         23    2    4    4    0    0  0.27302145768E+03  0.14633786902E+03 -0.64283894054E+03  0.71702058591E+03  0.70150758336E+02 0.  0.
          4    1    3    3  502    0  0.20776188310E+02  0.76592237974E+02 -0.39044519698E+02  0.88444872305E+02  0.00000000000E+00 0. -1.
         -3    1    3    3    0  502  0.98069437718E+02  0.58535590928E+02 -0.91008839294E+01  0.11457249281E+03  0.00000000000E+00 0.  1.
         13    1    5    5    0    0 -0.18249425801E+03 -0.15334950141E+03 -0.17041250874E+03  0.29301987462E+03  0.00000000000E+00 0.  1.
        -13    1    5    5    0    0 -0.20937282570E+03 -0.12811619651E+03 -0.28843940523E+03  0.37874533719E+03  0.00000000000E+00 0. -1.
          3    1    6    6  503    0  0.38235668409E+01 -0.68250524665E+01 -0.18269491200E+02  0.19873985843E+02  0.00000000000E+00 0. -1.
         -3    1    6    6    0  503  0.26919789084E+03  0.15316292149E+03 -0.62456944933E+03  0.69714660007E+03  0.00000000000E+00 0.  1.
<mgrwt>
<rscale>  0 0.11007788E+04</rscale>
<asrwt>0</asrwt>
<pdfrwt beam="1">  1        2 0.21089534E+00 0.11007788E+04</pdfrwt>
<pdfrwt beam="2">  1       -1 0.33997454E-01 0.11007788E+04</pdfrwt>
<totfact> 0.13897145E+02</totfact>
</mgrwt>
</event>
<event>
11    7  0.1497947E-008  0.1242714E+04  0.7818608E-02  0.9076269E-01
          2   -1    0    0  501    0  0.00000000000E+00  0.00000000000E+00  0.60152462040E+03  0.60152462040E+03  0.00000000000E+00 0. -1.
         -1   -1    0    0    0  501 -0.00000000000E+00 -0.00000000000E+00 -0.64184348806E+03  0.64184348806E+03  0.00000000000E+00 0.  1.
         24    2    1    2    0    0  0.37257555619E+02 -0.60192411461E+02 -0.28354765439E+03  0.30317464270E+03  0.80649487392E+02 0.  0.
        254    2    1    2    0    0 -0.37257555619E+02  0.60192411461E+02  0.24322878674E+03  0.94019346576E+03  0.90542380050E+03 0.  0.
         23    2    4    4    0    0 -0.34408741691E+03 -0.55463172899E+02  0.40860642041E+03  0.54485581136E+03  0.91849520157E+02 0.  0.
          4    1    3    3  502    0 -0.54310473154E+01 -0.45288736243E+02 -0.61493658580E+02  0.76563933748E+02  0.00000000000E+00 0. -1.
         -3    1    3    3    0  502  0.42688602935E+02 -0.14903675218E+02 -0.22205399581E+03  0.22661070895E+03  0.00000000000E+00 0.  1.
         13    1    5    5    0    0 -0.32240006342E+03 -0.72325433713E+02  0.39231508737E+03  0.51291704693E+03  0.00000000000E+00 0. -1.
        -13    1    5    5    0    0 -0.21687353492E+02  0.16862260814E+02  0.16291333036E+02  0.31938764430E+02  0.00000000000E+00 0.  1.
          4    1    4    4  503    0  0.62758947198E+02  0.78702944893E+02 -0.46465806123E+01  0.10076919023E+03  0.00000000000E+00 0. -1.
         -4    1    4    4    0  503  0.24407091409E+03  0.36952639467E+02 -0.16073105306E+03  0.29456846417E+03  0.00000000000E+00 0.  1.
<mgrwt>
<rscale>  0 0.12427142E+04</rscale>
<asrwt>0</asrwt>
<pdfrwt beam="1">  1        2 0.92542250E-01 0.12427142E+04</pdfrwt>
<pdfrwt beam="2">  1       -1 0.98745152E-01 0.12427142E+04</pdfrwt>
<totfact> 0.54574516E+01</totfact>
</mgrwt>
</event>
<event>
11    7  0.1497947E-008  0.1396940E+04  0.7818608E-02  0.8956037E-01
         -1   -1    0    0    0  501 -0.00000000000E+00  0.00000000000E+00  0.35542772582E+03  0.35542772582E+03  0.00000000000E+00 0.  1.
          2   -1    0    0  501    0  0.00000000000E+00 -0.00000000000E+00 -0.13726004558E+04  0.13726004558E+04  0.00000000000E+00 0. -1.
         24    2    1    2    0    0  0.14481525418E+02  0.17492136098E+03  0.15175160931E+03  0.24537221097E+03  0.79823391826E+02 0.  0.
        254    2    1    2    0    0 -0.14481525418E+02 -0.17492136098E+03 -0.11689243393E+04  0.14826559707E+04  0.89502928402E+03 0.  0.
         23    2    4    4    0    0 -0.20578710084E+03 -0.42308094959E+03 -0.10360776191E+04  0.11416780155E+04  0.92876463346E+02 0.  0.
          4    1    3    3  502    0  0.19641574178E+02  0.59848764350E+02  0.11752099503E+02  0.64076344099E+02  0.00000000000E+00 0. -1.
         -1    1    3    3    0  502 -0.51600487603E+01  0.11507259663E+03  0.13999950980E+03  0.18129586687E+03  0.00000000000E+00 0.  1.
         13    1    5    5    0    0 -0.62312570555E+02 -0.16462450681E+03 -0.29092507753E+03  0.34003159475E+03  0.00000000000E+00 0. -1.
        -13    1    5    5    0    0 -0.14347453028E+03 -0.25845644278E+03 -0.74515254160E+03  0.80164642075E+03  0.00000000000E+00 0.  1.
          1    1    4    4  503    0  0.12917995291E+03  0.15183243360E+03 -0.87574069355E+02  0.21773783721E+03  0.00000000000E+00 0. -1.
         -1    1    4    4    0  503  0.62125622506E+02  0.96327155010E+02 -0.45272650830E+02  0.12324011797E+03  0.00000000000E+00 0.  1.
<mgrwt>
<rscale>  0 0.13969399E+04</rscale>
<asrwt>0</asrwt>
<pdfrwt beam="1">  1        2 0.21116930E+00 0.13969399E+04</pdfrwt>
<pdfrwt beam="2">  1       -1 0.54681189E-01 0.13969399E+04</pdfrwt>
<totfact> 0.56249635E+01</totfact>
</mgrwt>
</event>
<event>
11    7  0.1497947E-008  0.1711437E+04  0.7818608E-02  0.8754868E-01
         -1   -1    0    0    0  501 -0.00000000000E+00  0.00000000000E+00  0.28937725171E+03  0.28937725171E+03  0.00000000000E+00 0.  1.
          2   -1    0    0  501    0  0.00000000000E+00 -0.00000000000E+00 -0.25304481794E+04  0.25304481794E+04  0.00000000000E+00 0. -1.
         24    2    1    2    0    0 -0.55289299551E+02 -0.20010700428E+03  0.14330382044E+03  0.26464385570E+03  0.80004159917E+02 0.  0.
        254    2    1    2    0    0  0.55289299551E+02  0.20010700428E+03 -0.23843747482E+04  0.25551815754E+04  0.89476825155E+03 0.  0.
         23    2    4    4    0    0 -0.15206980846E+03 -0.55301874460E+02 -0.20359307058E+04  0.20443136121E+04  0.89558819176E+02 0.  0.
          2    1    3    3  502    0 -0.10123190251E+02 -0.14350069878E+03  0.64610609162E+02  0.15770054010E+03  0.00000000000E+00 0. -1.
         -1    1    3    3    0  502 -0.45166109301E+02 -0.56606305495E+02  0.78693211277E+02  0.10694331560E+03  0.00000000000E+00 0.  1.
         13    1    5    5    0    0 -0.46543706481E+02 -0.46916916666E+02 -0.11820652363E+04  0.11839112030E+04  0.00000000000E+00 0.  1.
        -13    1    5    5    0    0 -0.10552610198E+03 -0.83849577945E+01 -0.85386546947E+03  0.86040240915E+03  0.00000000000E+00 0. -1.
          4    1    4    4  503    0  0.17112879661E+03  0.79621584304E+02 -0.22160950424E+03  0.29109351433E+03  0.00000000000E+00 0. -1.
         -4    1    4    4    0  503  0.36230311398E+02  0.17578729443E+03 -0.12683453813E+03  0.21977444895E+03  0.00000000000E+00 0.  1.
<mgrwt>
<rscale>  0 0.17114370E+04</rscale>
<asrwt>0</asrwt>
<pdfrwt beam="1">  1        2 0.38929970E+00 0.17114370E+04</pdfrwt>
<pdfrwt beam="2">  1       -1 0.44519579E-01 0.17114370E+04</pdfrwt>
<totfact> 0.18109057E+01</totfact>
</mgrwt>
</event>
<event>
12    7  0.1497947E-008  0.1942938E+04  0.7818608E-02  0.8633774E-01
         -1   -1    0    0    0  501 -0.00000000000E+00  0.00000000000E+00  0.69745663752E+03  0.69745663752E+03  0.00000000000E+00 0.  1.
          2   -1    0    0  501    0  0.00000000000E+00 -0.00000000000E+00 -0.13531331272E+04  0.13531331272E+04  0.00000000000E+00 0. -1.
         24    2    1    2    0    0  0.28307511601E+03  0.68156235219E+03 -0.74021938089E+02  0.74599676795E+03  0.79832131726E+02 0.  0.
        254    2    1    2    0    0 -0.28307511601E+03 -0.68156235219E+03 -0.58165455155E+03  0.13045929967E+04  0.90497630276E+03 0.  0.
         23    2    4    4    0    0 -0.17528247478E+03 -0.44603862015E+03 -0.80856905467E+03  0.94438976055E+03  0.91726261461E+02 0.  0.
         23    2    4    4    0    0 -0.10779264123E+03 -0.23552373203E+03  0.22691450311E+03  0.36020323618E+03  0.10566691904E+03 0.  0.
          2    1    3    3  502    0  0.14144843748E+03  0.41361184735E+03 -0.16043251288E+02  0.43742405815E+03  0.00000000000E+00 0. -1.
         -1    1    3    3    0  502  0.14162667853E+03  0.26795050483E+03 -0.57978686802E+02  0.30857270980E+03  0.00000000000E+00 0.  1.
         13    1    5    5    0    0 -0.18555958572E+02 -0.11596171835E+02 -0.16123459235E+02  0.27180153375E+02  0.00000000000E+00 0.  1.
        -13    1    5    5    0    0 -0.15672651620E+03 -0.43444244832E+03 -0.79244559543E+03  0.91720960718E+03  0.00000000000E+00 0. -1.
          1    1    6    6  503    0 -0.83012926042E+02 -0.67015136197E+02  0.63437264808E+02  0.12412276558E+03  0.00000000000E+00 0.  1.
         -1    1    6    6    0  503 -0.24779715191E+02 -0.16850859584E+03  0.16347723830E+03  0.23608047060E+03  0.00000000000E+00 0. -1.
<mgrwt>
<rscale>  0 0.19429377E+04</rscale>
<asrwt>0</asrwt>
<pdfrwt beam="1">  1        2 0.20817433E+00 0.19429377E+04</pdfrwt>
<pdfrwt beam="2">  1       -1 0.10730102E+00 0.19429377E+04</pdfrwt>
<totfact> 0.13255976E+01</totfact>
</mgrwt>
</event>
<event>
12    7  0.1497947E-008  0.1800769E+04  0.7818608E-02  0.8705891E-01
          2   -1    0    0  501    0  0.00000000000E+00  0.00000000000E+00  0.22369953930E+04  0.22369953930E+04  0.00000000000E+00 0. -1.
         -1   -1    0    0    0  501 -0.00000000000E+00 -0.00000000000E+00 -0.36240218496E+03  0.36240218496E+03  0.00000000000E+00 0.  1.
         24    2    1    2    0    0  0.28137274685E+03 -0.59661158027E+03  0.52974595639E+03  0.84973680095E+03  0.79409396103E+02 0.  0.
        254    2    1    2    0    0 -0.28137274685E+03  0.59661158027E+03  0.13448472517E+04  0.17496607770E+04  0.90420280026E+03 0.  0.
         23    2    4    4    0    0 -0.26316714015E+03  0.99613812152E+02 -0.15873365645E+02  0.29713331622E+03  0.94108387756E+02 0.  0.
         23    2    4    4    0    0 -0.18205606697E+02  0.49699776812E+03  0.13607206173E+04  0.14525274608E+04  0.10458107096E+03 0.  0.
          4    1    3    3  502    0  0.11397095653E+02 -0.66240373404E+02  0.34803267885E+02  0.75689816445E+02  0.00000000000E+00 0. -1.
         -3    1    3    3    0  502  0.26997565119E+03 -0.53037120687E+03  0.49494268851E+03  0.77404698450E+03  0.00000000000E+00 0.  1.
         13    1    5    5    0    0 -0.24797780679E+03  0.63398683351E+02 -0.23840583120E+02  0.25706178073E+03  0.00000000000E+00 0. -1.
        -13    1    5    5    0    0 -0.15189333360E+02  0.36215128801E+02  0.79672174750E+01  0.40071535487E+02  0.00000000000E+00 0.  1.
          3    1    6    6  503    0  0.20238876529E+01  0.41616309823E+03  0.12194987059E+04  0.12885545833E+04  0.00000000000E+00 0. -1.
         -3    1    6    6    0  503 -0.20229494350E+02  0.80834669895E+02  0.14122191145E+03  0.16397287755E+03  0.00000000000E+00 0.  1.
<mgrwt>
<rscale>  0 0.18007687E+04</rscale>
<asrwt>0</asrwt>
<pdfrwt beam="1">  1        2 0.34415313E+00 0.18007687E+04</pdfrwt>
<pdfrwt beam="2">  1       -1 0.55754184E-01 0.18007687E+04</pdfrwt>
<totfact> 0.17220251E+01</totfact>
</mgrwt>
</event>
<event>
12    7  0.1497947E-008  0.1392490E+04  0.7818608E-02  0.8959273E-01
         -1   -1    0    0    0  501 -0.00000000000E+00  0.00000000000E+00  0.64412716942E+03  0.64412716942E+03  0.00000000000E+00 0.  1.
          2   -1    0    0  501    0  0.00000000000E+00 -0.00000000000E+00 -0.75257983734E+03  0.75257983734E+03  0.00000000000E+00 0. -1.
         24    2    1    2    0    0  0.13515082498E+03 -0.35179280778E+03 -0.18566225238E+03  0.42697607886E+03  0.76250736819E+02 0.  0.
        254    2    1    2    0    0 -0.13515082498E+03  0.35179280778E+03  0.77209584454E+02  0.96973092790E+03  0.89016449462E+03 0.  0.
         23    2    4    4    0    0 -0.37378791910E+02  0.41601566746E+03  0.41436097058E+03  0.59534149782E+03  0.90941054718E+02 0.  0.
         23    2    4    4    0    0 -0.97772033065E+02 -0.64222859685E+02 -0.33715138612E+03  0.37438943007E+03  0.11319205816E+03 0.  0.
          2    1    3    3  502    0  0.12903082478E+03 -0.30133180896E+03 -0.18445799907E+03  0.37613104931E+03  0.00000000000E+00 0. -1.
         -1    1    3    3    0  502  0.61200001992E+01 -0.50460998816E+02 -0.12042533087E+01  0.50845029550E+02  0.00000000000E+00 0.  1.
         13    1    5    5    0    0 -0.41985924871E+02  0.78751489253E+02  0.71184915337E+02  0.11415737873E+03  0.00000000000E+00 0.  1.
        -13    1    5    5    0    0  0.46071329609E+01  0.33726417821E+03  0.34317605524E+03  0.48118411909E+03  0.00000000000E+00 0. -1.
          3    1    6    6  503    0 -0.78353239362E+02 -0.64942383254E+02 -0.33985973711E+03  0.35476948032E+03  0.00000000000E+00 0. -1.
         -3    1    6    6    0  503 -0.19418793703E+02  0.71952356904E+00  0.27083509871E+01  0.19619949748E+02  0.00000000000E+00 0.  1.
<mgrwt>
<rscale>  0 0.13924900E+04</rscale>
<asrwt>0</asrwt>
<pdfrwt beam="1">  1        2 0.11578151E+00 0.13924900E+04</pdfrwt>
<pdfrwt beam="2">  1       -1 0.99096487E-01 0.13924900E+04</pdfrwt>
<totfact> 0.40417552E+01</totfact>
</mgrwt>
</event>
<event>
11    7  0.1497947E-008  0.1297359E+04  0.7818608E-02  0.9031662E-01
         -1   -1    0    0    0  501 -0.00000000000E+00  0.00000000000E+00  0.23181896700E+03  0.23181896700E+03  0.00000000000E+00 0.  1.
          2   -1    0    0  501    0  0.00000000000E+00 -0.00000000000E+00 -0.18151449768E+04  0.18151449768E+04  0.00000000000E+00 0. -1.
         24    2    1    2    0    0  0.18489973330E+03  0.20505882015E+03 -0.69621618109E+03  0.75322336460E+03  0.79946451355E+02 0.  0.
        254    2    1    2    0    0 -0.18489973330E+03 -0.20505882015E+03 -0.88710982870E+03  0.12937405792E+04  0.90031317160E+03 0.  0.
         23    2    4    4    0    0 -0.42753292301E+03  0.16707276360E+03 -0.46212507707E+03  0.65773738395E+03  0.91439437797E+02 0.  0.
          2    1    3    3  502    0  0.14863893580E+03  0.13914630664E+03 -0.58080493198E+03  0.61545885070E+03  0.00000000000E+00 0. -1.
         -1    1    3    3    0  502  0.36260797493E+02  0.65912513507E+02 -0.11541124911E+03  0.13776451391E+03  0.00000000000E+00 0.  1.
         13    1    5    5    0    0 -0.34608036180E+03  0.10479214134E+03 -0.32258567015E+03  0.48457664440E+03  0.00000000000E+00 0.  1.
        -13    1    5    5    0    0 -0.81452561219E+02  0.62280622264E+02 -0.13953940692E+03  0.17316073955E+03  0.00000000000E+00 0. -1.
          3    1    4    4  503    0  0.26999036051E+02  0.29053670717E+01  0.31744389728E+01  0.27339827510E+02  0.00000000000E+00 0. -1.
         -3    1    4    4    0  503  0.21563415367E+03 -0.37503695082E+03 -0.42815919060E+03  0.60866336772E+03  0.00000000000E+00 0.  1.
<mgrwt>
<rscale>  0 0.12973589E+04</rscale>
<asrwt>0</asrwt>
<pdfrwt beam="1">  1        2 0.27925309E+00 0.12973589E+04</pdfrwt>
<pdfrwt beam="2">  1       -1 0.35664454E-01 0.12973589E+04</pdfrwt>
<totfact> 0.70920371E+01</totfact>
</mgrwt>
</event>
<event>
12    7  0.1497947E-008  0.1380893E+04  0.7818608E-02  0.8967767E-01
          2   -1    0    0  501    0  0.00000000000E+00  0.00000000000E+00  0.65847090464E+03  0.65847090464E+03  0.00000000000E+00 0. -1.
         -1   -1    0    0    0  501 -0.00000000000E+00 -0.00000000000E+00 -0.72397453666E+03  0.72397453666E+03  0.00000000000E+00 0.  1.
         24    2    1    2    0    0 -0.20688491323E+03 -0.29946346003E+03 -0.12181863961E+03  0.39135963792E+03  0.76438563725E+02 0.  0.
        254    2    1    2    0    0  0.20688491323E+03  0.29946346003E+03  0.56315007591E+02  0.99108580338E+03  0.92010866661E+03 0.  0.
         23    2    4    4    0    0 -0.28848495777E+03  0.12687030625E+03 -0.22017334889E+03  0.39514021072E+03  0.91322708572E+02 0.  0.
         23    2    4    4    0    0  0.49536987099E+03  0.17259315378E+03  0.27648835648E+03  0.59594559267E+03  0.59377035387E+02 0.  0.
          2    1    3    3  502    0  0.77396600325E+00 -0.37725264104E+02 -0.14752650245E+02  0.40514630251E+02  0.00000000000E+00 0. -1.
         -1    1    3    3    0  502 -0.20765887923E+03 -0.26173819593E+03 -0.10706598937E+03  0.35084500767E+03  0.00000000000E+00 0.  1.
         13    1    5    5    0    0 -0.68863273328E+02  0.63553236639E+02 -0.31813468832E+02  0.98960906927E+02  0.00000000000E+00 0. -1.
        -13    1    5    5    0    0 -0.21962168444E+03  0.63317069608E+02 -0.18835988005E+03  0.29617930379E+03  0.00000000000E+00 0.  1.
          2    1    6    6  503    0  0.20701764244E+03  0.10321367785E+03  0.11838370426E+03  0.25985393784E+03  0.00000000000E+00 0. -1.
         -2    1    6    6    0  503  0.28835222855E+03  0.69379475938E+02  0.15810465221E+03  0.33609165482E+03  0.00000000000E+00 0.  1.
<mgrwt>
<rscale>  0 0.13808927E+04</rscale>
<asrwt>0</asrwt>
<pdfrwt beam="1">  1        2 0.10130322E+00 0.13808927E+04</pdfrwt>
<pdfrwt beam="2">  1       -1 0.11138070E+00 0.13808927E+04</pdfrwt>
<totfact> 0.36517715E+01</totfact>
</mgrwt>
</event>
<event>
11    7  0.1497947E-008  0.1314566E+04  0.7818608E-02  0.9018093E-01
         -1   -1    0    0    0  501 -0.00000000000E+00  0.00000000000E+00  0.41161065388E+03  0.41161065388E+03  0.00000000000E+00 0.  1.
          2   -1    0    0  501    0  0.00000000000E+00 -0.00000000000E+00 -0.10495864933E+04  0.10495864933E+04  0.00000000000E+00 0. -1.
         24    2    1    2    0    0  0.62423549147E+02  0.31240618968E+03 -0.28489328764E+03  0.43497571323E+03  0.80903392500E+02 0.  0.
        254    2    1    2    0    0 -0.62423549147E+02 -0.31240618968E+03 -0.35308255183E+03  0.10262214340E+04  0.90937825812E+03 0.  0.
         23    2    4    4    0    0 -0.35993922890E+03 -0.71782188256E+02  0.12446215384E+03  0.39760056770E+03  0.88805701649E+02 0.  0.
          4    1    3    3  502    0  0.24065167377E+02  0.41848477260E+02 -0.14161217843E+02  0.50308721119E+02  0.00000000000E+00 0. -1.
         -3    1    3    3    0  502  0.38358381770E+02  0.27055771242E+03 -0.27073206979E+03  0.38466699211E+03  0.00000000000E+00 0.  1.
         13    1    5    5    0    0 -0.13578290167E+03 -0.80043087290E+01  0.59580652156E+01  0.13614905026E+03  0.00000000000E+00 0. -1.
        -13    1    5    5    0    0 -0.22415632723E+03 -0.63777879527E+02  0.11850408862E+03  0.26145151744E+03  0.00000000000E+00 0.  1.
          1    1    4    4  503    0  0.20645626165E+03 -0.95108186580E+02 -0.33836684957E+03  0.40762958678E+03  0.00000000000E+00 0. -1.
         -1    1    4    4    0  503  0.91059418109E+02 -0.14551581484E+03 -0.13917785609E+03  0.22099127952E+03  0.00000000000E+00 0.  1.
<mgrwt>
<rscale>  0 0.13145661E+04</rscale>
<asrwt>0</asrwt>
<pdfrwt beam="1">  1        2 0.16147484E+00 0.13145661E+04</pdfrwt>
<pdfrwt beam="2">  1       -1 0.63324717E-01 0.13145661E+04</pdfrwt>
<totfact> 0.66170498E+01</totfact>
</mgrwt>
</event>
<event>
12    7  0.1497947E-008  0.2333584E+04  0.7818608E-02  0.8464796E-01
         -1   -1    0    0    0  501 -0.00000000000E+00  0.00000000000E+00  0.17898003604E+04  0.17898003604E+04  0.00000000000E+00 0.  1.
          2   -1    0    0  501    0  0.00000000000E+00 -0.00000000000E+00 -0.76064559465E+03  0.76064559465E+03  0.00000000000E+00 0. -1.
         24    2    1    2    0    0  0.50366956663E+03  0.57871581201E+03  0.11205159364E+04  0.13621264639E+04  0.10600715353E+03 0.  0.
        254    2    1    2    0    0 -0.50366956663E+03 -0.57871581201E+03 -0.91361170625E+02  0.11883194911E+04  0.90286285012E+03 0.  0.
         23    2    4    4    0    0  0.67062765939E+02 -0.31143011704E+03  0.29208920576E+03  0.44151257858E+03  0.90172726151E+02 0.  0.
         23    2    4    4    0    0 -0.57073233257E+03 -0.26728569497E+03 -0.38345037639E+03  0.74680691257E+03  0.11622966635E+03 0.  0.
          2    1    3    3  502    0  0.17278115743E+03  0.15581408295E+03  0.41156408973E+03  0.47277516513E+03  0.00000000000E+00 0. -1.
         -1    1    3    3    0  502  0.33088840920E+03  0.42290172906E+03  0.70895184667E+03  0.88935129881E+03  0.00000000000E+00 0.  1.
         13    1    5    5    0    0  0.19270288929E+02 -0.81391877928E+02  0.13524823185E+03  0.15902221872E+03  0.00000000000E+00 0.  1.
        -13    1    5    5    0    0  0.47792477011E+02 -0.23003823911E+03  0.15684097391E+03  0.28249035986E+03  0.00000000000E+00 0. -1.
          1    1    6    6  503    0 -0.38309745492E+03 -0.21592240153E+03 -0.21512814063E+03  0.48955720845E+03  0.00000000000E+00 0. -1.
         -1    1    6    6    0  503 -0.18763487765E+03 -0.51363293438E+02 -0.16832223576E+03  0.25724970413E+03  0.00000000000E+00 0.  1.
<mgrwt>
<rscale>  0 0.23335842E+04</rscale>
<asrwt>0</asrwt>
<pdfrwt beam="1">  1        2 0.11702240E+00 0.23335842E+04</pdfrwt>
<pdfrwt beam="2">  1       -1 0.27535390E+00 0.23335842E+04</pdfrwt>
<totfact> 0.18116344E+00</totfact>
</mgrwt>
</event>
<event>
11    7  0.1497947E-008  0.1664903E+04  0.7818608E-02  0.8781638E-01
          2   -1    0    0  501    0  0.00000000000E+00  0.00000000000E+00  0.86016207492E+03  0.86016207492E+03  0.00000000000E+00 0. -1.
         -1   -1    0    0    0  501 -0.00000000000E+00 -0.00000000000E+00 -0.80563399718E+03  0.80563399718E+03  0.00000000000E+00 0.  1.
         24    2    1    2    0    0 -0.31048190948E+02 -0.46532151152E+03  0.35808795938E+03  0.59642464536E+03  0.10003635189E+03 0.  0.
        254    2    1    2    0    0  0.31048190948E+02  0.46532151152E+03 -0.30355988164E+03  0.10693714267E+04  0.91319140784E+03 0.  0.
         23    2    4    4    0    0 -0.10530613150E+02  0.21499759624E+02  0.17494990445E+03  0.19862253836E+03  0.90941245873E+02 0.  0.
          2    1    3    3  502    0 -0.11676105292E+02 -0.17428971344E+03  0.19673762836E+03  0.26309490694E+03  0.00000000000E+00 0. -1.
         -1    1    3    3    0  502 -0.19372085656E+02 -0.29103179808E+03  0.16135033102E+03  0.33332973842E+03  0.00000000000E+00 0.  1.
         13    1    5    5    0    0 -0.48046579997E+02  0.28453112109E+02  0.10693920151E+03  0.12064015193E+03  0.00000000000E+00 0. -1.
        -13    1    5    5    0    0  0.37515966847E+02 -0.69533524853E+01  0.68010702946E+02  0.77982386437E+02  0.00000000000E+00 0.  1.
          4    1    4    4  503    0  0.23922234564E+02  0.19585762981E+03 -0.57206370972E+03  0.60513582975E+03  0.00000000000E+00 0. -1.
         -4    1    4    4    0  503  0.17656569533E+02  0.24796412208E+03  0.93553923627E+02  0.26561305863E+03  0.00000000000E+00 0.  1.
<mgrwt>
<rscale>  0 0.16649034E+04</rscale>
<asrwt>0</asrwt>
<pdfrwt beam="1">  1        2 0.13233263E+00 0.16649034E+04</pdfrwt>
<pdfrwt beam="2">  1       -1 0.12394369E+00 0.16649034E+04</pdfrwt>
<totfact> 0.19441280E+01</totfact>
</mgrwt>
</event>
<event>
12    7  0.1497947E-008  0.1773328E+04  0.7818608E-02  0.8720613E-01
         -1   -1    0    0    0  501 -0.00000000000E+00  0.00000000000E+00  0.27887152143E+03  0.27887152143E+03  0.00000000000E+00 0.  1.
          2   -1    0    0  501    0  0.00000000000E+00 -0.00000000000E+00 -0.28191239985E+04  0.28191239985E+04  0.00000000000E+00 0. -1.
         24    2    1    2    0    0  0.14941879508E+03  0.56282063872E+03 -0.14869417628E+04  0.15989600813E+04  0.81144857998E+02 0.  0.
        254    2    1    2    0    0 -0.14941879508E+03 -0.56282063872E+03 -0.10533107143E+04  0.14990354387E+04  0.89361666155E+03 0.  0.
         23    2    4    4    0    0 -0.82723770465E+02 -0.55268036937E+03 -0.14730138986E+03  0.58441007628E+03  0.86825255062E+02 0.  0.
         23    2    4    4    0    0 -0.66695024618E+02 -0.10140269342E+02 -0.90600932445E+03  0.91462536238E+03  0.10552538148E+03 0.  0.
          4    1    3    3  502    0  0.14310783973E+03  0.53388877717E+03 -0.14489050457E+04  0.15507555938E+04  0.00000000000E+00 0. -1.
         -3    1    3    3    0  502  0.63109553576E+01  0.28931861548E+02 -0.38036717063E+02  0.48204487500E+02  0.00000000000E+00 0.  1.
         13    1    5    5    0    0 -0.10089127006E+03 -0.48827690992E+03 -0.13191843751E+03  0.51574786795E+03  0.00000000000E+00 0.  1.
        -13    1    5    5    0    0  0.18167499591E+02 -0.64403459454E+02 -0.15382952341E+02  0.68662208337E+02  0.00000000000E+00 0. -1.
          3    1    6    6  503    0 -0.36617064517E+02 -0.52923350489E+02 -0.32793274225E+03  0.33418793198E+03  0.00000000000E+00 0. -1.
         -3    1    6    6    0  503 -0.30077960101E+02  0.42783081147E+02 -0.57807658220E+03  0.58043743039E+03  0.00000000000E+00 0.  1.
<mgrwt>
<rscale>  0 0.17733284E+04</rscale>
<asrwt>0</asrwt>
<pdfrwt beam="1">  1        2 0.43371138E+00 0.17733284E+04</pdfrwt>
<pdfrwt beam="2">  1       -1 0.42903311E-01 0.17733284E+04</pdfrwt>
<totfact> 0.13018707E+01</totfact>
</mgrwt>
</event>
<event>
11    7  0.1497947E-008  0.1273877E+04  0.7818608E-02  0.9050541E-01
         -1   -1    0    0    0  501 -0.00000000000E+00  0.00000000000E+00  0.34724682605E+03  0.34724682605E+03  0.00000000000E+00 0.  1.
          2   -1    0    0  501    0  0.00000000000E+00 -0.00000000000E+00 -0.11683067009E+04  0.11683067009E+04  0.00000000000E+00 0. -1.
         24    2    1    2    0    0 -0.15723556634E+03 -0.38031029345E+02 -0.53056062778E+03  0.56051276238E+03  0.80688255217E+02 0.  0.
        254    2    1    2    0    0  0.15723556634E+03  0.38031029345E+02 -0.29049924712E+03  0.95504076462E+03  0.89528971121E+03 0.  0.
         23    2    4    4    0    0 -0.11619010488E+03  0.31777135695E+03 -0.15699554814E+03  0.38390489758E+03  0.90865793776E+02 0.  0.
          2    1    3    3  502    0 -0.12455796179E+03 -0.58300056504E+02 -0.46044769990E+03  0.48054725759E+03  0.00000000000E+00 0. -1.
         -1    1    3    3    0  502 -0.32677604552E+02  0.20269027159E+02 -0.70112927878E+02  0.79965504793E+02  0.00000000000E+00 0.  1.
         13    1    5    5    0    0 -0.27761002375E+02  0.14323988211E+03 -0.25368203082E+02  0.14809416872E+03  0.00000000000E+00 0.  1.
        -13    1    5    5    0    0 -0.88429102505E+02  0.17453147484E+03 -0.13162734506E+03  0.23581072886E+03  0.00000000000E+00 0. -1.
          1    1    4    4  503    0  0.34950576122E+03 -0.26388345797E+03 -0.26299312592E+02  0.43872589434E+03  0.00000000000E+00 0. -1.
         -1    1    4    4    0  503 -0.76080090001E+02 -0.15856869637E+02 -0.10720438639E+03  0.13240997270E+03  0.00000000000E+00 0.  1.
<mgrwt>
<rscale>  0 0.12738772E+04</rscale>
<asrwt>0</asrwt>
<pdfrwt beam="1">  1        2 0.17973949E+00 0.12738772E+04</pdfrwt>
<pdfrwt beam="2">  1       -1 0.53422588E-01 0.12738772E+04</pdfrwt>
<totfact> 0.78308401E+01</totfact>
</mgrwt>
</event>
<event>
12    7  0.1497947E-008  0.1488856E+04  0.7818608E-02  0.8891898E-01
         -1   -1    0    0    0  501 -0.00000000000E+00  0.00000000000E+00  0.32658190708E+03  0.32658190708E+03  0.00000000000E+00 0.  1.
          2   -1    0    0  501    0  0.00000000000E+00 -0.00000000000E+00 -0.16968883771E+04  0.16968883771E+04  0.00000000000E+00 0. -1.
         24    2    1    2    0    0 -0.11088243277E+03  0.31594506212E+03 -0.86046776063E+03  0.92681172865E+03  0.80368010463E+02 0.  0.
        254    2    1    2    0    0  0.11088243277E+03 -0.31594506212E+03 -0.50983870944E+03  0.10966585556E+04  0.91137713472E+03 0.  0.
         23    2    4    4    0    0 -0.73587593889E+02 -0.35980462275E+01  0.23247482454E+03  0.26077513420E+03  0.92363665262E+02 0.  0.
         23    2    4    4    0    0  0.18447002666E+03 -0.31234701589E+03 -0.74231353398E+03  0.83588342137E+03  0.12681428279E+03 0.  0.
          2    1    3    3  502    0 -0.44093213310E+02  0.14790057257E+03 -0.29201791712E+03  0.33029268043E+03  0.00000000000E+00 0. -1.
         -1    1    3    3    0  502 -0.66789219459E+02  0.16804448955E+03 -0.56844984351E+03  0.59651904822E+03  0.00000000000E+00 0.  1.
         13    1    5    5    0    0 -0.11776972446E+02  0.23355065518E+02  0.95017429693E+01  0.27828749250E+02  0.00000000000E+00 0. -1.
        -13    1    5    5    0    0 -0.61810621443E+02 -0.26953111745E+02  0.22297308157E+03  0.23294638495E+03  0.00000000000E+00 0.  1.
          2    1    6    6  503    0  0.16164827299E+02 -0.11305435168E+03 -0.31704819597E+03  0.33698983166E+03  0.00000000000E+00 0. -1.
         -2    1    6    6    0  503  0.16830519936E+03 -0.19929266421E+03 -0.42526533801E+03  0.49889358971E+03  0.00000000000E+00 0.  1.
<mgrwt>
<rscale>  0 0.14888560E+04</rscale>
<asrwt>0</asrwt>
<pdfrwt beam="1">  1        2 0.26105975E+00 0.14888560E+04</pdfrwt>
<pdfrwt beam="2">  1       -1 0.50243370E-01 0.14888560E+04</pdfrwt>
<totfact> 0.43135220E+01</totfact>
</mgrwt>
</event>
<event>
11    7  0.1497947E-008  0.3321767E+04  0.7818608E-02  0.8157379E-01
         -1   -1    0    0    0  501 -0.00000000000E+00  0.00000000000E+00  0.99706161379E+03  0.99706161379E+03  0.00000000000E+00 0.  1.
          2   -1    0    0  501    0  0.00000000000E+00 -0.00000000000E+00 -0.27666627603E+04  0.27666627603E+04  0.00000000000E+00 0. -1.
         24    2    1    2    0    0 -0.11231618317E+04 -0.86038691878E+03 -0.15033250460E+04  0.20659598126E+04  0.80284512589E+02 0.  0.
        254    2    1    2    0    0  0.11231618317E+04  0.86038691878E+03 -0.26627610053E+03  0.16977645615E+04  0.89985743007E+03 0.  0.
         23    2    4    4    0    0  0.10005064372E+04  0.28191699404E+03 -0.31491462297E+03  0.10898629384E+04  0.90220187625E+02 0.  0.
          4    1    3    3  502    0 -0.10878295383E+04 -0.84743944828E+03 -0.14719166447E+04  0.20169445535E+04  0.00000000000E+00 0. -1.
         -3    1    3    3    0  502 -0.35332293394E+02 -0.12947470493E+02 -0.31408401316E+02  0.49015259072E+02  0.00000000000E+00 0.  1.
         13    1    5    5    0    0  0.25885111363E+03  0.40227549195E+02 -0.10363730432E+03  0.28171412032E+03  0.00000000000E+00 0. -1.
        -13    1    5    5    0    0  0.74165532359E+03  0.24168944485E+03 -0.21127731864E+03  0.80814881806E+03  0.00000000000E+00 0.  1.
          4    1    4    4  503    0  0.10242051424E+02  0.44972021473E+02  0.42403580699E+02  0.62653379708E+02  0.00000000000E+00 0. -1.
         -4    1    4    4    0  503  0.11241334309E+03  0.53349790326E+03  0.62349417343E+01  0.54524824345E+03  0.00000000000E+00 0.  1.
<mgrwt>
<rscale>  0 0.33217665E+04</rscale>
<asrwt>0</asrwt>
<pdfrwt beam="1">  1        2 0.42564043E+00 0.33217665E+04</pdfrwt>
<pdfrwt beam="2">  1       -1 0.15339409E+00 0.33217665E+04</pdfrwt>
<totfact> 0.75292965E-01</totfact>
</mgrwt>
</event>
<event>
12    7  0.1497947E-008  0.1823546E+04  0.7818608E-02  0.8693877E-01
         -1   -1    0    0    0  501 -0.00000000000E+00  0.00000000000E+00  0.21681570373E+03  0.21681570373E+03  0.00000000000E+00 0.  1.
          2   -1    0    0  501    0  0.00000000000E+00 -0.00000000000E+00 -0.38342699265E+04  0.38342699265E+04  0.00000000000E+00 0. -1.
         24    2    1    2    0    0  0.44645096653E+03 -0.18721614747E+02 -0.23861128338E+04  0.24289433726E+04  0.81009178619E+02 0.  0.
        254    2    1    2    0    0 -0.44645096653E+03  0.18721614747E+02 -0.12313413889E+04  0.16221422576E+04  0.95680453780E+03 0.  0.
         23    2    4    4    0    0 -0.61398823255E+03 -0.97024380259E+02 -0.12368729347E+04  0.13875812780E+04  0.95560799121E+02 0.  0.
         23    2    4    4    0    0  0.16753726603E+03  0.11574599501E+03  0.55315458236E+01  0.23456097962E+03  0.11628578714E+03 0.  0.
          2    1    3    3  502    0  0.42725535632E+03 -0.47199208593E+01 -0.23108031207E+04  0.23499745701E+04  0.00000000000E+00 0. -1.
         -1    1    3    3    0  502  0.19195610203E+02 -0.14001693888E+02 -0.75309713123E+02  0.78968802533E+02  0.00000000000E+00 0.  1.
         13    1    5    5    0    0 -0.22685534360E+03  0.94478033954E+01 -0.46921940659E+03  0.52126716704E+03  0.00000000000E+00 0.  1.
        -13    1    5    5    0    0 -0.38713288896E+03 -0.10647218365E+03 -0.76765352814E+03  0.86631411097E+03  0.00000000000E+00 0. -1.
          1    1    6    6  503    0  0.11588837789E+03  0.12749030254E+03  0.32177159194E+02  0.17526911578E+03  0.00000000000E+00 0. -1.
         -1    1    6    6    0  503  0.51648888132E+02 -0.11744307537E+02 -0.26645613371E+02  0.59291863832E+02  0.00000000000E+00 0.  1.
<mgrwt>
<rscale>  0 0.18235459E+04</rscale>
<asrwt>0</asrwt>
<pdfrwt beam="1">  1        2 0.58988772E+00 0.18235459E+04</pdfrwt>
<pdfrwt beam="2">  1       -1 0.33356260E-01 0.18235459E+04</pdfrwt>
<totfact> 0.42442869E+00</totfact>
</mgrwt>
</event>
<event>
12    7  0.1497947E-008  0.2097918E+04  0.7818608E-02  0.8562161E-01
         -1   -1    0    0    0  501 -0.00000000000E+00  0.00000000000E+00  0.90666906890E+03  0.90666906890E+03  0.00000000000E+00 0.  1.
          2   -1    0    0  501    0  0.00000000000E+00 -0.00000000000E+00 -0.12135799868E+04  0.12135799868E+04  0.00000000000E+00 0. -1.
         24    2    1    2    0    0  0.53899785073E+03 -0.54474979177E+03  0.26520720832E+03  0.81503488245E+03  0.81706655397E+02 0.  0.
        254    2    1    2    0    0 -0.53899785073E+03  0.54474979177E+03 -0.57211812621E+03  0.13052141732E+04  0.88825326847E+03 0.  0.
         23    2    4    4    0    0 -0.67711681688E+03  0.65198346375E+03 -0.59351797423E+03  0.11152247958E+04  0.88843337824E+02 0.  0.
         23    2    4    4    0    0  0.13811896615E+03 -0.10723367197E+03  0.21399848021E+02  0.18998937746E+03  0.71148442284E+02 0.  0.
          2    1    3    3  502    0  0.29997199372E+03 -0.25088355349E+03  0.11591121685E+03  0.40787395678E+03  0.00000000000E+00 0. -1.
         -1    1    3    3    0  502  0.23902585701E+03 -0.29386623828E+03  0.14929599147E+03  0.40716092567E+03  0.00000000000E+00 0.  1.
         13    1    5    5    0    0 -0.51420818631E+03  0.48057178153E+03 -0.39917056058E+03  0.80913313645E+03  0.00000000000E+00 0. -1.
        -13    1    5    5    0    0 -0.16290863056E+03  0.17141168222E+03 -0.19434741364E+03  0.30609165932E+03  0.00000000000E+00 0.  1.
          3    1    6    6  503    0  0.40128112647E+02 -0.39375850287E+02 -0.25715624878E+02  0.61822458486E+02  0.00000000000E+00 0. -1.
         -3    1    6    6    0  503  0.97990853502E+02 -0.67857821684E+02  0.47115472899E+02  0.12816691898E+03  0.00000000000E+00 0.  1.
<mgrwt>
<rscale>  0 0.20979184E+04</rscale>
<asrwt>0</asrwt>
<pdfrwt beam="1">  1        2 0.18670461E+00 0.20979184E+04</pdfrwt>
<pdfrwt beam="2">  1       -1 0.13948755E+00 0.20979184E+04</pdfrwt>
<totfact> 0.82676197E+00</totfact>
</mgrwt>
</event>
<event>
11    7  0.1497947E-008  0.2811144E+04  0.7818608E-02  0.8299817E-01
         -1   -1    0    0    0  501 -0.00000000000E+00  0.00000000000E+00  0.58000545336E+03  0.58000545336E+03  0.00000000000E+00 0.  1.
          2   -1    0    0  501    0  0.00000000000E+00 -0.00000000000E+00 -0.34062304368E+04  0.34062304368E+04  0.00000000000E+00 0. -1.
         24    2    1    2    0    0  0.22913782771E+03  0.10362877586E+04 -0.30787880618E+03  0.11080711442E+04  0.81460656853E+02 0.  0.
        254    2    1    2    0    0 -0.22913782771E+03 -0.10362877586E+04 -0.25183461772E+04  0.28781647459E+04  0.90297750440E+03 0.  0.
         23    2    4    4    0    0 -0.88748304548E+02 -0.10368300393E+04 -0.21709476202E+04  0.24091728822E+04  0.90595888811E+02 0.  0.
          4    1    3    3  502    0  0.46736946594E+02  0.35210306203E+03 -0.78485922363E+02  0.36375946513E+03  0.00000000000E+00 0. -1.
         -3    1    3    3    0  502  0.18240088112E+03  0.68418469659E+03 -0.22939288381E+03  0.74431167908E+03  0.00000000000E+00 0.  1.
         13    1    5    5    0    0  0.13496783422E+02 -0.74486146099E+02 -0.18817473104E+03  0.20283017164E+03  0.00000000000E+00 0. -1.
        -13    1    5    5    0    0 -0.10224508797E+03 -0.96234389318E+03 -0.19827728891E+04  0.22063427106E+04  0.00000000000E+00 0.  1.
          2    1    4    4  503    0 -0.65027434013E+02  0.19374376411E+02  0.36683215567E+02  0.77133597997E+02  0.00000000000E+00 0. -1.
         -2    1    4    4    0  503 -0.75362089152E+02 -0.18832095751E+02 -0.38408177262E+03  0.39185826567E+03  0.00000000000E+00 0.  1.
<mgrwt>
<rscale>  0 0.28111437E+04</rscale>
<asrwt>0</asrwt>
<pdfrwt beam="1">  1        2 0.52403545E+00 0.28111437E+04</pdfrwt>
<pdfrwt beam="2">  1       -1 0.89231608E-01 0.28111437E+04</pdfrwt>
<totfact> 0.11479357E+00</totfact>
</mgrwt>
</event>
<event>
12    7  0.1497947E-008  0.1412915E+04  0.7818608E-02  0.8944523E-01
         -1   -1    0    0    0  501 -0.00000000000E+00  0.00000000000E+00  0.42924009195E+03  0.42924009195E+03  0.00000000000E+00 0.  1.
          2   -1    0    0  501    0  0.00000000000E+00 -0.00000000000E+00 -0.11627115125E+04  0.11627115125E+04  0.00000000000E+00 0. -1.
         24    2    1    2    0    0 -0.38739866845E+03  0.76533882730E+02 -0.77667790638E+02  0.41043447516E+03  0.80554386441E+02 0.  0.
        254    2    1    2    0    0  0.38739866845E+03 -0.76533882730E+02 -0.65580362987E+03  0.11815171292E+04  0.89998286774E+03 0.  0.
         23    2    4    4    0    0  0.15653318923E+03 -0.31633524098E+03  0.74426043247E+02  0.37203285122E+03  0.91096555680E+02 0.  0.
         23    2    4    4    0    0  0.23086547922E+03  0.23980135825E+03 -0.73022967311E+03  0.80948427803E+03  0.10595215884E+03 0.  0.
          2    1    3    3  502    0 -0.17622271775E+03  0.30470803428E+02  0.52998256654E+01  0.17891619341E+03  0.00000000000E+00 0. -1.
         -3    1    3    3    0  502 -0.21117595070E+03  0.46063079302E+02 -0.82967616303E+02  0.23151828175E+03  0.00000000000E+00 0.  1.
         13    1    5    5    0    0  0.16556475852E+03 -0.30856469384E+03  0.63541475942E+02  0.35589517939E+03  0.00000000000E+00 0.  1.
        -13    1    5    5    0    0 -0.90315692878E+01 -0.77705471371E+01  0.10884567305E+02  0.16137671828E+02  0.00000000000E+00 0. -1.
          3    1    6    6  503    0  0.25017977731E+02 -0.80800599160E+01 -0.41755024805E+02  0.49342361865E+02  0.00000000000E+00 0. -1.
         -3    1    6    6    0  503  0.20584750149E+03  0.24788141817E+03 -0.68847464831E+03  0.76014191616E+03  0.00000000000E+00 0.  1.
<mgrwt>
<rscale>  0 0.14129153E+04</rscale>
<asrwt>0</asrwt>
<pdfrwt beam="1">  1        2 0.17887869E+00 0.14129153E+04</pdfrwt>
<pdfrwt beam="2">  1       -1 0.66036937E-01 0.14129153E+04</pdfrwt>
<totfact> 0.51402455E+01</totfact>
</mgrwt>
</event>
<event>
11    7  0.1497947E-008  0.1910964E+04  0.7818608E-02  0.8649418E-01
         -1   -1    0    0    0  501 -0.00000000000E+00  0.00000000000E+00  0.40102315543E+03  0.40102315543E+03  0.00000000000E+00 0.  1.
          2   -1    0    0  501    0  0.00000000000E+00 -0.00000000000E+00 -0.22765410855E+04  0.22765410855E+04  0.00000000000E+00 0. -1.
         24    2    1    2    0    0  0.11629723276E+03  0.11900330755E+03 -0.17398271403E+04  0.17496406436E+04  0.80975736935E+02 0.  0.
        254    2    1    2    0    0 -0.11629723276E+03 -0.11900330755E+03 -0.13569078976E+03  0.92792359734E+03  0.90274214398E+03 0.  0.
         23    2    4    4    0    0 -0.40892985671E+03  0.13115239543E+02 -0.27450990364E+03  0.50086815023E+03  0.90097610947E+02 0.  0.
          2    1    3    3  502    0  0.11572857129E+03  0.12715118753E+03 -0.17127639043E+04  0.17213717549E+04  0.00000000000E+00 0. -1.
         -1    1    3    3    0  502  0.56866147231E+00 -0.81478799806E+01 -0.27063236007E+02  0.28268888680E+02  0.00000000000E+00 0.  1.
         13    1    5    5    0    0 -0.18832855683E+03  0.16288812855E+02 -0.74844538158E+02  0.20330931025E+03  0.00000000000E+00 0.  1.
        -13    1    5    5    0    0 -0.22060129989E+03 -0.31735733122E+01 -0.19966536548E+03  0.29755883998E+03  0.00000000000E+00 0. -1.
          3    1    4    4  503    0  0.65789353258E+01 -0.21701494955E+02  0.11752451567E+03  0.11969230993E+03  0.00000000000E+00 0. -1.
         -3    1    4    4    0  503  0.28605368863E+03 -0.11041705214E+03  0.21294598215E+02  0.30736313717E+03  0.00000000000E+00 0.  1.
<mgrwt>
<rscale>  0 0.19109638E+04</rscale>
<asrwt>0</asrwt>
<pdfrwt beam="1">  1        2 0.35023709E+00 0.19109638E+04</pdfrwt>
<pdfrwt beam="2">  1       -1 0.61695869E-01 0.19109638E+04</pdfrwt>
<totfact> 0.13274047E+01</totfact>
</mgrwt>
</event>
<event>
11    7  0.1497947E-008  0.1347663E+04  0.7818608E-02  0.8992599E-01
         -1   -1    0    0    0  501 -0.00000000000E+00  0.00000000000E+00  0.44082841107E+03  0.44082841107E+03  0.00000000000E+00 0.  1.
          2   -1    0    0  501    0  0.00000000000E+00 -0.00000000000E+00 -0.10299906895E+04  0.10299906895E+04  0.00000000000E+00 0. -1.
         24    2    1    2    0    0  0.28175890491E+02  0.20087852951E+03 -0.50417180002E+03  0.54915945559E+03  0.78998982939E+02 0.  0.
        254    2    1    2    0    0 -0.28175890491E+02 -0.20087852951E+03 -0.84990478440E+02  0.92165964502E+03  0.89503466715E+03 0.  0.
         23    2    4    4    0    0 -0.33083759078E+03  0.62662865390E+02 -0.22584333998E+03  0.41522001851E+03  0.89567312043E+02 0.  0.
          2    1    3    3  502    0  0.55286794062E+02  0.15263891198E+03 -0.37416914947E+03  0.40786985603E+03  0.00000000000E+00 0. -1.
         -1    1    3    3    0  502 -0.27110903572E+02  0.48239617530E+02 -0.13000265056E+03  0.14128959956E+03  0.00000000000E+00 0.  1.
         13    1    5    5    0    0 -0.22147991849E+03  0.81881230034E+02 -0.13682787484E+03  0.27290979729E+03  0.00000000000E+00 0. -1.
        -13    1    5    5    0    0 -0.10935767229E+03 -0.19218364643E+02 -0.89015465147E+02  0.14231022122E+03  0.00000000000E+00 0.  1.
          1    1    4    4  503    0  0.29307843172E+03 -0.31290321079E+03  0.96633461192E+02  0.43947856863E+03  0.00000000000E+00 0. -1.
         -1    1    4    4    0  503  0.95832685711E+01  0.49361815887E+02  0.44219400353E+02  0.66961057875E+02  0.00000000000E+00 0.  1.
<mgrwt>
<rscale>  0 0.13476634E+04</rscale>
<asrwt>0</asrwt>
<pdfrwt beam="1">  1        2 0.15846010E+00 0.13476634E+04</pdfrwt>
<pdfrwt beam="2">  1       -1 0.67819756E-01 0.13476634E+04</pdfrwt>
<totfact> 0.59135353E+01</totfact>
</mgrwt>
</event>
<event>
11    7  0.1497947E-008  0.1155485E+04  0.7818608E-02  0.9152738E-01
          2   -1    0    0  501    0  0.00000000000E+00  0.00000000000E+00  0.11182714302E+04  0.11182714302E+04  0.00000000000E+00 0. -1.
         -1   -1    0    0    0  501 -0.00000000000E+00 -0.00000000000E+00 -0.29848426670E+03  0.29848426670E+03  0.00000000000E+00 0.  1.
         24    2    1    2    0    0  0.22186995481E+02 -0.94348705680E+02 -0.84671188966E+02  0.15116853588E+03  0.79301796737E+02 0.  0.
        254    2    1    2    0    0 -0.22186995481E+02  0.94348705680E+02  0.90445835251E+03  0.12655871611E+04  0.87992727530E+03 0.  0.
         23    2    4    4    0    0  0.28847872421E+03  0.11294147883E+03  0.51047658505E+02  0.32691996443E+03  0.91077152706E+02 0.  0.
          4    1    3    3  502    0 -0.71943097044E+01  0.95000416759E+01 -0.25358483544E+02  0.28018950223E+02  0.00000000000E+00 0. -1.
         -3    1    3    3    0  502  0.29381305186E+02 -0.10384874736E+03 -0.59312705422E+02  0.12314958565E+03  0.00000000000E+00 0.  1.
         13    1    5    5    0    0  0.16514334731E+03  0.10762239320E+03  0.12165665734E+02  0.19749153931E+03  0.00000000000E+00 0.  1.
        -13    1    5    5    0    0  0.12333537690E+03  0.53190856303E+01  0.38881992771E+02  0.12942842512E+03  0.00000000000E+00 0. -1.
          4    1    4    4  503    0 -0.33496745495E+03  0.30041716936E+02  0.72396604313E+03  0.79826845875E+03  0.00000000000E+00 0. -1.
         -4    1    4    4    0  503  0.24301735260E+02 -0.48634490084E+02  0.12944465088E+03  0.14039873790E+03  0.00000000000E+00 0.  1.
<mgrwt>
<rscale>  0 0.11554851E+04</rscale>
<asrwt>0</asrwt>
<pdfrwt beam="1">  1        2 0.17204176E+00 0.11554851E+04</pdfrwt>
<pdfrwt beam="2">  1       -1 0.45920657E-01 0.11554851E+04</pdfrwt>
<totfact> 0.11287734E+02</totfact>
</mgrwt>
</event>
<event>
11    7  0.1497947E-008  0.2785174E+04  0.7818608E-02  0.8307886E-01
         -1   -1    0    0    0  501 -0.00000000000E+00  0.00000000000E+00  0.63665125482E+03  0.63665125482E+03  0.00000000000E+00 0.  1.
          2   -1    0    0  501    0  0.00000000000E+00 -0.00000000000E+00 -0.30460923316E+04  0.30460923316E+04  0.00000000000E+00 0. -1.
         24    2    1    2    0    0  0.23213809763E+03 -0.17366944134E+03  0.52212044859E+03  0.60267123171E+03  0.80954798924E+02 0.  0.
        254    2    1    2    0    0 -0.23213809763E+03  0.17366944134E+03 -0.29315615254E+04  0.30800723547E+04  0.89930170796E+03 0.  0.
         23    2    4    4    0    0 -0.40982342388E+03 -0.17023037279E+03 -0.93887558205E+03  0.10426637202E+04  0.93416573427E+02 0.  0.
          2    1    3    3  502    0  0.32500309576E+02 -0.22456002292E+01  0.28456978449E+02  0.43256357514E+02  0.00000000000E+00 0. -1.
         -1    1    3    3    0  502  0.19963778805E+03 -0.17142384111E+03  0.49366347014E+03  0.55941487420E+03  0.00000000000E+00 0.  1.
         13    1    5    5    0    0 -0.32998678889E+02  0.42794094084E-01 -0.32018118640E+02  0.45979066553E+02  0.00000000000E+00 0. -1.
        -13    1    5    5    0    0 -0.37682474499E+03 -0.17027316689E+03 -0.90685746341E+03  0.99668465360E+03  0.00000000000E+00 0.  1.
          4    1    4    4  503    0  0.52583784782E+02  0.25999986318E+03 -0.10629190174E+04  0.10955189733E+04  0.00000000000E+00 0. -1.
         -4    1    4    4    0  503  0.12510154147E+03  0.83899950949E+02 -0.92976692594E+03  0.94188966128E+03  0.00000000000E+00 0.  1.
<mgrwt>
<rscale>  0 0.27851740E+04</rscale>
<asrwt>0</asrwt>
<pdfrwt beam="1">  1        2 0.46862958E+00 0.27851740E+04</pdfrwt>
<pdfrwt beam="2">  1       -1 0.97946348E-01 0.27851740E+04</pdfrwt>
<totfact> 0.16108347E+00</totfact>
</mgrwt>
</event>
<event>
12    7  0.1497947E-008  0.2159782E+04  0.7818608E-02  0.8535357E-01
          2   -1    0    0  501    0  0.00000000000E+00  0.00000000000E+00  0.11716668355E+04  0.11716668355E+04  0.00000000000E+00 0. -1.
         -1   -1    0    0    0  501 -0.00000000000E+00 -0.00000000000E+00 -0.99530396284E+03  0.99530396284E+03  0.00000000000E+00 0.  1.
         24    2    1    2    0    0 -0.46448274886E+03  0.27661885054E+03 -0.63859330630E+03  0.84077495904E+03  0.82697693072E+02 0.  0.
        254    2    1    2    0    0  0.46448274886E+03 -0.27661885054E+03  0.81495617891E+03  0.13261958392E+04  0.89575645018E+03 0.  0.
         23    2    4    4    0    0  0.55208108209E+03 -0.37586371501E+03  0.22265956426E+03  0.71003921054E+03  0.92256953613E+02 0.  0.
         23    2    4    4    0    0 -0.87598333226E+02  0.99244864478E+02  0.59229661465E+03  0.61615662871E+03  0.10635177601E+03 0.  0.
          4    1    3    3  502    0 -0.99281278952E+01  0.16613197553E+02 -0.46309704344E+02  0.50191182223E+02  0.00000000000E+00 0. -1.
         -3    1    3    3    0  502 -0.45455462096E+03  0.26000565298E+03 -0.59228360196E+03  0.79058377682E+03  0.00000000000E+00 0.  1.
         13    1    5    5    0    0  0.50299896188E+03 -0.36524983832E+03  0.22118273006E+03  0.65980087915E+03  0.00000000000E+00 0. -1.
        -13    1    5    5    0    0  0.49082120204E+02 -0.10613876696E+02  0.14768342012E+01  0.50238331396E+02  0.00000000000E+00 0.  1.
          3    1    6    6  503    0 -0.69881612920E+01  0.55950191689E+02  0.39093621683E+03  0.39498149828E+03  0.00000000000E+00 0.  1.
         -3    1    6    6    0  503 -0.80610171934E+02  0.43294672789E+02  0.20136039782E+03  0.22117513043E+03  0.00000000000E+00 0. -1.
<mgrwt>
<rscale>  0 0.21597821E+04</rscale>
<asrwt>0</asrwt>
<pdfrwt beam="1">  1        2 0.18025643E+00 0.21597821E+04</pdfrwt>
<pdfrwt beam="2">  1       -1 0.15312369E+00 0.21597821E+04</pdfrwt>
<totfact> 0.67953654E+00</totfact>
</mgrwt>
</event>
<event>
12    7  0.1497947E-008  0.1226699E+04  0.7818608E-02  0.9089803E-01
          2   -1    0    0  501    0  0.00000000000E+00  0.00000000000E+00  0.26062245503E+04  0.26062245503E+04  0.00000000000E+00 0. -1.
         -1   -1    0    0    0  501 -0.00000000000E+00 -0.00000000000E+00 -0.14434577030E+03  0.14434577030E+03  0.00000000000E+00 0.  1.
         24    2    1    2    0    0  0.76991031507E+02  0.17792351929E+03  0.13792820907E+03  0.25038341580E+03  0.77995297277E+02 0.  0.
        254    2    1    2    0    0 -0.76991031507E+02 -0.17792351929E+03  0.23239505709E+04  0.25001869048E+04  0.90144545326E+03 0.  0.
         23    2    4    4    0    0  0.28472237919E+02 -0.65278646780E+02  0.23294895224E+04  0.23325963892E+04  0.97018091264E+02 0.  0.
         23    2    4    4    0    0 -0.10546326943E+03 -0.11264487251E+03 -0.55389514480E+01  0.16759051560E+03  0.65150076240E+02 0.  0.
          2    1    3    3  502    0 -0.12828284368E+02  0.12362279775E+02  0.16386493202E+01  0.17890668312E+02  0.00000000000E+00 0. -1.
         -3    1    3    3    0  502  0.89819315874E+02  0.16556123952E+03  0.13628955975E+03  0.23249274748E+03  0.00000000000E+00 0.  1.
         13    1    5    5    0    0  0.16550495705E+02 -0.12387770105E+02  0.85927826195E+02  0.88379675667E+02  0.00000000000E+00 0.  1.
        -13    1    5    5    0    0  0.11921742214E+02 -0.52890876675E+02  0.22435616962E+04  0.22442167136E+04  0.00000000000E+00 0. -1.
          3    1    6    6  503    0 -0.41199629180E+02 -0.87967255919E+02  0.78782033496E+01  0.97456213997E+02  0.00000000000E+00 0. -1.
         -3    1    6    6    0  503 -0.64263640246E+02 -0.24677616594E+02 -0.13417154798E+02  0.70134301602E+02  0.00000000000E+00 0.  1.
<mgrwt>
<rscale>  0 0.12266988E+04</rscale>
<asrwt>0</asrwt>
<pdfrwt beam="1">  1        2 0.40095759E+00 0.12266988E+04</pdfrwt>
<pdfrwt beam="2">  1       -1 0.22207044E-01 0.12266988E+04</pdfrwt>
<totfact> 0.58473901E+01</totfact>
</mgrwt>
</event>
<event>
12    7  0.1497947E-008  0.3387536E+04  0.7818608E-02  0.8140972E-01
          2   -1    0    0  501    0  0.00000000000E+00  0.00000000000E+00  0.28047209412E+04  0.28047209412E+04  0.00000000000E+00 0. -1.
         -1   -1    0    0    0  501 -0.00000000000E+00 -0.00000000000E+00 -0.10228646198E+04  0.10228646198E+04  0.00000000000E+00 0.  1.
         24    2    1    2    0    0  0.96548505707E+02  0.71008978727E+03 -0.74874312518E+03  0.10395354716E+04  0.80427664978E+02 0.  0.
        254    2    1    2    0    0 -0.96548505707E+02 -0.71008978727E+03  0.25305994466E+04  0.27880500894E+04  0.92506249605E+03 0.  0.
         23    2    4    4    0    0  0.40502300324E+03 -0.28883743332E+03  0.11382564544E+04  0.12456957528E+04  0.93056201079E+02 0.  0.
         23    2    4    4    0    0 -0.50157150894E+03 -0.42125235395E+03  0.13923429922E+04  0.15423543365E+04  0.10587902143E+03 0.  0.
          4    1    3    3  502    0  0.32602340187E+02  0.11444168310E+03 -0.90523133307E+02  0.14951337425E+03  0.00000000000E+00 0. -1.
         -3    1    3    3    0  502  0.63946165520E+02  0.59564810417E+03 -0.65821999187E+03  0.89002209736E+03  0.00000000000E+00 0.  1.
         13    1    5    5    0    0  0.29399910744E+03 -0.25331682205E+03  0.83386534369E+03  0.91974795401E+03  0.00000000000E+00 0.  1.
        -13    1    5    5    0    0  0.11102389580E+03 -0.35520611278E+02  0.30439111073E+03  0.32594779882E+03  0.00000000000E+00 0. -1.
          3    1    6    6  503    0 -0.18990761382E+03 -0.13734053799E+03  0.39069895967E+03  0.45560180228E+03  0.00000000000E+00 0. -1.
         -3    1    6    6    0  503 -0.31166389513E+03 -0.28391181595E+03  0.10016440326E+04  0.10867525343E+04  0.00000000000E+00 0.  1.
<mgrwt>
<rscale>  0 0.33875359E+04</rscale>
<asrwt>0</asrwt>
<pdfrwt beam="1">  1        2 0.43149553E+00 0.33875359E+04</pdfrwt>
<pdfrwt beam="2">  1       -1 0.15736379E+00 0.33875359E+04</pdfrwt>
<totfact> 0.66202634E-01</totfact>
</mgrwt>
</event>
<event>
12    7  0.1497947E-008  0.2457401E+04  0.7818608E-02  0.8418321E-01
         -3   -1    0    0    0  501 -0.00000000000E+00  0.00000000000E+00  0.88326692686E+03  0.88326692686E+03  0.00000000000E+00 0.  1.
          2   -1    0    0  501    0  0.00000000000E+00 -0.00000000000E+00 -0.17092283917E+04  0.17092283917E+04  0.00000000000E+00 0. -1.
         24    2    1    2    0    0 -0.82349213653E+03  0.44569135449E+03  0.17656854703E+03  0.95618999054E+03  0.79641470467E+02 0.  0.
        254    2    1    2    0    0  0.82349213653E+03 -0.44569135449E+03 -0.10025300119E+04  0.16363053280E+04  0.89199137853E+03 0.  0.
         23    2    4    4    0    0 -0.12640241863E+03 -0.27675202898E+03 -0.21619515795E+03  0.38517971123E+03  0.95151493110E+02 0.  0.
         23    2    4    4    0    0  0.94989455516E+03 -0.16893932551E+03 -0.78633485392E+03  0.12511256168E+04  0.12709305582E+03 0.  0.
          4    1    3    3  502    0 -0.47708441303E+03  0.24710847282E+03  0.62376184316E+02  0.54089086040E+03  0.00000000000E+00 0. -1.
         -3    1    3    3    0  502 -0.34640772349E+03  0.19858288168E+03  0.11419236272E+03  0.41529913014E+03  0.00000000000E+00 0.  1.
         13    1    5    5    0    0 -0.94218316638E+02 -0.26874480362E+03 -0.20175570575E+03  0.34900748627E+03  0.00000000000E+00 0.  1.
        -13    1    5    5    0    0 -0.32184101996E+02 -0.80072253578E+01 -0.14439452192E+02  0.36172224963E+02  0.00000000000E+00 0. -1.
          1    1    6    6  503    0  0.29545105079E+03 -0.14749658438E+02 -0.18367712463E+03  0.34820419577E+03  0.00000000000E+00 0. -1.
         -1    1    6    6    0  503  0.65444350437E+03 -0.15418966707E+03 -0.60265772930E+03  0.90292142101E+03  0.00000000000E+00 0.  1.
<mgrwt>
<rscale>  0 0.24574010E+04</rscale>
<asrwt>0</asrwt>
<pdfrwt beam="1">  1        2 0.26295821E+00 0.24574010E+04</pdfrwt>
<pdfrwt beam="2">  1       -3 0.13588722E+00 0.24574010E+04</pdfrwt>
<totfact> 0.22880506E+00</totfact>
</mgrwt>
</event>
<event>
11    7  0.1497947E-008  0.1415908E+04  0.7818608E-02  0.8942383E-01
          2   -1    0    0  501    0  0.00000000000E+00  0.00000000000E+00  0.20862888433E+04  0.20862888433E+04  0.00000000000E+00 0. -1.
         -1   -1    0    0    0  501 -0.00000000000E+00 -0.00000000000E+00 -0.24023459749E+03  0.24023459749E+03  0.00000000000E+00 0.  1.
         24    2    1    2    0    0 -0.28518564554E+03  0.27366048566E+03  0.76306580698E+03  0.86291497738E+03  0.78306567848E+02 0.  0.
        254    2    1    2    0    0  0.28518564554E+03 -0.27366048566E+03  0.10829884389E+04  0.14636084635E+04  0.90170109334E+03 0.  0.
         23    2    4    4    0    0  0.50085768087E+02  0.30812220540E+03  0.30986200071E+03  0.44692552372E+03  0.79246997637E+02 0.  0.
          4    1    3    3  502    0 -0.10707577166E+03  0.11734712791E+03  0.22976567714E+03  0.27933463032E+03  0.00000000000E+00 0. -1.
         -3    1    3    3    0  502 -0.17810987389E+03  0.15631335775E+03  0.53330012984E+03  0.58358034706E+03  0.00000000000E+00 0.  1.
         13    1    5    5    0    0  0.63966172548E+02  0.21865639336E+03  0.18961121931E+03  0.29640294209E+03  0.00000000000E+00 0.  1.
        -13    1    5    5    0    0 -0.13880404462E+02  0.89465812041E+02  0.12025078141E+03  0.15052258163E+03  0.00000000000E+00 0. -1.
          3    1    4    4  503    0  0.21809716626E+03 -0.49850776103E+03  0.53188035363E+03  0.76090280083E+03  0.00000000000E+00 0. -1.
         -3    1    4    4    0  503  0.17002711197E+02 -0.83274930032E+02  0.24124608453E+03  0.25578013891E+03  0.00000000000E+00 0.  1.
<mgrwt>
<rscale>  0 0.14159079E+04</rscale>
<asrwt>0</asrwt>
<pdfrwt beam="1">  1        2 0.32096750E+00 0.14159079E+04</pdfrwt>
<pdfrwt beam="2">  1       -1 0.36959170E-01 0.14159079E+04</pdfrwt>
<totfact> 0.46628013E+01</totfact>
</mgrwt>
</event>
<event>
11    7  0.1497947E-008  0.1618967E+04  0.7818608E-02  0.8808980E-01
          2   -1    0    0  501    0  0.00000000000E+00  0.00000000000E+00  0.15449429615E+04  0.15449429615E+04  0.00000000000E+00 0. -1.
         -1   -1    0    0    0  501 -0.00000000000E+00 -0.00000000000E+00 -0.42413468625E+03  0.42413468625E+03  0.00000000000E+00 0.  1.
         24    2    1    2    0    0 -0.73800372716E+02  0.24925806544E+03  0.99158685347E+03  0.10282061883E+04  0.79921207800E+02 0.  0.
        254    2    1    2    0    0  0.73800372716E+02 -0.24925806544E+03  0.12922142177E+03  0.94087145946E+03  0.89496639556E+03 0.  0.
         23    2    4    4    0    0 -0.13476155178E+02 -0.45385352653E+03  0.28728288754E+03  0.54523198492E+03  0.92638164892E+02 0.  0.
          2    1    3    3  502    0 -0.67432401974E+02  0.19152214542E+03  0.62800783015E+03  0.66001643597E+03  0.00000000000E+00 0. -1.
         -1    1    3    3    0  502 -0.63679707425E+01  0.57735920023E+02  0.36357902332E+03  0.36818975231E+03  0.00000000000E+00 0.  1.
         13    1    5    5    0    0  0.24643022152E+02 -0.11712780511E+03  0.41790552915E+02  0.12677796174E+03  0.00000000000E+00 0. -1.
        -13    1    5    5    0    0 -0.38119177330E+02 -0.33672572142E+03  0.24549233463E+03  0.41845402317E+03  0.00000000000E+00 0.  1.
          3    1    4    4  503    0 -0.13412433376E+02 -0.56345582739E+02  0.23148556420E+02  0.62374463746E+02  0.00000000000E+00 0. -1.
         -3    1    4    4    0  503  0.10068896127E+03  0.26094104383E+03 -0.18121002220E+03  0.33326501080E+03  0.00000000000E+00 0.  1.
<mgrwt>
<rscale>  0 0.16189674E+04</rscale>
<asrwt>0</asrwt>
<pdfrwt beam="1">  1        2 0.23768353E+00 0.16189674E+04</pdfrwt>
<pdfrwt beam="2">  1       -1 0.65251491E-01 0.16189674E+04</pdfrwt>
<totfact> 0.31106002E+01</totfact>
</mgrwt>
</event>
<event>
12    7  0.1497947E-008  0.1306292E+04  0.7818608E-02  0.9024590E-01
         -1   -1    0    0    0  501 -0.00000000000E+00  0.00000000000E+00  0.58464012694E+03  0.58464012694E+03  0.00000000000E+00 0.  1.
          2   -1    0    0  501    0  0.00000000000E+00 -0.00000000000E+00 -0.72967904399E+03  0.72967904399E+03  0.00000000000E+00 0. -1.
         24    2    1    2    0    0 -0.49257663421E+02 -0.31672960801E+03  0.77243006991E+02  0.33947264730E+03  0.80816051256E+02 0.  0.
        254    2    1    2    0    0  0.49257663421E+02  0.31672960801E+03 -0.22228192404E+03  0.97484652363E+03  0.89340501951E+03 0.  0.
         23    2    4    4    0    0 -0.36235779550E+03  0.35835259074E+03 -0.42132813666E+02  0.51960182333E+03  0.92147325335E+02 0.  0.
         23    2    4    4    0    0  0.41161545892E+03 -0.41622982727E+02 -0.18014911037E+03  0.45524470030E+03  0.60284960548E+02 0.  0.
          4    1    3    3  502    0 -0.24754898175E+02 -0.38624631441E+02 -0.10043828412E+02  0.46963236971E+02  0.00000000000E+00 0. -1.
         -3    1    3    3    0  502 -0.24502765246E+02 -0.27810497657E+03  0.87286835403E+02  0.29250941033E+03  0.00000000000E+00 0.  1.
         13    1    5    5    0    0 -0.34923873612E+03  0.35315070995E+03 -0.24856043706E+02  0.49729361714E+03  0.00000000000E+00 0.  1.
        -13    1    5    5    0    0 -0.13119059388E+02  0.52018807895E+01 -0.17276769960E+02  0.22308206186E+02  0.00000000000E+00 0. -1.
          4    1    6    6  503    0  0.12269120599E+03 -0.10136708297E+02 -0.84326843696E+02  0.14922098194E+03  0.00000000000E+00 0. -1.
         -4    1    6    6    0  503  0.28892425293E+03 -0.31486274430E+02 -0.95822266676E+02  0.30602371836E+03  0.00000000000E+00 0.  1.
<mgrwt>
<rscale>  0 0.13062919E+04</rscale>
<asrwt>0</asrwt>
<pdfrwt beam="1">  1        2 0.11225831E+00 0.13062919E+04</pdfrwt>
<pdfrwt beam="2">  1       -1 0.89944635E-01 0.13062919E+04</pdfrwt>
<totfact> 0.52615099E+01</totfact>
</mgrwt>
</event>
<event>
11    7  0.1497947E-008  0.1776156E+04  0.7818608E-02  0.8719083E-01
         -1   -1    0    0    0  501 -0.00000000000E+00  0.00000000000E+00  0.39788825840E+03  0.39788825840E+03  0.00000000000E+00 0.  1.
          2   -1    0    0  501    0  0.00000000000E+00 -0.00000000000E+00 -0.19821709903E+04  0.19821709903E+04  0.00000000000E+00 0. -1.
         24    2    1    2    0    0  0.16739127315E+03 -0.45735272057E+03 -0.35913796354E+01  0.49335081205E+03  0.78681487058E+02 0.  0.
        254    2    1    2    0    0 -0.16739127315E+03  0.45735272057E+03 -0.15806913522E+04  0.18867084366E+04  0.90768509100E+03 0.  0.
         23    2    4    4    0    0 -0.42596119734E+03 -0.88043093761E+01 -0.43647037976E+03  0.61683779354E+03  0.91989203904E+02 0.  0.
          2    1    3    3  502    0 -0.13528215183E+00 -0.14050530677E+02 -0.13304328734E+02  0.19350474843E+02  0.00000000000E+00 0. -1.
         -1    1    3    3    0  502  0.16752655530E+03 -0.44330218989E+03  0.97129490984E+01  0.47400033721E+03  0.00000000000E+00 0.  1.
         13    1    5    5    0    0 -0.89281900060E+02 -0.37255556142E+02 -0.78423283808E+02  0.12453692458E+03  0.00000000000E+00 0.  1.
        -13    1    5    5    0    0 -0.33667929728E+03  0.28451246766E+02 -0.35804709595E+03  0.49230086896E+03  0.00000000000E+00 0. -1.
          3    1    4    4  503    0  0.25666788899E+03  0.46870700336E+03 -0.10742176425E+04  0.11997950674E+04  0.00000000000E+00 0. -1.
         -3    1    4    4    0  503  0.19020352001E+01 -0.25499734099E+01 -0.70003329939E+02  0.70075575666E+02  0.00000000000E+00 0.  1.
<mgrwt>
<rscale>  0 0.17761560E+04</rscale>
<asrwt>0</asrwt>
<pdfrwt beam="1">  1        2 0.30494938E+00 0.17761560E+04</pdfrwt>
<pdfrwt beam="2">  1       -1 0.61213579E-01 0.17761560E+04</pdfrwt>
<totfact> 0.19930697E+01</totfact>
</mgrwt>
</event>
<event>
12    7  0.1497947E-008  0.3595631E+04  0.7818608E-02  0.8091493E-01
          2   -1    0    0  501    0  0.00000000000E+00  0.00000000000E+00  0.22626985911E+04  0.22626985911E+04  0.00000000000E+00 0. -1.
         -1   -1    0    0    0  501 -0.00000000000E+00 -0.00000000000E+00 -0.14284452143E+04  0.14284452143E+04  0.00000000000E+00 0.  1.
         24    2    1    2    0    0  0.15769595374E+04 -0.58573366493E+03  0.30749204605E+03  0.17119831878E+04  0.80310448020E+02 0.  0.
        254    2    1    2    0    0 -0.15769595374E+04  0.58573366493E+03  0.52676133081E+03  0.19791606176E+04  0.89984106461E+03 0.  0.
         23    2    4    4    0    0 -0.15426254047E+04  0.34259191041E+03  0.61346127393E+03  0.16975015420E+04  0.90079931389E+02 0.  0.
         23    2    4    4    0    0 -0.34334132711E+02  0.24314175452E+03 -0.86699943120E+02  0.28165907559E+03  0.10732292050E+03 0.  0.
          4    1    3    3  502    0  0.66390665997E+03 -0.24284207388E+03  0.16941054291E+03  0.72694171572E+03  0.00000000000E+00 0. -1.
         -3    1    3    3    0  502  0.91305287746E+03 -0.34289159105E+03  0.13808150314E+03  0.98504147210E+03  0.00000000000E+00 0.  1.
         13    1    5    5    0    0 -0.55539555415E+03  0.79214005267E+02  0.21791743476E+03  0.60185304566E+03  0.00000000000E+00 0.  1.
        -13    1    5    5    0    0 -0.98722985057E+03  0.26337790514E+03  0.39554383916E+03  0.10956484963E+04  0.00000000000E+00 0. -1.
          1    1    6    6  503    0  0.29937641725E+02  0.72907947135E+02 -0.57051100027E+02  0.97296758229E+02  0.00000000000E+00 0. -1.
         -1    1    6    6    0  503 -0.64271774437E+02  0.17023380738E+03 -0.29648843092E+02  0.18436231736E+03  0.00000000000E+00 0.  1.
<mgrwt>
<rscale>  0 0.35956312E+04</rscale>
<asrwt>0</asrwt>
<pdfrwt beam="1">  1        2 0.34810748E+00 0.35956312E+04</pdfrwt>
<pdfrwt beam="2">  1       -1 0.21976080E+00 0.35956312E+04</pdfrwt>
<totfact> 0.48735235E-01</totfact>
</mgrwt>
</event>
<event>
12    7  0.1497947E-008  0.1339437E+04  0.7818608E-02  0.8998863E-01
          2   -1    0    0  501    0  0.00000000000E+00  0.00000000000E+00  0.13749786432E+04  0.13749786432E+04  0.00000000000E+00 0. -1.
         -1   -1    0    0    0  501 -0.00000000000E+00 -0.00000000000E+00 -0.32620369335E+03  0.32620369335E+03  0.00000000000E+00 0.  1.
         24    2    1    2    0    0 -0.35375563709E+03  0.29977444462E+02  0.36159270441E+03  0.51299138879E+03  0.79807162240E+02 0.  0.
        254    2    1    2    0    0  0.35375563709E+03 -0.29977444462E+02  0.68718224546E+03  0.11881909478E+04  0.90196263335E+03 0.  0.
         23    2    4    4    0    0  0.37277617385E+03 -0.69793664795E+02 -0.95279237265E+02  0.40149454503E+03  0.91030243335E+02 0.  0.
         23    2    4    4    0    0 -0.19020536761E+02  0.39816220332E+02  0.78246148273E+03  0.78669640274E+03  0.68543022403E+02 0.  0.
          2    1    3    3  502    0 -0.31075761280E+03  0.31018193647E+02  0.34866294294E+03  0.46807934160E+03  0.00000000000E+00 0. -1.
         -1    1    3    3    0  502 -0.42998024289E+02 -0.10407491847E+01  0.12929761468E+02  0.44912047195E+02  0.00000000000E+00 0.  1.
         13    1    5    5    0    0  0.19691618703E+03 -0.48086270860E+02 -0.53203015366E+01  0.20277223619E+03  0.00000000000E+00 0.  1.
        -13    1    5    5    0    0  0.17585998682E+03 -0.21707393935E+02 -0.89958935728E+02  0.19872230884E+03  0.00000000000E+00 0. -1.
          1    1    6    6  503    0  0.23371772934E+02  0.17067600691E+02  0.42910133736E+03  0.43007615661E+03  0.00000000000E+00 0. -1.
         -1    1    6    6    0  503 -0.42392309695E+02  0.22748619641E+02  0.35336014537E+03  0.35662024613E+03  0.00000000000E+00 0.  1.
<mgrwt>
<rscale>  0 0.13394374E+04</rscale>
<asrwt>0</asrwt>
<pdfrwt beam="1">  1        2 0.21153517E+00 0.13394374E+04</pdfrwt>
<pdfrwt beam="2">  1       -1 0.50185184E-01 0.13394374E+04</pdfrwt>
<totfact> 0.66401975E+01</totfact>
</mgrwt>
</event>
<event>
12    7  0.1497947E-008  0.1049323E+04  0.7818608E-02  0.9256043E-01
          2   -1    0    0  501    0  0.00000000000E+00  0.00000000000E+00  0.94981275097E+03  0.94981275097E+03  0.00000000000E+00 0. -1.
         -3   -1    0    0    0  501 -0.00000000000E+00 -0.00000000000E+00 -0.28981462093E+03  0.28981462093E+03  0.00000000000E+00 0.  1.
         24    2    1    2    0    0  0.88209356715E+02  0.66601332721E+02  0.60508600311E+02  0.14801714243E+03  0.77660515119E+02 0.  0.
        254    2    1    2    0    0 -0.88209356715E+02 -0.66601332721E+02  0.59948952972E+03  0.10916102295E+04  0.90554324508E+03 0.  0.
         23    2    4    4    0    0 -0.86153319233E+02 -0.28431898372E+03 -0.11830143323E+03  0.33277729318E+03  0.92118504294E+02 0.  0.
         23    2    4    4    0    0 -0.20560374810E+01  0.21771765100E+03  0.71779096295E+03  0.75883293629E+03  0.11488409752E+03 0.  0.
          4    1    3    3  502    0  0.24489944687E+02 -0.16640836003E+02  0.19488707258E+02  0.35446925455E+02  0.00000000000E+00 0. -1.
         -3    1    3    3    0  502  0.63719412028E+02  0.83242168724E+02  0.41019893053E+02  0.11257021697E+03  0.00000000000E+00 0.  1.
         13    1    5    5    0    0 -0.23300738958E+02 -0.45625408164E+01 -0.38713625075E+01  0.24056779966E+02  0.00000000000E+00 0.  1.
        -13    1    5    5    0    0 -0.62852580276E+02 -0.27975644291E+03 -0.11443007072E+03  0.30872051322E+03  0.00000000000E+00 0. -1.
          1    1    6    6  503    0  0.51181700114E+02  0.86525949007E+02  0.36774374383E+03  0.38123715375E+03  0.00000000000E+00 0. -1.
         -1    1    6    6    0  503 -0.53237737595E+02  0.13119170200E+03  0.35004721912E+03  0.37759578254E+03  0.00000000000E+00 0.  1.
<mgrwt>
<rscale>  0 0.10493229E+04</rscale>
<asrwt>0</asrwt>
<pdfrwt beam="1">  1        2 0.14612504E+00 0.10493229E+04</pdfrwt>
<pdfrwt beam="2">  1       -3 0.44586865E-01 0.10493229E+04</pdfrwt>
<totfact> 0.86304030E+01</totfact>
</mgrwt>
</event>
<event>
12    7  0.1497947E-008  0.1922081E+04  0.7818608E-02  0.8643943E-01
          2   -1    0    0  501    0  0.00000000000E+00  0.00000000000E+00  0.12779161093E+04  0.12779161093E+04  0.00000000000E+00 0. -1.
         -1   -1    0    0    0  501 -0.00000000000E+00 -0.00000000000E+00 -0.72273821526E+03  0.72273821526E+03  0.00000000000E+00 0.  1.
         24    2    1    2    0    0  0.90021680746E+02  0.71395299989E+03  0.29137139872E+02  0.72469582875E+03  0.80636730060E+02 0.  0.
        254    2    1    2    0    0 -0.90021680746E+02 -0.71395299989E+03  0.52604075416E+03  0.12759584958E+04  0.91297229910E+03 0.  0.
         23    2    4    4    0    0  0.22484389491E+03 -0.33358013038E+03  0.63438499721E+03  0.75724611255E+03  0.95639269200E+02 0.  0.
         23    2    4    4    0    0 -0.31486557565E+03 -0.38037286950E+03 -0.10834424306E+03  0.51871238325E+03  0.11619040816E+03 0.  0.
          4    1    3    3  502    0  0.56537515260E+02  0.37626658847E+03  0.54652164436E+02  0.38439549335E+03  0.00000000000E+00 0. -1.
         -3    1    3    3    0  502  0.33484165486E+02  0.33768641142E+03 -0.25515024564E+02  0.34030033540E+03  0.00000000000E+00 0.  1.
         13    1    5    5    0    0  0.15873146398E+03 -0.17357583156E+03  0.30528318739E+03  0.38538561398E+03  0.00000000000E+00 0. -1.
        -13    1    5    5    0    0  0.66112430924E+02 -0.16000429883E+03  0.32910180982E+03  0.37186049857E+03  0.00000000000E+00 0.  1.
          2    1    6    6  503    0 -0.24225634009E+03 -0.24259108234E+03 -0.29381853375E+02  0.34409571467E+03  0.00000000000E+00 0. -1.
         -2    1    6    6    0  503 -0.72609235562E+02 -0.13778178717E+03 -0.78962389680E+02  0.17461666859E+03  0.00000000000E+00 0.  1.
<mgrwt>
<rscale>  0 0.19220810E+04</rscale>
<asrwt>0</asrwt>
<pdfrwt beam="1">  1        2 0.19660248E+00 0.19220810E+04</pdfrwt>
<pdfrwt beam="2">  1       -1 0.11119050E+00 0.19220810E+04</pdfrwt>
<totfact> 0.13504471E+01</totfact>
</mgrwt>
</event>
<event>
12    7  0.1497947E-008  0.2483103E+04  0.7818608E-02  0.8409030E-01
         -1   -1    0    0    0  501 -0.00000000000E+00  0.00000000000E+00  0.12292244912E+04  0.12292244912E+04  0.00000000000E+00 0.  1.
          2   -1    0    0  501    0  0.00000000000E+00 -0.00000000000E+00 -0.12540024172E+04  0.12540024172E+04  0.00000000000E+00 0. -1.
         24    2    1    2    0    0 -0.10619390089E+04 -0.14980646058E+03  0.74504705500E+02  0.10779695595E+04  0.79441713038E+02 0.  0.
        254    2    1    2    0    0  0.10619390089E+04  0.14980646058E+03 -0.99282631536E+02  0.14052573490E+04  0.90262657937E+03 0.  0.
         23    2    4    4    0    0  0.75664720198E+03 -0.19578168274E+03  0.24695380479E+03  0.82467783414E+03  0.90894955076E+02 0.  0.
         23    2    4    4    0    0  0.30529180689E+03  0.34558814332E+03 -0.34623643633E+03  0.58057951486E+03  0.67517783381E+02 0.  0.
          4    1    3    3  502    0 -0.50995405639E+03 -0.51805547852E+02  0.69983714545E+02  0.51733420023E+03  0.00000000000E+00 0. -1.
         -3    1    3    3    0  502 -0.55198495248E+03 -0.98000912726E+02  0.45209909550E+01  0.56063535923E+03  0.00000000000E+00 0.  1.
         13    1    5    5    0    0  0.37383562747E+03 -0.11464346879E+03  0.79401824743E+02  0.39899981338E+03  0.00000000000E+00 0.  1.
        -13    1    5    5    0    0  0.38281157451E+03 -0.81138213949E+02  0.16755198005E+03  0.42567802076E+03  0.00000000000E+00 0. -1.
          3    1    6    6  503    0  0.16312356922E+03  0.15834999734E+03 -0.20628095326E+03  0.30697858585E+03  0.00000000000E+00 0. -1.
         -3    1    6    6    0  503  0.14216823767E+03  0.18723814598E+03 -0.13995548307E+03  0.27360092901E+03  0.00000000000E+00 0.  1.
<mgrwt>
<rscale>  0 0.24831033E+04</rscale>
<asrwt>0</asrwt>
<pdfrwt beam="1">  1        2 0.19292345E+00 0.24831033E+04</pdfrwt>
<pdfrwt beam="2">  1       -1 0.18911146E+00 0.24831033E+04</pdfrwt>
<totfact> 0.32096540E+00</totfact>
</mgrwt>
</event>
<event>
12    7  0.1497947E-008  0.1855090E+04  0.7818608E-02  0.8677539E-01
          2   -1    0    0  501    0  0.00000000000E+00  0.00000000000E+00  0.17374196679E+04  0.17374196679E+04  0.00000000000E+00 0. -1.
         -1   -1    0    0    0  501 -0.00000000000E+00 -0.00000000000E+00 -0.49518264969E+03  0.49518264969E+03  0.00000000000E+00 0.  1.
         24    2    1    2    0    0  0.10977205124E+03 -0.94092315856E+02  0.13097313223E+04  0.13201583253E+04  0.80737847991E+02 0.  0.
        254    2    1    2    0    0 -0.10977205124E+03  0.94092315856E+02 -0.67494304085E+02  0.91244399231E+03  0.89838482338E+03 0.  0.
         23    2    4    4    0    0 -0.20680344350E+03 -0.28846657308E+03  0.20297744306E+03  0.41890279196E+03  0.91099279337E+02 0.  0.
         23    2    4    4    0    0  0.97031392259E+02  0.38255888894E+03 -0.27047174714E+03  0.49354120034E+03  0.12108491173E+03 0.  0.
          2    1    3    3  502    0  0.24490926335E+02 -0.20480145787E+02  0.65708879221E+03  0.65786390895E+03  0.00000000000E+00 0. -1.
         -1    1    3    3    0  502  0.85281124910E+02 -0.73612170070E+02  0.65264253009E+03  0.66229441635E+03  0.00000000000E+00 0.  1.
         13    1    5    5    0    0 -0.11941508968E+03 -0.23153673065E+03  0.12672135482E+03  0.28970247333E+03  0.00000000000E+00 0. -1.
        -13    1    5    5    0    0 -0.87388353825E+02 -0.56929842429E+02  0.76256088233E+02  0.12920031864E+03  0.00000000000E+00 0.  1.
          3    1    6    6  503    0 -0.12462919442E+02  0.16511165685E+03 -0.77201318932E+02  0.18269435468E+03  0.00000000000E+00 0. -1.
         -3    1    6    6    0  503  0.10949431170E+03  0.21744723209E+03 -0.19327042821E+03  0.31084684566E+03  0.00000000000E+00 0.  1.
<mgrwt>
<rscale>  0 0.18550904E+04</rscale>
<asrwt>0</asrwt>
<pdfrwt beam="1">  1        2 0.26729533E+00 0.18550904E+04</pdfrwt>
<pdfrwt beam="2">  1       -1 0.76181947E-01 0.18550904E+04</pdfrwt>
<totfact> 0.17314008E+01</totfact>
</mgrwt>
</event>
<event>
11    7  0.1497947E-008  0.1927970E+04  0.7818608E-02  0.8641058E-01
         -1   -1    0    0    0  501 -0.00000000000E+00  0.00000000000E+00  0.79655929112E+03  0.79655929112E+03  0.00000000000E+00 0.  1.
          2   -1    0    0  501    0  0.00000000000E+00 -0.00000000000E+00 -0.11666013861E+04  0.11666013861E+04  0.00000000000E+00 0. -1.
         24    2    1    2    0    0  0.66273909095E+03 -0.17633840738E+03 -0.45623810421E+03  0.82757932232E+03  0.80099877708E+02 0.  0.
        254    2    1    2    0    0 -0.66273909095E+03  0.17633840738E+03  0.86196009218E+02  0.11355813549E+04  0.90099773865E+03 0.  0.
         23    2    4    4    0    0 -0.61351432454E+03 -0.22278833012E+03  0.14921013134E+03  0.67576995832E+03  0.91470797635E+02 0.  0.
          2    1    3    3  502    0  0.63180175801E+03 -0.17820182023E+03 -0.45021970381E+03  0.79600699235E+03  0.00000000000E+00 0. -1.
         -1    1    3    3    0  502  0.30937332936E+02  0.18634128507E+01 -0.60184003972E+01  0.31572329974E+02  0.00000000000E+00 0.  1.
         13    1    5    5    0    0 -0.49004037167E+03 -0.20760299193E+03  0.14362203493E+03  0.55124028975E+03  0.00000000000E+00 0.  1.
        -13    1    5    5    0    0 -0.12347395287E+03 -0.15185338191E+02  0.55880964130E+01  0.12452966857E+03  0.00000000000E+00 0. -1.
          1    1    4    4  503    0  0.56488520016E+02  0.33036302582E+02  0.22658030102E+02  0.69251256378E+02  0.00000000000E+00 0. -1.
         -1    1    4    4    0  503 -0.10571328642E+03  0.36609043492E+03 -0.85672152225E+02  0.39056014022E+03  0.00000000000E+00 0.  1.
<mgrwt>
<rscale>  0 0.19279701E+04</rscale>
<asrwt>0</asrwt>
<pdfrwt beam="1">  1        2 0.17947713E+00 0.19279701E+04</pdfrwt>
<pdfrwt beam="2">  1       -1 0.12254758E+00 0.19279701E+04</pdfrwt>
<totfact> 0.12427370E+01</totfact>
</mgrwt>
</event>
<event>
12    7  0.1497947E-008  0.1272471E+04  0.7818608E-02  0.9051685E-01
         -1   -1    0    0    0  501 -0.00000000000E+00  0.00000000000E+00  0.30706716235E+03  0.30706716235E+03  0.00000000000E+00 0.  1.
          2   -1    0    0  501    0  0.00000000000E+00 -0.00000000000E+00 -0.13182640260E+04  0.13182640260E+04  0.00000000000E+00 0. -1.
         24    2    1    2    0    0 -0.17757517046E+03  0.21277687849E+03 -0.75784524589E+02  0.29816183859E+03  0.79688434812E+02 0.  0.
        254    2    1    2    0    0  0.17757517046E+03 -0.21277687849E+03 -0.93541233905E+03  0.13271693497E+04  0.89976402331E+03 0.  0.
         23    2    4    4    0    0 -0.29184806004E+02 -0.19621925211E+03 -0.10469542664E+04  0.10695605271E+04  0.92156048673E+02 0.  0.
         23    2    4    4    0    0  0.20675997647E+03 -0.16557626375E+02  0.11154192736E+03  0.25760882266E+03  0.10438803138E+03 0.  0.
          4    1    3    3  502    0 -0.14236661960E+01 -0.64390505591E+01  0.94417266565E+00  0.66618060286E+01  0.00000000000E+00 0. -1.
         -3    1    3    3    0  502 -0.17615150426E+03  0.21921592905E+03 -0.76728697255E+02  0.29150003257E+03  0.00000000000E+00 0.  1.
         13    1    5    5    0    0 -0.43749742582E+02 -0.71141401678E+02 -0.27497151856E+03  0.28737514685E+03  0.00000000000E+00 0. -1.
        -13    1    5    5    0    0  0.14564936578E+02 -0.12507785044E+03 -0.77198274785E+03  0.78218538022E+03  0.00000000000E+00 0.  1.
          1    1    6    6  503    0  0.33184637596E+01  0.13454697338E+02 -0.11463771927E+02  0.17984970086E+02  0.00000000000E+00 0. -1.
         -1    1    6    6    0  503  0.20344151271E+03 -0.30012323713E+02  0.12300569929E+03  0.23962385258E+03  0.00000000000E+00 0.  1.
<mgrwt>
<rscale>  0 0.12724710E+04</rscale>
<asrwt>0</asrwt>
<pdfrwt beam="1">  1        2 0.20280985E+00 0.12724710E+04</pdfrwt>
<pdfrwt beam="2">  1       -1 0.47241101E-01 0.12724710E+04</pdfrwt>
<totfact> 0.80683482E+01</totfact>
</mgrwt>
</event>
<event>
11    7  0.1497947E-008  0.1994624E+04  0.7818608E-02  0.8609138E-01
          2   -1    0    0  501    0  0.00000000000E+00  0.00000000000E+00  0.11358948471E+04  0.11358948471E+04  0.00000000000E+00 0. -1.
         -1   -1    0    0    0  501 -0.00000000000E+00 -0.00000000000E+00 -0.87563639803E+03  0.87563639803E+03  0.00000000000E+00 0.  1.
         24    2    1    2    0    0 -0.36579743020E+03 -0.27597734331E+03  0.70743982077E+03  0.84651906321E+03  0.78435772534E+02 0.  0.
        254    2    1    2    0    0  0.36579743020E+03  0.27597734331E+03 -0.44718137170E+03  0.11650121819E+04  0.97329900384E+03 0.  0.
         23    2    4    4    0    0 -0.26749846743E+03  0.24284323919E+03 -0.32388274402E+03  0.49407671996E+03  0.93185323097E+02 0.  0.
          4    1    3    3  502    0 -0.33122002777E+03 -0.25672890850E+03  0.67853717758E+03  0.79751435135E+03  0.00000000000E+00 0. -1.
         -3    1    3    3    0  502 -0.34577402425E+02 -0.19248434801E+02  0.28902643189E+02  0.49004711856E+02  0.00000000000E+00 0.  1.
         13    1    5    5    0    0 -0.15566259967E+03  0.18435203394E+03 -0.17049392431E+03  0.29543983411E+03  0.00000000000E+00 0. -1.
        -13    1    5    5    0    0 -0.11183586776E+03  0.58491205244E+02 -0.15338881970E+03  0.19863688585E+03  0.00000000000E+00 0.  1.
          2    1    4    4  503    0  0.17513618893E+03 -0.49832714757E+02 -0.92683258761E+02  0.20431879646E+03  0.00000000000E+00 0. -1.
         -2    1    4    4    0  503  0.45815970870E+03  0.82966818876E+02 -0.30615368925E+02  0.46661666550E+03  0.00000000000E+00 0.  1.
<mgrwt>
<rscale>  0 0.19946236E+04</rscale>
<asrwt>0</asrwt>
<pdfrwt beam="1">  1        2 0.17475305E+00 0.19946236E+04</pdfrwt>
<pdfrwt beam="2">  1       -1 0.13471329E+00 0.19946236E+04</pdfrwt>
<totfact> 0.10166536E+01</totfact>
</mgrwt>
</event>
<event>
11    7  0.1497947E-008  0.1121362E+04  0.7818608E-02  0.9184618E-01
         -1   -1    0    0    0  501 -0.00000000000E+00  0.00000000000E+00  0.30857708765E+03  0.30857708765E+03  0.00000000000E+00 0.  1.
          2   -1    0    0  501    0  0.00000000000E+00 -0.00000000000E+00 -0.10187504369E+04  0.10187504369E+04  0.00000000000E+00 0. -1.
         24    2    1    2    0    0 -0.56468103408E+02  0.27877611953E+02  0.22347343561E+02  0.10536255312E+03  0.81461990428E+02 0.  0.
        254    2    1    2    0    0  0.56468103408E+02 -0.27877611953E+02 -0.73252069279E+03  0.12219649714E+04  0.97603586923E+03 0.  0.
         23    2    4    4    0    0 -0.16044004555E+03  0.17370313356E+03 -0.73769208196E+03  0.78014297275E+03  0.92302022332E+02 0.  0.
          2    1    3    3  502    0  0.11263135246E+02  0.27513882346E+02 -0.85223996588E+01  0.30927386460E+02  0.00000000000E+00 0. -1.
         -3    1    3    3    0  502 -0.67731238654E+02  0.36372960736E+00  0.30869743219E+02  0.74435166657E+02  0.00000000000E+00 0.  1.
         13    1    5    5    0    0 -0.17689393754E+01 -0.54003256903E+01 -0.12703497230E+01  0.58229247371E+01  0.00000000000E+00 0.  1.
        -13    1    5    5    0    0 -0.15867110617E+03  0.17910345925E+03 -0.73642173224E+03  0.77432004802E+03  0.00000000000E+00 0. -1.
          1    1    4    4  503    0  0.77329348653E+02  0.13110448586E+02  0.13392375120E+03  0.15520078338E+03  0.00000000000E+00 0. -1.
         -1    1    4    4    0  503  0.13957880030E+03 -0.21469119410E+03 -0.12875236203E+03  0.28662121528E+03  0.00000000000E+00 0.  1.
<mgrwt>
<rscale>  0 0.11213617E+04</rscale>
<asrwt>0</asrwt>
<pdfrwt beam="1">  1        2 0.15673084E+00 0.11213617E+04</pdfrwt>
<pdfrwt beam="2">  1       -1 0.47473398E-01 0.11213617E+04</pdfrwt>
<totfact> 0.12266162E+02</totfact>
</mgrwt>
</event>
<event>
11    7  0.1497947E-008  0.1621178E+04  0.7818608E-02  0.8807642E-01
          2   -1    0    0  501    0  0.00000000000E+00  0.00000000000E+00  0.23132646986E+04  0.23132646986E+04  0.00000000000E+00 0. -1.
         -1   -1    0    0    0  501 -0.00000000000E+00 -0.00000000000E+00 -0.28403793419E+03  0.28403793419E+03  0.00000000000E+00 0.  1.
         24    2    1    2    0    0 -0.22109206448E+03 -0.25517883102E+03 -0.50978014019E+01  0.34762248140E+03  0.82567943034E+02 0.  0.
        254    2    1    2    0    0  0.22109206448E+03  0.25517883102E+03  0.20343245658E+04  0.22496801514E+04  0.89921432804E+03 0.  0.
         23    2    4    4    0    0  0.32085663830E+03  0.45622885072E+03  0.75161973927E+03  0.94073113311E+03  0.94599607717E+02 0.  0.
          4    1    3    3  502    0 -0.13378062284E+03 -0.16589705355E+03  0.36039260372E+02  0.21614327589E+03  0.00000000000E+00 0. -1.
         -3    1    3    3    0  502 -0.87311441639E+02 -0.89281777466E+02 -0.41137061774E+02  0.13147920550E+03  0.00000000000E+00 0.  1.
         13    1    5    5    0    0  0.10879688437E+03  0.23103975900E+03  0.36824972617E+03  0.44813390087E+03  0.00000000000E+00 0. -1.
        -13    1    5    5    0    0  0.21205975394E+03  0.22518909171E+03  0.38337001310E+03  0.49259723224E+03  0.00000000000E+00 0.  1.
          2    1    4    4  503    0 -0.73556398235E+01 -0.15615482511E+03  0.69854824607E+03  0.71582685542E+03  0.00000000000E+00 0. -1.
         -2    1    4    4    0  503 -0.92408934002E+02 -0.44895194586E+02  0.58415658050E+03  0.59312216290E+03  0.00000000000E+00 0.  1.
<mgrwt>
<rscale>  0 0.16211785E+04</rscale>
<asrwt>0</asrwt>
<pdfrwt beam="1">  1        2 0.35588686E+00 0.16211785E+04</pdfrwt>
<pdfrwt beam="2">  1       -1 0.43698145E-01 0.16211785E+04</pdfrwt>
<totfact> 0.25159558E+01</totfact>
</mgrwt>
</event>
<event>
11    7  0.1497947E-008  0.1730061E+04  0.7818608E-02  0.8744403E-01
          2   -1    0    0  501    0  0.00000000000E+00  0.00000000000E+00  0.10243301526E+04  0.10243301526E+04  0.00000000000E+00 0. -1.
         -1   -1    0    0    0  501 -0.00000000000E+00 -0.00000000000E+00 -0.73050439210E+03  0.73050439210E+03  0.00000000000E+00 0.  1.
         24    2    1    2    0    0 -0.45914492033E+03 -0.45365931507E+02  0.53525526330E+03  0.71119029557E+03  0.80133101859E+02 0.  0.
        254    2    1    2    0    0  0.45914492033E+03  0.45365931507E+02 -0.24142950277E+03  0.10436442492E+04  0.90445176124E+03 0.  0.
         23    2    4    4    0    0  0.12762703231E+03 -0.38614675449E+03 -0.17056445999E+03  0.45039810377E+03  0.91478092897E+02 0.  0.
          2    1    3    3  502    0 -0.31837900363E+03 -0.31217882138E+01  0.32805563646E+03  0.45716018651E+03  0.00000000000E+00 0. -1.
         -1    1    3    3    0  502 -0.14076591670E+03 -0.42244143294E+02  0.20719962683E+03  0.25403010905E+03  0.00000000000E+00 0.  1.
         13    1    5    5    0    0  0.13185387340E+03 -0.37006950859E+03 -0.14273837596E+03  0.41798460389E+03  0.00000000000E+00 0. -1.
        -13    1    5    5    0    0 -0.42268410850E+01 -0.16077245901E+02 -0.27826084035E+02  0.32413499873E+02  0.00000000000E+00 0.  1.
          4    1    4    4  503    0  0.14492763508E+02  0.18038011216E+03 -0.52350879318E+02  0.18838163292E+03  0.00000000000E+00 0.  1.
         -4    1    4    4    0  503  0.31702512451E+03  0.25113257384E+03 -0.18514163454E+02  0.40486451247E+03  0.00000000000E+00 0. -1.
<mgrwt>
<rscale>  0 0.17300609E+04</rscale>
<asrwt>0</asrwt>
<pdfrwt beam="1">  1        2 0.15758926E+00 0.17300609E+04</pdfrwt>
<pdfrwt beam="2">  1       -1 0.11238529E+00 0.17300609E+04</pdfrwt>
<totfact> 0.19090242E+01</totfact>
</mgrwt>
</event>
<event>
11    7  0.1497947E-008  0.1415156E+04  0.7818608E-02  0.8942921E-01
          2   -1    0    0  501    0  0.00000000000E+00  0.00000000000E+00  0.15126207229E+04  0.15126207229E+04  0.00000000000E+00 0. -1.
         -1   -1    0    0    0  501 -0.00000000000E+00 -0.00000000000E+00 -0.33099261154E+03  0.33099261154E+03  0.00000000000E+00 0.  1.
         24    2    1    2    0    0 -0.20076124319E+03  0.34992330930E+03  0.42711426595E+03  0.59250840597E+03  0.76734710590E+02 0.  0.
        254    2    1    2    0    0  0.20076124319E+03 -0.34992330930E+03  0.75451384541E+03  0.12511049285E+04  0.91280939957E+03 0.  0.
         23    2    4    4    0    0  0.11471061563E+03 -0.62239538736E+03  0.28712953158E+03  0.70100169297E+03  0.91790315903E+02 0.  0.
          4    1    3    3  502    0 -0.18950601566E+03  0.29720332480E+03  0.39646456361E+03  0.53049646224E+03  0.00000000000E+00 0. -1.
         -3    1    3    3    0  502 -0.11255227528E+02  0.52719984498E+02  0.30649702335E+02  0.62011943731E+02  0.00000000000E+00 0.  1.
         13    1    5    5    0    0  0.13048148916E+03 -0.53957315112E+03  0.25259677420E+03  0.60989321587E+03  0.00000000000E+00 0. -1.
        -13    1    5    5    0    0 -0.15770873528E+02 -0.82822236240E+02  0.34532757376E+02  0.91108477101E+02  0.00000000000E+00 0.  1.
          4    1    4    4  503    0  0.21323137844E+02  0.14063420291E+03  0.20714961647E+03  0.25128394067E+03  0.00000000000E+00 0. -1.
         -4    1    4    4    0  503  0.64727489715E+02  0.13183787515E+03  0.26023469736E+03  0.29881929482E+03  0.00000000000E+00 0.  1.
<mgrwt>
<rscale>  0 0.14151555E+04</rscale>
<asrwt>0</asrwt>
<pdfrwt beam="1">  1        2 0.23271088E+00 0.14151555E+04</pdfrwt>
<pdfrwt beam="2">  1       -1 0.50921941E-01 0.14151555E+04</pdfrwt>
<totfact> 0.53616436E+01</totfact>
</mgrwt>
</event>
<event>
12    7  0.1497947E-008  0.3257962E+04  0.7818608E-02  0.8173675E-01
          2   -1    0    0  501    0  0.00000000000E+00  0.00000000000E+00  0.13684114835E+04  0.13684114835E+04  0.00000000000E+00 0. -1.
         -1   -1    0    0    0  501 -0.00000000000E+00 -0.00000000000E+00 -0.19391680719E+04  0.19391680719E+04  0.00000000000E+00 0.  1.
         24    2    1    2    0    0  0.14237307645E+04 -0.14855205605E+03  0.20541456256E+03  0.14483073476E+04  0.79511178806E+02 0.  0.
        254    2    1    2    0    0 -0.14237307645E+04  0.14855205605E+03 -0.77617115099E+03  0.18592722079E+04  0.89742658987E+03 0.  0.
         23    2    4    4    0    0 -0.49327653573E+03 -0.36172303020E+03 -0.34224932246E+03  0.70698907009E+03  0.92377785333E+02 0.  0.
         23    2    4    4    0    0 -0.93045422874E+03  0.51027508625E+03 -0.43392182853E+03  0.11522831378E+04  0.11550991676E+03 0.  0.
          2    1    3    3  502    0  0.10264214425E+04 -0.13436534145E+03  0.17165180144E+03  0.10493137583E+04  0.00000000000E+00 0. -1.
         -1    1    3    3    0  502  0.39730932201E+03 -0.14186714602E+02  0.33762761122E+02  0.39899358926E+03  0.00000000000E+00 0.  1.
         13    1    5    5    0    0 -0.23493728963E+03 -0.22799768591E+03 -0.16938578121E+03  0.36860550418E+03  0.00000000000E+00 0. -1.
        -13    1    5    5    0    0 -0.25833924610E+03 -0.13372534429E+03 -0.17286354125E+03  0.33838356591E+03  0.00000000000E+00 0.  1.
          1    1    6    6  503    0 -0.78086023671E+03  0.47171452627E+03 -0.38550752594E+03  0.99039050689E+03  0.00000000000E+00 0. -1.
         -1    1    6    6    0  503 -0.14959399203E+03  0.38560559978E+02 -0.48414302589E+02  0.16189263088E+03  0.00000000000E+00 0.  1.
<mgrwt>
<rscale>  0 0.32579625E+04</rscale>
<asrwt>0</asrwt>
<pdfrwt beam="1">  1        2 0.21052484E+00 0.32579625E+04</pdfrwt>
<pdfrwt beam="2">  1       -1 0.29833355E+00 0.32579625E+04</pdfrwt>
<totfact> 0.48748179E-01</totfact>
</mgrwt>
</event>
<event>
11    7  0.1497947E-008  0.2391686E+04  0.7818608E-02  0.8442623E-01
         -1   -1    0    0    0  501 -0.00000000000E+00  0.00000000000E+00  0.13701814528E+04  0.13701814528E+04  0.00000000000E+00 0.  1.
          2   -1    0    0  501    0  0.00000000000E+00 -0.00000000000E+00 -0.10436868315E+04  0.10436868315E+04  0.00000000000E+00 0. -1.
         24    2    1    2    0    0  0.47763365347E+03  0.13710028901E+03  0.10397945966E+04  0.11553278432E+04  0.81726532289E+02 0.  0.
        254    2    1    2    0    0 -0.47763365347E+03 -0.13710028901E+03 -0.71329997526E+03  0.12585404411E+04  0.91005318029E+03 0.  0.
         23    2    4    4    0    0 -0.27581792222E+03 -0.44022758486E+03 -0.69218566312E+03  0.86963211062E+03  0.85224192056E+02 0.  0.
          4    1    3    3  502    0  0.19731285225E+03  0.85415219061E+02  0.38035708446E+03  0.43692062552E+03  0.00000000000E+00 0. -1.
         -3    1    3    3    0  502  0.28032080122E+03  0.51685069948E+02  0.65943751211E+03  0.71840721770E+03  0.00000000000E+00 0.  1.
         13    1    5    5    0    0 -0.79455069137E+02 -0.20418669725E+03 -0.30275021244E+03  0.37371514082E+03  0.00000000000E+00 0. -1.
        -13    1    5    5    0    0 -0.19636285308E+03 -0.23604088761E+03 -0.38943545068E+03  0.49591696980E+03  0.00000000000E+00 0.  1.
          1    1    4    4  503    0 -0.14379855209E+03  0.11630425179E+03 -0.48950640988E+02  0.19131353277E+03  0.00000000000E+00 0. -1.
         -1    1    4    4    0  503 -0.58017179172E+02  0.18682304406E+03  0.27836328851E+02  0.19759479769E+03  0.00000000000E+00 0.  1.
<mgrwt>
<rscale>  0 0.23916859E+04</rscale>
<asrwt>0</asrwt>
<pdfrwt beam="1">  1        2 0.16056720E+00 0.23916859E+04</pdfrwt>
<pdfrwt beam="2">  1       -1 0.21079715E+00 0.23916859E+04</pdfrwt>
<totfact> 0.30771896E+00</totfact>
</mgrwt>
</event>
<event>
12    7  0.1497947E-008  0.2084142E+04  0.7818608E-02  0.8568261E-01
         -3   -1    0    0    0  501 -0.00000000000E+00  0.00000000000E+00  0.50822508011E+03  0.50822508011E+03  0.00000000000E+00 0.  1.
          2   -1    0    0  501    0  0.00000000000E+00 -0.00000000000E+00 -0.21366755440E+04  0.21366755440E+04  0.00000000000E+00 0. -1.
         24    2    1    2    0    0  0.29239209438E+03 -0.76850360608E+03 -0.43118619930E+03  0.93222325428E+03  0.83831545035E+02 0.  0.
        254    2    1    2    0    0 -0.29239209438E+03  0.76850360608E+03 -0.11972642646E+04  0.17126773698E+04  0.90759634444E+03 0.  0.
         23    2    4    4    0    0 -0.27217923679E+03  0.38698261407E+03 -0.12216962679E+04  0.13135304418E+04  0.94780641288E+02 0.  0.
         23    2    4    4    0    0 -0.20212857587E+02  0.38152099201E+03  0.24432003290E+02  0.39914692806E+03  0.11293591296E+03 0.  0.
          4    1    3    3  502    0  0.53200891909E+02 -0.91449748994E+02 -0.81441632067E+02  0.13351453451E+03  0.00000000000E+00 0. -1.
         -3    1    3    3    0  502  0.23919120247E+03 -0.67705385709E+03 -0.34974456723E+03  0.79870871978E+03  0.00000000000E+00 0.  1.
         13    1    5    5    0    0 -0.10948178431E+03  0.20963645222E+03 -0.70308065147E+03  0.74179249502E+03  0.00000000000E+00 0.  1.
        -13    1    5    5    0    0 -0.16269745248E+03  0.17734616186E+03 -0.51861561643E+03  0.57173794677E+03  0.00000000000E+00 0. -1.
          3    1    6    6  503    0  0.15667730199E+02  0.31760541986E+03  0.49204150209E+02  0.32177589855E+03  0.00000000000E+00 0. -1.
         -3    1    6    6    0  503 -0.35880587786E+02  0.63915572151E+02 -0.24772146919E+02  0.77371029503E+02  0.00000000000E+00 0.  1.
<mgrwt>
<rscale>  0 0.20841421E+04</rscale>
<asrwt>0</asrwt>
<pdfrwt beam="1">  1        2 0.32871931E+00 0.20841421E+04</pdfrwt>
<pdfrwt beam="2">  1       -3 0.78188474E-01 0.20841421E+04</pdfrwt>
<totfact> 0.50637081E+00</totfact>
</mgrwt>
</event>
<event>
12    7  0.1497947E-008  0.1694309E+04  0.7818608E-02  0.8764617E-01
          2   -1    0    0  501    0  0.00000000000E+00  0.00000000000E+00  0.14961140682E+04  0.14961140682E+04  0.00000000000E+00 0. -1.
         -1   -1    0    0    0  501 -0.00000000000E+00 -0.00000000000E+00 -0.47968990822E+03  0.47968990822E+03  0.00000000000E+00 0.  1.
         24    2    1    2    0    0  0.46284943573E+03 -0.37578177918E+03  0.48199453890E+03  0.77133736591E+03  0.84859005405E+02 0.  0.
        254    2    1    2    0    0 -0.46284943573E+03  0.37578177918E+03  0.53442962105E+03  0.12044666105E+04  0.89982401069E+03 0.  0.
         23    2    4    4    0    0 -0.10646132255E+03  0.13285305532E+03 -0.24452788770E+03  0.31063386005E+03  0.87838258398E+02 0.  0.
         23    2    4    4    0    0 -0.35638811318E+03  0.24292872387E+03  0.77895750876E+03  0.89383275044E+03  0.78328367959E+02 0.  0.
          2    1    3    3  502    0  0.36793007729E+03 -0.33806492058E+03  0.41052846622E+03  0.64667925116E+03  0.00000000000E+00 0. -1.
         -1    1    3    3    0  502  0.94919358438E+02 -0.37716858607E+02  0.71466072681E+02  0.12465811475E+03  0.00000000000E+00 0.  1.
         13    1    5    5    0    0 -0.57066201879E+02  0.12551658637E+03 -0.20447313299E+03  0.24661757229E+03  0.00000000000E+00 0. -1.
        -13    1    5    5    0    0 -0.49395120671E+02  0.73364689518E+01 -0.40054754714E+02  0.64016287756E+02  0.00000000000E+00 0.  1.
          3    1    6    6  503    0 -0.23724691064E+03  0.20435001399E+03  0.55367177998E+03  0.63607976290E+03  0.00000000000E+00 0. -1.
         -3    1    6    6    0  503 -0.11914120253E+03  0.38578709875E+02  0.22528572878E+03  0.25775298754E+03  0.00000000000E+00 0.  1.
<mgrwt>
<rscale>  0 0.16943091E+04</rscale>
<asrwt>0</asrwt>
<pdfrwt beam="1">  1        2 0.23017139E+00 0.16943091E+04</pdfrwt>
<pdfrwt beam="2">  1       -1 0.73798448E-01 0.16943091E+04</pdfrwt>
<totfact> 0.25593852E+01</totfact>
</mgrwt>
</event>
<event>
12    7  0.1497947E-008  0.1767817E+04  0.7818608E-02  0.8723604E-01
          2   -1    0    0  501    0  0.00000000000E+00  0.00000000000E+00  0.17184623847E+04  0.17184623847E+04  0.00000000000E+00 0. -1.
         -1   -1    0    0    0  501 -0.00000000000E+00 -0.00000000000E+00 -0.45464705489E+03  0.45464705489E+03  0.00000000000E+00 0.  1.
         24    2    1    2    0    0 -0.37514830333E+03 -0.46159320253E+03  0.81181681907E+03  0.10095159836E+04  0.79192420076E+02 0.  0.
        254    2    1    2    0    0  0.37514830333E+03  0.46159320253E+03  0.45199851074E+03  0.11635934559E+04  0.89210007448E+03 0.  0.
         23    2    4    4    0    0  0.54250356736E+03  0.51242319595E+03  0.10482111774E+03  0.75883468672E+03  0.89190597559E+02 0.  0.
         23    2    4    4    0    0 -0.16735526404E+03 -0.50829993422E+02  0.34717739300E+03  0.40475876922E+03  0.11272110014E+03 0.  0.
          4    1    3    3  502    0 -0.20962514265E+03 -0.30806223783E+03  0.54156001177E+03  0.65736769708E+03  0.00000000000E+00 0. -1.
         -3    1    3    3    0  502 -0.16552316068E+03 -0.15353096470E+03  0.27025680730E+03  0.35214828657E+03  0.00000000000E+00 0.  1.
         13    1    5    5    0    0  0.39386349292E+03  0.42202798414E+03  0.71104799966E+02  0.58162871579E+03  0.00000000000E+00 0.  1.
        -13    1    5    5    0    0  0.14864007444E+03  0.90395211812E+02  0.33716317774E+02  0.17720597093E+03  0.00000000000E+00 0. -1.
          4    1    6    6  503    0 -0.10543589873E+03  0.24276215363E+02  0.15101090320E+03  0.18576963223E+03  0.00000000000E+00 0. -1.
         -4    1    6    6    0  503 -0.61919365304E+02 -0.75106208785E+02  0.19616648980E+03  0.21898913699E+03  0.00000000000E+00 0.  1.
<mgrwt>
<rscale>  0 0.17678166E+04</rscale>
<asrwt>0</asrwt>
<pdfrwt beam="1">  1        2 0.26437883E+00 0.17678166E+04</pdfrwt>
<pdfrwt beam="2">  1       -1 0.69945701E-01 0.17678166E+04</pdfrwt>
<totfact> 0.21338041E+01</totfact>
</mgrwt>
</event>
<event>
12    7  0.1497947E-008  0.1133331E+04  0.7818608E-02  0.9173301E-01
         -1   -1    0    0    0  501 -0.00000000000E+00  0.00000000000E+00  0.15734471502E+03  0.15734471502E+03  0.00000000000E+00 0.  1.
          2   -1    0    0  501    0  0.00000000000E+00 -0.00000000000E+00 -0.20408040019E+04  0.20408040019E+04  0.00000000000E+00 0. -1.
         24    2    1    2    0    0 -0.71209823691E+02  0.11640682800E+03 -0.74014829224E+02  0.17391074049E+03  0.78392360081E+02 0.  0.
        254    2    1    2    0    0  0.71209823691E+02 -0.11640682800E+03 -0.18094444577E+04  0.20242379765E+04  0.89712248400E+03 0.  0.
         23    2    4    4    0    0  0.37858479616E+03 -0.11657853469E+03 -0.15652024309E+04  0.16171253617E+04  0.91207362873E+02 0.  0.
         23    2    4    4    0    0 -0.30737497247E+03  0.17170669193E+00 -0.24424202675E+03  0.40711261475E+03  0.10773629971E+03 0.  0.
          4    1    3    3  502    0 -0.30261700717E+01  0.45154243504E+02 -0.58682221442E+02  0.74105779296E+02  0.00000000000E+00 0. -1.
         -3    1    3    3    0  502 -0.68183653620E+02  0.71252584495E+02 -0.15332607781E+02  0.99804961197E+02  0.00000000000E+00 0.  1.
         13    1    5    5    0    0  0.23517001499E+03 -0.56291132904E+02 -0.77859311738E+03  0.81527962689E+03  0.00000000000E+00 0. -1.
        -13    1    5    5    0    0  0.14341478117E+03 -0.60287401787E+02 -0.78660931356E+03  0.80184573482E+03  0.00000000000E+00 0.  1.
          4    1    6    6  503    0 -0.29029669479E+03 -0.22239014473E+02 -0.19512013452E+03  0.35048339714E+03  0.00000000000E+00 0. -1.
         -4    1    6    6    0  503 -0.17078277676E+02  0.22410721164E+02 -0.49121892234E+02  0.56629217619E+02  0.00000000000E+00 0.  1.
<mgrwt>
<rscale>  0 0.11333309E+04</rscale>
<asrwt>0</asrwt>
<pdfrwt beam="1">  1        2 0.31396984E+00 0.11333309E+04</pdfrwt>
<pdfrwt beam="2">  1       -1 0.24206879E-01 0.11333309E+04</pdfrwt>
<totfact> 0.10618240E+02</totfact>
</mgrwt>
</event>
<event>
12    7  0.1497947E-008  0.1588363E+04  0.7818608E-02  0.8827729E-01
         -1   -1    0    0    0  501 -0.00000000000E+00  0.00000000000E+00  0.77357433578E+03  0.77357433578E+03  0.00000000000E+00 0.  1.
          2   -1    0    0  501    0  0.00000000000E+00 -0.00000000000E+00 -0.81533755531E+03  0.81533755531E+03  0.00000000000E+00 0. -1.
         24    2    1    2    0    0 -0.48487014506E+03 -0.35404825153E+02  0.21130285464E+03  0.53606501272E+03  0.79776201108E+02 0.  0.
        254    2    1    2    0    0  0.48487014506E+03  0.35404825153E+02 -0.25306607417E+03  0.10528468784E+04  0.89893912597E+03 0.  0.
         23    2    4    4    0    0  0.75260100125E+02 -0.28521806622E+03 -0.40111750523E+03  0.50648445221E+03  0.92832210793E+02 0.  0.
         23    2    4    4    0    0  0.40961004494E+03  0.32062289137E+03  0.14805143105E+03  0.54636242617E+03  0.77545129496E+02 0.  0.
          2    1    3    3  502    0 -0.50757562575E+01  0.91670080973E+01  0.18033041016E+01  0.10632461837E+02  0.00000000000E+00 0. -1.
         -1    1    3    3    0  502 -0.47979438880E+03 -0.44571833250E+02  0.20949955054E+03  0.52543255088E+03  0.00000000000E+00 0.  1.
         13    1    5    5    0    0  0.36590811027E+01 -0.86108249016E+02 -0.18468726142E+03  0.20380727159E+03  0.00000000000E+00 0. -1.
        -13    1    5    5    0    0  0.71601019022E+02 -0.19910981720E+03 -0.21643024381E+03  0.30267718062E+03  0.00000000000E+00 0.  1.
          4    1    6    6  503    0  0.79751156573E+01 -0.28014140184E+01  0.88455084506E+01  0.12234925827E+02  0.00000000000E+00 0. -1.
         -4    1    6    6    0  503  0.40163492928E+03  0.32342430539E+03  0.13920592260E+03  0.53412750034E+03  0.00000000000E+00 0.  1.
<mgrwt>
<rscale>  0 0.15883629E+04</rscale>
<asrwt>0</asrwt>
<pdfrwt beam="1">  1        2 0.12543655E+00 0.15883629E+04</pdfrwt>
<pdfrwt beam="2">  1       -1 0.11901144E+00 0.15883629E+04</pdfrwt>
<totfact> 0.23251703E+01</totfact>
</mgrwt>
</event>
<event>
12    7  0.1497947E-008  0.1224040E+04  0.7818608E-02  0.9092071E-01
          2   -1    0    0  501    0  0.00000000000E+00  0.00000000000E+00  0.80012438119E+03  0.80012438119E+03  0.00000000000E+00 0. -1.
         -1   -1    0    0    0  501 -0.00000000000E+00 -0.00000000000E+00 -0.46813761435E+03  0.46813761435E+03  0.00000000000E+00 0.  1.
         24    2    1    2    0    0  0.98387899771E+02 -0.14458405866E+03 -0.13654698091E+03  0.23502951076E+03  0.77518153297E+02 0.  0.
        254    2    1    2    0    0 -0.98387899771E+02  0.14458405866E+03  0.46853374775E+03  0.10332324848E+04  0.90413536927E+03 0.  0.
         23    2    4    4    0    0 -0.45425007957E+03 -0.10898235517E+03  0.27654351690E+03  0.55040739087E+03  0.90838816922E+02 0.  0.
         23    2    4    4    0    0  0.35586217980E+03  0.25356641384E+03  0.19199023085E+03  0.48282509390E+03  0.72979485622E+02 0.  0.
          4    1    3    3  502    0  0.26680145484E+02 -0.96941505026E+01  0.24505851533E+01  0.28492316238E+02  0.00000000000E+00 0. -1.
         -3    1    3    3    0  502  0.71707754287E+02 -0.13488990816E+03 -0.13899756606E+03  0.20653719452E+03  0.00000000000E+00 0.  1.
         13    1    5    5    0    0 -0.77643865145E+02  0.10239937163E+02  0.67969186066E+02  0.10369781272E+03  0.00000000000E+00 0.  1.
        -13    1    5    5    0    0 -0.37660621443E+03 -0.11922229234E+03  0.20857433083E+03  0.44670957815E+03  0.00000000000E+00 0. -1.
          3    1    6    6  503    0  0.20285051927E+03  0.13038441248E+03  0.14308101482E+03  0.28039366075E+03  0.00000000000E+00 0. -1.
         -3    1    6    6    0  503  0.15301166053E+03  0.12318200135E+03  0.48909216034E+02  0.20243143316E+03  0.00000000000E+00 0.  1.
<mgrwt>
<rscale>  0 0.12240397E+04</rscale>
<asrwt>0</asrwt>
<pdfrwt beam="1">  1        2 0.12309606E+00 0.12240397E+04</pdfrwt>
<pdfrwt beam="2">  1       -1 0.72021171E-01 0.12240397E+04</pdfrwt>
<totfact> 0.75382929E+01</totfact>
</mgrwt>
</event>
<event>
11    7  0.1497947E-008  0.2008009E+04  0.7818608E-02  0.8602885E-01
         -1   -1    0    0    0  501 -0.00000000000E+00  0.00000000000E+00  0.99041335816E+03  0.99041335816E+03  0.00000000000E+00 0.  1.
          2   -1    0    0  501    0  0.00000000000E+00 -0.00000000000E+00 -0.10177820996E+04  0.10177820996E+04  0.00000000000E+00 0. -1.
         24    2    1    2    0    0  0.47920604084E+03 -0.41268468696E+03 -0.56102161496E+03  0.84923921732E+03  0.80715025549E+02 0.  0.
        254    2    1    2    0    0 -0.47920604084E+03  0.41268468696E+03  0.53365287348E+03  0.11589562405E+04  0.81144753222E+03 0.  0.
         23    2    4    4    0    0  0.13225059089E+03 -0.50043442151E+02 -0.47863972166E+02  0.17495152782E+03  0.91227804769E+02 0.  0.
          4    1    3    3  502    0  0.10659030086E+03 -0.83739713855E+02 -0.79173887533E+02  0.15697877685E+03  0.00000000000E+00 0. -1.
         -3    1    3    3    0  502  0.37261573998E+03 -0.32894497310E+03 -0.48184772743E+03  0.69226044047E+03  0.00000000000E+00 0.  1.
         13    1    5    5    0    0  0.13367199781E+03 -0.53202039497E+02 -0.18120363586E+02  0.14500692253E+03  0.00000000000E+00 0. -1.
        -13    1    5    5    0    0 -0.14214069203E+01  0.31585973453E+01 -0.29743608579E+02  0.29944605293E+02  0.00000000000E+00 0.  1.
          4    1    4    4  503    0 -0.37676374073E+03  0.16019380211E+03  0.33057552703E+03  0.52620637552E+03  0.00000000000E+00 0. -1.
         -4    1    4    4    0  503 -0.23469289099E+03  0.30253432700E+03  0.25094131861E+03  0.45779833714E+03  0.00000000000E+00 0.  1.
<mgrwt>
<rscale>  0 0.20080090E+04</rscale>
<asrwt>0</asrwt>
<pdfrwt beam="1">  1        2 0.15658186E+00 0.20080090E+04</pdfrwt>
<pdfrwt beam="2">  1       -1 0.15237129E+00 0.20080090E+04</pdfrwt>
<totfact> 0.86892703E+00</totfact>
</mgrwt>
</event>
<event>
11    7  0.1497947E-008  0.1912789E+04  0.7818608E-02  0.8648517E-01
          2   -1    0    0  501    0  0.00000000000E+00  0.00000000000E+00  0.36128621949E+04  0.36128621949E+04  0.00000000000E+00 0. -1.
         -3   -1    0    0    0  501 -0.00000000000E+00 -0.00000000000E+00 -0.25317609216E+03  0.25317609216E+03  0.00000000000E+00 0.  1.
         24    2    1    2    0    0  0.10556643484E+03 -0.33514680890E+03  0.25944898630E+04  0.26194274766E+04  0.80962956788E+02 0.  0.
        254    2    1    2    0    0 -0.10556643484E+03  0.33514680890E+03  0.76519623975E+03  0.12466108104E+04  0.91926360295E+03 0.  0.
         23    2    4    4    0    0  0.28680752580E+02  0.28288763485E+03 -0.12856091663E+03  0.32500825707E+03  0.90854049748E+02 0.  0.
          4    1    3    3  502    0  0.71534583546E+02 -0.28989105646E+03  0.23218096301E+04  0.23409301527E+04  0.00000000000E+00 0. -1.
         -3    1    3    3    0  502  0.34031851292E+02 -0.45255752438E+02  0.27268023288E+03  0.27849732393E+03  0.00000000000E+00 0.  1.
         13    1    5    5    0    0  0.51915020373E+02  0.23385186751E+03 -0.12605776895E+03  0.27068879990E+03  0.00000000000E+00 0.  1.
        -13    1    5    5    0    0 -0.23234267792E+02  0.49035767340E+02 -0.25031476817E+01  0.54319457166E+02  0.00000000000E+00 0. -1.
          4    1    4    4  503    0 -0.11152281487E+03  0.12376512260E+02  0.22651765960E+03  0.25278600911E+03  0.00000000000E+00 0. -1.
         -4    1    4    4    0  503 -0.22724372551E+02  0.39882661788E+02  0.66723949679E+03  0.66881654427E+03  0.00000000000E+00 0.  1.
<mgrwt>
<rscale>  0 0.19127889E+04</rscale>
<asrwt>0</asrwt>
<pdfrwt beam="1">  1        2 0.55582492E+00 0.19127889E+04</pdfrwt>
<pdfrwt beam="2">  1       -3 0.38950171E-01 0.19127889E+04</pdfrwt>
<totfact> 0.27078428E+00</totfact>
</mgrwt>
</event>
<event>
11    7  0.1497947E-008  0.1340757E+04  0.7818608E-02  0.8997855E-01
          2   -1    0    0  501    0  0.00000000000E+00  0.00000000000E+00  0.17964066337E+04  0.17964066337E+04  0.00000000000E+00 0. -1.
         -1   -1    0    0    0  501 -0.00000000000E+00 -0.00000000000E+00 -0.25017009165E+03  0.25017009165E+03  0.00000000000E+00 0.  1.
         24    2    1    2    0    0 -0.79351168960E+02 -0.20591742302E+03  0.90375258505E+01  0.23488590729E+03  0.79944477310E+02 0.  0.
        254    2    1    2    0    0  0.79351168960E+02  0.20591742302E+03  0.15371990162E+04  0.18116908181E+04  0.93302958780E+03 0.  0.
         23    2    4    4    0    0  0.19353219614E+03  0.93472264870E+02 -0.48872794708E+01  0.23314046344E+03  0.90215380902E+02 0.  0.
          4    1    3    3  502    0 -0.11064946560E+02 -0.11681034305E+03  0.28993990675E+02  0.12086248707E+03  0.00000000000E+00 0. -1.
         -3    1    3    3    0  502 -0.68286222401E+02 -0.89107079969E+02 -0.19956464824E+02  0.11402342022E+03  0.00000000000E+00 0.  1.
         13    1    5    5    0    0  0.19930111737E+03  0.85694321011E+02 -0.17028016709E+02  0.21761067389E+03  0.00000000000E+00 0. -1.
        -13    1    5    5    0    0 -0.57689212305E+01  0.77779438591E+01  0.12140737238E+02  0.15529789552E+02  0.00000000000E+00 0.  1.
          1    1    4    4  503    0  0.26568250451E+02  0.30063782436E+02  0.11883774854E+04  0.11890545617E+04  0.00000000000E+00 0. -1.
         -1    1    4    4    0  503 -0.14074927763E+03  0.82381375710E+02  0.35370881028E+03  0.38949579290E+03  0.00000000000E+00 0.  1.
<mgrwt>
<rscale>  0 0.13407568E+04</rscale>
<asrwt>0</asrwt>
<pdfrwt beam="1">  1        2 0.27637024E+00 0.13407568E+04</pdfrwt>
<pdfrwt beam="2">  1       -1 0.38487707E-01 0.13407568E+04</pdfrwt>
<totfact> 0.63086702E+01</totfact>
</mgrwt>
</event>
<event>
12    7  0.1497947E-008  0.4573413E+04  0.7818608E-02  0.7897909E-01
         -1   -1    0    0    0  501 -0.00000000000E+00  0.00000000000E+00  0.26818104821E+04  0.26818104821E+04  0.00000000000E+00 0.  1.
          2   -1    0    0  501    0  0.00000000000E+00 -0.00000000000E+00 -0.19498123901E+04  0.19498123901E+04  0.00000000000E+00 0. -1.
         24    2    1    2    0    0  0.13333883915E+04  0.16965863069E+04  0.68705797789E+03  0.22659412952E+04  0.78176651425E+02 0.  0.
        254    2    1    2    0    0 -0.13333883915E+04 -0.16965863069E+04  0.44940114137E+02  0.23656815770E+04  0.96855563117E+03 0.  0.
         23    2    4    4    0    0 -0.14308657872E+04 -0.13194274982E+04  0.12702740886E+03  0.19527986236E+04  0.94977247726E+02 0.  0.
         23    2    4    4    0    0  0.97477395701E+02 -0.37715880867E+03 -0.82087294720E+02  0.41288295345E+03  0.10946871546E+03 0.  0.
          2    1    3    3  502    0  0.93311374279E+02  0.14157053397E+03  0.70546894951E+02  0.18364665269E+03  0.00000000000E+00 0. -1.
         -1    1    3    3    0  502  0.12400770172E+04  0.15550157729E+04  0.61651108294E+03  0.20822946425E+04  0.00000000000E+00 0.  1.
         13    1    5    5    0    0 -0.64013910428E+03 -0.65436611885E+03  0.64931469271E+02  0.91770866076E+03  0.00000000000E+00 0. -1.
        -13    1    5    5    0    0 -0.79072668289E+03 -0.66506137940E+03  0.62095939586E+02  0.10350899628E+04  0.00000000000E+00 0.  1.
          3    1    6    6  503    0  0.10760611380E+03 -0.37735255477E+03 -0.86527326884E+02  0.40182210568E+03  0.00000000000E+00 0. -1.
         -3    1    6    6    0  503 -0.10128718096E+02  0.19374609432E+00  0.44400321642E+01  0.11060847772E+02  0.00000000000E+00 0.  1.
<mgrwt>
<rscale>  0 0.45734133E+04</rscale>
<asrwt>0</asrwt>
<pdfrwt beam="1">  1        2 0.29997114E+00 0.45734133E+04</pdfrwt>
<pdfrwt beam="2">  1       -1 0.41258622E+00 0.45734133E+04</pdfrwt>
<totfact> 0.35835908E-02</totfact>
</mgrwt>
</event>
<event>
12    7  0.1497947E-008  0.1177219E+04  0.7818608E-02  0.9133034E-01
         -1   -1    0    0    0  501 -0.00000000000E+00  0.00000000000E+00  0.34317153059E+03  0.34317153059E+03  0.00000000000E+00 0.  1.
          2   -1    0    0  501    0  0.00000000000E+00 -0.00000000000E+00 -0.10095857403E+04  0.10095857403E+04  0.00000000000E+00 0. -1.
         24    2    1    2    0    0  0.15649193936E+03 -0.92796293013E+01  0.40214360679E+02  0.18212860261E+03  0.83533193868E+02 0.  0.
        254    2    1    2    0    0 -0.15649193936E+03  0.92796293013E+01 -0.70662857042E+03  0.11706286683E+04  0.92003896872E+03 0.  0.
         23    2    4    4    0    0  0.35778254554E+03  0.98120018776E+02 -0.41044569855E+03  0.56061295616E+03  0.90472798012E+02 0.  0.
         23    2    4    4    0    0 -0.51427448490E+03 -0.88840389475E+02 -0.29618287187E+03  0.61001571216E+03  0.10965406909E+03 0.  0.
          2    1    3    3  502    0  0.68982183692E+02  0.14554711101E+02 -0.19975458364E+02  0.73276191352E+02  0.00000000000E+00 0. -1.
         -1    1    3    3    0  502  0.87509755671E+02 -0.23834340403E+02  0.60189819043E+02  0.10885241126E+03  0.00000000000E+00 0.  1.
         13    1    5    5    0    0  0.30909093596E+02 -0.16994032932E+02 -0.40355793048E+02  0.53598127344E+02  0.00000000000E+00 0.  1.
        -13    1    5    5    0    0  0.32687345195E+03  0.11511405171E+03 -0.37008990550E+03  0.50701482882E+03  0.00000000000E+00 0. -1.
          1    1    6    6  503    0 -0.45751662946E+03 -0.11231582873E+03 -0.27214708488E+03  0.54405913964E+03  0.00000000000E+00 0. -1.
         -1    1    6    6    0  503 -0.56757855443E+02  0.23475439251E+02 -0.24035786990E+02  0.65956572521E+02  0.00000000000E+00 0.  1.
<mgrwt>
<rscale>  0 0.11772189E+04</rscale>
<asrwt>0</asrwt>
<pdfrwt beam="1">  1        2 0.15532088E+00 0.11772189E+04</pdfrwt>
<pdfrwt beam="2">  1       -1 0.52795621E-01 0.11772189E+04</pdfrwt>
<totfact> 0.10120431E+02</totfact>
</mgrwt>
</event>
<event>
12    7  0.1497947E-008  0.1833372E+04  0.7818608E-02  0.8688751E-01
          2   -1    0    0  501    0  0.00000000000E+00  0.00000000000E+00  0.17197344407E+04  0.17197344407E+04  0.00000000000E+00 0. -1.
         -1   -1    0    0    0  501 -0.00000000000E+00 -0.00000000000E+00 -0.48862960318E+03  0.48862960318E+03  0.00000000000E+00 0.  1.
         24    2    1    2    0    0  0.53430888803E+03  0.99608564601E+01  0.10001926233E+04  0.11367813337E+04  0.79380794319E+02 0.  0.
        254    2    1    2    0    0 -0.53430888803E+03 -0.99608564601E+01  0.23091221428E+03  0.10715827102E+04  0.89965762801E+03 0.  0.
         23    2    4    4    0    0  0.38379211662E+01  0.20179350992E+03  0.40694049465E+03  0.46327239160E+03  0.91024130621E+02 0.  0.
         23    2    4    4    0    0 -0.53814680920E+03 -0.21175436638E+03 -0.17602828037E+03  0.60831031861E+03  0.67923400325E+02 0.  0.
          2    1    3    3  502    0  0.23632717976E+03 -0.23321488216E+02  0.38371440698E+03  0.45125510948E+03  0.00000000000E+00 0. -1.
         -1    1    3    3    0  502  0.29798170827E+03  0.33282344676E+02  0.61647821628E+03  0.68552622420E+03  0.00000000000E+00 0.  1.
         13    1    5    5    0    0  0.13510194379E+02  0.16644668188E+03  0.24015832628E+03  0.29251161506E+03  0.00000000000E+00 0. -1.
        -13    1    5    5    0    0 -0.96722732132E+01  0.35346828032E+02  0.16678216837E+03  0.17076077655E+03  0.00000000000E+00 0.  1.
          4    1    6    6  503    0 -0.52388857144E+03 -0.19439308327E+03 -0.16190567462E+03  0.58177431499E+03  0.00000000000E+00 0. -1.
         -4    1    6    6    0  503 -0.14258237757E+02 -0.17361283107E+02 -0.14122605748E+02  0.26536003621E+02  0.00000000000E+00 0.  1.
<mgrwt>
<rscale>  0 0.18333719E+04</rscale>
<asrwt>0</asrwt>
<pdfrwt beam="1">  1        2 0.26457453E+00 0.18333719E+04</pdfrwt>
<pdfrwt beam="2">  1       -1 0.75173786E-01 0.18333719E+04</pdfrwt>
<totfact> 0.18245345E+01</totfact>
</mgrwt>
</event>
<event>
12    7  0.1497947E-008  0.1539690E+04  0.7818608E-02  0.8858480E-01
         -1   -1    0    0    0  501 -0.00000000000E+00  0.00000000000E+00  0.11280322334E+04  0.11280322334E+04  0.00000000000E+00 0.  1.
          2   -1    0    0  501    0  0.00000000000E+00 -0.00000000000E+00 -0.52539409827E+03  0.52539409827E+03  0.00000000000E+00 0. -1.
         24    2    1    2    0    0 -0.31743709685E+03 -0.13958780121E+01 -0.21564937412E+03  0.39504151745E+03  0.93727738805E+02 0.  0.
        254    2    1    2    0    0  0.31743709685E+03  0.13958780121E+01  0.81828750927E+03  0.12583848143E+04  0.90175918846E+03 0.  0.
         23    2    4    4    0    0  0.10864439094E+03  0.34895161641E+03  0.75223135482E+03  0.84114173626E+03  0.89980970346E+02 0.  0.
         23    2    4    4    0    0  0.20879270590E+03 -0.34755573840E+03  0.66056154450E+02  0.41724307799E+03  0.73068360163E+02 0.  0.
          4    1    3    3  502    0 -0.17528101484E+03  0.45437029233E+02 -0.12556173676E+03  0.22034905837E+03  0.00000000000E+00 0. -1.
         -3    1    3    3    0  502 -0.14215608201E+03 -0.46832907245E+02 -0.90087637362E+02  0.17469245908E+03  0.00000000000E+00 0.  1.
         13    1    5    5    0    0  0.79714358994E+02  0.23512420824E+03  0.40990061218E+03  0.47922466986E+03  0.00000000000E+00 0.  1.
        -13    1    5    5    0    0  0.28930031951E+02  0.11382740817E+03  0.34233074264E+03  0.36191706641E+03  0.00000000000E+00 0. -1.
          4    1    6    6  503    0  0.55429159066E+02 -0.77370012477E+02 -0.14542224680E+02  0.96280770687E+02  0.00000000000E+00 0. -1.
         -4    1    6    6    0  503  0.15336354684E+03 -0.27018572592E+03  0.80598379129E+02  0.32096230730E+03  0.00000000000E+00 0.  1.
<mgrwt>
<rscale>  0 0.15396902E+04</rscale>
<asrwt>0</asrwt>
<pdfrwt beam="1">  1        2 0.80829861E-01 0.15396902E+04</pdfrwt>
<pdfrwt beam="2">  1       -1 0.17354342E+00 0.15396902E+04</pdfrwt>
<totfact> 0.14830001E+01</totfact>
</mgrwt>
</event>
<event>
12    7  0.1497947E-008  0.1801210E+04  0.7818608E-02  0.8705656E-01
          2   -1    0    0  501    0  0.00000000000E+00  0.00000000000E+00  0.75404500028E+03  0.75404500028E+03  0.00000000000E+00 0. -1.
         -1   -1    0    0    0  501 -0.00000000000E+00 -0.00000000000E+00 -0.10756513211E+04  0.10756513211E+04  0.00000000000E+00 0.  1.
         24    2    1    2    0    0  0.29104826365E+03  0.16835119886E+03 -0.70612500836E+03  0.78594080413E+03  0.77712304237E+02 0.  0.
        254    2    1    2    0    0 -0.29104826365E+03 -0.16835119886E+03  0.38451868753E+03  0.10437555173E+04  0.91023059761E+03 0.  0.
         23    2    4    4    0    0  0.19753799060E+03  0.24305678518E+03  0.16504072521E+03  0.36390685169E+03  0.84213402596E+02 0.  0.
         23    2    4    4    0    0 -0.48858625425E+03 -0.41140798404E+03  0.21947796232E+03  0.67984866556E+03  0.77785441782E+02 0.  0.
          4    1    3    3  502    0  0.72249082093E+02  0.34587662456E+02 -0.25181480563E+03  0.26424786204E+03  0.00000000000E+00 0. -1.
         -3    1    3    3    0  502  0.21879918155E+03  0.13376353640E+03 -0.45431020273E+03  0.52169294209E+03  0.00000000000E+00 0.  1.
         13    1    5    5    0    0  0.98715607211E+02  0.10622742515E+03  0.12253602370E+03  0.18985287479E+03  0.00000000000E+00 0.  1.
        -13    1    5    5    0    0  0.98822383390E+02  0.13682936003E+03  0.42504701509E+02  0.17405397690E+03  0.00000000000E+00 0. -1.
          2    1    6    6  503    0 -0.19088063700E+03 -0.11729254124E+03  0.59297499176E+02  0.23175234890E+03  0.00000000000E+00 0.  1.
         -2    1    6    6    0  503 -0.29770561725E+03 -0.29411544281E+03  0.16018046314E+03  0.44809631667E+03  0.00000000000E+00 0. -1.
<mgrwt>
<rscale>  0 0.18012101E+04</rscale>
<asrwt>0</asrwt>
<pdfrwt beam="1">  1        2 0.11600692E+00 0.18012101E+04</pdfrwt>
<pdfrwt beam="2">  1       -1 0.16548482E+00 0.18012101E+04</pdfrwt>
<totfact> 0.10665315E+01</totfact>
</mgrwt>
</event>
<event>
11    7  0.1497947E-008  0.2049201E+04  0.7818608E-02  0.8583957E-01
         -1   -1    0    0    0  501 -0.00000000000E+00  0.00000000000E+00  0.19522765325E+04  0.19522765325E+04  0.00000000000E+00 0.  1.
          2   -1    0    0  501    0  0.00000000000E+00 -0.00000000000E+00 -0.53773432041E+03  0.53773432041E+03  0.00000000000E+00 0. -1.
         24    2    1    2    0    0 -0.29070104835E+03 -0.59482549739E+03  0.11420937983E+04  0.13226654175E+04  0.82104145632E+02 0.  0.
        254    2    1    2    0    0  0.29070104835E+03  0.59482549739E+03  0.27244841380E+03  0.11673454354E+04  0.92203186250E+03 0.  0.
         23    2    4    4    0    0 -0.28167594062E+03 -0.24741626893E+01  0.83840052325E+02  0.30741124726E+03  0.90139134485E+02 0.  0.
          4    1    3    3  502    0 -0.24716851588E+03 -0.50343519994E+03  0.90251364256E+03  0.10625771270E+04  0.00000000000E+00 0. -1.
         -3    1    3    3    0  502 -0.43532532471E+02 -0.91390297453E+02  0.23958015570E+03  0.26008829050E+03  0.00000000000E+00 0.  1.
         13    1    5    5    0    0 -0.78182246611E+02 -0.39041232231E+02  0.10411348992E+02  0.88006123009E+02  0.00000000000E+00 0. -1.
        -13    1    5    5    0    0 -0.20349369400E+03  0.36567069542E+02  0.73428703333E+02  0.21940512425E+03  0.00000000000E+00 0.  1.
          3    1    4    4  503    0  0.47267514718E+03  0.51249576564E+03  0.20813781162E+03  0.72759539113E+03  0.00000000000E+00 0. -1.
         -3    1    4    4    0  503  0.99701841781E+02  0.84803894441E+02 -0.19529450153E+02  0.13233879700E+03  0.00000000000E+00 0.  1.
<mgrwt>
<rscale>  0 0.20492009E+04</rscale>
<asrwt>0</asrwt>
<pdfrwt beam="1">  1        2 0.82728358E-01 0.20492009E+04</pdfrwt>
<pdfrwt beam="2">  1       -1 0.30035023E+00 0.20492009E+04</pdfrwt>
<totfact> 0.19643984E+00</totfact>
</mgrwt>
</event>
<event>
12    7  0.1497947E-008  0.2185251E+04  0.7818608E-02  0.8524592E-01
          2   -1    0    0  501    0  0.00000000000E+00  0.00000000000E+00  0.24510714198E+04  0.24510714198E+04  0.00000000000E+00 0. -1.
         -1   -1    0    0    0  501 -0.00000000000E+00 -0.00000000000E+00 -0.48706456889E+03  0.48706456889E+03  0.00000000000E+00 0.  1.
         24    2    1    2    0    0 -0.22916932378E+03  0.44855694833E+03 -0.19367522385E+03  0.54556836091E+03  0.80080142564E+02 0.  0.
        254    2    1    2    0    0  0.22916932378E+03 -0.44855694833E+03  0.21576820748E+04  0.23925676278E+04  0.90281005916E+03 0.  0.
         23    2    4    4    0    0 -0.90321230995E+02 -0.24866162943E+02 -0.37409303082E+02  0.13123450651E+03  0.83945154197E+02 0.  0.
         23    2    4    4    0    0  0.31949055478E+03 -0.42369078539E+03  0.21950913779E+04  0.22613331213E+04  0.11667575616E+03 0.  0.
          2    1    3    3  502    0 -0.10969233263E+03  0.19235710577E+03 -0.44237454658E+02  0.22581101916E+03  0.00000000000E+00 0. -1.
         -1    1    3    3    0  502 -0.11947699115E+03  0.25619984255E+03 -0.14943776919E+03  0.31975734175E+03  0.00000000000E+00 0.  1.
         13    1    5    5    0    0 -0.27631605769E+02  0.16294393284E+02 -0.45644481591E+02  0.55789170899E+02  0.00000000000E+00 0.  1.
        -13    1    5    5    0    0 -0.62689625226E+02 -0.41160556228E+02  0.82351785089E+01  0.75445335608E+02  0.00000000000E+00 0. -1.
          1    1    6    6  503    0  0.32443635514E+03 -0.39889331674E+03  0.20193720340E+04  0.20838037908E+04  0.00000000000E+00 0. -1.
         -1    1    6    6    0  503 -0.49458003652E+01 -0.24797468649E+02  0.17571934386E+03  0.17752933053E+03  0.00000000000E+00 0.  1.
<mgrwt>
<rscale>  0 0.21852506E+04</rscale>
<asrwt>0</asrwt>
<pdfrwt beam="1">  1        2 0.37708790E+00 0.21852506E+04</pdfrwt>
<pdfrwt beam="2">  1       -1 0.74933012E-01 0.21852506E+04</pdfrwt>
<totfact> 0.69317923E+00</totfact>
</mgrwt>
</event>
<event>
11    7  0.1497947E-008  0.1404065E+04  0.7818608E-02  0.8950881E-01
         -1   -1    0    0    0  501 -0.00000000000E+00  0.00000000000E+00  0.23676450894E+03  0.23676450894E+03  0.00000000000E+00 0.  1.
          2   -1    0    0  501    0  0.00000000000E+00 -0.00000000000E+00 -0.20816029183E+04  0.20816029183E+04  0.00000000000E+00 0. -1.
         24    2    1    2    0    0  0.34433549594E+03  0.15007313060E+03 -0.79758821013E+03  0.88529638860E+03  0.80708515261E+02 0.  0.
        254    2    1    2    0    0 -0.34433549594E+03 -0.15007313060E+03 -0.10472501993E+04  0.14330710387E+04  0.90325563588E+03 0.  0.
         23    2    4    4    0    0 -0.47717615121E+03  0.13995595056E+03 -0.25093140829E+03  0.56376505155E+03  0.87061554645E+02 0.  0.
          2    1    3    3  502    0  0.20942512520E+03  0.66234753241E+02 -0.53600729608E+03  0.57926655958E+03  0.00000000000E+00 0. -1.
         -1    1    3    3    0  502  0.13491037074E+03  0.83838377361E+02 -0.26158091405E+03  0.30602982902E+03  0.00000000000E+00 0.  1.
         13    1    5    5    0    0 -0.25796768895E+03  0.96243135555E+02 -0.18122051168E+03  0.32962242572E+03  0.00000000000E+00 0.  1.
        -13    1    5    5    0    0 -0.21920846227E+03  0.43712815006E+02 -0.69710896607E+02  0.23414262583E+03  0.00000000000E+00 0. -1.
          3    1    4    4  503    0  0.91289432979E+02 -0.73852445349E+02 -0.38863433998E+03  0.40598595354E+03  0.00000000000E+00 0. -1.
         -3    1    4    4    0  503  0.41551222290E+02 -0.21617663581E+03 -0.40768445100E+03  0.46332003359E+03  0.00000000000E+00 0.  1.
<mgrwt>
<rscale>  0 0.14040651E+04</rscale>
<asrwt>0</asrwt>
<pdfrwt beam="1">  1        2 0.32024661E+00 0.14040651E+04</pdfrwt>
<pdfrwt beam="2">  1       -1 0.36425308E-01 0.14040651E+04</pdfrwt>
<totfact> 0.48202638E+01</totfact>
</mgrwt>
</event>
<event>
12    7  0.1497947E-008  0.1853333E+04  0.7818608E-02  0.8678441E-01
         -1   -1    0    0    0  501 -0.00000000000E+00  0.00000000000E+00  0.34817401244E+04  0.34817401244E+04  0.00000000000E+00 0.  1.
          2   -1    0    0  501    0  0.00000000000E+00 -0.00000000000E+00 -0.24663265660E+03  0.24663265660E+03  0.00000000000E+00 0. -1.
         24    2    1    2    0    0 -0.34498637155E+03  0.30944713198E+03  0.23559977267E+04  0.24024768488E+04  0.79978727821E+02 0.  0.
        254    2    1    2    0    0  0.34498637155E+03 -0.30944713198E+03  0.87910974111E+03  0.13258959322E+04  0.87772032107E+03 0.  0.
         23    2    4    4    0    0  0.15697601915E+03 -0.44308364743E+03  0.81205765342E+02  0.48814247913E+03  0.10355730007E+03 0.  0.
         23    2    4    4    0    0  0.18801035240E+03  0.13363651545E+03  0.79790397577E+03  0.83775345306E+03  0.10942341011E+03 0.  0.
          4    1    3    3  502    0 -0.37271970603E+02  0.41478835224E+02  0.17607651460E+03  0.18469605452E+03  0.00000000000E+00 0. -1.
         -3    1    3    3    0  502 -0.30771440094E+03  0.26796829676E+03  0.21799212121E+04  0.22177807943E+04  0.00000000000E+00 0.  1.
         13    1    5    5    0    0  0.11025092005E+03 -0.40428042717E+03  0.57619161447E+02  0.42298687560E+03  0.00000000000E+00 0.  1.
        -13    1    5    5    0    0  0.46725099096E+02 -0.38803220267E+02  0.23586603895E+02  0.65155603534E+02  0.00000000000E+00 0. -1.
          3    1    6    6  503    0  0.55680002528E+02 -0.64244406929E+01  0.11118779139E+03  0.12451610769E+03  0.00000000000E+00 0. -1.
         -3    1    6    6    0  503  0.13233034987E+03  0.14006095615E+03  0.68671618438E+03  0.71323734536E+03  0.00000000000E+00 0.  1.
<mgrwt>
<rscale>  0 0.18533330E+04</rscale>
<asrwt>0</asrwt>
<pdfrwt beam="1">  1        2 0.37943488E-01 0.18533330E+04</pdfrwt>
<pdfrwt beam="2">  1       -1 0.53565229E+00 0.18533330E+04</pdfrwt>
<totfact> 0.13112159E-01</totfact>
</mgrwt>
</event>
<event>
12    7  0.1497947E-008  0.2146819E+04  0.7818608E-02  0.8540895E-01
          2   -1    0    0  501    0  0.00000000000E+00  0.00000000000E+00  0.34283621348E+04  0.34283621348E+04  0.00000000000E+00 0. -1.
         -1   -1    0    0    0  501 -0.00000000000E+00 -0.00000000000E+00 -0.33608117174E+03  0.33608117174E+03  0.00000000000E+00 0.  1.
         24    2    1    2    0    0 -0.48337735905E+03 -0.59098373843E+03  0.20414587612E+04  0.21810148311E+04  0.79726841640E+02 0.  0.
        254    2    1    2    0    0  0.48337735905E+03  0.59098373843E+03  0.10508222018E+04  0.15834284754E+04  0.90559537690E+03 0.  0.
         23    2    4    4    0    0  0.27935465315E+03 -0.11452477259E+03  0.23174831973E+02  0.31552369591E+03  0.88674596541E+02 0.  0.
         23    2    4    4    0    0  0.20402270590E+03  0.70550851102E+03  0.10276473698E+04  0.12679047795E+04  0.11025375075E+03 0.  0.
          4    1    3    3  502    0 -0.28633438846E+03 -0.35290939004E+03  0.11019571235E+04  0.11919907389E+04  0.00000000000E+00 0. -1.
         -3    1    3    3    0  502 -0.19704297059E+03 -0.23807434839E+03  0.93950163778E+03  0.98902409223E+03  0.00000000000E+00 0.  1.
         13    1    5    5    0    0  0.13559344254E+02  0.13591702435E+02 -0.24392436996E+01  0.19353038560E+02  0.00000000000E+00 0. -1.
        -13    1    5    5    0    0  0.26579530890E+03 -0.12811647502E+03  0.25614075673E+02  0.29617065735E+03  0.00000000000E+00 0.  1.
          4    1    6    6  503    0  0.98898957097E+02  0.47482405222E+03  0.73650084165E+03  0.88185734335E+03  0.00000000000E+00 0. -1.
         -4    1    6    6    0  503  0.10512374880E+03  0.23068445880E+03  0.29114652820E+03  0.38604743617E+03  0.00000000000E+00 0.  1.
<mgrwt>
<rscale>  0 0.21468190E+04</rscale>
<asrwt>0</asrwt>
<pdfrwt beam="1">  1        2 0.52744031E+00 0.21468190E+04</pdfrwt>
<pdfrwt beam="2">  1       -1 0.51704798E-01 0.21468190E+04</pdfrwt>
<totfact> 0.35981348E+00</totfact>
</mgrwt>
</event>
<event>
11    7  0.1497947E-008  0.1698124E+04  0.7818608E-02  0.8762435E-01
          2   -1    0    0  501    0  0.00000000000E+00  0.00000000000E+00  0.17154356438E+04  0.17154356438E+04  0.00000000000E+00 0. -1.
         -1   -1    0    0    0  501 -0.00000000000E+00 -0.00000000000E+00 -0.42024657665E+03  0.42024657665E+03  0.00000000000E+00 0.  1.
         24    2    1    2    0    0 -0.48227983636E+03 -0.76994780456E+02  0.91147209919E+03  0.10371249575E+04  0.79528316288E+02 0.  0.
        254    2    1    2    0    0  0.48227983636E+03  0.76994780456E+02  0.38371696793E+03  0.10985572629E+04  0.90612764644E+03 0.  0.
         23    2    4    4    0    0  0.59059941218E+03  0.57384733490E+02  0.57408937499E+03  0.83017878820E+03  0.86703728820E+02 0.  0.
          4    1    3    3  502    0 -0.36149596511E+03 -0.40137988034E+02  0.73563737622E+03  0.82064166368E+03  0.00000000000E+00 0. -1.
         -1    1    3    3    0  502 -0.12078387125E+03 -0.36856792422E+02  0.17583472297E+03  0.21648329382E+03  0.00000000000E+00 0.  1.
         13    1    5    5    0    0  0.90583045594E+02 -0.12299355333E+02  0.12233785818E+03  0.15271906834E+03  0.00000000000E+00 0. -1.
        -13    1    5    5    0    0  0.50001636658E+03  0.69684088824E+02  0.45175151682E+03  0.67745971986E+03  0.00000000000E+00 0.  1.
          4    1    4    4  503    0  0.68900514852E+01  0.30276713376E+02  0.13581631342E+02  0.33891191957E+02  0.00000000000E+00 0. -1.
         -4    1    4    4    0  503 -0.11520962731E+03 -0.10666666410E+02 -0.20395403840E+03  0.23448728276E+03  0.00000000000E+00 0.  1.
<mgrwt>
<rscale>  0 0.16981236E+04</rscale>
<asrwt>0</asrwt>
<pdfrwt beam="1">  1        2 0.26391317E+00 0.16981236E+04</pdfrwt>
<pdfrwt beam="2">  1       -1 0.64653320E-01 0.16981236E+04</pdfrwt>
<totfact> 0.25283868E+01</totfact>
</mgrwt>
</event>
<event>
11    7  0.1497947E-008  0.1627468E+04  0.7818608E-02  0.8803849E-01
          2   -1    0    0  501    0  0.00000000000E+00  0.00000000000E+00  0.39655595929E+03  0.39655595929E+03  0.00000000000E+00 0. -1.
         -1   -1    0    0    0  501 -0.00000000000E+00 -0.00000000000E+00 -0.16697850498E+04  0.16697850498E+04  0.00000000000E+00 0.  1.
         24    2    1    2    0    0  0.49074707510E+03  0.13110477262E+03 -0.73902618913E+03  0.89983453812E+03  0.74305683881E+02 0.  0.
        254    2    1    2    0    0 -0.49074707510E+03 -0.13110477262E+03 -0.53420290142E+03  0.11665064710E+04  0.90407049166E+03 0.  0.
         23    2    4    4    0    0  0.15442676390E+03 -0.23139960500E+03  0.26941316076E+02  0.29287945231E+03  0.87516492539E+02 0.  0.
          4    1    3    3  502    0  0.28373897398E+03  0.89763462348E+02 -0.49088627099E+03  0.57405105659E+03  0.00000000000E+00 0. -1.
         -3    1    3    3    0  502  0.20700810112E+03  0.41341310271E+02 -0.24813991814E+03  0.32578348153E+03  0.00000000000E+00 0.  1.
         13    1    5    5    0    0 -0.89272371658E+01 -0.18006128568E+01  0.46318138609E+01  0.10217214381E+02  0.00000000000E+00 0.  1.
        -13    1    5    5    0    0  0.16335400107E+03 -0.22959899214E+03  0.22309502215E+02  0.28266223792E+03  0.00000000000E+00 0. -1.
          4    1    4    4  503    0 -0.16544031143E+03  0.29064394915E+02 -0.23621202730E+03  0.28984712788E+03  0.00000000000E+00 0. -1.
         -4    1    4    4    0  503 -0.47973352757E+03  0.71230437468E+02 -0.32493219019E+03  0.58377989081E+03  0.00000000000E+00 0.  1.
<mgrwt>
<rscale>  0 0.16274682E+04</rscale>
<asrwt>0</asrwt>
<pdfrwt beam="1">  1        2 0.61008610E-01 0.16274682E+04</pdfrwt>
<pdfrwt beam="2">  1       -1 0.25689000E+00 0.16274682E+04</pdfrwt>
<totfact> 0.55278894E+00</totfact>
</mgrwt>
</event>
<event>
11    7  0.1497947E-008  0.1749097E+04  0.7818608E-02  0.8733847E-01
          2   -1    0    0  501    0  0.00000000000E+00  0.00000000000E+00  0.17467646463E+04  0.17467646463E+04  0.00000000000E+00 0. -1.
         -1   -1    0    0    0  501 -0.00000000000E+00 -0.00000000000E+00 -0.43785818747E+03  0.43785818747E+03  0.00000000000E+00 0.  1.
         24    2    1    2    0    0 -0.44575616098E+03 -0.22307766055E+03 -0.29585753599E+02  0.50592322133E+03  0.81368245515E+02 0.  0.
        254    2    1    2    0    0  0.44575616098E+03  0.22307766055E+03  0.13384922124E+04  0.16786996124E+04  0.88204806466E+03 0.  0.
         23    2    4    4    0    0  0.47581127951E+03  0.32568868505E+03  0.36585433567E+03  0.68845182864E+03  0.87447310772E+02 0.  0.
          4    1    3    3  502    0 -0.13925963978E+03 -0.28977136578E+02 -0.59831304442E+01  0.14236825337E+03  0.00000000000E+00 0. -1.
         -3    1    3    3    0  502 -0.30649652120E+03 -0.19410052398E+03 -0.23602623155E+02  0.36355496797E+03  0.00000000000E+00 0.  1.
         13    1    5    5    0    0  0.19825927222E+02 -0.12620885165E+01  0.25868834538E+01  0.20033777069E+02  0.00000000000E+00 0. -1.
        -13    1    5    5    0    0  0.45598535228E+03  0.32695077357E+03  0.36326745221E+03  0.66841805157E+03  0.00000000000E+00 0.  1.
          3    1    4    4  503    0  0.49980280207E+02 -0.99200003014E+01  0.47661014792E+03  0.47932626458E+03  0.00000000000E+00 0. -1.
         -3    1    4    4    0  503 -0.80035398732E+02 -0.92691024194E+02  0.49602772883E+03  0.51092151921E+03  0.00000000000E+00 0.  1.
<mgrwt>
<rscale>  0 0.17490971E+04</rscale>
<asrwt>0</asrwt>
<pdfrwt beam="1">  1        2 0.26873302E+00 0.17490971E+04</pdfrwt>
<pdfrwt beam="2">  1       -1 0.67362799E-01 0.17490971E+04</pdfrwt>
<totfact> 0.22259100E+01</totfact>
</mgrwt>
</event>
<event>
12    7  0.1497947E-008  0.3749595E+04  0.7818608E-02  0.8057059E-01
         -1   -1    0    0    0  501 -0.00000000000E+00  0.00000000000E+00  0.18939370573E+04  0.18939370573E+04  0.00000000000E+00 0.  1.
          2   -1    0    0  501    0  0.00000000000E+00 -0.00000000000E+00 -0.18558509602E+04  0.18558509602E+04  0.00000000000E+00 0. -1.
         24    2    1    2    0    0  0.13654617097E+04 -0.21401604709E+03  0.11166739412E+04  0.17787507901E+04  0.81884876229E+02 0.  0.
        254    2    1    2    0    0 -0.13654617097E+04  0.21401604709E+03 -0.10785878441E+04  0.19710372274E+04  0.90074828059E+03 0.  0.
         23    2    4    4    0    0 -0.64520283037E+03  0.50974084430E+03 -0.34736377424E+03  0.89730629737E+03  0.91512725765E+02 0.  0.
         23    2    4    4    0    0 -0.72025887938E+03 -0.29572479721E+03 -0.73122406987E+03  0.10737309300E+04  0.10946899409E+03 0.  0.
          4    1    3    3  502    0  0.44514500766E+03 -0.10234119821E+03  0.39593957382E+03  0.60447989612E+03  0.00000000000E+00 0. -1.
         -3    1    3    3    0  502  0.92031670209E+03 -0.11167484888E+03  0.72073436740E+03  0.11742708939E+04  0.00000000000E+00 0.  1.
         13    1    5    5    0    0 -0.41514430994E+03  0.28182421711E+03 -0.18258659414E+03  0.53395463458E+03  0.00000000000E+00 0.  1.
        -13    1    5    5    0    0 -0.23005852043E+03  0.22791662719E+03 -0.16477718010E+03  0.36335166279E+03  0.00000000000E+00 0. -1.
          1    1    6    6  503    0 -0.22890026659E+03 -0.57134909129E+02 -0.17165920587E+03  0.29176465318E+03  0.00000000000E+00 0. -1.
         -1    1    6    6    0  503 -0.49135861279E+03 -0.23858988808E+03 -0.55956486400E+03  0.78196627682E+03  0.00000000000E+00 0.  1.
<mgrwt>
<rscale>  0 0.37495946E+04</rscale>
<asrwt>0</asrwt>
<pdfrwt beam="1">  1        2 0.28551553E+00 0.37495946E+04</pdfrwt>
<pdfrwt beam="2">  1       -1 0.29137493E+00 0.37495946E+04</pdfrwt>
<totfact> 0.27646455E-01</totfact>
</mgrwt>
</event>
<event>
11    7  0.1497947E-008  0.1252647E+04  0.7818608E-02  0.9067983E-01
         -1   -1    0    0    0  501 -0.00000000000E+00  0.00000000000E+00  0.30551824515E+03  0.30551824515E+03  0.00000000000E+00 0.  1.
          2   -1    0    0  501    0  0.00000000000E+00 -0.00000000000E+00 -0.12839868309E+04  0.12839868309E+04  0.00000000000E+00 0. -1.
         24    2    1    2    0    0 -0.16754335411E+02 -0.61335757040E+02  0.12682079487E+03  0.16470379214E+03  0.83672231279E+02 0.  0.
        254    2    1    2    0    0  0.16754335411E+02  0.61335757040E+02 -0.11052893807E+04  0.14248012840E+04  0.89685634351E+03 0.  0.
         23    2    4    4    0    0 -0.65271498669E+02 -0.20196590064E+03  0.29235568464E+02  0.23476744607E+03  0.95971046218E+02 0.  0.
          4    1    3    3  502    0 -0.38698693934E+02 -0.32656480410E+02  0.24607391033E+02  0.56298830524E+02  0.00000000000E+00 0. -1.
         -3    1    3    3    0  502  0.21944358523E+02 -0.28679276630E+02  0.10221340384E+03  0.10840496161E+03  0.00000000000E+00 0.  1.
         13    1    5    5    0    0 -0.40101390482E+02 -0.18253092839E+03 -0.64159644427E+01  0.18699418691E+03  0.00000000000E+00 0.  1.
        -13    1    5    5    0    0 -0.25170108187E+02 -0.19434972248E+02  0.35651532907E+02  0.47773259163E+02  0.00000000000E+00 0. -1.
          3    1    4    4  503    0  0.34476767746E+02 -0.22943311671E+02 -0.36975172846E+03  0.37206368241E+03  0.00000000000E+00 0. -1.
         -3    1    4    4    0  503  0.47549066334E+02  0.28624496935E+03 -0.76477322067E+03  0.81797015547E+03  0.00000000000E+00 0.  1.
<mgrwt>
<rscale>  0 0.12526474E+04</rscale>
<asrwt>0</asrwt>
<pdfrwt beam="1">  1        2 0.19753643E+00 0.12526474E+04</pdfrwt>
<pdfrwt beam="2">  1       -1 0.47002808E-01 0.12526474E+04</pdfrwt>
<totfact> 0.85414012E+01</totfact>
</mgrwt>
</event>
<event>
11    7  0.1497947E-008  0.1893196E+04  0.7818608E-02  0.8658251E-01
         -1   -1    0    0    0  501 -0.00000000000E+00  0.00000000000E+00  0.92710371441E+03  0.92710371441E+03  0.00000000000E+00 0.  1.
          2   -1    0    0  501    0  0.00000000000E+00 -0.00000000000E+00 -0.96650223528E+03  0.96650223528E+03  0.00000000000E+00 0. -1.
         24    2    1    2    0    0  0.53964161392E+03 -0.18301304302E+03  0.44178531971E+03  0.72606311107E+03  0.85361157164E+02 0.  0.
        254    2    1    2    0    0 -0.53964161392E+03  0.18301304302E+03 -0.48118384057E+03  0.11675428386E+04  0.89828255366E+03 0.  0.
         23    2    4    4    0    0  0.12229143100E+03 -0.13955811987E+03  0.38667948469E+02  0.20784122347E+03  0.85270751255E+02 0.  0.
          2    1    3    3  502    0  0.40672119787E+02 -0.30216154431E+02  0.64993231310E+02  0.82409692589E+02  0.00000000000E+00 0. -1.
         -1    1    3    3    0  502  0.49896949413E+03 -0.15279688859E+03  0.37679208840E+03  0.64365341848E+03  0.00000000000E+00 0.  1.
         13    1    5    5    0    0  0.79134354941E+02 -0.11993401457E+03 -0.44492067491E+01  0.14375746737E+03  0.00000000000E+00 0. -1.
        -13    1    5    5    0    0  0.43157076055E+02 -0.19624105295E+02  0.43117155218E+02  0.64083756103E+02  0.00000000000E+00 0.  1.
          2    1    4    4  503    0 -0.19274923514E+03  0.49147256385E+02  0.12417935044E+02  0.19930360149E+03  0.00000000000E+00 0.  1.
         -2    1    4    4    0  503 -0.46918380978E+03  0.27342390650E+03 -0.53226972408E+03  0.76039801366E+03  0.00000000000E+00 0. -1.
<mgrwt>
<rscale>  0 0.18931960E+04</rscale>
<asrwt>0</asrwt>
<pdfrwt beam="1">  1        2 0.14869265E+00 0.18931960E+04</pdfrwt>
<pdfrwt beam="2">  1       -1 0.14263134E+00 0.18931960E+04</pdfrwt>
<totfact> 0.11300474E+01</totfact>
</mgrwt>
</event>
<event>
11    7  0.1497947E-008  0.1760280E+04  0.7818608E-02  0.8727712E-01
          2   -1    0    0  501    0  0.00000000000E+00  0.00000000000E+00  0.12315657998E+04  0.12315657998E+04  0.00000000000E+00 0. -1.
         -1   -1    0    0    0  501 -0.00000000000E+00 -0.00000000000E+00 -0.62899324657E+03  0.62899324657E+03  0.00000000000E+00 0.  1.
         24    2    1    2    0    0  0.33857566342E+03  0.50345303510E+03 -0.10113593593E+02  0.61133796406E+03  0.74386713262E+02 0.  0.
        254    2    1    2    0    0 -0.33857566342E+03 -0.50345303510E+03  0.61268614681E+03  0.12492210823E+04  0.90391955369E+03 0.  0.
         23    2    4    4    0    0  0.10380910941E+03 -0.50636734863E+03  0.48783177846E+03  0.71540978866E+03  0.81529741104E+02 0.  0.
          2    1    3    3  502    0  0.24154324708E+03  0.33616165584E+03  0.25353494749E+02  0.41471749271E+03  0.00000000000E+00 0. -1.
         -3    1    3    3    0  502  0.97032416342E+02  0.16729137927E+03 -0.35467088342E+02  0.19662047135E+03  0.00000000000E+00 0.  1.
         13    1    5    5    0    0  0.93714817176E+02 -0.43210037713E+03  0.37395566056E+03  0.57908206581E+03  0.00000000000E+00 0. -1.
        -13    1    5    5    0    0  0.10094292231E+02 -0.74266971503E+02  0.11387611790E+03  0.13632772285E+03  0.00000000000E+00 0.  1.
          2    1    4    4  503    0 -0.45900317578E+03  0.25119183404E+02  0.16204725204E+03  0.48741583955E+03  0.00000000000E+00 0. -1.
         -2    1    4    4    0  503  0.16618402952E+02 -0.22204869876E+02 -0.37192883682E+02  0.46395454082E+02  0.00000000000E+00 0.  1.
<mgrwt>
<rscale>  0 0.17602802E+04</rscale>
<asrwt>0</asrwt>
<pdfrwt beam="1">  1        2 0.18947166E+00 0.17602802E+04</pdfrwt>
<pdfrwt beam="2">  1       -1 0.96768192E-01 0.17602802E+04</pdfrwt>
<totfact> 0.20118533E+01</totfact>
</mgrwt>
</event>
<event>
11    7  0.1497947E-008  0.3546653E+04  0.7818608E-02  0.8102822E-01
         -1   -1    0    0    0  501 -0.00000000000E+00  0.00000000000E+00  0.12189981459E+04  0.12189981459E+04  0.00000000000E+00 0.  1.
          2   -1    0    0  501    0  0.00000000000E+00 -0.00000000000E+00 -0.25797306690E+04  0.25797306690E+04  0.00000000000E+00 0. -1.
         24    2    1    2    0    0  0.36505953708E+03  0.15071428399E+04 -0.20239224830E+01  0.15529171673E+04  0.82459849167E+02 0.  0.
        254    2    1    2    0    0 -0.36505953708E+03 -0.15071428399E+04 -0.13587086007E+04  0.22458116476E+04  0.89041164065E+03 0.  0.
         23    2    4    4    0    0 -0.41447397390E+03 -0.54921271153E+03 -0.18643794347E+03  0.71884739554E+03  0.92515910859E+02 0.  0.
          2    1    3    3  502    0  0.20758956800E+03  0.83491007417E+03 -0.41772784833E+02  0.86134384902E+03  0.00000000000E+00 0. -1.
         -1    1    3    3    0  502  0.15746996908E+03  0.67223276570E+03  0.39748862350E+02  0.69157331824E+03  0.00000000000E+00 0.  1.
         13    1    5    5    0    0 -0.41364747033E+03 -0.51955832177E+03 -0.18372730536E+03  0.68905790916E+03  0.00000000000E+00 0.  1.
        -13    1    5    5    0    0 -0.82650356681E+00 -0.29654389756E+02 -0.27106381101E+01  0.29789486382E+02  0.00000000000E+00 0. -1.
          2    1    4    4  503    0 -0.37423379390E+02 -0.35782816365E+02 -0.73111105492E+02  0.89588799625E+02  0.00000000000E+00 0. -1.
         -2    1    4    4    0  503  0.86837816213E+02 -0.92214731197E+03 -0.10991595517E+04  0.14373754525E+04  0.00000000000E+00 0.  1.
<mgrwt>
<rscale>  0 0.35466530E+04</rscale>
<asrwt>0</asrwt>
<pdfrwt beam="1">  1        2 0.39688164E+00 0.35466530E+04</pdfrwt>
<pdfrwt beam="2">  1       -1 0.18753818E+00 0.35466530E+04</pdfrwt>
<totfact> 0.53490813E-01</totfact>
</mgrwt>
</event>
<event>
12    7  0.1497947E-008  0.1505387E+04  0.7818608E-02  0.8880879E-01
          2   -1    0    0  501    0  0.00000000000E+00  0.00000000000E+00  0.14500228304E+04  0.14500228304E+04  0.00000000000E+00 0. -1.
         -1   -1    0    0    0  501 -0.00000000000E+00 -0.00000000000E+00 -0.39071615606E+03  0.39071615606E+03  0.00000000000E+00 0.  1.
         24    2    1    2    0    0 -0.25297213259E+03  0.35778336928E+03  0.12700325024E+03  0.46303612141E+03  0.79175658833E+02 0.  0.
        254    2    1    2    0    0  0.25297213259E+03 -0.35778336928E+03  0.93230342410E+03  0.13777028651E+04  0.91480690345E+03 0.  0.
         23    2    4    4    0    0 -0.22401959233E+03  0.17245088303E+03  0.25230998382E+03  0.39041599787E+03  0.94022543312E+02 0.  0.
         23    2    4    4    0    0  0.47699172492E+03 -0.53023425231E+03  0.67999344028E+03  0.98728686719E+03  0.60620222180E+02 0.  0.
          2    1    3    3  502    0 -0.11426661349E+03  0.10664933645E+03  0.23590023115E+02  0.15807412538E+03  0.00000000000E+00 0. -1.
         -1    1    3    3    0  502 -0.13870551910E+03  0.25113403283E+03  0.10341322713E+03  0.30496199603E+03  0.00000000000E+00 0.  1.
         13    1    5    5    0    0  0.20978129437E+01  0.31312160663E+02  0.26364048882E+02  0.40986769792E+02  0.00000000000E+00 0.  1.
        -13    1    5    5    0    0 -0.22611740527E+03  0.14113872236E+03  0.22594593494E+03  0.34942922808E+03  0.00000000000E+00 0. -1.
          1    1    6    6  503    0  0.31340003006E+03 -0.32304439714E+03  0.46109225133E+03  0.64434720889E+03  0.00000000000E+00 0. -1.
         -1    1    6    6    0  503  0.16359169486E+03 -0.20718985517E+03  0.21890118895E+03  0.34293965830E+03  0.00000000000E+00 0.  1.
<mgrwt>
<rscale>  0 0.15053868E+04</rscale>
<asrwt>0</asrwt>
<pdfrwt beam="1">  1        2 0.22308043E+00 0.15053868E+04</pdfrwt>
<pdfrwt beam="2">  1       -1 0.60110178E-01 0.15053868E+04</pdfrwt>
<totfact> 0.41848910E+01</totfact>
</mgrwt>
</event>
<event>
12    7  0.1497947E-008  0.1379699E+04  0.7818608E-02  0.8968646E-01
          2   -1    0    0  501    0  0.00000000000E+00  0.00000000000E+00  0.34835956149E+04  0.34835956149E+04  0.00000000000E+00 0. -1.
         -1   -1    0    0    0  501 -0.00000000000E+00 -0.00000000000E+00 -0.13660956746E+03  0.13660956746E+03  0.00000000000E+00 0.  1.
         24    2    1    2    0    0 -0.50745733750E+02 -0.22242883896E+03  0.13877212229E+03  0.27834883865E+03  0.78553524169E+02 0.  0.
        254    2    1    2    0    0  0.50745733750E+02  0.22242883896E+03  0.32082139252E+04  0.33418563437E+04  0.90736845583E+03 0.  0.
         23    2    4    4    0    0 -0.26651843852E+03  0.98723693964E+02  0.33936504463E+03  0.45195561959E+03  0.91196506203E+02 0.  0.
         23    2    4    4    0    0  0.31726417227E+03  0.12370514499E+03  0.28688488805E+04  0.28899007241E+04  0.72613897751E+02 0.  0.
          2    1    3    3  502    0  0.74283008468E+01 -0.10164495907E+03  0.89122247604E+02  0.13538704656E+03  0.00000000000E+00 0. -1.
         -1    1    3    3    0  502 -0.58174034597E+02 -0.12078387989E+03  0.49649874690E+02  0.14296179209E+03  0.00000000000E+00 0.  1.
         13    1    5    5    0    0 -0.32628732697E+02 -0.20783759305E+01  0.89006200917E+02  0.94821187746E+02  0.00000000000E+00 0. -1.
        -13    1    5    5    0    0 -0.23388970582E+03  0.10080206989E+03  0.25035884371E+03  0.35713443185E+03  0.00000000000E+00 0.  1.
          4    1    6    6  503    0  0.61010099600E+02  0.86257964542E+01  0.34415299708E+03  0.34962540242E+03  0.00000000000E+00 0. -1.
         -4    1    6    6    0  503  0.25625407267E+03  0.11507934854E+03  0.25246958834E+04  0.25402753217E+04  0.00000000000E+00 0.  1.
<mgrwt>
<rscale>  0 0.13796992E+04</rscale>
<asrwt>0</asrwt>
<pdfrwt beam="1">  1        2 0.53593772E+00 0.13796992E+04</pdfrwt>
<pdfrwt beam="2">  1       -1 0.21016859E-01 0.13796992E+04</pdfrwt>
<totfact> 0.17746783E+01</totfact>
</mgrwt>
</event>
<event>
11    7  0.1497947E-008  0.1410422E+04  0.7818608E-02  0.8946309E-01
         -1   -1    0    0    0  501 -0.00000000000E+00  0.00000000000E+00  0.27538137377E+03  0.27538137377E+03  0.00000000000E+00 0.  1.
          2   -1    0    0  501    0  0.00000000000E+00 -0.00000000000E+00 -0.18059409848E+04  0.18059409848E+04  0.00000000000E+00 0. -1.
         24    2    1    2    0    0  0.46386213349E+01 -0.56196457064E+02 -0.10657604998E+04  0.10698139960E+04  0.74006652106E+02 0.  0.
        254    2    1    2    0    0 -0.46386213349E+01  0.56196457064E+02 -0.46479911120E+03  0.10115083625E+04  0.89662221424E+03 0.  0.
         23    2    4    4    0    0 -0.15970666828E+03 -0.36582874868E+03 -0.13527919038E+03  0.43080517195E+03  0.89194975066E+02 0.  0.
          2    1    3    3  502    0  0.26335001228E+02 -0.51957373824E+02 -0.96011156426E+03  0.96187697592E+03  0.00000000000E+00 0. -1.
         -1    1    3    3    0  502 -0.21696379893E+02 -0.42390832398E+01 -0.10564893555E+03  0.10793702011E+03  0.00000000000E+00 0.  1.
         13    1    5    5    0    0  0.10930490959E+02 -0.20034017331E+02 -0.13061978611E+02  0.26295489504E+02  0.00000000000E+00 0.  1.
        -13    1    5    5    0    0 -0.17063715923E+03 -0.34579473135E+03 -0.12221721176E+03  0.40450968244E+03  0.00000000000E+00 0. -1.
          3    1    4    4  503    0  0.82136347537E+02  0.38979284697E+03 -0.27813331716E+03  0.48584255191E+03  0.00000000000E+00 0. -1.
         -3    1    4    4    0  503  0.72931699404E+02  0.32232358771E+02 -0.51386603668E+02  0.94860638657E+02  0.00000000000E+00 0.  1.
<mgrwt>
<rscale>  0 0.14104219E+04</rscale>
<asrwt>0</asrwt>
<pdfrwt beam="1">  1        2 0.27783707E+00 0.14104219E+04</pdfrwt>
<pdfrwt beam="2">  1       -1 0.42366366E-01 0.14104219E+04</pdfrwt>
<totfact> 0.51989390E+01</totfact>
</mgrwt>
</event>
<event>
12    7  0.1497947E-008  0.1325010E+04  0.7818608E-02  0.9009964E-01
          2   -1    0    0  501    0  0.00000000000E+00  0.00000000000E+00  0.30041873510E+04  0.30041873510E+04  0.00000000000E+00 0. -1.
         -1   -1    0    0    0  501 -0.00000000000E+00 -0.00000000000E+00 -0.14610042769E+03  0.14610042769E+03  0.00000000000E+00 0.  1.
         24    2    1    2    0    0  0.31183957950E+03  0.12181013149E+03  0.79133953752E+03  0.86304442017E+03  0.80905970551E+02 0.  0.
        254    2    1    2    0    0 -0.31183957950E+03 -0.12181013149E+03  0.20667473857E+04  0.22872433585E+04  0.92084515144E+03 0.  0.
         23    2    4    4    0    0 -0.49364368093E+03  0.23270517756E+03  0.13605938730E+04  0.14687717465E+04  0.90768786686E+02 0.  0.
         23    2    4    4    0    0  0.18180410143E+03 -0.35451530905E+03  0.70615351275E+03  0.81847161200E+03  0.11184435807E+03 0.  0.
          4    1    3    3  502    0  0.17807114354E+03  0.11040490421E+03  0.45612006938E+03  0.50194032785E+03  0.00000000000E+00 0. -1.
         -3    1    3    3    0  502  0.13376843597E+03  0.11405227283E+02  0.33521946814E+03  0.36110409232E+03  0.00000000000E+00 0.  1.
         13    1    5    5    0    0 -0.28847790737E+03  0.17774093757E+03  0.89596656183E+03  0.95789739735E+03  0.00000000000E+00 0.  1.
        -13    1    5    5    0    0 -0.20516577357E+03  0.54964239989E+02  0.46462731116E+03  0.51087434913E+03  0.00000000000E+00 0. -1.
          4    1    6    6  503    0 -0.48249289165E+01 -0.57166097501E+02  0.59408063146E+02  0.82586685423E+02  0.00000000000E+00 0. -1.
         -4    1    6    6    0  503  0.18662903035E+03 -0.29734921155E+03  0.64674544960E+03  0.73588492657E+03  0.00000000000E+00 0.  1.
<mgrwt>
<rscale>  0 0.13250103E+04</rscale>
<asrwt>0</asrwt>
<pdfrwt beam="1">  1        2 0.46218262E+00 0.13250103E+04</pdfrwt>
<pdfrwt beam="2">  1       -1 0.22476991E-01 0.13250103E+04</pdfrwt>
<totfact> 0.32750166E+01</totfact>
</mgrwt>
</event>
<event>
11    7  0.1497947E-008  0.2128366E+04  0.7818608E-02  0.8548850E-01
         -1   -1    0    0    0  501 -0.00000000000E+00  0.00000000000E+00  0.76142038678E+03  0.76142038678E+03  0.00000000000E+00 0.  1.
          2   -1    0    0  501    0  0.00000000000E+00 -0.00000000000E+00 -0.14873323028E+04  0.14873323028E+04  0.00000000000E+00 0. -1.
         24    2    1    2    0    0  0.68528122085E+03 -0.53000664993E+03 -0.22026264637E+03  0.89739970434E+03  0.79329662398E+02 0.  0.
        254    2    1    2    0    0 -0.68528122085E+03  0.53000664993E+03 -0.50564926963E+03  0.13513529852E+04  0.90551438759E+03 0.  0.
         23    2    4    4    0    0 -0.78773982023E+03  0.25814585010E+03 -0.14202022364E+03  0.84599051979E+03  0.91416143817E+02 0.  0.
          4    1    3    3  502    0  0.59171346179E+02 -0.22639980710E+02 -0.25712521312E+02  0.68373611046E+02  0.00000000000E+00 0. -1.
         -3    1    3    3    0  502  0.62610987467E+03 -0.50736666922E+03 -0.19455012506E+03  0.82902609329E+03  0.00000000000E+00 0.  1.
         13    1    5    5    0    0 -0.20022874792E+02  0.24190612360E+02 -0.60848410619E+01  0.31986349152E+02  0.00000000000E+00 0. -1.
        -13    1    5    5    0    0 -0.76771694544E+03  0.23395523774E+03 -0.13593538257E+03  0.81400417064E+03  0.00000000000E+00 0.  1.
          1    1    4    4  503    0  0.14474360510E+02 -0.18338796728E+02  0.89116133192E+01  0.25004708148E+02  0.00000000000E+00 0. -1.
         -1    1    4    4    0  503  0.87984238868E+02  0.29019959657E+03 -0.37254065931E+03  0.48035775728E+03  0.00000000000E+00 0.  1.
<mgrwt>
<rscale>  0 0.21283657E+04</rscale>
<asrwt>0</asrwt>
<pdfrwt beam="1">  1        2 0.22882035E+00 0.21283657E+04</pdfrwt>
<pdfrwt beam="2">  1       -1 0.11714160E+00 0.21283657E+04</pdfrwt>
<totfact> 0.88754882E+00</totfact>
</mgrwt>
</event>
<event>
11    7  0.1497947E-008  0.2756095E+04  0.7818608E-02  0.8317030E-01
         -1   -1    0    0    0  501 -0.00000000000E+00  0.00000000000E+00  0.10093222818E+04  0.10093222818E+04  0.00000000000E+00 0.  1.
          2   -1    0    0  501    0  0.00000000000E+00 -0.00000000000E+00 -0.18814757464E+04  0.18814757464E+04  0.00000000000E+00 0. -1.
         24    2    1    2    0    0  0.12582496141E+03  0.12282284284E+04 -0.51027432107E+03  0.13383438084E+04  0.80045445350E+02 0.  0.
        254    2    1    2    0    0 -0.12582496141E+03 -0.12282284284E+04 -0.36187914351E+03  0.15524542198E+04  0.86878109821E+03 0.  0.
         23    2    4    4    0    0 -0.18166112138E+03 -0.48835394656E+03 -0.46827938664E+03  0.70708917163E+03  0.95912316927E+02 0.  0.
          2    1    3    3  502    0  0.82355474469E+02  0.52644103297E+03 -0.19000539731E+03  0.56570720022E+03  0.00000000000E+00 0. -1.
         -1    1    3    3    0  502  0.43469486939E+02  0.70178739548E+03 -0.32026892376E+03  0.77263660816E+03  0.00000000000E+00 0.  1.
         13    1    5    5    0    0 -0.17097453802E+02 -0.12591327996E+02 -0.43485287284E+02  0.48392506418E+02  0.00000000000E+00 0.  1.
        -13    1    5    5    0    0 -0.16456366758E+03 -0.47576261857E+03 -0.42479409936E+03  0.65869666521E+03  0.00000000000E+00 0. -1.
          2    1    4    4  503    0 -0.43674795211E+02 -0.36324380666E+03  0.23535170101E+03  0.43502180863E+03  0.00000000000E+00 0. -1.
         -2    1    4    4    0  503  0.99510955180E+02 -0.37663067523E+03 -0.12895145788E+03  0.41034323951E+03  0.00000000000E+00 0.  1.
<mgrwt>
<rscale>  0 0.27560953E+04</rscale>
<asrwt>0</asrwt>
<pdfrwt beam="1">  1        2 0.28945781E+00 0.27560953E+04</pdfrwt>
<pdfrwt beam="2">  1       -1 0.15528035E+00 0.27560953E+04</pdfrwt>
<totfact> 0.24535916E+00</totfact>
</mgrwt>
</event>
<event>
12    7  0.1497947E-008  0.3604105E+04  0.7818608E-02  0.8089552E-01
         -1   -1    0    0    0  501 -0.00000000000E+00  0.00000000000E+00  0.18785429008E+04  0.18785429008E+04  0.00000000000E+00 0.  1.
          2   -1    0    0  501    0  0.00000000000E+00 -0.00000000000E+00 -0.17286761996E+04  0.17286761996E+04  0.00000000000E+00 0. -1.
         24    2    1    2    0    0  0.92706145504E+03 -0.11768253250E+04 -0.71001143675E+03  0.16597613562E+04  0.79565897922E+02 0.  0.
        254    2    1    2    0    0 -0.92706145504E+03  0.11768253250E+04  0.85987813790E+03  0.19474577442E+04  0.89935558401E+03 0.  0.
         23    2    4    4    0    0 -0.14248313914E+02 -0.12326655593E+03  0.73596641974E+02  0.17047527453E+03  0.90816822540E+02 0.  0.
         23    2    4    4    0    0 -0.91281314112E+03  0.13000918809E+04  0.78628149593E+03  0.17769824697E+04  0.12633834449E+03 0.  0.
          2    1    3    3  502    0  0.81461177921E+03 -0.10425518760E+04 -0.65401295259E+03  0.14758860753E+04  0.00000000000E+00 0. -1.
         -1    1    3    3    0  502  0.11244967583E+03 -0.13427344899E+03 -0.55998484164E+02  0.18387528090E+03  0.00000000000E+00 0.  1.
         13    1    5    5    0    0 -0.30308982676E+01 -0.13627331253E+03  0.68549180806E+02  0.15257323567E+03  0.00000000000E+00 0.  1.
        -13    1    5    5    0    0 -0.11217415646E+02  0.13006756605E+02  0.50474611687E+01  0.17902038862E+02  0.00000000000E+00 0. -1.
          2    1    6    6  503    0 -0.79895843624E+03  0.10919226185E+04  0.70851501291E+03  0.15272927392E+04  0.00000000000E+00 0.  1.
         -2    1    6    6    0  503 -0.11385470488E+03  0.20816926239E+03  0.77766483014E+02  0.24968973048E+03  0.00000000000E+00 0. -1.
<mgrwt>
<rscale>  0 0.36041046E+04</rscale>
<asrwt>0</asrwt>
<pdfrwt beam="1">  1        2 0.26595018E+00 0.36041046E+04</pdfrwt>
<pdfrwt beam="2">  1       -1 0.28900660E+00 0.36041046E+04</pdfrwt>
<totfact> 0.34107534E-01</totfact>
</mgrwt>
</event>
<event>
12    7  0.1497947E-008  0.1547078E+04  0.7818608E-02  0.8853736E-01
         -1   -1    0    0    0  501 -0.00000000000E+00  0.00000000000E+00  0.22611442649E+03  0.22611442649E+03  0.00000000000E+00 0.  1.
          2   -1    0    0  501    0  0.00000000000E+00 -0.00000000000E+00 -0.26462821115E+04  0.26462821115E+04  0.00000000000E+00 0. -1.
         24    2    1    2    0    0  0.10631889944E+03 -0.18642807141E+03  0.48732264776E+02  0.23355974075E+03  0.78206039916E+02 0.  0.
        254    2    1    2    0    0 -0.10631889944E+03  0.18642807141E+03 -0.24688999498E+04  0.26388367973E+04  0.90660550750E+03 0.  0.
         23    2    4    4    0    0  0.12959126994E+03  0.22480673523E+03 -0.17078611024E+03  0.32579030552E+03  0.98180763252E+02 0.  0.
         23    2    4    4    0    0 -0.23591016937E+03 -0.38378663820E+02 -0.22981138396E+04  0.23130464918E+04  0.10830661782E+03 0.  0.
          4    1    3    3  502    0  0.39894957048E+02 -0.38989151336E+02 -0.18008145834E+02  0.58617871304E+02  0.00000000000E+00 0. -1.
         -3    1    3    3    0  502  0.66423942388E+02 -0.14743892008E+03  0.66740410610E+02  0.17494186944E+03  0.00000000000E+00 0.  1.
         13    1    5    5    0    0  0.65431764248E+02  0.19587322308E+03 -0.13608291901E+03  0.24731800610E+03  0.00000000000E+00 0.  1.
        -13    1    5    5    0    0  0.64159505689E+02  0.28933512146E+02 -0.34703191228E+02  0.78472299424E+02  0.00000000000E+00 0. -1.
          4    1    6    6  503    0 -0.11262153782E+03  0.14422226767E+02 -0.68296127265E+03  0.69233497047E+03  0.00000000000E+00 0. -1.
         -4    1    6    6    0  503 -0.12328863156E+03 -0.52800890587E+02 -0.16151525670E+04  0.16207115213E+04  0.00000000000E+00 0.  1.
<mgrwt>
<rscale>  0 0.15470780E+04</rscale>
<asrwt>0</asrwt>
<pdfrwt beam="1">  1        2 0.40712032E+00 0.15470780E+04</pdfrwt>
<pdfrwt beam="2">  1       -1 0.34786835E-01 0.15470780E+04</pdfrwt>
<totfact> 0.24668315E+01</totfact>
</mgrwt>
</event>
<event>
12    7  0.1497947E-008  0.1532395E+04  0.7818608E-02  0.8863192E-01
          2   -1    0    0  501    0  0.00000000000E+00  0.00000000000E+00  0.88536539743E+03  0.88536539743E+03  0.00000000000E+00 0. -1.
         -1   -1    0    0    0  501 -0.00000000000E+00 -0.00000000000E+00 -0.66306958291E+03  0.66306958291E+03  0.00000000000E+00 0.  1.
         24    2    1    2    0    0 -0.22814968563E+03  0.33125970912E+03  0.35736822228E+03  0.54345481640E+03  0.76457944185E+02 0.  0.
        254    2    1    2    0    0  0.22814968563E+03 -0.33125970912E+03 -0.13507240776E+03  0.10049801639E+04  0.91101882562E+03 0.  0.
         23    2    4    4    0    0 -0.11697687681E+02  0.21820416582E+03  0.19984640996E+03  0.31037574550E+03  0.92976459103E+02 0.  0.
         23    2    4    4    0    0  0.23984737331E+03 -0.54946387494E+03 -0.33491881771E+03  0.69460441844E+03  0.10424668488E+03 0.  0.
          2    1    3    3  502    0 -0.11032388804E+03  0.17161895437E+03  0.23109197133E+03  0.30826599713E+03  0.00000000000E+00 0. -1.
         -1    1    3    3    0  502 -0.11782579759E+03  0.15964075475E+03  0.12627625095E+03  0.23518881927E+03  0.00000000000E+00 0.  1.
         13    1    5    5    0    0 -0.18028889688E+02  0.22639907148E+03  0.19076969312E+03  0.29660521951E+03  0.00000000000E+00 0.  1.
        -13    1    5    5    0    0  0.63312020065E+01 -0.81949056576E+01  0.90767168334E+01  0.13770525991E+02  0.00000000000E+00 0. -1.
          1    1    6    6  503    0  0.40302552754E+02 -0.39381516281E+02 -0.57967846808E+02  0.80842259039E+02  0.00000000000E+00 0. -1.
         -1    1    6    6    0  503  0.19954482056E+03 -0.51008235866E+03 -0.27695097090E+03  0.61376215940E+03  0.00000000000E+00 0.  1.
<mgrwt>
<rscale>  0 0.15323953E+04</rscale>
<asrwt>0</asrwt>
<pdfrwt beam="1">  1        2 0.13621006E+00 0.15323953E+04</pdfrwt>
<pdfrwt beam="2">  1       -1 0.10201070E+00 0.15323953E+04</pdfrwt>
<totfact> 0.30057038E+01</totfact>
</mgrwt>
</event>
<event>
11    7  0.1497947E-008  0.2306583E+04  0.7818608E-02  0.8475330E-01
         -1   -1    0    0    0  501 -0.00000000000E+00  0.00000000000E+00  0.64803506378E+03  0.64803506378E+03  0.00000000000E+00 0.  1.
          2   -1    0    0  501    0  0.00000000000E+00 -0.00000000000E+00 -0.20524836727E+04  0.20524836727E+04  0.00000000000E+00 0. -1.
         24    2    1    2    0    0  0.70617178742E+03  0.35369451584E+03  0.85041315411E+02  0.79840015820E+03  0.80202140845E+02 0.  0.
        254    2    1    2    0    0 -0.70617178742E+03 -0.35369451584E+03 -0.14894899243E+04  0.19021185782E+04  0.88073630971E+03 0.  0.
         23    2    4    4    0    0 -0.77985890908E+03 -0.50514439855E+03 -0.13609012103E+04  0.16506672476E+04  0.96433793878E+02 0.  0.
          4    1    3    3  502    0  0.32007990804E+03  0.18700126817E+03  0.75446948431E+01  0.37077964379E+03  0.00000000000E+00 0. -1.
         -3    1    3    3    0  502  0.38609187938E+03  0.16669324767E+03  0.77496620568E+02  0.42762051441E+03  0.00000000000E+00 0.  1.
         13    1    5    5    0    0 -0.13021689558E+02 -0.92417344618E+01 -0.54047313822E+02  0.56356775868E+02  0.00000000000E+00 0. -1.
        -13    1    5    5    0    0 -0.76683721952E+03 -0.49590266409E+03 -0.13068538965E+04  0.15943104717E+04  0.00000000000E+00 0.  1.
          4    1    4    4  503    0 -0.20853080382E+02  0.41079443358E+02 -0.89974918404E+02  0.10108341887E+03  0.00000000000E+00 0. -1.
         -4    1    4    4    0  503  0.94540202039E+02  0.11037043935E+03 -0.38613795575E+02  0.15036791178E+03  0.00000000000E+00 0.  1.
<mgrwt>
<rscale>  0 0.23065831E+04</rscale>
<asrwt>0</asrwt>
<pdfrwt beam="1">  1        2 0.31576672E+00 0.23065831E+04</pdfrwt>
<pdfrwt beam="2">  1       -1 0.99697701E-01 0.23065831E+04</pdfrwt>
<totfact> 0.61813108E+00</totfact>
</mgrwt>
</event>
<event>
12    7  0.1497947E-008  0.1456181E+04  0.7818608E-02  0.8914127E-01
         -1   -1    0    0    0  501 -0.00000000000E+00  0.00000000000E+00  0.51619676227E+03  0.51619676227E+03  0.00000000000E+00 0.  1.
          2   -1    0    0  501    0  0.00000000000E+00 -0.00000000000E+00 -0.10269644995E+04  0.10269644995E+04  0.00000000000E+00 0. -1.
         24    2    1    2    0    0 -0.43107461917E+03 -0.22651739818E+01 -0.51358326893E+02  0.44157945623E+03  0.80773016061E+02 0.  0.
        254    2    1    2    0    0  0.43107461917E+03  0.22651739818E+01 -0.45940941030E+03  0.11015818055E+04  0.90365646659E+03 0.  0.
         23    2    4    4    0    0  0.12000104344E+03 -0.34436747838E+03 -0.49574757729E+03  0.62226092931E+03  0.91944511398E+02 0.  0.
         23    2    4    4    0    0  0.31107357573E+03  0.34663265236E+03  0.36338166991E+02  0.47932087618E+03  0.10727103411E+03 0.  0.
          4    1    3    3  502    0 -0.29424275384E+02  0.20159645953E+02  0.22935278841E+01  0.35741566516E+02  0.00000000000E+00 0. -1.
         -3    1    3    3    0  502 -0.40165034378E+03 -0.22424819935E+02 -0.53651854777E+02  0.40583788972E+03  0.00000000000E+00 0.  1.
         13    1    5    5    0    0  0.12996537095E+03 -0.31156327296E+03 -0.41804294488E+03  0.53732911188E+03  0.00000000000E+00 0.  1.
        -13    1    5    5    0    0 -0.99643275165E+01 -0.32804205412E+02 -0.77704632409E+02  0.84931817439E+02  0.00000000000E+00 0. -1.
          2    1    6    6  503    0  0.17177700032E+02  0.70080929714E+02 -0.11041218833E+02  0.72995332736E+02  0.00000000000E+00 0. -1.
         -2    1    6    6    0  503  0.29389587570E+03  0.27655172264E+03  0.47379385824E+02  0.40632554344E+03  0.00000000000E+00 0.  1.
<mgrwt>
<rscale>  0 0.14561810E+04</rscale>
<asrwt>0</asrwt>
<pdfrwt beam="1">  1        2 0.15799454E+00 0.14561810E+04</pdfrwt>
<pdfrwt beam="2">  1       -1 0.79414888E-01 0.14561810E+04</pdfrwt>
<totfact> 0.42425145E+01</totfact>
</mgrwt>
</event>
<event>
12    7  0.1497947E-008  0.1586358E+04  0.7818608E-02  0.8828973E-01
          2   -1    0    0  501    0  0.00000000000E+00  0.00000000000E+00  0.66866398179E+03  0.66866398179E+03  0.00000000000E+00 0. -1.
         -1   -1    0    0    0  501 -0.00000000000E+00 -0.00000000000E+00 -0.94088093888E+03  0.94088093888E+03  0.00000000000E+00 0.  1.
         24    2    1    2    0    0  0.31349279201E+02 -0.17566012907E+03  0.41722268133E+03  0.46046656975E+03  0.78201264659E+02 0.  0.
        254    2    1    2    0    0 -0.31349279201E+02  0.17566012907E+03 -0.68943963842E+03  0.11490783509E+04  0.90178422213E+03 0.  0.
         23    2    4    4    0    0 -0.50318591720E+02  0.16684262211E+03 -0.90119649991E+03  0.92228399286E+03  0.89912239518E+02 0.  0.
         23    2    4    4    0    0  0.18969312519E+02  0.88175069584E+01  0.21175686149E+03  0.22679435806E+03  0.78467376753E+02 0.  0.
          4    1    3    3  502    0  0.40525585410E+02 -0.17027471524E+03  0.33895591354E+03  0.38147989861E+03  0.00000000000E+00 0. -1.
         -3    1    3    3    0  502 -0.91763062083E+01 -0.53854138321E+01  0.78266767791E+02  0.78986671142E+02  0.00000000000E+00 0.  1.
         13    1    5    5    0    0 -0.50586224193E+01 -0.94507251408E+01 -0.22345131891E+02  0.24783276331E+02  0.00000000000E+00 0. -1.
        -13    1    5    5    0    0 -0.45259969301E+02  0.17629334725E+03 -0.87885136802E+03  0.89750071653E+03  0.00000000000E+00 0.  1.
          2    1    6    6  503    0  0.29130940773E+02 -0.28823726845E+02  0.12815810922E+03  0.13455080787E+03  0.00000000000E+00 0.  1.
         -2    1    6    6    0  503 -0.10161628254E+02  0.37641233804E+02  0.83598752269E+02  0.92243550191E+02  0.00000000000E+00 0. -1.
<mgrwt>
<rscale>  0 0.15863583E+04</rscale>
<asrwt>0</asrwt>
<pdfrwt beam="1">  1        2 0.10287138E+00 0.15863583E+04</pdfrwt>
<pdfrwt beam="2">  1       -1 0.14475091E+00 0.15863583E+04</pdfrwt>
<totfact> 0.18269608E+01</totfact>
</mgrwt>
</event>
<event>
11    7  0.1497947E-008  0.2128283E+04  0.7818608E-02  0.8548886E-01
         -1   -1    0    0    0  501 -0.00000000000E+00  0.00000000000E+00  0.17801845867E+04  0.17801845867E+04  0.00000000000E+00 0.  1.
          2   -1    0    0  501    0  0.00000000000E+00 -0.00000000000E+00 -0.63611209807E+03  0.63611209807E+03  0.00000000000E+00 0. -1.
         24    2    1    2    0    0  0.47414425892E+03  0.30023554465E+03  0.12265307536E+04  0.13511411478E+04  0.79060427834E+02 0.  0.
        254    2    1    2    0    0 -0.47414425892E+03 -0.30023554465E+03 -0.82458264977E+02  0.10651555369E+04  0.90155576193E+03 0.  0.
         23    2    4    4    0    0  0.23031475512E+03  0.66602299468E+02 -0.12099738628E+02  0.25725371421E+03  0.92478738513E+02 0.  0.
          2    1    3    3  502    0  0.12137039704E+03  0.38449188904E+02  0.26333038735E+03  0.29249274573E+03  0.00000000000E+00 0. -1.
         -1    1    3    3    0  502  0.35277386188E+03  0.26178635575E+03  0.96320036627E+03  0.10586484021E+04  0.00000000000E+00 0.  1.
         13    1    5    5    0    0  0.40923972933E+01  0.24506384176E+02  0.84229907168E+01  0.26234659396E+02  0.00000000000E+00 0.  1.
        -13    1    5    5    0    0  0.22622235783E+03  0.42095915292E+02 -0.20522729344E+02  0.23101905481E+03  0.00000000000E+00 0. -1.
          3    1    4    4  503    0 -0.60798885359E+03 -0.26250387553E+03 -0.68719323720E+02  0.66579356877E+03  0.00000000000E+00 0. -1.
         -3    1    4    4    0  503 -0.96470160450E+02 -0.10433396859E+03 -0.16392026298E+01  0.14210825396E+03  0.00000000000E+00 0.  1.
<mgrwt>
<rscale>  0 0.21282828E+04</rscale>
<asrwt>0</asrwt>
<pdfrwt beam="1">  1        2 0.97863401E-01 0.21282828E+04</pdfrwt>
<pdfrwt beam="2">  1       -1 0.27387455E+00 0.21282828E+04</pdfrwt>
<totfact> 0.23639397E+00</totfact>
</mgrwt>
</event>
<event>
12    7  0.1497947E-008  0.2255825E+04  0.7818608E-02  0.8495545E-01
         -1   -1    0    0    0  501 -0.00000000000E+00  0.00000000000E+00  0.10342851658E+04  0.10342851658E+04  0.00000000000E+00 0.  1.
          2   -1    0    0  501    0  0.00000000000E+00 -0.00000000000E+00 -0.12300157051E+04  0.12300157051E+04  0.00000000000E+00 0. -1.
         24    2    1    2    0    0  0.18059740020E+03  0.88264740646E+03  0.21238220308E+03  0.92902235901E+03  0.79337748060E+02 0.  0.
        254    2    1    2    0    0 -0.18059740020E+03 -0.88264740646E+03 -0.40811274239E+03  0.13352785118E+04  0.89706790630E+03 0.  0.
         23    2    4    4    0    0  0.21834306571E+03 -0.43496912304E+03  0.14522457191E+03  0.51606362524E+03  0.91431158095E+02 0.  0.
         23    2    4    4    0    0 -0.39894046591E+03 -0.44767828342E+03 -0.55333731430E+03  0.81921488657E+03  0.73222306676E+02 0.  0.
          2    1    3    3  502    0 -0.42879075125E+01  0.51869053428E+02  0.96658048379E+00  0.52054962609E+02  0.00000000000E+00 0. -1.
         -1    1    3    3    0  502  0.18488530771E+03  0.83077835303E+03  0.21141562260E+03  0.87696739640E+03  0.00000000000E+00 0.  1.
         13    1    5    5    0    0  0.13066316834E+03 -0.22487603506E+03  0.32734861975E+02  0.26213291646E+03  0.00000000000E+00 0.  1.
        -13    1    5    5    0    0  0.87679897369E+02 -0.21009308798E+03  0.11248970994E+03  0.25393070878E+03  0.00000000000E+00 0. -1.
          1    1    6    6  503    0 -0.10751261329E+03 -0.13905872974E+03 -0.20556995229E+03  0.27047236017E+03  0.00000000000E+00 0. -1.
         -1    1    6    6    0  503 -0.29142785262E+03 -0.30861955368E+03 -0.34776736201E+03  0.54874252640E+03  0.00000000000E+00 0.  1.
<mgrwt>
<rscale>  0 0.22558253E+04</rscale>
<asrwt>0</asrwt>
<pdfrwt beam="1">  1        2 0.18923318E+00 0.22558253E+04</pdfrwt>
<pdfrwt beam="2">  1       -1 0.15912080E+00 0.22558253E+04</pdfrwt>
<totfact> 0.55947765E+00</totfact>
</mgrwt>
</event>
<event>
12    7  0.1497947E-008  0.1332994E+04  0.7818608E-02  0.9003802E-01
          2   -1    0    0  501    0  0.00000000000E+00  0.00000000000E+00  0.19328595454E+04  0.19328595454E+04  0.00000000000E+00 0. -1.
         -1   -1    0    0    0  501 -0.00000000000E+00 -0.00000000000E+00 -0.22982441374E+03  0.22982441374E+03  0.00000000000E+00 0.  1.
         24    2    1    2    0    0 -0.29948604730E+03  0.24161622344E+01  0.77254916920E+03  0.83232050771E+03  0.78914373480E+02 0.  0.
        254    2    1    2    0    0  0.29948604730E+03 -0.24161622344E+01  0.93048596245E+03  0.13303634514E+04  0.90242177290E+03 0.  0.
         23    2    4    4    0    0  0.60132415364E+03 -0.79904966526E+02  0.55193230752E+03  0.82531451664E+03  0.92407996853E+02 0.  0.
         23    2    4    4    0    0 -0.30183810633E+03  0.77488804291E+02  0.37855365494E+03  0.50504893478E+03  0.12108178904E+03 0.  0.
          4    1    3    3  502    0 -0.30015063703E+03 -0.60148766115E+01  0.76040147763E+03  0.81751880152E+03  0.00000000000E+00 0. -1.
         -3    1    3    3    0  502  0.66458972982E+00  0.84310388459E+01  0.12147691571E+02  0.14801706186E+02  0.00000000000E+00 0.  1.
         13    1    5    5    0    0  0.57895908809E+03 -0.82631137835E+02  0.54979874023E+03  0.80268311641E+03  0.00000000000E+00 0.  1.
        -13    1    5    5    0    0  0.22365065549E+02  0.27261713099E+01  0.21335672870E+01  0.22631400230E+02  0.00000000000E+00 0. -1.
          2    1    6    6  503    0 -0.13028797746E+03  0.16779851941E+02  0.24946039258E+03  0.28193440366E+03  0.00000000000E+00 0. -1.
         -2    1    6    6    0  503 -0.17155012888E+03  0.60708952351E+02  0.12909326235E+03  0.22311453112E+03  0.00000000000E+00 0.  1.
<mgrwt>
<rscale>  0 0.13329941E+04</rscale>
<asrwt>0</asrwt>
<pdfrwt beam="1">  1        2 0.29736300E+00 0.13329941E+04</pdfrwt>
<pdfrwt beam="2">  1       -1 0.35357603E-01 0.13329941E+04</pdfrwt>
<totfact> 0.61834171E+01</totfact>
</mgrwt>
</event>
<event>
12    7  0.1497947E-008  0.1800697E+04  0.7818608E-02  0.8705929E-01
         -1   -1    0    0    0  501 -0.00000000000E+00  0.00000000000E+00  0.20307739736E+04  0.20307739736E+04  0.00000000000E+00 0.  1.
          2   -1    0    0  501    0  0.00000000000E+00 -0.00000000000E+00 -0.39917147823E+03  0.39917147823E+03  0.00000000000E+00 0. -1.
         24    2    1    2    0    0  0.33283404046E+03  0.58089686819E+03  0.65090451763E+03  0.93718618037E+03  0.80134734235E+02 0.  0.
        254    2    1    2    0    0 -0.33283404046E+03 -0.58089686819E+03  0.98069797778E+03  0.14927592715E+04  0.90462260037E+03 0.  0.
         23    2    4    4    0    0 -0.19736480407E+03 -0.71720444451E+03  0.10361361028E+04  0.12786961020E+04  0.90280765770E+02 0.  0.
         23    2    4    4    0    0 -0.13546923638E+03  0.13630757632E+03 -0.55438125023E+02  0.21406316950E+03  0.76275720006E+02 0.  0.
          2    1    3    3  502    0  0.28207344295E+02  0.10872566475E+03  0.11205070109E+03  0.15865775765E+03  0.00000000000E+00 0. -1.
         -1    1    3    3    0  502  0.30462669616E+03  0.47217120344E+03  0.53885381655E+03  0.77852842272E+03  0.00000000000E+00 0.  1.
         13    1    5    5    0    0 -0.16435940099E+03 -0.66220136982E+03  0.97547322933E+03  0.11904086223E+04  0.00000000000E+00 0. -1.
        -13    1    5    5    0    0 -0.33005403086E+02 -0.55003074686E+02  0.60662873466E+02  0.88287479717E+02  0.00000000000E+00 0.  1.
          4    1    6    6  503    0 -0.13436538841E+03  0.13788723392E+03 -0.65847524161E+02  0.20347688644E+03  0.00000000000E+00 0. -1.
         -4    1    6    6    0  503 -0.11038479755E+01 -0.15796576004E+01  0.10409399138E+02  0.10586283054E+02  0.00000000000E+00 0.  1.
<mgrwt>
<rscale>  0 0.18006966E+04</rscale>
<asrwt>0</asrwt>
<pdfrwt beam="1">  1        2 0.61410998E-01 0.18006966E+04</pdfrwt>
<pdfrwt beam="2">  1       -1 0.31242676E+00 0.18006966E+04</pdfrwt>
<totfact> 0.23626320E+00</totfact>
</mgrwt>
</event>
<event>
11    7  0.1497947E-008  0.2161698E+04  0.7818608E-02  0.8534542E-01
         -1   -1    0    0    0  501 -0.00000000000E+00  0.00000000000E+00  0.12554143644E+04  0.12554143644E+04  0.00000000000E+00 0.  1.
          2   -1    0    0  501    0  0.00000000000E+00 -0.00000000000E+00 -0.93055693148E+03  0.93055693148E+03  0.00000000000E+00 0. -1.
         24    2    1    2    0    0  0.73039726688E+03 -0.41463171454E+03 -0.16658657606E+03  0.86001316523E+03  0.80448311881E+02 0.  0.
        254    2    1    2    0    0 -0.73039726688E+03  0.41463171454E+03  0.49144400898E+03  0.13259581307E+04  0.90069313538E+03 0.  0.
         23    2    4    4    0    0 -0.50349982231E+03  0.26383022913E+03 -0.16760546845E+03  0.59970931604E+03  0.91876056887E+02 0.  0.
          4    1    3    3  502    0  0.63878652709E+03 -0.35702265757E+03 -0.17174530635E+03  0.75167137464E+03  0.00000000000E+00 0. -1.
         -3    1    3    3    0  502  0.91610739787E+02 -0.57609056972E+02  0.51587302831E+01  0.10834179059E+03  0.00000000000E+00 0.  1.
         13    1    5    5    0    0 -0.47308419641E+03  0.24934803223E+03 -0.17932812805E+03  0.56404049109E+03  0.00000000000E+00 0.  1.
        -13    1    5    5    0    0 -0.30415625893E+02  0.14482196892E+02  0.11722659606E+02  0.35668824952E+02  0.00000000000E+00 0. -1.
          1    1    4    4  503    0 -0.63385950285E+02  0.37696231854E+02  0.60013883016E+02  0.95081284931E+02  0.00000000000E+00 0. -1.
         -1    1    4    4    0  503 -0.16351149429E+03  0.11310525356E+03  0.59903559442E+03  0.63116752968E+03  0.00000000000E+00 0.  1.
<mgrwt>
<rscale>  0 0.21616980E+04</rscale>
<asrwt>0</asrwt>
<pdfrwt beam="1">  1        2 0.14316260E+00 0.21616980E+04</pdfrwt>
<pdfrwt beam="2">  1       -1 0.19314067E+00 0.21616980E+04</pdfrwt>
<totfact> 0.49130348E+00</totfact>
</mgrwt>
</event>
<event>
12    7  0.1497947E-008  0.1725091E+04  0.7818608E-02  0.8747182E-01
          2   -1    0    0  501    0  0.00000000000E+00  0.00000000000E+00  0.90529356481E+03  0.90529356481E+03  0.00000000000E+00 0. -1.
         -1   -1    0    0    0  501 -0.00000000000E+00 -0.00000000000E+00 -0.82181618565E+03  0.82181618565E+03  0.00000000000E+00 0.  1.
         24    2    1    2    0    0 -0.37498960257E+00 -0.21892249358E+02  0.65342032287E+03  0.65873837562E+03  0.80614626315E+02 0.  0.
        254    2    1    2    0    0  0.37498960257E+00  0.21892249358E+02 -0.56994294372E+03  0.10683713748E+04  0.90338420634E+03 0.  0.
         23    2    4    4    0    0 -0.14013900184E+03  0.41755241937E+03 -0.17662992863E+03  0.48317321506E+03  0.90935478825E+02 0.  0.
         23    2    4    4    0    0  0.14051399144E+03 -0.39566017001E+03 -0.39331301508E+03  0.58519815977E+03  0.10710091711E+03 0.  0.
          4    1    3    3  502    0 -0.14950641196E+02 -0.40894464749E+02  0.57729888138E+03  0.57893857823E+03  0.00000000000E+00 0. -1.
         -3    1    3    3    0  502  0.14575651593E+02  0.19002215391E+02  0.76121441490E+02  0.79799797391E+02  0.00000000000E+00 0.  1.
         13    1    5    5    0    0 -0.17337439692E+02  0.50260273131E+02  0.86354814684E+01  0.53863284438E+02  0.00000000000E+00 0.  1.
        -13    1    5    5    0    0 -0.12280156215E+03  0.36729214624E+03 -0.18526541010E+03  0.42930993062E+03  0.00000000000E+00 0. -1.
          1    1    6    6  503    0  0.51545008728E+02 -0.14473996683E+03 -0.77310498799E+02  0.17199842775E+03  0.00000000000E+00 0. -1.
         -1    1    6    6    0  503  0.88968982712E+02 -0.25092020318E+03 -0.31600251628E+03  0.41319973202E+03  0.00000000000E+00 0.  1.
<mgrwt>
<rscale>  0 0.17250912E+04</rscale>
<asrwt>0</asrwt>
<pdfrwt beam="1">  1        2 0.13927593E+00 0.17250912E+04</pdfrwt>
<pdfrwt beam="2">  1       -1 0.12643326E+00 0.17250912E+04</pdfrwt>
<totfact> 0.17145569E+01</totfact>
</mgrwt>
</event>
<event>
12    7  0.1497947E-008  0.2305542E+04  0.7818608E-02  0.8475739E-01
         -1   -1    0    0    0  501 -0.00000000000E+00  0.00000000000E+00  0.15368755248E+04  0.15368755248E+04  0.00000000000E+00 0.  1.
          2   -1    0    0  501    0  0.00000000000E+00 -0.00000000000E+00 -0.86466408444E+03  0.86466408444E+03  0.00000000000E+00 0. -1.
         24    2    1    2    0    0 -0.41379577492E+02  0.44943251022E+03 -0.61428345679E+03  0.76649359810E+03  0.80414053260E+02 0.  0.
        254    2    1    2    0    0  0.41379577492E+02 -0.44943251022E+03  0.12864948972E+04  0.16350460112E+04  0.90255442358E+03 0.  0.
         23    2    4    4    0    0 -0.40223085947E+03 -0.25102068530E+03  0.85951317230E+03  0.98568597026E+03  0.89514746561E+02 0.  0.
         23    2    4    4    0    0  0.44361043696E+03 -0.19841182492E+03  0.42698172488E+03  0.64936004092E+03  0.56547301542E+02 0.  0.
          4    1    3    3  502    0 -0.17113241598E+02  0.37853789407E+03 -0.54923698141E+03  0.66726685968E+03  0.00000000000E+00 0. -1.
         -3    1    3    3    0  502 -0.24266335894E+02  0.70894616151E+02 -0.65046475386E+02  0.99226738418E+02  0.00000000000E+00 0.  1.
         13    1    5    5    0    0 -0.36203238008E+03 -0.19740808987E+03  0.69612315531E+03  0.80908889841E+03  0.00000000000E+00 0.  1.
        -13    1    5    5    0    0 -0.40198479390E+02 -0.53612595429E+02  0.16339001698E+03  0.17659707184E+03  0.00000000000E+00 0. -1.
          2    1    6    6  503    0  0.71230930430E+02 -0.14938947751E+02  0.47393606729E+02  0.86851433890E+02  0.00000000000E+00 0. -1.
         -2    1    6    6    0  503  0.37237950653E+03 -0.18347287717E+03  0.37958811815E+03  0.56250860703E+03  0.00000000000E+00 0.  1.
<mgrwt>
<rscale>  0 0.23055421E+04</rscale>
<asrwt>0</asrwt>
<pdfrwt beam="1">  1        2 0.13302524E+00 0.23055421E+04</pdfrwt>
<pdfrwt beam="2">  1       -1 0.23644239E+00 0.23055421E+04</pdfrwt>
<totfact> 0.27418927E+00</totfact>
</mgrwt>
</event>
<event>
11    7  0.1497947E-008  0.1224095E+04  0.7818608E-02  0.9092024E-01
          2   -1    0    0  501    0  0.00000000000E+00  0.00000000000E+00  0.16466180240E+04  0.16466180240E+04  0.00000000000E+00 0. -1.
         -1   -1    0    0    0  501 -0.00000000000E+00 -0.00000000000E+00 -0.22749790035E+03  0.22749790035E+03  0.00000000000E+00 0.  1.
         24    2    1    2    0    0 -0.32391014453E+02 -0.75015258271E+02  0.73683915216E+03  0.74443568086E+03  0.67646729315E+02 0.  0.
        254    2    1    2    0    0  0.32391014453E+02  0.75015258271E+02  0.68228097145E+03  0.11296802435E+04  0.89665693644E+03 0.  0.
         23    2    4    4    0    0 -0.15446035411E+03  0.38419135086E+03  0.60269229107E+03  0.73689476755E+03  0.91186104511E+02 0.  0.
          4    1    3    3  502    0 -0.50488999568E+02 -0.40888046579E+02  0.53527077722E+03  0.53919919916E+03  0.00000000000E+00 0. -1.
         -3    1    3    3    0  502  0.18097985115E+02 -0.34127211692E+02  0.20156837494E+03  0.20523648170E+03  0.00000000000E+00 0.  1.
         13    1    5    5    0    0 -0.16640687876E+03  0.36644335667E+03  0.57635394605E+03  0.70296219960E+03  0.00000000000E+00 0.  1.
        -13    1    5    5    0    0  0.11946524645E+02  0.17747994184E+02  0.26338345026E+02  0.33932567945E+02  0.00000000000E+00 0. -1.
          4    1    4    4  503    0  0.63380136678E+02 -0.23160434858E+02 -0.10961574468E+02  0.68363759280E+02  0.00000000000E+00 0. -1.
         -4    1    4    4    0  503  0.12347123189E+03 -0.28601565773E+03  0.90550254849E+02  0.32442171663E+03  0.00000000000E+00 0.  1.
<mgrwt>
<rscale>  0 0.12240950E+04</rscale>
<asrwt>0</asrwt>
<pdfrwt beam="1">  1        2 0.25332584E+00 0.12240950E+04</pdfrwt>
<pdfrwt beam="2">  1       -1 0.34999678E-01 0.12240950E+04</pdfrwt>
<totfact> 0.91453987E+01</totfact>
</mgrwt>
</event>
<event>
11    7  0.1497947E-008  0.1591866E+04  0.7818608E-02  0.8825561E-01
         -1   -1    0    0    0  501 -0.00000000000E+00  0.00000000000E+00  0.54174472205E+03  0.54174472205E+03  0.00000000000E+00 0.  1.
          2   -1    0    0  501    0  0.00000000000E+00 -0.00000000000E+00 -0.11693865752E+04  0.11693865752E+04  0.00000000000E+00 0. -1.
         24    2    1    2    0    0 -0.16996632251E+03  0.26101291039E+03 -0.68755311776E+03  0.75873836613E+03  0.77060549654E+02 0.  0.
        254    2    1    2    0    0  0.16996632251E+03 -0.26101291039E+03  0.59911264655E+02  0.95239293109E+03  0.89802374433E+03 0.  0.
         23    2    4    4    0    0  0.18550247450E+03 -0.43170366851E+03 -0.11803966355E+03  0.49314027920E+03  0.92058390988E+02 0.  0.
          4    1    3    3  502    0 -0.13433518917E+03  0.15385801531E+03 -0.49550490436E+03  0.53595087664E+03  0.00000000000E+00 0. -1.
         -3    1    3    3    0  502 -0.35631133344E+02  0.10715489508E+03 -0.19204821340E+03  0.22278748949E+03  0.00000000000E+00 0.  1.
         13    1    5    5    0    0  0.18812648646E+03 -0.42919190638E+03 -0.12525432783E+03  0.48506279392E+03  0.00000000000E+00 0. -1.
        -13    1    5    5    0    0 -0.26240119607E+01 -0.25117621283E+01  0.72146642784E+01  0.80774852775E+01  0.00000000000E+00 0.  1.
          2    1    4    4  503    0  0.31945827699E+02  0.24607308594E+03  0.24426433465E+03  0.34819185045E+03  0.00000000000E+00 0. -1.
         -2    1    4    4    0  503 -0.47481979686E+02 -0.75382327822E+02 -0.66313406447E+02  0.11106080144E+03  0.00000000000E+00 0.  1.
<mgrwt>
<rscale>  0 0.15918656E+04</rscale>
<asrwt>0</asrwt>
<pdfrwt beam="1">  1        2 0.17990563E+00 0.15918656E+04</pdfrwt>
<pdfrwt beam="2">  1       -1 0.83345341E-01 0.15918656E+04</pdfrwt>
<totfact> 0.30894712E+01</totfact>
</mgrwt>
</event>
<event>
12    7  0.1497947E-008  0.2413548E+04  0.7818608E-02  0.8434449E-01
         -1   -1    0    0    0  501 -0.00000000000E+00  0.00000000000E+00  0.29357722328E+04  0.29357722328E+04  0.00000000000E+00 0.  1.
          2   -1    0    0  501    0  0.00000000000E+00 -0.00000000000E+00 -0.49605452638E+03  0.49605452638E+03  0.00000000000E+00 0. -1.
         24    2    1    2    0    0  0.27554718192E+03  0.28965173938E+03  0.24051265886E+04  0.24394439067E+04  0.80176600563E+02 0.  0.
        254    2    1    2    0    0 -0.27554718192E+03 -0.28965173938E+03  0.34591117869E+02  0.99238285249E+03  0.90763583055E+03 0.  0.
         23    2    4    4    0    0 -0.21420195310E+02 -0.51281473419E+03  0.24526583590E+03  0.57673255975E+03  0.95012308929E+02 0.  0.
         23    2    4    4    0    0 -0.25412698661E+03  0.22316299481E+03 -0.21067471803E+03  0.41565029274E+03  0.11831771407E+03 0.  0.
          2    1    3    3  502    0  0.80866455025E+02  0.11856025419E+03  0.68212923777E+03  0.69706256135E+03  0.00000000000E+00 0. -1.
         -1    1    3    3    0  502  0.19468072690E+03  0.17109148520E+03  0.17229973508E+04  0.17423813453E+04  0.00000000000E+00 0.  1.
         13    1    5    5    0    0 -0.30492220686E+02 -0.48885632116E+03  0.25115707770E+03  0.55044541595E+03  0.00000000000E+00 0. -1.
        -13    1    5    5    0    0  0.90720253761E+01 -0.23958413034E+02 -0.58912417997E+01  0.26287143806E+02  0.00000000000E+00 0.  1.
          3    1    6    6  503    0 -0.22526499902E+03  0.15494756746E+03 -0.12004594666E+03  0.29860357961E+03  0.00000000000E+00 0. -1.
         -3    1    6    6    0  503 -0.28861987594E+02  0.68215427343E+02 -0.90628771367E+02  0.11704671313E+03  0.00000000000E+00 0.  1.
<mgrwt>
<rscale>  0 0.24135477E+04</rscale>
<asrwt>0</asrwt>
<pdfrwt beam="1">  1        2 0.76316083E-01 0.24135477E+04</pdfrwt>
<pdfrwt beam="2">  1       -1 0.45165725E+00 0.24135477E+04</pdfrwt>
<totfact> 0.20069827E-01</totfact>
</mgrwt>
</event>
<event>
12    7  0.1497947E-008  0.1603883E+04  0.7818608E-02  0.8818166E-01
          2   -1    0    0  501    0  0.00000000000E+00  0.00000000000E+00  0.16489436091E+04  0.16489436091E+04  0.00000000000E+00 0. -1.
         -1   -1    0    0    0  501 -0.00000000000E+00 -0.00000000000E+00 -0.39001339348E+03  0.39001339348E+03  0.00000000000E+00 0.  1.
         24    2    1    2    0    0  0.23676394728E+03  0.41304958680E+03  0.71123816708E+02  0.48870663768E+03  0.84311639291E+02 0.  0.
        254    2    1    2    0    0 -0.23676394728E+03 -0.41304958680E+03  0.11878063989E+04  0.15502503649E+04  0.87505715509E+03 0.  0.
         23    2    4    4    0    0 -0.16659371490E+03 -0.67648445527E+03  0.82644615831E+03  0.10847985912E+04  0.91597198589E+02 0.  0.
         23    2    4    4    0    0 -0.70170232380E+02  0.26343486847E+03  0.36136024061E+03  0.46545177371E+03  0.10836207233E+03 0.  0.
          4    1    3    3  502    0 -0.39801158702E+01  0.34464523290E+02  0.84000337364E+01  0.35696011748E+02  0.00000000000E+00 0. -1.
         -3    1    3    3    0  502  0.24074406315E+03  0.37858506351E+03  0.62723782972E+02  0.45301062593E+03  0.00000000000E+00 0.  1.
         13    1    5    5    0    0  0.21346728318E+00 -0.14198893554E+03  0.18829794617E+03  0.23583260995E+03  0.00000000000E+00 0.  1.
        -13    1    5    5    0    0 -0.16680718218E+03 -0.53449551974E+03  0.63814821214E+03  0.84896598124E+03  0.00000000000E+00 0. -1.
          2    1    6    6  503    0 -0.85441055324E+02  0.12827711194E+03  0.22604234768E+03  0.27358789141E+03  0.00000000000E+00 0.  1.
         -2    1    6    6    0  503  0.15270822944E+02  0.13515775653E+03  0.13531789293E+03  0.19186388230E+03  0.00000000000E+00 0. -1.
<mgrwt>
<rscale>  0 0.16038829E+04</rscale>
<asrwt>0</asrwt>
<pdfrwt beam="1">  1        2 0.25368363E+00 0.16038829E+04</pdfrwt>
<pdfrwt beam="2">  1       -1 0.60002061E-01 0.16038829E+04</pdfrwt>
<totfact> 0.32206399E+01</totfact>
</mgrwt>
</event>
<event>
11    7  0.1497947E-008  0.1185883E+04  0.7818608E-02  0.9125304E-01
          2   -1    0    0  501    0  0.00000000000E+00  0.00000000000E+00  0.10026413875E+04  0.10026413875E+04  0.00000000000E+00 0. -1.
         -1   -1    0    0    0  501 -0.00000000000E+00 -0.00000000000E+00 -0.35065347383E+03  0.35065347383E+03  0.00000000000E+00 0.  1.
         24    2    1    2    0    0  0.26884012105E+02  0.24565428810E+03  0.12417756538E+03  0.28774271869E+03  0.79416780644E+02 0.  0.
        254    2    1    2    0    0 -0.26884012105E+02 -0.24565428810E+03  0.52781034825E+03  0.10655521426E+04  0.89204754665E+03 0.  0.
         23    2    4    4    0    0 -0.11289839494E+03  0.29877688098E+03  0.10792765469E+03  0.34943573133E+03  0.91887319545E+02 0.  0.
          2    1    3    3  502    0  0.30061064723E+02  0.26840260321E+02  0.25474153529E+02  0.47675986454E+02  0.00000000000E+00 0. -1.
         -1    1    3    3    0  502 -0.31770526178E+01  0.21881402778E+03  0.98703411848E+02  0.24006673224E+03  0.00000000000E+00 0.  1.
         13    1    5    5    0    0  0.14076830321E+00 -0.66566135203E+01  0.25914691264E+01  0.71446505518E+01  0.00000000000E+00 0. -1.
        -13    1    5    5    0    0 -0.11303916324E+03  0.30543349450E+03  0.10533618556E+03  0.34229108077E+03  0.00000000000E+00 0.  1.
          4    1    4    4  503    0  0.77689671580E+02 -0.25263024301E+03  0.98801611463E+02  0.28216924563E+03  0.00000000000E+00 0. -1.
         -4    1    4    4    0  503  0.83247112499E+01 -0.29180092607E+03  0.32108108210E+03  0.43394716563E+03  0.00000000000E+00 0.  1.
<mgrwt>
<rscale>  0 0.11858831E+04</rscale>
<asrwt>0</asrwt>
<pdfrwt beam="1">  1        2 0.15425252E+00 0.11858831E+04</pdfrwt>
<pdfrwt beam="2">  1       -1 0.53946689E-01 0.11858831E+04</pdfrwt>
<totfact> 0.98029867E+01</totfact>
</mgrwt>
</event>
<event>
11    7  0.1497947E-008  0.1836906E+04  0.7818608E-02  0.8686916E-01
          2   -1    0    0  501    0  0.00000000000E+00  0.00000000000E+00  0.55429236101E+03  0.55429236101E+03  0.00000000000E+00 0. -1.
         -1   -1    0    0    0  501 -0.00000000000E+00 -0.00000000000E+00 -0.15218611617E+04  0.15218611617E+04  0.00000000000E+00 0.  1.
         24    2    1    2    0    0  0.64980619544E+03  0.15217522948E+03 -0.59874546957E+03  0.90083945787E+03  0.87236457018E+02 0.  0.
        254    2    1    2    0    0 -0.64980619544E+03 -0.15217522948E+03 -0.36882333108E+03  0.11753140648E+04  0.89438644292E+03 0.  0.
         23    2    4    4    0    0 -0.63942438150E+03 -0.95056006939E+02  0.12026088272E+03  0.66387332313E+03  0.91465431374E+02 0.  0.
          2    1    3    3  502    0  0.53887919629E+03  0.15444026326E+03 -0.52156935438E+03  0.76568738695E+03  0.00000000000E+00 0. -1.
         -1    1    3    3    0  502  0.11092699915E+03 -0.22650337797E+01 -0.77176115186E+02  0.13515207092E+03  0.00000000000E+00 0.  1.
         13    1    5    5    0    0 -0.54679821998E+03 -0.63160726132E+02  0.12953800962E+03  0.56547118992E+03  0.00000000000E+00 0.  1.
        -13    1    5    5    0    0 -0.92626161527E+02 -0.31895280807E+02 -0.92771268947E+01  0.98402133211E+02  0.00000000000E+00 0. -1.
          4    1    4    4  503    0  0.32193867863E+02 -0.36913772839E+02 -0.50570868177E+02  0.70402304375E+02  0.00000000000E+00 0. -1.
         -4    1    4    4    0  503 -0.42575681797E+02 -0.20205449698E+02 -0.43851334563E+03  0.44103843730E+03  0.00000000000E+00 0.  1.
<mgrwt>
<rscale>  0 0.18369061E+04</rscale>
<asrwt>0</asrwt>
<pdfrwt beam="1">  1        2 0.85275750E-01 0.18369061E+04</pdfrwt>
<pdfrwt beam="2">  1       -1 0.23413248E+00 0.18369061E+04</pdfrwt>
<totfact> 0.51979921E+00</totfact>
</mgrwt>
</event>
<event>
11    7  0.1497947E-008  0.1727560E+04  0.7818608E-02  0.8745800E-01
          2   -1    0    0  501    0  0.00000000000E+00  0.00000000000E+00  0.12448615703E+04  0.12448615703E+04  0.00000000000E+00 0. -1.
         -1   -1    0    0    0  501 -0.00000000000E+00 -0.00000000000E+00 -0.59935650127E+03  0.59935650127E+03  0.00000000000E+00 0.  1.
         24    2    1    2    0    0  0.29424224147E+03 -0.19794142433E+03 -0.31464943420E+03  0.48081700292E+03  0.80133761439E+02 0.  0.
        254    2    1    2    0    0 -0.29424224147E+03  0.19794142433E+03  0.96015450324E+03  0.13634010687E+04  0.90067002826E+03 0.  0.
         23    2    4    4    0    0  0.21957737877E+03  0.31735924230E+03  0.24924788876E+03  0.46843590952E+03  0.91523643556E+02 0.  0.
          4    1    3    3  502    0  0.17405038267E+03 -0.11047261580E+03 -0.12979119540E+03  0.24360519073E+03  0.00000000000E+00 0. -1.
         -3    1    3    3    0  502  0.12019185880E+03 -0.87468808528E+02 -0.18485823880E+03  0.23721181218E+03  0.00000000000E+00 0.  1.
         13    1    5    5    0    0  0.33999574810E+02  0.14803742977E+02  0.46287655239E+01  0.37370407593E+02  0.00000000000E+00 0. -1.
        -13    1    5    5    0    0  0.18557780396E+03  0.30255549933E+03  0.24461912324E+03  0.43106550192E+03  0.00000000000E+00 0.  1.
          2    1    4    4  503    0 -0.14000508322E+02  0.40045905466E+01  0.76840359145E+02  0.78208003249E+02  0.00000000000E+00 0. -1.
         -2    1    4    4    0  503 -0.49981911192E+03 -0.12342240852E+03  0.63406625533E+03  0.81675715590E+03  0.00000000000E+00 0.  1.
<mgrwt>
<rscale>  0 0.17275600E+04</rscale>
<asrwt>0</asrwt>
<pdfrwt beam="1">  1        2 0.19151716E+00 0.17275600E+04</pdfrwt>
<pdfrwt beam="2">  1       -1 0.92208692E-01 0.17275600E+04</pdfrwt>
<totfact> 0.22074250E+01</totfact>
</mgrwt>
</event>
<event>
12    7  0.1497947E-008  0.1454814E+04  0.7818608E-02  0.8915070E-01
          2   -1    0    0  501    0  0.00000000000E+00  0.00000000000E+00  0.14551571157E+04  0.14551571157E+04  0.00000000000E+00 0. -1.
         -1   -1    0    0    0  501 -0.00000000000E+00 -0.00000000000E+00 -0.36361796437E+03  0.36361796437E+03  0.00000000000E+00 0.  1.
         24    2    1    2    0    0  0.15146998512E+03  0.34511760222E+03  0.48854068552E+02  0.38846564132E+03  0.80433318442E+02 0.  0.
        254    2    1    2    0    0 -0.15146998512E+03 -0.34511760222E+03  0.10426850828E+04  0.14303094388E+04  0.90362801695E+03 0.  0.
         23    2    4    4    0    0 -0.23181805493E+03 -0.51292935661E+03  0.28019544816E+03  0.63521109257E+03  0.90263544601E+02 0.  0.
         23    2    4    4    0    0  0.80348069806E+02  0.16781175439E+03  0.76248963464E+03  0.79509834621E+03  0.12717837860E+03 0.  0.
          4    1    3    3  502    0  0.13915353917E+02  0.20627097065E+01  0.90415577815E+01  0.16722488244E+02  0.00000000000E+00 0. -1.
         -1    1    3    3    0  502  0.13755463121E+03  0.34305489251E+03  0.39812510770E+02  0.37174315308E+03  0.00000000000E+00 0.  1.
         13    1    5    5    0    0 -0.15687397958E+03 -0.36139778638E+03  0.24042963129E+03  0.46154546155E+03  0.00000000000E+00 0. -1.
        -13    1    5    5    0    0 -0.74944075353E+02 -0.15153157023E+03  0.39765816870E+02  0.17366563102E+03  0.00000000000E+00 0.  1.
          2    1    6    6  503    0  0.60445224363E+02  0.16679651159E+03  0.47716708867E+03  0.50908067331E+03  0.00000000000E+00 0. -1.
         -2    1    6    6    0  503  0.19902845444E+02  0.10152428017E+01  0.28532254597E+03  0.28601767290E+03  0.00000000000E+00 0.  1.
<mgrwt>
<rscale>  0 0.14548144E+04</rscale>
<asrwt>0</asrwt>
<pdfrwt beam="1">  1        2 0.22387032E+00 0.14548144E+04</pdfrwt>
<pdfrwt beam="2">  1       -1 0.55941226E-01 0.14548144E+04</pdfrwt>
<totfact> 0.48059458E+01</totfact>
</mgrwt>
</event>
<event>
12    7  0.1497947E-008  0.1364244E+04  0.7818608E-02  0.8980115E-01
         -1   -1    0    0    0  501 -0.00000000000E+00  0.00000000000E+00  0.18025795065E+03  0.18025795065E+03  0.00000000000E+00 0.  1.
          2   -1    0    0  501    0  0.00000000000E+00 -0.00000000000E+00 -0.25812465120E+04  0.25812465120E+04  0.00000000000E+00 0. -1.
         24    2    1    2    0    0  0.11312042952E+03 -0.35772504784E+03 -0.57736724450E+03  0.69313443238E+03  0.79491917255E+02 0.  0.
        254    2    1    2    0    0 -0.11312042952E+03  0.35772504784E+03 -0.18236213168E+04  0.20683700302E+04  0.90099746578E+03 0.  0.
         23    2    4    4    0    0 -0.20218424652E+03  0.36784361361E+03 -0.26306321010E+03  0.50355877299E+03  0.90453257201E+02 0.  0.
         23    2    4    4    0    0  0.89063817007E+02 -0.10118565762E+02 -0.15605581067E+04  0.15648112572E+04  0.72511498580E+02 0.  0.
          2    1    3    3  502    0  0.29094748710E+02 -0.27969706580E+02 -0.90936212663E+02  0.99489716364E+02  0.00000000000E+00 0. -1.
         -1    1    3    3    0  502  0.84025680807E+02 -0.32975534127E+03 -0.48643103183E+03  0.59364471602E+03  0.00000000000E+00 0.  1.
         13    1    5    5    0    0 -0.15890779428E+03  0.26996258930E+03 -0.23859679317E+03  0.39377648027E+03  0.00000000000E+00 0.  1.
        -13    1    5    5    0    0 -0.43276452247E+02  0.97881024310E+02 -0.24466416932E+02  0.10978229273E+03  0.00000000000E+00 0. -1.
          3    1    6    6  503    0  0.67162261435E+01  0.24364384509E+02 -0.42377031808E+03  0.42452327782E+03  0.00000000000E+00 0. -1.
         -3    1    6    6    0  503  0.82347590864E+02 -0.34482950271E+02 -0.11367877887E+04  0.11402879794E+04  0.00000000000E+00 0.  1.
<mgrwt>
<rscale>  0 0.13642437E+04</rscale>
<asrwt>0</asrwt>
<pdfrwt beam="1">  1        2 0.39711483E+00 0.13642437E+04</pdfrwt>
<pdfrwt beam="2">  1       -1 0.27731994E-01 0.13642437E+04</pdfrwt>
<totfact> 0.40809890E+01</totfact>
</mgrwt>
</event>
<event>
11    7  0.1497947E-008  0.3372812E+04  0.7818608E-02  0.8144612E-01
          2   -1    0    0  501    0  0.00000000000E+00  0.00000000000E+00  0.21292323379E+04  0.21292323379E+04  0.00000000000E+00 0. -1.
         -1   -1    0    0    0  501 -0.00000000000E+00 -0.00000000000E+00 -0.13356760650E+04  0.13356760650E+04  0.00000000000E+00 0.  1.
         24    2    1    2    0    0 -0.14621138977E+04 -0.18347090827E+03 -0.17323887200E+03  0.14858999207E+04  0.80300955539E+02 0.  0.
        254    2    1    2    0    0  0.14621138977E+04  0.18347090827E+03  0.96679514485E+03  0.19790084822E+04  0.90019058890E+03 0.  0.
         23    2    4    4    0    0  0.13534399289E+04  0.38206460195E+03  0.98048176411E+03  0.17166688495E+04  0.88512417349E+02 0.  0.
          4    1    3    3  502    0 -0.65908242782E+02 -0.42836340278E+01 -0.24340835868E+02  0.70389788165E+02  0.00000000000E+00 0. -1.
         -3    1    3    3    0  502 -0.13962056549E+04 -0.17918727424E+03 -0.14889803613E+03  0.14155101325E+04  0.00000000000E+00 0.  1.
         13    1    5    5    0    0  0.11930122772E+03  0.33326499478E+02  0.57268548451E+02  0.13646657153E+03  0.00000000000E+00 0. -1.
        -13    1    5    5    0    0  0.12341387012E+04  0.34873810247E+03  0.92321321566E+03  0.15802022780E+04  0.00000000000E+00 0.  1.
          1    1    4    4  503    0  0.51247140870E+02 -0.49351638672E+02  0.53370091167E+02  0.88939419371E+02  0.00000000000E+00 0. -1.
         -1    1    4    4    0  503  0.57426827968E+02 -0.14924205501E+03 -0.67056710426E+02  0.17340021328E+03  0.00000000000E+00 0.  1.
<mgrwt>
<rscale>  0 0.33728117E+04</rscale>
<asrwt>0</asrwt>
<pdfrwt beam="1">  1        2 0.32757421E+00 0.33728117E+04</pdfrwt>
<pdfrwt beam="2">  1       -1 0.20548863E+00 0.33728117E+04</pdfrwt>
<totfact> 0.73721745E-01</totfact>
</mgrwt>
</event>
<event>
12    7  0.1497947E-008  0.1268836E+04  0.7818608E-02  0.9054650E-01
          2   -1    0    0  501    0  0.00000000000E+00  0.00000000000E+00  0.97984110920E+03  0.97984110920E+03  0.00000000000E+00 0. -1.
         -1   -1    0    0    0  501 -0.00000000000E+00 -0.00000000000E+00 -0.41076681816E+03  0.41076681816E+03  0.00000000000E+00 0.  1.
         24    2    1    2    0    0  0.90622812223E+02 -0.24194030271E+03  0.23861450317E+03  0.36001585159E+03  0.76986544925E+02 0.  0.
        254    2    1    2    0    0 -0.90622812223E+02  0.24194030271E+03  0.33045978787E+03  0.10305920758E+04  0.94136536535E+03 0.  0.
         23    2    4    4    0    0  0.51153415650E+02  0.32330118799E+03  0.61153457286E+03  0.69951757432E+03  0.90608900702E+02 0.  0.
         23    2    4    4    0    0 -0.14177622787E+03 -0.81360885279E+02 -0.28107478499E+03  0.33107450146E+03  0.62347400216E+02 0.  0.
          2    1    3    3  502    0  0.74722899498E+02 -0.24119564041E+03  0.21556669505E+03  0.33200579615E+03  0.00000000000E+00 0. -1.
         -1    1    3    3    0  502  0.15899912725E+02 -0.74466230381E+00  0.23047808115E+02  0.28010055436E+02  0.00000000000E+00 0.  1.
         13    1    5    5    0    0 -0.22562203577E+02  0.13933896663E+03  0.26888213886E+03  0.30368076207E+03  0.00000000000E+00 0.  1.
        -13    1    5    5    0    0  0.73715619227E+02  0.18396222136E+03  0.34265243400E+03  0.39583681225E+03  0.00000000000E+00 0. -1.
          1    1    6    6  503    0 -0.48292834267E+01 -0.28907600211E+01  0.27888038946E+01  0.62813930841E+01  0.00000000000E+00 0. -1.
         -1    1    6    6    0  503 -0.13694694445E+03 -0.78470125258E+02 -0.28386358888E+03  0.32479310837E+03  0.00000000000E+00 0.  1.
<mgrwt>
<rscale>  0 0.12688360E+04</rscale>
<asrwt>0</asrwt>
<pdfrwt beam="1">  1        2 0.15074479E+00 0.12688360E+04</pdfrwt>
<pdfrwt beam="2">  1       -1 0.63194895E-01 0.12688360E+04</pdfrwt>
<totfact> 0.73877038E+01</totfact>
</mgrwt>
</event>
<event>
11    7  0.1497947E-008  0.1692777E+04  0.7818608E-02  0.8765494E-01
          2   -1    0    0  501    0  0.00000000000E+00  0.00000000000E+00  0.40658287929E+04  0.40658287929E+04  0.00000000000E+00 0. -1.
         -1   -1    0    0    0  501 -0.00000000000E+00 -0.00000000000E+00 -0.17619377213E+03  0.17619377213E+03  0.00000000000E+00 0.  1.
         24    2    1    2    0    0 -0.46847837384E+02 -0.60079623589E+03  0.12132638619E+04  0.13570121949E+04  0.79511393337E+02 0.  0.
        254    2    1    2    0    0  0.46847837384E+02  0.60079623589E+03  0.26763711589E+04  0.28850103701E+04  0.89284456582E+03 0.  0.
         23    2    4    4    0    0 -0.25644328152E+03  0.42034163737E+03  0.21381444304E+04  0.21963535898E+04  0.99283619724E+02 0.  0.
          2    1    3    3  502    0 -0.12757238668E+02 -0.14988020620E+03  0.38504424871E+03  0.41338347429E+03  0.00000000000E+00 0. -1.
         -1    1    3    3    0  502 -0.34090598716E+02 -0.45091602968E+03  0.82821961320E+03  0.94362872065E+03  0.00000000000E+00 0.  1.
         13    1    5    5    0    0 -0.25003804798E+03  0.39104096002E+03  0.20772511653E+04  0.21284746796E+04  0.00000000000E+00 0.  1.
        -13    1    5    5    0    0 -0.64052335379E+01  0.29300677351E+02  0.60893265100E+02  0.67878910160E+02  0.00000000000E+00 0. -1.
          1    1    4    4  503    0  0.95942502889E+02  0.43323405776E+01  0.33660017344E+03  0.35003344097E+03  0.00000000000E+00 0. -1.
         -1    1    4    4    0  503  0.20734861601E+03  0.17612225794E+03  0.20162655504E+03  0.33862333943E+03  0.00000000000E+00 0.  1.
<mgrwt>
<rscale>  0 0.16927773E+04</rscale>
<asrwt>0</asrwt>
<pdfrwt beam="1">  1        2 0.62551205E+00 0.16927773E+04</pdfrwt>
<pdfrwt beam="2">  1       -1 0.27106737E-01 0.16927773E+04</pdfrwt>
<totfact> 0.40648327E+00</totfact>
</mgrwt>
</event>
<event>
12    7  0.1497947E-008  0.1744648E+04  0.7818608E-02  0.8736302E-01
          2   -1    0    0  501    0  0.00000000000E+00  0.00000000000E+00  0.18099826445E+04  0.18099826445E+04  0.00000000000E+00 0. -1.
         -1   -1    0    0    0  501 -0.00000000000E+00 -0.00000000000E+00 -0.42041791176E+03  0.42041791176E+03  0.00000000000E+00 0.  1.
         24    2    1    2    0    0 -0.44408302099E+03 -0.31331970963E+03  0.78099468013E+02  0.55488795714E+03  0.80138306096E+02 0.  0.
        254    2    1    2    0    0  0.44408302099E+03  0.31331970963E+03  0.13114652647E+04  0.16755125991E+04  0.88995638052E+03 0.  0.
         23    2    4    4    0    0  0.53345130566E+03  0.54581015676E+03  0.99637938817E+03  0.12582875231E+04  0.89646990442E+02 0.  0.
         23    2    4    4    0    0 -0.89368284662E+02 -0.23249044713E+03  0.31508587656E+03  0.41722507601E+03  0.11295643468E+03 0.  0.
          4    1    3    3  502    0 -0.15133420971E+01  0.39408095248E+01 -0.16661939368E+01  0.45383241675E+01  0.00000000000E+00 0. -1.
         -3    1    3    3    0  502 -0.44256967890E+03 -0.31726051915E+03  0.79765661950E+02  0.55034963298E+03  0.00000000000E+00 0.  1.
         13    1    5    5    0    0  0.14094206379E+03  0.91993744741E+02  0.20872931218E+03  0.26813325079E+03  0.00000000000E+00 0. -1.
        -13    1    5    5    0    0  0.39250924187E+03  0.45381641202E+03  0.78765007599E+03  0.99015427231E+03  0.00000000000E+00 0.  1.
          2    1    6    6  503    0 -0.75484247081E+02 -0.58867245784E+02  0.80672386364E+02  0.12518489568E+03  0.00000000000E+00 0. -1.
         -2    1    6    6    0  503 -0.13884037581E+02 -0.17362320135E+03  0.23441349019E+03  0.29204018034E+03  0.00000000000E+00 0.  1.
<mgrwt>
<rscale>  0 0.17446480E+04</rscale>
<asrwt>0</asrwt>
<pdfrwt beam="1">  1        2 0.27845886E+00 0.17446480E+04</pdfrwt>
<pdfrwt beam="2">  1       -1 0.64679680E-01 0.17446480E+04</pdfrwt>
<totfact> 0.22300701E+01</totfact>
</mgrwt>
</event>
<event>
12    7  0.1497947E-008  0.1224252E+04  0.7818608E-02  0.9091889E-01
          2   -1    0    0  501    0  0.00000000000E+00  0.00000000000E+00  0.39512352240E+03  0.39512352240E+03  0.00000000000E+00 0. -1.
         -1   -1    0    0    0  501 -0.00000000000E+00 -0.00000000000E+00 -0.94830712664E+03  0.94830712664E+03  0.00000000000E+00 0.  1.
         24    2    1    2    0    0  0.19425913937E+03  0.18158122616E+03 -0.61913998567E+02  0.28403971631E+03  0.78338128007E+02 0.  0.
        254    2    1    2    0    0 -0.19425913937E+03 -0.18158122616E+03 -0.49126960568E+03  0.10593909327E+04  0.90014163773E+03 0.  0.
         23    2    4    4    0    0 -0.14982124669E+03  0.28362736084E+03  0.53129078729E+02  0.33843693645E+03  0.93946661312E+02 0.  0.
         23    2    4    4    0    0 -0.44437892686E+02 -0.46520858700E+03 -0.54439868441E+03  0.72095399629E+03  0.70788286142E+02 0.  0.
          2    1    3    3  502    0  0.12638798371E+03  0.12681436136E+03 -0.78107691329E+02  0.19533718570E+03  0.00000000000E+00 0. -1.
         -1    1    3    3    0  502  0.67871155660E+02  0.54766864801E+02  0.16193692763E+02  0.88702530607E+02  0.00000000000E+00 0.  1.
         13    1    5    5    0    0 -0.11232967326E+03  0.11432275158E+03  0.35314954738E+02  0.16411822888E+03  0.00000000000E+00 0. -1.
        -13    1    5    5    0    0 -0.37491573428E+02  0.16930460926E+03  0.17814123991E+02  0.17431870757E+03  0.00000000000E+00 0.  1.
          1    1    6    6  503    0  0.18128865360E+02 -0.16083272298E+03 -0.18075014364E+03  0.24262406098E+03  0.00000000000E+00 0. -1.
         -1    1    6    6    0  503 -0.62566758046E+02 -0.30437586402E+03 -0.36364854076E+03  0.47832993530E+03  0.00000000000E+00 0.  1.
<mgrwt>
<rscale>  0 0.12242523E+04</rscale>
<asrwt>0</asrwt>
<pdfrwt beam="1">  1        2 0.60788236E-01 0.12242523E+04</pdfrwt>
<pdfrwt beam="2">  1       -1 0.14589340E+00 0.12242523E+04</pdfrwt>
<totfact> 0.34178077E+01</totfact>
</mgrwt>
</event>
<event>
12    7  0.1497947E-008  0.2065125E+04  0.7818608E-02  0.8576764E-01
         -1   -1    0    0    0  501 -0.00000000000E+00  0.00000000000E+00  0.61493911990E+03  0.61493911990E+03  0.00000000000E+00 0.  1.
          2   -1    0    0  501    0  0.00000000000E+00 -0.00000000000E+00 -0.17338055331E+04  0.17338055331E+04  0.00000000000E+00 0. -1.
         24    2    1    2    0    0  0.66573787924E+03 -0.13135050155E+03  0.75877164546E+02  0.68692113526E+03  0.75122725269E+02 0.  0.
        254    2    1    2    0    0 -0.66573787924E+03  0.13135050155E+03 -0.11947435777E+04  0.16618235177E+04  0.93476484178E+03 0.  0.
         23    2    4    4    0    0  0.18642219374E+03  0.13303875425E+03 -0.87248554633E+02  0.26309729075E+03  0.95683486894E+02 0.  0.
         23    2    4    4    0    0 -0.85216007298E+03 -0.16882526990E+01 -0.11074950231E+04  0.13987262270E+04  0.60911342754E+02 0.  0.
          2    1    3    3  502    0  0.48559610361E+02 -0.60243206630E+01 -0.13686796261E+02  0.50810004819E+02  0.00000000000E+00 0. -1.
         -1    1    3    3    0  502  0.61717826888E+03 -0.12532618088E+03  0.89563960807E+02  0.63611113044E+03  0.00000000000E+00 0.  1.
         13    1    5    5    0    0  0.33785827041E+01  0.26881400203E+02 -0.36571891092E+02  0.45514038669E+02  0.00000000000E+00 0.  1.
        -13    1    5    5    0    0  0.18304361103E+03  0.10615735404E+03 -0.50676663541E+02  0.21758325208E+03  0.00000000000E+00 0. -1.
          1    1    6    6  503    0 -0.56601045833E+03  0.27142341155E+02 -0.72575244785E+03  0.92077204626E+03  0.00000000000E+00 0. -1.
         -1    1    6    6    0  503 -0.28614961465E+03 -0.28830593854E+02 -0.38174257522E+03  0.47795418069E+03  0.00000000000E+00 0.  1.
<mgrwt>
<rscale>  0 0.20651245E+04</rscale>
<asrwt>0</asrwt>
<pdfrwt beam="1">  1        2 0.26673931E+00 0.20651245E+04</pdfrwt>
<pdfrwt beam="2">  1       -1 0.94606019E-01 0.20651245E+04</pdfrwt>
<totfact> 0.10682382E+01</totfact>
</mgrwt>
</event>
<event>
12    7  0.1497947E-008  0.2996691E+04  0.7818608E-02  0.8244676E-01
         -1   -1    0    0    0  501 -0.00000000000E+00  0.00000000000E+00  0.68992747845E+03  0.68992747845E+03  0.00000000000E+00 0.  1.
          2   -1    0    0  501    0  0.00000000000E+00 -0.00000000000E+00 -0.32540216005E+04  0.32540216005E+04  0.00000000000E+00 0. -1.
         24    2    1    2    0    0  0.13215150138E+04 -0.11708469453E+02 -0.16012859343E+04  0.20778367503E+04  0.82157761018E+02 0.  0.
        254    2    1    2    0    0 -0.13215150138E+04  0.11708469453E+02 -0.96280818778E+03  0.18661123286E+04  0.89935343257E+03 0.  0.
         23    2    4    4    0    0 -0.12443414092E+04 -0.62545046099E+02 -0.44377328366E+03  0.13260522235E+04  0.95824562132E+02 0.  0.
         23    2    4    4    0    0 -0.77173604614E+02  0.74253515552E+02 -0.51903490412E+03  0.54006010515E+03  0.10391504058E+03 0.  0.
          4    1    3    3  502    0  0.84809531118E+03 -0.40036493356E+02 -0.99222634004E+03  0.13059026332E+04  0.00000000000E+00 0. -1.
         -3    1    3    3    0  502  0.47341970263E+03  0.28328023903E+02 -0.60905959426E+03  0.77193411710E+03  0.00000000000E+00 0.  1.
         13    1    5    5    0    0 -0.10149194667E+04 -0.64088551250E+02 -0.39831642616E+03  0.10921652080E+04  0.00000000000E+00 0. -1.
        -13    1    5    5    0    0 -0.22942194251E+03  0.15435051508E+01 -0.45456857502E+02  0.23388701547E+03  0.00000000000E+00 0.  1.
          2    1    6    6  503    0 -0.70011424706E+01  0.77160517313E+02 -0.31030516550E+03  0.31983129485E+03  0.00000000000E+00 0. -1.
         -2    1    6    6    0  503 -0.70172462143E+02 -0.29070017608E+01 -0.20872973862E+03  0.22022881030E+03  0.00000000000E+00 0.  1.
<mgrwt>
<rscale>  0 0.29966908E+04</rscale>
<asrwt>0</asrwt>
<pdfrwt beam="1">  1        2 0.50061871E+00 0.29966908E+04</pdfrwt>
<pdfrwt beam="2">  1       -1 0.10614269E+00 0.29966908E+04</pdfrwt>
<totfact> 0.96424559E-01</totfact>
</mgrwt>
</event>
<event>
11    7  0.1497947E-008  0.1671106E+04  0.7818608E-02  0.8778018E-01
         -1   -1    0    0    0  501 -0.00000000000E+00  0.00000000000E+00  0.31823525958E+03  0.31823525958E+03  0.00000000000E+00 0.  1.
          2   -1    0    0  501    0  0.00000000000E+00 -0.00000000000E+00 -0.21938128952E+04  0.21938128952E+04  0.00000000000E+00 0. -1.
         24    2    1    2    0    0  0.27910347778E+03  0.83088586341E+02 -0.14443160556E+04  0.14755268944E+04  0.79550508386E+02 0.  0.
        254    2    1    2    0    0 -0.27910347778E+03 -0.83088586341E+02 -0.43126158002E+03  0.10365212603E+04  0.89643031416E+03 0.  0.
         23    2    4    4    0    0  0.16300135982E+03 -0.27995986043E+03 -0.24815414572E+02  0.33758397349E+03  0.91652428224E+02 0.  0.
          4    1    3    3  502    0  0.27971882050E+03  0.70069486931E+02 -0.13626281239E+04  0.13928057135E+04  0.00000000000E+00 0. -1.
         -3    1    3    3    0  502 -0.61534271909E+00  0.13019099410E+02 -0.81687931633E+02  0.82721180906E+02  0.00000000000E+00 0.  1.
         13    1    5    5    0    0 -0.71952155615E+01  0.17813017025E+01 -0.17665213698E+01  0.76200236536E+01  0.00000000000E+00 0.  1.
        -13    1    5    5    0    0  0.17019657538E+03 -0.28174116214E+03 -0.23048893202E+02  0.32996394983E+03  0.00000000000E+00 0. -1.
          2    1    4    4  503    0 -0.48712217850E+03  0.16906428900E+03 -0.36543315049E+03  0.63199061550E+03  0.00000000000E+00 0. -1.
         -2    1    4    4    0  503  0.45017340907E+02  0.27806985095E+02 -0.41013014961E+02  0.66946671304E+02  0.00000000000E+00 0.  1.
<mgrwt>
<rscale>  0 0.16711058E+04</rscale>
<asrwt>0</asrwt>
<pdfrwt beam="1">  1        2 0.33750967E+00 0.16711058E+04</pdfrwt>
<pdfrwt beam="2">  1       -1 0.48959272E-01 0.16711058E+04</pdfrwt>
<totfact> 0.23633631E+01</totfact>
</mgrwt>
</event>
<event>
11    7  0.1497947E-008  0.2148366E+04  0.7818608E-02  0.8540232E-01
         -1   -1    0    0    0  501 -0.00000000000E+00  0.00000000000E+00  0.58122355259E+03  0.58122355259E+03  0.00000000000E+00 0.  1.
          2   -1    0    0  501    0  0.00000000000E+00 -0.00000000000E+00 -0.19852419428E+04  0.19852419428E+04  0.00000000000E+00 0. -1.
         24    2    1    2    0    0 -0.85313497464E+03 -0.16230782171E+03 -0.78198553329E+03  0.11713442496E+04  0.79767555137E+02 0.  0.
        254    2    1    2    0    0  0.85313497464E+03  0.16230782171E+03 -0.62203285687E+03  0.13951212457E+04  0.89736018484E+03 0.  0.
         23    2    4    4    0    0  0.49349721694E+02  0.14777232157E+02  0.12115772874E+03  0.16631472947E+03  0.10162495944E+03 0.  0.
          4    1    3    3  502    0 -0.77851857572E+03 -0.16974647647E+03 -0.70592189144E+03  0.10645331164E+04  0.00000000000E+00 0. -1.
         -3    1    3    3    0  502 -0.74616398920E+02  0.74386547554E+01 -0.76063641847E+02  0.10681113324E+03  0.00000000000E+00 0.  1.
         13    1    5    5    0    0 -0.89189742488E+01  0.22736383652E+02  0.10136166978E+03  0.10426255005E+03  0.00000000000E+00 0.  1.
        -13    1    5    5    0    0  0.58268695943E+02 -0.79591514951E+01  0.19796058964E+02  0.62052179413E+02  0.00000000000E+00 0. -1.
          3    1    4    4  503    0  0.19380470939E+03 -0.18155210849E+03 -0.10156014183E+03  0.28431654171E+03  0.00000000000E+00 0. -1.
         -3    1    4    4    0  503  0.60998054356E+03  0.32908269804E+03 -0.64163044378E+03  0.94448997457E+03  0.00000000000E+00 0.  1.
<mgrwt>
<rscale>  0 0.21483662E+04</rscale>
<asrwt>0</asrwt>
<pdfrwt beam="1">  1        2 0.30542184E+00 0.21483662E+04</pdfrwt>
<pdfrwt beam="2">  1       -1 0.89419008E-01 0.21483662E+04</pdfrwt>
<totfact> 0.87171336E+00</totfact>
</mgrwt>
</event>
<event>
12    7  0.1497947E-008  0.1596281E+04  0.7818608E-02  0.8822836E-01
         -1   -1    0    0    0  501 -0.00000000000E+00  0.00000000000E+00  0.15507492813E+03  0.15507492813E+03  0.00000000000E+00 0.  1.
          2   -1    0    0  501    0  0.00000000000E+00 -0.00000000000E+00 -0.41078747244E+04  0.41078747244E+04  0.00000000000E+00 0. -1.
         24    2    1    2    0    0  0.16912166141E+03  0.49574240143E+02  0.12393873045E+02  0.19352119676E+03  0.78975337063E+02 0.  0.
        254    2    1    2    0    0 -0.16912166141E+03 -0.49574240143E+02 -0.39651936694E+04  0.40694284558E+04  0.89801301761E+03 0.  0.
         23    2    4    4    0    0 -0.46244235734E+02  0.34606525686E+03 -0.82794252190E+03  0.90323163420E+03  0.91863344710E+02 0.  0.
         23    2    4    4    0    0 -0.12287742567E+03 -0.39563949700E+03 -0.31372511475E+04  0.31661968216E+04  0.10405804944E+03 0.  0.
          2    1    3    3  502    0  0.66593032780E+02  0.13357004631E+02 -0.33214999977E+02  0.75606069935E+02  0.00000000000E+00 0. -1.
         -1    1    3    3    0  502  0.10252862863E+03  0.36217235512E+02  0.45608873022E+02  0.11791512683E+03  0.00000000000E+00 0.  1.
         13    1    5    5    0    0  0.59063874987E-01  0.37239517834E+02 -0.18192092290E+03  0.18569331536E+03  0.00000000000E+00 0.  1.
        -13    1    5    5    0    0 -0.46303299609E+02  0.30882573902E+03 -0.64602159899E+03  0.71753831884E+03  0.00000000000E+00 0. -1.
          2    1    6    6  503    0 -0.12703888777E+03 -0.24581414486E+03 -0.19559038219E+04  0.19753792632E+04  0.00000000000E+00 0. -1.
         -2    1    6    6    0  503  0.41614620974E+01 -0.14982535213E+03 -0.11813473255E+04  0.11908175584E+04  0.00000000000E+00 0.  1.
<mgrwt>
<rscale>  0 0.15962812E+04</rscale>
<asrwt>0</asrwt>
<pdfrwt beam="1">  1        2 0.63198073E+00 0.15962812E+04</pdfrwt>
<pdfrwt beam="2">  1       -1 0.23857681E-01 0.15962812E+04</pdfrwt>
<totfact> 0.47246272E+00</totfact>
</mgrwt>
</event>
<event>
12    7  0.1792746E-008  0.1323979E+04  0.7818608E-02  0.9010763E-01
          2   -1    0    0  501    0  0.00000000000E+00  0.00000000000E+00  0.13156638676E+04  0.13156638676E+04  0.00000000000E+00 0. -1.
         -1   -1    0    0    0  501 -0.00000000000E+00 -0.00000000000E+00 -0.33308656920E+03  0.33308656920E+03  0.00000000000E+00 0.  1.
         24    2    1    2    0    0 -0.29036687936E+03  0.10670743191E+03  0.47230969101E+03  0.57036528192E+03  0.80874655768E+02 0.  0.
        254    2    1    2    0    0  0.29036687936E+03 -0.10670743191E+03  0.51026760740E+03  0.10783851549E+04  0.89824390365E+03 0.  0.
         23    2    4    4    0    0  0.13417582195E+03  0.31563668069E+03  0.51057405300E+03  0.62142939500E+03  0.88650797925E+02 0.  0.
         23    2    4    4    0    0  0.15619105741E+03 -0.42234411260E+03 -0.30644560148E+00  0.45695575988E+03  0.77706349280E+02 0.  0.
          4    1    3    3  502    0 -0.25611924871E+03  0.10066219964E+03  0.45443449326E+03  0.53126326493E+03  0.00000000000E+00 0. -1.
         -3    1    3    3    0  502 -0.34247630651E+02  0.60452322709E+01  0.17875197747E+02  0.39102016993E+02  0.00000000000E+00 0.  1.
         13    1    5    5    0    0  0.10416438640E+03  0.13540528267E+03  0.22729988046E+03  0.28434142439E+03  0.00000000000E+00 0. -1.
        -13    1    5    5    0    0  0.30011435555E+02  0.18023139802E+03  0.28327417255E+03  0.33708797060E+03  0.00000000000E+00 0.  1.
          3    1    6    6  503    0  0.85449541813E+02 -0.32593521265E+03 -0.89115997972E+01  0.33706795109E+03  0.00000000000E+00 0. -1.
         -3    1    6    6    0  503  0.70741515592E+02 -0.96408899949E+02  0.86051541957E+01  0.11988780879E+03  0.00000000000E+00 0.  1.
<mgrwt>
<rscale>  0 0.13239788E+04</rscale>
<asrwt>0</asrwt>
<pdfrwt beam="1">  1        2 0.20240982E+00 0.13239788E+04</pdfrwt>
<pdfrwt beam="2">  1       -1 0.51244088E-01 0.13239788E+04</pdfrwt>
<totfact> 0.69132230E+01</totfact>
</mgrwt>
</event>
<event>
12    7  0.1497947E-008  0.1424536E+04  0.7818608E-02  0.8936248E-01
          4   -1    0    0  501    0  0.00000000000E+00  0.00000000000E+00  0.29559759535E+03  0.29559759535E+03  0.00000000000E+00 0. -1.
         -3   -1    0    0    0  501 -0.00000000000E+00 -0.00000000000E+00 -0.17162702293E+04  0.17162702293E+04  0.00000000000E+00 0.  1.
         24    2    1    2    0    0 -0.33213527087E+03 -0.22580893696E+03 -0.23338689536E+03  0.47134502297E+03  0.79957323531E+02 0.  0.
        254    2    1    2    0    0  0.33213527087E+03  0.22580893696E+03 -0.11872857386E+04  0.15405228017E+04  0.89568943463E+03 0.  0.
         23    2    4    4    0    0  0.32885808936E+03  0.53964938259E+03 -0.66470925056E+03  0.92163191102E+03  0.90542214240E+02 0.  0.
         23    2    4    4    0    0  0.32771815145E+01 -0.31384044563E+03 -0.52257648806E+03  0.61889089070E+03  0.10692606551E+03 0.  0.
          4    1    3    3  502    0 -0.29804782488E+03 -0.17035110062E+03 -0.20851095266E+03  0.40165759146E+03  0.00000000000E+00 0. -1.
         -3    1    3    3    0  502 -0.34087445993E+02 -0.55457836338E+02 -0.24875942706E+02  0.69687431515E+02  0.00000000000E+00 0.  1.
         13    1    5    5    0    0  0.30644867170E+03  0.51046306449E+03 -0.65140609154E+03  0.88250395166E+03  0.00000000000E+00 0. -1.
        -13    1    5    5    0    0  0.22409417652E+02  0.29186318096E+02 -0.13303159023E+02  0.39127959358E+02  0.00000000000E+00 0.  1.
          1    1    6    6  503    0 -0.18473919412E+02 -0.29662555987E+03 -0.43349948884E+03  0.52559472533E+03  0.00000000000E+00 0. -1.
         -1    1    6    6    0  503  0.21751100926E+02 -0.17214885760E+02 -0.89076999215E+02  0.93296165369E+02  0.00000000000E+00 0.  1.
<mgrwt>
<rscale>  0 0.14245355E+04</rscale>
<asrwt>0</asrwt>
<pdfrwt beam="1">  1        4 0.45476552E-01 0.14245355E+04</pdfrwt>
<pdfrwt beam="2">  1       -3 0.26404158E+00 0.14245355E+04</pdfrwt>
<totfact> 0.63667395E-01</totfact>
</mgrwt>
</event>
<event>
11    7  0.1497947E-008  0.1897391E+04  0.7818608E-02  0.8656156E-01
          4   -1    0    0  501    0  0.00000000000E+00  0.00000000000E+00  0.10906419650E+04  0.10906419650E+04  0.00000000000E+00 0. -1.
         -3   -1    0    0    0  501 -0.00000000000E+00 -0.00000000000E+00 -0.82522291888E+03  0.82522291888E+03  0.00000000000E+00 0.  1.
         24    2    1    2    0    0  0.57501394250E+03 -0.45729194587E+03  0.16958466454E+03  0.76124148379E+03  0.10475056259E+03 0.  0.
        254    2    1    2    0    0 -0.57501394250E+03  0.45729194587E+03  0.95834381564E+02  0.11546234001E+04  0.88555858614E+03 0.  0.
         23    2    4    4    0    0 -0.44637533658E+03  0.10052837216E+03  0.41451713119E+03  0.62407562134E+03  0.91044134272E+02 0.  0.
          4    1    3    3  502    0  0.43939928837E+03 -0.34903975007E+03  0.17445207827E+03  0.58765126509E+03  0.00000000000E+00 0. -1.
         -3    1    3    3    0  502  0.13561465413E+03 -0.10825219580E+03 -0.48674137308E+01  0.17359021869E+03  0.00000000000E+00 0.  1.
         13    1    5    5    0    0 -0.43336074252E+03  0.11321568940E+03  0.39268806381E+03  0.59567041302E+03  0.00000000000E+00 0.  1.
        -13    1    5    5    0    0 -0.13014594057E+02 -0.12687317238E+02  0.21829067381E+02  0.28405208323E+02  0.00000000000E+00 0. -1.
          1    1    4    4  503    0  0.47376312735E+02  0.41348494757E+02 -0.43491901855E+02  0.76457560477E+02  0.00000000000E+00 0. -1.
         -1    1    4    4    0  503 -0.17601491866E+03  0.31541507896E+03 -0.27519084777E+03  0.45409021826E+03  0.00000000000E+00 0.  1.
<mgrwt>
<rscale>  0 0.18973906E+04</rscale>
<asrwt>0</asrwt>
<pdfrwt beam="1">  1        4 0.16779107E+00 0.18973906E+04</pdfrwt>
<pdfrwt beam="2">  1       -3 0.12695737E+00 0.18973906E+04</pdfrwt>
<totfact> 0.23110740E-01</totfact>
</mgrwt>
</event>
<event>
11    7  0.1497947E-008  0.1884698E+04  0.7818608E-02  0.8662511E-01
         -1   -1    0    0    0  501 -0.00000000000E+00  0.00000000000E+00  0.72830845939E+03  0.72830845939E+03  0.00000000000E+00 0.  1.
          2   -1    0    0  501    0  0.00000000000E+00 -0.00000000000E+00 -0.12192932942E+04  0.12192932942E+04  0.00000000000E+00 0. -1.
         24    2    1    2    0    0  0.27126945821E+03 -0.42625236630E+03  0.34733124904E+03  0.61863764922E+03  0.82433887044E+02 0.  0.
        254    2    1    2    0    0 -0.27126945821E+03  0.42625236630E+03 -0.83831608388E+03  0.13289641044E+04  0.89894022913E+03 0.  0.
         23    2    4    4    0    0 -0.29994334827E+02  0.66214598548E+03 -0.52535023395E+03  0.85072662605E+03  0.91684010351E+02 0.  0.
          4    1    3    3  502    0  0.68691148480E+02 -0.11512487996E+03  0.50345461923E+02  0.14320222555E+03  0.00000000000E+00 0. -1.
         -3    1    3    3    0  502  0.20257830974E+03 -0.31112748634E+03  0.29698578712E+03  0.47543542367E+03  0.00000000000E+00 0.  1.
         13    1    5    5    0    0  0.28841412750E+02  0.23694289656E+03 -0.16369607682E+03  0.28943076700E+03  0.00000000000E+00 0.  1.
        -13    1    5    5    0    0 -0.58835747577E+02  0.42520308892E+03 -0.36165415713E+03  0.56129585905E+03  0.00000000000E+00 0. -1.
          1    1    4    4  503    0 -0.18744418102E+03 -0.20483284238E+03 -0.17844053826E+03  0.33004975384E+03  0.00000000000E+00 0. -1.
         -1    1    4    4    0  503 -0.53830942369E+02 -0.31060776802E+02 -0.13452531167E+03  0.14818772450E+03  0.00000000000E+00 0.  1.
<mgrwt>
<rscale>  0 0.18846980E+04</rscale>
<asrwt>0</asrwt>
<pdfrwt beam="1">  1        2 0.18758358E+00 0.18846980E+04</pdfrwt>
<pdfrwt beam="2">  1       -1 0.11204746E+00 0.18846980E+04</pdfrwt>
<totfact> 0.14406693E+01</totfact>
</mgrwt>
</event>
<event>
12    7  0.1497947E-008  0.2433034E+04  0.7818608E-02  0.8427239E-01
          2   -1    0    0  501    0  0.00000000000E+00  0.00000000000E+00  0.14851404125E+04  0.14851404125E+04  0.00000000000E+00 0. -1.
         -1   -1    0    0    0  501 -0.00000000000E+00 -0.00000000000E+00 -0.99648091790E+03  0.99648091790E+03  0.00000000000E+00 0.  1.
         24    2    1    2    0    0 -0.26394967297E+03 -0.79338660947E+03 -0.43374052783E+03  0.94539466302E+03  0.80675159975E+02 0.  0.
        254    2    1    2    0    0  0.26394967297E+03  0.79338660947E+03  0.92240002242E+03  0.15362266674E+04  0.90002157209E+03 0.  0.
         23    2    4    4    0    0 -0.10970868435E+03  0.70112131432E+02 -0.12843779535E+03  0.20205693439E+03  0.85901286760E+02 0.  0.
         23    2    4    4    0    0  0.37365835732E+03  0.72327447804E+03  0.10508378178E+04  0.13341697330E+04  0.11402727115E+03 0.  0.
          4    1    3    3  502    0 -0.79716688870E+02 -0.29375883187E+03 -0.11896769335E+03  0.32680623287E+03  0.00000000000E+00 0. -1.
         -3    1    3    3    0  502 -0.18423298410E+03 -0.49962777760E+03 -0.31477283448E+03  0.61858843014E+03  0.00000000000E+00 0.  1.
         13    1    5    5    0    0  0.54642283688E+01  0.10206794750E+02 -0.47909041987E+02  0.49288058948E+02  0.00000000000E+00 0.  1.
        -13    1    5    5    0    0 -0.11517291272E+03  0.59905336682E+02 -0.80528753359E+02  0.15276887544E+03  0.00000000000E+00 0. -1.
          3    1    6    6  503    0  0.35717527412E+03  0.70159548902E+03  0.97245791101E+03  0.12511933485E+04  0.00000000000E+00 0. -1.
         -3    1    6    6    0  503  0.16483083196E+02  0.21678989013E+02  0.78379906756E+02  0.82976384468E+02  0.00000000000E+00 0.  1.
<mgrwt>
<rscale>  0 0.24330344E+04</rscale>
<asrwt>0</asrwt>
<pdfrwt beam="1">  1        2 0.22848314E+00 0.24330344E+04</pdfrwt>
<pdfrwt beam="2">  1       -1 0.15330476E+00 0.24330344E+04</pdfrwt>
<totfact> 0.43480051E+00</totfact>
</mgrwt>
</event>
<event>
12    7  0.1497947E-008  0.2085560E+04  0.7818608E-02  0.8567631E-01
          2   -1    0    0  501    0  0.00000000000E+00  0.00000000000E+00  0.18015987761E+04  0.18015987761E+04  0.00000000000E+00 0. -1.
         -1   -1    0    0    0  501 -0.00000000000E+00 -0.00000000000E+00 -0.60356931465E+03  0.60356931465E+03  0.00000000000E+00 0.  1.
         24    2    1    2    0    0  0.28427082254E+03 -0.75785560532E+03  0.20619035800E+03  0.83919788746E+03  0.81139457234E+02 0.  0.
        254    2    1    2    0    0 -0.28427082254E+03  0.75785560532E+03  0.99183910346E+03  0.15659702033E+04  0.90186631569E+03 0.  0.
         23    2    4    4    0    0 -0.11366914657E+03  0.53754369460E+03  0.24409508688E+02  0.55736193417E+03  0.90457741829E+02 0.  0.
         23    2    4    4    0    0 -0.17060167597E+03  0.22031191072E+03  0.96742959477E+03  0.10086082691E+04  0.61060214951E+02 0.  0.
          2    1    3    3  502    0  0.19382728762E+03 -0.42786569177E+03  0.14514418208E+03  0.49163492677E+03  0.00000000000E+00 0. -1.
         -1    1    3    3    0  502  0.90443534918E+02 -0.32998991355E+03  0.61046175914E+02  0.34756296070E+03  0.00000000000E+00 0.  1.
         13    1    5    5    0    0 -0.73862381427E+02  0.39242985360E+03 -0.21905565256E+02  0.39992086114E+03  0.00000000000E+00 0. -1.
        -13    1    5    5    0    0 -0.39806765145E+02  0.14511384101E+03  0.46315073944E+02  0.15744107303E+03  0.00000000000E+00 0.  1.
          2    1    6    6  503    0 -0.40377882660E+02  0.17570126458E+02  0.13454652161E+03  0.14156923829E+03  0.00000000000E+00 0.  1.
         -2    1    6    6    0  503 -0.13022379331E+03  0.20274178426E+03  0.83288307316E+03  0.86703903083E+03  0.00000000000E+00 0. -1.
<mgrwt>
<rscale>  0 0.20855596E+04</rscale>
<asrwt>0</asrwt>
<pdfrwt beam="1">  1        2 0.27716904E+00 0.20855596E+04</pdfrwt>
<pdfrwt beam="2">  1       -1 0.92856818E-01 0.20855596E+04</pdfrwt>
<totfact> 0.10194748E+01</totfact>
</mgrwt>
</event>
<event>
12    7  0.1497947E-008  0.1545225E+04  0.7818608E-02  0.8854923E-01
         -1   -1    0    0    0  501 -0.00000000000E+00  0.00000000000E+00  0.34694932529E+03  0.34694932529E+03  0.00000000000E+00 0.  1.
          2   -1    0    0  501    0  0.00000000000E+00 -0.00000000000E+00 -0.17205110342E+04  0.17205110342E+04  0.00000000000E+00 0. -1.
         24    2    1    2    0    0  0.40510894135E+03  0.25736780026E+03 -0.68629100581E+03  0.84124443953E+03  0.79658165999E+02 0.  0.
        254    2    1    2    0    0 -0.40510894135E+03 -0.25736780026E+03 -0.68727070308E+03  0.12262159199E+04  0.89493744142E+03 0.  0.
         23    2    4    4    0    0  0.10799467195E+03  0.14356549471E+03 -0.50838560403E+03  0.54659160499E+03  0.89624549231E+02 0.  0.
         23    2    4    4    0    0 -0.51310361330E+03 -0.40093329497E+03 -0.17888509905E+03  0.67962431496E+03  0.76593118627E+02 0.  0.
          4    1    3    3  502    0  0.84321346240E+02  0.29149405296E+02 -0.16989669683E+03  0.19189753739E+03  0.00000000000E+00 0. -1.
         -3    1    3    3    0  502  0.32078759511E+03  0.22821839496E+03 -0.51639430898E+03  0.64934690214E+03  0.00000000000E+00 0.  1.
         13    1    5    5    0    0  0.71252864280E+02  0.40522092801E+02 -0.30295030183E+03  0.31384374464E+03  0.00000000000E+00 0.  1.
        -13    1    5    5    0    0  0.36741807668E+02  0.10304340191E+03 -0.20543530220E+03  0.23274786035E+03  0.00000000000E+00 0. -1.
          4    1    6    6  503    0 -0.55215136355E+02 -0.41125806852E+02 -0.44497896136E+02  0.81976252857E+02  0.00000000000E+00 0. -1.
         -4    1    6    6    0  503 -0.45788847694E+03 -0.35980748812E+03 -0.13438720292E+03  0.59764806210E+03  0.00000000000E+00 0.  1.
<mgrwt>
<rscale>  0 0.15452251E+04</rscale>
<asrwt>0</asrwt>
<pdfrwt beam="1">  1        2 0.26469401E+00 0.15452251E+04</pdfrwt>
<pdfrwt beam="2">  1       -1 0.53376819E-01 0.15452251E+04</pdfrwt>
<totfact> 0.37101632E+01</totfact>
</mgrwt>
</event>
<event>
11    7  0.1497947E-008  0.2265624E+04  0.7818608E-02  0.8491600E-01
         -1   -1    0    0    0  501 -0.00000000000E+00  0.00000000000E+00  0.13496365295E+04  0.13496365295E+04  0.00000000000E+00 0.  1.
          2   -1    0    0  501    0  0.00000000000E+00 -0.00000000000E+00 -0.95082119896E+03  0.95082119896E+03  0.00000000000E+00 0. -1.
         24    2    1    2    0    0 -0.46814192465E+03 -0.82600244813E+03  0.99067035659E+02  0.95783365594E+03  0.78702788784E+02 0.  0.
        254    2    1    2    0    0  0.46814192465E+03  0.82600244813E+03  0.29974829484E+03  0.13426240725E+04  0.90075160496E+03 0.  0.
         23    2    4    4    0    0  0.92915980810E+02  0.55006237344E+02  0.44962138405E+03  0.47117732293E+03  0.90496491681E+02 0.  0.
          2    1    3    3  502    0 -0.10749660004E+03 -0.25131568412E+03  0.98634401503E+01  0.27351851776E+03  0.00000000000E+00 0. -1.
         -1    1    3    3    0  502 -0.36064532461E+03 -0.57468676400E+03  0.89203595509E+02  0.68431513818E+03  0.00000000000E+00 0.  1.
         13    1    5    5    0    0  0.43701296931E+02  0.40809701337E+02  0.38037268699E+03  0.38504365478E+03  0.00000000000E+00 0. -1.
        -13    1    5    5    0    0  0.49214683879E+02  0.14196536007E+02  0.69248697060E+02  0.86133668147E+02  0.00000000000E+00 0.  1.
          4    1    4    4  503    0  0.53720832159E+02  0.84039543764E+02 -0.10697296698E+02  0.10031452976E+03  0.00000000000E+00 0.  1.
         -4    1    4    4    0  503  0.32150511168E+03  0.68695666702E+03 -0.13917579251E+03  0.77113221981E+03  0.00000000000E+00 0. -1.
<mgrwt>
<rscale>  0 0.22656240E+04</rscale>
<asrwt>0</asrwt>
<pdfrwt beam="1">  1        2 0.14628019E+00 0.22656240E+04</pdfrwt>
<pdfrwt beam="2">  1       -1 0.20763639E+00 0.22656240E+04</pdfrwt>
<totfact> 0.37507287E+00</totfact>
</mgrwt>
</event>
<event>
11    7  0.1497947E-008  0.1958064E+04  0.7818608E-02  0.8626482E-01
          2   -1    0    0  501    0  0.00000000000E+00  0.00000000000E+00  0.95416686905E+03  0.95416686905E+03  0.00000000000E+00 0. -1.
         -1   -1    0    0    0  501 -0.00000000000E+00 -0.00000000000E+00 -0.10045449373E+04  0.10045449373E+04  0.00000000000E+00 0.  1.
         24    2    1    2    0    0 -0.65839845811E+03  0.38579413295E+03 -0.22844312119E+03  0.80041965404E+03  0.78483885494E+02 0.  0.
        254    2    1    2    0    0  0.65839845811E+03 -0.38579413295E+03  0.17806505294E+03  0.11582921523E+04  0.85299935778E+03 0.  0.
         23    2    4    4    0    0  0.57397945638E+03 -0.43039221206E+03 -0.77093763528E+02  0.72735456053E+03  0.91713334873E+02 0.  0.
          4    1    3    3  502    0 -0.44336666215E+03  0.25299610989E+03 -0.19047668244E+03  0.54485080094E+03  0.00000000000E+00 0. -1.
         -3    1    3    3    0  502 -0.21503179596E+03  0.13279802306E+03 -0.37966438748E+02  0.25556885310E+03  0.00000000000E+00 0.  1.
         13    1    5    5    0    0  0.49628581745E+02 -0.26389258905E+02 -0.30074566039E+02  0.63748479464E+02  0.00000000000E+00 0. -1.
        -13    1    5    5    0    0  0.52435087464E+03 -0.40400295316E+03 -0.47019197489E+02  0.66360608107E+03  0.00000000000E+00 0.  1.
          4    1    4    4  503    0 -0.15543168798E+02  0.13638767937E+02 -0.78539219172E+02  0.81215854581E+02  0.00000000000E+00 0. -1.
         -4    1    4    4    0  503  0.99962170527E+02  0.30959311173E+02  0.33369803564E+03  0.34972173720E+03  0.00000000000E+00 0.  1.
<mgrwt>
<rscale>  0 0.19580638E+04</rscale>
<asrwt>0</asrwt>
<pdfrwt beam="1">  1        2 0.14679490E+00 0.19580638E+04</pdfrwt>
<pdfrwt beam="2">  1       -1 0.15454538E+00 0.19580638E+04</pdfrwt>
<totfact> 0.92310043E+00</totfact>
</mgrwt>
</event>
<event>
11    7  0.1497947E-008  0.1305648E+04  0.7818608E-02  0.9025098E-01
         -1   -1    0    0    0  501 -0.00000000000E+00  0.00000000000E+00  0.14739027109E+04  0.14739027109E+04  0.00000000000E+00 0.  1.
          2   -1    0    0  501    0  0.00000000000E+00 -0.00000000000E+00 -0.28915022606E+03  0.28915022606E+03  0.00000000000E+00 0. -1.
         24    2    1    2    0    0  0.88290245931E+02  0.30217186743E+03  0.14617242502E+03  0.35626100015E+03  0.80327563132E+02 0.  0.
        254    2    1    2    0    0 -0.88290245931E+02 -0.30217186743E+03  0.10385800599E+04  0.14067919368E+04  0.89516032521E+03 0.  0.
         23    2    4    4    0    0 -0.26346332107E+03 -0.46014298631E+03  0.29231734062E+03  0.61296289477E+03  0.95548905510E+02 0.  0.
          4    1    3    3  502    0  0.54123105581E+01  0.53685671021E+02 -0.43793565285E+01  0.54135230138E+02  0.00000000000E+00 0. -1.
         -3    1    3    3    0  502  0.82877935373E+02  0.24848619641E+03  0.15055178155E+03  0.30212577001E+03  0.00000000000E+00 0.  1.
         13    1    5    5    0    0 -0.11414407789E+03 -0.11440020125E+03  0.10066324640E+03  0.19039266199E+03  0.00000000000E+00 0. -1.
        -13    1    5    5    0    0 -0.14931924318E+03 -0.34574278506E+03  0.19165409422E+03  0.42257023279E+03  0.00000000000E+00 0.  1.
          4    1    4    4  503    0  0.13591343742E+03  0.42740981086E+02  0.31516630887E+03  0.34587433583E+03  0.00000000000E+00 0. -1.
         -4    1    4    4    0  503  0.39259637720E+02  0.11523013779E+03  0.43109641036E+03  0.44795470623E+03  0.00000000000E+00 0.  1.
<mgrwt>
<rscale>  0 0.13056482E+04</rscale>
<asrwt>0</asrwt>
<pdfrwt beam="1">  1        2 0.44484651E-01 0.13056482E+04</pdfrwt>
<pdfrwt beam="2">  1       -1 0.22675426E+00 0.13056482E+04</pdfrwt>
<totfact> 0.12746752E+01</totfact>
</mgrwt>
</event>
<event>
11    7  0.1497947E-008  0.1364257E+04  0.7818608E-02  0.8980106E-01
         -1   -1    0    0    0  501 -0.00000000000E+00  0.00000000000E+00  0.37843895061E+03  0.37843895061E+03  0.00000000000E+00 0.  1.
          2   -1    0    0  501    0  0.00000000000E+00 -0.00000000000E+00 -0.12295220283E+04  0.12295220283E+04  0.00000000000E+00 0. -1.
         24    2    1    2    0    0  0.32768633331E+03 -0.18212592760E+03 -0.28001776625E+03  0.47921060794E+03  0.10336668133E+03 0.  0.
        254    2    1    2    0    0 -0.32768633331E+03  0.18212592760E+03 -0.57106531141E+03  0.11287503709E+04  0.89856197531E+03 0.  0.
         23    2    4    4    0    0  0.92428324975E+02  0.74945921078E+02 -0.65220180307E+03  0.66913446425E+03  0.90630309361E+02 0.  0.
          2    1    3    3  502    0  0.12960924655E+03 -0.91243399629E+02 -0.17873459709E+03  0.23889322084E+03  0.00000000000E+00 0. -1.
         -1    1    3    3    0  502  0.19807708676E+03 -0.90882527967E+02 -0.10128316916E+03  0.24031738710E+03  0.00000000000E+00 0.  1.
         13    1    5    5    0    0  0.24042252740E+02  0.58018989878E+02 -0.15945924493E+03  0.17138110717E+03  0.00000000000E+00 0.  1.
        -13    1    5    5    0    0  0.68386072235E+02  0.16926931201E+02 -0.49274255814E+03  0.49775335707E+03  0.00000000000E+00 0. -1.
          3    1    4    4  503    0 -0.36599995765E+03  0.11498839826E+03  0.10820673276E+03  0.39860631926E+03  0.00000000000E+00 0. -1.
         -3    1    4    4    0  503 -0.54114700631E+02 -0.78083917412E+01 -0.27070241103E+02  0.61009587438E+02  0.00000000000E+00 0.  1.
<mgrwt>
<rscale>  0 0.13642566E+04</rscale>
<asrwt>0</asrwt>
<pdfrwt beam="1">  1        2 0.18915723E+00 0.13642566E+04</pdfrwt>
<pdfrwt beam="2">  1       -1 0.58221379E-01 0.13642566E+04</pdfrwt>
<totfact> 0.60479360E+01</totfact>
</mgrwt>
</event>
<event>
11    7  0.1497947E-008  0.1242081E+04  0.7818608E-02  0.9076800E-01
         -1   -1    0    0    0  501 -0.00000000000E+00  0.00000000000E+00  0.29036862362E+03  0.29036862362E+03  0.00000000000E+00 0.  1.
          2   -1    0    0  501    0  0.00000000000E+00 -0.00000000000E+00 -0.13282811244E+04  0.13282811244E+04  0.00000000000E+00 0. -1.
         24    2    1    2    0    0  0.20000674365E+03  0.21676309743E+03 -0.25747975062E+03  0.39942691107E+03  0.79101816668E+02 0.  0.
        254    2    1    2    0    0 -0.20000674365E+03 -0.21676309743E+03 -0.78043275017E+03  0.12192228369E+04  0.88906698886E+03 0.  0.
         23    2    4    4    0    0 -0.44886345804E+03 -0.24076297704E+03 -0.16640934281E+03  0.54362976795E+03  0.91629908590E+02 0.  0.
          4    1    3    3  502    0  0.66344229699E+02  0.85578113577E+02 -0.14497221633E+03  0.18094782078E+03  0.00000000000E+00 0. -1.
         -3    1    3    3    0  502  0.13366251395E+03  0.13118498385E+03 -0.11250753429E+03  0.21847909029E+03  0.00000000000E+00 0.  1.
         13    1    5    5    0    0 -0.30975134590E+02  0.69252619850E+01 -0.91808856680E+01  0.33040987849E+02  0.00000000000E+00 0.  1.
        -13    1    5    5    0    0 -0.41788832345E+03 -0.24768823903E+03 -0.15722845715E+03  0.51058878010E+03  0.00000000000E+00 0. -1.
          3    1    4    4  503    0  0.21854133360E+03 -0.50085459516E+01 -0.38476121564E+03  0.44252298594E+03  0.00000000000E+00 0. -1.
         -3    1    4    4    0  503  0.30315380779E+02  0.29008425567E+02 -0.22926219172E+03  0.23307008306E+03  0.00000000000E+00 0.  1.
<mgrwt>
<rscale>  0 0.12420808E+04</rscale>
<asrwt>0</asrwt>
<pdfrwt beam="1">  1        2 0.20435094E+00 0.12420808E+04</pdfrwt>
<pdfrwt beam="2">  1       -1 0.44672096E-01 0.12420808E+04</pdfrwt>
<totfact> 0.88589269E+01</totfact>
</mgrwt>
</event>
<event>
12    7  0.1497947E-008  0.1196247E+04  0.7818608E-02  0.9116148E-01
         -1   -1    0    0    0  501 -0.00000000000E+00  0.00000000000E+00  0.84513798193E+03  0.84513798193E+03  0.00000000000E+00 0.  1.
          2   -1    0    0  501    0  0.00000000000E+00 -0.00000000000E+00 -0.42330564002E+03  0.42330564002E+03  0.00000000000E+00 0. -1.
         24    2    1    2    0    0 -0.20301882878E+03 -0.14687273703E+03  0.11908562883E+03  0.28851751856E+03  0.79200541652E+02 0.  0.
        254    2    1    2    0    0  0.20301882878E+03  0.14687273703E+03  0.30274671307E+03  0.97992610340E+03  0.89766995612E+03 0.  0.
         23    2    4    4    0    0  0.37775127833E+03  0.57941861960E+02  0.53036164989E+03  0.66048063160E+03  0.94328666894E+02 0.  0.
         23    2    4    4    0    0 -0.17473244955E+03  0.88930875072E+02 -0.22761493681E+03  0.31944547180E+03  0.10861270888E+03 0.  0.
          4    1    3    3  502    0 -0.18243067309E+03 -0.15517036947E+03  0.10115558756E+03  0.25998316665E+03  0.00000000000E+00 0. -1.
         -3    1    3    3    0  502 -0.20588155686E+02  0.82976324402E+01  0.17930041273E+02  0.28534351907E+02  0.00000000000E+00 0.  1.
         13    1    5    5    0    0  0.46515619618E+02  0.36056321692E+02  0.11097205781E+03  0.12561273350E+03  0.00000000000E+00 0. -1.
        -13    1    5    5    0    0  0.33123565871E+03  0.21885540268E+02  0.41938959208E+03  0.53486789810E+03  0.00000000000E+00 0.  1.
          3    1    6    6  503    0 -0.76311144373E+02  0.70870773220E+01 -0.15340814440E+03  0.17148666476E+03  0.00000000000E+00 0. -1.
         -3    1    6    6    0  503 -0.98421305176E+02  0.81843797750E+02 -0.74206792407E+02  0.14795880704E+03  0.00000000000E+00 0.  1.
<mgrwt>
<rscale>  0 0.11962469E+04</rscale>
<asrwt>0</asrwt>
<pdfrwt beam="1">  1        2 0.65123945E-01 0.11962469E+04</pdfrwt>
<pdfrwt beam="2">  1       -1 0.13002123E+00 0.11962469E+04</pdfrwt>
<totfact> 0.42709258E+01</totfact>
</mgrwt>
</event>
<event>
12    7  0.1712219E-008  0.1528680E+04  0.7818608E-02  0.8865602E-01
         -1   -1    0    0    0  501 -0.00000000000E+00  0.00000000000E+00  0.34020758384E+03  0.34020758384E+03  0.00000000000E+00 0.  1.
          2   -1    0    0  501    0  0.00000000000E+00 -0.00000000000E+00 -0.17172324884E+04  0.17172324884E+04  0.00000000000E+00 0. -1.
         24    2    1    2    0    0  0.47544267313E+02  0.26288512115E+03  0.11069312588E+03  0.30003958183E+03  0.80010863464E+02 0.  0.
        254    2    1    2    0    0 -0.47544267313E+02 -0.26288512115E+03 -0.14877180304E+04  0.17574004904E+04  0.89653918001E+03 0.  0.
         23    2    4    4    0    0  0.36853870453E+03 -0.28707460930E+03 -0.56116307478E+03  0.73587832557E+03  0.91544008620E+02 0.  0.
         23    2    4    4    0    0 -0.41608297184E+03  0.24189488143E+02 -0.92655495565E+03  0.10215221648E+04  0.10626982916E+03 0.  0.
          2    1    3    3  502    0  0.13468101704E+02  0.67090204670E+00  0.26358222346E+00  0.13487377382E+02  0.00000000000E+00 0. -1.
         -1    1    3    3    0  502  0.34076165610E+02  0.26221421911E+03  0.11042954366E+03  0.28655220445E+03  0.00000000000E+00 0.  1.
         13    1    5    5    0    0  0.20932937972E+03 -0.20576220040E+03 -0.30299985904E+03  0.42185991384E+03  0.00000000000E+00 0.  1.
        -13    1    5    5    0    0  0.15920932481E+03 -0.81312408900E+02 -0.25816321574E+03  0.31401841173E+03  0.00000000000E+00 0. -1.
          1    1    6    6  503    0 -0.28071666093E+03  0.47948202000E+02 -0.71062836581E+03  0.76556746802E+03  0.00000000000E+00 0. -1.
         -1    1    6    6    0  503 -0.13536631091E+03 -0.23758713856E+02 -0.21592658984E+03  0.25595469680E+03  0.00000000000E+00 0.  1.
<mgrwt>
<rscale>  0 0.15286798E+04</rscale>
<asrwt>0</asrwt>
<pdfrwt beam="1">  1        2 0.26418961E+00 0.15286798E+04</pdfrwt>
<pdfrwt beam="2">  1       -1 0.52339629E-01 0.15286798E+04</pdfrwt>
<totfact> 0.38742354E+01</totfact>
</mgrwt>
</event>
<event>
11    7  0.1497947E-008  0.1210302E+04  0.7818608E-02  0.9103886E-01
          2   -1    0    0  501    0  0.00000000000E+00  0.00000000000E+00  0.27832091604E+04  0.27832091604E+04  0.00000000000E+00 0. -1.
         -1   -1    0    0    0  501 -0.00000000000E+00 -0.00000000000E+00 -0.13157756930E+03  0.13157756930E+03  0.00000000000E+00 0.  1.
         24    2    1    2    0    0  0.86384475373E+02  0.19991296090E+03  0.91629589002E+03  0.94517049180E+03  0.79508684952E+02 0.  0.
        254    2    1    2    0    0 -0.86384475373E+02 -0.19991296090E+03  0.17353357011E+04  0.19696162379E+04  0.90585355309E+03 0.  0.
         23    2    4    4    0    0 -0.24506598770E+03  0.27996390214E+02  0.66342269608E+02  0.27095732358E+03  0.90418130214E+02 0.  0.
          4    1    3    3  502    0  0.17410031630E+02  0.13532762675E+03  0.49973109144E+03  0.51802301061E+03  0.00000000000E+00 0. -1.
         -3    1    3    3    0  502  0.68974443742E+02  0.64585334144E+02  0.41656479858E+03  0.42714748120E+03  0.00000000000E+00 0.  1.
         13    1    5    5    0    0 -0.33676414479E+02 -0.27864286882E+02  0.58612943290E+01  0.44100727282E+02  0.00000000000E+00 0. -1.
        -13    1    5    5    0    0 -0.21138957322E+03  0.55860677096E+02  0.60480975280E+02  0.22685659630E+03  0.00000000000E+00 0.  1.
          1    1    4    4  503    0  0.49617226620E+02 -0.19612691215E+03  0.10951311851E+04  0.11136606069E+04  0.00000000000E+00 0. -1.
         -1    1    4    4    0  503  0.10906428571E+03 -0.31782438960E+02  0.57386224636E+03  0.58499830738E+03  0.00000000000E+00 0.  1.
<mgrwt>
<rscale>  0 0.12103023E+04</rscale>
<asrwt>0</asrwt>
<pdfrwt beam="1">  1        2 0.42818598E+00 0.12103023E+04</pdfrwt>
<pdfrwt beam="2">  1       -1 0.20242705E-01 0.12103023E+04</pdfrwt>
<totfact> 0.53845776E+01</totfact>
</mgrwt>
</event>
<event>
12    7  0.1497947E-008  0.5932565E+04  0.7818608E-02  0.7698820E-01
         -1   -1    0    0    0  501 -0.00000000000E+00  0.00000000000E+00  0.26258112784E+04  0.26258112784E+04  0.00000000000E+00 0.  1.
          2   -1    0    0  501    0  0.00000000000E+00 -0.00000000000E+00 -0.33509001063E+04  0.33509001063E+04  0.00000000000E+00 0. -1.
         24    2    1    2    0    0  0.10143920867E+02  0.18475664442E+04  0.18929369564E+04  0.26463137619E+04  0.78495481138E+02 0.  0.
        254    2    1    2    0    0 -0.10143920867E+02 -0.18475664442E+04 -0.26180257843E+04  0.33303976228E+04  0.90768092082E+03 0.  0.
         23    2    4    4    0    0 -0.35346673226E+03 -0.50458270176E+03 -0.50797826165E+03  0.80356919899E+03  0.90217013518E+02 0.  0.
         23    2    4    4    0    0  0.34332281139E+03 -0.13429837424E+04 -0.21100475226E+04  0.25268284238E+04  0.10528746554E+03 0.  0.
          4    1    3    3  502    0  0.93068857948E+01  0.72675949714E+02  0.93954834576E+02  0.11914664381E+03  0.00000000000E+00 0. -1.
         -1    1    3    3    0  502  0.83703507239E+00  0.17748904945E+04  0.17989821218E+04  0.25271671181E+04  0.00000000000E+00 0.  1.
         13    1    5    5    0    0 -0.11160265751E+03 -0.16959126405E+03 -0.22341408366E+03  0.30187779445E+03  0.00000000000E+00 0. -1.
        -13    1    5    5    0    0 -0.24186407475E+03 -0.33499143771E+03 -0.28456417799E+03  0.50169140454E+03  0.00000000000E+00 0.  1.
          4    1    6    6  503    0  0.30506155144E+03 -0.10129940881E+04 -0.16132973318E+04  0.19292350436E+04  0.00000000000E+00 0. -1.
         -4    1    6    6    0  503  0.38261259950E+02 -0.32998965438E+03 -0.49675019079E+03  0.59759338020E+03  0.00000000000E+00 0.  1.
<mgrwt>
<rscale>  0 0.59325648E+04</rscale>
<asrwt>0</asrwt>
<pdfrwt beam="1">  1        2 0.51552309E+00 0.59325648E+04</pdfrwt>
<pdfrwt beam="2">  1       -1 0.40397097E+00 0.59325648E+04</pdfrwt>
<totfact> 0.53221989E-03</totfact>
</mgrwt>
</event>
<event>
11    7  0.1497947E-008  0.2319900E+04  0.7818608E-02  0.8470116E-01
          2   -1    0    0  501    0  0.00000000000E+00  0.00000000000E+00  0.29828541160E+04  0.29828541160E+04  0.00000000000E+00 0. -1.
         -1   -1    0    0    0  501 -0.00000000000E+00 -0.00000000000E+00 -0.45107278224E+03  0.45107278224E+03  0.00000000000E+00 0.  1.
         24    2    1    2    0    0 -0.94500960643E+03  0.11880084286E+03  0.69903219711E+03  0.11841264313E+04  0.79703175492E+02 0.  0.
        254    2    1    2    0    0  0.94500960643E+03 -0.11880084286E+03  0.18327491366E+04  0.22498004670E+04  0.89189458274E+03 0.  0.
         23    2    4    4    0    0 -0.14382311251E+03 -0.80134537040E+02  0.14989683581E+03  0.23903189694E+03  0.86951449936E+02 0.  0.
          4    1    3    3  502    0 -0.62640560097E+03  0.86590508419E+02  0.50893738586E+03  0.81172603495E+03  0.00000000000E+00 0. -1.
         -3    1    3    3    0  502 -0.31860400545E+03  0.32210334437E+02  0.19009481125E+03  0.37240039635E+03  0.00000000000E+00 0.  1.
         13    1    5    5    0    0 -0.13860462468E+03 -0.65093141412E+02  0.91234069059E+02  0.17824706000E+03  0.00000000000E+00 0.  1.
        -13    1    5    5    0    0 -0.52184878310E+01 -0.15041395629E+02  0.58662766755E+02  0.60784836934E+02  0.00000000000E+00 0. -1.
          2    1    4    4  503    0  0.76037213327E+03  0.44274312473E+02  0.11780730522E+04  0.14028478578E+04  0.00000000000E+00 0. -1.
         -2    1    4    4    0  503  0.32846058567E+03 -0.82940618288E+02  0.50477924867E+03  0.60792071225E+03  0.00000000000E+00 0.  1.
<mgrwt>
<rscale>  0 0.23199003E+04</rscale>
<asrwt>0</asrwt>
<pdfrwt beam="1">  1        2 0.45890062E+00 0.23199003E+04</pdfrwt>
<pdfrwt beam="2">  1       -1 0.69395814E-01 0.23199003E+04</pdfrwt>
<totfact> 0.38626123E+00</totfact>
</mgrwt>
</event>
<event>
12    7  0.1497947E-008  0.1562258E+04  0.7818608E-02  0.8844076E-01
          2   -1    0    0  501    0  0.00000000000E+00  0.00000000000E+00  0.85491525226E+03  0.85491525226E+03  0.00000000000E+00 0. -1.
         -1   -1    0    0    0  501 -0.00000000000E+00 -0.00000000000E+00 -0.71371154657E+03  0.71371154657E+03  0.00000000000E+00 0.  1.
         24    2    1    2    0    0  0.14021527247E+03  0.19921983285E+03  0.50092957774E+03  0.56269506872E+03  0.79664509467E+02 0.  0.
        254    2    1    2    0    0 -0.14021527247E+03 -0.19921983285E+03 -0.35972587206E+03  0.10059317301E+04  0.90727453297E+03 0.  0.
         23    2    4    4    0    0  0.31599485841E+03  0.11772018590E+03 -0.34223017298E+02  0.35094873210E+03  0.91011015494E+02 0.  0.
         23    2    4    4    0    0 -0.45621013088E+03 -0.31694001875E+03 -0.32550285476E+03  0.65498299800E+03  0.12029946059E+03 0.  0.
          4    1    3    3  502    0  0.14791302210E+03  0.18931236730E+03  0.44857888819E+03  0.50886191982E+03  0.00000000000E+00 0. -1.
         -3    1    3    3    0  502 -0.76977496291E+01  0.99074655452E+01  0.52350689558E+02  0.53833148896E+02  0.00000000000E+00 0.  1.
         13    1    5    5    0    0  0.13051551018E+01 -0.83227599830E+01  0.48341144648E+01  0.97128999909E+01  0.00000000000E+00 0.  1.
        -13    1    5    5    0    0  0.31468970331E+03  0.12604294589E+03 -0.39057131763E+02  0.34123583211E+03  0.00000000000E+00 0. -1.
          3    1    6    6  503    0 -0.27258161085E+03 -0.15017618278E+03 -0.23858737123E+03  0.39214481274E+03  0.00000000000E+00 0. -1.
         -3    1    6    6    0  503 -0.18362852002E+03 -0.16676383598E+03 -0.86915483525E+02  0.26283818526E+03  0.00000000000E+00 0.  1.
<mgrwt>
<rscale>  0 0.15622585E+04</rscale>
<asrwt>0</asrwt>
<pdfrwt beam="1">  1        2 0.13152542E+00 0.15622585E+04</pdfrwt>
<pdfrwt beam="2">  1       -1 0.10980178E+00 0.15622585E+04</pdfrwt>
<totfact> 0.26501011E+01</totfact>
</mgrwt>
</event>
<event>
11    7  0.1497947E-008  0.1782561E+04  0.7818608E-02  0.8715629E-01
          2   -1    0    0  501    0  0.00000000000E+00  0.00000000000E+00  0.14839811051E+04  0.14839811051E+04  0.00000000000E+00 0. -1.
         -1   -1    0    0    0  501 -0.00000000000E+00 -0.00000000000E+00 -0.53530380394E+03  0.53530380394E+03  0.00000000000E+00 0.  1.
         24    2    1    2    0    0 -0.32531234380E+02  0.77847346421E+02  0.10259571750E+04  0.10326297043E+04  0.81347960126E+02 0.  0.
        254    2    1    2    0    0  0.32531234380E+02 -0.77847346421E+02 -0.77279873891E+02  0.98665520474E+03  0.97999888957E+03 0.  0.
         23    2    4    4    0    0 -0.39122935384E+03 -0.28625480512E+03 -0.43131749860E+02  0.49526499458E+03  0.91786961198E+02 0.  0.
          2    1    3    3  502    0 -0.35237863562E+02  0.13357192227E+01  0.48521430994E+03  0.48649400586E+03  0.00000000000E+00 0. -1.
         -1    1    3    3    0  502  0.27066291822E+01  0.76511627198E+02  0.54074286507E+03  0.54613569839E+03  0.00000000000E+00 0.  1.
         13    1    5    5    0    0 -0.37923967404E+03 -0.26929546349E+03 -0.22017100985E+02  0.46564743074E+03  0.00000000000E+00 0. -1.
        -13    1    5    5    0    0 -0.11989679799E+02 -0.16959341631E+02 -0.21114648875E+02  0.29617563832E+02  0.00000000000E+00 0.  1.
          2    1    4    4  503    0  0.42920266148E+03  0.20954575740E+03 -0.44446116418E+02  0.47968719634E+03  0.00000000000E+00 0. -1.
         -2    1    4    4    0  503 -0.54420732628E+01 -0.11382986977E+01  0.10297992386E+02  0.11703013822E+02  0.00000000000E+00 0.  1.
<mgrwt>
<rscale>  0 0.17825608E+04</rscale>
<asrwt>0</asrwt>
<pdfrwt beam="1">  1        2 0.22830478E+00 0.17825608E+04</pdfrwt>
<pdfrwt beam="2">  1       -1 0.82354432E-01 0.17825608E+04</pdfrwt>
<totfact> 0.20468917E+01</totfact>
</mgrwt>
</event>
<event>
11    7  0.1497947E-008  0.2025080E+04  0.7818608E-02  0.8594984E-01
          2   -1    0    0  501    0  0.00000000000E+00  0.00000000000E+00  0.12901772382E+04  0.12901772382E+04  0.00000000000E+00 0. -1.
         -1   -1    0    0    0  501 -0.00000000000E+00 -0.00000000000E+00 -0.79464864145E+03  0.79464864145E+03  0.00000000000E+00 0.  1.
         24    2    1    2    0    0  0.92172110275E+02 -0.17084038223E+03 -0.60636898251E+03  0.64168393822E+03  0.79954984202E+02 0.  0.
        254    2    1    2    0    0 -0.92172110275E+02  0.17084038223E+03  0.11018975792E+04  0.14431419414E+04  0.91148135131E+03 0.  0.
         23    2    4    4    0    0 -0.76707073181E+02  0.18116301704E+03  0.12008547213E+04  0.12201028226E+04  0.88852811630E+02 0.  0.
          4    1    3    3  502    0  0.49065138285E+02 -0.64516296037E+02 -0.37215058255E+03  0.38087504033E+03  0.00000000000E+00 0. -1.
         -3    1    3    3    0  502  0.43106971989E+02 -0.10632408619E+03 -0.23421839996E+03  0.26080889789E+03  0.00000000000E+00 0.  1.
         13    1    5    5    0    0 -0.45469501822E+02  0.12531354851E+03  0.54222276804E+03  0.55836949345E+03  0.00000000000E+00 0.  1.
        -13    1    5    5    0    0 -0.31237571359E+02  0.55849468526E+02  0.65863195325E+03  0.66173332910E+03  0.00000000000E+00 0. -1.
          1    1    4    4  503    0  0.48905690576E+02  0.51908466199E+02 -0.11177827233E+03  0.13259199674E+03  0.00000000000E+00 0. -1.
         -1    1    4    4    0  503 -0.64370727669E+02 -0.62231101008E+02  0.12821130262E+02  0.90447122091E+02  0.00000000000E+00 0.  1.
<mgrwt>
<rscale>  0 0.20250803E+04</rscale>
<asrwt>0</asrwt>
<pdfrwt beam="1">  1        2 0.19848881E+00 0.20250803E+04</pdfrwt>
<pdfrwt beam="2">  1       -1 0.12225364E+00 0.20250803E+04</pdfrwt>
<totfact> 0.10470297E+01</totfact>
</mgrwt>
</event>
<event>
12    7  0.1497947E-008  0.1285818E+04  0.7818608E-02  0.9040888E-01
          2   -1    0    0  501    0  0.00000000000E+00  0.00000000000E+00  0.28085987203E+04  0.28085987203E+04  0.00000000000E+00 0. -1.
         -1   -1    0    0    0  501 -0.00000000000E+00 -0.00000000000E+00 -0.14716661328E+03  0.14716661328E+03  0.00000000000E+00 0.  1.
         24    2    1    2    0    0 -0.22806282774E+03  0.22688853833E+03  0.75496161173E+03  0.82423480292E+03  0.76843431301E+02 0.  0.
        254    2    1    2    0    0  0.22806282774E+03 -0.22688853833E+03  0.19064704953E+04  0.21315305307E+04  0.89738597688E+03 0.  0.
         23    2    4    4    0    0 -0.11152207050E+03  0.26391509426E+03  0.36729974251E+03  0.47640435496E+03  0.99818131584E+02 0.  0.
         23    2    4    4    0    0  0.33958489824E+03 -0.49080363259E+03  0.15391707528E+04  0.16551261757E+04  0.11912154461E+03 0.  0.
          4    1    3    3  502    0 -0.19729256557E+03  0.15870433205E+03  0.62399149710E+03  0.67340686802E+03  0.00000000000E+00 0. -1.
         -3    1    3    3    0  502 -0.30770262162E+02  0.68184206279E+02  0.13097011463E+03  0.15082793490E+03  0.00000000000E+00 0.  1.
         13    1    5    5    0    0 -0.11667664190E+03  0.24429822128E+03  0.29103109780E+03  0.39748479162E+03  0.00000000000E+00 0. -1.
        -13    1    5    5    0    0  0.51545713959E+01  0.19616872977E+02  0.76268644709E+02  0.78919563338E+02  0.00000000000E+00 0.  1.
          1    1    6    6  503    0  0.28578203056E+03 -0.37321057759E+03  0.13128576500E+04  0.13944721988E+04  0.00000000000E+00 0. -1.
         -1    1    6    6    0  503  0.53802867677E+02 -0.11759305500E+03  0.22631310279E+03  0.26065397685E+03  0.00000000000E+00 0.  1.
<mgrwt>
<rscale>  0 0.12858180E+04</rscale>
<asrwt>0</asrwt>
<pdfrwt beam="1">  1        2 0.43209207E+00 0.12858180E+04</pdfrwt>
<pdfrwt beam="2">  1       -1 0.22641019E-01 0.12858180E+04</pdfrwt>
<totfact> 0.42737267E+01</totfact>
</mgrwt>
</event>
<event>
12    7  0.1497947E-008  0.1485150E+04  0.7818608E-02  0.8894389E-01
         -1   -1    0    0    0  501 -0.00000000000E+00  0.00000000000E+00  0.63289368536E+03  0.63289368536E+03  0.00000000000E+00 0.  1.
          2   -1    0    0  501    0  0.00000000000E+00 -0.00000000000E+00 -0.87126386525E+03  0.87126386525E+03  0.00000000000E+00 0. -1.
         24    2    1    2    0    0 -0.30334505006E+03 -0.25266416890E+03 -0.33098191492E+03  0.52123041994E+03  0.79213136665E+02 0.  0.
        254    2    1    2    0    0  0.30334505006E+03  0.25266416890E+03  0.92611735033E+02  0.98292713068E+03  0.89538338666E+03 0.  0.
         23    2    4    4    0    0  0.59835044410E+03  0.82978391644E+02 -0.36291569819E+01  0.61118172087E+03  0.92850728143E+02 0.  0.
         23    2    4    4    0    0 -0.29500539404E+03  0.16968577726E+03  0.96240892015E+02  0.37174540980E+03  0.11450281613E+03 0.  0.
          4    1    3    3  502    0 -0.35253536230E+02 -0.19097211345E+01 -0.23845466167E+02  0.42603580932E+02  0.00000000000E+00 0. -1.
         -1    1    3    3    0  502 -0.26809151383E+03 -0.25075444777E+03 -0.30713644876E+03  0.47862683901E+03  0.00000000000E+00 0.  1.
         13    1    5    5    0    0  0.54683891362E+03  0.10179108923E+03 -0.64547187908E+01  0.55626961690E+03  0.00000000000E+00 0. -1.
        -13    1    5    5    0    0  0.51511530479E+02 -0.18812697588E+02  0.28255618089E+01  0.54912103970E+02  0.00000000000E+00 0.  1.
          1    1    6    6  503    0 -0.30568590284E+03  0.16468737801E+03  0.91922867407E+02  0.35918744023E+03  0.00000000000E+00 0. -1.
         -1    1    6    6    0  503  0.10680508799E+02  0.49983992459E+01  0.43180246083E+01  0.12557969571E+02  0.00000000000E+00 0.  1.
<mgrwt>
<rscale>  0 0.14851497E+04</rscale>
<asrwt>0</asrwt>
<pdfrwt beam="1">  1        2 0.13404060E+00 0.14851497E+04</pdfrwt>
<pdfrwt beam="2">  1       -1 0.97368259E-01 0.14851497E+04</pdfrwt>
<totfact> 0.34316373E+01</totfact>
</mgrwt>
</event>
<event>
12    7  0.1497947E-008  0.3256763E+04  0.7818608E-02  0.8173985E-01
          2   -1    0    0  501    0  0.00000000000E+00  0.00000000000E+00  0.15934580663E+04  0.15934580663E+04  0.00000000000E+00 0. -1.
         -1   -1    0    0    0  501 -0.00000000000E+00 -0.00000000000E+00 -0.16640705785E+04  0.16640705785E+04  0.00000000000E+00 0.  1.
         24    2    1    2    0    0  0.83736563296E+03 -0.78813028039E+02  0.12091216207E+04  0.14750633078E+04  0.80274352939E+02 0.  0.
        254    2    1    2    0    0 -0.83736563296E+03  0.78813028039E+02 -0.12797341329E+04  0.17824653370E+04  0.91217900106E+03 0.  0.
         23    2    4    4    0    0 -0.61134250389E+03  0.39982398170E+03 -0.46616799046E+03  0.87127563751E+03  0.90607768878E+02 0.  0.
         23    2    4    4    0    0 -0.22602312907E+03 -0.32101095366E+03 -0.81356614244E+03  0.91118969947E+03  0.11934116245E+03 0.  0.
          2    1    3    3  502    0  0.71290083460E+03 -0.39033918606E+02  0.10087640806E+04  0.12358625397E+04  0.00000000000E+00 0. -1.
         -1    1    3    3    0  502  0.12446479836E+03 -0.39779109433E+02  0.20035754007E+03  0.23920076806E+03  0.00000000000E+00 0.  1.
         13    1    5    5    0    0  0.20446371353E+01  0.29532340811E+01 -0.83752926587E+01  0.91130488681E+01  0.00000000000E+00 0. -1.
        -13    1    5    5    0    0 -0.61338714102E+03  0.39687074762E+03 -0.45779269781E+03  0.86216258864E+03  0.00000000000E+00 0.  1.
          2    1    6    6  503    0 -0.15252099332E+03 -0.26196408833E+03 -0.50964593470E+03  0.59298129459E+03  0.00000000000E+00 0.  1.
         -2    1    6    6    0  503 -0.73502135750E+02 -0.59046865334E+02 -0.30392020774E+03  0.31820840488E+03  0.00000000000E+00 0. -1.
<mgrwt>
<rscale>  0 0.32567632E+04</rscale>
<asrwt>0</asrwt>
<pdfrwt beam="1">  1        2 0.24514740E+00 0.32567632E+04</pdfrwt>
<pdfrwt beam="2">  1       -1 0.25601086E+00 0.32567632E+04</pdfrwt>
<totfact> 0.68347818E-01</totfact>
</mgrwt>
</event>
<event>
12    7  0.1497947E-008  0.3478968E+04  0.7818608E-02  0.8118792E-01
          2   -1    0    0  501    0  0.00000000000E+00  0.00000000000E+00  0.26011608520E+04  0.26011608520E+04  0.00000000000E+00 0. -1.
         -1   -1    0    0    0  501 -0.00000000000E+00 -0.00000000000E+00 -0.11632516480E+04  0.11632516480E+04  0.00000000000E+00 0.  1.
         24    2    1    2    0    0 -0.46248569906E+03 -0.20517915127E+03  0.23390450981E+04  0.23944769477E+04  0.79977349703E+02 0.  0.
        254    2    1    2    0    0  0.46248569906E+03  0.20517915127E+03 -0.90113589409E+03  0.13699355523E+04  0.89926971034E+03 0.  0.
         23    2    4    4    0    0 -0.12043708489E+03  0.22152826921E+03  0.30201457883E+02  0.26898834084E+03  0.88672058566E+02 0.  0.
         23    2    4    4    0    0  0.58292278395E+03 -0.16349117947E+02 -0.93133735197E+03  0.11009472115E+04  0.68038471300E+02 0.  0.
          2    1    3    3  502    0 -0.40575171618E+03 -0.18975056082E+03  0.19344674429E+04  0.19856495205E+04  0.00000000000E+00 0. -1.
         -1    1    3    3    0  502 -0.56733982881E+02 -0.15428590446E+02  0.40457765516E+03  0.40882742725E+03  0.00000000000E+00 0.  1.
         13    1    5    5    0    0 -0.99952045665E+02  0.20734569276E+03  0.44742633158E+00  0.23018003373E+03  0.00000000000E+00 0. -1.
        -13    1    5    5    0    0 -0.20485039228E+02  0.14182576457E+02  0.29754031551E+02  0.38808307109E+02  0.00000000000E+00 0.  1.
          2    1    6    6  503    0  0.54241834204E+03 -0.43369103018E+01 -0.83459299085E+03  0.99538029262E+03  0.00000000000E+00 0. -1.
         -2    1    6    6    0  503  0.40504441911E+02 -0.12012207645E+02 -0.96744361123E+02  0.10556691885E+03  0.00000000000E+00 0.  1.
<mgrwt>
<rscale>  0 0.34789680E+04</rscale>
<asrwt>0</asrwt>
<pdfrwt beam="1">  1        2 0.40017859E+00 0.34789680E+04</pdfrwt>
<pdfrwt beam="2">  1       -1 0.17896179E+00 0.34789680E+04</pdfrwt>
<totfact> 0.60153048E-01</totfact>
</mgrwt>
</event>
<event>
12    7  0.1497947E-008  0.1155186E+04  0.7818608E-02  0.9153012E-01
          2   -1    0    0  501    0  0.00000000000E+00  0.00000000000E+00  0.51652517611E+04  0.51652517611E+04  0.00000000000E+00 0. -1.
         -1   -1    0    0    0  501 -0.00000000000E+00 -0.00000000000E+00 -0.64588124430E+02  0.64588124430E+02  0.00000000000E+00 0.  1.
         24    2    1    2    0    0 -0.10521038098E+03  0.91073447087E+02  0.27782763770E+03  0.32103605435E+03  0.80699162888E+02 0.  0.
        254    2    1    2    0    0  0.10521038098E+03 -0.91073447087E+02  0.48228359990E+04  0.49088038312E+04  0.90401569846E+03 0.  0.
         23    2    4    4    0    0  0.23876435238E+03 -0.31797954632E+03  0.10559793962E+04  0.11320632379E+04  0.91407229046E+02 0.  0.
         23    2    4    4    0    0 -0.13355397140E+03  0.22690609923E+03  0.37668566028E+04  0.37767405933E+04  0.72372661319E+02 0.  0.
          4    1    3    3  502    0 -0.18872115184E+02  0.29348853386E+00  0.31480566439E+01  0.19135128107E+02  0.00000000000E+00 0. -1.
         -3    1    3    3    0  502 -0.86338265795E+02  0.90779958553E+02  0.27467958106E+03  0.30190092624E+03  0.00000000000E+00 0.  1.
         13    1    5    5    0    0  0.17597816817E+03 -0.18091381389E+03  0.57351189809E+03  0.62658919635E+03  0.00000000000E+00 0. -1.
        -13    1    5    5    0    0  0.62786184211E+02 -0.13706573242E+03  0.48246749810E+03  0.50547404152E+03  0.00000000000E+00 0.  1.
          1    1    6    6  503    0 -0.13985819334E+03  0.22566304990E+03  0.37174130984E+04  0.37268813062E+04  0.00000000000E+00 0. -1.
         -1    1    6    6    0  503  0.63042219429E+01  0.12430493311E+01  0.49443504386E+02  0.49859287118E+02  0.00000000000E+00 0.  1.
<mgrwt>
<rscale>  0 0.11551864E+04</rscale>
<asrwt>0</asrwt>
<pdfrwt beam="1">  1        2 0.79465379E+00 0.11551864E+04</pdfrwt>
<pdfrwt beam="2">  1       -1 0.99366386E-02 0.11551864E+04</pdfrwt>
<totfact> 0.16322808E+00</totfact>
</mgrwt>
</event>
<event>
11    7  0.1497947E-008  0.1683671E+04  0.7818608E-02  0.8770733E-01
         -1   -1    0    0    0  501 -0.00000000000E+00  0.00000000000E+00  0.39186329224E+03  0.39186329224E+03  0.00000000000E+00 0.  1.
          2   -1    0    0  501    0  0.00000000000E+00 -0.00000000000E+00 -0.18085048514E+04  0.18085048514E+04  0.00000000000E+00 0. -1.
         24    2    1    2    0    0 -0.33307116033E+03 -0.26232286127E+03 -0.10637742409E+04  0.11479332094E+04  0.79908299039E+02 0.  0.
        254    2    1    2    0    0  0.33307116033E+03  0.26232286127E+03 -0.35286731832E+03  0.10524349343E+04  0.89630032087E+03 0.  0.
         23    2    4    4    0    0  0.17251028416E+03  0.17349346950E+02 -0.60377435080E+03  0.63472785636E+03  0.90968054734E+02 0.  0.
          2    1    3    3  502    0 -0.19573129584E+03 -0.19346859514E+03 -0.74112458373E+03  0.79057351719E+03  0.00000000000E+00 0. -1.
         -1    1    3    3    0  502 -0.13733986450E+03 -0.68854266129E+02 -0.32264965713E+03  0.35735969217E+03  0.00000000000E+00 0.  1.
         13    1    5    5    0    0  0.17023125193E+03  0.15499410423E+02 -0.60685682420E+03  0.63047134426E+03  0.00000000000E+00 0. -1.
        -13    1    5    5    0    0  0.22790322232E+01  0.18499365275E+01  0.30824733989E+01  0.42565121032E+01  0.00000000000E+00 0.  1.
          4    1    4    4  503    0  0.11710051533E+03  0.46849582068E+02  0.62045212216E+02  0.14055967554E+03  0.00000000000E+00 0. -1.
         -4    1    4    4    0  503  0.43460360847E+02  0.19812393226E+03  0.18886182027E+03  0.27714740239E+03  0.00000000000E+00 0.  1.
<mgrwt>
<rscale>  0 0.16836706E+04</rscale>
<asrwt>0</asrwt>
<pdfrwt beam="1">  1        2 0.27823152E+00 0.16836706E+04</pdfrwt>
<pdfrwt beam="2">  1       -1 0.60286660E-01 0.16836706E+04</pdfrwt>
<totfact> 0.25844246E+01</totfact>
</mgrwt>
</event>
<event>
11    7  0.1497947E-008  0.1717954E+04  0.7818608E-02  0.8751190E-01
         -1   -1    0    0    0  501 -0.00000000000E+00  0.00000000000E+00  0.27334676567E+04  0.27334676567E+04  0.00000000000E+00 0.  1.
          2   -1    0    0  501    0  0.00000000000E+00 -0.00000000000E+00 -0.26992879655E+03  0.26992879655E+03  0.00000000000E+00 0. -1.
         24    2    1    2    0    0 -0.59884228094E+03 -0.14991301969E+03  0.63657630659E+03  0.89052026116E+03  0.81920391327E+02 0.  0.
        254    2    1    2    0    0  0.59884228094E+03  0.14991301969E+03  0.18269625536E+04  0.21128761921E+04  0.86334676698E+03 0.  0.
         23    2    4    4    0    0  0.51679440959E+03  0.16488803597E+03  0.12327193274E+04  0.13501184596E+04  0.94648764092E+02 0.  0.
          4    1    3    3  502    0 -0.47297558608E+03 -0.14788119802E+03  0.52993927433E+03  0.72554144488E+03  0.00000000000E+00 0. -1.
         -3    1    3    3    0  502 -0.12586669486E+03 -0.20318216741E+01  0.10663703226E+03  0.16497881629E+03  0.00000000000E+00 0.  1.
         13    1    5    5    0    0  0.36683921878E+03  0.13692633732E+03  0.97427921967E+03  0.10500189675E+04  0.00000000000E+00 0.  1.
        -13    1    5    5    0    0  0.14995519081E+03  0.27961698642E+02  0.25844010773E+03  0.30009949205E+03  0.00000000000E+00 0. -1.
          4    1    4    4  503    0  0.96679139462E+02  0.22128671247E+03  0.30059720918E+03  0.38558182956E+03  0.00000000000E+00 0. -1.
         -4    1    4    4    0  503 -0.14631268107E+02 -0.23626172875E+03  0.29364601700E+03  0.37717590297E+03  0.00000000000E+00 0.  1.
<mgrwt>
<rscale>  0 0.17179542E+04</rscale>
<asrwt>0</asrwt>
<pdfrwt beam="1">  1        2 0.41527509E-01 0.17179542E+04</pdfrwt>
<pdfrwt beam="2">  1       -1 0.42053347E+00 0.17179542E+04</pdfrwt>
<totfact> 0.69734836E-01</totfact>
</mgrwt>
</event>
<event>
12    7  0.1497947E-008  0.2056940E+04  0.7818608E-02  0.8580453E-01
         -1   -1    0    0    0  501 -0.00000000000E+00  0.00000000000E+00  0.93223098695E+03  0.93223098695E+03  0.00000000000E+00 0.  1.
          2   -1    0    0  501    0  0.00000000000E+00 -0.00000000000E+00 -0.11346439143E+04  0.11346439143E+04  0.00000000000E+00 0. -1.
         24    2    1    2    0    0 -0.70511540036E+03  0.78859942674E+02  0.35040518906E+03  0.79537121616E+03  0.80155826930E+02 0.  0.
        254    2    1    2    0    0  0.70511540036E+03 -0.78859942674E+02 -0.55281811639E+03  0.12715036851E+04  0.89872528227E+03 0.  0.
         23    2    4    4    0    0  0.19290148983E+03  0.41698019736E+02  0.23355778150E+03  0.31951522557E+03  0.92687822505E+02 0.  0.
         23    2    4    4    0    0  0.51221391053E+03 -0.12055796241E+03 -0.78637589789E+03  0.95198845952E+03  0.10486973742E+03 0.  0.
          4    1    3    3  502    0 -0.13839524478E+02  0.10935349583E+02  0.18434687720E+02  0.25513761377E+02  0.00000000000E+00 0. -1.
         -3    1    3    3    0  502 -0.69127587588E+03  0.67924593091E+02  0.33197050134E+03  0.76985745478E+03  0.00000000000E+00 0.  1.
         13    1    5    5    0    0  0.11804526189E+03  0.42620225666E+02  0.80420924049E+02  0.14905935903E+03  0.00000000000E+00 0.  1.
        -13    1    5    5    0    0  0.74856227939E+02 -0.92220593004E+00  0.15313685745E+03  0.17045586653E+03  0.00000000000E+00 0. -1.
          2    1    6    6  503    0  0.36421196601E+03 -0.87791608983E+02 -0.46896078465E+03  0.60023490429E+03  0.00000000000E+00 0. -1.
         -2    1    6    6    0  503  0.14800194452E+03 -0.32766353427E+02 -0.31741511324E+03  0.35175355522E+03  0.00000000000E+00 0.  1.
<mgrwt>
<rscale>  0 0.20569397E+04</rscale>
<asrwt>0</asrwt>
<pdfrwt beam="1">  1        2 0.17456060E+00 0.20569397E+04</pdfrwt>
<pdfrwt beam="2">  1       -1 0.14342015E+00 0.20569397E+04</pdfrwt>
<totfact> 0.86053073E+00</totfact>
</mgrwt>
</event>
<event>
11    7  0.1497947E-008  0.2027949E+04  0.7818608E-02  0.8593664E-01
         -3   -1    0    0    0  501 -0.00000000000E+00  0.00000000000E+00  0.72269333815E+03  0.72269333815E+03  0.00000000000E+00 0.  1.
          4   -1    0    0  501    0  0.00000000000E+00 -0.00000000000E+00 -0.14226561574E+04  0.14226561574E+04  0.00000000000E+00 0. -1.
         24    2    1    2    0    0  0.12603988386E+03 -0.72914368098E+03 -0.63845956617E+03  0.98110479156E+03  0.86019966105E+02 0.  0.
        254    2    1    2    0    0 -0.12603988386E+03  0.72914368098E+03 -0.61503253084E+02  0.11642447040E+04  0.89674217073E+03 0.  0.
         23    2    4    4    0    0 -0.23523334773E+03  0.14664208959E+03 -0.36098121958E+03  0.46405216190E+03  0.90544672688E+02 0.  0.
          2    1    3    3  502    0  0.13430402605E+03 -0.70573142812E+03 -0.60362071261E+03  0.93832424286E+03  0.00000000000E+00 0. -1.
         -1    1    3    3    0  502 -0.82641421938E+01 -0.23412252855E+02 -0.34838853562E+02  0.42780548704E+02  0.00000000000E+00 0.  1.
         13    1    5    5    0    0 -0.16356142976E+03  0.55665249738E+02 -0.24804013582E+03  0.30228276549E+03  0.00000000000E+00 0.  1.
        -13    1    5    5    0    0 -0.71671917973E+02  0.90976839853E+02 -0.11294108376E+03  0.16176939641E+03  0.00000000000E+00 0. -1.
          1    1    4    4  503    0  0.71315210372E+02  0.15179719645E+03  0.19147491891E+03  0.25454055208E+03  0.00000000000E+00 0. -1.
         -1    1    4    4    0  503  0.37878253500E+02  0.43070439493E+03  0.10800304759E+03  0.44565199000E+03  0.00000000000E+00 0.  1.
<mgrwt>
<rscale>  0 0.20279488E+04</rscale>
<asrwt>0</asrwt>
<pdfrwt beam="1">  1        4 0.21887018E+00 0.20279488E+04</pdfrwt>
<pdfrwt beam="2">  1       -3 0.11118359E+00 0.20279488E+04</pdfrwt>
<totfact> 0.14260910E-01</totfact>
</mgrwt>
</event>
<event>
12    7  0.1497947E-008  0.3120186E+04  0.7818608E-02  0.8210220E-01
         -1   -1    0    0    0  501 -0.00000000000E+00  0.00000000000E+00  0.70423856660E+03  0.70423856660E+03  0.00000000000E+00 0.  1.
          2   -1    0    0  501    0  0.00000000000E+00 -0.00000000000E+00 -0.34560588626E+04  0.34560588626E+04  0.00000000000E+00 0. -1.
         24    2    1    2    0    0  0.13916359910E+04  0.28018761613E+03 -0.14544976221E+04  0.20339947603E+04  0.80096945152E+02 0.  0.
        254    2    1    2    0    0 -0.13916359910E+04 -0.28018761613E+03 -0.12973226739E+04  0.21263026689E+04  0.90717202778E+03 0.  0.
         23    2    4    4    0    0 -0.11297594100E+04 -0.54441338360E+03 -0.78546154130E+03  0.14825340600E+04  0.90637461955E+02 0.  0.
         23    2    4    4    0    0 -0.26187658096E+03  0.26422576747E+03 -0.51186113258E+03  0.64376860887E+03  0.11849726950E+03 0.  0.
          2    1    3    3  502    0  0.12461177419E+04  0.27558318037E+03 -0.13046358573E+04  0.18250562283E+04  0.00000000000E+00 0. -1.
         -1    1    3    3    0  502  0.14551824903E+03  0.46044357612E+01 -0.14986176478E+03  0.20893853204E+03  0.00000000000E+00 0.  1.
         13    1    5    5    0    0 -0.12321270197E+03 -0.60593594835E+02 -0.54109064424E+02  0.14758300889E+03  0.00000000000E+00 0.  1.
        -13    1    5    5    0    0 -0.10065467080E+04 -0.48381978876E+03 -0.73135247688E+03  0.13349510511E+04  0.00000000000E+00 0. -1.
          1    1    6    6  503    0 -0.22870134404E+03  0.24283108678E+03 -0.50259690448E+03  0.60322043223E+03  0.00000000000E+00 0. -1.
         -1    1    6    6    0  503 -0.33175236921E+02  0.21394680687E+02 -0.92642280967E+01  0.40548176638E+02  0.00000000000E+00 0.  1.
<mgrwt>
<rscale>  0 0.31201859E+04</rscale>
<asrwt>0</asrwt>
<pdfrwt beam="1">  1        2 0.53170136E+00 0.31201859E+04</pdfrwt>
<pdfrwt beam="2">  1       -1 0.10834440E+00 0.31201859E+04</pdfrwt>
<totfact> 0.66359509E-01</totfact>
</mgrwt>
</event>
<event>
11    7  0.1497947E-008  0.1360436E+04  0.7818608E-02  0.8982966E-01
          2   -1    0    0  501    0  0.00000000000E+00  0.00000000000E+00  0.26324644666E+04  0.26324644666E+04  0.00000000000E+00 0. -1.
         -1   -1    0    0    0  501 -0.00000000000E+00 -0.00000000000E+00 -0.17576546767E+03  0.17576546767E+03  0.00000000000E+00 0.  1.
         24    2    1    2    0    0  0.19517613506E+03 -0.10160747763E+03  0.65603531810E+02  0.24639346214E+03  0.89376236173E+02 0.  0.
        254    2    1    2    0    0 -0.19517613506E+03  0.10160747763E+03  0.23910954671E+04  0.25618364721E+04  0.89288900421E+03 0.  0.
         23    2    4    4    0    0  0.13632770922E+03  0.29312977303E+03  0.42080772652E+03  0.53857622600E+03  0.92059222077E+02 0.  0.
          4    1    3    3  502    0  0.73398115952E+02 -0.33396744540E+02  0.69943366356E+02  0.10674596231E+03  0.00000000000E+00 0. -1.
         -3    1    3    3    0  502  0.12177801911E+03 -0.68210733088E+02 -0.43398345458E+01  0.13964749984E+03  0.00000000000E+00 0.  1.
         13    1    5    5    0    0  0.12662620648E+03  0.29344281963E+03  0.37952352816E+03  0.49616629570E+03  0.00000000000E+00 0. -1.
        -13    1    5    5    0    0  0.97015027431E+01 -0.31304659734E+00  0.41284198361E+02  0.42409930299E+02  0.00000000000E+00 0.  1.
          1    1    4    4  503    0 -0.27388304085E+03 -0.17983769531E+03  0.10238643466E+04  0.10750124264E+04  0.00000000000E+00 0. -1.
         -1    1    4    4    0  503 -0.57620803434E+02 -0.11684600097E+02  0.94642339406E+03  0.94824781977E+03  0.00000000000E+00 0.  1.
<mgrwt>
<rscale>  0 0.13604357E+04</rscale>
<asrwt>0</asrwt>
<pdfrwt beam="1">  1        2 0.40499451E+00 0.13604357E+04</pdfrwt>
<pdfrwt beam="2">  1       -1 0.27040843E-01 0.13604357E+04</pdfrwt>
<totfact> 0.39814965E+01</totfact>
</mgrwt>
</event>
<event>
12    7  0.1497947E-008  0.1254841E+04  0.7818608E-02  0.9066164E-01
         -1   -1    0    0    0  501 -0.00000000000E+00  0.00000000000E+00  0.21995267549E+03  0.21995267549E+03  0.00000000000E+00 0.  1.
          2   -1    0    0  501    0  0.00000000000E+00 -0.00000000000E+00 -0.17897319292E+04  0.17897319292E+04  0.00000000000E+00 0. -1.
         24    2    1    2    0    0  0.96521740652E+02  0.23729545471E+03 -0.13690806657E+03  0.30086229218E+03  0.78413780151E+02 0.  0.
        254    2    1    2    0    0 -0.96521740652E+02 -0.23729545471E+03 -0.14328711871E+04  0.17088223125E+04  0.89516941277E+03 0.  0.
         23    2    4    4    0    0  0.78813988809E+02 -0.34604655429E+03 -0.14432002355E+04  0.14891067096E+04  0.93016183177E+02 0.  0.
         23    2    4    4    0    0 -0.17533572946E+03  0.10875109958E+03  0.10329048339E+02  0.21971560291E+03  0.74825378296E+02 0.  0.
          4    1    3    3  502    0  0.11669768978E+02  0.99657676628E+02 -0.83626166118E+02  0.13061842013E+03  0.00000000000E+00 0. -1.
         -3    1    3    3    0  502  0.84851971675E+02  0.13763777808E+03 -0.53281900455E+02  0.17024387204E+03  0.00000000000E+00 0.  1.
         13    1    5    5    0    0  0.62321045446E+02 -0.34416758787E+03 -0.13591461689E+04  0.14034292108E+04  0.00000000000E+00 0. -1.
        -13    1    5    5    0    0  0.16492943363E+02 -0.18789664201E+01 -0.84054066594E+02  0.85677498835E+02  0.00000000000E+00 0.  1.
          4    1    6    6  503    0 -0.15344810364E+03  0.75723264658E+02 -0.16433084855E+02  0.17190223849E+03  0.00000000000E+00 0. -1.
         -4    1    6    6    0  503 -0.21887625820E+02  0.33027834922E+02  0.26762133194E+02  0.47813364416E+02  0.00000000000E+00 0.  1.
<mgrwt>
<rscale>  0 0.12548407E+04</rscale>
<asrwt>0</asrwt>
<pdfrwt beam="1">  1        2 0.27534338E+00 0.12548407E+04</pdfrwt>
<pdfrwt beam="2">  1       -1 0.33838873E-01 0.12548407E+04</pdfrwt>
<totfact> 0.80731387E+01</totfact>
</mgrwt>
</event>
<event>
11    7  0.1497947E-008  0.1517693E+04  0.7818608E-02  0.8872772E-01
          2   -1    0    0  501    0  0.00000000000E+00  0.00000000000E+00  0.10352879186E+04  0.10352879186E+04  0.00000000000E+00 0. -1.
         -1   -1    0    0    0  501 -0.00000000000E+00 -0.00000000000E+00 -0.55622006346E+03  0.55622006346E+03  0.00000000000E+00 0.  1.
         24    2    1    2    0    0  0.22951804019E+03 -0.23813758750E+03  0.52668980635E+03  0.62677948923E+03  0.77860995764E+02 0.  0.
        254    2    1    2    0    0 -0.22951804019E+03  0.23813758750E+03 -0.47621951172E+02  0.96472849286E+03  0.90501114543E+03 0.  0.
         23    2    4    4    0    0  0.26674198642E+03  0.14836982099E+03 -0.13300922298E+03  0.34529830633E+03  0.91512708753E+02 0.  0.
          4    1    3    3  502    0  0.13190518237E+03 -0.10975072334E+03  0.20834042828E+03  0.26990726642E+03  0.00000000000E+00 0. -1.
         -3    1    3    3    0  502  0.97612857813E+02 -0.12838686415E+03  0.31834937806E+03  0.35687222281E+03  0.00000000000E+00 0.  1.
         13    1    5    5    0    0  0.24999917993E+03  0.14172547407E+03 -0.14671644474E+03  0.32266300551E+03  0.00000000000E+00 0.  1.
        -13    1    5    5    0    0  0.16742806484E+02  0.66443469186E+01  0.13707221764E+02  0.22635300825E+02  0.00000000000E+00 0. -1.
          3    1    4    4  503    0 -0.92433857026E+02  0.95171925722E+02  0.16092631149E+03  0.20856411748E+03  0.00000000000E+00 0. -1.
         -3    1    4    4    0  503 -0.40382616958E+03 -0.54041592146E+01 -0.75539039688E+02  0.41086606904E+03  0.00000000000E+00 0.  1.
<mgrwt>
<rscale>  0 0.15176929E+04</rscale>
<asrwt>0</asrwt>
<pdfrwt beam="1">  1        2 0.15927506E+00 0.15176929E+04</pdfrwt>
<pdfrwt beam="2">  1       -1 0.85572318E-01 0.15176929E+04</pdfrwt>
<totfact> 0.35526602E+01</totfact>
</mgrwt>
</event>
<event>
11    7  0.1497947E-008  0.2122183E+04  0.7818608E-02  0.8551534E-01
         -1   -1    0    0    0  501 -0.00000000000E+00  0.00000000000E+00  0.14427874512E+04  0.14427874512E+04  0.00000000000E+00 0.  1.
          2   -1    0    0  501    0  0.00000000000E+00 -0.00000000000E+00 -0.78037525911E+03  0.78037525911E+03  0.00000000000E+00 0. -1.
         24    2    1    2    0    0 -0.18158527221E+03 -0.55743170184E+02 -0.60413902643E+03  0.63819208887E+03  0.78896558500E+02 0.  0.
        254    2    1    2    0    0  0.18158527221E+03  0.55743170184E+02  0.12665512185E+04  0.15849706214E+04  0.93375551917E+03 0.  0.
         23    2    4    4    0    0 -0.22632746807E+03 -0.19350478075E+03  0.12557391662E+03  0.33549433279E+03  0.90107801108E+02 0.  0.
          4    1    3    3  502    0 -0.17968709991E+03 -0.47119827537E+02 -0.60061333643E+03  0.62868442952E+03  0.00000000000E+00 0. -1.
         -1    1    3    3    0  502 -0.18981722923E+01 -0.86233426468E+01 -0.35256900000E+01  0.95076593560E+01  0.00000000000E+00 0.  1.
         13    1    5    5    0    0 -0.94253724661E+02 -0.10796186369E+03  0.17012127135E+02  0.14432235133E+03  0.00000000000E+00 0.  1.
        -13    1    5    5    0    0 -0.13207374341E+03 -0.85542917057E+02  0.10856178949E+03  0.19117198145E+03  0.00000000000E+00 0. -1.
          2    1    4    4  503    0  0.25413014737E+03  0.77913392894E+02  0.46811093234E+03  0.53831261696E+03  0.00000000000E+00 0. -1.
         -2    1    4    4    0  503  0.15378259290E+03  0.17133455804E+03  0.67286636955E+03  0.71116367169E+03  0.00000000000E+00 0.  1.
<mgrwt>
<rscale>  0 0.21221834E+04</rscale>
<asrwt>0</asrwt>
<pdfrwt beam="1">  1        2 0.12005773E+00 0.21221834E+04</pdfrwt>
<pdfrwt beam="2">  1       -1 0.22196730E+00 0.21221834E+04</pdfrwt>
<totfact> 0.39892855E+00</totfact>
</mgrwt>
</event>
<event>
12    7  0.1497947E-008  0.3241729E+04  0.7818608E-02  0.8177883E-01
         -1   -1    0    0    0  501 -0.00000000000E+00  0.00000000000E+00  0.14354135472E+04  0.14354135472E+04  0.00000000000E+00 0.  1.
          2   -1    0    0  501    0  0.00000000000E+00 -0.00000000000E+00 -0.18302750199E+04  0.18302750199E+04  0.00000000000E+00 0. -1.
         24    2    1    2    0    0  0.50366906250E+03 -0.17251879957E+03  0.12238072079E+04  0.13370373426E+04  0.80743500234E+02 0.  0.
        254    2    1    2    0    0 -0.50366906250E+03  0.17251879957E+03 -0.16186686806E+04  0.19286512245E+04  0.90341684035E+03 0.  0.
         23    2    4    4    0    0 -0.52666828739E+03  0.25279330442E+03 -0.16927564116E+04  0.17932629853E+04  0.95309631405E+02 0.  0.
         23    2    4    4    0    0  0.22999224888E+02 -0.80274504846E+02  0.74087730957E+02  0.13538823919E+03  0.76603021873E+02 0.  0.
          4    1    3    3  502    0  0.17778406802E+03 -0.20761371330E+02  0.40438715134E+03  0.44222977913E+03  0.00000000000E+00 0. -1.
         -3    1    3    3    0  502  0.32588499448E+03 -0.15175742824E+03  0.81942005651E+03  0.89480756348E+03  0.00000000000E+00 0.  1.
         13    1    5    5    0    0 -0.17574341273E+03  0.11992695430E+03 -0.51653729982E+03  0.55864031684E+03  0.00000000000E+00 0. -1.
        -13    1    5    5    0    0 -0.35092487465E+03  0.13286635011E+03 -0.11762191118E+04  0.12346226685E+04  0.00000000000E+00 0.  1.
          3    1    6    6  503    0  0.43578944068E+02 -0.35792693700E+02  0.14489352539E+02  0.58225274798E+02  0.00000000000E+00 0. -1.
         -3    1    6    6    0  503 -0.20579719179E+02 -0.44481811146E+02  0.59598378418E+02  0.77162964396E+02  0.00000000000E+00 0.  1.
<mgrwt>
<rscale>  0 0.32417289E+04</rscale>
<asrwt>0</asrwt>
<pdfrwt beam="1">  1        2 0.28158077E+00 0.32417289E+04</pdfrwt>
<pdfrwt beam="2">  1       -1 0.22083286E+00 0.32417289E+04</pdfrwt>
<totfact> 0.86118522E-01</totfact>
</mgrwt>
</event>
<event>
12    7  0.1497947E-008  0.1332864E+04  0.7818608E-02  0.9003902E-01
         -1   -1    0    0    0  501 -0.00000000000E+00  0.00000000000E+00  0.77699549555E+03  0.77699549555E+03  0.00000000000E+00 0.  1.
          2   -1    0    0  501    0  0.00000000000E+00 -0.00000000000E+00 -0.57160149702E+03  0.57160149702E+03  0.00000000000E+00 0. -1.
         24    2    1    2    0    0  0.10880930196E+03  0.83146326231E+02  0.38794080796E+03  0.41914322019E+03  0.80188482899E+02 0.  0.
        254    2    1    2    0    0 -0.10880930196E+03 -0.83146326231E+02 -0.18254680943E+03  0.92945377238E+03  0.90100399644E+03 0.  0.
         23    2    4    4    0    0 -0.41401984732E+03 -0.23948509260E+03  0.75720025730E+02  0.49305545707E+03  0.92761079629E+02 0.  0.
         23    2    4    4    0    0  0.30521054535E+03  0.15633876637E+03 -0.25826683516E+03  0.43639831531E+03  0.78399264020E+02 0.  0.
          4    1    3    3  502    0 -0.48731615540E+01 -0.77703852515E+01  0.76462437489E+01  0.11941173894E+02  0.00000000000E+00 0. -1.
         -3    1    3    3    0  502  0.11368246352E+03  0.90916711482E+02  0.38029456421E+03  0.40720204629E+03  0.00000000000E+00 0.  1.
         13    1    5    5    0    0 -0.36381943438E+03 -0.17474600129E+03  0.78110310494E+02  0.41109848748E+03  0.00000000000E+00 0. -1.
        -13    1    5    5    0    0 -0.50200412936E+02 -0.64739091312E+02 -0.23902847640E+01  0.81956969588E+02  0.00000000000E+00 0.  1.
          2    1    6    6  503    0  0.20952659464E+03  0.65717687552E+02 -0.17130564810E+03  0.27850643330E+03  0.00000000000E+00 0. -1.
         -2    1    6    6    0  503  0.95683950711E+02  0.90621078820E+02 -0.86961187063E+02  0.15789188201E+03  0.00000000000E+00 0.  1.
<mgrwt>
<rscale>  0 0.13328643E+04</rscale>
<asrwt>0</asrwt>
<pdfrwt beam="1">  1        2 0.87938692E-01 0.13328643E+04</pdfrwt>
<pdfrwt beam="2">  1       -1 0.11953777E+00 0.13328643E+04</pdfrwt>
<totfact> 0.36745606E+01</totfact>
</mgrwt>
</event>
<event>
11    7  0.1497947E-008  0.1353983E+04  0.7818608E-02  0.8987818E-01
         -1   -1    0    0    0  501 -0.00000000000E+00  0.00000000000E+00  0.17573007025E+03  0.17573007025E+03  0.00000000000E+00 0.  1.
          2   -1    0    0  501    0  0.00000000000E+00 -0.00000000000E+00 -0.26080784346E+04  0.26080784346E+04  0.00000000000E+00 0. -1.
         24    2    1    2    0    0  0.16019925041E+03  0.17465969779E+03 -0.11768996454E+04  0.12029508264E+04  0.76342030296E+02 0.  0.
        254    2    1    2    0    0 -0.16019925041E+03 -0.17465969779E+03 -0.12554487190E+04  0.15808576785E+04  0.93101541538E+03 0.  0.
         23    2    4    4    0    0  0.31232573791E+03 -0.77539430676E+02 -0.90116633201E+03  0.96116462384E+03  0.90426469000E+02 0.  0.
          4    1    3    3  502    0  0.16802054960E+03  0.17224021361E+03 -0.11457177059E+04  0.11707120303E+04  0.00000000000E+00 0. -1.
         -3    1    3    3    0  502 -0.78212991871E+01  0.24194841782E+01 -0.31181939422E+02  0.32238796050E+02  0.00000000000E+00 0.  1.
         13    1    5    5    0    0  0.15005618427E+02 -0.14536006221E+02 -0.19473094813E+02  0.28559857893E+02  0.00000000000E+00 0.  1.
        -13    1    5    5    0    0  0.29732011949E+03 -0.63003424455E+02 -0.88169323720E+03  0.93260476595E+03  0.00000000000E+00 0. -1.
          1    1    4    4  503    0 -0.13995002595E+03  0.21954432729E+02 -0.16992759228E+03  0.22123153821E+03  0.00000000000E+00 0. -1.
         -1    1    4    4    0  503 -0.33257496238E+03 -0.11907469984E+03 -0.18435479473E+03  0.39846151644E+03  0.00000000000E+00 0.  1.
<mgrwt>
<rscale>  0 0.13539835E+04</rscale>
<asrwt>0</asrwt>
<pdfrwt beam="1">  1        2 0.40124281E+00 0.13539835E+04</pdfrwt>
<pdfrwt beam="2">  1       -1 0.27035397E-01 0.13539835E+04</pdfrwt>
<totfact> 0.41180937E+01</totfact>
</mgrwt>
</event>
<event>
11    7  0.1497947E-008  0.1254127E+04  0.7818608E-02  0.9066755E-01
         -1   -1    0    0    0  501 -0.00000000000E+00  0.00000000000E+00  0.20265483407E+03  0.20265483407E+03  0.00000000000E+00 0.  1.
          2   -1    0    0  501    0  0.00000000000E+00 -0.00000000000E+00 -0.19402869340E+04  0.19402869340E+04  0.00000000000E+00 0. -1.
         24    2    1    2    0    0  0.21091630381E+03 -0.19075217385E+03 -0.48638466554E+03  0.56888346796E+03  0.78652896998E+02 0.  0.
        254    2    1    2    0    0 -0.21091630381E+03  0.19075217385E+03 -0.12512474344E+04  0.15740583001E+04  0.91168377795E+03 0.  0.
         23    2    4    4    0    0 -0.19678331855E+03  0.53503251330E+03 -0.73486080083E+03  0.93455497599E+03  0.91592258439E+02 0.  0.
          4    1    3    3  502    0  0.16593067277E+03 -0.11272510914E+03 -0.37827108685E+03  0.42816930476E+03  0.00000000000E+00 0. -1.
         -3    1    3    3    0  502  0.44985631038E+02 -0.78027064706E+02 -0.10811357870E+03  0.14071416320E+03  0.00000000000E+00 0.  1.
         13    1    5    5    0    0 -0.18376841112E+03  0.38310825359E+03 -0.54035475253E+03  0.68740528182E+03  0.00000000000E+00 0. -1.
        -13    1    5    5    0    0 -0.13014907439E+02  0.15192425971E+03 -0.19450604830E+03  0.24714969417E+03  0.00000000000E+00 0.  1.
          3    1    4    4  503    0 -0.63849077094E+02 -0.29688198848E+03 -0.45704146556E+03  0.54872809384E+03  0.00000000000E+00 0. -1.
         -3    1    4    4    0  503  0.49716091837E+02 -0.47398350974E+02 -0.59345167963E+02  0.90775230228E+02  0.00000000000E+00 0.  1.
<mgrwt>
<rscale>  0 0.12541268E+04</rscale>
<asrwt>0</asrwt>
<pdfrwt beam="1">  1        2 0.29850567E+00 0.12541268E+04</pdfrwt>
<pdfrwt beam="2">  1       -1 0.31177668E-01 0.12541268E+04</pdfrwt>
<totfact> 0.77075881E+01</totfact>
</mgrwt>
</event>
<event>
12    7  0.2221304E-008  0.3104759E+04  0.7818608E-02  0.8214433E-01
          2   -1    0    0  501    0  0.00000000000E+00  0.00000000000E+00  0.27573811448E+04  0.27573811448E+04  0.00000000000E+00 0. -1.
         -1   -1    0    0    0  501 -0.00000000000E+00 -0.00000000000E+00 -0.87397515589E+03  0.87397515589E+03  0.00000000000E+00 0.  1.
         24    2    1    2    0    0 -0.36043227151E+03 -0.39026514688E+03 -0.67603304316E+03  0.86510103704E+03  0.95712181174E+02 0.  0.
        254    2    1    2    0    0  0.36043227151E+03  0.39026514688E+03  0.25594390321E+04  0.27662552636E+04  0.90510867722E+03 0.  0.
         23    2    4    4    0    0  0.28783495769E+01 -0.22422880225E+03  0.12474496955E+04  0.12702302003E+04  0.84066512249E+02 0.  0.
         23    2    4    4    0    0  0.35755392193E+03  0.61449394913E+03  0.13119893366E+04  0.14960250633E+04  0.10643002435E+03 0.  0.
          2    1    3    3  502    0 -0.26103504317E+01 -0.49135807063E+01 -0.37464813422E+02  0.37875710548E+02  0.00000000000E+00 0. -1.
         -1    1    3    3    0  502 -0.35782192108E+03 -0.38535156617E+03 -0.63856822974E+03  0.82722532649E+03  0.00000000000E+00 0.  1.
         13    1    5    5    0    0 -0.11569738902E+02  0.22769964990E+01  0.43284727431E+02  0.44862135483E+02  0.00000000000E+00 0. -1.
        -13    1    5    5    0    0  0.14448088479E+02 -0.22650579875E+03  0.12041649680E+04  0.12253680648E+04  0.00000000000E+00 0.  1.
          3    1    6    6  503    0  0.11658070788E+02  0.88701959244E+02  0.15812354012E+03  0.18167829295E+03  0.00000000000E+00 0. -1.
         -3    1    6    6    0  503  0.34589585114E+03  0.52579198989E+03  0.11538657965E+04  0.13143467704E+04  0.00000000000E+00 0.  1.
<mgrwt>
<rscale>  0 0.31047593E+04</rscale>
<asrwt>0</asrwt>
<pdfrwt beam="1">  1        2 0.42421248E+00 0.31047593E+04</pdfrwt>
<pdfrwt beam="2">  1       -1 0.13445772E+00 0.31047593E+04</pdfrwt>
<totfact> 0.11006598E+00</totfact>
</mgrwt>
</event>
<event>
12    7  0.1497947E-008  0.1161741E+04  0.7818608E-02  0.9147019E-01
         -1   -1    0    0    0  501 -0.00000000000E+00  0.00000000000E+00  0.42517051950E+03  0.42517051950E+03  0.00000000000E+00 0.  1.
          2   -1    0    0  501    0  0.00000000000E+00 -0.00000000000E+00 -0.79358939159E+03  0.79358939159E+03  0.00000000000E+00 0. -1.
         24    2    1    2    0    0 -0.76933393645E+02 -0.12240654241E+03 -0.16153205844E+03  0.23062249366E+03  0.78689389358E+02 0.  0.
        254    2    1    2    0    0  0.76933393645E+02  0.12240654241E+03 -0.20688681365E+03  0.98813741743E+03  0.95535924834E+03 0.  0.
         23    2    4    4    0    0 -0.32239914322E+03 -0.17810936689E+03 -0.29031151490E+03  0.47773912239E+03  0.91048005245E+02 0.  0.
         23    2    4    4    0    0  0.39933253686E+03  0.30051590930E+03  0.83424701252E+02  0.51039829504E+03  0.61404006887E+02 0.  0.
          4    1    3    3  502    0 -0.76012817168E+02 -0.13176128788E+03 -0.16055545114E+03  0.22117196533E+03  0.00000000000E+00 0. -1.
         -3    1    3    3    0  502 -0.92057647709E+00  0.93547454711E+01 -0.97660729424E+00  0.94505283285E+01  0.00000000000E+00 0.  1.
         13    1    5    5    0    0 -0.29962566537E+03 -0.17877789177E+03 -0.29188732907E+03  0.45490140339E+03  0.00000000000E+00 0. -1.
        -13    1    5    5    0    0 -0.22773477851E+02  0.66852488203E+00  0.15758141720E+01  0.22837719003E+02  0.00000000000E+00 0.  1.
          3    1    6    6  503    0  0.34069828280E+03  0.25551011003E+03  0.92894799781E+02  0.43587862996E+03  0.00000000000E+00 0. -1.
         -3    1    6    6    0  503  0.58634254065E+02  0.45005799269E+02 -0.94700985289E+01  0.74519665080E+02  0.00000000000E+00 0.  1.
<mgrwt>
<rscale>  0 0.11617415E+04</rscale>
<asrwt>0</asrwt>
<pdfrwt beam="1">  1        2 0.12209068E+00 0.11617415E+04</pdfrwt>
<pdfrwt beam="2">  1       -1 0.65410849E-01 0.11617415E+04</pdfrwt>
<totfact> 0.93173885E+01</totfact>
</mgrwt>
</event>
<event>
12    7  0.1497947E-008  0.2467708E+04  0.7818608E-02  0.8414581E-01
          2   -1    0    0  501    0  0.00000000000E+00  0.00000000000E+00  0.13266139871E+04  0.13266139871E+04  0.00000000000E+00 0. -1.
         -1   -1    0    0    0  501 -0.00000000000E+00 -0.00000000000E+00 -0.11475799115E+04  0.11475799115E+04  0.00000000000E+00 0.  1.
         24    2    1    2    0    0  0.69379295769E+02  0.83567318104E+03  0.73269590039E+03  0.11175412107E+04  0.94296993761E+02 0.  0.
        254    2    1    2    0    0 -0.69379295769E+02 -0.83567318104E+03 -0.55366182481E+03  0.13566526879E+04  0.91148337727E+03 0.  0.
         23    2    4    4    0    0  0.37649087678E+03 -0.22297154845E+03 -0.34136877849E+03  0.56273860613E+03  0.93168686741E+02 0.  0.
         23    2    4    4    0    0 -0.44587017255E+03 -0.61270163259E+03 -0.21229304632E+03  0.79391408172E+03  0.10501300062E+03 0.  0.
          2    1    3    3  502    0  0.44442859210E+02  0.58049400604E+03  0.56429926400E+03  0.81079104468E+03  0.00000000000E+00 0. -1.
         -3    1    3    3    0  502  0.24936436559E+02  0.25517917499E+03  0.16839663639E+03  0.30675016604E+03  0.00000000000E+00 0.  1.
         13    1    5    5    0    0  0.15168086330E+02  0.90503441701E+01 -0.17762940106E+02  0.25049982310E+02  0.00000000000E+00 0. -1.
        -13    1    5    5    0    0  0.36132279045E+03 -0.23202189262E+03 -0.32360583838E+03  0.53768862382E+03  0.00000000000E+00 0.  1.
          1    1    6    6  503    0 -0.12376199068E+03 -0.23369336686E+03 -0.10833129055E+03  0.28577139214E+03  0.00000000000E+00 0. -1.
         -1    1    6    6    0  503 -0.32210818188E+03 -0.37900826572E+03 -0.10396175577E+03  0.50814268958E+03  0.00000000000E+00 0.  1.
<mgrwt>
<rscale>  0 0.24677079E+04</rscale>
<asrwt>0</asrwt>
<pdfrwt beam="1">  1        2 0.20409446E+00 0.24677079E+04</pdfrwt>
<pdfrwt beam="2">  1       -1 0.17655075E+00 0.24677079E+04</pdfrwt>
<totfact> 0.35824443E+00</totfact>
</mgrwt>
</event>
<event>
11    7  0.1497947E-008  0.1254877E+04  0.7818608E-02  0.9066134E-01
         -1   -1    0    0    0  501 -0.00000000000E+00  0.00000000000E+00  0.47097752919E+03  0.47097752919E+03  0.00000000000E+00 0.  1.
          2   -1    0    0  501    0  0.00000000000E+00 -0.00000000000E+00 -0.83587664640E+03  0.83587664640E+03  0.00000000000E+00 0. -1.
         24    2    1    2    0    0  0.60268096128E+02  0.17406803513E+03  0.15884278478E+03  0.25566934281E+03  0.78764575221E+02 0.  0.
        254    2    1    2    0    0 -0.60268096128E+02 -0.17406803513E+03 -0.52374190199E+03  0.10511848328E+04  0.89260968430E+03 0.  0.
         23    2    4    4    0    0  0.27065984252E+02 -0.37033514584E+03  0.87164768663E+02  0.39094551961E+03  0.85790527808E+02 0.  0.
          4    1    3    3  502    0  0.23861108614E+01 -0.78205174734E+01  0.15236001844E+01  0.83171735654E+01  0.00000000000E+00 0. -1.
         -3    1    3    3    0  502  0.57881985267E+02  0.18188855261E+03  0.15731918460E+03  0.24735216925E+03  0.00000000000E+00 0.  1.
         13    1    5    5    0    0 -0.17621694339E+02 -0.18125110641E+03  0.72813764964E+02  0.19612325730E+03  0.00000000000E+00 0. -1.
        -13    1    5    5    0    0  0.44687678591E+02 -0.18908403943E+03  0.14351003699E+02  0.19482226231E+03  0.00000000000E+00 0.  1.
          2    1    4    4  503    0 -0.24007735009E+02  0.41657605091E+02 -0.32936359553E+03  0.33285448092E+03  0.00000000000E+00 0. -1.
         -2    1    4    4    0  503 -0.63326345371E+02  0.15460950561E+03 -0.28154307512E+03  0.32738483226E+03  0.00000000000E+00 0.  1.
<mgrwt>
<rscale>  0 0.12548771E+04</rscale>
<asrwt>0</asrwt>
<pdfrwt beam="1">  1        2 0.12859641E+00 0.12548771E+04</pdfrwt>
<pdfrwt beam="2">  1       -1 0.72458082E-01 0.12548771E+04</pdfrwt>
<totfact> 0.70036275E+01</totfact>
</mgrwt>
</event>
<event>
12    7  0.1497947E-008  0.1527228E+04  0.7818608E-02  0.8866546E-01
          2   -1    0    0  501    0  0.00000000000E+00  0.00000000000E+00  0.16350308769E+04  0.16350308769E+04  0.00000000000E+00 0. -1.
         -1   -1    0    0    0  501 -0.00000000000E+00 -0.00000000000E+00 -0.35663309499E+03  0.35663309499E+03  0.00000000000E+00 0.  1.
         24    2    1    2    0    0  0.49035801174E+03 -0.10928155395E+02  0.31232312451E+03  0.58643200332E+03  0.76068102144E+02 0.  0.
        254    2    1    2    0    0 -0.49035801174E+03  0.10928155395E+02  0.96607465741E+03  0.14052319686E+04  0.89487777801E+03 0.  0.
         23    2    4    4    0    0 -0.33361232628E+02  0.39473947150E+03  0.50272428539E+03  0.64675573386E+03  0.92892679805E+02 0.  0.
         23    2    4    4    0    0 -0.45699677911E+03 -0.38381131611E+03  0.46335037203E+03  0.75847623473E+03  0.66599165891E+02 0.  0.
          4    1    3    3  502    0  0.46860002031E+03 -0.10252006496E+02  0.31466219467E+03  0.56453820014E+03  0.00000000000E+00 0. -1.
         -3    1    3    3    0  502  0.21757991432E+02 -0.67614889899E+00 -0.23390701598E+01  0.21893803180E+02  0.00000000000E+00 0.  1.
         13    1    5    5    0    0  0.20453725794E+02  0.58843602800E+02  0.46853909882E+02  0.77950069663E+02  0.00000000000E+00 0.  1.
        -13    1    5    5    0    0 -0.53814958421E+02  0.33589586870E+03  0.45587037551E+03  0.56880566420E+03  0.00000000000E+00 0. -1.
          1    1    6    6  503    0 -0.31085689504E+02 -0.45184491383E+02  0.59058793492E+02  0.80597142891E+02  0.00000000000E+00 0.  1.
         -1    1    6    6    0  503 -0.42591108961E+03 -0.33862682472E+03  0.40429157853E+03  0.67787909183E+03  0.00000000000E+00 0. -1.
<mgrwt>
<rscale>  0 0.15272277E+04</rscale>
<asrwt>0</asrwt>
<pdfrwt beam="1">  1        2 0.25154321E+00 0.15272277E+04</pdfrwt>
<pdfrwt beam="2">  1       -1 0.54866631E-01 0.15272277E+04</pdfrwt>
<totfact> 0.39308178E+01</totfact>
</mgrwt>
</event>
<event>
12    7  0.1497947E-008  0.1521189E+04  0.7818608E-02  0.8870484E-01
         -1   -1    0    0    0  501 -0.00000000000E+00  0.00000000000E+00  0.33008243110E+03  0.33008243110E+03  0.00000000000E+00 0.  1.
          2   -1    0    0  501    0  0.00000000000E+00 -0.00000000000E+00 -0.17526035052E+04  0.17526035052E+04  0.00000000000E+00 0. -1.
         24    2    1    2    0    0 -0.29916842678E+03 -0.33723400820E+03 -0.78963736017E+03  0.91269562298E+03  0.79105093170E+02 0.  0.
        254    2    1    2    0    0  0.29916842678E+03  0.33723400820E+03 -0.63288371396E+03  0.11699903133E+04  0.87470395795E+03 0.  0.
         23    2    4    4    0    0 -0.44289300990E+02  0.55103768253E+03 -0.42485392821E+03  0.70303608938E+03  0.90304002745E+02 0.  0.
         23    2    4    4    0    0  0.34345772777E+03 -0.21380367432E+03 -0.20802978575E+03  0.46695422396E+03  0.10533106663E+03 0.  0.
          2    1    3    3  502    0 -0.18506550925E+03 -0.20425423108E+03 -0.55686552881E+03  0.62134390703E+03  0.00000000000E+00 0. -1.
         -1    1    3    3    0  502 -0.11410291753E+03 -0.13297977713E+03 -0.23277183136E+03  0.29135171595E+03  0.00000000000E+00 0.  1.
         13    1    5    5    0    0 -0.43746786034E+02  0.30684533973E+03 -0.18613572540E+03  0.36154439848E+03  0.00000000000E+00 0.  1.
        -13    1    5    5    0    0 -0.54251495632E+00  0.24419234280E+03 -0.23871820281E+03  0.34149169091E+03  0.00000000000E+00 0. -1.
          2    1    6    6  503    0  0.14037744686E+03 -0.54540830253E+02 -0.30363912021E+02  0.15363104147E+03  0.00000000000E+00 0. -1.
         -2    1    6    6    0  503  0.20308028092E+03 -0.15926284407E+03 -0.17766587373E+03  0.31332318249E+03  0.00000000000E+00 0.  1.
<mgrwt>
<rscale>  0 0.15211885E+04</rscale>
<asrwt>0</asrwt>
<pdfrwt beam="1">  1        2 0.26963130E+00 0.15211885E+04</pdfrwt>
<pdfrwt beam="2">  1       -1 0.50781913E-01 0.15211885E+04</pdfrwt>
<totfact> 0.39258615E+01</totfact>
</mgrwt>
</event>
<event>
12    7  0.1558196E-008  0.4303925E+04  0.7818608E-02  0.7945893E-01
         -1   -1    0    0    0  501 -0.00000000000E+00  0.00000000000E+00  0.21311031015E+04  0.21311031015E+04  0.00000000000E+00 0.  1.
          2   -1    0    0  501    0  0.00000000000E+00 -0.00000000000E+00 -0.21730256942E+04  0.21730256942E+04  0.00000000000E+00 0. -1.
         24    2    1    2    0    0 -0.11349691486E+04  0.12221671349E+04 -0.12228458770E+04  0.20695999061E+04  0.77744830250E+02 0.  0.
        254    2    1    2    0    0  0.11349691486E+04 -0.12221671349E+04  0.11809232842E+04  0.22345288895E+04  0.90371017535E+03 0.  0.
         23    2    4    4    0    0  0.81563533171E+03 -0.91518091649E+03  0.12736328735E+04  0.17700413762E+04  0.89937049988E+02 0.  0.
         23    2    4    4    0    0  0.31933381694E+03 -0.30698621839E+03 -0.92709589238E+02  0.46448751332E+03  0.10458946968E+03 0.  0.
          2    1    3    3  502    0 -0.10291275334E+04  0.11310034498E+04 -0.11384506096E+04  0.19063950467E+04  0.00000000000E+00 0. -1.
         -1    1    3    3    0  502 -0.10584161522E+03  0.91163685094E+02 -0.84395267364E+02  0.16320485944E+03  0.00000000000E+00 0.  1.
         13    1    5    5    0    0  0.35917608544E+01  0.11790331811E+01  0.71970901987E+00  0.38482263903E+01  0.00000000000E+00 0.  1.
        -13    1    5    5    0    0  0.81204357085E+03 -0.91635994967E+03  0.12729131644E+04  0.17661931498E+04  0.00000000000E+00 0. -1.
          1    1    6    6  503    0  0.29620796181E+03 -0.31009401341E+03 -0.75344463805E+02  0.43540124256E+03  0.00000000000E+00 0. -1.
         -1    1    6    6    0  503  0.23125855124E+02  0.31077950251E+01 -0.17365125433E+02  0.29086270755E+02  0.00000000000E+00 0.  1.
<mgrwt>
<rscale>  0 0.43039246E+04</rscale>
<asrwt>0</asrwt>
<pdfrwt beam="1">  1        2 0.33431164E+00 0.43039246E+04</pdfrwt>
<pdfrwt beam="2">  1       -1 0.32786202E+00 0.43039246E+04</pdfrwt>
<totfact> 0.10180839E-01</totfact>
</mgrwt>
</event>
<event>
12    7  0.1497947E-008  0.2180709E+04  0.7818608E-02  0.8526501E-01
          2   -1    0    0  501    0  0.00000000000E+00  0.00000000000E+00  0.12413301017E+04  0.12413301017E+04  0.00000000000E+00 0. -1.
         -1   -1    0    0    0  501 -0.00000000000E+00 -0.00000000000E+00 -0.95774115396E+03  0.95774115396E+03  0.00000000000E+00 0.  1.
         24    2    1    2    0    0 -0.69571868901E+03  0.39194771424E+03 -0.23442723021E+03  0.83608259715E+03  0.80190261651E+02 0.  0.
        254    2    1    2    0    0  0.69571868901E+03 -0.39194771424E+03  0.51801617795E+03  0.13629886585E+04  0.97557665908E+03 0.  0.
         23    2    4    4    0    0  0.14503456652E+03  0.28429041899E+03  0.32394657502E+03  0.46353599339E+03  0.89822969705E+02 0.  0.
         23    2    4    4    0    0  0.55068412249E+03 -0.67623813323E+03  0.19406960293E+03  0.89945266513E+03  0.10392819853E+03 0.  0.
          4    1    3    3  502    0 -0.36026027407E+02  0.41344074502E+02 -0.24598113485E+02  0.60102199079E+02  0.00000000000E+00 0. -1.
         -3    1    3    3    0  502 -0.65969266160E+03  0.35060363973E+03 -0.20982911672E+03  0.77598039807E+03  0.00000000000E+00 0.  1.
         13    1    5    5    0    0  0.92865332446E+02  0.15085815561E+03  0.23720601562E+03  0.29605547949E+03  0.00000000000E+00 0.  1.
        -13    1    5    5    0    0  0.52169234073E+02  0.13343226338E+03  0.86740559400E+02  0.16748051391E+03  0.00000000000E+00 0. -1.
          2    1    6    6  503    0  0.36349680111E+03 -0.44893216770E+03  0.17845048422E+03  0.60457802716E+03  0.00000000000E+00 0. -1.
         -2    1    6    6    0  503  0.18718732138E+03 -0.22730596553E+03  0.15619118706E+02  0.29487463797E+03  0.00000000000E+00 0.  1.
<mgrwt>
<rscale>  0 0.21807090E+04</rscale>
<asrwt>0</asrwt>
<pdfrwt beam="1">  1        2 0.19097386E+00 0.21807090E+04</pdfrwt>
<pdfrwt beam="2">  1       -1 0.14734479E+00 0.21807090E+04</pdfrwt>
<totfact> 0.68376329E+00</totfact>
</mgrwt>
</event>
<event>
11    7  0.1497947E-008  0.1595842E+04  0.7818608E-02  0.8823106E-01
         -1   -1    0    0    0  501 -0.00000000000E+00  0.00000000000E+00  0.61325685585E+03  0.61325685585E+03  0.00000000000E+00 0.  1.
          2   -1    0    0  501    0  0.00000000000E+00 -0.00000000000E+00 -0.10381914265E+04  0.10381914265E+04  0.00000000000E+00 0. -1.
         24    2    1    2    0    0  0.47946333740E+01  0.52846685146E+03 -0.26913601747E+03  0.59780862787E+03  0.75104980262E+02 0.  0.
        254    2    1    2    0    0 -0.47946333740E+01 -0.52846685146E+03 -0.15579855322E+03  0.10536396545E+04  0.89809973321E+03 0.  0.
         23    2    4    4    0    0  0.22768732699E+03 -0.15352503881E+03 -0.44032993218E+03  0.52683817879E+03  0.90865620791E+02 0.  0.
          4    1    3    3  502    0  0.89972718426E+01  0.24798428327E+03 -0.16777953970E+03  0.29954487075E+03  0.00000000000E+00 0. -1.
         -3    1    3    3    0  502 -0.42026384686E+01  0.28048256819E+03 -0.10135647776E+03  0.29826375712E+03  0.00000000000E+00 0.  1.
         13    1    5    5    0    0  0.22724146763E+03 -0.14620960965E+03 -0.44310856047E+03  0.51900012614E+03  0.00000000000E+00 0. -1.
        -13    1    5    5    0    0  0.44585936395E+00 -0.73154291565E+01  0.27786282868E+01  0.78380526582E+01  0.00000000000E+00 0.  1.
          1    1    4    4  503    0 -0.18277386433E+03 -0.29633714388E+03  0.20240707539E+03  0.40272895661E+03  0.00000000000E+00 0. -1.
         -1    1    4    4    0  503 -0.49708096033E+02 -0.78604668770E+02  0.82124303567E+02  0.12407251912E+03  0.00000000000E+00 0.  1.
<mgrwt>
<rscale>  0 0.15958421E+04</rscale>
<asrwt>0</asrwt>
<pdfrwt beam="1">  1        2 0.15972176E+00 0.15958421E+04</pdfrwt>
<pdfrwt beam="2">  1       -1 0.94347209E-01 0.15958421E+04</pdfrwt>
<totfact> 0.28344643E+01</totfact>
</mgrwt>
</event>
<event>
12    7  0.1497947E-008  0.1367314E+04  0.7818608E-02  0.8977824E-01
          2   -1    0    0  501    0  0.00000000000E+00  0.00000000000E+00  0.27254659958E+04  0.27254659958E+04  0.00000000000E+00 0. -1.
         -1   -1    0    0    0  501 -0.00000000000E+00 -0.00000000000E+00 -0.17148876330E+03  0.17148876330E+03  0.00000000000E+00 0.  1.
         24    2    1    2    0    0 -0.52804768332E+02 -0.33686033615E+03  0.34398413187E+03  0.49079456314E+03  0.79315765118E+02 0.  0.
        254    2    1    2    0    0  0.52804768332E+02  0.33686033615E+03  0.22099931006E+04  0.24061601960E+04  0.88841102770E+03 0.  0.
         23    2    4    4    0    0 -0.40328651223E+03  0.14909749296E+03  0.90731220779E+03  0.10081130678E+04  0.90589413073E+02 0.  0.
         23    2    4    4    0    0  0.45609128056E+03  0.18776284320E+03  0.13026808928E+04  0.13980471281E+04  0.11951620154E+03 0.  0.
          4    1    3    3  502    0  0.32044423763E+01 -0.84811281531E+02  0.13099160400E+03  0.15608338234E+03  0.00000000000E+00 0. -1.
         -3    1    3    3    0  502 -0.56009210709E+02 -0.25204905462E+03  0.21299252788E+03  0.33471118080E+03  0.00000000000E+00 0.  1.
         13    1    5    5    0    0 -0.39956266583E+03  0.13461824339E+03  0.84922353831E+03  0.94813132709E+03  0.00000000000E+00 0. -1.
        -13    1    5    5    0    0 -0.37238463953E+01  0.14479249570E+02  0.58088669482E+02  0.59981740741E+02  0.00000000000E+00 0.  1.
          1    1    6    6  503    0  0.22530592004E+03  0.14676817969E+03  0.60559560735E+03  0.66260825215E+03  0.00000000000E+00 0. -1.
         -1    1    6    6    0  503  0.23078536052E+03  0.40994663507E+02  0.69708528548E+03  0.73543887598E+03  0.00000000000E+00 0.  1.
<mgrwt>
<rscale>  0 0.13673139E+04</rscale>
<asrwt>0</asrwt>
<pdfrwt beam="1">  1        2 0.41930243E+00 0.13673139E+04</pdfrwt>
<pdfrwt beam="2">  1       -1 0.26382889E-01 0.13673139E+04</pdfrwt>
<totfact> 0.36599639E+01</totfact>
</mgrwt>
</event>
<event>
11    7  0.1497947E-008  0.1635158E+04  0.7818608E-02  0.8799235E-01
          2   -1    0    0  501    0  0.00000000000E+00  0.00000000000E+00  0.13795050668E+04  0.13795050668E+04  0.00000000000E+00 0. -1.
         -1   -1    0    0    0  501 -0.00000000000E+00 -0.00000000000E+00 -0.48454756692E+03  0.48454756692E+03  0.00000000000E+00 0.  1.
         24    2    1    2    0    0  0.58586442634E+02  0.33067138688E+03  0.83362157695E+03  0.90221826124E+03  0.79353134832E+02 0.  0.
        254    2    1    2    0    0 -0.58586442634E+02 -0.33067138688E+03  0.61335922958E+02  0.96183437250E+03  0.89921483935E+03 0.  0.
         23    2    4    4    0    0  0.37675036880E+02 -0.25414812690E+03 -0.38664094767E+03  0.47326944783E+03  0.92098148859E+02 0.  0.
          4    1    3    3  502    0  0.77435330181E+02  0.24959678213E+03  0.65241039335E+03  0.70280445742E+03  0.00000000000E+00 0. -1.
         -3    1    3    3    0  502 -0.18848887546E+02  0.81074604750E+02  0.18121118360E+03  0.19941380383E+03  0.00000000000E+00 0.  1.
         13    1    5    5    0    0  0.31564529069E+02 -0.15983498575E+03 -0.31512658357E+03  0.35475104769E+03  0.00000000000E+00 0. -1.
        -13    1    5    5    0    0  0.61105078109E+01 -0.94313141146E+02 -0.71514364099E+02  0.11851840014E+03  0.00000000000E+00 0.  1.
          3    1    4    4  503    0 -0.53578217242E+02 -0.10209861536E+03  0.41018143002E+03  0.42607928623E+03  0.00000000000E+00 0. -1.
         -3    1    4    4    0  503 -0.42683262272E+02  0.25575355375E+02  0.37795440602E+02  0.62485638439E+02  0.00000000000E+00 0.  1.
<mgrwt>
<rscale>  0 0.16351585E+04</rscale>
<asrwt>0</asrwt>
<pdfrwt beam="1">  1        2 0.21223155E+00 0.16351585E+04</pdfrwt>
<pdfrwt beam="2">  1       -1 0.74545780E-01 0.16351585E+04</pdfrwt>
<totfact> 0.29347362E+01</totfact>
</mgrwt>
</event>
<event>
11    7  0.1497947E-008  0.1321659E+04  0.7818608E-02  0.9012564E-01
         -1   -1    0    0    0  501 -0.00000000000E+00  0.00000000000E+00  0.96593287863E+03  0.96593287863E+03  0.00000000000E+00 0.  1.
          2   -1    0    0  501    0  0.00000000000E+00 -0.00000000000E+00 -0.45209708604E+03  0.45209708604E+03  0.00000000000E+00 0. -1.
         24    2    1    2    0    0  0.20191503660E+03  0.14832320557E+03 -0.16861026405E+03  0.31284128543E+03  0.81674925226E+02 0.  0.
        254    2    1    2    0    0 -0.20191503660E+03 -0.14832320557E+03  0.68244605664E+03  0.11051886792E+04  0.83243014193E+03 0.  0.
         23    2    4    4    0    0 -0.65664783976E+02  0.26685668275E+03  0.10154246660E+02  0.29099610538E+03  0.95138171292E+02 0.  0.
          2    1    3    3  502    0  0.15823232174E+03  0.82181431836E+02 -0.14590129870E+03  0.23038759590E+03  0.00000000000E+00 0. -1.
         -1    1    3    3    0  502  0.43682714858E+02  0.66141773731E+02 -0.22708965352E+02  0.82453689529E+02  0.00000000000E+00 0.  1.
         13    1    5    5    0    0 -0.32843791340E+02  0.25268387364E+03  0.48592186611E+01  0.25485577614E+03  0.00000000000E+00 0. -1.
        -13    1    5    5    0    0 -0.32820992636E+02  0.14172809110E+02  0.52950279991E+01  0.36140329235E+02  0.00000000000E+00 0.  1.
          2    1    4    4  503    0 -0.11164396899E+03 -0.15012857590E+03  0.34357789130E+03  0.39121443289E+03  0.00000000000E+00 0. -1.
         -2    1    4    4    0  503 -0.24606283638E+02 -0.26505131241E+03  0.32871391869E+03  0.42297814098E+03  0.00000000000E+00 0.  1.
<mgrwt>
<rscale>  0 0.13216587E+04</rscale>
<asrwt>0</asrwt>
<pdfrwt beam="1">  1        2 0.69553398E-01 0.13216587E+04</pdfrwt>
<pdfrwt beam="2">  1       -1 0.14860506E+00 0.13216587E+04</pdfrwt>
<totfact> 0.27713293E+01</totfact>
</mgrwt>
</event>
<event>
11    7  0.1497947E-008  0.2664611E+04  0.7818608E-02  0.8346580E-01
         -1   -1    0    0    0  501 -0.00000000000E+00  0.00000000000E+00  0.85826070206E+03  0.85826070206E+03  0.00000000000E+00 0.  1.
          2   -1    0    0  501    0  0.00000000000E+00 -0.00000000000E+00 -0.20681806122E+04  0.20681806122E+04  0.00000000000E+00 0. -1.
         24    2    1    2    0    0  0.47247000317E+03 -0.66121378854E+03  0.39778131457E+03  0.90828561893E+03  0.79506058134E+02 0.  0.
        254    2    1    2    0    0 -0.47247000317E+03  0.66121378854E+03 -0.16077012247E+04  0.20181556953E+04  0.90984482446E+03 0.  0.
         23    2    4    4    0    0 -0.34207793219E+03  0.13337509706E+02 -0.11422589268E+04  0.11963765626E+04  0.96779247992E+02 0.  0.
          2    1    3    3  502    0  0.61945008723E+02 -0.58286331599E+02  0.22467940583E+02  0.87973228377E+02  0.00000000000E+00 0. -1.
         -1    1    3    3    0  502  0.41052499444E+03 -0.60292745694E+03  0.37531337398E+03  0.82031239055E+03  0.00000000000E+00 0.  1.
         13    1    5    5    0    0 -0.93411232526E+02  0.19864626576E+02 -0.19689014890E+03  0.21882868296E+03  0.00000000000E+00 0. -1.
        -13    1    5    5    0    0 -0.24866669966E+03 -0.65271168699E+01 -0.94536877791E+03  0.97754787965E+03  0.00000000000E+00 0.  1.
          2    1    4    4  503    0  0.22884442273E+01  0.27532305481E+03 -0.13613286701E+03  0.30714846405E+03  0.00000000000E+00 0. -1.
         -2    1    4    4    0  503 -0.13268051521E+03  0.37255322403E+03 -0.32930943085E+03  0.51463066863E+03  0.00000000000E+00 0.  1.
<mgrwt>
<rscale>  0 0.26646111E+04</rscale>
<asrwt>0</asrwt>
<pdfrwt beam="1">  1        2 0.31818163E+00 0.26646111E+04</pdfrwt>
<pdfrwt beam="2">  1       -1 0.13204011E+00 0.26646111E+04</pdfrwt>
<totfact> 0.29867285E+00</totfact>
</mgrwt>
</event>
<event>
11    7  0.1497947E-008  0.2180608E+04  0.7818608E-02  0.8526543E-01
          2   -1    0    0  501    0  0.00000000000E+00  0.00000000000E+00  0.37020082439E+04  0.37020082439E+04  0.00000000000E+00 0. -1.
         -1   -1    0    0    0  501 -0.00000000000E+00 -0.00000000000E+00 -0.32111309169E+03  0.32111309169E+03  0.00000000000E+00 0.  1.
         24    2    1    2    0    0 -0.35996334509E+03  0.74759824656E+03  0.72407425570E+03  0.11037436361E+04  0.74092768325E+02 0.  0.
        254    2    1    2    0    0  0.35996334509E+03 -0.74759824656E+03  0.26568208965E+04  0.29193776995E+04  0.88067708512E+03 0.  0.
         23    2    4    4    0    0 -0.11951528069E+03  0.76784067284E+02  0.87119364665E+03  0.88729148631E+03  0.90156066873E+02 0.  0.
          2    1    3    3  502    0 -0.35040006172E+02  0.64376306144E+02  0.93895931541E+02  0.11911572854E+03  0.00000000000E+00 0. -1.
         -1    1    3    3    0  502 -0.32492333892E+03  0.68322194042E+03  0.63017832416E+03  0.98462790753E+03  0.00000000000E+00 0.  1.
         13    1    5    5    0    0 -0.87739082871E+02  0.89603973268E+02  0.77708152442E+03  0.78713576611E+03  0.00000000000E+00 0. -1.
        -13    1    5    5    0    0 -0.31776197823E+02 -0.12819905984E+02  0.94112122235E+02  0.10015572020E+03  0.00000000000E+00 0.  1.
          1    1    4    4  503    0  0.37776946783E+03 -0.75880155324E+03  0.15252009938E+04  0.17449147944E+04  0.00000000000E+00 0. -1.
         -1    1    4    4    0  503  0.10170915796E+03 -0.65580760605E+02  0.26042625602E+03  0.28717141884E+03  0.00000000000E+00 0.  1.
<mgrwt>
<rscale>  0 0.21806085E+04</rscale>
<asrwt>0</asrwt>
<pdfrwt beam="1">  1        2 0.56953970E+00 0.21806085E+04</pdfrwt>
<pdfrwt beam="2">  1       -1 0.49402017E-01 0.21806085E+04</pdfrwt>
<totfact> 0.25013563E+00</totfact>
</mgrwt>
</event>
<event>
12    7  0.1497947E-008  0.1977264E+04  0.7818608E-02  0.8617325E-01
         -1   -1    0    0    0  501 -0.00000000000E+00  0.00000000000E+00  0.12585745722E+04  0.12585745722E+04  0.00000000000E+00 0.  1.
          2   -1    0    0  501    0  0.00000000000E+00 -0.00000000000E+00 -0.77658738266E+03  0.77658738266E+03  0.00000000000E+00 0. -1.
         24    2    1    2    0    0  0.63322404409E+03 -0.44477322850E+03  0.10489000306E+03  0.78486122545E+03  0.78799211158E+02 0.  0.
        254    2    1    2    0    0 -0.63322404409E+03  0.44477322850E+03  0.37709718653E+03  0.12503007294E+04  0.90678206377E+03 0.  0.
         23    2    4    4    0    0 -0.66683232657E+03  0.42352613676E+03  0.61166841751E+03  0.10030232513E+04  0.88756123491E+02 0.  0.
         23    2    4    4    0    0  0.33608282477E+02  0.21247091735E+02 -0.23457123097E+03  0.24727747812E+03  0.67390898693E+02 0.  0.
          4    1    3    3  502    0  0.26177220431E+03 -0.20088815653E+03  0.80407305495E+01  0.33006876818E+03  0.00000000000E+00 0. -1.
         -3    1    3    3    0  502  0.37145183978E+03 -0.24388507197E+03  0.96849272506E+02  0.45479245727E+03  0.00000000000E+00 0.  1.
         13    1    5    5    0    0 -0.82917191277E+02  0.67842680232E+02  0.50205083014E+02  0.11831500425E+03  0.00000000000E+00 0. -1.
        -13    1    5    5    0    0 -0.58391513529E+03  0.35568345653E+03  0.56146333449E+03  0.88470824708E+03  0.00000000000E+00 0.  1.
          1    1    6    6  503    0  0.20364366586E+02  0.25886967900E+02 -0.38339597221E+02  0.50544705446E+02  0.00000000000E+00 0. -1.
         -1    1    6    6    0  503  0.13243915891E+02 -0.46398761653E+01 -0.19623163375E+03  0.19673277268E+03  0.00000000000E+00 0.  1.
<mgrwt>
<rscale>  0 0.19772639E+04</rscale>
<asrwt>0</asrwt>
<pdfrwt beam="1">  1        2 0.11947498E+00 0.19772639E+04</pdfrwt>
<pdfrwt beam="2">  1       -1 0.19362686E+00 0.19772639E+04</pdfrwt>
<totfact> 0.63427338E+00</totfact>
</mgrwt>
</event>
<event>
11    7  0.1497947E-008  0.1771112E+04  0.7818608E-02  0.8721814E-01
         -1   -1    0    0    0  501 -0.00000000000E+00  0.00000000000E+00  0.71946257942E+03  0.71946257942E+03  0.00000000000E+00 0.  1.
          2   -1    0    0  501    0  0.00000000000E+00 -0.00000000000E+00 -0.10899935206E+04  0.10899935206E+04  0.00000000000E+00 0. -1.
         24    2    1    2    0    0  0.81051073154E+02  0.58988560766E+03  0.13990272874E+03  0.61689090174E+03  0.80295109218E+02 0.  0.
        254    2    1    2    0    0 -0.81051073154E+02 -0.58988560766E+03 -0.51043366989E+03  0.11925651982E+04  0.89840687560E+03 0.  0.
         23    2    4    4    0    0  0.13809925707E+03  0.15784926098E+03 -0.13127077972E+03  0.26335312535E+03  0.90194550977E+02 0.  0.
          2    1    3    3  502    0  0.20602131059E+02  0.11744397822E+03 -0.40907237681E+01  0.11930745930E+03  0.00000000000E+00 0. -1.
         -1    1    3    3    0  502  0.60448942095E+02  0.47244162943E+03  0.14399345251E+03  0.49758344244E+03  0.00000000000E+00 0.  1.
         13    1    5    5    0    0  0.41322273332E+02  0.63181591171E+02 -0.10388116724E+01  0.75501807038E+02  0.00000000000E+00 0. -1.
        -13    1    5    5    0    0  0.96776983740E+02  0.94667669807E+02 -0.13023196805E+03  0.18785131831E+03  0.00000000000E+00 0.  1.
          1    1    4    4  503    0 -0.27895362493E+02 -0.32345608827E+03 -0.32718495002E+03  0.46092513905E+03  0.00000000000E+00 0. -1.
         -1    1    4    4    0  503 -0.19125496773E+03 -0.42427878036E+03 -0.51977940153E+02  0.46828693385E+03  0.00000000000E+00 0.  1.
<mgrwt>
<rscale>  0 0.17711121E+04</rscale>
<asrwt>0</asrwt>
<pdfrwt beam="1">  1        2 0.16769131E+00 0.17711121E+04</pdfrwt>
<pdfrwt beam="2">  1       -1 0.11068655E+00 0.17711121E+04</pdfrwt>
<totfact> 0.17938722E+01</totfact>
</mgrwt>
</event>
<event>
11    7  0.1497947E-008  0.1802745E+04  0.7818608E-02  0.8704841E-01
          2   -1    0    0  501    0  0.00000000000E+00  0.00000000000E+00  0.43270886291E+04  0.43270886291E+04  0.00000000000E+00 0. -1.
         -3   -1    0    0    0  501 -0.00000000000E+00 -0.00000000000E+00 -0.18776414727E+03  0.18776414727E+03  0.00000000000E+00 0.  1.
         24    2    1    2    0    0 -0.71734021057E+02  0.66713218929E+03  0.14544726821E+04  0.16037329505E+04  0.79104146224E+02 0.  0.
        254    2    1    2    0    0  0.71734021057E+02 -0.66713218929E+03  0.26848517997E+04  0.29111198258E+04  0.90331518642E+03 0.  0.
         23    2    4    4    0    0 -0.38620861861E+03 -0.33760841095E+03  0.10817224365E+04  0.12011717399E+04  0.97742431707E+02 0.  0.
          2    1    3    3  502    0 -0.75171484884E+02  0.61679116353E+03  0.13837625217E+04  0.15168654548E+04  0.00000000000E+00 0. -1.
         -1    1    3    3    0  502  0.34374638269E+01  0.50341025753E+02  0.70710160392E+02  0.86867495728E+02  0.00000000000E+00 0.  1.
         13    1    5    5    0    0 -0.20634284478E+03 -0.12866463626E+03  0.57496343250E+03  0.62427150097E+03  0.00000000000E+00 0. -1.
        -13    1    5    5    0    0 -0.17986577383E+03 -0.20894377469E+03  0.50675900399E+03  0.57690023896E+03  0.00000000000E+00 0.  1.
          2    1    4    4  503    0  0.18607625173E+03 -0.95447488760E+02  0.36258923881E+03  0.41857562121E+03  0.00000000000E+00 0. -1.
         -2    1    4    4    0  503  0.27186638794E+03 -0.23407628957E+03  0.12405401244E+04  0.12913724647E+04  0.00000000000E+00 0.  1.
<mgrwt>
<rscale>  0 0.18027447E+04</rscale>
<asrwt>0</asrwt>
<pdfrwt beam="1">  1        2 0.66570587E+00 0.18027447E+04</pdfrwt>
<pdfrwt beam="2">  1       -3 0.28886795E-01 0.18027447E+04</pdfrwt>
<totfact> 0.13122888E+00</totfact>
</mgrwt>
</event>
<event>
12    7  0.1497947E-008  0.1654090E+04  0.7818608E-02  0.8787991E-01
          2   -1    0    0  501    0  0.00000000000E+00  0.00000000000E+00  0.22592508466E+04  0.22592508466E+04  0.00000000000E+00 0. -1.
         -1   -1    0    0    0  501 -0.00000000000E+00 -0.00000000000E+00 -0.30275667791E+03  0.30275667791E+03  0.00000000000E+00 0.  1.
         24    2    1    2    0    0 -0.14101507059E+02  0.17685451329E+03  0.15376354406E+04  0.15498407564E+04  0.78786105608E+02 0.  0.
        254    2    1    2    0    0  0.14101507059E+02 -0.17685451329E+03  0.41885872801E+03  0.10121667681E+04  0.90419166168E+03 0.  0.
         23    2    4    4    0    0 -0.16551908818E+03  0.32127967444E+03  0.10559927327E+03  0.38787607618E+03  0.93163545457E+02 0.  0.
         23    2    4    4    0    0  0.17962059523E+03 -0.49813418773E+03  0.31325945474E+03  0.62429069192E+03  0.10585912721E+03 0.  0.
          2    1    3    3  502    0 -0.12397406516E+02  0.11168908446E+03  0.63596989258E+03  0.64582184195E+03  0.00000000000E+00 0. -1.
         -1    1    3    3    0  502 -0.17041005424E+01  0.65165428826E+02  0.90166554807E+03  0.90401891443E+03  0.00000000000E+00 0.  1.
         13    1    5    5    0    0 -0.35831374219E+02  0.14582272029E+03  0.12564417570E+02  0.15068516091E+03  0.00000000000E+00 0.  1.
        -13    1    5    5    0    0 -0.12968771396E+03  0.17545695415E+03  0.93034855703E+02  0.23719091527E+03  0.00000000000E+00 0. -1.
          1    1    6    6  503    0  0.70389919902E+02 -0.92036545485E+02  0.98590859198E+02  0.15213685959E+03  0.00000000000E+00 0.  1.
         -1    1    6    6    0  503  0.10923067533E+03 -0.40609764224E+03  0.21466859554E+03  0.47215383233E+03  0.00000000000E+00 0. -1.
<mgrwt>
<rscale>  0 0.16540898E+04</rscale>
<asrwt>0</asrwt>
<pdfrwt beam="1">  1        2 0.34757704E+00 0.16540898E+04</pdfrwt>
<pdfrwt beam="2">  1       -1 0.46577952E-01 0.16540898E+04</pdfrwt>
<totfact> 0.23890638E+01</totfact>
</mgrwt>
</event>
<event>
12    7  0.1497947E-008  0.1807068E+04  0.7818608E-02  0.8702550E-01
          2   -1    0    0  501    0  0.00000000000E+00  0.00000000000E+00  0.13912899769E+04  0.13912899769E+04  0.00000000000E+00 0. -1.
         -1   -1    0    0    0  501 -0.00000000000E+00 -0.00000000000E+00 -0.58677463494E+03  0.58677463494E+03  0.00000000000E+00 0.  1.
         24    2    1    2    0    0 -0.44686072374E+02 -0.58968244934E+03 -0.92353221974E+02  0.60372554596E+03  0.78950497885E+02 0.  0.
        254    2    1    2    0    0  0.44686072374E+02  0.58968244934E+03  0.89686856398E+03  0.13743390659E+04  0.85715366821E+03 0.  0.
         23    2    4    4    0    0 -0.11769521611E+02  0.24995135819E+03 -0.12473806058E+03  0.29345798996E+03  0.89128025967E+02 0.  0.
         23    2    4    4    0    0  0.56455593984E+02  0.33973109115E+03  0.10216066246E+04  0.10808810760E+04  0.77584512796E+02 0.  0.
          4    1    3    3  502    0 -0.29014815011E+02 -0.48243910738E+03 -0.44841098965E+02  0.48538652224E+03  0.00000000000E+00 0. -1.
         -3    1    3    3    0  502 -0.15671257363E+02 -0.10724334196E+03 -0.47512123009E+02  0.11833902372E+03  0.00000000000E+00 0.  1.
         13    1    5    5    0    0  0.24780511776E+01  0.52723736387E+02 -0.71137961211E+02  0.88580712582E+02  0.00000000000E+00 0.  1.
        -13    1    5    5    0    0 -0.14247572788E+02  0.19722762181E+03 -0.53600099371E+02  0.20487727738E+03  0.00000000000E+00 0. -1.
          1    1    6    6  503    0 -0.35087889612E+01 -0.21849479322E+01  0.29688397397E+02  0.29974765010E+02  0.00000000000E+00 0. -1.
         -1    1    6    6    0  503  0.59964382945E+02  0.34191603908E+03  0.99191822717E+03  0.10509063109E+04  0.00000000000E+00 0.  1.
<mgrwt>
<rscale>  0 0.18070680E+04</rscale>
<asrwt>0</asrwt>
<pdfrwt beam="1">  1        2 0.21404461E+00 0.18070680E+04</pdfrwt>
<pdfrwt beam="2">  1       -1 0.90273021E-01 0.18070680E+04</pdfrwt>
<totfact> 0.18888402E+01</totfact>
</mgrwt>
</event>
<event>
11    7  0.1497947E-008  0.1260223E+04  0.7818608E-02  0.9061718E-01
          2   -1    0    0  501    0  0.00000000000E+00  0.00000000000E+00  0.11349320536E+04  0.11349320536E+04  0.00000000000E+00 0. -1.
         -1   -1    0    0    0  501 -0.00000000000E+00 -0.00000000000E+00 -0.34983613517E+03  0.34983613517E+03  0.00000000000E+00 0.  1.
         24    2    1    2    0    0  0.80714079397E+01  0.85820717841E+01  0.73956971826E+03  0.74398762937E+03  0.80096347654E+02 0.  0.
        254    2    1    2    0    0 -0.80714079397E+01 -0.85820717841E+01  0.45526200165E+02  0.74078055940E+03  0.73928641452E+03 0.  0.
         23    2    4    4    0    0 -0.10597832322E+03 -0.30457129560E+03  0.17386252072E+03  0.37568699064E+03  0.83171267451E+02 0.  0.
          4    1    3    3  502    0 -0.31714241362E+02 -0.10463303614E+02  0.42947756834E+03  0.43077401911E+03  0.00000000000E+00 0. -1.
         -3    1    3    3    0  502  0.39785649302E+02  0.19045375398E+02  0.31009214992E+03  0.31321361026E+03  0.00000000000E+00 0.  1.
         13    1    5    5    0    0 -0.67864679974E+02 -0.26895734399E+03  0.12514010593E+03  0.30430858317E+03  0.00000000000E+00 0. -1.
        -13    1    5    5    0    0 -0.38113643247E+02 -0.35613951604E+02  0.48722414790E+02  0.71378407473E+02  0.00000000000E+00 0.  1.
          3    1    4    4  503    0  0.12293260425E+03  0.26310311090E+03 -0.13966266112E+03  0.32224421029E+03  0.00000000000E+00 0. -1.
         -3    1    4    4    0  503 -0.25025688967E+02  0.32886112912E+02  0.11326340563E+02  0.42849358470E+02  0.00000000000E+00 0.  1.
<mgrwt>
<rscale>  0 0.12602226E+04</rscale>
<asrwt>0</asrwt>
<pdfrwt beam="1">  1        2 0.17460493E+00 0.12602226E+04</pdfrwt>
<pdfrwt beam="2">  1       -1 0.53820944E-01 0.12602226E+04</pdfrwt>
<totfact> 0.80961052E+01</totfact>
</mgrwt>
</event>
<event>
12    7  0.1497947E-008  0.2192185E+04  0.7818608E-02  0.8521688E-01
         -1   -1    0    0    0  501 -0.00000000000E+00  0.00000000000E+00  0.10478397145E+04  0.10478397145E+04  0.00000000000E+00 0.  1.
          2   -1    0    0  501    0  0.00000000000E+00 -0.00000000000E+00 -0.11465669981E+04  0.11465669981E+04  0.00000000000E+00 0. -1.
         24    2    1    2    0    0 -0.19219324259E+03  0.28038756629E+03  0.80521083190E+03  0.87758569397E+03  0.78973011986E+02 0.  0.
        254    2    1    2    0    0  0.19219324259E+03 -0.28038756629E+03 -0.90393811545E+03  0.13168210186E+04  0.89518604135E+03 0.  0.
         23    2    4    4    0    0  0.34084963803E+03 -0.50100879174E+03 -0.80175605546E+03  0.10092118151E+04  0.92235731749E+02 0.  0.
         23    2    4    4    0    0 -0.14865639545E+03  0.22062122545E+03 -0.10218205999E+03  0.30760920345E+03  0.11580068927E+03 0.  0.
          4    1    3    3  502    0 -0.33308212528E+02  0.24003062797E+02  0.52193214243E+02  0.66405689955E+02  0.00000000000E+00 0. -1.
         -3    1    3    3    0  502 -0.15888503006E+03  0.25638450350E+03  0.75301761766E+03  0.81118000401E+03  0.00000000000E+00 0.  1.
         13    1    5    5    0    0  0.32905188659E+03 -0.46099189923E+03 -0.70859609295E+03  0.90713675825E+03  0.00000000000E+00 0.  1.
        -13    1    5    5    0    0  0.11797751443E+02 -0.40016892517E+02 -0.93159962508E+02  0.10207505690E+03  0.00000000000E+00 0. -1.
          4    1    6    6  503    0 -0.73385544192E+02  0.16264407680E+03 -0.15683218364E+02  0.17912145922E+03  0.00000000000E+00 0. -1.
         -4    1    6    6    0  503 -0.75270851256E+02  0.57977148650E+02 -0.86498841626E+02  0.12848774423E+03  0.00000000000E+00 0.  1.
<mgrwt>
<rscale>  0 0.21921847E+04</rscale>
<asrwt>0</asrwt>
<pdfrwt beam="1">  1        2 0.17639492E+00 0.21921847E+04</pdfrwt>
<pdfrwt beam="2">  1       -1 0.16120611E+00 0.21921847E+04</pdfrwt>
<totfact> 0.60878125E+00</totfact>
</mgrwt>
</event>
<event>
11    7  0.1497947E-008  0.1601953E+04  0.7818608E-02  0.8819349E-01
         -1   -1    0    0    0  501 -0.00000000000E+00  0.00000000000E+00  0.10385235461E+04  0.10385235461E+04  0.00000000000E+00 0.  1.
          2   -1    0    0  501    0  0.00000000000E+00 -0.00000000000E+00 -0.61776477048E+03  0.61776477048E+03  0.00000000000E+00 0. -1.
         24    2    1    2    0    0 -0.50299843909E+03  0.21081022350E+03  0.98678346384E+02  0.55987112106E+03  0.79182549153E+02 0.  0.
        254    2    1    2    0    0  0.50299843909E+03 -0.21081022350E+03  0.32208042919E+03  0.10964171955E+04  0.89495613502E+03 0.  0.
         23    2    4    4    0    0  0.29692127211E+03  0.21791175175E+03  0.32646902443E+03  0.50039034127E+03  0.90336572540E+02 0.  0.
          4    1    3    3  502    0 -0.13669354872E+03  0.79625229617E+02  0.58708305583E+02  0.16873638788E+03  0.00000000000E+00 0. -1.
         -3    1    3    3    0  502 -0.36630489038E+03  0.13118499388E+03  0.39970040801E+02  0.39113473318E+03  0.00000000000E+00 0.  1.
         13    1    5    5    0    0  0.26355716057E+03  0.15098959427E+03  0.24950439127E+03  0.39308100403E+03  0.00000000000E+00 0. -1.
        -13    1    5    5    0    0  0.33364111542E+02  0.66922157488E+02  0.76964633160E+02  0.10730933724E+03  0.00000000000E+00 0.  1.
          3    1    4    4  503    0  0.11677408559E+03 -0.43291962891E+03 -0.10593212347E+03  0.46073550649E+03  0.00000000000E+00 0. -1.
         -3    1    4    4    0  503  0.89303081388E+02  0.41976536586E+01  0.10154352822E+03  0.13529134771E+03  0.00000000000E+00 0.  1.
<mgrwt>
<rscale>  0 0.16019529E+04</rscale>
<asrwt>0</asrwt>
<pdfrwt beam="1">  1        2 0.95040734E-01 0.16019529E+04</pdfrwt>
<pdfrwt beam="2">  1       -1 0.15977285E+00 0.16019529E+04</pdfrwt>
<totfact> 0.15383507E+01</totfact>
</mgrwt>
</event>
<event>
11    7  0.1497947E-008  0.1160112E+04  0.7818608E-02  0.9148505E-01
         -1   -1    0    0    0  501 -0.00000000000E+00  0.00000000000E+00  0.25752350774E+03  0.25752350774E+03  0.00000000000E+00 0.  1.
          2   -1    0    0  501    0  0.00000000000E+00 -0.00000000000E+00 -0.13065402911E+04  0.13065402911E+04  0.00000000000E+00 0. -1.
         24    2    1    2    0    0  0.12593947651E+03  0.14237021495E+03 -0.68094818680E+02  0.21686829607E+03  0.79151270721E+02 0.  0.
        254    2    1    2    0    0 -0.12593947651E+03 -0.14237021495E+03 -0.98092196465E+03  0.13471955028E+04  0.90365800614E+03 0.  0.
         23    2    4    4    0    0  0.20651547137E+03 -0.37587426197E+03 -0.34115639175E+03  0.55554096927E+03  0.91148144131E+02 0.  0.
          4    1    3    3  502    0  0.10425511832E+03  0.66346139966E+02 -0.60081276941E+02  0.13740705885E+03  0.00000000000E+00 0. -1.
         -3    1    3    3    0  502  0.21684358197E+02  0.76024074989E+02 -0.80135417395E+01  0.79461237214E+02  0.00000000000E+00 0.  1.
         13    1    5    5    0    0  0.28784624913E+02 -0.15782953306E+02 -0.48847288360E+02  0.58853324686E+02  0.00000000000E+00 0. -1.
        -13    1    5    5    0    0  0.17773084646E+03 -0.36009130866E+03 -0.29230910339E+03  0.49668764458E+03  0.00000000000E+00 0.  1.
          4    1    4    4  503    0 -0.57269283745E+02  0.14470669353E+03 -0.34632071046E+03  0.37968122486E+03  0.00000000000E+00 0. -1.
         -4    1    4    4    0  503 -0.27518566414E+03  0.88797353482E+02 -0.29344486244E+03  0.41197330863E+03  0.00000000000E+00 0.  1.
<mgrwt>
<rscale>  0 0.11601118E+04</rscale>
<asrwt>0</asrwt>
<pdfrwt beam="1">  1        2 0.20100620E+00 0.11601118E+04</pdfrwt>
<pdfrwt beam="2">  1       -1 0.39619001E-01 0.11601118E+04</pdfrwt>
<totfact> 0.11444568E+02</totfact>
</mgrwt>
</event>
<event>
12    7  0.1497947E-008  0.2336578E+04  0.7818608E-02  0.8463637E-01
         -1   -1    0    0    0  501 -0.00000000000E+00  0.00000000000E+00  0.13390710782E+04  0.13390710782E+04  0.00000000000E+00 0.  1.
          2   -1    0    0  501    0  0.00000000000E+00 -0.00000000000E+00 -0.10192882886E+04  0.10192882886E+04  0.00000000000E+00 0. -1.
         24    2    1    2    0    0 -0.31369887914E+03  0.15020862875E+03 -0.80147273883E+03  0.87722980220E+03  0.78765194489E+02 0.  0.
        254    2    1    2    0    0  0.31369887914E+03 -0.15020862875E+03  0.11212555285E+04  0.14811295646E+04  0.90308427519E+03 0.  0.
         23    2    4    4    0    0  0.74998936152E+02 -0.16986001440E+03 -0.10335653754E+03  0.23124998401E+03  0.91196032469E+02 0.  0.
         23    2    4    4    0    0  0.23869994298E+03  0.19651385646E+02  0.12246120660E+04  0.12498795806E+04  0.71836021755E+02 0.  0.
          2    1    3    3  502    0 -0.31427745669E+03  0.14022132544E+03 -0.79161964191E+03  0.86318827457E+03  0.00000000000E+00 0. -1.
         -1    1    3    3    0  502  0.57857755214E+00  0.99873033117E+01 -0.98530969127E+01  0.14041527630E+02  0.00000000000E+00 0.  1.
         13    1    5    5    0    0  0.70055198214E+02 -0.17660332650E+03 -0.79468784451E+02  0.20594114069E+03  0.00000000000E+00 0. -1.
        -13    1    5    5    0    0  0.49437379384E+01  0.67433120959E+01 -0.23887753087E+02  0.25308843323E+02  0.00000000000E+00 0.  1.
          4    1    6    6  503    0  0.24122798425E+03  0.26547020654E+02  0.11912018870E+04  0.12156716746E+04  0.00000000000E+00 0. -1.
         -4    1    6    6    0  503 -0.25280412638E+01 -0.68956350078E+01  0.33410179012E+02  0.34207906051E+02  0.00000000000E+00 0.  1.
<mgrwt>
<rscale>  0 0.23365782E+04</rscale>
<asrwt>0</asrwt>
<pdfrwt beam="1">  1        2 0.15681358E+00 0.23365782E+04</pdfrwt>
<pdfrwt beam="2">  1       -1 0.20601094E+00 0.23365782E+04</pdfrwt>
<totfact> 0.34531961E+00</totfact>
</mgrwt>
</event>
<event>
11    7  0.1497947E-008  0.1473487E+04  0.7818608E-02  0.8902278E-01
          2   -1    0    0  501    0  0.00000000000E+00  0.00000000000E+00  0.11975444043E+04  0.11975444043E+04  0.00000000000E+00 0. -1.
         -1   -1    0    0    0  501 -0.00000000000E+00 -0.00000000000E+00 -0.45325329873E+03  0.45325329873E+03  0.00000000000E+00 0.  1.
         24    2    1    2    0    0  0.69555908982E+02 -0.41522114193E+03  0.29422757310E+02  0.42941347534E+03  0.79269243570E+02 0.  0.
        254    2    1    2    0    0 -0.69555908982E+02  0.41522114193E+03  0.71486834821E+03  0.12213842276E+04  0.89637941469E+03 0.  0.
         23    2    4    4    0    0 -0.36856791746E+03  0.17673867760E+03  0.60104728246E+03  0.73372914437E+03  0.10010869898E+03 0.  0.
          2    1    3    3  502    0  0.34073594740E+02 -0.16572128718E+03  0.50390075253E+02  0.17653247454E+03  0.00000000000E+00 0. -1.
         -1    1    3    3    0  502  0.35482314243E+02 -0.24949985475E+03 -0.20967317943E+02  0.25288100080E+03  0.00000000000E+00 0.  1.
         13    1    5    5    0    0 -0.55473551730E+02  0.55829453064E+01  0.39216736578E+02  0.68164775710E+02  0.00000000000E+00 0.  1.
        -13    1    5    5    0    0 -0.31309436573E+03  0.17115573229E+03  0.56183054588E+03  0.66556436866E+03  0.00000000000E+00 0. -1.
          4    1    4    4  503    0  0.33348501170E+03  0.22908472573E+03  0.15488493820E+03  0.43322212394E+03  0.00000000000E+00 0. -1.
         -4    1    4    4    0  503 -0.34473003218E+02  0.93977386001E+01 -0.41063872444E+02  0.54432959333E+02  0.00000000000E+00 0.  1.
<mgrwt>
<rscale>  0 0.14734870E+04</rscale>
<asrwt>0</asrwt>
<pdfrwt beam="1">  1        2 0.18423760E+00 0.14734870E+04</pdfrwt>
<pdfrwt beam="2">  1       -1 0.69731277E-01 0.14734870E+04</pdfrwt>
<totfact> 0.43631956E+01</totfact>
</mgrwt>
</event>
<event>
12    7  0.1497947E-008  0.3449210E+04  0.7818608E-02  0.8125933E-01
          2   -1    0    0  501    0  0.00000000000E+00  0.00000000000E+00  0.36548359259E+04  0.36548359259E+04  0.00000000000E+00 0. -1.
         -1   -1    0    0    0  501 -0.00000000000E+00 -0.00000000000E+00 -0.81378797993E+03  0.81378797993E+03  0.00000000000E+00 0.  1.
         24    2    1    2    0    0  0.22125649648E+03  0.52281913494E+02  0.33592286842E+04  0.33678844626E+04  0.80873759145E+02 0.  0.
        254    2    1    2    0    0 -0.22125649648E+03 -0.52281913494E+02 -0.51818073823E+03  0.11007394432E+04  0.94415475886E+03 0.  0.
         23    2    4    4    0    0  0.24492142126E+03 -0.12006936040E+03  0.10932230044E+03  0.30813525117E+03  0.92697431147E+02 0.  0.
         23    2    4    4    0    0 -0.46617791774E+03  0.67787446902E+02 -0.62750303868E+03  0.79260419205E+03  0.11200157483E+03 0.  0.
          4    1    3    3  502    0  0.21167209428E+03  0.61334417877E+02  0.28586334317E+04  0.28671156382E+04  0.00000000000E+00 0. -1.
         -3    1    3    3    0  502  0.95844022041E+01 -0.90525043833E+01  0.50059525256E+03  0.50076882439E+03  0.00000000000E+00 0.  1.
         13    1    5    5    0    0  0.14314113571E+03 -0.11879015441E+03  0.64018118692E+02  0.19672011854E+03  0.00000000000E+00 0. -1.
        -13    1    5    5    0    0  0.10178028554E+03 -0.12792059816E+01  0.45304181752E+02  0.11141513262E+03  0.00000000000E+00 0.  1.
          4    1    6    6  503    0 -0.68270200108E+02  0.52303303216E+02 -0.11099468544E+03  0.14041465716E+03  0.00000000000E+00 0. -1.
         -4    1    6    6    0  503 -0.39790771763E+03  0.15484143687E+02 -0.51650835324E+03  0.65218953489E+03  0.00000000000E+00 0.  1.
<mgrwt>
<rscale>  0 0.34492095E+04</rscale>
<asrwt>0</asrwt>
<pdfrwt beam="1">  1        2 0.56228244E+00 0.34492095E+04</pdfrwt>
<pdfrwt beam="2">  1       -1 0.12519815E+00 0.34492095E+04</pdfrwt>
<totfact> 0.32833195E-01</totfact>
</mgrwt>
</event>
<event>
12    7  0.1497947E-008  0.2421074E+04  0.7818608E-02  0.8431656E-01
          2   -1    0    0  501    0  0.00000000000E+00  0.00000000000E+00  0.19796752531E+04  0.19796752531E+04  0.00000000000E+00 0. -1.
         -1   -1    0    0    0  501 -0.00000000000E+00 -0.00000000000E+00 -0.74022203326E+03  0.74022203326E+03  0.00000000000E+00 0.  1.
         24    2    1    2    0    0  0.13633015246E+03 -0.38213811180E+03 -0.54134976378E+03  0.68133768071E+03  0.80907487041E+02 0.  0.
        254    2    1    2    0    0 -0.13633015246E+03  0.38213811180E+03  0.17808029836E+04  0.20385596057E+04  0.90545599141E+03 0.  0.
         23    2    4    4    0    0 -0.25282562759E+00 -0.23998546497E+03  0.18708641025E+03  0.31819121044E+03  0.93012010964E+02 0.  0.
         23    2    4    4    0    0 -0.13607732683E+03  0.62212357676E+03  0.15937165734E+04  0.17203683952E+04  0.11908028970E+03 0.  0.
          4    1    3    3  502    0 -0.91236825375E+01 -0.41143788857E+02 -0.69428025424E+02  0.81217631453E+02  0.00000000000E+00 0. -1.
         -3    1    3    3    0  502  0.14545383500E+03 -0.34099432294E+03 -0.47192173835E+03  0.60012004926E+03  0.00000000000E+00 0.  1.
         13    1    5    5    0    0 -0.22672339832E+02 -0.81798663358E+01  0.22894112618E+02  0.33242827787E+02  0.00000000000E+00 0. -1.
        -13    1    5    5    0    0  0.22419514204E+02 -0.23180559863E+03  0.16419229764E+03  0.28494838265E+03  0.00000000000E+00 0.  1.
          2    1    6    6  503    0  0.25464886628E+01  0.62992916988E+02  0.26053261190E+03  0.26805192418E+03  0.00000000000E+00 0. -1.
         -2    1    6    6    0  503 -0.13862381550E+03  0.55913065977E+03  0.13331839615E+04  0.14523164710E+04  0.00000000000E+00 0.  1.
<mgrwt>
<rscale>  0 0.24210735E+04</rscale>
<asrwt>0</asrwt>
<pdfrwt beam="1">  1        2 0.30456542E+00 0.24210735E+04</pdfrwt>
<pdfrwt beam="2">  1       -1 0.11388031E+00 0.24210735E+04</pdfrwt>
<totfact> 0.49224034E+00</totfact>
</mgrwt>
</event>
<event>
11    7  0.1497947E-008  0.1481093E+04  0.7818608E-02  0.8897124E-01
          2   -1    0    0  501    0  0.00000000000E+00  0.00000000000E+00  0.13743707125E+04  0.13743707125E+04  0.00000000000E+00 0. -1.
         -1   -1    0    0    0  501 -0.00000000000E+00 -0.00000000000E+00 -0.39902569001E+03  0.39902569001E+03  0.00000000000E+00 0.  1.
         24    2    1    2    0    0  0.90339229249E+02  0.42499435950E+03  0.11958073953E+03  0.45682888187E+03  0.74911228111E+02 0.  0.
        254    2    1    2    0    0 -0.90339229249E+02 -0.42499435950E+03  0.85576428296E+03  0.13165675206E+04  0.90124144738E+03 0.  0.
         23    2    4    4    0    0  0.32470059655E+03 -0.30971885344E+03  0.18610453592E+03  0.49456607552E+03  0.92760224175E+02 0.  0.
          4    1    3    3  502    0  0.79154314494E+02  0.24944658446E+03  0.98668703632E+02  0.27968646210E+03  0.00000000000E+00 0. -1.
         -3    1    3    3    0  502  0.11184914754E+02  0.17554777503E+03  0.20912035897E+02  0.17714241977E+03  0.00000000000E+00 0.  1.
         13    1    5    5    0    0  0.13394564899E+03 -0.12413134230E+03  0.27302515305E+02  0.18464954472E+03  0.00000000000E+00 0. -1.
        -13    1    5    5    0    0  0.19075494756E+03 -0.18558751114E+03  0.15880202061E+03  0.30991653080E+03  0.00000000000E+00 0.  1.
          4    1    4    4  503    0 -0.19475122049E+03 -0.16336250748E+02  0.46877394669E+03  0.50788180128E+03  0.00000000000E+00 0. -1.
         -4    1    4    4    0  503 -0.22028860530E+03 -0.98939255307E+02  0.20088580035E+03  0.31411964384E+03  0.00000000000E+00 0.  1.
<mgrwt>
<rscale>  0 0.14810931E+04</rscale>
<asrwt>0</asrwt>
<pdfrwt beam="1">  1        2 0.21144165E+00 0.14810931E+04</pdfrwt>
<pdfrwt beam="2">  1       -1 0.61388569E-01 0.14810931E+04</pdfrwt>
<totfact> 0.44426822E+01</totfact>
</mgrwt>
</event>
<event>
12    7  0.1497947E-008  0.1445611E+04  0.7818608E-02  0.8921449E-01
         -1   -1    0    0    0  501 -0.00000000000E+00  0.00000000000E+00  0.32266866744E+03  0.32266866744E+03  0.00000000000E+00 0.  1.
          2   -1    0    0  501    0  0.00000000000E+00 -0.00000000000E+00 -0.16191462899E+04  0.16191462899E+04  0.00000000000E+00 0. -1.
         24    2    1    2    0    0 -0.40776676219E+03  0.45116127079E+01 -0.60939570820E+03  0.73760856032E+03  0.80057305022E+02 0.  0.
        254    2    1    2    0    0  0.40776676219E+03 -0.45116127079E+01 -0.68708191424E+03  0.12042063970E+04  0.90096470669E+03 0.  0.
         23    2    4    4    0    0  0.61728899285E+03  0.22166247538E+03 -0.48044074728E+03  0.81820417574E+03  0.91950029177E+02 0.  0.
         23    2    4    4    0    0 -0.20952223066E+03 -0.22617408809E+03 -0.20664116697E+03  0.38600222126E+03  0.10603235200E+03 0.  0.
          4    1    3    3  502    0 -0.30585413143E+03 -0.15451834431E+01 -0.51264806300E+03  0.59695659289E+03  0.00000000000E+00 0. -1.
         -1    1    3    3    0  502 -0.10191263076E+03  0.60567961510E+01 -0.96747645198E+02  0.14065196742E+03  0.00000000000E+00 0.  1.
         13    1    5    5    0    0  0.42728106494E+03  0.12185840903E+03 -0.36166690370E+03  0.57290621356E+03  0.00000000000E+00 0.  1.
        -13    1    5    5    0    0  0.19000792790E+03  0.99804066358E+02 -0.11877384358E+03  0.24529796217E+03  0.00000000000E+00 0. -1.
          1    1    6    6  503    0 -0.17361058814E+03 -0.17602062139E+03 -0.20977663362E+03  0.32423776998E+03  0.00000000000E+00 0. -1.
         -1    1    6    6    0  503 -0.35911642523E+02 -0.50153466707E+02  0.31354666567E+01  0.61764451285E+02  0.00000000000E+00 0.  1.
<mgrwt>
<rscale>  0 0.14456110E+04</rscale>
<asrwt>0</asrwt>
<pdfrwt beam="1">  1        2 0.24909943E+00 0.14456110E+04</pdfrwt>
<pdfrwt beam="2">  1       -1 0.49641333E-01 0.14456110E+04</pdfrwt>
<totfact> 0.48931161E+01</totfact>
</mgrwt>
</event>
<event>
12    7  0.1497947E-008  0.1511807E+04  0.7818608E-02  0.8876639E-01
         -1   -1    0    0    0  501 -0.00000000000E+00  0.00000000000E+00  0.46864904021E+03  0.46864904021E+03  0.00000000000E+00 0.  1.
          2   -1    0    0  501    0  0.00000000000E+00 -0.00000000000E+00 -0.12192282333E+04  0.12192282333E+04  0.00000000000E+00 0. -1.
         24    2    1    2    0    0 -0.34088879041E+03  0.26655413088E+03 -0.10061559749E+02  0.44074352454E+03  0.83050269854E+02 0.  0.
        254    2    1    2    0    0  0.34088879041E+03 -0.26655413088E+03 -0.74051763339E+03  0.12471337490E+04  0.90538386912E+03 0.  0.
         23    2    4    4    0    0  0.44988195788E+03 -0.51834403507E+03 -0.41501370206E+03  0.80770467068E+03  0.95268816626E+02 0.  0.
         23    2    4    4    0    0 -0.10899316748E+03  0.25178990419E+03 -0.32550393133E+03  0.43942907834E+03  0.10893777661E+03 0.  0.
          4    1    3    3  502    0 -0.26594266057E+03  0.22983307365E+03  0.19929865397E+02  0.35205956881E+03  0.00000000000E+00 0. -1.
         -1    1    3    3    0  502 -0.74946129834E+02  0.36721057231E+02 -0.29991425146E+02  0.88683955728E+02  0.00000000000E+00 0.  1.
         13    1    5    5    0    0  0.34585435776E+03 -0.44196569933E+03 -0.30873364698E+03  0.64051961792E+03  0.00000000000E+00 0.  1.
        -13    1    5    5    0    0  0.10402760012E+03 -0.76378335737E+02 -0.10628005508E+03  0.16718505276E+03  0.00000000000E+00 0. -1.
          1    1    6    6  503    0 -0.51386910821E+02  0.19196530349E+02 -0.49117650707E+02  0.73631956324E+02  0.00000000000E+00 0. -1.
         -1    1    6    6    0  503 -0.57606256655E+02  0.23259337384E+03 -0.27638628062E+03  0.36579712202E+03  0.00000000000E+00 0.  1.
<mgrwt>
<rscale>  0 0.15118071E+04</rscale>
<asrwt>0</asrwt>
<pdfrwt beam="1">  1        2 0.18757357E+00 0.15118071E+04</pdfrwt>
<pdfrwt beam="2">  1       -1 0.72099852E-01 0.15118071E+04</pdfrwt>
<totfact> 0.39414000E+01</totfact>
</mgrwt>
</event>
<event>
12    7  0.1497947E-008  0.1621858E+04  0.7818608E-02  0.8807231E-01
         -1   -1    0    0    0  501 -0.00000000000E+00  0.00000000000E+00  0.13892893903E+04  0.13892893903E+04  0.00000000000E+00 0.  1.
          2   -1    0    0  501    0  0.00000000000E+00 -0.00000000000E+00 -0.47333973010E+03  0.47333973010E+03  0.00000000000E+00 0. -1.
         24    2    1    2    0    0 -0.28723807861E+03  0.21960173459E+03 -0.16986922785E+03  0.40740146806E+03  0.79936011691E+02 0.  0.
        254    2    1    2    0    0  0.28723807861E+03 -0.21960173459E+03  0.10858188881E+04  0.14552276524E+04  0.89886274084E+03 0.  0.
         23    2    4    4    0    0  0.72749629072E+02 -0.54421332670E+03  0.72527567224E+03  0.91410343693E+03  0.89997995336E+02 0.  0.
         23    2    4    4    0    0  0.21448844954E+03  0.32461159211E+03  0.36054321584E+03  0.54112421544E+03  0.10698609878E+03 0.  0.
          4    1    3    3  502    0 -0.19076346785E+03  0.14367492451E+03 -0.15264027485E+03  0.28342942350E+03  0.00000000000E+00 0. -1.
         -3    1    3    3    0  502 -0.96474610759E+02  0.75926810081E+02 -0.17228953004E+02  0.12397204456E+03  0.00000000000E+00 0.  1.
         13    1    5    5    0    0  0.25092881210E+02 -0.28203546802E+02  0.58735722988E+02  0.69821041918E+02  0.00000000000E+00 0. -1.
        -13    1    5    5    0    0  0.47656747862E+02 -0.51600977990E+03  0.66653994925E+03  0.84428239501E+03  0.00000000000E+00 0.  1.
          1    1    6    6  503    0  0.23143924580E+02  0.54205771740E+02  0.11349643420E+03  0.12788802724E+03  0.00000000000E+00 0. -1.
         -1    1    6    6    0  503  0.19134452496E+03  0.27040582037E+03  0.24704678163E+03  0.41323618820E+03  0.00000000000E+00 0.  1.
<mgrwt>
<rscale>  0 0.16218580E+04</rscale>
<asrwt>0</asrwt>
<pdfrwt beam="1">  1        2 0.72821497E-01 0.16218580E+04</pdfrwt>
<pdfrwt beam="2">  1       -1 0.21373683E+00 0.16218580E+04</pdfrwt>
<totfact> 0.87085459E+00</totfact>
</mgrwt>
</event>
<event>
12    7  0.1497947E-008  0.1252376E+04  0.7818608E-02  0.9068208E-01
          2   -1    0    0  501    0  0.00000000000E+00  0.00000000000E+00  0.75716572002E+03  0.75716572002E+03  0.00000000000E+00 0. -1.
         -3   -1    0    0    0  501 -0.00000000000E+00 -0.00000000000E+00 -0.51786714996E+03  0.51786714996E+03  0.00000000000E+00 0.  1.
         24    2    1    2    0    0  0.25996820150E+03  0.12871832547E+03  0.10617124955E+03  0.31910907683E+03  0.80039962393E+02 0.  0.
        254    2    1    2    0    0 -0.25996820150E+03 -0.12871832547E+03  0.13312732051E+03  0.95592379315E+03  0.90106356143E+03 0.  0.
         23    2    4    4    0    0 -0.54041508718E+03 -0.23257570681E+02  0.27792952010E+03  0.61520030089E+03  0.92936596862E+02 0.  0.
         23    2    4    4    0    0  0.28044688567E+03 -0.10546075479E+03 -0.14480219959E+03  0.34072349226E+03  0.73160062093E+02 0.  0.
          4    1    3    3  502    0  0.87670298549E+02  0.72318810913E+01  0.48906677000E+02  0.10064911528E+03  0.00000000000E+00 0. -1.
         -3    1    3    3    0  502  0.17229790296E+03  0.12148644438E+03  0.57264572547E+02  0.21845996155E+03  0.00000000000E+00 0.  1.
         13    1    5    5    0    0 -0.14580554683E+03  0.13141039081E+02  0.35487529508E+02  0.15063634736E+03  0.00000000000E+00 0. -1.
        -13    1    5    5    0    0 -0.39460954035E+03 -0.36398609761E+02  0.24244199059E+03  0.46456395354E+03  0.00000000000E+00 0.  1.
          3    1    6    6  503    0  0.18160157761E+03 -0.76516293429E+02 -0.56356240206E+02  0.20496317220E+03  0.00000000000E+00 0. -1.
         -3    1    6    6    0  503  0.98845308067E+02 -0.28944461363E+02 -0.88445959380E+02  0.13576032005E+03  0.00000000000E+00 0.  1.
<mgrwt>
<rscale>  0 0.12523757E+04</rscale>
<asrwt>0</asrwt>
<pdfrwt beam="1">  1        2 0.11648703E+00 0.12523757E+04</pdfrwt>
<pdfrwt beam="2">  1       -3 0.79671869E-01 0.12523757E+04</pdfrwt>
<totfact> 0.33856890E+01</totfact>
</mgrwt>
</event>
<event>
12    7  0.1497947E-008  0.1201796E+04  0.7818608E-02  0.9111286E-01
          2   -1    0    0  501    0  0.00000000000E+00  0.00000000000E+00  0.32285264399E+04  0.32285264399E+04  0.00000000000E+00 0. -1.
         -3   -1    0    0    0  501 -0.00000000000E+00 -0.00000000000E+00 -0.11183994249E+03  0.11183994249E+03  0.00000000000E+00 0.  1.
         24    2    1    2    0    0  0.98847861915E+02 -0.23325675590E+03  0.60152850310E+03  0.65759746374E+03  0.80114108002E+02 0.  0.
        254    2    1    2    0    0 -0.98847861915E+02  0.23325675590E+03  0.25151579943E+04  0.26827689187E+04  0.89835946064E+03 0.  0.
         23    2    4    4    0    0  0.29511524610E+03 -0.15852066148E+03  0.12456847126E+04  0.12930787381E+04  0.90002284102E+02 0.  0.
         23    2    4    4    0    0 -0.39396310802E+03  0.39177741738E+03  0.12694732818E+04  0.13896901806E+04  0.10478506408E+03 0.  0.
          2    1    3    3  502    0  0.77820397195E+00 -0.45037526662E+01  0.75727699802E+02  0.75865498791E+02  0.00000000000E+00 0. -1.
         -1    1    3    3    0  502  0.98069657943E+02 -0.22875300324E+03  0.52580080329E+03  0.58173196495E+03  0.00000000000E+00 0.  1.
         13    1    5    5    0    0  0.28309009319E+03 -0.13166211682E+03  0.10581113201E+04  0.11032109860E+04  0.00000000000E+00 0.  1.
        -13    1    5    5    0    0  0.12025152912E+02 -0.26858544660E+02  0.18757339246E+03  0.18986775208E+03  0.00000000000E+00 0. -1.
          1    1    6    6  503    0 -0.19990911884E+03  0.14676511072E+03  0.47267517491E+03  0.53378410851E+03  0.00000000000E+00 0. -1.
         -1    1    6    6    0  503 -0.19405398917E+03  0.24501230666E+03  0.79679810686E+03  0.85590607208E+03  0.00000000000E+00 0.  1.
<mgrwt>
<rscale>  0 0.12017957E+04</rscale>
<asrwt>0</asrwt>
<pdfrwt beam="1">  1        2 0.49669630E+00 0.12017957E+04</pdfrwt>
<pdfrwt beam="2">  1       -3 0.17206147E-01 0.12017957E+04</pdfrwt>
<totfact> 0.24577577E+01</totfact>
</mgrwt>
</event>
<event>
11    7  0.1497947E-008  0.1434915E+04  0.7818608E-02  0.8928926E-01
          2   -1    0    0  501    0  0.00000000000E+00  0.00000000000E+00  0.22052649682E+04  0.22052649682E+04  0.00000000000E+00 0. -1.
         -1   -1    0    0    0  501 -0.00000000000E+00 -0.00000000000E+00 -0.23341637804E+03  0.23341637804E+03  0.00000000000E+00 0.  1.
         24    2    1    2    0    0  0.38548189954E+03 -0.11496763208E+03  0.80803510302E+03  0.90603841499E+03  0.78555906318E+02 0.  0.
        254    2    1    2    0    0 -0.38548189954E+03  0.11496763208E+03  0.11638134872E+04  0.15326429313E+04  0.91253420242E+03 0.  0.
         23    2    4    4    0    0 -0.57075253256E+03  0.13128240009E+03  0.99602135008E+03  0.11590471199E+04  0.91313604114E+02 0.  0.
          4    1    3    3  502    0  0.25085351300E+03 -0.87978948745E+02  0.60620461270E+03  0.66193036859E+03  0.00000000000E+00 0. -1.
         -3    1    3    3    0  502  0.13462838654E+03 -0.26988683330E+02  0.20183049032E+03  0.24410804639E+03  0.00000000000E+00 0.  1.
         13    1    5    5    0    0 -0.62522454426E+02 -0.87165521617E+01  0.14246048350E+03  0.15582048950E+03  0.00000000000E+00 0. -1.
        -13    1    5    5    0    0 -0.50823007814E+03  0.13999895225E+03  0.85356086658E+03  0.10032266304E+04  0.00000000000E+00 0.  1.
          4    1    4    4  503    0  0.20003611269E+03  0.90242217963E+02  0.14671272757E+03  0.26397486379E+03  0.00000000000E+00 0. -1.
         -4    1    4    4    0  503 -0.14765479669E+02 -0.10655698597E+03  0.21079409536E+02  0.10962094762E+03  0.00000000000E+00 0.  1.
<mgrwt>
<rscale>  0 0.14349146E+04</rscale>
<asrwt>0</asrwt>
<pdfrwt beam="1">  1        2 0.33927152E+00 0.14349146E+04</pdfrwt>
<pdfrwt beam="2">  1       -1 0.35910213E-01 0.14349146E+04</pdfrwt>
<totfact> 0.42080956E+01</totfact>
</mgrwt>
</event>
<event>
11    7  0.1497947E-008  0.1692509E+04  0.7818608E-02  0.8765648E-01
         -3   -1    0    0    0  501 -0.00000000000E+00  0.00000000000E+00  0.11019135280E+04  0.11019135280E+04  0.00000000000E+00 0.  1.
          4   -1    0    0  501    0  0.00000000000E+00 -0.00000000000E+00 -0.64991203697E+03  0.64991203697E+03  0.00000000000E+00 0. -1.
         24    2    1    2    0    0 -0.84004508371E+02 -0.59226084536E+03  0.88620612599E+02  0.60992898105E+03  0.79561816003E+02 0.  0.
        254    2    1    2    0    0  0.84004508371E+02  0.59226084536E+03  0.36338087839E+03  0.11418965839E+04  0.90224856837E+03 0.  0.
         23    2    4    4    0    0 -0.18741115711E+03  0.28508351251E+02 -0.19876453112E+03  0.28985718425E+03  0.92596871080E+02 0.  0.
          2    1    3    3  502    0 -0.96201271739E+02 -0.50920084700E+03  0.90005156886E+02  0.52596683882E+03  0.00000000000E+00 0. -1.
         -3    1    3    3    0  502  0.12196763368E+02 -0.83059998361E+02 -0.13845442872E+01  0.83962142226E+02  0.00000000000E+00 0.  1.
         13    1    5    5    0    0 -0.15800213964E+03  0.29706215411E+02 -0.20423340107E+03  0.25992002131E+03  0.00000000000E+00 0.  1.
        -13    1    5    5    0    0 -0.29409017464E+02 -0.11978641599E+01  0.54688699480E+01  0.29937162946E+02  0.00000000000E+00 0. -1.
          3    1    4    4  503    0  0.16491135319E+03  0.31860861600E+03  0.40878619143E+03  0.54388726305E+03  0.00000000000E+00 0. -1.
         -3    1    4    4    0  503  0.10650431229E+03  0.24514387811E+03  0.15335921807E+03  0.30815213658E+03  0.00000000000E+00 0.  1.
<mgrwt>
<rscale>  0 0.16925092E+04</rscale>
<asrwt>0</asrwt>
<pdfrwt beam="1">  1        4 0.99986467E-01 0.16925092E+04</pdfrwt>
<pdfrwt beam="2">  1       -3 0.16952516E+00 0.16925092E+04</pdfrwt>
<totfact> 0.41946531E-01</totfact>
</mgrwt>
</event>
<event>
12    7  0.1497947E-008  0.1508167E+04  0.7818608E-02  0.8879040E-01
          2   -1    0    0  501    0  0.00000000000E+00  0.00000000000E+00  0.14397872672E+04  0.14397872672E+04  0.00000000000E+00 0. -1.
         -1   -1    0    0    0  501 -0.00000000000E+00 -0.00000000000E+00 -0.39494852457E+03  0.39494852457E+03  0.00000000000E+00 0.  1.
         24    2    1    2    0    0  0.26056389403E+03 -0.21789459497E+03 -0.76818510884E+02  0.35938449044E+03  0.88794881408E+02 0.  0.
        254    2    1    2    0    0 -0.26056389403E+03  0.21789459497E+03  0.11216572535E+04  0.14753513013E+04  0.89620024022E+03 0.  0.
         23    2    4    4    0    0  0.25251187229E+03  0.31507999567E+03  0.39332804651E+03  0.57099587198E+03  0.91058686189E+02 0.  0.
         23    2    4    4    0    0 -0.51307576631E+03 -0.97185400700E+02  0.72832920701E+03  0.90435542934E+03  0.12125825626E+03 0.  0.
          4    1    3    3  502    0  0.15462403657E+03 -0.14112764347E+03 -0.34234523430E+01  0.20937364796E+03  0.00000000000E+00 0. -1.
         -3    1    3    3    0  502  0.10593985746E+03 -0.76766951504E+02 -0.73395058541E+02  0.15001084248E+03  0.00000000000E+00 0.  1.
         13    1    5    5    0    0  0.25238999945E+03  0.30029120528E+03  0.35180510731E+03  0.52691778611E+03  0.00000000000E+00 0. -1.
        -13    1    5    5    0    0  0.12187283779E+00  0.14788790391E+02  0.41522939200E+02  0.44078085871E+02  0.00000000000E+00 0.  1.
          4    1    6    6  503    0 -0.23221737706E+03 -0.84499731370E+02  0.41825154327E+03  0.48579776477E+03  0.00000000000E+00 0. -1.
         -4    1    6    6    0  503 -0.28085838925E+03 -0.12685669329E+02  0.31007766374E+03  0.41855766457E+03  0.00000000000E+00 0.  1.
<mgrwt>
<rscale>  0 0.15081669E+04</rscale>
<asrwt>0</asrwt>
<pdfrwt beam="1">  1        2 0.22150573E+00 0.15081669E+04</pdfrwt>
<pdfrwt beam="2">  1       -1 0.60761312E-01 0.15081669E+04</pdfrwt>
<totfact> 0.41508636E+01</totfact>
</mgrwt>
</event>
<event>
11    7  0.1497947E-008  0.1352008E+04  0.7818608E-02  0.8989310E-01
          2   -1    0    0  501    0  0.00000000000E+00  0.00000000000E+00  0.81741889143E+03  0.81741889143E+03  0.00000000000E+00 0. -1.
         -1   -1    0    0    0  501 -0.00000000000E+00 -0.00000000000E+00 -0.55905403762E+03  0.55905403762E+03  0.00000000000E+00 0.  1.
         24    2    1    2    0    0  0.67917292588E+02 -0.11741557059E+03 -0.27387828568E+03  0.31569923367E+03  0.79104462095E+02 0.  0.
        254    2    1    2    0    0 -0.67917292588E+02  0.11741557059E+03  0.53224313948E+03  0.10607736954E+04  0.90750145920E+03 0.  0.
         23    2    4    4    0    0  0.31442776631E+03  0.19921599617E+03  0.28706616509E+02  0.38440485853E+03  0.91603450103E+02 0.  0.
          2    1    3    3  502    0 -0.18075458155E+02 -0.20968182238E+02 -0.53257995076E+02  0.60023336240E+02  0.00000000000E+00 0. -1.
         -1    1    3    3    0  502  0.85992750743E+02 -0.96447388351E+02 -0.22062029060E+03  0.25567589743E+03  0.00000000000E+00 0.  1.
         13    1    5    5    0    0  0.28798319505E+02  0.55267321044E+02  0.15802021321E+02  0.64292486804E+02  0.00000000000E+00 0. -1.
        -13    1    5    5    0    0  0.28562944681E+03  0.14394867513E+03  0.12904595188E+02  0.32011237173E+03  0.00000000000E+00 0.  1.
          3    1    4    4  503    0  0.28646345182E+02 -0.76222411266E+01  0.61358295655E+02  0.68143613771E+02  0.00000000000E+00 0. -1.
         -3    1    4    4    0  503 -0.41099140408E+03 -0.74178184459E+02  0.44217822732E+03  0.60822522308E+03  0.00000000000E+00 0.  1.
<mgrwt>
<rscale>  0 0.13520079E+04</rscale>
<asrwt>0</asrwt>
<pdfrwt beam="1">  1        2 0.12575675E+00 0.13520079E+04</pdfrwt>
<pdfrwt beam="2">  1       -1 0.86008314E-01 0.13520079E+04</pdfrwt>
<totfact> 0.49812851E+01</totfact>
</mgrwt>
</event>
<event>
12    7  0.1497947E-008  0.1196484E+04  0.7818608E-02  0.9115939E-01
          2   -1    0    0  501    0  0.00000000000E+00  0.00000000000E+00  0.15708710446E+04  0.15708710446E+04  0.00000000000E+00 0. -1.
         -1   -1    0    0    0  501 -0.00000000000E+00 -0.00000000000E+00 -0.22783139437E+03  0.22783139437E+03  0.00000000000E+00 0.  1.
         24    2    1    2    0    0 -0.15162915458E+03 -0.15904070997E+03  0.40810279430E+03  0.47083910114E+03  0.82802297718E+02 0.  0.
        254    2    1    2    0    0  0.15162915458E+03  0.15904070997E+03  0.93493685597E+03  0.13278633379E+04  0.91696715941E+03 0.  0.
         23    2    4    4    0    0  0.18022342290E+03 -0.36327318879E+01 -0.13324969512E+03  0.24200543966E+03  0.91200179132E+02 0.  0.
         23    2    4    4    0    0 -0.28594268328E+02  0.16267344186E+03  0.10681865511E+04  0.10858578982E+04  0.10384886271E+03 0.  0.
          2    1    3    3  502    0 -0.14925725970E+03 -0.15041334143E+03  0.41015526660E+03  0.46165923100E+03  0.00000000000E+00 0. -1.
         -1    1    3    3    0  502 -0.23718948805E+01 -0.86273685375E+01 -0.20524723026E+01  0.91798701385E+01  0.00000000000E+00 0.  1.
         13    1    5    5    0    0  0.10408327009E+03  0.24021315806E+02 -0.11872689981E+03  0.15970731812E+03  0.00000000000E+00 0. -1.
        -13    1    5    5    0    0  0.76140152820E+02 -0.27654047694E+02 -0.14522795309E+02  0.82298121539E+02  0.00000000000E+00 0.  1.
          3    1    6    6  503    0 -0.53435962971E+02  0.14033453411E+03  0.98213932656E+03  0.99355263594E+03  0.00000000000E+00 0. -1.
         -3    1    6    6    0  503  0.24841694643E+02  0.22338907747E+02  0.86047224532E+02  0.92305262264E+02  0.00000000000E+00 0.  1.
<mgrwt>
<rscale>  0 0.11964844E+04</rscale>
<asrwt>0</asrwt>
<pdfrwt beam="1">  1        2 0.24167246E+00 0.11964844E+04</pdfrwt>
<pdfrwt beam="2">  1       -1 0.35050985E-01 0.11964844E+04</pdfrwt>
<totfact> 0.10073477E+02</totfact>
</mgrwt>
</event>
<event>
11    7  0.1497947E-008  0.1995499E+04  0.7818608E-02  0.8608728E-01
         -1   -1    0    0    0  501 -0.00000000000E+00  0.00000000000E+00  0.52805546665E+03  0.52805546665E+03  0.00000000000E+00 0.  1.
          2   -1    0    0  501    0  0.00000000000E+00 -0.00000000000E+00 -0.18852259832E+04  0.18852259832E+04  0.00000000000E+00 0. -1.
         24    2    1    2    0    0 -0.40586449643E+03  0.33096577827E+03  0.16707558283E+03  0.55548064332E+03  0.79875896735E+02 0.  0.
        254    2    1    2    0    0  0.40586449643E+03 -0.33096577827E+03 -0.15242460994E+04  0.18578008065E+04  0.92403102189E+03 0.  0.
         23    2    4    4    0    0  0.40087037389E+03 -0.22632413797E+03 -0.15158856724E+04  0.15867333855E+04  0.88847018806E+02 0.  0.
          2    1    3    3  502    0 -0.92848316514E+02  0.11672185305E+03  0.64827993091E+02  0.16262677992E+03  0.00000000000E+00 0. -1.
         -3    1    3    3    0  502 -0.31301617992E+03  0.21424392522E+03  0.10224758974E+03  0.39285386341E+03  0.00000000000E+00 0.  1.
         13    1    5    5    0    0  0.27889831375E+03 -0.20076013104E+03 -0.10767002625E+04  0.11302089873E+04  0.00000000000E+00 0. -1.
        -13    1    5    5    0    0  0.12197206014E+03 -0.25564006926E+02 -0.43918540989E+03  0.45652439822E+03  0.00000000000E+00 0.  1.
          2    1    4    4  503    0  0.10426392721E+03 -0.34323744889E+02  0.66391522251E+02  0.12828452833E+03  0.00000000000E+00 0. -1.
         -2    1    4    4    0  503 -0.99269804676E+02 -0.70317895414E+02 -0.74751949220E+02  0.14278289270E+03  0.00000000000E+00 0.  1.
<mgrwt>
<rscale>  0 0.19954988E+04</rscale>
<asrwt>0</asrwt>
<pdfrwt beam="1">  1        2 0.29003477E+00 0.19954988E+04</pdfrwt>
<pdfrwt beam="2">  1       -1 0.81239303E-01 0.19954988E+04</pdfrwt>
<totfact> 0.12360750E+01</totfact>
</mgrwt>
</event>
<event>
11    7  0.1497947E-008  0.1383368E+04  0.7818608E-02  0.8965947E-01
          2   -1    0    0  501    0  0.00000000000E+00  0.00000000000E+00  0.14780077241E+04  0.14780077241E+04  0.00000000000E+00 0. -1.
         -1   -1    0    0    0  501 -0.00000000000E+00 -0.00000000000E+00 -0.32369685242E+03  0.32369685242E+03  0.00000000000E+00 0.  1.
         24    2    1    2    0    0  0.29785890529E+03 -0.68260186583E+02  0.11593377703E+02  0.31589020704E+03  0.79201237113E+02 0.  0.
        254    2    1    2    0    0 -0.29785890529E+03  0.68260186583E+02  0.11427174940E+04  0.14858143695E+04  0.89914497663E+03 0.  0.
         23    2    4    4    0    0  0.22986958134E+02 -0.30595401655E+03  0.45717482463E+03  0.55764414517E+03  0.88441573228E+02 0.  0.
          4    1    3    3  502    0  0.22089264961E+01  0.86830292360E+01 -0.43835941981E+01  0.99744799900E+01  0.00000000000E+00 0. -1.
         -3    1    3    3    0  502  0.29564997880E+03 -0.76943215819E+02  0.15976971901E+02  0.30591572705E+03  0.00000000000E+00 0.  1.
         13    1    5    5    0    0 -0.30212524891E+02 -0.16725683507E+03  0.22425684399E+03  0.28138723784E+03  0.00000000000E+00 0. -1.
        -13    1    5    5    0    0  0.53199483024E+02 -0.13869718148E+03  0.23291798064E+03  0.27625690733E+03  0.00000000000E+00 0.  1.
          4    1    4    4  503    0  0.30495826637E+02  0.22692604728E+03  0.16110263616E+03  0.27996336503E+03  0.00000000000E+00 0. -1.
         -4    1    4    4    0  503 -0.35134169006E+03  0.14728815585E+03  0.52444003317E+03  0.64820685928E+03  0.00000000000E+00 0.  1.
<mgrwt>
<rscale>  0 0.13833676E+04</rscale>
<asrwt>0</asrwt>
<pdfrwt beam="1">  1        2 0.22738580E+00 0.13833676E+04</pdfrwt>
<pdfrwt beam="2">  1       -1 0.49799517E-01 0.13833676E+04</pdfrwt>
<totfact> 0.58661790E+01</totfact>
</mgrwt>
</event>
<event>
12    7  0.1497947E-008  0.1748406E+04  0.7818608E-02  0.8734228E-01
          2   -1    0    0  501    0  0.00000000000E+00  0.00000000000E+00  0.17370782109E+04  0.17370782109E+04  0.00000000000E+00 0. -1.
         -1   -1    0    0    0  501 -0.00000000000E+00 -0.00000000000E+00 -0.43995187244E+03  0.43995187244E+03  0.00000000000E+00 0.  1.
         24    2    1    2    0    0  0.53151688445E+03  0.31281029929E+03  0.25553391400E+03  0.67246660128E+03  0.80952250304E+02 0.  0.
        254    2    1    2    0    0 -0.53151688445E+03 -0.31281029929E+03  0.10415924245E+04  0.15045634821E+04  0.89355246689E+03 0.  0.
         23    2    4    4    0    0 -0.18869480838E+03  0.84474252941E+02 -0.97480441478E+02  0.24570097516E+03  0.90138241612E+02 0.  0.
         23    2    4    4    0    0 -0.34282207607E+03 -0.39728455224E+03  0.11390728660E+04  0.12588625069E+04  0.10902213582E+03 0.  0.
          2    1    3    3  502    0  0.47496306253E+02  0.16553181692E+02  0.49205567496E+00  0.50300586981E+02  0.00000000000E+00 0. -1.
         -1    1    3    3    0  502  0.48402057820E+03  0.29625711760E+03  0.25504185832E+03  0.62216601430E+03  0.00000000000E+00 0.  1.
         13    1    5    5    0    0 -0.10452179211E+03  0.15831452014E+02 -0.86388169186E+02  0.13652236328E+03  0.00000000000E+00 0.  1.
        -13    1    5    5    0    0 -0.84173016270E+02  0.68642800927E+02 -0.11092272292E+02  0.10917861188E+03  0.00000000000E+00 0. -1.
          2    1    6    6  503    0 -0.14500564443E+01 -0.28787128522E+02  0.11031515167E+03  0.11401856919E+03  0.00000000000E+00 0.  1.
         -2    1    6    6    0  503 -0.34137201962E+03 -0.36849742371E+03  0.10287577143E+04  0.11448439377E+04  0.00000000000E+00 0. -1.
<mgrwt>
<rscale>  0 0.17484059E+04</rscale>
<asrwt>0</asrwt>
<pdfrwt beam="1">  1        2 0.26724280E+00 0.17484059E+04</pdfrwt>
<pdfrwt beam="2">  1       -1 0.67684904E-01 0.17484059E+04</pdfrwt>
<totfact> 0.22320099E+01</totfact>
</mgrwt>
</event>
<event>
11    7  0.1497947E-008  0.2034829E+04  0.7818608E-02  0.8590508E-01
          2   -1    0    0  501    0  0.00000000000E+00  0.00000000000E+00  0.16679192809E+04  0.16679192809E+04  0.00000000000E+00 0. -1.
         -1   -1    0    0    0  501 -0.00000000000E+00 -0.00000000000E+00 -0.62061275528E+03  0.62061275528E+03  0.00000000000E+00 0.  1.
         24    2    1    2    0    0  0.46884696006E+03  0.66899571022E+03  0.44232933048E+03  0.93252903807E+03  0.81132225300E+02 0.  0.
        254    2    1    2    0    0 -0.46884696006E+03 -0.66899571022E+03  0.60497719514E+03  0.13560029981E+04  0.89742631563E+03 0.  0.
         23    2    4    4    0    0  0.22674016675E+03 -0.24496701693E+02  0.19779929819E+03  0.31595779308E+03  0.93239331992E+02 0.  0.
          4    1    3    3  502    0  0.40402883098E+03  0.52427953718E+03  0.36929143918E+03  0.75794755519E+03  0.00000000000E+00 0. -1.
         -3    1    3    3    0  502  0.64818129084E+02  0.14471617305E+03  0.73037891300E+02  0.17458148288E+03  0.00000000000E+00 0.  1.
         13    1    5    5    0    0  0.27182513689E+01  0.91870864200E+01 -0.59439161302E+01  0.11274820901E+02  0.00000000000E+00 0. -1.
        -13    1    5    5    0    0  0.22402191538E+03 -0.33683788113E+02  0.20374321432E+03  0.30468297218E+03  0.00000000000E+00 0.  1.
          1    1    4    4  503    0 -0.19852059003E+03 -0.17511017190E+03  0.52570372948E+02  0.26988449582E+03  0.00000000000E+00 0. -1.
         -1    1    4    4    0  503 -0.49706653678E+03 -0.46938883663E+03  0.35460752401E+03  0.77016070922E+03  0.00000000000E+00 0.  1.
<mgrwt>
<rscale>  0 0.20348287E+04</rscale>
<asrwt>0</asrwt>
<pdfrwt beam="1">  1        2 0.25660296E+00 0.20348287E+04</pdfrwt>
<pdfrwt beam="2">  1       -1 0.95478887E-01 0.20348287E+04</pdfrwt>
<totfact> 0.11415827E+01</totfact>
</mgrwt>
</event>
<event>
12    7  0.1497947E-008  0.1423764E+04  0.7818608E-02  0.8936794E-01
          2   -1    0    0  501    0  0.00000000000E+00  0.00000000000E+00  0.10464930270E+04  0.10464930270E+04  0.00000000000E+00 0. -1.
         -1   -1    0    0    0  501 -0.00000000000E+00 -0.00000000000E+00 -0.48426118855E+03  0.48426118855E+03  0.00000000000E+00 0.  1.
         24    2    1    2    0    0  0.24050211502E+03  0.35370104231E+03  0.20880106197E+03  0.48273711629E+03  0.80570126607E+02 0.  0.
        254    2    1    2    0    0 -0.24050211502E+03 -0.35370104231E+03  0.35343077648E+03  0.10480170993E+04  0.88908988969E+03 0.  0.
         23    2    4    4    0    0 -0.12023625858E+03  0.16922408734E+03 -0.17495268521E+03  0.28687075363E+03  0.92697559877E+02 0.  0.
         23    2    4    4    0    0 -0.12026585644E+03 -0.52292512966E+03  0.52838346170E+03  0.76114634565E+03  0.11063502814E+03 0.  0.
          2    1    3    3  502    0  0.23102271234E+03  0.29890173147E+03  0.19631900788E+03  0.42574040394E+03  0.00000000000E+00 0. -1.
         -1    1    3    3    0  502  0.94794026748E+01  0.54799310846E+02  0.12482054093E+02  0.56996712349E+02  0.00000000000E+00 0.  1.
         13    1    5    5    0    0 -0.98395944498E+02  0.17373526842E+03 -0.17351281780E+03  0.26452297315E+03  0.00000000000E+00 0.  1.
        -13    1    5    5    0    0 -0.21840314082E+02 -0.45111810725E+01 -0.14398674164E+01  0.22347780473E+02  0.00000000000E+00 0. -1.
          4    1    6    6  503    0 -0.31428888259E+02 -0.88146743411E+02  0.41488934536E+02  0.10236676746E+03  0.00000000000E+00 0. -1.
         -4    1    6    6    0  503 -0.88836968179E+02 -0.43477838624E+03  0.48689452716E+03  0.65877957819E+03  0.00000000000E+00 0.  1.
<mgrwt>
<rscale>  0 0.14237640E+04</rscale>
<asrwt>0</asrwt>
<pdfrwt beam="1">  1        2 0.16099893E+00 0.14237640E+04</pdfrwt>
<pdfrwt beam="2">  1       -1 0.74501722E-01 0.14237640E+04</pdfrwt>
<totfact> 0.47288083E+01</totfact>
</mgrwt>
</event>
<event>
11    7  0.1497947E-008  0.1795829E+04  0.7818608E-02  0.8708521E-01
         -1   -1    0    0    0  501 -0.00000000000E+00  0.00000000000E+00  0.16794041531E+04  0.16794041531E+04  0.00000000000E+00 0.  1.
          2   -1    0    0  501    0  0.00000000000E+00 -0.00000000000E+00 -0.48008119937E+03  0.48008119937E+03  0.00000000000E+00 0. -1.
         24    2    1    2    0    0 -0.40936363747E+03 -0.40505442777E+03  0.83940061489E+03  0.10209410807E+04  0.77971923711E+02 0.  0.
        254    2    1    2    0    0  0.40936363747E+03  0.40505442777E+03  0.35992233880E+03  0.11385442717E+04  0.91383329527E+03 0.  0.
         23    2    4    4    0    0 -0.14663541722E+03 -0.11226297629E+03  0.20515612823E+03  0.29117804724E+03  0.92686011984E+02 0.  0.
          2    1    3    3  502    0 -0.33899494490E+03 -0.31077298088E+03  0.71123236094E+03  0.84696451494E+03  0.00000000000E+00 0. -1.
         -1    1    3    3    0  502 -0.70368692565E+02 -0.94281446890E+02  0.12816825395E+03  0.17397656578E+03  0.00000000000E+00 0.  1.
         13    1    5    5    0    0 -0.72952497958E+01 -0.35540339712E+02  0.83114170485E+02  0.90687936088E+02  0.00000000000E+00 0. -1.
        -13    1    5    5    0    0 -0.13934016742E+03 -0.76722636574E+02  0.12204195774E+03  0.20049011115E+03  0.00000000000E+00 0.  1.
          3    1    4    4  503    0 -0.25615949543E+02  0.11701782377E+03  0.63077140097E+02  0.13538121566E+03  0.00000000000E+00 0. -1.
         -3    1    4    4    0  503  0.58161500423E+03  0.40029958029E+03  0.91689070472E+02  0.71198500881E+03  0.00000000000E+00 0.  1.
<mgrwt>
<rscale>  0 0.17958289E+04</rscale>
<asrwt>0</asrwt>
<pdfrwt beam="1">  1        2 0.73858647E-01 0.17958289E+04</pdfrwt>
<pdfrwt beam="2">  1       -1 0.25836987E+00 0.17958289E+04</pdfrwt>
<totfact> 0.42850698E+00</totfact>
</mgrwt>
</event>
<event>
11    7  0.1497947E-008  0.2314916E+04  0.7818608E-02  0.8472063E-01
         -1   -1    0    0    0  501 -0.00000000000E+00  0.00000000000E+00  0.18090183570E+04  0.18090183570E+04  0.00000000000E+00 0.  1.
          2   -1    0    0  501    0  0.00000000000E+00 -0.00000000000E+00 -0.74057252946E+03  0.74057252946E+03  0.00000000000E+00 0. -1.
         24    2    1    2    0    0 -0.82322686875E+03 -0.31239092632E+03 -0.15996843320E+02  0.88417388905E+03  0.78847947308E+02 0.  0.
        254    2    1    2    0    0  0.82322686875E+03  0.31239092632E+03  0.10844426709E+04  0.16654169974E+04  0.90681161252E+03 0.  0.
         23    2    4    4    0    0  0.21307570972E+03 -0.27630262773E+03  0.16580643240E+03  0.39883735259E+03  0.99171874191E+02 0.  0.
          2    1    3    3  502    0 -0.75687314546E+03 -0.30885215300E+03 -0.18596704089E+02  0.81767502600E+03  0.00000000000E+00 0. -1.
         -1    1    3    3    0  502 -0.66353723287E+02 -0.35387733178E+01  0.25998607691E+01  0.66498863048E+02  0.00000000000E+00 0.  1.
         13    1    5    5    0    0  0.10679245846E+02 -0.10780343524E+02  0.38744939936E+02  0.41610485085E+02  0.00000000000E+00 0. -1.
        -13    1    5    5    0    0  0.20239646388E+03 -0.26552228421E+03  0.12706149247E+03  0.35722686751E+03  0.00000000000E+00 0.  1.
          1    1    4    4  503    0  0.93864047093E+02  0.20994623910E+03  0.27827836603E+03  0.36100793849E+03  0.00000000000E+00 0. -1.
         -1    1    4    4    0  503  0.51628711193E+03  0.37874731495E+03  0.64035787242E+03  0.90557170633E+03  0.00000000000E+00 0.  1.
<mgrwt>
<rscale>  0 0.23149162E+04</rscale>
<asrwt>0</asrwt>
<pdfrwt beam="1">  1        2 0.11393424E+00 0.23149162E+04</pdfrwt>
<pdfrwt beam="2">  1       -1 0.27831051E+00 0.23149162E+04</pdfrwt>
<totfact> 0.17977205E+00</totfact>
</mgrwt>
</event>
<event>
12    7  0.1497947E-008  0.1286109E+04  0.7818608E-02  0.9040654E-01
         -1   -1    0    0    0  501 -0.00000000000E+00  0.00000000000E+00  0.22210773262E+03  0.22210773262E+03  0.00000000000E+00 0.  1.
          2   -1    0    0  501    0  0.00000000000E+00 -0.00000000000E+00 -0.18617949129E+04  0.18617949129E+04  0.00000000000E+00 0. -1.
         24    2    1    2    0    0  0.25195390271E+03  0.15426437638E+03 -0.67380965585E+03  0.73975388099E+03  0.77058972348E+02 0.  0.
        254    2    1    2    0    0 -0.25195390271E+03 -0.15426437638E+03 -0.96587752439E+03  0.13441487645E+04  0.88686991269E+03 0.  0.
         23    2    4    4    0    0 -0.64852084056E+02  0.17833295711E+03  0.79707215291E+02  0.22575236019E+03  0.92749401953E+02 0.  0.
         23    2    4    4    0    0 -0.18710181865E+03 -0.33259733349E+03 -0.10455847397E+04  0.11183964043E+04  0.10924739128E+03 0.  0.
          4    1    3    3  502    0  0.24780034248E+03  0.16011815835E+03 -0.66885155857E+03  0.73103026050E+03  0.00000000000E+00 0. -1.
         -3    1    3    3    0  502  0.41535602250E+01 -0.58537819675E+01 -0.49580972806E+01  0.87236204932E+01  0.00000000000E+00 0.  1.
         13    1    5    5    0    0  0.39656039112E+00  0.12033026692E+02  0.41311990814E+02  0.43030588847E+02  0.00000000000E+00 0.  1.
        -13    1    5    5    0    0 -0.65248644447E+02  0.16629993042E+03  0.38395224477E+02  0.18272177134E+03  0.00000000000E+00 0. -1.
          4    1    6    6  503    0 -0.98014149978E+02 -0.26149775146E+03 -0.66921419494E+03  0.72514514845E+03  0.00000000000E+00 0. -1.
         -4    1    6    6    0  503 -0.89087668672E+02 -0.71099582031E+02 -0.37637054474E+03  0.39325125584E+03  0.00000000000E+00 0.  1.
<mgrwt>
<rscale>  0 0.12861089E+04</rscale>
<asrwt>0</asrwt>
<pdfrwt beam="1">  1        2 0.28642998E+00 0.12861089E+04</pdfrwt>
<pdfrwt beam="2">  1       -1 0.34170421E-01 0.12861089E+04</pdfrwt>
<totfact> 0.72215053E+01</totfact>
</mgrwt>
</event>
<event>
12    7  0.1497947E-008  0.1837607E+04  0.7818608E-02  0.8686552E-01
          2   -1    0    0  501    0  0.00000000000E+00  0.00000000000E+00  0.12387213636E+04  0.12387213636E+04  0.00000000000E+00 0. -1.
         -1   -1    0    0    0  501 -0.00000000000E+00 -0.00000000000E+00 -0.68150911617E+03  0.68150911617E+03  0.00000000000E+00 0.  1.
         24    2    1    2    0    0 -0.64457896939E+03  0.22698626721E+03  0.31270561055E+03  0.75534245983E+03  0.75846024727E+02 0.  0.
        254    2    1    2    0    0  0.64457896939E+03 -0.22698626721E+03  0.24450663685E+03  0.11648880199E+04  0.91113983019E+03 0.  0.
         23    2    4    4    0    0 -0.13862842227E+03  0.91379718618E+02 -0.13816094940E+03  0.23374396709E+03  0.89329176506E+02 0.  0.
         23    2    4    4    0    0  0.78320739166E+03 -0.31836598583E+03  0.38266758625E+03  0.93114405281E+03  0.76315439056E+02 0.  0.
          4    1    3    3  502    0 -0.13135040864E+03  0.46776508952E+02  0.31244173002E+02  0.14288866290E+03  0.00000000000E+00 0. -1.
         -3    1    3    3    0  502 -0.51322856076E+03  0.18020975826E+03  0.28146143755E+03  0.61245379693E+03  0.00000000000E+00 0.  1.
         13    1    5    5    0    0 -0.74508723445E+02 -0.51460497970E+00 -0.38924415503E+02  0.84065003479E+02  0.00000000000E+00 0. -1.
        -13    1    5    5    0    0 -0.64119698820E+02  0.91894323597E+02 -0.99236533902E+02  0.14967896361E+03  0.00000000000E+00 0.  1.
          1    1    6    6  503    0  0.61273305597E+03 -0.21469314660E+03  0.28669093840E+03  0.70973702118E+03  0.00000000000E+00 0. -1.
         -1    1    6    6    0  503  0.17047433569E+03 -0.10367283924E+03  0.95976647853E+02  0.22140703164E+03  0.00000000000E+00 0.  1.
<mgrwt>
<rscale>  0 0.18376070E+04</rscale>
<asrwt>0</asrwt>
<pdfrwt beam="1">  1        2 0.19057252E+00 0.18376070E+04</pdfrwt>
<pdfrwt beam="2">  1       -1 0.10484756E+00 0.18376070E+04</pdfrwt>
<totfact> 0.16467251E+01</totfact>
</mgrwt>
</event>
<event>
12    7  0.4436933E-008  0.2219704E+04  0.7818608E-02  0.8510271E-01
          2   -1    0    0  501    0  0.00000000000E+00  0.00000000000E+00  0.23420974728E+04  0.23420974728E+04  0.00000000000E+00 0. -1.
         -1   -1    0    0    0  501 -0.00000000000E+00 -0.00000000000E+00 -0.52592665208E+03  0.52592665208E+03  0.00000000000E+00 0.  1.
         24    2    1    2    0    0 -0.55277899188E+03  0.76285598978E+03  0.75384342220E+03  0.12092206706E+04  0.80130206261E+02 0.  0.
        254    2    1    2    0    0  0.55277899188E+03 -0.76285598978E+03  0.10623273985E+04  0.16588034543E+04  0.85765699633E+03 0.  0.
         23    2    4    4    0    0  0.73652691750E+03 -0.65822535277E+03  0.65645006835E+03  0.11895080838E+04  0.90941046869E+02 0.  0.
         23    2    4    4    0    0 -0.18374792562E+03 -0.10463063702E+03  0.40587733019E+03  0.46929537050E+03  0.10387909915E+03 0.  0.
          4    1    3    3  502    0 -0.35683555906E+03  0.52106072552E+03  0.46108859031E+03  0.78194538428E+03  0.00000000000E+00 0. -1.
         -3    1    3    3    0  502 -0.19594343282E+03  0.24179526426E+03  0.29275483190E+03  0.42727528630E+03  0.00000000000E+00 0.  1.
         13    1    5    5    0    0  0.93945117007E+02 -0.47082534764E+02  0.64655672972E+02  0.12338073649E+03  0.00000000000E+00 0. -1.
        -13    1    5    5    0    0  0.64258180049E+03 -0.61114281800E+03  0.59179439538E+03  0.10661273473E+04  0.00000000000E+00 0.  1.
          4    1    6    6  503    0  0.95495229485E+01 -0.18532395337E+02  0.63192305225E+02  0.66542546578E+02  0.00000000000E+00 0. -1.
         -4    1    6    6    0  503 -0.19329744857E+03 -0.86098241679E+02  0.34268502496E+03  0.40275282392E+03  0.00000000000E+00 0.  1.
<mgrwt>
<rscale>  0 0.22197040E+04</rscale>
<asrwt>0</asrwt>
<pdfrwt beam="1">  1        2 0.36032268E+00 0.22197040E+04</pdfrwt>
<pdfrwt beam="2">  1       -1 0.80911794E-01 0.22197040E+04</pdfrwt>
<totfact> 0.67833781E+00</totfact>
</mgrwt>
</event>
<event>
11    7  0.1497947E-008  0.2847128E+04  0.7818608E-02  0.8288785E-01
          2   -1    0    0  501    0  0.00000000000E+00  0.00000000000E+00  0.28646745417E+04  0.28646745417E+04  0.00000000000E+00 0. -1.
         -1   -1    0    0    0  501 -0.00000000000E+00 -0.00000000000E+00 -0.70742229144E+03  0.70742229144E+03  0.00000000000E+00 0.  1.
         24    2    1    2    0    0 -0.11434471627E+04  0.56229092516E+03  0.10414998979E+04  0.16476317459E+04  0.79535114502E+02 0.  0.
        254    2    1    2    0    0  0.11434471627E+04 -0.56229092516E+03  0.11157523524E+04  0.19244650872E+04  0.91379432137E+03 0.  0.
         23    2    4    4    0    0  0.94207855456E+03 -0.14290649948E+03  0.34963173960E+03  0.10189393608E+04  0.89781942015E+02 0.  0.
          2    1    3    3  502    0 -0.10874985926E+04  0.55286439350E+03  0.99479503698E+03  0.15741440189E+04  0.00000000000E+00 0. -1.
         -1    1    3    3    0  502 -0.55948570099E+02  0.94265316600E+01  0.46704860937E+02  0.73487727073E+02  0.00000000000E+00 0.  1.
         13    1    5    5    0    0  0.43647498094E+03 -0.11153499728E+03  0.16426852475E+03  0.47951497665E+03  0.00000000000E+00 0.  1.
        -13    1    5    5    0    0  0.50560357362E+03 -0.31371502196E+02  0.18536321486E+03  0.53942438416E+03  0.00000000000E+00 0. -1.
          2    1    4    4  503    0  0.27103218052E+01  0.90704579358E+01  0.24871452153E+02  0.26612181114E+02  0.00000000000E+00 0. -1.
         -2    1    4    4    0  503  0.19865828633E+03 -0.42845488362E+03  0.74124916062E+03  0.87891354532E+03  0.00000000000E+00 0.  1.
<mgrwt>
<rscale>  0 0.28471281E+04</rscale>
<asrwt>0</asrwt>
<pdfrwt beam="1">  1        2 0.44071915E+00 0.28471281E+04</pdfrwt>
<pdfrwt beam="2">  1       -1 0.10883420E+00 0.28471281E+04</pdfrwt>
<totfact> 0.16276617E+00</totfact>
</mgrwt>
</event>
<event>
12    7  0.1869234E-008  0.1858412E+04  0.7818608E-02  0.8675839E-01
         -1   -1    0    0    0  501 -0.00000000000E+00  0.00000000000E+00  0.58630738992E+03  0.58630738992E+03  0.00000000000E+00 0.  1.
          2   -1    0    0  501    0  0.00000000000E+00 -0.00000000000E+00 -0.14726474063E+04  0.14726474063E+04  0.00000000000E+00 0. -1.
         24    2    1    2    0    0 -0.49660101905E+03 -0.28757451616E+03  0.12704729852E+03  0.59326220656E+03  0.80668179613E+02 0.  0.
        254    2    1    2    0    0  0.49660101905E+03  0.28757451616E+03 -0.10133873149E+04  0.14656925896E+04  0.88993777473E+03 0.  0.
         23    2    4    4    0    0 -0.17591343038E+03  0.21263341047E+03 -0.66138134410E+02  0.29633464020E+03  0.85331494337E+02 0.  0.
         23    2    4    4    0    0  0.67251444943E+03  0.74941105688E+02 -0.94724918046E+03  0.11693579494E+04  0.11056740023E+03 0.  0.
          4    1    3    3  502    0 -0.13772419253E+03 -0.73062956769E+02 -0.12863154340E+01  0.15590960030E+03  0.00000000000E+00 0. -1.
         -3    1    3    3    0  502 -0.35887682653E+03 -0.21451155939E+03  0.12833361396E+03  0.43735260626E+03  0.00000000000E+00 0.  1.
         13    1    5    5    0    0 -0.15111395264E+03  0.18536789052E+03 -0.86386644313E+02  0.25428199668E+03  0.00000000000E+00 0. -1.
        -13    1    5    5    0    0 -0.24799477739E+02  0.27265519951E+02  0.20248509904E+02  0.42052643528E+02  0.00000000000E+00 0.  1.
          4    1    6    6  503    0  0.64604439252E+03  0.61332018393E+02 -0.86137466239E+03  0.10784717347E+04  0.00000000000E+00 0. -1.
         -4    1    6    6    0  503  0.26470056912E+02  0.13609087294E+02 -0.85874518074E+02  0.90886214710E+02  0.00000000000E+00 0.  1.
<mgrwt>
<rscale>  0 0.18584123E+04</rscale>
<asrwt>0</asrwt>
<pdfrwt beam="1">  1        2 0.22656113E+00 0.18584123E+04</pdfrwt>
<pdfrwt beam="2">  1       -1 0.90201139E-01 0.18584123E+04</pdfrwt>
<totfact> 0.16930990E+01</totfact>
</mgrwt>
</event>
<event>
12    7  0.1497947E-008  0.2155751E+04  0.7818608E-02  0.8537075E-01
          2   -1    0    0  501    0  0.00000000000E+00  0.00000000000E+00  0.47743340989E+04  0.47743340989E+04  0.00000000000E+00 0. -1.
         -1   -1    0    0    0  501 -0.00000000000E+00 -0.00000000000E+00 -0.24334610818E+03  0.24334610818E+03  0.00000000000E+00 0.  1.
         24    2    1    2    0    0 -0.18824310674E+03  0.17859833477E+03 -0.94279047122E+02  0.28823791401E+03  0.82823450363E+02 0.  0.
        254    2    1    2    0    0  0.18824310674E+03 -0.17859833477E+03  0.46252670378E+04  0.47294422931E+04  0.95246858204E+03 0.  0.
         23    2    4    4    0    0  0.46542720136E+03 -0.24658302087E+03  0.39848226750E+04  0.40205413947E+04  0.92280491666E+02 0.  0.
         23    2    4    4    0    0 -0.27718409463E+03  0.67984686102E+02  0.64044436286E+03  0.70890089842E+03  0.10449192314E+03 0.  0.
          2    1    3    3  502    0 -0.33591228057E+02  0.12796427203E+02  0.11914390744E+02  0.37869141241E+02  0.00000000000E+00 0. -1.
         -1    1    3    3    0  502 -0.15465187868E+03  0.16580190757E+03 -0.10619343787E+03  0.25036877277E+03  0.00000000000E+00 0.  1.
         13    1    5    5    0    0  0.46291812480E+03 -0.24050448091E+03  0.39721989876E+04  0.40063075759E+04  0.00000000000E+00 0.  1.
        -13    1    5    5    0    0  0.25090765659E+01 -0.60785399595E+01  0.12623687356E+02  0.14233818733E+02  0.00000000000E+00 0. -1.
          1    1    6    6  503    0 -0.27745794170E+02  0.48894407890E+01  0.13554646264E+02  0.31264423242E+02  0.00000000000E+00 0. -1.
         -1    1    6    6    0  503 -0.24943830046E+03  0.63095245313E+02  0.62688971660E+03  0.67763647518E+03  0.00000000000E+00 0.  1.
<mgrwt>
<rscale>  0 0.21557510E+04</rscale>
<asrwt>0</asrwt>
<pdfrwt beam="1">  1        2 0.73451287E+00 0.21557510E+04</pdfrwt>
<pdfrwt beam="2">  1       -1 0.37437866E-01 0.21557510E+04</pdfrwt>
<totfact> 0.46380691E-01</totfact>
</mgrwt>
</event>
<event>
12    7  0.1497947E-008  0.1883595E+04  0.7818608E-02  0.8663065E-01
          2   -1    0    0  501    0  0.00000000000E+00  0.00000000000E+00  0.22410126444E+04  0.22410126444E+04  0.00000000000E+00 0. -1.
         -1   -1    0    0    0  501 -0.00000000000E+00 -0.00000000000E+00 -0.39579562323E+03  0.39579562323E+03  0.00000000000E+00 0.  1.
         24    2    1    2    0    0 -0.33455567677E+03  0.41077618719E+03  0.13914652773E+04  0.14910155125E+04  0.79291006168E+02 0.  0.
        254    2    1    2    0    0  0.33455567677E+03 -0.41077618719E+03  0.45375174384E+03  0.11457927551E+04  0.90900264898E+03 0.  0.
         23    2    4    4    0    0  0.15739483553E+03  0.10956136232E+03 -0.19782180434E+03  0.29021108590E+03  0.91171167269E+02 0.  0.
         23    2    4    4    0    0  0.17716084124E+03 -0.52033754951E+03  0.65157354818E+03  0.85558166924E+03  0.73039543746E+02 0.  0.
          2    1    3    3  502    0 -0.29268316296E+03  0.37468873486E+03  0.11736987530E+04  0.12663427043E+04  0.00000000000E+00 0. -1.
         -1    1    3    3    0  502 -0.41872513813E+02  0.36087452325E+02  0.21776652428E+03  0.22467280816E+03  0.00000000000E+00 0.  1.
         13    1    5    5    0    0  0.28704685978E+02 -0.44216188124E+01 -0.70613969595E+02  0.76353404718E+02  0.00000000000E+00 0.  1.
        -13    1    5    5    0    0  0.12869014955E+03  0.11398298113E+03 -0.12720783474E+03  0.21385768118E+03  0.00000000000E+00 0. -1.
          2    1    6    6  503    0  0.16803015137E+03 -0.44882590142E+03  0.59460476044E+03  0.76369735019E+03  0.00000000000E+00 0.  1.
         -2    1    6    6    0  503  0.91306898728E+01 -0.71511648085E+02  0.56968787740E+02  0.91884319043E+02  0.00000000000E+00 0. -1.
<mgrwt>
<rscale>  0 0.18835955E+04</rscale>
<asrwt>0</asrwt>
<pdfrwt beam="1">  1        2 0.34477117E+00 0.18835955E+04</pdfrwt>
<pdfrwt beam="2">  1       -1 0.60891636E-01 0.18835955E+04</pdfrwt>
<totfact> 0.14302564E+01</totfact>
</mgrwt>
</event>
<event>
12    7  0.1497947E-008  0.1780294E+04  0.7818608E-02  0.8716850E-01
         -1   -1    0    0    0  501 -0.00000000000E+00  0.00000000000E+00  0.18650529422E+03  0.18650529422E+03  0.00000000000E+00 0.  1.
          2   -1    0    0  501    0  0.00000000000E+00 -0.00000000000E+00 -0.42484677563E+04  0.42484677563E+04  0.00000000000E+00 0. -1.
         24    2    1    2    0    0  0.60422532242E+02  0.23276595787E+03  0.17448291667E+02  0.25000009630E+03  0.66066116273E+02 0.  0.
        254    2    1    2    0    0 -0.60422532242E+02 -0.23276595787E+03 -0.40794107537E+04  0.41849729542E+04  0.90253845143E+03 0.  0.
         23    2    4    4    0    0  0.29419281895E+03  0.18720413502E+03 -0.12759328635E+04  0.13259044188E+04  0.91777191013E+02 0.  0.
         23    2    4    4    0    0 -0.35461535119E+03 -0.41997009289E+03 -0.28034778903E+04  0.28590685354E+04  0.11250636807E+03 0.  0.
          4    1    3    3  502    0  0.17965524606E+02  0.11634813416E+03 -0.22386698614E+02  0.11983660823E+03  0.00000000000E+00 0. -1.
         -3    1    3    3    0  502  0.42457007636E+02  0.11641782371E+03  0.39834990281E+02  0.13016348807E+03  0.00000000000E+00 0.  1.
         13    1    5    5    0    0  0.40955180920E+01  0.28786111092E+02 -0.13269927636E+03  0.13584738277E+03  0.00000000000E+00 0.  1.
        -13    1    5    5    0    0  0.29009730086E+03  0.15841802393E+03 -0.11432335871E+04  0.11900570360E+04  0.00000000000E+00 0. -1.
          3    1    6    6  503    0 -0.18220804723E+03 -0.29872590939E+03 -0.17998049214E+04  0.18335033942E+04  0.00000000000E+00 0. -1.
         -3    1    6    6    0  503 -0.17240730396E+03 -0.12124418350E+03 -0.10036729689E+04  0.10255651413E+04  0.00000000000E+00 0.  1.
<mgrwt>
<rscale>  0 0.17802941E+04</rscale>
<asrwt>0</asrwt>
<pdfrwt beam="1">  1        2 0.65361032E+00 0.17802941E+04</pdfrwt>
<pdfrwt beam="2">  1       -1 0.28693127E-01 0.17802941E+04</pdfrwt>
<totfact> 0.25523451E+00</totfact>
</mgrwt>
</event>
<event>
12    7  0.1497947E-008  0.2490179E+04  0.7818608E-02  0.8406493E-01
         -1   -1    0    0    0  501 -0.00000000000E+00  0.00000000000E+00  0.96852202685E+03  0.96852202685E+03  0.00000000000E+00 0.  1.
          2   -1    0    0  501    0  0.00000000000E+00 -0.00000000000E+00 -0.16006320825E+04  0.16006320825E+04  0.00000000000E+00 0. -1.
         24    2    1    2    0    0  0.31169694154E+03 -0.74718646097E+03  0.46747587281E+03  0.93848015766E+03  0.82272254308E+02 0.  0.
        254    2    1    2    0    0 -0.31169694154E+03  0.74718646097E+03 -0.10995859284E+04  0.16306739516E+04  0.89138416622E+03 0.  0.
         23    2    4    4    0    0  0.24965047051E+03 -0.14100893186E+01 -0.24580731861E+03  0.36221750679E+03  0.91939863862E+02 0.  0.
         23    2    4    4    0    0 -0.56134741205E+03  0.74859655029E+03 -0.85377860980E+03  0.12684564448E+04  0.67350766821E+02 0.  0.
          2    1    3    3  502    0  0.30483030622E+02 -0.15580890872E+03  0.83766682078E+02  0.17950623449E+03  0.00000000000E+00 0. -1.
         -1    1    3    3    0  502  0.28121391092E+03 -0.59137755225E+03  0.38370919073E+03  0.75897392317E+03  0.00000000000E+00 0.  1.
         13    1    5    5    0    0  0.10225663325E+02  0.55859961003E+01 -0.54324242530E+02  0.55559795440E+02  0.00000000000E+00 0. -1.
        -13    1    5    5    0    0  0.23942480719E+03 -0.69960854189E+01 -0.19148307608E+03  0.30665771135E+03  0.00000000000E+00 0.  1.
          4    1    6    6  503    0 -0.15488739406E+03  0.15896177117E+03 -0.20412325346E+03  0.30153814375E+03  0.00000000000E+00 0. -1.
         -4    1    6    6    0  503 -0.40646001800E+03  0.58963477912E+03 -0.64965535634E+03  0.96691830110E+03  0.00000000000E+00 0.  1.
<mgrwt>
<rscale>  0 0.24901787E+04</rscale>
<asrwt>0</asrwt>
<pdfrwt beam="1">  1        2 0.24625109E+00 0.24901787E+04</pdfrwt>
<pdfrwt beam="2">  1       -1 0.14900339E+00 0.24901787E+04</pdfrwt>
<totfact> 0.40235093E+00</totfact>
</mgrwt>
</event>
<event>
11    7  0.1497947E-008  0.1738360E+04  0.7818608E-02  0.8739784E-01
         -1   -1    0    0    0  501 -0.00000000000E+00  0.00000000000E+00  0.11210832531E+04  0.11210832531E+04  0.00000000000E+00 0.  1.
          2   -1    0    0  501    0  0.00000000000E+00 -0.00000000000E+00 -0.67387823910E+03  0.67387823910E+03  0.00000000000E+00 0. -1.
         24    2    1    2    0    0 -0.97135401521E+02 -0.49404325111E+03  0.55298843053E+03  0.75210998958E+03  0.79744667129E+02 0.  0.
        254    2    1    2    0    0  0.97135401521E+02  0.49404325111E+03 -0.10578341653E+03  0.10428515026E+04  0.90710258797E+03 0.  0.
         23    2    4    4    0    0  0.29530340970E+03 -0.14422899203E+03  0.32213944406E+02  0.34233894866E+03  0.90289044908E+02 0.  0.
          4    1    3    3  502    0 -0.29916898783E+02 -0.29166015833E+03  0.27716463164E+03  0.40346115280E+03  0.00000000000E+00 0. -1.
         -3    1    3    3    0  502 -0.67218502738E+02 -0.20238309278E+03  0.27582379889E+03  0.34864883677E+03  0.00000000000E+00 0.  1.
         13    1    5    5    0    0  0.28756241585E+03 -0.14412565485E+03  0.13335795611E+02  0.32193507240E+03  0.00000000000E+00 0. -1.
        -13    1    5    5    0    0  0.77409938452E+01 -0.10333718067E+00  0.18878148794E+02  0.20403876254E+02  0.00000000000E+00 0.  1.
          1    1    4    4  503    0 -0.22190145400E+03  0.52086874887E+03 -0.12695799135E+03  0.58022654231E+03  0.00000000000E+00 0. -1.
         -1    1    4    4    0  503  0.23733445817E+02  0.11740349427E+03 -0.11039369585E+02  0.12028601165E+03  0.00000000000E+00 0.  1.
<mgrwt>
<rscale>  0 0.17383597E+04</rscale>
<asrwt>0</asrwt>
<pdfrwt beam="1">  1        2 0.10367358E+00 0.17383597E+04</pdfrwt>
<pdfrwt beam="2">  1       -1 0.17247435E+00 0.17383597E+04</pdfrwt>
<totfact> 0.10989932E+01</totfact>
</mgrwt>
</event>
<event>
11    7  0.1497947E-008  0.1406178E+04  0.7818608E-02  0.8949358E-01
         -1   -1    0    0    0  501 -0.00000000000E+00  0.00000000000E+00  0.52980248626E+03  0.52980248626E+03  0.00000000000E+00 0.  1.
          2   -1    0    0  501    0  0.00000000000E+00 -0.00000000000E+00 -0.93305410771E+03  0.93305410771E+03  0.00000000000E+00 0. -1.
         24    2    1    2    0    0  0.36832942474E+03  0.96427151842E+02  0.21170474251E+02  0.38900333726E+03  0.76880730213E+02 0.  0.
        254    2    1    2    0    0 -0.36832942474E+03 -0.96427151842E+02 -0.42442209570E+03  0.10738532567E+04  0.90997908816E+03 0.  0.
         23    2    4    4    0    0 -0.38005613918E+03  0.27133503003E+03  0.22020894197E+02  0.47674125527E+03  0.93444835317E+02 0.  0.
          2    1    3    3  502    0  0.68860326657E+02  0.60981293931E+01  0.31653665603E+02  0.76032140017E+02  0.00000000000E+00 0. -1.
         -1    1    3    3    0  502  0.29946909808E+03  0.90329022449E+02 -0.10483191352E+02  0.31297119724E+03  0.00000000000E+00 0.  1.
         13    1    5    5    0    0 -0.37114877679E+03  0.24622517517E+03  0.35637882316E+02  0.44682022118E+03  0.00000000000E+00 0.  1.
        -13    1    5    5    0    0 -0.89073623928E+01  0.25109854853E+02 -0.13616988120E+02  0.29921034090E+02  0.00000000000E+00 0. -1.
          2    1    4    4  503    0  0.73925349790E+02 -0.12086588571E+03 -0.16948917260E+03  0.22090744509E+03  0.00000000000E+00 0. -1.
         -2    1    4    4    0  503 -0.62198635348E+02 -0.24689629616E+03 -0.27695381729E+03  0.37620455634E+03  0.00000000000E+00 0.  1.
<mgrwt>
<rscale>  0 0.14061783E+04</rscale>
<asrwt>0</asrwt>
<pdfrwt beam="1">  1        2 0.14354678E+00 0.14061783E+04</pdfrwt>
<pdfrwt beam="2">  1       -1 0.81508076E-01 0.14061783E+04</pdfrwt>
<totfact> 0.46373741E+01</totfact>
</mgrwt>
</event>
<event>
12    7  0.1497947E-008  0.1983238E+04  0.7818608E-02  0.8614498E-01
         -1   -1    0    0    0  501 -0.00000000000E+00  0.00000000000E+00  0.29244249595E+03  0.29244249595E+03  0.00000000000E+00 0.  1.
          2   -1    0    0  501    0  0.00000000000E+00 -0.00000000000E+00 -0.33623979749E+04  0.33623979749E+04  0.00000000000E+00 0. -1.
         24    2    1    2    0    0 -0.75524378436E+03  0.28336947019E+02 -0.16270311767E+04  0.17957157722E+04  0.78539979754E+02 0.  0.
        254    2    1    2    0    0  0.75524378436E+03 -0.28336947019E+02 -0.14429243023E+04  0.18591246986E+04  0.89616848110E+03 0.  0.
         23    2    4    4    0    0  0.23609177271E+03 -0.20167914887E+03 -0.10541643523E+02  0.32411036462E+03  0.92317917953E+02 0.  0.
         23    2    4    4    0    0  0.51915201165E+03  0.17334220185E+03 -0.14323826587E+04  0.15350143340E+04  0.70587494200E+02 0.  0.
          2    1    3    3  502    0 -0.41370787998E+03  0.53569063516E+02 -0.87212012890E+03  0.96675610873E+03  0.00000000000E+00 0. -1.
         -3    1    3    3    0  502 -0.34153590438E+03 -0.25232116497E+02 -0.75491104778E+03  0.82895966352E+03  0.00000000000E+00 0.  1.
         13    1    5    5    0    0  0.11326383424E+02  0.54108542878E+00 -0.18456774468E+02  0.21661769518E+02  0.00000000000E+00 0. -1.
        -13    1    5    5    0    0  0.22476538928E+03 -0.20222023430E+03  0.79151309444E+01  0.30244859510E+03  0.00000000000E+00 0.  1.
          2    1    6    6  503    0  0.49175966227E+02 -0.43737981710E+01 -0.12329140328E+03  0.13280879447E+03  0.00000000000E+00 0. -1.
         -2    1    6    6    0  503  0.46997604542E+03  0.17771600002E+03 -0.13090912555E+04  0.14022055395E+04  0.00000000000E+00 0.  1.
<mgrwt>
<rscale>  0 0.19832378E+04</rscale>
<asrwt>0</asrwt>
<pdfrwt beam="1">  1        2 0.51729197E+00 0.19832378E+04</pdfrwt>
<pdfrwt beam="2">  1       -1 0.44991155E-01 0.19832378E+04</pdfrwt>
<totfact> 0.52712788E+00</totfact>
</mgrwt>
</event>
<event>
11    7  0.1497947E-008  0.1175180E+04  0.7818608E-02  0.9134863E-01
          2   -1    0    0  501    0  0.00000000000E+00  0.00000000000E+00  0.28336463893E+03  0.28336463893E+03  0.00000000000E+00 0. -1.
         -1   -1    0    0    0  501 -0.00000000000E+00 -0.00000000000E+00 -0.12184381446E+04  0.12184381446E+04  0.00000000000E+00 0.  1.
         24    2    1    2    0    0  0.18475131929E+03  0.91397463320E+02 -0.46430075698E+02  0.22460001913E+03  0.76176573715E+02 0.  0.
        254    2    1    2    0    0 -0.18475131929E+03 -0.91397463320E+02 -0.88864342999E+03  0.12772027644E+04  0.89390894923E+03 0.  0.
         23    2    4    4    0    0 -0.23994104406E+03  0.31656510871E+03 -0.28922686229E+03  0.49940054743E+03  0.89238759683E+02 0.  0.
          4    1    3    3  502    0  0.15780135840E+03  0.63624737637E+02 -0.84156431783E+01  0.17035315964E+03  0.00000000000E+00 0. -1.
         -3    1    3    3    0  502  0.26949960892E+02  0.27772725683E+02 -0.38014432520E+02  0.54246859483E+02  0.00000000000E+00 0.  1.
         13    1    5    5    0    0 -0.17759285325E+03  0.23184124835E+03 -0.16077993296E+03  0.33337632310E+03  0.00000000000E+00 0.  1.
        -13    1    5    5    0    0 -0.62348190817E+02  0.84723860358E+02 -0.12844692932E+03  0.16602422433E+03  0.00000000000E+00 0. -1.
          2    1    4    4  503    0  0.88223353109E+02 -0.30097065277E+03 -0.22233742257E+03  0.38444846643E+03  0.00000000000E+00 0.  1.
         -2    1    4    4    0  503 -0.33033628331E+02 -0.10699191926E+03 -0.37707914513E+03  0.39335375056E+03  0.00000000000E+00 0. -1.
<mgrwt>
<rscale>  0 0.11751805E+04</rscale>
<asrwt>0</asrwt>
<pdfrwt beam="1">  1        2 0.43594560E-01 0.11751805E+04</pdfrwt>
<pdfrwt beam="2">  1       -1 0.18745202E+00 0.11751805E+04</pdfrwt>
<totfact> 0.24411544E+01</totfact>
</mgrwt>
</event>
<event>
11    7  0.1497947E-008  0.2921374E+04  0.7818608E-02  0.8266546E-01
          2   -1    0    0  501    0  0.00000000000E+00  0.00000000000E+00  0.18825607086E+04  0.18825607086E+04  0.00000000000E+00 0. -1.
         -1   -1    0    0    0  501 -0.00000000000E+00 -0.00000000000E+00 -0.11333535779E+04  0.11333535779E+04  0.00000000000E+00 0.  1.
         24    2    1    2    0    0 -0.11102797633E+04  0.23815844879E+02 -0.39472948284E+03  0.11812885736E+04  0.79642841243E+02 0.  0.
        254    2    1    2    0    0  0.11102797633E+04 -0.23815844879E+02  0.11439366135E+04  0.18346257128E+04  0.90772913533E+03 0.  0.
         23    2    4    4    0    0  0.12460429987E+04  0.91625275218E+02  0.98718351667E+03  0.15951978857E+04  0.95428787015E+02 0.  0.
          2    1    3    3  502    0 -0.30912990991E+03 -0.26315650304E+02 -0.95507696068E+02  0.32461598029E+03  0.00000000000E+00 0. -1.
         -1    1    3    3    0  502 -0.80114985344E+03  0.50131495182E+02 -0.29922178677E+03  0.85667259332E+03  0.00000000000E+00 0.  1.
         13    1    5    5    0    0  0.47499909702E+03  0.65939750138E+01  0.32864884061E+03  0.57764840787E+03  0.00000000000E+00 0.  1.
        -13    1    5    5    0    0  0.77104390169E+03  0.85031300204E+02  0.65853467605E+03  0.10175494779E+04  0.00000000000E+00 0. -1.
          2    1    4    4  503    0 -0.12297501682E+03 -0.11468170694E+03  0.14654024708E+03  0.22304437380E+03  0.00000000000E+00 0. -1.
         -2    1    4    4    0  503 -0.12788218541E+02 -0.75941315947E+00  0.10212849767E+02  0.16383453304E+02  0.00000000000E+00 0.  1.
<mgrwt>
<rscale>  0 0.29213743E+04</rscale>
<asrwt>0</asrwt>
<pdfrwt beam="1">  1        2 0.28962472E+00 0.29213743E+04</pdfrwt>
<pdfrwt beam="2">  1       -1 0.17436209E+00 0.29213743E+04</pdfrwt>
<totfact> 0.17402387E+00</totfact>
</mgrwt>
</event>
<event>
12    7  0.1497947E-008  0.1613264E+04  0.7818608E-02  0.8812440E-01
          2   -1    0    0  501    0  0.00000000000E+00  0.00000000000E+00  0.10837224075E+04  0.10837224075E+04  0.00000000000E+00 0. -1.
         -1   -1    0    0    0  501 -0.00000000000E+00 -0.00000000000E+00 -0.60038943447E+03  0.60038943447E+03  0.00000000000E+00 0.  1.
         24    2    1    2    0    0  0.13778632821E+03  0.51907321014E+03  0.28706483181E+03  0.61643804460E+03  0.95747456552E+02 0.  0.
        254    2    1    2    0    0 -0.13778632821E+03 -0.51907321014E+03  0.19626814120E+03  0.10676737974E+04  0.90165630070E+03 0.  0.
         23    2    4    4    0    0  0.16050269482E+03 -0.62815732901E+03  0.31170183308E+03  0.72516659226E+03  0.91464795103E+02 0.  0.
         23    2    4    4    0    0 -0.29828902303E+03  0.10908411887E+03 -0.11543369188E+03  0.34250720510E+03  0.55772413209E+02 0.  0.
          4    1    3    3  502    0  0.34178226301E+02  0.28339046380E+03  0.18101007181E+03  0.33799845003E+03  0.00000000000E+00 0. -1.
         -3    1    3    3    0  502  0.10360810191E+03  0.23568274634E+03  0.10605476000E+03  0.27843959456E+03  0.00000000000E+00 0.  1.
         13    1    5    5    0    0  0.16808358972E+02 -0.24445056511E+03  0.11630499673E+03  0.27122951901E+03  0.00000000000E+00 0.  1.
        -13    1    5    5    0    0  0.14369433584E+03 -0.38370676390E+03  0.19539683634E+03  0.45393707325E+03  0.00000000000E+00 0. -1.
          1    1    6    6  503    0 -0.12533054307E+03  0.22363252454E+02 -0.28862053759E+02  0.13054071485E+03  0.00000000000E+00 0. -1.
         -1    1    6    6    0  503 -0.17295847996E+03  0.86720866420E+02 -0.86571638119E+02  0.21196649025E+03  0.00000000000E+00 0.  1.
<mgrwt>
<rscale>  0 0.16132644E+04</rscale>
<asrwt>0</asrwt>
<pdfrwt beam="1">  1        2 0.16672652E+00 0.16132644E+04</pdfrwt>
<pdfrwt beam="2">  1       -1 0.92367605E-01 0.16132644E+04</pdfrwt>
<totfact> 0.27788330E+01</totfact>
</mgrwt>
</event>
<event>
12    7  0.1497947E-008  0.2036503E+04  0.7818608E-02  0.8589742E-01
          2   -1    0    0  501    0  0.00000000000E+00  0.00000000000E+00  0.21173147249E+04  0.21173147249E+04  0.00000000000E+00 0. -1.
         -1   -1    0    0    0  501 -0.00000000000E+00 -0.00000000000E+00 -0.48969392890E+03  0.48969392890E+03  0.00000000000E+00 0.  1.
         24    2    1    2    0    0  0.83931201346E+03 -0.21636622722E+02  0.55876266075E+03  0.10117553963E+04  0.80749436246E+02 0.  0.
        254    2    1    2    0    0 -0.83931201346E+03  0.21636622722E+02  0.10688581352E+04  0.15952532575E+04  0.83514216931E+03 0.  0.
         23    2    4    4    0    0 -0.86256967312E+03  0.23901575469E+03  0.98787707369E+03  0.13363285141E+04  0.93369228946E+02 0.  0.
         23    2    4    4    0    0  0.23257659663E+02 -0.21737913197E+03  0.80981061521E+02  0.25892474339E+03  0.11264761277E+03 0.  0.
          2    1    3    3  502    0  0.75601835600E+03 -0.42462618397E+02  0.49224951296E+03  0.90314805629E+03  0.00000000000E+00 0. -1.
         -1    1    3    3    0  502  0.83293657461E+02  0.20825995675E+02  0.66513147793E+02  0.10860733998E+03  0.00000000000E+00 0.  1.
         13    1    5    5    0    0 -0.21541557413E+03  0.89272129670E+02  0.30164539069E+03  0.38126542518E+03  0.00000000000E+00 0. -1.
        -13    1    5    5    0    0 -0.64715409900E+03  0.14974362502E+03  0.68623168300E+03  0.95506308893E+03  0.00000000000E+00 0.  1.
          2    1    6    6  503    0  0.47367385863E+01 -0.10336525296E+01  0.37078473581E+02  0.37394094896E+02  0.00000000000E+00 0. -1.
         -2    1    6    6    0  503  0.18520921077E+02 -0.21634547944E+03  0.43902587940E+02  0.22153064849E+03  0.00000000000E+00 0.  1.
<mgrwt>
<rscale>  0 0.20365030E+04</rscale>
<asrwt>0</asrwt>
<pdfrwt beam="1">  1        2 0.32574072E+00 0.20365030E+04</pdfrwt>
<pdfrwt beam="2">  1       -1 0.75337529E-01 0.20365030E+04</pdfrwt>
<totfact> 0.10732259E+01</totfact>
</mgrwt>
</event>
<event>
12    7  0.1497947E-008  0.1595987E+04  0.7818608E-02  0.8823017E-01
         -1   -1    0    0    0  501 -0.00000000000E+00  0.00000000000E+00  0.70808905656E+03  0.70808905656E+03  0.00000000000E+00 0.  1.
          2   -1    0    0  501    0  0.00000000000E+00 -0.00000000000E+00 -0.89931261550E+03  0.89931261550E+03  0.00000000000E+00 0. -1.
         24    2    1    2    0    0  0.20196837571E+03  0.20828227675E+03 -0.52802390522E+03  0.60791191342E+03  0.81085870543E+02 0.  0.
        254    2    1    2    0    0 -0.20196837571E+03 -0.20828227675E+03  0.33680034628E+03  0.99948975864E+03  0.89519415367E+03 0.  0.
         23    2    4    4    0    0 -0.43986696903E+03 -0.36676406181E+03  0.39059799635E+03  0.69916535678E+03  0.90920701108E+02 0.  0.
         23    2    4    4    0    0  0.23789859332E+03  0.15848178506E+03 -0.53797650067E+02  0.30032440186E+03  0.74755215858E+02 0.  0.
          2    1    3    3  502    0  0.76545205953E+02  0.54139115867E+02 -0.24291547168E+03  0.26038075736E+03  0.00000000000E+00 0. -1.
         -1    1    3    3    0  502  0.12542316976E+03  0.15414316089E+03 -0.28510843354E+03  0.34753115606E+03  0.00000000000E+00 0.  1.
         13    1    5    5    0    0  0.78794670812E+00  0.80834809567E+00  0.11182278473E+02  0.11239111998E+02  0.00000000000E+00 0. -1.
        -13    1    5    5    0    0 -0.44065491574E+03 -0.36757240991E+03  0.37941571788E+03  0.68792624478E+03  0.00000000000E+00 0.  1.
          3    1    6    6  503    0 -0.55123669330E+01  0.54257084099E+01  0.32847023134E+00  0.77416014911E+01  0.00000000000E+00 0. -1.
         -3    1    6    6    0  503  0.24341096025E+03  0.15305607665E+03 -0.54126120299E+02  0.29258280036E+03  0.00000000000E+00 0.  1.
<mgrwt>
<rscale>  0 0.15959867E+04</rscale>
<asrwt>0</asrwt>
<pdfrwt beam="1">  1        2 0.13835579E+00 0.15959867E+04</pdfrwt>
<pdfrwt beam="2">  1       -1 0.10893678E+00 0.15959867E+04</pdfrwt>
<totfact> 0.25100491E+01</totfact>
</mgrwt>
</event>
<event>
12    7  0.1497947E-008  0.2495597E+04  0.7818608E-02  0.8404556E-01
          2   -1    0    0  501    0  0.00000000000E+00  0.00000000000E+00  0.20713638459E+04  0.20713638459E+04  0.00000000000E+00 0. -1.
         -1   -1    0    0    0  501 -0.00000000000E+00 -0.00000000000E+00 -0.75167906151E+03  0.75167906151E+03  0.00000000000E+00 0.  1.
         24    2    1    2    0    0 -0.75593798808E+03 -0.77265054905E+03  0.50040959006E+03  0.11938065701E+04  0.79581758244E+02 0.  0.
        254    2    1    2    0    0  0.75593798808E+03  0.77265054905E+03  0.81927519430E+03  0.16292363373E+04  0.90264504980E+03 0.  0.
         23    2    4    4    0    0  0.82346014562E+03  0.32256507902E+03  0.30992121547E+03  0.94178614150E+03  0.93675689944E+02 0.  0.
         23    2    4    4    0    0 -0.67522157545E+02  0.45008547003E+03  0.50935397883E+03  0.68745019577E+03  0.77524988406E+02 0.  0.
          4    1    3    3  502    0 -0.58035001558E+03 -0.59659764882E+03  0.42141341193E+03  0.93291165654E+03  0.00000000000E+00 0. -1.
         -3    1    3    3    0  502 -0.17558797250E+03 -0.17605290023E+03  0.78996178133E+02  0.26089491357E+03  0.00000000000E+00 0.  1.
         13    1    5    5    0    0  0.41894984241E+03  0.18920127013E+03  0.11787061066E+03  0.47456250582E+03  0.00000000000E+00 0. -1.
        -13    1    5    5    0    0  0.40451030321E+03  0.13336380890E+03  0.19205060481E+03  0.46722363568E+03  0.00000000000E+00 0.  1.
          2    1    6    6  503    0 -0.49982752336E+02  0.21546345693E+03  0.29848999944E+03  0.37150916081E+03  0.00000000000E+00 0. -1.
         -2    1    6    6    0  503 -0.17539405208E+02  0.23462201310E+03  0.21086397939E+03  0.31594103496E+03  0.00000000000E+00 0.  1.
<mgrwt>
<rscale>  0 0.24955968E+04</rscale>
<asrwt>0</asrwt>
<pdfrwt beam="1">  1        2 0.31867136E+00 0.24955968E+04</pdfrwt>
<pdfrwt beam="2">  1       -1 0.11564293E+00 0.24955968E+04</pdfrwt>
<totfact> 0.41909604E+00</totfact>
</mgrwt>
</event>
<event>
12    7  0.1497947E-008  0.1381912E+04  0.7818608E-02  0.8967017E-01
          2   -1    0    0  501    0  0.00000000000E+00  0.00000000000E+00  0.22871324439E+04  0.22871324439E+04  0.00000000000E+00 0. -1.
         -1   -1    0    0    0  501 -0.00000000000E+00 -0.00000000000E+00 -0.20874178597E+03  0.20874178597E+03  0.00000000000E+00 0.  1.
         24    2    1    2    0    0  0.34905936237E+03  0.88628729631E+02  0.31308011377E+03  0.48398252105E+03  0.80761580411E+02 0.  0.
        254    2    1    2    0    0 -0.34905936237E+03 -0.88628729631E+02  0.17653105441E+04  0.20118917088E+04  0.89537111885E+03 0.  0.
         23    2    4    4    0    0 -0.14856619963E+03  0.31213631820E+03  0.27444955029E+03  0.45113936224E+03  0.93290791065E+02 0.  0.
         23    2    4    4    0    0 -0.20049316274E+03 -0.40076504783E+03  0.14908609938E+04  0.15607523465E+04  0.11167476170E+03 0.  0.
          2    1    3    3  502    0  0.59266345813E+02  0.41819892984E+02  0.88201773701E+02  0.11419700556E+03  0.00000000000E+00 0. -1.
         -3    1    3    3    0  502  0.28979301656E+03  0.46808836648E+02  0.22487834007E+03  0.36978551549E+03  0.00000000000E+00 0.  1.
         13    1    5    5    0    0 -0.88306407030E+02  0.26660227143E+03  0.23342824268E+03  0.36518972758E+03  0.00000000000E+00 0. -1.
        -13    1    5    5    0    0 -0.60259792601E+02  0.45534046778E+02  0.41021307609E+02  0.85949634660E+02  0.00000000000E+00 0.  1.
          3    1    6    6  503    0 -0.21424833154E+03 -0.36797255134E+03  0.13933649788E+04  0.14569736134E+04  0.00000000000E+00 0. -1.
         -3    1    6    6    0  503  0.13755168803E+02 -0.32792496498E+02  0.97496015040E+02  0.10377873310E+03  0.00000000000E+00 0.  1.
<mgrwt>
<rscale>  0 0.13819119E+04</rscale>
<asrwt>0</asrwt>
<pdfrwt beam="1">  1        2 0.35186651E+00 0.13819119E+04</pdfrwt>
<pdfrwt beam="2">  1       -1 0.32114123E-01 0.13819119E+04</pdfrwt>
<totfact> 0.46405177E+01</totfact>
</mgrwt>
</event>
<event>
12    7  0.1497947E-008  0.1633153E+04  0.7818608E-02  0.8800436E-01
          2   -1    0    0  501    0  0.00000000000E+00  0.00000000000E+00  0.12739304006E+04  0.12739304006E+04  0.00000000000E+00 0. -1.
         -1   -1    0    0    0  501 -0.00000000000E+00 -0.00000000000E+00 -0.52341708519E+03  0.52341708519E+03  0.00000000000E+00 0.  1.
         24    2    1    2    0    0  0.27291935109E+03 -0.48934386570E+03  0.14812407487E+03  0.58499979389E+03  0.79634328034E+02 0.  0.
        254    2    1    2    0    0 -0.27291935109E+03  0.48934386570E+03  0.60238924050E+03  0.12123476919E+04  0.89048960565E+03 0.  0.
         23    2    4    4    0    0 -0.50763985093E+03  0.63683348203E+02  0.15086431998E+03  0.53997111637E+03  0.83993906796E+02 0.  0.
         23    2    4    4    0    0  0.23472049984E+03  0.42566051750E+03  0.45152492052E+03  0.67237657549E+03  0.10924704210E+03 0.  0.
          4    1    3    3  502    0  0.16908053293E+01 -0.16381940497E+02 -0.73750179804E+01  0.18044879809E+02  0.00000000000E+00 0. -1.
         -3    1    3    3    0  502  0.27122854576E+03 -0.47296192520E+03  0.15549909285E+03  0.56695491408E+03  0.00000000000E+00 0.  1.
         13    1    5    5    0    0 -0.57660221108E+02  0.29534130604E+02  0.36795174691E+02  0.74504032437E+02  0.00000000000E+00 0. -1.
        -13    1    5    5    0    0 -0.44997962982E+03  0.34149217599E+02  0.11406914529E+03  0.46546708393E+03  0.00000000000E+00 0.  1.
          2    1    6    6  503    0 -0.87626690287E+01  0.46139569665E+02  0.50083437438E+02  0.68658538893E+02  0.00000000000E+00 0. -1.
         -2    1    6    6    0  503  0.24348316887E+03  0.37952094783E+03  0.40144148308E+03  0.60371803659E+03  0.00000000000E+00 0.  1.
<mgrwt>
<rscale>  0 0.16331527E+04</rscale>
<asrwt>0</asrwt>
<pdfrwt beam="1">  1        2 0.19598929E+00 0.16331527E+04</pdfrwt>
<pdfrwt beam="2">  1       -1 0.80525706E-01 0.16331527E+04</pdfrwt>
<totfact> 0.28724102E+01</totfact>
</mgrwt>
</event>
<event>
12    7  0.1497947E-008  0.2575992E+04  0.7818608E-02  0.8376402E-01
          2   -1    0    0  501    0  0.00000000000E+00  0.00000000000E+00  0.80818746668E+03  0.80818746668E+03  0.00000000000E+00 0. -1.
         -1   -1    0    0    0  501 -0.00000000000E+00 -0.00000000000E+00 -0.20526593979E+04  0.20526593979E+04  0.00000000000E+00 0.  1.
         24    2    1    2    0    0 -0.39428948548E+02 -0.10924877189E+04 -0.22705650375E+03  0.11193025180E+04  0.78736351952E+02 0.  0.
        254    2    1    2    0    0  0.39428948548E+02  0.10924877189E+04 -0.10174154275E+04  0.17415443466E+04  0.89596791295E+03 0.  0.
         23    2    4    4    0    0  0.27245701504E+03  0.18826662820E-02 -0.28322345754E+03  0.40304249832E+03  0.89414224249E+02 0.  0.
         23    2    4    4    0    0 -0.23302806649E+03  0.10924858362E+04 -0.73419196998E+03  0.13385018483E+04  0.68716569289E+02 0.  0.
          2    1    3    3  502    0 -0.15788906148E+02 -0.90170320655E+03 -0.16149456392E+03  0.91618691130E+03  0.00000000000E+00 0. -1.
         -1    1    3    3    0  502 -0.23640042400E+02 -0.19078451234E+03 -0.65561939827E+02  0.20311560675E+03  0.00000000000E+00 0.  1.
         13    1    5    5    0    0  0.27801570700E+03  0.39658050532E+01 -0.26718584550E+03  0.38561215876E+03  0.00000000000E+00 0.  1.
        -13    1    5    5    0    0 -0.55586919588E+01 -0.39639223869E+01 -0.16037612045E+02  0.17430339557E+02  0.00000000000E+00 0. -1.
          4    1    6    6  503    0 -0.10465941391E+03  0.35995079077E+03 -0.22517889381E+03  0.43729132042E+03  0.00000000000E+00 0. -1.
         -4    1    6    6    0  503 -0.12836865259E+03  0.73253504545E+03 -0.50901307617E+03  0.90121052784E+03  0.00000000000E+00 0.  1.
<mgrwt>
<rscale>  0 0.25759919E+04</rscale>
<asrwt>0</asrwt>
<pdfrwt beam="1">  1        2 0.12433654E+00 0.25759919E+04</pdfrwt>
<pdfrwt beam="2">  1       -1 0.31579375E+00 0.25759919E+04</pdfrwt>
<totfact> 0.89555162E-01</totfact>
</mgrwt>
</event>
<event>
12    7  0.1497947E-008  0.3463848E+04  0.7818608E-02  0.8122411E-01
          2   -1    0    0  501    0  0.00000000000E+00  0.00000000000E+00  0.30548975142E+04  0.30548975142E+04  0.00000000000E+00 0. -1.
         -1   -1    0    0    0  501 -0.00000000000E+00 -0.00000000000E+00 -0.98188562347E+03  0.98188562347E+03  0.00000000000E+00 0.  1.
         24    2    1    2    0    0  0.98462610641E+03 -0.29116531380E+03 -0.48505238674E+03  0.11384131787E+04  0.80267915387E+02 0.  0.
        254    2    1    2    0    0 -0.98462610641E+03  0.29116531380E+03  0.25580642774E+04  0.28983699589E+04  0.89587374216E+03 0.  0.
         23    2    4    4    0    0 -0.78373712142E+03  0.58918070953E+03  0.18970906755E+04  0.21374530180E+04  0.91512781240E+02 0.  0.
         23    2    4    4    0    0 -0.20088898499E+03 -0.29801539573E+03  0.66097360195E+03  0.76091694093E+03  0.11374940937E+03 0.  0.
          4    1    3    3  502    0  0.17942464017E+03 -0.56138554082E+02 -0.55508756313E+02  0.19602540851E+03  0.00000000000E+00 0. -1.
         -3    1    3    3    0  502  0.80520146624E+03 -0.23502675972E+03 -0.42954363042E+03  0.94238777022E+03  0.00000000000E+00 0.  1.
         13    1    5    5    0    0 -0.29188552030E+03  0.17886089339E+03  0.59860728089E+03  0.68957889532E+03  0.00000000000E+00 0.  1.
        -13    1    5    5    0    0 -0.49185160112E+03  0.41031981615E+03  0.12984833946E+04  0.14478741227E+04  0.00000000000E+00 0. -1.
          3    1    6    6  503    0 -0.14920755988E+03 -0.22731774721E+03  0.38469214233E+03  0.47108841898E+03  0.00000000000E+00 0. -1.
         -3    1    6    6    0  503 -0.51681425109E+02 -0.70697648524E+02  0.27628145962E+03  0.28982852195E+03  0.00000000000E+00 0.  1.
<mgrwt>
<rscale>  0 0.34638475E+04</rscale>
<asrwt>0</asrwt>
<pdfrwt beam="1">  1        2 0.46998423E+00 0.34638475E+04</pdfrwt>
<pdfrwt beam="2">  1       -1 0.15105933E+00 0.34638475E+04</pdfrwt>
<totfact> 0.51466460E-01</totfact>
</mgrwt>
</event>
<event>
12    7  0.1497947E-008  0.2207108E+04  0.7818608E-02  0.8515475E-01
          2   -1    0    0  501    0  0.00000000000E+00  0.00000000000E+00  0.16651576753E+04  0.16651576753E+04  0.00000000000E+00 0. -1.
         -1   -1    0    0    0  501 -0.00000000000E+00 -0.00000000000E+00 -0.73136099616E+03  0.73136099616E+03  0.00000000000E+00 0.  1.
         24    2    1    2    0    0  0.83152432049E+03  0.31176731421E+03  0.74000860519E+02  0.89458209336E+03  0.78545786786E+02 0.  0.
        254    2    1    2    0    0 -0.83152432049E+03 -0.31176731421E+03  0.85979581865E+03  0.15019365781E+04  0.85318994438E+03 0.  0.
         23    2    4    4    0    0 -0.90540322207E+03 -0.15967731885E+03  0.41123679026E+03  0.10114664588E+04  0.93256951080E+02 0.  0.
         23    2    4    4    0    0  0.73878901578E+02 -0.15208999536E+03  0.44855902839E+03  0.49047011933E+03  0.10376067280E+03 0.  0.
          2    1    3    3  502    0  0.52653323959E+03  0.19331224185E+03  0.88290902805E+01  0.56096776028E+03  0.00000000000E+00 0. -1.
         -1    1    3    3    0  502  0.30499108091E+03  0.11845507237E+03  0.65171770238E+02  0.33361433308E+03  0.00000000000E+00 0.  1.
         13    1    5    5    0    0 -0.35303135017E+03 -0.72349182092E+02  0.11294464112E+03  0.37765332027E+03  0.00000000000E+00 0. -1.
        -13    1    5    5    0    0 -0.55237187190E+03 -0.87328136761E+02  0.29829214914E+03  0.63381313853E+03  0.00000000000E+00 0.  1.
          2    1    6    6  503    0  0.79300517346E+00  0.40671370231E+01 -0.42568474999E+01  0.59406406563E+01  0.00000000000E+00 0. -1.
         -2    1    6    6    0  503  0.73085896404E+02 -0.15615713238E+03  0.45281587589E+03  0.48452947867E+03  0.00000000000E+00 0.  1.
<mgrwt>
<rscale>  0 0.22071080E+04</rscale>
<asrwt>0</asrwt>
<pdfrwt beam="1">  1        2 0.25617810E+00 0.22071080E+04</pdfrwt>
<pdfrwt beam="2">  1       -1 0.11251708E+00 0.22071080E+04</pdfrwt>
<totfact> 0.77158798E+00</totfact>
</mgrwt>
</event>
<event>
12    7  0.1497947E-008  0.1457227E+04  0.7818608E-02  0.8913406E-01
         -1   -1    0    0    0  501 -0.00000000000E+00  0.00000000000E+00  0.20359933916E+03  0.20359933916E+03  0.00000000000E+00 0.  1.
          2   -1    0    0  501    0  0.00000000000E+00 -0.00000000000E+00 -0.26074608014E+04  0.26074608014E+04  0.00000000000E+00 0. -1.
         24    2    1    2    0    0 -0.27245944201E+03  0.32576995736E+03 -0.43885645690E+03  0.61594599060E+03  0.80213844945E+02 0.  0.
        254    2    1    2    0    0  0.27245944201E+03 -0.32576995736E+03 -0.19650050053E+04  0.21951141500E+04  0.88143136300E+03 0.  0.
         23    2    4    4    0    0  0.20295839066E+03 -0.31705835542E+03 -0.20169494363E+04  0.20538554009E+04  0.92297726545E+02 0.  0.
         23    2    4    4    0    0  0.69501051342E+02 -0.87116019427E+01  0.51944430949E+02  0.14125874902E+03  0.11112840376E+03 0.  0.
          4    1    3    3  502    0 -0.72256269193E+02  0.14552986830E+03 -0.17690015494E+03  0.24019487052E+03  0.00000000000E+00 0. -1.
         -3    1    3    3    0  502 -0.20020317281E+03  0.18024008906E+03 -0.26195630196E+03  0.37575112008E+03  0.00000000000E+00 0.  1.
         13    1    5    5    0    0 -0.34866973305E+01  0.42352647160E+01 -0.37837067418E+02  0.38232684921E+02  0.00000000000E+00 0. -1.
        -13    1    5    5    0    0  0.20644508799E+03 -0.32129362013E+03 -0.19791123689E+04  0.20156227160E+04  0.00000000000E+00 0.  1.
          1    1    6    6  503    0 -0.99224390362E+01  0.36065935491E+01 -0.26760274463E+02  0.28767596403E+02  0.00000000000E+00 0. -1.
         -1    1    6    6    0  503  0.79423490379E+02 -0.12318195492E+02  0.78704705412E+02  0.11249115262E+03  0.00000000000E+00 0.  1.
<mgrwt>
<rscale>  0 0.14572265E+04</rscale>
<asrwt>0</asrwt>
<pdfrwt beam="1">  1        2 0.40114780E+00 0.14572265E+04</pdfrwt>
<pdfrwt beam="2">  1       -1 0.31322977E-01 0.14572265E+04</pdfrwt>
<totfact> 0.31573793E+01</totfact>
</mgrwt>
</event>
<event>
11    7  0.1497947E-008  0.1300225E+04  0.7818608E-02  0.9029387E-01
          2   -1    0    0  501    0  0.00000000000E+00  0.00000000000E+00  0.14315389424E+04  0.14315389424E+04  0.00000000000E+00 0. -1.
         -1   -1    0    0    0  501 -0.00000000000E+00 -0.00000000000E+00 -0.29523889378E+03  0.29523889378E+03  0.00000000000E+00 0.  1.
         24    2    1    2    0    0  0.24694599179E+03 -0.23040302901E+03  0.26575021249E+03  0.43688925679E+03  0.78620408431E+02 0.  0.
        254    2    1    2    0    0 -0.24694599179E+03  0.23040302901E+03  0.87054983618E+03  0.12898885794E+04  0.88988069506E+03 0.  0.
         23    2    4    4    0    0  0.23066984476E+03  0.73085345111E+02  0.69461385928E+03  0.74087972644E+03  0.88680948312E+02 0.  0.
          4    1    3    3  502    0  0.19888293475E+03 -0.18335781651E+03  0.24880884562E+03  0.36753279074E+03  0.00000000000E+00 0. -1.
         -3    1    3    3    0  502  0.48063057030E+02 -0.47045212509E+02  0.16941366863E+02  0.69356466045E+02  0.00000000000E+00 0.  1.
         13    1    5    5    0    0  0.43515278842E+01  0.25198478348E+02  0.53221995131E+02  0.59046421329E+02  0.00000000000E+00 0. -1.
        -13    1    5    5    0    0  0.22631831687E+03  0.47886866763E+02  0.64139186415E+03  0.68183330511E+03  0.00000000000E+00 0.  1.
          2    1    4    4  503    0 -0.52496342136E+02  0.49614969028E+02 -0.95204334181E+01  0.72857050049E+02  0.00000000000E+00 0. -1.
         -2    1    4    4    0  503 -0.42511949441E+03  0.10770271487E+03  0.18545641032E+03  0.47615180294E+03  0.00000000000E+00 0.  1.
<mgrwt>
<rscale>  0 0.13002246E+04</rscale>
<asrwt>0</asrwt>
<pdfrwt beam="1">  1        2 0.22023676E+00 0.13002246E+04</pdfrwt>
<pdfrwt beam="2">  1       -1 0.45421369E-01 0.13002246E+04</pdfrwt>
<totfact> 0.74603784E+01</totfact>
</mgrwt>
</event>
<event>
12    7  0.1497947E-008  0.1959971E+04  0.7818608E-02  0.8625568E-01
         -1   -1    0    0    0  501 -0.00000000000E+00  0.00000000000E+00  0.56254396178E+03  0.56254396178E+03  0.00000000000E+00 0.  1.
          2   -1    0    0  501    0  0.00000000000E+00 -0.00000000000E+00 -0.17071936097E+04  0.17071936097E+04  0.00000000000E+00 0. -1.
         24    2    1    2    0    0 -0.47551166176E+03  0.40112838575E+03 -0.97813299023E+03  0.11619655077E+04  0.80027321463E+02 0.  0.
        254    2    1    2    0    0  0.47551166176E+03 -0.40112838575E+03 -0.16651665766E+03  0.11077720637E+04  0.90134112610E+03 0.  0.
         23    2    4    4    0    0  0.39553231933E+03  0.19271575534E+03  0.64692005080E+02  0.45380507354E+03  0.90381476293E+02 0.  0.
         23    2    4    4    0    0  0.79979342426E+02 -0.59384414109E+03 -0.23120866274E+03  0.65396699020E+03  0.12315770144E+03 0.  0.
          2    1    3    3  502    0 -0.24457459594E+03  0.18976841150E+03 -0.41603686480E+03  0.51857058908E+03  0.00000000000E+00 0. -1.
         -3    1    3    3    0  502 -0.23093706582E+03  0.21135997425E+03 -0.56209612543E+03  0.64339491862E+03  0.00000000000E+00 0.  1.
         13    1    5    5    0    0  0.24875877542E+03  0.95396707533E+02  0.67577616975E+00  0.26642431726E+03  0.00000000000E+00 0.  1.
        -13    1    5    5    0    0  0.14677354392E+03  0.97319047806E+02  0.64016228911E+02  0.18738075628E+03  0.00000000000E+00 0. -1.
          1    1    6    6  503    0  0.36184936576E+02 -0.54470137851E+03 -0.20557035384E+03  0.58332504812E+03  0.00000000000E+00 0. -1.
         -1    1    6    6    0  503  0.43794405850E+02 -0.49142762579E+02 -0.25638308902E+02  0.70641942081E+02  0.00000000000E+00 0.  1.
<mgrwt>
<rscale>  0 0.19599709E+04</rscale>
<asrwt>0</asrwt>
<pdfrwt beam="1">  1        2 0.26264517E+00 0.19599709E+04</pdfrwt>
<pdfrwt beam="2">  1       -1 0.86545227E-01 0.19599709E+04</pdfrwt>
<totfact> 0.13578889E+01</totfact>
</mgrwt>
</event>
<event>
12    7  0.1497947E-008  0.1914210E+04  0.7818608E-02  0.8647815E-01
          2   -1    0    0  501    0  0.00000000000E+00  0.00000000000E+00  0.16720483466E+04  0.16720483466E+04  0.00000000000E+00 0. -1.
         -1   -1    0    0    0  501 -0.00000000000E+00 -0.00000000000E+00 -0.54786113106E+03  0.54786113106E+03  0.00000000000E+00 0.  1.
         24    2    1    2    0    0 -0.29317863233E+03 -0.59970056578E+03  0.81699383879E+03  0.10583848706E+04  0.84291889367E+02 0.  0.
        254    2    1    2    0    0  0.29317863233E+03  0.59970056578E+03  0.30719337674E+03  0.11615246071E+04  0.89954275220E+03 0.  0.
         23    2    4    4    0    0 -0.22477332330E+03 -0.28612991564E+02 -0.71285537541E+02  0.25470433506E+03  0.91928887090E+02 0.  0.
         23    2    4    4    0    0  0.51795195564E+03  0.62831355735E+03  0.37847891428E+03  0.90682027200E+03  0.12658816081E+03 0.  0.
          2    1    3    3  502    0 -0.14290885201E+03 -0.26683871849E+03  0.43444036965E+03  0.52949435922E+03  0.00000000000E+00 0. -1.
         -1    1    3    3    0  502 -0.15026978033E+03 -0.33286184729E+03  0.38255346914E+03  0.52889051137E+03  0.00000000000E+00 0.  1.
         13    1    5    5    0    0 -0.91996380955E+02 -0.27178458288E+02  0.13921958993E+02  0.96932056854E+02  0.00000000000E+00 0.  1.
        -13    1    5    5    0    0 -0.13277694235E+03 -0.14345332758E+01 -0.85207496535E+02  0.15777227821E+03  0.00000000000E+00 0. -1.
          2    1    6    6  503    0  0.61752388910E+00  0.28935251257E+02 -0.68721107297E+00  0.28949997584E+02  0.00000000000E+00 0.  1.
         -2    1    6    6    0  503  0.51733443175E+03  0.59937830609E+03  0.37916612535E+03  0.87787027441E+03  0.00000000000E+00 0. -1.
<mgrwt>
<rscale>  0 0.19142103E+04</rscale>
<asrwt>0</asrwt>
<pdfrwt beam="1">  1        2 0.25723820E+00 0.19142103E+04</pdfrwt>
<pdfrwt beam="2">  1       -1 0.84286329E-01 0.19142103E+04</pdfrwt>
<totfact> 0.15102712E+01</totfact>
</mgrwt>
</event>
<event>
11    7  0.1497947E-008  0.1533493E+04  0.7818608E-02  0.8862481E-01
          2   -1    0    0  501    0  0.00000000000E+00  0.00000000000E+00  0.11525392109E+04  0.11525392109E+04  0.00000000000E+00 0. -1.
         -3   -1    0    0    0  501 -0.00000000000E+00 -0.00000000000E+00 -0.51009108844E+03  0.51009108844E+03  0.00000000000E+00 0.  1.
         24    2    1    2    0    0 -0.35666082634E+03  0.25301130504E+03  0.48162897197E+03  0.65552727430E+03  0.80795267110E+02 0.  0.
        254    2    1    2    0    0  0.35666082634E+03 -0.25301130504E+03  0.16081915049E+03  0.10071030250E+04  0.89284491283E+03 0.  0.
         23    2    4    4    0    0  0.46744248265E+03 -0.92564081717E+02 -0.22156441565E+03  0.53325743150E+03  0.90565524104E+02 0.  0.
          4    1    3    3  502    0 -0.28726139710E+03  0.18073423376E+03  0.32712142782E+03  0.47137289067E+03  0.00000000000E+00 0. -1.
         -3    1    3    3    0  502 -0.69399429231E+02  0.72277071276E+02  0.15450754415E+03  0.18415438363E+03  0.00000000000E+00 0.  1.
         13    1    5    5    0    0  0.37544496603E+03 -0.38770749326E+02 -0.18697174594E+03  0.42121316136E+03  0.00000000000E+00 0.  1.
        -13    1    5    5    0    0  0.91997516621E+02 -0.53793332391E+02 -0.34592669712E+02  0.11204427014E+03  0.00000000000E+00 0. -1.
          3    1    4    4  503    0  0.56220056843E+02 -0.20246862835E+02  0.60288576888E+02  0.84884290356E+02  0.00000000000E+00 0. -1.
         -3    1    4    4    0  503 -0.16700171316E+03 -0.14020036049E+03  0.32209498925E+03  0.38896130319E+03  0.00000000000E+00 0.  1.
<mgrwt>
<rscale>  0 0.15334927E+04</rscale>
<asrwt>0</asrwt>
<pdfrwt beam="1">  1        2 0.17731372E+00 0.15334927E+04</pdfrwt>
<pdfrwt beam="2">  1       -3 0.78475552E-01 0.15334927E+04</pdfrwt>
<totfact> 0.18824589E+01</totfact>
</mgrwt>
</event>
<event>
12    7  0.1497947E-008  0.1318524E+04  0.7818608E-02  0.9015003E-01
          2   -1    0    0  501    0  0.00000000000E+00  0.00000000000E+00  0.24776934252E+04  0.24776934252E+04  0.00000000000E+00 0. -1.
         -1   -1    0    0    0  501 -0.00000000000E+00 -0.00000000000E+00 -0.17541563380E+03  0.17541563380E+03  0.00000000000E+00 0.  1.
         24    2    1    2    0    0 -0.26104041003E+03 -0.59984323365E+02  0.10175780579E+04  0.10551876478E+04  0.78839416008E+02 0.  0.
        254    2    1    2    0    0  0.26104041003E+03  0.59984323365E+02  0.12846997335E+04  0.15979214112E+04  0.91167933851E+03 0.  0.
         23    2    4    4    0    0 -0.28195565958E+02 -0.82434365967E+02  0.12607054887E+04  0.12672572702E+04  0.94721935887E+02 0.  0.
         23    2    4    4    0    0  0.28923597599E+03  0.14241868933E+03  0.23994244876E+02  0.33066414097E+03  0.69444347937E+02 0.  0.
          4    1    3    3  502    0 -0.21884618646E+03 -0.17894364093E+02  0.79380991812E+03  0.82361887284E+03  0.00000000000E+00 0. -1.
         -3    1    3    3    0  502 -0.42194223579E+02 -0.42089959272E+02  0.22376813979E+03  0.23156877501E+03  0.00000000000E+00 0.  1.
         13    1    5    5    0    0 -0.44257170714E+02 -0.18948283357E+01  0.33502564372E+03  0.33794151784E+03  0.00000000000E+00 0.  1.
        -13    1    5    5    0    0  0.16061604757E+02 -0.80539537631E+02  0.92567984495E+03  0.92931575237E+03  0.00000000000E+00 0. -1.
          1    1    6    6  503    0  0.13974276027E+03  0.10475906451E+03  0.34882158380E-01  0.17464965462E+03  0.00000000000E+00 0. -1.
         -1    1    6    6    0  503  0.14949321572E+03  0.37659624826E+02  0.23959362718E+02  0.15601448635E+03  0.00000000000E+00 0.  1.
<mgrwt>
<rscale>  0 0.13185237E+04</rscale>
<asrwt>0</asrwt>
<pdfrwt beam="1">  1        2 0.38118358E+00 0.13185237E+04</pdfrwt>
<pdfrwt beam="2">  1       -1 0.26987022E-01 0.13185237E+04</pdfrwt>
<totfact> 0.49295489E+01</totfact>
</mgrwt>
</event>
<event>
12    7  0.1497947E-008  0.3963730E+04  0.7818608E-02  0.8011904E-01
         -1   -1    0    0    0  501 -0.00000000000E+00  0.00000000000E+00  0.14132691512E+04  0.14132691512E+04  0.00000000000E+00 0.  1.
          2   -1    0    0  501    0  0.00000000000E+00 -0.00000000000E+00 -0.27792215256E+04  0.27792215256E+04  0.00000000000E+00 0. -1.
         24    2    1    2    0    0 -0.95109889201E+03  0.96385156623E+03  0.72849456046E+03  0.15400885096E+04  0.87002004509E+02 0.  0.
        254    2    1    2    0    0  0.95109889201E+03 -0.96385156623E+03 -0.20944469349E+04  0.26524021673E+04  0.90273492775E+03 0.  0.
         23    2    4    4    0    0  0.51417637957E+03 -0.82369885072E+03 -0.19130334378E+04  0.21472788862E+04  0.90843463512E+02 0.  0.
         23    2    4    4    0    0  0.43692251244E+03 -0.14015271551E+03 -0.18141349702E+03  0.50512328105E+03  0.10814160443E+03 0.  0.
          4    1    3    3  502    0 -0.17440729705E+03  0.22494662214E+03  0.14120246917E+03  0.31773735282E+03  0.00000000000E+00 0. -1.
         -3    1    3    3    0  502 -0.77669159496E+03  0.73890494409E+03  0.58729209130E+03  0.12223511568E+04  0.00000000000E+00 0.  1.
         13    1    5    5    0    0  0.14433540917E+03 -0.21830016318E+03 -0.60679940678E+03  0.66082765655E+03  0.00000000000E+00 0. -1.
        -13    1    5    5    0    0  0.36984097040E+03 -0.60539868754E+03 -0.13062340311E+04  0.14864512297E+04  0.00000000000E+00 0.  1.
          3    1    6    6  503    0  0.63644853572E+02 -0.57801111558E+02 -0.56912990040E+02  0.10310540393E+03  0.00000000000E+00 0. -1.
         -3    1    6    6    0  503  0.37327765887E+03 -0.82351603949E+02 -0.12450050698E+03  0.40201787712E+03  0.00000000000E+00 0.  1.
<mgrwt>
<rscale>  0 0.39637296E+04</rscale>
<asrwt>0</asrwt>
<pdfrwt beam="1">  1        2 0.42757254E+00 0.39637296E+04</pdfrwt>
<pdfrwt beam="2">  1       -1 0.21742602E+00 0.39637296E+04</pdfrwt>
<totfact> 0.24494354E-01</totfact>
</mgrwt>
</event>
<event>
12    7  0.1497947E-008  0.1617839E+04  0.7818608E-02  0.8809663E-01
         -1   -1    0    0    0  501 -0.00000000000E+00  0.00000000000E+00  0.79405850975E+03  0.79405850975E+03  0.00000000000E+00 0.  1.
          2   -1    0    0  501    0  0.00000000000E+00 -0.00000000000E+00 -0.82405844924E+03  0.82405844924E+03  0.00000000000E+00 0. -1.
         24    2    1    2    0    0  0.49770123751E+03 -0.13831001063E+03  0.20001373205E+03  0.56003545678E+03  0.82450221226E+02 0.  0.
        254    2    1    2    0    0 -0.49770123751E+03  0.13831001063E+03 -0.23001367154E+03  0.10580815022E+04  0.89431202350E+03 0.  0.
         23    2    4    4    0    0 -0.61582819216E+03  0.30388674377E+03 -0.38227236561E+03  0.79229785031E+03  0.10006101543E+03 0.  0.
         23    2    4    4    0    0  0.11812695464E+03 -0.16557673314E+03  0.15225869407E+03  0.26578365190E+03  0.78029531118E+02 0.  0.
          2    1    3    3  502    0  0.11029653203E+03 -0.64955210505E+02  0.35767350693E+02  0.13290525845E+03  0.00000000000E+00 0. -1.
         -1    1    3    3    0  502  0.38740470549E+03 -0.73354800127E+02  0.16424638136E+03  0.42713019833E+03  0.00000000000E+00 0.  1.
         13    1    5    5    0    0 -0.54429980539E+03  0.24327478102E+03 -0.29931102012E+03  0.66710717579E+03  0.00000000000E+00 0.  1.
        -13    1    5    5    0    0 -0.71528386767E+02  0.60611962757E+02 -0.82961345482E+02  0.12519067452E+03  0.00000000000E+00 0. -1.
          4    1    6    6  503    0  0.27532532683E+02 -0.39586978140E+02  0.82691356435E+02  0.95723715051E+02  0.00000000000E+00 0. -1.
         -4    1    6    6    0  503  0.90594421960E+02 -0.12598975500E+03  0.69567337637E+02  0.17005993685E+03  0.00000000000E+00 0.  1.
<mgrwt>
<rscale>  0 0.16178388E+04</rscale>
<asrwt>0</asrwt>
<pdfrwt beam="1">  1        2 0.12677822E+00 0.16178388E+04</pdfrwt>
<pdfrwt beam="2">  1       -1 0.12216285E+00 0.16178388E+04</pdfrwt>
<totfact> 0.21444582E+01</totfact>
</mgrwt>
</event>
<event>
12    7  0.1497947E-008  0.1444283E+04  0.7818608E-02  0.8922374E-01
          2   -1    0    0  501    0  0.00000000000E+00  0.00000000000E+00  0.48108968529E+03  0.48108968529E+03  0.00000000000E+00 0. -1.
         -1   -1    0    0    0  501 -0.00000000000E+00 -0.00000000000E+00 -0.10839731955E+04  0.10839731955E+04  0.00000000000E+00 0.  1.
         24    2    1    2    0    0 -0.48384493267E+02 -0.63779629972E+02 -0.64762697545E+03  0.65756820645E+03  0.81032995844E+02 0.  0.
        254    2    1    2    0    0  0.48384493267E+02  0.63779629972E+02  0.44743465194E+02  0.90749467438E+03  0.90284866172E+03 0.  0.
         23    2    4    4    0    0 -0.10837543847E+03  0.43882626982E+03  0.12981323574E+03  0.47905481428E+03  0.91259564781E+02 0.  0.
         23    2    4    4    0    0  0.15675993174E+03 -0.37504663985E+03 -0.85069770544E+02  0.42843986010E+03  0.10530996917E+03 0.  0.
          2    1    3    3  502    0 -0.44360941021E+02  0.22956892153E+01 -0.18668210652E+03  0.19189416919E+03  0.00000000000E+00 0. -1.
         -1    1    3    3    0  502 -0.40235522464E+01 -0.66075319187E+02 -0.46094486893E+03  0.46567403726E+03  0.00000000000E+00 0.  1.
         13    1    5    5    0    0 -0.67161870524E+02  0.38694075098E+03  0.12693450961E+03  0.41273021618E+03  0.00000000000E+00 0. -1.
        -13    1    5    5    0    0 -0.41213567950E+02  0.51885518839E+02  0.28787261249E+01  0.66324598094E+02  0.00000000000E+00 0.  1.
          4    1    6    6  503    0  0.12915443437E+03 -0.36330998316E+03 -0.61865305241E+02  0.39051546420E+03  0.00000000000E+00 0. -1.
         -4    1    6    6    0  503  0.27605497367E+02 -0.11736656683E+02 -0.23204465304E+02  0.37924395908E+02  0.00000000000E+00 0.  1.
<mgrwt>
<rscale>  0 0.14442830E+04</rscale>
<asrwt>0</asrwt>
<pdfrwt beam="1">  1        2 0.74013798E-01 0.14442830E+04</pdfrwt>
<pdfrwt beam="2">  1       -1 0.16676511E+00 0.14442830E+04</pdfrwt>
<totfact> 0.18574187E+01</totfact>
</mgrwt>
</event>
<event>
12    7  0.1497947E-008  0.1398904E+04  0.7818608E-02  0.8954612E-01
          2   -1    0    0  501    0  0.00000000000E+00  0.00000000000E+00  0.10940012992E+04  0.10940012992E+04  0.00000000000E+00 0. -1.
         -1   -1    0    0    0  501 -0.00000000000E+00 -0.00000000000E+00 -0.44719605847E+03  0.44719605847E+03  0.00000000000E+00 0.  1.
         24    2    1    2    0    0  0.22704390555E+03  0.28553615170E+03 -0.11072441337E+02  0.37343996494E+03  0.79088428267E+02 0.  0.
        254    2    1    2    0    0 -0.22704390555E+03 -0.28553615170E+03  0.65787768206E+03  0.11677573927E+04  0.89318220691E+03 0.  0.
         23    2    4    4    0    0  0.23522813199E+03  0.11130864126E+03  0.42714728688E+03  0.50807868299E+03  0.89259485303E+02 0.  0.
         23    2    4    4    0    0 -0.46227203754E+03 -0.39684479295E+03  0.23073039518E+03  0.65967870974E+03  0.10372202486E+03 0.  0.
          4    1    3    3  502    0  0.31480026582E+02  0.11723034832E+02  0.13184319676E+02  0.36086672118E+02  0.00000000000E+00 0. -1.
         -3    1    3    3    0  502  0.19556387896E+03  0.27381311686E+03 -0.24256761014E+02  0.33735329282E+03  0.00000000000E+00 0.  1.
         13    1    5    5    0    0  0.32721942021E+02 -0.93155344272E+01  0.94085521822E+02  0.10004793895E+03  0.00000000000E+00 0.  1.
        -13    1    5    5    0    0  0.20250618997E+03  0.12062417568E+03  0.33306176506E+03  0.40803074404E+03  0.00000000000E+00 0. -1.
          3    1    6    6  503    0 -0.40216525553E+03 -0.38085100111E+03  0.22265394171E+03  0.59695825278E+03  0.00000000000E+00 0. -1.
         -3    1    6    6    0  503 -0.60106782007E+02 -0.15993791842E+02  0.80764534709E+01  0.62720456961E+02  0.00000000000E+00 0.  1.
<mgrwt>
<rscale>  0 0.13989040E+04</rscale>
<asrwt>0</asrwt>
<pdfrwt beam="1">  1        2 0.16830789E+00 0.13989040E+04</pdfrwt>
<pdfrwt beam="2">  1       -1 0.68799394E-01 0.13989040E+04</pdfrwt>
<totfact> 0.52156855E+01</totfact>
</mgrwt>
</event>
<event>
11    7  0.1497947E-008  0.1549536E+04  0.7818608E-02  0.8852164E-01
          4   -1    0    0  501    0  0.00000000000E+00  0.00000000000E+00  0.72952507183E+03  0.72952507183E+03  0.00000000000E+00 0. -1.
         -3   -1    0    0    0  501 -0.00000000000E+00 -0.00000000000E+00 -0.82281634138E+03  0.82281634138E+03  0.00000000000E+00 0.  1.
         24    2    1    2    0    0 -0.26358411138E+03  0.18828373531E+03  0.36598834501E+03  0.49538472063E+03  0.80815864774E+02 0.  0.
        254    2    1    2    0    0  0.26358411138E+03 -0.18828373531E+03 -0.45927961456E+03  0.10569566926E+04  0.89514933775E+03 0.  0.
         23    2    4    4    0    0 -0.24463816638E+02  0.32128975673E+03 -0.77478728400E+02  0.34400914494E+03  0.92269996983E+02 0.  0.
          4    1    3    3  502    0 -0.18576948691E+03  0.16596294625E+03  0.30628798854E+03  0.39479910552E+03  0.00000000000E+00 0. -1.
         -1    1    3    3    0  502 -0.77814624467E+02  0.22320789064E+02  0.59700356476E+02  0.10058561512E+03  0.00000000000E+00 0.  1.
         13    1    5    5    0    0 -0.35920562965E+01  0.26320372869E+03 -0.27636091618E+02  0.26467500680E+03  0.00000000000E+00 0. -1.
        -13    1    5    5    0    0 -0.20871760341E+02  0.58086028047E+02 -0.49842636781E+02  0.79334138146E+02  0.00000000000E+00 0.  1.
          4    1    4    4  503    0  0.17679333279E+03 -0.42459964189E+03 -0.26636423137E+03  0.53149848745E+03  0.00000000000E+00 0. -1.
         -4    1    4    4    0  503  0.11125459523E+03 -0.84973850155E+02 -0.11543665479E+03  0.18144906018E+03  0.00000000000E+00 0.  1.
<mgrwt>
<rscale>  0 0.15495356E+04</rscale>
<asrwt>0</asrwt>
<pdfrwt beam="1">  1        4 0.11223463E+00 0.15495356E+04</pdfrwt>
<pdfrwt beam="2">  1       -3 0.12658713E+00 0.15495356E+04</pdfrwt>
<totfact> 0.68167572E-01</totfact>
</mgrwt>
</event>
<event>
12    7  0.1497947E-008  0.1549059E+04  0.7818608E-02  0.8852469E-01
          4   -1    0    0  501    0  0.00000000000E+00  0.00000000000E+00  0.18852470550E+04  0.18852470550E+04  0.00000000000E+00 0. -1.
         -3   -1    0    0    0  501 -0.00000000000E+00 -0.00000000000E+00 -0.31820555704E+03  0.31820555704E+03  0.00000000000E+00 0.  1.
         24    2    1    2    0    0 -0.45906244803E+03  0.81531603325E+02  0.82139603179E+03  0.94801878338E+03  0.81623765332E+02 0.  0.
        254    2    1    2    0    0  0.45906244803E+03 -0.81531603325E+02  0.74564546612E+03  0.12554338286E+04  0.89595825983E+03 0.  0.
         23    2    4    4    0    0  0.48089291589E+02 -0.36702783711E+03  0.62004496793E+03  0.72809449522E+03  0.92972138504E+02 0.  0.
         23    2    4    4    0    0  0.41097315644E+03  0.28549623378E+03  0.12560049819E+03  0.52733933340E+03  0.10910661112E+03 0.  0.
          2    1    3    3  502    0 -0.30271262194E+03  0.26574188172E+02  0.58644707167E+03  0.66050078489E+03  0.00000000000E+00 0. -1.
         -1    1    3    3    0  502 -0.15634982608E+03  0.54957415154E+02  0.23494896012E+03  0.28751799849E+03  0.00000000000E+00 0.  1.
         13    1    5    5    0    0  0.41863442874E+01 -0.99932861263E+02  0.25286142532E+03  0.27192462678E+03  0.00000000000E+00 0.  1.
        -13    1    5    5    0    0  0.43902947302E+02 -0.26709497584E+03  0.36718354261E+03  0.45616986843E+03  0.00000000000E+00 0. -1.
          3    1    6    6  503    0  0.23573969841E+03  0.22647387071E+03  0.70743794744E+02  0.33446719423E+03  0.00000000000E+00 0. -1.
         -3    1    6    6    0  503  0.17523345803E+03  0.59022363067E+02  0.54856703447E+02  0.19287213917E+03  0.00000000000E+00 0.  1.
<mgrwt>
<rscale>  0 0.15490592E+04</rscale>
<asrwt>0</asrwt>
<pdfrwt beam="1">  1        4 0.29003800E+00 0.15490592E+04</pdfrwt>
<pdfrwt beam="2">  1       -3 0.48954702E-01 0.15490592E+04</pdfrwt>
<totfact> 0.32624883E-01</totfact>
</mgrwt>
</event>
<event>
12    7  0.1497947E-008  0.1768155E+04  0.7818608E-02  0.8723420E-01
          2   -1    0    0  501    0  0.00000000000E+00  0.00000000000E+00  0.23783571559E+04  0.23783571559E+04  0.00000000000E+00 0. -1.
         -1   -1    0    0    0  501 -0.00000000000E+00 -0.00000000000E+00 -0.32862710065E+03  0.32862710065E+03  0.00000000000E+00 0.  1.
         24    2    1    2    0    0 -0.55462019537E+03 -0.29826372200E+03  0.13897355506E+04  0.15280372186E+04  0.83474738376E+02 0.  0.
        254    2    1    2    0    0  0.55462019537E+03  0.29826372200E+03  0.65999450472E+03  0.11789470380E+04  0.74683235278E+03 0.  0.
         23    2    4    4    0    0  0.66726895949E+03  0.13341290806E+03  0.65741704605E+03  0.95154893829E+03  0.10100168901E+03 0.  0.
         23    2    4    4    0    0 -0.11264876413E+03  0.16485081394E+03  0.25774586640E+01  0.22739809970E+03  0.10880127544E+03 0.  0.
          2    1    3    3  502    0 -0.51343084265E+03 -0.26151550661E+03  0.12132800079E+04  0.13431492724E+04  0.00000000000E+00 0. -1.
         -1    1    3    3    0  502 -0.41189352716E+02 -0.36748215393E+02  0.17645554267E+03  0.18488794620E+03  0.00000000000E+00 0.  1.
         13    1    5    5    0    0  0.19932055832E+03  0.77118732649E+02  0.24652267561E+03  0.32626586319E+03  0.00000000000E+00 0.  1.
        -13    1    5    5    0    0  0.46794840117E+03  0.56294175412E+02  0.41089437044E+03  0.62528307510E+03  0.00000000000E+00 0. -1.
          1    1    6    6  503    0 -0.54914587435E+02  0.12965589422E+03  0.44705075191E+02  0.14773221236E+03  0.00000000000E+00 0. -1.
         -1    1    6    6    0  503 -0.57734176691E+02  0.35194919717E+02 -0.42127616527E+02  0.79665887344E+02  0.00000000000E+00 0.  1.
<mgrwt>
<rscale>  0 0.17681545E+04</rscale>
<asrwt>0</asrwt>
<pdfrwt beam="1">  1        2 0.36590109E+00 0.17681545E+04</pdfrwt>
<pdfrwt beam="2">  1       -1 0.50558017E-01 0.17681545E+04</pdfrwt>
<totfact> 0.17339297E+01</totfact>
</mgrwt>
</event>
<event>
12    7  0.1497947E-008  0.2591927E+04  0.7818608E-02  0.8370949E-01
         -1   -1    0    0    0  501 -0.00000000000E+00  0.00000000000E+00  0.67167566661E+03  0.67167566661E+03  0.00000000000E+00 0.  1.
          2   -1    0    0  501    0  0.00000000000E+00 -0.00000000000E+00 -0.25004942414E+04  0.25004942414E+04  0.00000000000E+00 0. -1.
         24    2    1    2    0    0  0.10514195361E+04 -0.43708485467E+03 -0.79726273472E+03  0.13923727849E+04  0.80919051249E+02 0.  0.
        254    2    1    2    0    0 -0.10514195361E+04  0.43708485467E+03 -0.10315558401E+04  0.17797971232E+04  0.89835635316E+03 0.  0.
         23    2    4    4    0    0 -0.79141583453E+03 -0.12671665534E+03 -0.69361345480E+03  0.10638227052E+04  0.90680701015E+02 0.  0.
         23    2    4    4    0    0 -0.26000370157E+03  0.56380151001E+03 -0.33794238530E+03  0.71597441795E+03  0.11375519265E+03 0.  0.
          4    1    3    3  502    0  0.19653580931E+03 -0.74737718328E+02 -0.11087525320E+03  0.23770858767E+03  0.00000000000E+00 0. -1.
         -3    1    3    3    0  502  0.85488372680E+03 -0.36234713634E+03 -0.68638748152E+03  0.11546641972E+04  0.00000000000E+00 0.  1.
         13    1    5    5    0    0 -0.32639051801E+03 -0.44793429635E+02 -0.34386047806E+03  0.47621135009E+03  0.00000000000E+00 0.  1.
        -13    1    5    5    0    0 -0.46502531652E+03 -0.81923225703E+02 -0.34975297674E+03  0.58761135511E+03  0.00000000000E+00 0. -1.
          1    1    6    6  503    0 -0.46860353467E+02  0.17520199646E+03 -0.14667837279E+03  0.23325131797E+03  0.00000000000E+00 0. -1.
         -1    1    6    6    0  503 -0.21314334810E+03  0.38859951355E+03 -0.19126401251E+03  0.48272309998E+03  0.00000000000E+00 0.  1.
<mgrwt>
<rscale>  0 0.25919268E+04</rscale>
<asrwt>0</asrwt>
<pdfrwt beam="1">  1        2 0.38469143E+00 0.25919268E+04</pdfrwt>
<pdfrwt beam="2">  1       -1 0.10333472E+00 0.25919268E+04</pdfrwt>
<totfact> 0.30935415E+00</totfact>
</mgrwt>
</event>
<event>
11    7  0.1497947E-008  0.2699602E+04  0.7818608E-02  0.8335134E-01
          2   -1    0    0  501    0  0.00000000000E+00  0.00000000000E+00  0.15695036918E+04  0.15695036918E+04  0.00000000000E+00 0. -1.
         -1   -1    0    0    0  501 -0.00000000000E+00 -0.00000000000E+00 -0.11608529073E+04  0.11608529073E+04  0.00000000000E+00 0.  1.
         24    2    1    2    0    0 -0.10204719128E+04  0.46805480592E+03  0.59621887433E+03  0.12737045482E+04  0.80050633112E+02 0.  0.
        254    2    1    2    0    0  0.10204719128E+04 -0.46805480592E+03 -0.18756808986E+03  0.14566520509E+04  0.90896379632E+03 0.  0.
         23    2    4    4    0    0  0.58817171648E+03 -0.68284470193E+03 -0.28022730426E+03  0.94802150155E+03  0.89412361147E+02 0.  0.
          2    1    3    3  502    0 -0.23233341066E+02  0.12548923170E+02  0.29348638873E+02  0.39479187093E+02  0.00000000000E+00 0. -1.
         -1    1    3    3    0  502 -0.99723857173E+03  0.45550588275E+03  0.56687023546E+03  0.12342253611E+04  0.00000000000E+00 0.  1.
         13    1    5    5    0    0  0.15369405344E+02 -0.47794645851E+02 -0.10610440447E+02  0.51314016011E+02  0.00000000000E+00 0. -1.
        -13    1    5    5    0    0  0.57280231114E+03 -0.63505005608E+03 -0.26961686381E+03  0.89670748554E+03  0.00000000000E+00 0.  1.
          1    1    4    4  503    0  0.20826838621E+03  0.11892085748E+03 -0.19007603639E+02  0.24058092201E+03  0.00000000000E+00 0. -1.
         -1    1    4    4    0  503  0.22403181010E+03  0.95869038524E+02  0.11166681804E+03  0.26804962738E+03  0.00000000000E+00 0.  1.
<mgrwt>
<rscale>  0 0.26996021E+04</rscale>
<asrwt>0</asrwt>
<pdfrwt beam="1">  1        2 0.24146211E+00 0.26996021E+04</pdfrwt>
<pdfrwt beam="2">  1       -1 0.17859276E+00 0.26996021E+04</pdfrwt>
<totfact> 0.24686405E+00</totfact>
</mgrwt>
</event>
<event>
12    7  0.1497947E-008  0.1484449E+04  0.7818608E-02  0.8894860E-01
          2   -1    0    0  501    0  0.00000000000E+00  0.00000000000E+00  0.71541651871E+03  0.71541651871E+03  0.00000000000E+00 0. -1.
         -1   -1    0    0    0  501 -0.00000000000E+00 -0.00000000000E+00 -0.77003745168E+03  0.77003745168E+03  0.00000000000E+00 0.  1.
         24    2    1    2    0    0 -0.33467476267E+03  0.14674360081E+02 -0.34305255288E+03  0.48607508724E+03  0.79758402621E+02 0.  0.
        254    2    1    2    0    0  0.33467476267E+03 -0.14674360081E+02  0.28843161991E+03  0.99937888316E+03  0.89629393567E+03 0.  0.
         23    2    4    4    0    0  0.13746493492E+03 -0.37052578528E+03  0.39316975348E+03  0.56515995028E+03  0.92937336189E+02 0.  0.
         23    2    4    4    0    0  0.19720982775E+03  0.35585142520E+03 -0.10473813357E+03  0.43421893288E+03  0.10979094709E+03 0.  0.
          4    1    3    3  502    0 -0.15481388978E+03  0.42155436106E+02 -0.18673097979E+03  0.24619683198E+03  0.00000000000E+00 0. -1.
         -3    1    3    3    0  502 -0.17986087289E+03 -0.27481076024E+02 -0.15632157308E+03  0.23987825526E+03  0.00000000000E+00 0.  1.
         13    1    5    5    0    0  0.44639341760E+02 -0.24514632806E+03  0.22430091424E+03  0.33526152944E+03  0.00000000000E+00 0.  1.
        -13    1    5    5    0    0  0.92825593160E+02 -0.12537945723E+03  0.16886883924E+03  0.22989842084E+03  0.00000000000E+00 0. -1.
          4    1    6    6  503    0 -0.78055637990E+00  0.36181928682E+02 -0.37724679011E+02  0.52277075644E+02  0.00000000000E+00 0. -1.
         -4    1    6    6    0  503  0.19799038413E+03  0.31966949652E+03 -0.67013454556E+02  0.38194185723E+03  0.00000000000E+00 0.  1.
<mgrwt>
<rscale>  0 0.14844494E+04</rscale>
<asrwt>0</asrwt>
<pdfrwt beam="1">  1        2 0.11006408E+00 0.14844494E+04</pdfrwt>
<pdfrwt beam="2">  1       -1 0.11846730E+00 0.14844494E+04</pdfrwt>
<totfact> 0.28136920E+01</totfact>
</mgrwt>
</event>
<event>
11    7  0.1497947E-008  0.1345612E+04  0.7818608E-02  0.8994156E-01
          2   -1    0    0  501    0  0.00000000000E+00  0.00000000000E+00  0.11005150304E+04  0.11005150304E+04  0.00000000000E+00 0. -1.
         -1   -1    0    0    0  501 -0.00000000000E+00 -0.00000000000E+00 -0.41132391174E+03  0.41132391174E+03  0.00000000000E+00 0.  1.
         24    2    1    2    0    0 -0.32246176921E+03 -0.53871020503E+02  0.10192328574E+02  0.33649454119E+03  0.79000083788E+02 0.  0.
        254    2    1    2    0    0  0.32246176921E+03  0.53871020503E+02  0.67899879010E+03  0.11753444010E+04  0.90194868174E+03 0.  0.
         23    2    4    4    0    0  0.27415675149E+03 -0.30592645926E+03  0.52095661405E+03  0.67040656395E+03  0.96417033778E+02 0.  0.
          4    1    3    3  502    0 -0.10913857928E+03 -0.42848684243E+02 -0.25329388685E+02  0.11995339578E+03  0.00000000000E+00 0. -1.
         -3    1    3    3    0  502 -0.21332318992E+03 -0.11022336260E+02  0.35521717259E+02  0.21654114541E+03  0.00000000000E+00 0.  1.
         13    1    5    5    0    0  0.25764119609E+03 -0.24585265005E+03  0.47141011695E+03  0.59080454452E+03  0.00000000000E+00 0. -1.
        -13    1    5    5    0    0  0.16515555400E+02 -0.60073809207E+02  0.49546497100E+02  0.79602019432E+02  0.00000000000E+00 0.  1.
          2    1    4    4  503    0 -0.59854576885E+02  0.32814900900E+03  0.30825672092E+02  0.33498442433E+03  0.00000000000E+00 0. -1.
         -2    1    4    4    0  503  0.10815959460E+03  0.31648470762E+02  0.12721650395E+03  0.16995341269E+03  0.00000000000E+00 0.  1.
<mgrwt>
<rscale>  0 0.13456123E+04</rscale>
<asrwt>0</asrwt>
<pdfrwt beam="1">  1        2 0.16931000E+00 0.13456123E+04</pdfrwt>
<pdfrwt beam="2">  1       -1 0.63280602E-01 0.13456123E+04</pdfrwt>
<totfact> 0.61446539E+01</totfact>
</mgrwt>
</event>
<event>
12    7  0.1497947E-008  0.1653651E+04  0.7818608E-02  0.8788250E-01
          2   -1    0    0  501    0  0.00000000000E+00  0.00000000000E+00  0.74564216601E+03  0.74564216601E+03  0.00000000000E+00 0. -1.
         -1   -1    0    0    0  501 -0.00000000000E+00 -0.00000000000E+00 -0.91684768747E+03  0.91684768747E+03  0.00000000000E+00 0.  1.
         24    2    1    2    0    0 -0.18816985670E+03 -0.66242699242E+02  0.49577471314E+03  0.53997912778E+03  0.77387996970E+02 0.  0.
        254    2    1    2    0    0  0.18816985670E+03  0.66242699242E+02 -0.66698023460E+03  0.11225107257E+04  0.88055193248E+03 0.  0.
         23    2    4    4    0    0  0.21529867124E+02  0.44462533955E+03 -0.49140759875E+03  0.66940304809E+03  0.91998831164E+02 0.  0.
         23    2    4    4    0    0  0.16663998957E+03 -0.37838264031E+03 -0.17557263585E+03  0.45310767761E+03  0.59485363264E+02 0.  0.
          4    1    3    3  502    0 -0.98948665985E+02  0.18692625702E+01  0.18956133105E+03  0.21384066702E+03  0.00000000000E+00 0. -1.
         -3    1    3    3    0  502 -0.89221190712E+02 -0.68111961812E+02  0.30621338209E+03  0.32613846075E+03  0.00000000000E+00 0.  1.
         13    1    5    5    0    0 -0.21312539696E+02  0.89188347477E+02 -0.63791554215E+02  0.11170563130E+03  0.00000000000E+00 0. -1.
        -13    1    5    5    0    0  0.42842406819E+02  0.35543699207E+03 -0.42761604454E+03  0.55769741680E+03  0.00000000000E+00 0.  1.
          3    1    6    6  503    0  0.79226406811E+02 -0.11515737802E+03 -0.47737565815E+02  0.14770551932E+03  0.00000000000E+00 0. -1.
         -3    1    6    6    0  503  0.87413582762E+02 -0.26322526229E+03 -0.12783507004E+03  0.30540215829E+03  0.00000000000E+00 0.  1.
<mgrwt>
<rscale>  0 0.16536509E+04</rscale>
<asrwt>0</asrwt>
<pdfrwt beam="1">  1        2 0.11471418E+00 0.16536509E+04</pdfrwt>
<pdfrwt beam="2">  1       -1 0.14105349E+00 0.16536509E+04</pdfrwt>
<totfact> 0.16936069E+01</totfact>
</mgrwt>
</event>
<event>
11    7  0.1497947E-008  0.1206714E+04  0.7818608E-02  0.9107000E-01
          2   -1    0    0  501    0  0.00000000000E+00  0.00000000000E+00  0.14816046447E+04  0.14816046447E+04  0.00000000000E+00 0. -1.
         -1   -1    0    0    0  501 -0.00000000000E+00 -0.00000000000E+00 -0.24570637212E+03  0.24570637212E+03  0.00000000000E+00 0.  1.
         24    2    1    2    0    0 -0.58843012998E+02 -0.23397222904E+03  0.40659522175E+03  0.47942793952E+03  0.79535971110E+02 0.  0.
        254    2    1    2    0    0  0.58843012998E+02  0.23397222904E+03  0.82930305084E+03  0.12478830773E+04  0.90070146016E+03 0.  0.
         23    2    4    4    0    0  0.13551953179E+03  0.55415889630E+03  0.51350246779E+03  0.77290777063E+03  0.90796539704E+02 0.  0.
          2    1    3    3  502    0 -0.29552699036E+02 -0.20370126776E+03  0.37102632261E+03  0.42429718427E+03  0.00000000000E+00 0. -1.
         -1    1    3    3    0  502 -0.29290313961E+02 -0.30270961281E+02  0.35568899148E+02  0.55130755259E+02  0.00000000000E+00 0.  1.
         13    1    5    5    0    0  0.36886196647E+02  0.33697423692E+03  0.31005031902E+03  0.45939463229E+03  0.00000000000E+00 0. -1.
        -13    1    5    5    0    0  0.98633335139E+02  0.21718465938E+03  0.20345214877E+03  0.31351313834E+03  0.00000000000E+00 0.  1.
          3    1    4    4  503    0 -0.30774154757E+02 -0.31634569069E+02 -0.81982190084E+00  0.44141439364E+02  0.00000000000E+00 0. -1.
         -3    1    4    4    0  503 -0.45902364031E+02 -0.28855209819E+03  0.31662040494E+03  0.43083386731E+03  0.00000000000E+00 0.  1.
<mgrwt>
<rscale>  0 0.12067141E+04</rscale>
<asrwt>0</asrwt>
<pdfrwt beam="1">  1        2 0.22793917E+00 0.12067141E+04</pdfrwt>
<pdfrwt beam="2">  1       -1 0.37800981E-01 0.12067141E+04</pdfrwt>
<totfact> 0.98623758E+01</totfact>
</mgrwt>
</event>
<event>
12    7  0.1497947E-008  0.3417500E+04  0.7818608E-02  0.8133625E-01
         -1   -1    0    0    0  501 -0.00000000000E+00  0.00000000000E+00  0.18685913831E+04  0.18685913831E+04  0.00000000000E+00 0.  1.
          2   -1    0    0  501    0  0.00000000000E+00 -0.00000000000E+00 -0.15625811824E+04  0.15625811824E+04  0.00000000000E+00 0. -1.
         24    2    1    2    0    0  0.49771078607E+03 -0.12262424874E+04 -0.73689808371E+03  0.15166737879E+04  0.76771926270E+02 0.  0.
        254    2    1    2    0    0 -0.49771078607E+03  0.12262424874E+04  0.10429082844E+04  0.19144987775E+04  0.90898911699E+03 0.  0.
         23    2    4    4    0    0  0.16784959239E+03  0.27659112211E+03 -0.24247893607E+02  0.33690660274E+03  0.90785263804E+02 0.  0.
         23    2    4    4    0    0 -0.66556037847E+03  0.94965136532E+03  0.10671561780E+04  0.15775921748E+04  0.71877872620E+02 0.  0.
          4    1    3    3  502    0  0.11349075367E+02 -0.43790108312E+02 -0.11568300621E+02  0.46692619084E+02  0.00000000000E+00 0. -1.
         -3    1    3    3    0  502  0.48636171071E+03 -0.11824523791E+04 -0.72532978308E+03  0.14699811688E+04  0.00000000000E+00 0.  1.
         13    1    5    5    0    0 -0.11210304415E+02  0.12049684468E+02  0.83462705406E+00  0.16479151167E+02  0.00000000000E+00 0.  1.
        -13    1    5    5    0    0  0.17905989681E+03  0.26454143765E+03 -0.25082520662E+02  0.32042745157E+03  0.00000000000E+00 0. -1.
          3    1    6    6  503    0 -0.53284437913E+03  0.70895964953E+03  0.80372271812E+03  0.11968780743E+04  0.00000000000E+00 0. -1.
         -3    1    6    6    0  503 -0.13271599934E+03  0.24069171579E+03  0.26343345989E+03  0.38071410050E+03  0.00000000000E+00 0.  1.
<mgrwt>
<rscale>  0 0.34174995E+04</rscale>
<asrwt>0</asrwt>
<pdfrwt beam="1">  1        2 0.24039711E+00 0.34174995E+04</pdfrwt>
<pdfrwt beam="2">  1       -1 0.28747560E+00 0.34174995E+04</pdfrwt>
<totfact> 0.43878024E-01</totfact>
</mgrwt>
</event>
<event>
12    7  0.1497947E-008  0.1269588E+04  0.7818608E-02  0.9054036E-01
         -1   -1    0    0    0  501 -0.00000000000E+00  0.00000000000E+00  0.23419136662E+03  0.23419136662E+03  0.00000000000E+00 0.  1.
          2   -1    0    0  501    0  0.00000000000E+00 -0.00000000000E+00 -0.17206584661E+04  0.17206584661E+04  0.00000000000E+00 0. -1.
         24    2    1    2    0    0 -0.16467476533E+03 -0.28670833856E+03 -0.51706132612E+03  0.61921989784E+03  0.82227836989E+02 0.  0.
        254    2    1    2    0    0  0.16467476533E+03  0.28670833856E+03 -0.96940577337E+03  0.13356299349E+04  0.85722827754E+03 0.  0.
         23    2    4    4    0    0 -0.29984140925E+03  0.20706371872E+03 -0.66454007549E+03  0.76330696635E+03  0.90795146495E+02 0.  0.
         23    2    4    4    0    0  0.46451617458E+03  0.79644619841E+02 -0.30486569788E+03  0.57232296855E+03  0.11176736854E+03 0.  0.
          4    1    3    3  502    0 -0.17144372960E+03 -0.28272817762E+03 -0.51313913445E+03  0.61044241836E+03  0.00000000000E+00 0. -1.
         -3    1    3    3    0  502  0.67689642704E+01 -0.39801609428E+01 -0.39221916733E+01  0.87774794757E+01  0.00000000000E+00 0.  1.
         13    1    5    5    0    0 -0.30486008933E+03  0.20935407099E+03 -0.65740679055E+03  0.75428939365E+03  0.00000000000E+00 0.  1.
        -13    1    5    5    0    0  0.50186800828E+01 -0.22903522722E+01 -0.71332849426E+01  0.90175726988E+01  0.00000000000E+00 0. -1.
          1    1    6    6  503    0  0.28089347283E+03  0.88157968835E+02 -0.14256039658E+03  0.32710309876E+03  0.00000000000E+00 0. -1.
         -1    1    6    6    0  503  0.18362270175E+03 -0.85133489941E+01 -0.16230530129E+03  0.24521986978E+03  0.00000000000E+00 0.  1.
<mgrwt>
<rscale>  0 0.12695879E+04</rscale>
<asrwt>0</asrwt>
<pdfrwt beam="1">  1        2 0.26471669E+00 0.12695879E+04</pdfrwt>
<pdfrwt beam="2">  1       -1 0.36029441E-01 0.12695879E+04</pdfrwt>
<totfact> 0.78710199E+01</totfact>
</mgrwt>
</event>
<event>
11    7  0.1497947E-008  0.1687007E+04  0.7818608E-02  0.8768809E-01
          2   -1    0    0  501    0  0.00000000000E+00  0.00000000000E+00  0.20645426136E+04  0.20645426136E+04  0.00000000000E+00 0. -1.
         -1   -1    0    0    0  501 -0.00000000000E+00 -0.00000000000E+00 -0.34462766470E+03  0.34462766470E+03  0.00000000000E+00 0.  1.
         24    2    1    2    0    0  0.23461570156E+03 -0.45743119785E+03  0.17715367035E+03  0.54996415766E+03  0.82397351917E+02 0.  0.
        254    2    1    2    0    0 -0.23461570156E+03  0.45743119785E+03  0.15427612785E+04  0.18592061206E+04  0.90124758433E+03 0.  0.
         23    2    4    4    0    0  0.14281397426E+03  0.24970652534E+03  0.13513291107E+04  0.13847971640E+04  0.93934231693E+02 0.  0.
          2    1    3    3  502    0  0.25799408518E+02 -0.64069695258E+02  0.54641404812E+02  0.88069395650E+02  0.00000000000E+00 0. -1.
         -1    1    3    3    0  502  0.20881629304E+03 -0.39336150260E+03  0.12251226554E+03  0.46189476201E+03  0.00000000000E+00 0.  1.
         13    1    5    5    0    0  0.63417269906E+02  0.37388343741E+02  0.26280321978E+03  0.27291971474E+03  0.00000000000E+00 0. -1.
        -13    1    5    5    0    0  0.79396704355E+02  0.21231818160E+03  0.10885258909E+04  0.11118774492E+04  0.00000000000E+00 0.  1.
          1    1    4    4  503    0 -0.11692520467E+03  0.37450025236E+02  0.58213018998E+02  0.13587775189E+03  0.00000000000E+00 0. -1.
         -1    1    4    4    0  503 -0.26050447115E+03  0.17027464728E+03  0.13321914886E+03  0.33853120479E+03  0.00000000000E+00 0.  1.
<mgrwt>
<rscale>  0 0.16870074E+04</rscale>
<asrwt>0</asrwt>
<pdfrwt beam="1">  1        2 0.31762193E+00 0.16870074E+04</pdfrwt>
<pdfrwt beam="2">  1       -1 0.53019642E-01 0.16870074E+04</pdfrwt>
<totfact> 0.23937172E+01</totfact>
</mgrwt>
</event>
<event>
12    7  0.1497947E-008  0.2437641E+04  0.7818608E-02  0.8425544E-01
         -1   -1    0    0    0  501 -0.00000000000E+00  0.00000000000E+00  0.11162219147E+04  0.11162219147E+04  0.00000000000E+00 0.  1.
          2   -1    0    0  501    0  0.00000000000E+00 -0.00000000000E+00 -0.13308490010E+04  0.13308490010E+04  0.00000000000E+00 0. -1.
         24    2    1    2    0    0  0.80020964439E+03 -0.24025283270E+03 -0.73920750144E+03  0.11184437428E+04  0.80198360188E+02 0.  0.
        254    2    1    2    0    0 -0.80020964439E+03  0.24025283270E+03  0.52458041520E+03  0.13286271729E+04  0.88994868054E+03 0.  0.
         23    2    4    4    0    0 -0.73588945391E+03 -0.12652221888E+03  0.10807527295E+03  0.75980286284E+03  0.89883065811E+02 0.  0.
         23    2    4    4    0    0 -0.64320190482E+02  0.36677505158E+03  0.41650514225E+03  0.56882431007E+03  0.10688094706E+03 0.  0.
          4    1    3    3  502    0  0.59162390200E+03 -0.18941733747E+03 -0.50362652377E+03  0.79971085062E+03  0.00000000000E+00 0. -1.
         -3    1    3    3    0  502  0.20858574239E+03 -0.50835495230E+02 -0.23558097767E+03  0.31873289216E+03  0.00000000000E+00 0.  1.
         13    1    5    5    0    0 -0.53751240448E+03 -0.76776553362E+02  0.11563215708E+03  0.55514414332E+03  0.00000000000E+00 0.  1.
        -13    1    5    5    0    0 -0.19837704943E+03 -0.49745665515E+02 -0.75568841340E+01  0.20465871952E+03  0.00000000000E+00 0. -1.
          3    1    6    6  503    0 -0.16907287811E+01  0.31686071898E+02  0.15068513024E+01  0.31766906003E+02  0.00000000000E+00 0. -1.
         -3    1    6    6    0  503 -0.62629461701E+02  0.33508897968E+03  0.41499829095E+03  0.53705740407E+03  0.00000000000E+00 0.  1.
<mgrwt>
<rscale>  0 0.24376405E+04</rscale>
<asrwt>0</asrwt>
<pdfrwt beam="1">  1        2 0.20474600E+00 0.24376405E+04</pdfrwt>
<pdfrwt beam="2">  1       -1 0.17172645E+00 0.24376405E+04</pdfrwt>
<totfact> 0.38723246E+00</totfact>
</mgrwt>
</event>
<event>
11    7  0.1497947E-008  0.2626270E+04  0.7818608E-02  0.8359332E-01
         -1   -1    0    0    0  501 -0.00000000000E+00  0.00000000000E+00  0.73707091123E+03  0.73707091123E+03  0.00000000000E+00 0.  1.
          2   -1    0    0  501    0  0.00000000000E+00 -0.00000000000E+00 -0.23394265522E+04  0.23394265522E+04  0.00000000000E+00 0. -1.
         24    2    1    2    0    0 -0.56980266049E+03  0.98278783244E+03 -0.43928733848E+03  0.12205872533E+04  0.79453644472E+02 0.  0.
        254    2    1    2    0    0  0.56980266049E+03 -0.98278783244E+03 -0.11630683024E+04  0.18559102101E+04  0.89505744865E+03 0.  0.
         23    2    4    4    0    0 -0.18957335632E+02 -0.27717163221E+03  0.79610636200E+02  0.30160437599E+03  0.86277760414E+02 0.  0.
          2    1    3    3  502    0 -0.14829399662E+03  0.31165032552E+03 -0.10833800604E+03  0.36173769278E+03  0.00000000000E+00 0. -1.
         -1    1    3    3    0  502 -0.42150866387E+03  0.67113750692E+03 -0.33094933244E+03  0.85884956049E+03  0.00000000000E+00 0.  1.
         13    1    5    5    0    0 -0.94834146321E+00 -0.15253450025E+03  0.86733055436E+02  0.17547163880E+03  0.00000000000E+00 0. -1.
        -13    1    5    5    0    0 -0.18008994168E+02 -0.12463713197E+03 -0.71224192362E+01  0.12613273719E+03  0.00000000000E+00 0.  1.
          2    1    4    4  503    0  0.46873887289E+03 -0.45736731672E+03 -0.81639540458E+03  0.10466147572E+04  0.00000000000E+00 0. -1.
         -2    1    4    4    0  503  0.12002112323E+03 -0.24824888351E+03 -0.42628353407E+03  0.50769107694E+03  0.00000000000E+00 0.  1.
<mgrwt>
<rscale>  0 0.26262698E+04</rscale>
<asrwt>0</asrwt>
<pdfrwt beam="1">  1        2 0.35991178E+00 0.26262698E+04</pdfrwt>
<pdfrwt beam="2">  1       -1 0.11339552E+00 0.26262698E+04</pdfrwt>
<totfact> 0.30675516E+00</totfact>
</mgrwt>
</event>
<event>
12    7  0.1497947E-008  0.1441373E+04  0.7818608E-02  0.8924404E-01
         -1   -1    0    0    0  501 -0.00000000000E+00  0.00000000000E+00  0.20975797818E+04  0.20975797818E+04  0.00000000000E+00 0.  1.
          2   -1    0    0  501    0  0.00000000000E+00 -0.00000000000E+00 -0.24761333689E+03  0.24761333689E+03  0.00000000000E+00 0. -1.
         24    2    1    2    0    0 -0.37386752542E+03  0.26453318576E+01  0.92254926076E+03  0.99860577501E+03  0.79576573219E+02 0.  0.
        254    2    1    2    0    0  0.37386752542E+03 -0.26453318576E+01  0.92741718416E+03  0.13465873437E+04  0.90189296281E+03 0.  0.
         23    2    4    4    0    0 -0.27616624379E+03 -0.10716314608E+03  0.24213648014E+03  0.39329033456E+03  0.91079515550E+02 0.  0.
         23    2    4    4    0    0  0.65003376920E+03  0.10451781423E+03  0.68528070401E+03  0.95329700913E+03  0.75482910196E+02 0.  0.
          2    1    3    3  502    0 -0.36061003515E+01 -0.10795208662E+01 -0.73817150465E+00  0.38359121752E+01  0.00000000000E+00 0. -1.
         -1    1    3    3    0  502 -0.37026142506E+03  0.37248527238E+01  0.92328743227E+03  0.99476986283E+03  0.00000000000E+00 0.  1.
         13    1    5    5    0    0 -0.14250895264E+03 -0.84003949400E+02  0.85950014957E+02  0.18642121706E+03  0.00000000000E+00 0.  1.
        -13    1    5    5    0    0 -0.13365729115E+03 -0.23159196683E+02  0.15618646519E+03  0.20686911750E+03  0.00000000000E+00 0. -1.
          4    1    6    6  503    0  0.54077339928E+03  0.58076071976E+02  0.56851907912E+03  0.78677992020E+03  0.00000000000E+00 0. -1.
         -4    1    6    6    0  503  0.10926036992E+03  0.46441742249E+02  0.11676162490E+03  0.16651708893E+03  0.00000000000E+00 0.  1.
<mgrwt>
<rscale>  0 0.14413726E+04</rscale>
<asrwt>0</asrwt>
<pdfrwt beam="1">  1        2 0.38094361E-01 0.14413726E+04</pdfrwt>
<pdfrwt beam="2">  1       -1 0.32270457E+00 0.14413726E+04</pdfrwt>
<totfact> 0.35705596E+00</totfact>
</mgrwt>
</event>
<event>
12    7  0.1497947E-008  0.2007825E+04  0.7818608E-02  0.8602971E-01
          2   -1    0    0  501    0  0.00000000000E+00  0.00000000000E+00  0.10375494741E+04  0.10375494741E+04  0.00000000000E+00 0. -1.
         -1   -1    0    0    0  501 -0.00000000000E+00 -0.00000000000E+00 -0.97136640229E+03  0.97136640229E+03  0.00000000000E+00 0.  1.
         24    2    1    2    0    0 -0.18663369535E+03 -0.63873431450E+03 -0.42243934041E+03  0.79238455919E+03  0.81268890474E+02 0.  0.
        254    2    1    2    0    0  0.18663369535E+03  0.63873431450E+03  0.48862241224E+03  0.12165313172E+04  0.89352276034E+03 0.  0.
         23    2    4    4    0    0  0.44985224988E+03  0.72167623434E+02  0.30807028311E+03  0.55761720519E+03  0.91948004840E+02 0.  0.
         23    2    4    4    0    0 -0.26321855453E+03  0.56656669107E+03  0.18055212913E+03  0.65891411202E+03  0.10623988334E+03 0.  0.
          4    1    3    3  502    0 -0.76360407476E+02 -0.16427195080E+03 -0.87076008206E+02  0.20099357417E+03  0.00000000000E+00 0. -1.
         -3    1    3    3    0  502 -0.11027328787E+03 -0.47446236370E+03 -0.33536333220E+03  0.59139098503E+03  0.00000000000E+00 0.  1.
         13    1    5    5    0    0  0.93149236969E+02 -0.47760443622E+01  0.27271284154E+02  0.97176714737E+02  0.00000000000E+00 0. -1.
        -13    1    5    5    0    0  0.35670301291E+03  0.76943667796E+02  0.28079899896E+03  0.46044049045E+03  0.00000000000E+00 0.  1.
          3    1    6    6  503    0 -0.71485725331E+02  0.64672741237E+02  0.29596087792E+02  0.10083997619E+03  0.00000000000E+00 0. -1.
         -3    1    6    6    0  503 -0.19173282920E+03  0.50189394983E+03  0.15095604134E+03  0.55807413583E+03  0.00000000000E+00 0.  1.
<mgrwt>
<rscale>  0 0.20078254E+04</rscale>
<asrwt>0</asrwt>
<pdfrwt beam="1">  1        2 0.15962300E+00 0.20078254E+04</pdfrwt>
<pdfrwt beam="2">  1       -1 0.14944098E+00 0.20078254E+04</pdfrwt>
<totfact> 0.88968534E+00</totfact>
</mgrwt>
</event>
<event>
12    7  0.1497947E-008  0.1573269E+04  0.7818608E-02  0.8837140E-01
         -1   -1    0    0    0  501 -0.00000000000E+00  0.00000000000E+00  0.78998196193E+03  0.78998196193E+03  0.00000000000E+00 0.  1.
          2   -1    0    0  501    0  0.00000000000E+00 -0.00000000000E+00 -0.78330152682E+03  0.78330152682E+03  0.00000000000E+00 0. -1.
         24    2    1    2    0    0 -0.31211634784E+03 -0.41262837654E+03  0.11101414808E+03  0.53509312906E+03  0.79509269805E+02 0.  0.
        254    2    1    2    0    0  0.31211634784E+03  0.41262837654E+03 -0.10433371296E+03  0.10381903597E+04  0.89402176012E+03 0.  0.
         23    2    4    4    0    0  0.37686158012E+03  0.64360188246E+03  0.15180575423E+01  0.75142002627E+03  0.91551721508E+02 0.  0.
         23    2    4    4    0    0 -0.64745232282E+02 -0.23097350592E+03 -0.10585177051E+03  0.28677033341E+03  0.11615472983E+03 0.  0.
          2    1    3    3  502    0 -0.15433757643E+03 -0.24024644335E+03  0.27248274116E+02  0.28684649114E+03  0.00000000000E+00 0. -1.
         -1    1    3    3    0  502 -0.15777877141E+03 -0.17238193319E+03  0.83765873959E+02  0.24824663792E+03  0.00000000000E+00 0.  1.
         13    1    5    5    0    0  0.26711411162E+03  0.36804003325E+03  0.51468069987E+01  0.45478555862E+03  0.00000000000E+00 0.  1.
        -13    1    5    5    0    0  0.10974746850E+03  0.27556184920E+03 -0.36287494564E+01  0.29663446766E+03  0.00000000000E+00 0. -1.
          1    1    6    6  503    0 -0.56416505125E+02 -0.27409240270E+02 -0.22293513869E+02  0.66566427449E+02  0.00000000000E+00 0. -1.
         -1    1    6    6    0  503 -0.83287271571E+01 -0.20356426565E+03 -0.83558256637E+02  0.22020390596E+03  0.00000000000E+00 0.  1.
<mgrwt>
<rscale>  0 0.15732693E+04</rscale>
<asrwt>0</asrwt>
<pdfrwt beam="1">  1        2 0.12050793E+00 0.15732693E+04</pdfrwt>
<pdfrwt beam="2">  1       -1 0.12153569E+00 0.15732693E+04</pdfrwt>
<totfact> 0.23324731E+01</totfact>
</mgrwt>
</event>
<event>
12    7  0.1497947E-008  0.1594276E+04  0.7818608E-02  0.8824072E-01
         -1   -1    0    0    0  501 -0.00000000000E+00  0.00000000000E+00  0.58835145412E+03  0.58835145412E+03  0.00000000000E+00 0.  1.
          2   -1    0    0  501    0  0.00000000000E+00 -0.00000000000E+00 -0.10800154752E+04  0.10800154752E+04  0.00000000000E+00 0. -1.
         24    2    1    2    0    0 -0.17792737762E+02  0.31721253652E+03  0.28572092088E+03  0.43459772177E+03  0.79362209504E+02 0.  0.
        254    2    1    2    0    0  0.17792737762E+02 -0.31721253652E+03 -0.77738494199E+03  0.12337692076E+04  0.90383556840E+03 0.  0.
         23    2    4    4    0    0  0.12758445662E+03 -0.34862251626E+03  0.59663499928E+02  0.38630538937E+03  0.88637848704E+02 0.  0.
         23    2    4    4    0    0 -0.10979171885E+03  0.31409979739E+02 -0.83704844192E+03  0.84746381821E+03  0.67112001159E+02 0.  0.
          2    1    3    3  502    0  0.24018056886E+02  0.61563441877E+02  0.80256137449E+02  0.10396139683E+03  0.00000000000E+00 0. -1.
         -1    1    3    3    0  502 -0.41810794648E+02  0.25564909464E+03  0.20546478343E+03  0.33063632494E+03  0.00000000000E+00 0.  1.
         13    1    5    5    0    0 -0.20954675887E+01 -0.56275224569E+02 -0.14181407778E+02  0.58072404904E+02  0.00000000000E+00 0.  1.
        -13    1    5    5    0    0  0.12967992420E+03 -0.29234729169E+03  0.73844907706E+02  0.32823298447E+03  0.00000000000E+00 0. -1.
          4    1    6    6  503    0 -0.27053351194E+02  0.12496182569E+02 -0.46075302646E+03  0.46171570233E+03  0.00000000000E+00 0. -1.
         -4    1    6    6    0  503 -0.82738367660E+02  0.18913797169E+02 -0.37629541546E+03  0.38574811588E+03  0.00000000000E+00 0.  1.
<mgrwt>
<rscale>  0 0.15942756E+04</rscale>
<asrwt>0</asrwt>
<pdfrwt beam="1">  1        2 0.16615622E+00 0.15942756E+04</pdfrwt>
<pdfrwt beam="2">  1       -1 0.90515609E-01 0.15942756E+04</pdfrwt>
<totfact> 0.29264838E+01</totfact>
</mgrwt>
</event>
<event>
11    7  0.1497947E-008  0.1153026E+04  0.7818608E-02  0.9154997E-01
          2   -1    0    0  501    0  0.00000000000E+00  0.00000000000E+00  0.75562150467E+03  0.75562150467E+03  0.00000000000E+00 0. -1.
         -1   -1    0    0    0  501 -0.00000000000E+00 -0.00000000000E+00 -0.43985911834E+03  0.43985911834E+03  0.00000000000E+00 0.  1.
         24    2    1    2    0    0 -0.18303698760E+03 -0.64549703808E+01 -0.36906357894E+02  0.20284343014E+03  0.78988432237E+02 0.  0.
        254    2    1    2    0    0  0.18303698760E+03  0.64549703808E+01  0.35266874422E+03  0.99263719287E+03  0.90962033182E+03 0.  0.
         23    2    4    4    0    0  0.13321845156E+03 -0.39341183512E+03  0.39941639724E+03  0.58392114498E+03  0.94395006887E+02 0.  0.
          2    1    3    3  502    0 -0.74688542809E+02 -0.17740261303E+02  0.20846258514E+02  0.79546601386E+02  0.00000000000E+00 0. -1.
         -1    1    3    3    0  502 -0.10834844479E+03  0.11285290922E+02 -0.57752616408E+02  0.12329682875E+03  0.00000000000E+00 0.  1.
         13    1    5    5    0    0  0.76680144131E+02 -0.10361545562E+03  0.14660589644E+03  0.19521602398E+03  0.00000000000E+00 0.  1.
        -13    1    5    5    0    0  0.56538307426E+02 -0.28979637951E+03  0.25281050080E+03  0.38870512101E+03  0.00000000000E+00 0. -1.
          2    1    4    4  503    0  0.55679009582E+02  0.39328211594E+03 -0.46242075833E+02  0.39988661443E+03  0.00000000000E+00 0. -1.
         -2    1    4    4    0  503 -0.58604735439E+01  0.65846895652E+01 -0.50557719209E+00  0.88294334544E+01  0.00000000000E+00 0.  1.
<mgrwt>
<rscale>  0 0.11530256E+04</rscale>
<asrwt>0</asrwt>
<pdfrwt beam="1">  1        2 0.11624946E+00 0.11530256E+04</pdfrwt>
<pdfrwt beam="2">  1       -1 0.67670634E-01 0.11530256E+04</pdfrwt>
<totfact> 0.92830609E+01</totfact>
</mgrwt>
</event>
<event>
12    7  0.1497947E-008  0.1891020E+04  0.7818608E-02  0.8659339E-01
          2   -1    0    0  501    0  0.00000000000E+00  0.00000000000E+00  0.31821794720E+04  0.31821794720E+04  0.00000000000E+00 0. -1.
         -1   -1    0    0    0  501 -0.00000000000E+00 -0.00000000000E+00 -0.28093600646E+03  0.28093600646E+03  0.00000000000E+00 0.  1.
         24    2    1    2    0    0  0.60531604725E+03  0.32340584283E+03  0.69474827663E+03  0.97990054066E+03  0.80814884056E+02 0.  0.
        254    2    1    2    0    0 -0.60531604725E+03 -0.32340584283E+03  0.22064951889E+04  0.24832149378E+04  0.90925054437E+03 0.  0.
         23    2    4    4    0    0 -0.17520714761E+03 -0.20794039411E+03  0.67525414930E+02  0.29490584825E+03  0.92049039073E+02 0.  0.
         23    2    4    4    0    0 -0.43010889964E+03 -0.11546544872E+03  0.21389697740E+04  0.21883090896E+04  0.12320325498E+03 0.  0.
          4    1    3    3  502    0  0.23791506524E+03  0.11528074907E+03  0.21473222630E+03  0.34059236396E+03  0.00000000000E+00 0. -1.
         -3    1    3    3    0  502  0.36740098201E+03  0.20812509376E+03  0.48001605032E+03  0.63930817670E+03  0.00000000000E+00 0.  1.
         13    1    5    5    0    0 -0.87284326224E+02 -0.12125227983E+03 -0.89502247960E+01  0.14966888619E+03  0.00000000000E+00 0. -1.
        -13    1    5    5    0    0 -0.87922821382E+02 -0.86688114278E+02  0.76475639726E+02  0.14523696206E+03  0.00000000000E+00 0.  1.
          4    1    6    6  503    0 -0.34695659580E+03 -0.87960105878E+02  0.19081683332E+04  0.19414484921E+04  0.00000000000E+00 0. -1.
         -4    1    6    6    0  503 -0.83152303835E+02 -0.27505342840E+02  0.23080144082E+03  0.24686059751E+03  0.00000000000E+00 0.  1.
<mgrwt>
<rscale>  0 0.18910196E+04</rscale>
<asrwt>0</asrwt>
<pdfrwt beam="1">  1        2 0.48956605E+00 0.18910196E+04</pdfrwt>
<pdfrwt beam="2">  1       -1 0.43220926E-01 0.18910196E+04</pdfrwt>
<totfact> 0.75353451E+00</totfact>
</mgrwt>
</event>
<event>
11    7  0.1497947E-008  0.2794051E+04  0.7818608E-02  0.8305118E-01
          2   -1    0    0  501    0  0.00000000000E+00  0.00000000000E+00  0.11375852171E+04  0.11375852171E+04  0.00000000000E+00 0. -1.
         -1   -1    0    0    0  501 -0.00000000000E+00 -0.00000000000E+00 -0.17156345025E+04  0.17156345025E+04  0.00000000000E+00 0.  1.
         24    2    1    2    0    0 -0.68391796199E+03 -0.97179266446E+03 -0.65629566520E+03  0.13599256250E+04  0.80925546098E+02 0.  0.
        254    2    1    2    0    0  0.68391796199E+03  0.97179266446E+03  0.78246379797E+02  0.14932940947E+04  0.90093284752E+03 0.  0.
         23    2    4    4    0    0  0.34997337374E+03 -0.82387172916E+02  0.38808075793E+02  0.37494269714E+03  0.99030049971E+02 0.  0.
          4    1    3    3  502    0 -0.22049496798E+03 -0.33108079917E+03 -0.26213651267E+03  0.47639067766E+03  0.00000000000E+00 0. -1.
         -3    1    3    3    0  502 -0.46342299401E+03 -0.64071186529E+03 -0.39415915254E+03  0.88353494737E+03  0.00000000000E+00 0.  1.
         13    1    5    5    0    0  0.26604432897E+03 -0.98797458877E+02  0.51671832984E+02  0.28846230461E+03  0.00000000000E+00 0. -1.
        -13    1    5    5    0    0  0.83929044775E+02  0.16410285961E+02 -0.12863757191E+02  0.86480392525E+02  0.00000000000E+00 0.  1.
          2    1    4    4  503    0  0.20296233029E+03  0.85508004674E+03  0.44676102933E+02  0.87997247004E+03  0.00000000000E+00 0. -1.
         -2    1    4    4    0  503  0.13098225795E+03  0.19909979064E+03 -0.52377989289E+01  0.23837892748E+03  0.00000000000E+00 0.  1.
<mgrwt>
<rscale>  0 0.27940511E+04</rscale>
<asrwt>0</asrwt>
<pdfrwt beam="1">  1        2 0.17501311E+00 0.27940511E+04</pdfrwt>
<pdfrwt beam="2">  1       -1 0.26394377E+00 0.27940511E+04</pdfrwt>
<totfact> 0.11592152E+00</totfact>
</mgrwt>
</event>
<event>
12    7  0.1497947E-008  0.1729746E+04  0.7818608E-02  0.8744579E-01
          2   -1    0    0  501    0  0.00000000000E+00  0.00000000000E+00  0.18540802016E+04  0.18540802016E+04  0.00000000000E+00 0. -1.
         -1   -1    0    0    0  501 -0.00000000000E+00 -0.00000000000E+00 -0.40343741239E+03  0.40343741239E+03  0.00000000000E+00 0.  1.
         24    2    1    2    0    0 -0.48502901288E+03 -0.23051904777E+03  0.11233067375E+03  0.55443876715E+03  0.79949931432E+02 0.  0.
        254    2    1    2    0    0  0.48502901288E+03  0.23051904777E+03  0.13383121155E+04  0.17030788469E+04  0.90609385026E+03 0.  0.
         23    2    4    4    0    0 -0.16569058250E+03  0.69386909226E+02  0.84356683099E+03  0.86742176967E+03  0.92453317083E+02 0.  0.
         23    2    4    4    0    0  0.65071959538E+03  0.16113213854E+03  0.49474528451E+03  0.83565707721E+03  0.64422793071E+02 0.  0.
          4    1    3    3  502    0 -0.11263375771E+03 -0.24692303780E+02  0.40215756674E+01  0.11537870823E+03  0.00000000000E+00 0. -1.
         -3    1    3    3    0  502 -0.37239525518E+03 -0.20582674398E+03  0.10830909808E+03  0.43906005893E+03  0.00000000000E+00 0.  1.
         13    1    5    5    0    0 -0.11252135519E+03  0.64149670271E+02  0.39521576039E+03  0.41589870501E+03  0.00000000000E+00 0. -1.
        -13    1    5    5    0    0 -0.53169227308E+02  0.52372389547E+01  0.44835107060E+03  0.45152306465E+03  0.00000000000E+00 0.  1.
          4    1    6    6  503    0  0.56126487255E+03  0.15092492700E+03  0.40398156000E+03  0.70781190409E+03  0.00000000000E+00 0.  1.
         -4    1    6    6    0  503  0.89454722832E+02  0.10207211537E+02  0.90763724511E+02  0.12784517313E+03  0.00000000000E+00 0. -1.
<mgrwt>
<rscale>  0 0.17297460E+04</rscale>
<asrwt>0</asrwt>
<pdfrwt beam="1">  1        2 0.28524310E+00 0.17297460E+04</pdfrwt>
<pdfrwt beam="2">  1       -1 0.62067295E-01 0.17297460E+04</pdfrwt>
<totfact> 0.22924398E+01</totfact>
</mgrwt>
</event>
<event>
11    7  0.1497947E-008  0.2136521E+04  0.7818608E-02  0.8545324E-01
         -1   -1    0    0    0  501 -0.00000000000E+00  0.00000000000E+00  0.61594374833E+03  0.61594374833E+03  0.00000000000E+00 0.  1.
          2   -1    0    0  501    0  0.00000000000E+00 -0.00000000000E+00 -0.18527348487E+04  0.18527348487E+04  0.00000000000E+00 0. -1.
         24    2    1    2    0    0  0.44763054162E+03 -0.47461965390E+03 -0.11806710946E+04  0.13512404174E+04  0.78927272782E+02 0.  0.
        254    2    1    2    0    0 -0.44763054162E+03  0.47461965390E+03 -0.56120005803E+02  0.11174381796E+04  0.90547319815E+03 0.  0.
         23    2    4    4    0    0  0.14303796353E+03  0.16964024106E+03 -0.29817729007E+03  0.38502509715E+03  0.10048362416E+03 0.  0.
          4    1    3    3  502    0  0.36014182046E+03 -0.33864868271E+03 -0.92275737427E+03  0.10468362971E+04  0.00000000000E+00 0. -1.
         -3    1    3    3    0  502  0.87488721157E+02 -0.13597097119E+03 -0.25791372029E+03  0.30440412029E+03  0.00000000000E+00 0.  1.
         13    1    5    5    0    0  0.96699616699E+02  0.16566721974E+03 -0.20419254567E+03  0.28016252297E+03  0.00000000000E+00 0.  1.
        -13    1    5    5    0    0  0.46338346832E+02  0.39730213229E+01 -0.93984744398E+02  0.10486257419E+03  0.00000000000E+00 0. -1.
          4    1    4    4  503    0 -0.48842753663E+03  0.32338014482E+03  0.18737629871E+03  0.61501711677E+03  0.00000000000E+00 0. -1.
         -4    1    4    4    0  503 -0.10224096852E+03 -0.18400731982E+02  0.54680985560E+02  0.11739596570E+03  0.00000000000E+00 0.  1.
<mgrwt>
<rscale>  0 0.21365210E+04</rscale>
<asrwt>0</asrwt>
<pdfrwt beam="1">  1        2 0.28503613E+00 0.21365210E+04</pdfrwt>
<pdfrwt beam="2">  1       -1 0.94760577E-01 0.21365210E+04</pdfrwt>
<totfact> 0.90862513E+00</totfact>
</mgrwt>
</event>
<event>
12    7  0.1497947E-008  0.1130134E+04  0.7818608E-02  0.9176309E-01
         -1   -1    0    0    0  501 -0.00000000000E+00  0.00000000000E+00  0.12262471121E+03  0.12262471121E+03  0.00000000000E+00 0.  1.
          2   -1    0    0  501    0  0.00000000000E+00 -0.00000000000E+00 -0.26038834827E+04  0.26038834827E+04  0.00000000000E+00 0. -1.
         24    2    1    2    0    0  0.52432040298E+02  0.13950412236E+03 -0.20168276516E+03  0.26327090377E+03  0.80156796388E+02 0.  0.
        254    2    1    2    0    0 -0.52432040298E+02 -0.13950412236E+03 -0.22795760063E+04  0.24632372902E+04  0.92133634460E+03 0.  0.
         23    2    4    4    0    0  0.36093543168E+03 -0.27611340084E+03 -0.14175675485E+04  0.14913679550E+04  0.90374923960E+02 0.  0.
         23    2    4    4    0    0 -0.41336747198E+03  0.13660927848E+03 -0.86200845788E+03  0.97186933511E+03  0.10925502833E+03 0.  0.
          4    1    3    3  502    0  0.15451013237E+02  0.62228867592E+02 -0.15022476191E+03  0.16333598765E+03  0.00000000000E+00 0. -1.
         -3    1    3    3    0  502  0.36981027061E+02  0.77275254765E+02 -0.51458003247E+02  0.99934916119E+02  0.00000000000E+00 0.  1.
         13    1    5    5    0    0  0.34145251561E+02 -0.11851376165E+02 -0.20176750689E+03  0.20497921885E+03  0.00000000000E+00 0. -1.
        -13    1    5    5    0    0  0.32679018012E+03 -0.26426202468E+03 -0.12158000416E+04  0.12863887362E+04  0.00000000000E+00 0.  1.
          1    1    6    6  503    0 -0.17451625951E+03  0.42400100786E+01 -0.30187904141E+03  0.34871888128E+03  0.00000000000E+00 0. -1.
         -1    1    6    6    0  503 -0.23885121247E+03  0.13236926841E+03 -0.56012941646E+03  0.62315045383E+03  0.00000000000E+00 0.  1.
<mgrwt>
<rscale>  0 0.11301335E+04</rscale>
<asrwt>0</asrwt>
<pdfrwt beam="1">  1        2 0.40059744E+00 0.11301335E+04</pdfrwt>
<pdfrwt beam="2">  1       -1 0.18865341E-01 0.11301335E+04</pdfrwt>
<totfact> 0.77820288E+01</totfact>
</mgrwt>
</event>
<event>
11    7  0.1497947E-008  0.1485832E+04  0.7818608E-02  0.8893929E-01
         -1   -1    0    0    0  501 -0.00000000000E+00  0.00000000000E+00  0.30715562994E+03  0.30715562994E+03  0.00000000000E+00 0.  1.
          2   -1    0    0  501    0  0.00000000000E+00 -0.00000000000E+00 -0.17968887349E+04  0.17968887349E+04  0.00000000000E+00 0. -1.
         24    2    1    2    0    0 -0.60357852653E+02 -0.39214090168E+03 -0.89939223817E+03  0.98616840535E+03  0.78766544127E+02 0.  0.
        254    2    1    2    0    0  0.60357852653E+02  0.39214090168E+03 -0.59034086678E+03  0.11178759595E+04  0.86239594425E+03 0.  0.
         23    2    4    4    0    0  0.40518321837E+03  0.20204604414E+02 -0.32869324067E+03  0.53008252909E+03  0.91468982170E+02 0.  0.
          2    1    3    3  502    0 -0.79261853633E+02 -0.32404008602E+03 -0.75453008534E+03  0.82498488984E+03  0.00000000000E+00 0. -1.
         -1    1    3    3    0  502  0.18904000980E+02 -0.68100815658E+02 -0.14486215284E+03  0.16118351551E+03  0.00000000000E+00 0.  1.
         13    1    5    5    0    0  0.36107048507E+03  0.20798695290E+02 -0.24933598984E+03  0.43928682741E+03  0.00000000000E+00 0.  1.
        -13    1    5    5    0    0  0.44112733304E+02 -0.59409087597E+00 -0.79357250834E+02  0.90795701680E+02  0.00000000000E+00 0. -1.
          1    1    4    4  503    0 -0.30301038147E+02  0.67630666430E+02  0.67380110818E+01  0.74414116591E+02  0.00000000000E+00 0. -1.
         -1    1    4    4    0  503 -0.31452432757E+03  0.30430563083E+03 -0.26838563719E+03  0.51337931380E+03  0.00000000000E+00 0.  1.
<mgrwt>
<rscale>  0 0.14858324E+04</rscale>
<asrwt>0</asrwt>
<pdfrwt beam="1">  1        2 0.27644442E+00 0.14858324E+04</pdfrwt>
<pdfrwt beam="2">  1       -1 0.47254712E-01 0.14858324E+04</pdfrwt>
<totfact> 0.42647349E+01</totfact>
</mgrwt>
</event>
<event>
11    7  0.1497947E-008  0.1446484E+04  0.7818608E-02  0.8920841E-01
         -1   -1    0    0    0  501 -0.00000000000E+00  0.00000000000E+00  0.51569246994E+03  0.51569246994E+03  0.00000000000E+00 0.  1.
          2   -1    0    0  501    0  0.00000000000E+00 -0.00000000000E+00 -0.10143241015E+04  0.10143241015E+04  0.00000000000E+00 0. -1.
         24    2    1    2    0    0  0.40137869117E+03 -0.15039134977E+03 -0.17264083618E+03  0.46829787395E+03  0.75997556647E+02 0.  0.
        254    2    1    2    0    0 -0.40137869117E+03  0.15039134977E+03 -0.32599079537E+03  0.10617186975E+04  0.91501594638E+03 0.  0.
         23    2    4    4    0    0 -0.41365096884E+03  0.38786325263E+03 -0.46697187569E+03  0.74020357102E+03  0.91069023872E+02 0.  0.
          2    1    3    3  502    0  0.38237978893E+03 -0.15832279954E+03 -0.15782237997E+03  0.44293150199E+03  0.00000000000E+00 0. -1.
         -1    1    3    3    0  502  0.18998902239E+02  0.79314497705E+01 -0.14818456212E+02  0.25366371957E+02  0.00000000000E+00 0.  1.
         13    1    5    5    0    0 -0.39133250989E+03  0.34610311175E+03 -0.39900183797E+03  0.65736668912E+03  0.00000000000E+00 0. -1.
        -13    1    5    5    0    0 -0.22318458950E+02  0.41760140871E+02 -0.67970037719E+02  0.82836881900E+02  0.00000000000E+00 0.  1.
          3    1    4    4  503    0  0.39563566545E+02 -0.83187060557E+02 -0.22762125168E+02  0.94886654404E+02  0.00000000000E+00 0. -1.
         -3    1    4    4    0  503 -0.27291288873E+02 -0.15428484229E+03  0.16374320548E+03  0.22662847207E+03  0.00000000000E+00 0.  1.
<mgrwt>
<rscale>  0 0.14464844E+04</rscale>
<asrwt>0</asrwt>
<pdfrwt beam="1">  1        2 0.15604986E+00 0.14464844E+04</pdfrwt>
<pdfrwt beam="2">  1       -1 0.79337304E-01 0.14464844E+04</pdfrwt>
<totfact> 0.43342834E+01</totfact>
</mgrwt>
</event>
<event>
12    7  0.1497947E-008  0.1694545E+04  0.7818608E-02  0.8764482E-01
          2   -1    0    0  501    0  0.00000000000E+00  0.00000000000E+00  0.16441417366E+04  0.16441417366E+04  0.00000000000E+00 0. -1.
         -1   -1    0    0    0  501 -0.00000000000E+00 -0.00000000000E+00 -0.43662343890E+03  0.43662343890E+03  0.00000000000E+00 0.  1.
         24    2    1    2    0    0 -0.51700109250E+03  0.31543308927E+03  0.40446583208E+03  0.73228792046E+03  0.76582149851E+02 0.  0.
        254    2    1    2    0    0  0.51700109250E+03 -0.31543308927E+03  0.80305246565E+03  0.13484772551E+04  0.89817007376E+03 0.  0.
         23    2    4    4    0    0 -0.10198313276E+03 -0.76648136724E+02 -0.12508856183E+03  0.20104179001E+03  0.92169174902E+02 0.  0.
         23    2    4    4    0    0  0.61898422526E+03 -0.23878495255E+03  0.92814102748E+03  0.11474354651E+04  0.12248532525E+03 0.  0.
          2    1    3    3  502    0 -0.45143195309E+03  0.28915885726E+03  0.38159087164E+03  0.65803893982E+03  0.00000000000E+00 0. -1.
         -1    1    3    3    0  502 -0.65569139406E+02  0.26274232011E+02  0.22874960444E+02  0.74248980637E+02  0.00000000000E+00 0.  1.
         13    1    5    5    0    0 -0.12860394211E+02  0.47763428425E+01  0.12107394049E+02  0.18297327151E+02  0.00000000000E+00 0.  1.
        -13    1    5    5    0    0 -0.89122738547E+02 -0.81424479567E+02 -0.13719595588E+03  0.18274446286E+03  0.00000000000E+00 0. -1.
          1    1    6    6  503    0  0.33021342929E+03 -0.62908317935E+02  0.48224674055E+03  0.58784375825E+03  0.00000000000E+00 0. -1.
         -1    1    6    6    0  503  0.28877079597E+03 -0.17587663461E+03  0.44589428693E+03  0.55959170681E+03  0.00000000000E+00 0.  1.
<mgrwt>
<rscale>  0 0.16945452E+04</rscale>
<asrwt>0</asrwt>
<pdfrwt beam="1">  1        2 0.25294488E+00 0.16945452E+04</pdfrwt>
<pdfrwt beam="2">  1       -1 0.67172838E-01 0.16945452E+04</pdfrwt>
<totfact> 0.25649648E+01</totfact>
</mgrwt>
</event>
<event>
11    7  0.1497947E-008  0.1666514E+04  0.7818608E-02  0.8780696E-01
         -1   -1    0    0    0  501 -0.00000000000E+00  0.00000000000E+00  0.56305815113E+03  0.56305815113E+03  0.00000000000E+00 0.  1.
          2   -1    0    0  501    0  0.00000000000E+00 -0.00000000000E+00 -0.12331188142E+04  0.12331188142E+04  0.00000000000E+00 0. -1.
         24    2    1    2    0    0 -0.11978168641E+03  0.58995823391E+03 -0.24774316357E+03  0.65666725165E+03  0.86237081006E+02 0.  0.
        254    2    1    2    0    0  0.11978168641E+03 -0.58995823391E+03 -0.42231749947E+03  0.11395097137E+04  0.87047799915E+03 0.  0.
         23    2    4    4    0    0 -0.14435232965E+03 -0.69956254877E+03 -0.33823145672E+03  0.79568263761E+03  0.92113987871E+02 0.  0.
          4    1    3    3  502    0 -0.85296860704E+02  0.38392411277E+03 -0.20474061870E+03  0.44338696390E+03  0.00000000000E+00 0. -1.
         -3    1    3    3    0  502 -0.34484825702E+02  0.20603412114E+03 -0.43002544868E+02  0.21328028775E+03  0.00000000000E+00 0.  1.
         13    1    5    5    0    0 -0.10765511271E+03 -0.40711863955E+03 -0.24167241011E+03  0.48553142408E+03  0.00000000000E+00 0. -1.
        -13    1    5    5    0    0 -0.36697216935E+02 -0.29244390922E+03 -0.96559046608E+02  0.31015121353E+03  0.00000000000E+00 0.  1.
          1    1    4    4  503    0  0.14075052420E+03  0.87483840603E+02 -0.12969177980E+03  0.21043785348E+03  0.00000000000E+00 0. -1.
         -1    1    4    4    0  503  0.12338349185E+03  0.22120474264E+02  0.45605737052E+02  0.13338922256E+03  0.00000000000E+00 0.  1.
<mgrwt>
<rscale>  0 0.16665144E+04</rscale>
<asrwt>0</asrwt>
<pdfrwt beam="1">  1        2 0.18971058E+00 0.16665144E+04</pdfrwt>
<pdfrwt beam="2">  1       -1 0.86624332E-01 0.16665144E+04</pdfrwt>
<totfact> 0.25868666E+01</totfact>
</mgrwt>
</event>
<event>
12    7  0.1497947E-008  0.2446003E+04  0.7818608E-02  0.8422479E-01
         -1   -1    0    0    0  501 -0.00000000000E+00  0.00000000000E+00  0.51244160729E+03  0.51244160729E+03  0.00000000000E+00 0.  1.
          2   -1    0    0  501    0  0.00000000000E+00 -0.00000000000E+00 -0.29188356472E+04  0.29188356472E+04  0.00000000000E+00 0. -1.
         24    2    1    2    0    0 -0.10507918391E+04 -0.18272719107E+01 -0.11971110737E+04  0.15948375257E+04  0.79151642609E+02 0.  0.
        254    2    1    2    0    0  0.10507918391E+04  0.18272719107E+01 -0.12092829662E+04  0.18364397288E+04  0.89776319647E+03 0.  0.
         23    2    4    4    0    0  0.34290940834E+03  0.21204002090E+03 -0.96796778763E+03  0.10523671015E+04  0.89258308099E+02 0.  0.
         23    2    4    4    0    0  0.70788243081E+03 -0.21021274899E+03 -0.24131517856E+03  0.78407262730E+03  0.10606570510E+03 0.  0.
          2    1    3    3  502    0 -0.97234805656E+03  0.88375651488E+01 -0.11322781254E+04  0.14925121772E+04  0.00000000000E+00 0. -1.
         -1    1    3    3    0  502 -0.78443782585E+02 -0.10664837060E+02 -0.64832948281E+02  0.10232534856E+03  0.00000000000E+00 0.  1.
         13    1    5    5    0    0  0.86474036519E+02  0.39570966431E+02 -0.33098429447E+03  0.34437512042E+03  0.00000000000E+00 0. -1.
        -13    1    5    5    0    0  0.25643537182E+03  0.17246905447E+03 -0.63698349316E+03  0.70799198105E+03  0.00000000000E+00 0.  1.
          1    1    6    6  503    0  0.30707737087E+03 -0.36772394204E+02 -0.10291143744E+03  0.32594399003E+03  0.00000000000E+00 0. -1.
         -1    1    6    6    0  503  0.40080505993E+03 -0.17344035478E+03 -0.13840374112E+03  0.45812863728E+03  0.00000000000E+00 0.  1.
<mgrwt>
<rscale>  0 0.24460031E+04</rscale>
<asrwt>0</asrwt>
<pdfrwt beam="1">  1        2 0.44905164E+00 0.24460031E+04</pdfrwt>
<pdfrwt beam="2">  1       -1 0.78837170E-01 0.24460031E+04</pdfrwt>
<totfact> 0.32078994E+00</totfact>
</mgrwt>
</event>
<event>
12    7  0.1497947E-008  0.1421034E+04  0.7818608E-02  0.8938732E-01
          4   -1    0    0  501    0  0.00000000000E+00  0.00000000000E+00  0.29799915434E+03  0.29799915434E+03  0.00000000000E+00 0. -1.
         -3   -1    0    0    0  501 -0.00000000000E+00 -0.00000000000E+00 -0.16940806267E+04  0.16940806267E+04  0.00000000000E+00 0.  1.
         24    2    1    2    0    0 -0.19819210783E+03 -0.15669687580E+03 -0.88636353514E+03  0.92518600006E+03  0.80590295869E+02 0.  0.
        254    2    1    2    0    0  0.19819210783E+03  0.15669687580E+03 -0.50971793719E+03  0.10668937810E+04  0.90256076906E+03 0.  0.
         23    2    4    4    0    0  0.35856573360E+03 -0.24031046748E+03 -0.44665623148E+03  0.62789419836E+03  0.91819546493E+02 0.  0.
         23    2    4    4    0    0 -0.16037362577E+03  0.39700734329E+03 -0.63061705717E+02  0.43899958260E+03  0.73548108941E+02 0.  0.
          2    1    3    3  502    0 -0.94505487802E+01 -0.15238777948E+02 -0.18190610907E+02  0.25542739688E+02  0.00000000000E+00 0. -1.
         -1    1    3    3    0  502 -0.18874155905E+03 -0.14145809786E+03 -0.86817292423E+03  0.89964326037E+03  0.00000000000E+00 0.  1.
         13    1    5    5    0    0  0.23231821747E+02 -0.49132718398E+02 -0.69460038761E+02  0.88195456479E+02  0.00000000000E+00 0.  1.
        -13    1    5    5    0    0  0.33533391186E+03 -0.19117774908E+03 -0.37719619271E+03  0.53969874188E+03  0.00000000000E+00 0. -1.
          3    1    6    6  503    0 -0.11068487110E+03  0.23377566651E+03 -0.47975230179E+01  0.25869909001E+03  0.00000000000E+00 0. -1.
         -3    1    6    6    0  503 -0.49688754667E+02  0.16323167677E+03 -0.58264182700E+02  0.18030049259E+03  0.00000000000E+00 0.  1.
<mgrwt>
<rscale>  0 0.14210343E+04</rscale>
<asrwt>0</asrwt>
<pdfrwt beam="1">  1        4 0.45846023E-01 0.14210343E+04</pdfrwt>
<pdfrwt beam="2">  1       -3 0.26062780E+00 0.14210343E+04</pdfrwt>
<totfact> 0.65503907E-01</totfact>
</mgrwt>
</event>
<event>
12    7  0.1497947E-008  0.1258303E+04  0.7818608E-02  0.9063301E-01
         -3   -1    0    0    0  501 -0.00000000000E+00  0.00000000000E+00  0.21080868443E+04  0.21080868443E+04  0.00000000000E+00 0.  1.
          4   -1    0    0  501    0  0.00000000000E+00 -0.00000000000E+00 -0.18776816009E+03  0.18776816009E+03  0.00000000000E+00 0. -1.
         24    2    1    2    0    0  0.24873580533E+03 -0.16086804505E+03  0.46068051506E+03  0.55360941422E+03  0.80677244523E+02 0.  0.
        254    2    1    2    0    0 -0.24873580533E+03  0.16086804505E+03  0.14596381691E+04  0.17422455902E+04  0.90395137196E+03 0.  0.
         23    2    4    4    0    0 -0.44899569939E+03 -0.21742396567E+03  0.75977769333E+03  0.91354558524E+03  0.91831770690E+02 0.  0.
         23    2    4    4    0    0  0.20025989406E+03  0.37829201072E+03  0.69986047579E+03  0.82870000491E+03  0.11717568872E+03 0.  0.
          4    1    3    3  502    0  0.14535051859E+03 -0.11351393186E+03  0.21756099492E+03  0.28521040039E+03  0.00000000000E+00 0. -1.
         -3    1    3    3    0  502  0.10338528674E+03 -0.47354113189E+02  0.24311952014E+03  0.26839901383E+03  0.00000000000E+00 0.  1.
         13    1    5    5    0    0 -0.19507623756E+03 -0.14518098559E+03  0.37255522657E+03  0.44489285663E+03  0.00000000000E+00 0. -1.
        -13    1    5    5    0    0 -0.25391946183E+03 -0.72242980081E+02  0.38722246676E+03  0.46865272860E+03  0.00000000000E+00 0.  1.
          3    1    6    6  503    0  0.97377990075E+02  0.27857225492E+03  0.40764772336E+03  0.50325107105E+03  0.00000000000E+00 0. -1.
         -3    1    6    6    0  503  0.10288190398E+03  0.99719755803E+02  0.29221275244E+03  0.32544893386E+03  0.00000000000E+00 0.  1.
<mgrwt>
<rscale>  0 0.12583030E+04</rscale>
<asrwt>0</asrwt>
<pdfrwt beam="1">  1        4 0.28887411E-01 0.12583030E+04</pdfrwt>
<pdfrwt beam="2">  1       -3 0.32432104E+00 0.12583030E+04</pdfrwt>
<totfact> 0.73265098E-01</totfact>
</mgrwt>
</event>
<event>
11    7  0.1497947E-008  0.1755680E+04  0.7818608E-02  0.8730230E-01
          2   -1    0    0  501    0  0.00000000000E+00  0.00000000000E+00  0.36615662217E+03  0.36615662217E+03  0.00000000000E+00 0. -1.
         -1   -1    0    0    0  501 -0.00000000000E+00 -0.00000000000E+00 -0.21045722317E+04  0.21045722317E+04  0.00000000000E+00 0.  1.
         24    2    1    2    0    0  0.49937104158E+03 -0.92337169475E+01 -0.74836327137E+02  0.51092402209E+03  0.77370419358E+02 0.  0.
        254    2    1    2    0    0 -0.49937104158E+03  0.92337169475E+01 -0.16635792824E+04  0.19598048318E+04  0.90767959721E+03 0.  0.
         23    2    4    4    0    0 -0.19762832434E+03 -0.24280657105E+03 -0.12223384030E+03  0.34828202258E+03  0.91363395359E+02 0.  0.
          2    1    3    3  502    0  0.28661810682E+03 -0.41429763216E+02 -0.55646781372E+02  0.29489477567E+03  0.00000000000E+00 0. -1.
         -1    1    3    3    0  502  0.21275293476E+03  0.32196046269E+02 -0.19189545765E+02  0.21602924642E+03  0.00000000000E+00 0.  1.
         13    1    5    5    0    0 -0.17099556567E+03 -0.21929632614E+03 -0.72884994350E+02  0.28747623300E+03  0.00000000000E+00 0.  1.
        -13    1    5    5    0    0 -0.26632758669E+02 -0.23510244913E+02 -0.49348845952E+02  0.60805789585E+02  0.00000000000E+00 0. -1.
          4    1    4    4  503    0 -0.59530405693E+02  0.31072293610E+02 -0.77610347422E+03  0.77900318313E+03  0.00000000000E+00 0. -1.
         -4    1    4    4    0  503 -0.24221231155E+03  0.22096799439E+03 -0.76524196787E+03  0.83251962607E+03  0.00000000000E+00 0.  1.
<mgrwt>
<rscale>  0 0.17556800E+04</rscale>
<asrwt>0</asrwt>
<pdfrwt beam="1">  1        2 0.56331788E-01 0.17556800E+04</pdfrwt>
<pdfrwt beam="2">  1       -1 0.32378035E+00 0.17556800E+04</pdfrwt>
<totfact> 0.22053603E+00</totfact>
</mgrwt>
</event>
<event>
11    7  0.1497947E-008  0.1417745E+04  0.7818608E-02  0.8941073E-01
          2   -1    0    0  501    0  0.00000000000E+00  0.00000000000E+00  0.48612783178E+03  0.48612783178E+03  0.00000000000E+00 0. -1.
         -1   -1    0    0    0  501 -0.00000000000E+00 -0.00000000000E+00 -0.10336786829E+04  0.10336786829E+04  0.00000000000E+00 0.  1.
         24    2    1    2    0    0  0.43070548144E+03  0.89722583258E+01 -0.18695765859E+03  0.47638207222E+03  0.79993746385E+02 0.  0.
        254    2    1    2    0    0 -0.43070548144E+03 -0.89722583258E+01 -0.36059319251E+03  0.10434244424E+04  0.87927208727E+03 0.  0.
         23    2    4    4    0    0 -0.24051254641E+03 -0.17934576270E+03 -0.57623353588E+03  0.65598984541E+03  0.90919754909E+02 0.  0.
          2    1    3    3  502    0  0.14233326565E+03  0.15567004642E+01 -0.10379460027E+03  0.17616611727E+03  0.00000000000E+00 0. -1.
         -1    1    3    3    0  502  0.28837221579E+03  0.74155578616E+01 -0.83163058324E+02  0.30021595495E+03  0.00000000000E+00 0.  1.
         13    1    5    5    0    0 -0.65269566595E+02 -0.36970965928E+01 -0.12056229490E+03  0.13714609655E+03  0.00000000000E+00 0. -1.
        -13    1    5    5    0    0 -0.17524297981E+03 -0.17564866611E+03 -0.45567124098E+03  0.51884374886E+03  0.00000000000E+00 0.  1.
          1    1    4    4  503    0 -0.10506729493E+03 -0.25408141699E+02  0.80368834933E+02  0.13469914534E+03  0.00000000000E+00 0. -1.
         -1    1    4    4    0  503 -0.85125640109E+02  0.19578164608E+03  0.13527150844E+03  0.25273545169E+03  0.00000000000E+00 0.  1.
<mgrwt>
<rscale>  0 0.14177447E+04</rscale>
<asrwt>0</asrwt>
<pdfrwt beam="1">  1        2 0.74788898E-01 0.14177447E+04</pdfrwt>
<pdfrwt beam="2">  1       -1 0.15902749E+00 0.14177447E+04</pdfrwt>
<totfact> 0.21023054E+01</totfact>
</mgrwt>
</event>
<event>
11    7  0.1497947E-008  0.1417972E+04  0.7818608E-02  0.8940911E-01
         -1   -1    0    0    0  501 -0.00000000000E+00  0.00000000000E+00  0.58391625894E+03  0.58391625894E+03  0.00000000000E+00 0.  1.
          2   -1    0    0  501    0  0.00000000000E+00 -0.00000000000E+00 -0.86084515938E+03  0.86084515938E+03  0.00000000000E+00 0. -1.
         24    2    1    2    0    0 -0.24072711033E+03  0.70917666924E+02  0.26066193971E+03  0.37054924486E+03  0.79895174577E+02 0.  0.
        254    2    1    2    0    0  0.24072711033E+03 -0.70917666924E+02 -0.53759084015E+03  0.10742121735E+04  0.89551606633E+03 0.  0.
         23    2    4    4    0    0  0.36198742509E+03 -0.32786684168E+03 -0.64521633153E+02  0.50117078536E+03  0.92073629016E+02 0.  0.
          4    1    3    3  502    0 -0.36559391547E+02 -0.11709833780E+02  0.16678910524E+02  0.41855649245E+02  0.00000000000E+00 0. -1.
         -3    1    3    3    0  502 -0.20416771878E+03  0.82627500704E+02  0.24398302919E+03  0.32869359561E+03  0.00000000000E+00 0.  1.
         13    1    5    5    0    0  0.24794727613E+03 -0.16443642333E+03 -0.31730271298E+02  0.29920561354E+03  0.00000000000E+00 0.  1.
        -13    1    5    5    0    0  0.11404014896E+03 -0.16343041835E+03 -0.32791361855E+02  0.20196517183E+03  0.00000000000E+00 0. -1.
          4    1    4    4  503    0 -0.66624885346E+02  0.26007423091E+03 -0.40022856588E+03  0.48193400573E+03  0.00000000000E+00 0. -1.
         -4    1    4    4    0  503 -0.54635429415E+02 -0.31250561560E+01 -0.72840641119E+02  0.91107382368E+02  0.00000000000E+00 0.  1.
<mgrwt>
<rscale>  0 0.14179725E+04</rscale>
<asrwt>0</asrwt>
<pdfrwt beam="1">  1        2 0.13243772E+00 0.14179725E+04</pdfrwt>
<pdfrwt beam="2">  1       -1 0.89833271E-01 0.14179725E+04</pdfrwt>
<totfact> 0.41991993E+01</totfact>
</mgrwt>
</event>
<event>
11    7  0.1497947E-008  0.1770734E+04  0.7818608E-02  0.8722019E-01
         -1   -1    0    0    0  501 -0.00000000000E+00  0.00000000000E+00  0.82061298935E+03  0.82061298935E+03  0.00000000000E+00 0.  1.
          2   -1    0    0  501    0  0.00000000000E+00 -0.00000000000E+00 -0.95523091725E+03  0.95523091725E+03  0.00000000000E+00 0. -1.
         24    2    1    2    0    0  0.57407412979E+03  0.19802291312E+03  0.20770002489E+03  0.64692172975E+03  0.81204947286E+02 0.  0.
        254    2    1    2    0    0 -0.57407412979E+03 -0.19802291312E+03 -0.34231795280E+03  0.11289221768E+04  0.88798058535E+03 0.  0.
         23    2    4    4    0    0  0.19725009368E+03  0.94250938817E+02 -0.48219371507E+02  0.24142753348E+03  0.90395283099E+02 0.  0.
          4    1    3    3  502    0  0.13397674060E+03  0.64517953958E+02  0.19389991371E+02  0.14996101217E+03  0.00000000000E+00 0. -1.
         -3    1    3    3    0  502  0.44009738919E+03  0.13350495916E+03  0.18831003352E+03  0.49696071758E+03  0.00000000000E+00 0.  1.
         13    1    5    5    0    0  0.64092895744E+02  0.61269969471E+02  0.15765838020E+02  0.90058148395E+02  0.00000000000E+00 0. -1.
        -13    1    5    5    0    0  0.13315719794E+03  0.32980969346E+02 -0.63985209527E+02  0.15136938508E+03  0.00000000000E+00 0.  1.
          4    1    4    4  503    0 -0.55144368115E+03 -0.26687809951E+03 -0.25068893411E+03  0.66193579384E+03  0.00000000000E+00 0. -1.
         -4    1    4    4    0  503 -0.21988054232E+03 -0.25395752425E+02 -0.43409647188E+02  0.22555884953E+03  0.00000000000E+00 0.  1.
<mgrwt>
<rscale>  0 0.17707342E+04</rscale>
<asrwt>0</asrwt>
<pdfrwt beam="1">  1        2 0.14695860E+00 0.17707342E+04</pdfrwt>
<pdfrwt beam="2">  1       -1 0.12624815E+00 0.17707342E+04</pdfrwt>
<totfact> 0.15878785E+01</totfact>
</mgrwt>
</event>
<event>
12    7  0.1497947E-008  0.1704747E+04  0.7818608E-02  0.8758662E-01
         -1   -1    0    0    0  501 -0.00000000000E+00  0.00000000000E+00  0.44167061584E+03  0.44167061584E+03  0.00000000000E+00 0.  1.
          2   -1    0    0  501    0  0.00000000000E+00 -0.00000000000E+00 -0.16449825279E+04  0.16449825279E+04  0.00000000000E+00 0. -1.
         24    2    1    2    0    0 -0.60072259405E+03  0.56780321490E+02 -0.27377662587E+03  0.66737802086E+03  0.79675227952E+02 0.  0.
        254    2    1    2    0    0  0.60072259405E+03 -0.56780321490E+02 -0.92953528624E+03  0.14192751229E+04  0.88668731033E+03 0.  0.
         23    2    4    4    0    0 -0.47694305776E+02 -0.33481675900E+03 -0.38935258314E+03  0.52334908673E+03  0.89004627274E+02 0.  0.
         23    2    4    4    0    0  0.64841689982E+03  0.27803643751E+03 -0.54018270310E+03  0.89592603620E+03  0.11461838010E+03 0.  0.
          2    1    3    3  502    0 -0.13316114767E+03  0.40301953889E+02 -0.83881043986E+02  0.16245666584E+03  0.00000000000E+00 0. -1.
         -1    1    3    3    0  502 -0.46756144637E+03  0.16478367601E+02 -0.18989558188E+03  0.50492135502E+03  0.00000000000E+00 0.  1.
         13    1    5    5    0    0  0.10276203103E+02 -0.22264971246E+03 -0.26265582362E+03  0.34448015399E+03  0.00000000000E+00 0.  1.
        -13    1    5    5    0    0 -0.57970508880E+02 -0.11216704653E+03 -0.12669675952E+03  0.17886893274E+03  0.00000000000E+00 0. -1.
          3    1    6    6  503    0  0.16632092321E+02 -0.92032089446E+01 -0.25910018017E+02  0.32134943341E+02  0.00000000000E+00 0. -1.
         -3    1    6    6    0  503  0.63178480750E+03  0.28723964645E+03 -0.51427268508E+03  0.86379109286E+03  0.00000000000E+00 0.  1.
<mgrwt>
<rscale>  0 0.17047468E+04</rscale>
<asrwt>0</asrwt>
<pdfrwt beam="1">  1        2 0.25307424E+00 0.17047468E+04</pdfrwt>
<pdfrwt beam="2">  1       -1 0.67949326E-01 0.17047468E+04</pdfrwt>
<totfact> 0.25008369E+01</totfact>
</mgrwt>
</event>
<event>
11    7  0.1497947E-008  0.1494490E+04  0.7818608E-02  0.8888125E-01
          2   -1    0    0  501    0  0.00000000000E+00  0.00000000000E+00  0.96617334981E+03  0.96617334981E+03  0.00000000000E+00 0. -1.
         -1   -1    0    0    0  501 -0.00000000000E+00 -0.00000000000E+00 -0.57792441867E+03  0.57792441867E+03  0.00000000000E+00 0.  1.
         24    2    1    2    0    0 -0.12209514758E+03  0.34560021339E+03  0.42594073257E+03  0.56764221665E+03  0.80283534478E+02 0.  0.
        254    2    1    2    0    0  0.12209514758E+03 -0.34560021339E+03 -0.37691801420E+02  0.97645555183E+03  0.90426657588E+03 0.  0.
         23    2    4    4    0    0  0.13921219390E+03 -0.26229520051E+03 -0.43735598955E+03  0.53637583842E+03  0.90774287694E+02 0.  0.
          2    1    3    3  502    0 -0.22328379824E+02  0.17178531424E+03  0.22356066742E+03  0.28282171549E+03  0.00000000000E+00 0. -1.
         -1    1    3    3    0  502 -0.99766767751E+02  0.17381489915E+03  0.20238006515E+03  0.28482050116E+03  0.00000000000E+00 0.  1.
         13    1    5    5    0    0  0.43643623047E+02 -0.17592945076E+03 -0.24149365151E+03  0.30195218363E+03  0.00000000000E+00 0. -1.
        -13    1    5    5    0    0  0.95568570853E+02 -0.86365749750E+02 -0.19586233804E+03  0.23442365479E+03  0.00000000000E+00 0.  1.
          1    1    4    4  503    0  0.49442922993E+02  0.14140970269E+02  0.52860470443E+02  0.73748213603E+02  0.00000000000E+00 0. -1.
         -1    1    4    4    0  503 -0.66559969318E+02 -0.97445983144E+02  0.34680371769E+03  0.36633149980E+03  0.00000000000E+00 0.  1.
<mgrwt>
<rscale>  0 0.14944901E+04</rscale>
<asrwt>0</asrwt>
<pdfrwt beam="1">  1        2 0.14864205E+00 0.14944901E+04</pdfrwt>
<pdfrwt beam="2">  1       -1 0.88911449E-01 0.14944901E+04</pdfrwt>
<totfact> 0.36267310E+01</totfact>
</mgrwt>
</event>
<event>
12    7  0.1497947E-008  0.2286044E+04  0.7818608E-02  0.8483444E-01
          2   -1    0    0  501    0  0.00000000000E+00  0.00000000000E+00  0.11521713459E+04  0.11521713459E+04  0.00000000000E+00 0. -1.
         -1   -1    0    0    0  501 -0.00000000000E+00 -0.00000000000E+00 -0.11339452375E+04  0.11339452375E+04  0.00000000000E+00 0.  1.
         24    2    1    2    0    0  0.73364298276E+03 -0.30010004165E+03  0.57445693151E+03  0.98214129303E+03  0.79427275892E+02 0.  0.
        254    2    1    2    0    0 -0.73364298276E+03  0.30010004165E+03 -0.55623082314E+03  0.13039752903E+04  0.87330794571E+03 0.  0.
         23    2    4    4    0    0 -0.73409981241E+03 -0.68669652291E+02 -0.54130804459E+03  0.92009504737E+03  0.99711791342E+02 0.  0.
         23    2    4    4    0    0  0.45682965313E+00  0.36876969394E+03 -0.14922778548E+02  0.38388024296E+03  0.10559382441E+03 0.  0.
          4    1    3    3  502    0  0.36218996496E+02 -0.11212696989E+02  0.90326126215E+01  0.38975997379E+02  0.00000000000E+00 0. -1.
         -3    1    3    3    0  502  0.69742398626E+03 -0.28888734466E+03  0.56542431889E+03  0.94316529565E+03  0.00000000000E+00 0.  1.
         13    1    5    5    0    0 -0.30313619539E+02 -0.22703294456E+02 -0.18385521357E+02  0.42099673446E+02  0.00000000000E+00 0. -1.
        -13    1    5    5    0    0 -0.70378619287E+03 -0.45966357835E+02 -0.52292252323E+03  0.87799537392E+03  0.00000000000E+00 0.  1.
          3    1    6    6  503    0 -0.48682798967E+02  0.22490930708E+03 -0.25303468026E+02  0.23150480949E+03  0.00000000000E+00 0. -1.
         -3    1    6    6    0  503  0.49139628620E+02  0.14386038687E+03  0.10380689479E+02  0.15237543347E+03  0.00000000000E+00 0.  1.
<mgrwt>
<rscale>  0 0.22860439E+04</rscale>
<asrwt>0</asrwt>
<pdfrwt beam="1">  1        2 0.17725713E+00 0.22860439E+04</pdfrwt>
<pdfrwt beam="2">  1       -1 0.17445311E+00 0.22860439E+04</pdfrwt>
<totfact> 0.47810387E+00</totfact>
</mgrwt>
</event>
<event>
11    7  0.1497947E-008  0.1763559E+04  0.7818608E-02  0.8725922E-01
          2   -1    0    0  501    0  0.00000000000E+00  0.00000000000E+00  0.15196620042E+04  0.15196620042E+04  0.00000000000E+00 0. -1.
         -1   -1    0    0    0  501 -0.00000000000E+00 -0.00000000000E+00 -0.51164988456E+03  0.51164988456E+03  0.00000000000E+00 0.  1.
         24    2    1    2    0    0 -0.15101081505E+03  0.41306174191E+03  0.92245831489E+03  0.10250975402E+04  0.80444735152E+02 0.  0.
        254    2    1    2    0    0  0.15101081505E+03 -0.41306174191E+03  0.85553804770E+02  0.10062143485E+04  0.90095704270E+03 0.  0.
         23    2    4    4    0    0 -0.24865260392E+03 -0.30319521738E+03 -0.23184860415E+03  0.46530638412E+03  0.94872538630E+02 0.  0.
          4    1    3    3  502    0 -0.14724186952E+03  0.40113348756E+03  0.91655059009E+03  0.10112631839E+04  0.00000000000E+00 0. -1.
         -3    1    3    3    0  502 -0.37689455335E+01  0.11928254355E+02  0.59077248039E+01  0.13834356318E+02  0.00000000000E+00 0.  1.
         13    1    5    5    0    0 -0.19161841824E+03 -0.27717239722E+03 -0.17069478399E+03  0.37772856031E+03  0.00000000000E+00 0. -1.
        -13    1    5    5    0    0 -0.57034185677E+02 -0.26022820157E+02 -0.61153820157E+02  0.87577823817E+02  0.00000000000E+00 0.  1.
          1    1    4    4  503    0  0.16888119199E+03  0.21538717454E+02  0.98075694335E+02  0.19647802721E+03  0.00000000000E+00 0. -1.
         -1    1    4    4    0  503  0.23078222698E+03 -0.13140524199E+03  0.21932671458E+03  0.34442993720E+03  0.00000000000E+00 0.  1.
<mgrwt>
<rscale>  0 0.17635588E+04</rscale>
<asrwt>0</asrwt>
<pdfrwt beam="1">  1        2 0.23379415E+00 0.17635588E+04</pdfrwt>
<pdfrwt beam="2">  1       -1 0.78715367E-01 0.17635588E+04</pdfrwt>
<totfact> 0.21552423E+01</totfact>
</mgrwt>
</event>
<event>
11    7  0.1497947E-008  0.1281556E+04  0.7818608E-02  0.9044320E-01
         -1   -1    0    0    0  501 -0.00000000000E+00  0.00000000000E+00  0.20438869020E+03  0.20438869020E+03  0.00000000000E+00 0.  1.
          2   -1    0    0  501    0  0.00000000000E+00 -0.00000000000E+00 -0.20089014212E+04  0.20089014212E+04  0.00000000000E+00 0. -1.
         24    2    1    2    0    0  0.34506421020E+02  0.46417616403E+01  0.84150918826E+02  0.12119226397E+03  0.79962170210E+02 0.  0.
        254    2    1    2    0    0 -0.34506421020E+02 -0.46417616403E+01 -0.18886636498E+04  0.20920978474E+04  0.89922788101E+03 0.  0.
         23    2    4    4    0    0  0.18135378349E+03  0.19125043030E+00 -0.17996117156E+03  0.26941713113E+03  0.85500502403E+02 0.  0.
          2    1    3    3  502    0  0.10528783580E+02  0.16734961289E+01 -0.15411904069E+02  0.18739868196E+02  0.00000000000E+00 0. -1.
         -1    1    3    3    0  502  0.23977637440E+02  0.29682655114E+01  0.99562822895E+02  0.10245239578E+03  0.00000000000E+00 0.  1.
         13    1    5    5    0    0  0.68032086159E+02  0.41556867466E+02 -0.76601456051E+02  0.11055822470E+03  0.00000000000E+00 0. -1.
        -13    1    5    5    0    0  0.11332169734E+03 -0.41365617035E+02 -0.10335971551E+03  0.15885890642E+03  0.00000000000E+00 0.  1.
          2    1    4    4  503    0  0.32238386017E+02 -0.26926661377E+03 -0.69085414173E+03  0.74217468831E+03  0.00000000000E+00 0. -1.
         -2    1    4    4    0  503 -0.24809859053E+03  0.26443360170E+03 -0.10178483365E+04  0.10805060280E+04  0.00000000000E+00 0.  1.
<mgrwt>
<rscale>  0 0.12815564E+04</rscale>
<asrwt>0</asrwt>
<pdfrwt beam="1">  1        2 0.30906175E+00 0.12815564E+04</pdfrwt>
<pdfrwt beam="2">  1       -1 0.31444414E-01 0.12815564E+04</pdfrwt>
<totfact> 0.69424177E+01</totfact>
</mgrwt>
</event>
<event>
12    7  0.1497947E-008  0.2841823E+04  0.7818608E-02  0.8290400E-01
         -1   -1    0    0    0  501 -0.00000000000E+00  0.00000000000E+00  0.16514415021E+04  0.16514415021E+04  0.00000000000E+00 0.  1.
          2   -1    0    0  501    0  0.00000000000E+00 -0.00000000000E+00 -0.12225619015E+04  0.12225619015E+04  0.00000000000E+00 0. -1.
         24    2    1    2    0    0 -0.61469510540E+03  0.62240403847E+03 -0.74285241686E+03  0.11500371656E+04  0.74289362088E+02 0.  0.
        254    2    1    2    0    0  0.61469510540E+03 -0.62240403847E+03  0.11717320175E+04  0.17239662380E+04  0.91316307914E+03 0.  0.
         23    2    4    4    0    0 -0.10424324579E+03 -0.38927155342E+03  0.13004165915E+03  0.43264117627E+03  0.88704891022E+02 0.  0.
         23    2    4    4    0    0  0.71893835119E+03 -0.23313248505E+03  0.10416903584E+04  0.12913250617E+04  0.10572844399E+03 0.  0.
          4    1    3    3  502    0 -0.54262155351E+03  0.51207546443E+03 -0.63555959376E+03  0.98009970352E+03  0.00000000000E+00 0. -1.
         -3    1    3    3    0  502 -0.72073551884E+02  0.11032857404E+03 -0.10729282309E+03  0.16993746208E+03  0.00000000000E+00 0.  1.
         13    1    5    5    0    0 -0.36498659846E+02 -0.50344299449E+02  0.44838426375E+02  0.76662801523E+02  0.00000000000E+00 0. -1.
        -13    1    5    5    0    0 -0.67744585948E+02 -0.33892725397E+03  0.85203232770E+02  0.35597837474E+03  0.00000000000E+00 0.  1.
          3    1    6    6  503    0  0.15959007725E+03 -0.99342306284E+01  0.24651889215E+03  0.29383540611E+03  0.00000000000E+00 0. -1.
         -3    1    6    6    0  503  0.55934827393E+03 -0.22319825442E+03  0.79517146625E+03  0.99748965562E+03  0.00000000000E+00 0.  1.
<mgrwt>
<rscale>  0 0.28418230E+04</rscale>
<asrwt>0</asrwt>
<pdfrwt beam="1">  1        2 0.18808645E+00 0.28418230E+04</pdfrwt>
<pdfrwt beam="2">  1       -1 0.25406793E+00 0.28418230E+04</pdfrwt>
<totfact> 0.11897937E+00</totfact>
</mgrwt>
</event>
<event>
12    7  0.1497947E-008  0.2302169E+04  0.7818608E-02  0.8477066E-01
          2   -1    0    0  501    0  0.00000000000E+00  0.00000000000E+00  0.21990696680E+04  0.21990696680E+04  0.00000000000E+00 0. -1.
         -1   -1    0    0    0  501 -0.00000000000E+00 -0.00000000000E+00 -0.60252560059E+03  0.60252560059E+03  0.00000000000E+00 0.  1.
         24    2    1    2    0    0  0.11962133709E+03  0.35513822969E+03  0.17147931779E+04  0.17571953847E+04  0.82386592790E+02 0.  0.
        254    2    1    2    0    0 -0.11962133709E+03 -0.35513822969E+03 -0.11824911045E+03  0.10443998839E+04  0.96765481390E+03 0.  0.
         23    2    4    4    0    0 -0.56473569233E+02 -0.11661666516E+03 -0.53490361010E+03  0.55606645279E+03  0.79368237997E+02 0.  0.
         23    2    4    4    0    0 -0.63147767856E+02 -0.23852156453E+03  0.41665449964E+03  0.48833343110E+03  0.63153705576E+02 0.  0.
          4    1    3    3  502    0  0.93537312729E+02  0.33171139623E+03  0.14673981424E+04  0.15073284272E+04  0.00000000000E+00 0. -1.
         -3    1    3    3    0  502  0.26084024360E+02  0.23426833460E+02  0.24739503555E+03  0.24986695753E+03  0.00000000000E+00 0.  1.
         13    1    5    5    0    0 -0.16751845368E-01  0.65134216639E+01 -0.10781765399E+03  0.10801421876E+03  0.00000000000E+00 0.  1.
        -13    1    5    5    0    0 -0.56456817387E+02 -0.12313008682E+03 -0.42708595611E+03  0.44805223402E+03  0.00000000000E+00 0. -1.
          1    1    6    6  503    0 -0.54761740618E+02 -0.18515674131E+03  0.36824755945E+03  0.41579818678E+03  0.00000000000E+00 0. -1.
         -1    1    6    6    0  503 -0.83860272379E+01 -0.53364823220E+02  0.48406940195E+02  0.72535244324E+02  0.00000000000E+00 0.  1.
<mgrwt>
<rscale>  0 0.23021692E+04</rscale>
<asrwt>0</asrwt>
<pdfrwt beam="1">  1        2 0.33831841E+00 0.23021692E+04</pdfrwt>
<pdfrwt beam="2">  1       -1 0.92696247E-01 0.23021692E+04</pdfrwt>
<totfact> 0.60321598E+00</totfact>
</mgrwt>
</event>
<event>
11    7  0.1497947E-008  0.1541897E+04  0.7818608E-02  0.8857060E-01
          2   -1    0    0  501    0  0.00000000000E+00  0.00000000000E+00  0.74078311117E+03  0.74078311117E+03  0.00000000000E+00 0. -1.
         -1   -1    0    0    0  501 -0.00000000000E+00 -0.00000000000E+00 -0.80234274484E+03  0.80234274484E+03  0.00000000000E+00 0.  1.
         24    2    1    2    0    0 -0.36946479804E+03  0.31148901858E+03  0.13289469494E+03  0.50740579763E+03  0.79183317937E+02 0.  0.
        254    2    1    2    0    0  0.36946479804E+03 -0.31148901858E+03 -0.19445432860E+03  0.10357200584E+04  0.89519489931E+03 0.  0.
         23    2    4    4    0    0  0.57887571465E+03 -0.15682293387E+03  0.12717477840E+03  0.61982866632E+03  0.91233906628E+02 0.  0.
          4    1    3    3  502    0 -0.11372599867E+03  0.12506541906E+03  0.78146807431E+02  0.18623073143E+03  0.00000000000E+00 0. -1.
         -3    1    3    3    0  502 -0.25573879937E+03  0.18642359952E+03  0.54747887508E+02  0.32117506619E+03  0.00000000000E+00 0.  1.
         13    1    5    5    0    0  0.41966597425E+03 -0.10741078186E+03  0.49802786971E+02  0.43604692820E+03  0.00000000000E+00 0.  1.
        -13    1    5    5    0    0  0.15920974041E+03 -0.49412152009E+02  0.77371991433E+02  0.18378173812E+03  0.00000000000E+00 0. -1.
          1    1    4    4  503    0 -0.12118081398E+03 -0.83577923372E+02 -0.21304788733E+03  0.25895841606E+03  0.00000000000E+00 0. -1.
         -1    1    4    4    0  503 -0.88230102633E+02 -0.71088161334E+02 -0.10858121968E+03  0.15693297601E+03  0.00000000000E+00 0.  1.
<mgrwt>
<rscale>  0 0.15418975E+04</rscale>
<asrwt>0</asrwt>
<pdfrwt beam="1">  1        2 0.11396663E+00 0.15418975E+04</pdfrwt>
<pdfrwt beam="2">  1       -1 0.12343735E+00 0.15418975E+04</pdfrwt>
<totfact> 0.24206903E+01</totfact>
</mgrwt>
</event>
<event>
12    7  0.1497947E-008  0.1376550E+04  0.7818608E-02  0.8970970E-01
          2   -1    0    0  501    0  0.00000000000E+00  0.00000000000E+00  0.11649437184E+04  0.11649437184E+04  0.00000000000E+00 0. -1.
         -1   -1    0    0    0  501 -0.00000000000E+00 -0.00000000000E+00 -0.40664822827E+03  0.40664822827E+03  0.00000000000E+00 0.  1.
         24    2    1    2    0    0 -0.10748379328E+03  0.14467431680E+03 -0.17942462381E+03  0.26709686518E+03  0.81634037021E+02 0.  0.
        254    2    1    2    0    0  0.10748379328E+03 -0.14467431680E+03  0.93772011394E+03  0.13044950815E+04  0.88876598820E+03 0.  0.
         23    2    4    4    0    0 -0.29549454468E+03 -0.13569914973E+03  0.74822042390E+02  0.34601184834E+03  0.91621918726E+02 0.  0.
         23    2    4    4    0    0  0.40297833796E+03 -0.89751670736E+01  0.86289807155E+03  0.95848323315E+03  0.10781897724E+03 0.  0.
          2    1    3    3  502    0  0.31202290541E+01  0.31633502881E+02 -0.59258707333E+01  0.32334660626E+02  0.00000000000E+00 0. -1.
         -1    1    3    3    0  502 -0.11060402233E+03  0.11304081392E+03 -0.17349875308E+03  0.23476220455E+03  0.00000000000E+00 0.  1.
         13    1    5    5    0    0 -0.23303291475E+03 -0.14453670238E+03  0.53236314697E+02  0.27933725654E+03  0.00000000000E+00 0. -1.
        -13    1    5    5    0    0 -0.62461629937E+02  0.88375526562E+01  0.21585727693E+02  0.66674591797E+02  0.00000000000E+00 0.  1.
          4    1    6    6  503    0  0.38370886788E+03 -0.11369224303E+02  0.73587129054E+03  0.82998090989E+03  0.00000000000E+00 0. -1.
         -4    1    6    6    0  503  0.19269470077E+02  0.23940572293E+01  0.12702678101E+03  0.12850232325E+03  0.00000000000E+00 0.  1.
<mgrwt>
<rscale>  0 0.13765497E+04</rscale>
<asrwt>0</asrwt>
<pdfrwt beam="1">  1        2 0.17922211E+00 0.13765497E+04</pdfrwt>
<pdfrwt beam="2">  1       -1 0.62561266E-01 0.13765497E+04</pdfrwt>
<totfact> 0.57285149E+01</totfact>
</mgrwt>
</event>
<event>
12    7  0.1497947E-008  0.1426155E+04  0.7818608E-02  0.8935101E-01
          2   -1    0    0  501    0  0.00000000000E+00  0.00000000000E+00  0.11743590882E+04  0.11743590882E+04  0.00000000000E+00 0. -1.
         -1   -1    0    0    0  501 -0.00000000000E+00 -0.00000000000E+00 -0.43298445973E+03  0.43298445973E+03  0.00000000000E+00 0.  1.
         24    2    1    2    0    0  0.15041523609E+03 -0.31821353194E+03 -0.50574890127E+02  0.36463929323E+03  0.80742798430E+02 0.  0.
        254    2    1    2    0    0 -0.15041523609E+03  0.31821353194E+03  0.79194951860E+03  0.12427042547E+04  0.89064315497E+03 0.  0.
         23    2    4    4    0    0 -0.57511725568E+02  0.12802627665E+03 -0.17749141859E+03  0.24379604095E+03  0.90746789588E+02 0.  0.
         23    2    4    4    0    0 -0.92903510524E+02  0.19018725529E+03  0.96944093719E+03  0.99890821375E+03  0.11488966208E+03 0.  0.
          2    1    3    3  502    0  0.20720886011E+02 -0.10136705038E+03  0.12494991512E+02  0.10421496453E+03  0.00000000000E+00 0. -1.
         -1    1    3    3    0  502  0.12969435008E+03 -0.21684648156E+03 -0.63069881639E+02  0.26042432870E+03  0.00000000000E+00 0.  1.
         13    1    5    5    0    0  0.14960447148E+02  0.13561890591E+01 -0.13930241401E+01  0.15086243532E+02  0.00000000000E+00 0. -1.
        -13    1    5    5    0    0 -0.72472172717E+02  0.12667008759E+03 -0.17609839445E+03  0.22870979742E+03  0.00000000000E+00 0.  1.
          2    1    6    6  503    0  0.76583214449E+01 -0.26399902077E+01  0.35621591190E+01  0.88492041020E+01  0.00000000000E+00 0.  1.
         -2    1    6    6    0  503 -0.10056183197E+03  0.19282724550E+03  0.96587877807E+03  0.99005900965E+03  0.00000000000E+00 0. -1.
<mgrwt>
<rscale>  0 0.14261546E+04</rscale>
<asrwt>0</asrwt>
<pdfrwt beam="1">  1        2 0.18067063E+00 0.14261546E+04</pdfrwt>
<pdfrwt beam="2">  1       -1 0.66612994E-01 0.14261546E+04</pdfrwt>
<totfact> 0.49643622E+01</totfact>
</mgrwt>
</event>
<event>
12    7  0.1497947E-008  0.2376577E+04  0.7818608E-02  0.8448325E-01
         -1   -1    0    0    0  501 -0.00000000000E+00  0.00000000000E+00  0.12803562756E+04  0.12803562756E+04  0.00000000000E+00 0.  1.
          2   -1    0    0  501    0  0.00000000000E+00 -0.00000000000E+00 -0.11028415112E+04  0.11028415112E+04  0.00000000000E+00 0. -1.
         24    2    1    2    0    0  0.16413790923E+03 -0.72096300366E+03 -0.54947326172E+03  0.92502857792E+03  0.83833756545E+02 0.  0.
        254    2    1    2    0    0 -0.16413790923E+03  0.72096300366E+03  0.72698802617E+03  0.14581692089E+04  0.10251911752E+04 0.  0.
         23    2    4    4    0    0 -0.52990503550E+03  0.29084747385E+03  0.11413910464E+03  0.62187060992E+03  0.91124752864E+02 0.  0.
         23    2    4    4    0    0  0.36576712627E+03  0.43011552980E+03  0.61284892153E+03  0.83629859897E+03  0.70898422965E+02 0.  0.
          2    1    3    3  502    0  0.17054052160E+03 -0.66366685700E+03 -0.52054035818E+03  0.86052311479E+03  0.00000000000E+00 0. -1.
         -1    1    3    3    0  502 -0.64026123736E+01 -0.57296146652E+02 -0.28932903543E+02  0.64505463131E+02  0.00000000000E+00 0.  1.
         13    1    5    5    0    0 -0.99335702997E+02  0.72814445334E+02 -0.98925301999E+01  0.12356127020E+03  0.00000000000E+00 0.  1.
        -13    1    5    5    0    0 -0.43056933250E+03  0.21803302852E+03  0.12403163484E+03  0.49830933972E+03  0.00000000000E+00 0. -1.
          3    1    6    6  503    0  0.33932527598E+03  0.37003609503E+03  0.52247959712E+03  0.72460560580E+03  0.00000000000E+00 0. -1.
         -3    1    6    6    0  503  0.26441850285E+02  0.60079434774E+02  0.90369324407E+02  0.11169299317E+03  0.00000000000E+00 0.  1.
<mgrwt>
<rscale>  0 0.23765774E+04</rscale>
<asrwt>0</asrwt>
<pdfrwt beam="1">  1        2 0.16966792E+00 0.23765774E+04</pdfrwt>
<pdfrwt beam="2">  1       -1 0.19697789E+00 0.23765774E+04</pdfrwt>
<totfact> 0.35197874E+00</totfact>
</mgrwt>
</event>
<event>
12    7  0.1497947E-008  0.1460123E+04  0.7818608E-02  0.8911412E-01
         -1   -1    0    0    0  501 -0.00000000000E+00  0.00000000000E+00  0.20005975730E+03  0.20005975730E+03  0.00000000000E+00 0.  1.
          2   -1    0    0  501    0  0.00000000000E+00 -0.00000000000E+00 -0.26641525266E+04  0.26641525266E+04  0.00000000000E+00 0. -1.
         24    2    1    2    0    0  0.37477977493E+03  0.40380002666E+02 -0.12039873870E+04  0.12641626429E+04  0.80194359146E+02 0.  0.
        254    2    1    2    0    0 -0.37477977493E+03 -0.40380002666E+02 -0.12601053823E+04  0.16000496411E+04  0.91115468227E+03 0.  0.
         23    2    4    4    0    0  0.62223685582E+02 -0.20942273643E+03 -0.10584284829E+04  0.10845859821E+04  0.91248175286E+02 0.  0.
         23    2    4    4    0    0 -0.43700346051E+03  0.16904273377E+03 -0.20167689943E+03  0.51546365901E+03  0.74038784827E+02 0.  0.
          2    1    3    3  502    0  0.34903185596E+03  0.27985141444E+02 -0.10311699215E+04  0.10889985361E+04  0.00000000000E+00 0. -1.
         -1    1    3    3    0  502  0.25747918966E+02  0.12394861222E+02 -0.17281746551E+03  0.17516410677E+03  0.00000000000E+00 0.  1.
         13    1    5    5    0    0  0.20135879097E+01 -0.87668130798E+02 -0.25255524132E+03  0.26734604095E+03  0.00000000000E+00 0. -1.
        -13    1    5    5    0    0  0.60210097673E+02 -0.12175460563E+03 -0.80587324160E+03  0.81723994113E+03  0.00000000000E+00 0.  1.
          1    1    6    6  503    0 -0.36173285091E+02  0.76472095359E+00  0.13723873267E+00  0.36181627753E+02  0.00000000000E+00 0. -1.
         -1    1    6    6    0  503 -0.40083017542E+03  0.16827801281E+03 -0.20181413816E+03  0.47928203126E+03  0.00000000000E+00 0.  1.
<mgrwt>
<rscale>  0 0.14601229E+04</rscale>
<asrwt>0</asrwt>
<pdfrwt beam="1">  1        2 0.40986960E+00 0.14601229E+04</pdfrwt>
<pdfrwt beam="2">  1       -1 0.30778426E-01 0.14601229E+04</pdfrwt>
<totfact> 0.30157541E+01</totfact>
</mgrwt>
</event>
<event>
11    7  0.1497947E-008  0.1860047E+04  0.7818608E-02  0.8675003E-01
         -1   -1    0    0    0  501 -0.00000000000E+00  0.00000000000E+00  0.12298133406E+04  0.12298133406E+04  0.00000000000E+00 0.  1.
          2   -1    0    0  501    0  0.00000000000E+00 -0.00000000000E+00 -0.70331323304E+03  0.70331323304E+03  0.00000000000E+00 0. -1.
         24    2    1    2    0    0  0.48817862289E+03 -0.56934560599E+02 -0.31609933558E+03  0.58983558111E+03  0.80170510458E+02 0.  0.
        254    2    1    2    0    0 -0.48817862289E+03  0.56934560599E+02  0.84259944318E+03  0.13432909926E+04  0.92352420490E+03 0.  0.
         23    2    4    4    0    0 -0.12628870603E+02 -0.82453550663E+02 -0.13067585983E+03  0.17897054965E+03  0.89421479028E+02 0.  0.
          2    1    3    3  502    0  0.18518379374E+03  0.14985912031E+01 -0.15631834225E+03  0.24234419193E+03  0.00000000000E+00 0. -1.
         -3    1    3    3    0  502  0.30299482914E+03 -0.58433151802E+02 -0.15978099334E+03  0.34749138917E+03  0.00000000000E+00 0.  1.
         13    1    5    5    0    0  0.33064254245E+02 -0.36704543619E+02 -0.25718165399E+02  0.55694635851E+02  0.00000000000E+00 0.  1.
        -13    1    5    5    0    0 -0.45693124848E+02 -0.45749007044E+02 -0.10495769443E+03  0.12327591380E+03  0.00000000000E+00 0. -1.
          1    1    4    4  503    0 -0.33326893860E+03  0.34323277628E+02  0.92076198727E+03  0.97982085608E+03  0.00000000000E+00 0. -1.
         -1    1    4    4    0  503 -0.14228081369E+03  0.10506483363E+03  0.52513315743E+02  0.18449958683E+03  0.00000000000E+00 0.  1.
<mgrwt>
<rscale>  0 0.18600473E+04</rscale>
<asrwt>0</asrwt>
<pdfrwt beam="1">  1        2 0.10820204E+00 0.18600473E+04</pdfrwt>
<pdfrwt beam="2">  1       -1 0.18920205E+00 0.18600473E+04</pdfrwt>
<totfact> 0.78195452E+00</totfact>
</mgrwt>
</event>
<event>
11    7  0.1497947E-008  0.2294076E+04  0.7818608E-02  0.8480261E-01
         -1   -1    0    0    0  501 -0.00000000000E+00  0.00000000000E+00  0.49149913259E+03  0.49149913259E+03  0.00000000000E+00 0.  1.
          2   -1    0    0  501    0  0.00000000000E+00 -0.00000000000E+00 -0.26769042511E+04  0.26769042511E+04  0.00000000000E+00 0. -1.
         24    2    1    2    0    0  0.75628930458E+03 -0.13630873137E+03 -0.17453386665E+04  0.19086611067E+04  0.78908661529E+02 0.  0.
        254    2    1    2    0    0 -0.75628930458E+03  0.13630873137E+03 -0.44006645192E+03  0.12597422769E+04  0.89595677336E+03 0.  0.
         23    2    4    4    0    0 -0.36788131426E+02  0.10158534684E+03  0.20043120049E+03  0.24473113244E+03  0.89709039403E+02 0.  0.
          4    1    3    3  502    0  0.64386166169E+03 -0.14313156569E+03 -0.14714393697E+04  0.16125068382E+04  0.00000000000E+00 0. -1.
         -3    1    3    3    0  502  0.11242764289E+03  0.68228343179E+01 -0.27389929684E+03  0.29615426852E+03  0.00000000000E+00 0.  1.
         13    1    5    5    0    0 -0.69835501126E+01  0.21789486449E+02  0.13604137494E+03  0.13795219240E+03  0.00000000000E+00 0. -1.
        -13    1    5    5    0    0 -0.29804581314E+02  0.79795860392E+02  0.64389825551E+02  0.10677894005E+03  0.00000000000E+00 0.  1.
          4    1    4    4  503    0 -0.98184768832E+02  0.11367785594E+03 -0.62308212800E+02  0.16261985471E+03  0.00000000000E+00 0.  1.
         -4    1    4    4    0  503 -0.62131640432E+03 -0.78954471411E+02 -0.57818943961E+03  0.85239128979E+03  0.00000000000E+00 0. -1.
<mgrwt>
<rscale>  0 0.22940760E+04</rscale>
<asrwt>0</asrwt>
<pdfrwt beam="1">  1        2 0.41183142E+00 0.22940760E+04</pdfrwt>
<pdfrwt beam="2">  1       -1 0.75615251E-01 0.22940760E+04</pdfrwt>
<totfact> 0.49721616E+00</totfact>
</mgrwt>
</event>
<event>
12    7  0.1497947E-008  0.1955948E+04  0.7818608E-02  0.8627498E-01
          2   -1    0    0  501    0  0.00000000000E+00  0.00000000000E+00  0.65314021732E+03  0.65314021732E+03  0.00000000000E+00 0. -1.
         -1   -1    0    0    0  501 -0.00000000000E+00 -0.00000000000E+00 -0.14643603959E+04  0.14643603959E+04  0.00000000000E+00 0.  1.
         24    2    1    2    0    0 -0.65189567164E+03 -0.34979613426E+03 -0.84101125213E+02  0.74868272745E+03  0.78278508348E+02 0.  0.
        254    2    1    2    0    0  0.65189567164E+03  0.34979613426E+03 -0.72711905341E+03  0.13688178858E+04  0.89310412855E+03 0.  0.
         23    2    4    4    0    0  0.41385630881E+03  0.26732126393E+03  0.86564551474E+02  0.50795755330E+03  0.88259571142E+02 0.  0.
         23    2    4    4    0    0  0.23803936283E+03  0.82474870333E+02 -0.81368360488E+03  0.86086033251E+03  0.12463811911E+03 0.  0.
          4    1    3    3  502    0 -0.62637891422E+03 -0.31595415674E+03 -0.78575689468E+02  0.70594030365E+03  0.00000000000E+00 0. -1.
         -3    1    3    3    0  502 -0.25516757416E+02 -0.33841977526E+02 -0.55254357450E+01  0.42742423797E+02  0.00000000000E+00 0.  1.
         13    1    5    5    0    0  0.71811309804E+02  0.88305693171E+02  0.30624804798E+02  0.11786703666E+03  0.00000000000E+00 0. -1.
        -13    1    5    5    0    0  0.34204499900E+03  0.17901557076E+03  0.55939746676E+02  0.39009051664E+03  0.00000000000E+00 0.  1.
          4    1    6    6  503    0  0.55906672881E+02  0.80795330815E+02 -0.25722879972E+03  0.27535449327E+03  0.00000000000E+00 0.  1.
         -4    1    6    6    0  503  0.18213268995E+03  0.16795395181E+01 -0.55645480516E+03  0.58550583924E+03  0.00000000000E+00 0. -1.
<mgrwt>
<rscale>  0 0.19559475E+04</rscale>
<asrwt>0</asrwt>
<pdfrwt beam="1">  1        2 0.10048311E+00 0.19559475E+04</pdfrwt>
<pdfrwt beam="2">  1       -1 0.22528621E+00 0.19559475E+04</pdfrwt>
<totfact> 0.48266686E+00</totfact>
</mgrwt>
</event>
<event>
11    7  0.1497947E-008  0.2292581E+04  0.7818608E-02  0.8480852E-01
         -1   -1    0    0    0  501 -0.00000000000E+00  0.00000000000E+00  0.10966232582E+04  0.10966232582E+04  0.00000000000E+00 0.  1.
          2   -1    0    0  501    0  0.00000000000E+00 -0.00000000000E+00 -0.11982070833E+04  0.11982070833E+04  0.00000000000E+00 0. -1.
         24    2    1    2    0    0  0.79625085059E+03 -0.50997528883E+03 -0.24987066048E+03  0.98131784775E+03  0.80368893526E+02 0.  0.
        254    2    1    2    0    0 -0.79625085059E+03  0.50997528883E+03  0.14828683539E+03  0.13135124938E+04  0.89957538514E+03 0.  0.
         23    2    4    4    0    0 -0.73450047677E+03  0.68256271856E+03  0.11865783645E+03  0.10137321435E+04  0.90500615682E+02 0.  0.
          4    1    3    3  502    0  0.29898130652E+03 -0.20791246372E+03 -0.58537782556E+02  0.36884154621E+03  0.00000000000E+00 0. -1.
         -3    1    3    3    0  502  0.49726954407E+03 -0.30206282511E+03 -0.19133287793E+03  0.61247630154E+03  0.00000000000E+00 0.  1.
         13    1    5    5    0    0 -0.65508764539E+03  0.60170258111E+03  0.76345905364E+02  0.89275669503E+03  0.00000000000E+00 0. -1.
        -13    1    5    5    0    0 -0.79412831378E+02  0.80860137450E+02  0.42311931085E+02  0.12097544845E+03  0.00000000000E+00 0.  1.
          3    1    4    4  503    0 -0.99558218431E+02 -0.21773945833E+03  0.24067674912E+02  0.24062743723E+03  0.00000000000E+00 0. -1.
         -3    1    4    4    0  503  0.37807844613E+02  0.45152028609E+02  0.55613240316E+01  0.59152913088E+02  0.00000000000E+00 0.  1.
<mgrwt>
<rscale>  0 0.22925809E+04</rscale>
<asrwt>0</asrwt>
<pdfrwt beam="1">  1        2 0.18433955E+00 0.22925809E+04</pdfrwt>
<pdfrwt beam="2">  1       -1 0.16871127E+00 0.22925809E+04</pdfrwt>
<totfact> 0.49384541E+00</totfact>
</mgrwt>
</event>
<event>
12    7  0.1497947E-008  0.1560121E+04  0.7818608E-02  0.8845429E-01
         -1   -1    0    0    0  501 -0.00000000000E+00  0.00000000000E+00  0.28612162239E+03  0.28612162239E+03  0.00000000000E+00 0.  1.
          2   -1    0    0  501    0  0.00000000000E+00 -0.00000000000E+00 -0.21266986547E+04  0.21266986547E+04  0.00000000000E+00 0. -1.
         24    2    1    2    0    0  0.46729929986E+03 -0.17954221770E+03 -0.42240168248E+03  0.66046843758E+03  0.84801722241E+02 0.  0.
        254    2    1    2    0    0 -0.46729929986E+03  0.17954221770E+03 -0.14181753498E+04  0.17523518395E+04  0.89939513173E+03 0.  0.
         23    2    4    4    0    0 -0.21264156645E+03 -0.23702758318E+03 -0.11249531372E+04  0.11726600006E+04  0.90627839385E+02 0.  0.
         23    2    4    4    0    0 -0.25465773341E+03  0.41656980088E+03 -0.29322221264E+03  0.57969183887E+03  0.10808516029E+03 0.  0.
          2    1    3    3  502    0  0.27564842441E+03 -0.64647891870E+02 -0.25808196604E+03  0.38310273426E+03  0.00000000000E+00 0. -1.
         -1    1    3    3    0  502  0.19165087545E+03 -0.11489432583E+03 -0.16431971644E+03  0.27736570332E+03  0.00000000000E+00 0.  1.
         13    1    5    5    0    0 -0.14070660821E+02 -0.65202431996E+02 -0.28044541164E+03  0.28826891879E+03  0.00000000000E+00 0.  1.
        -13    1    5    5    0    0 -0.19857090563E+03 -0.17182515118E+03 -0.84450772552E+03  0.88439108182E+03  0.00000000000E+00 0. -1.
          4    1    6    6  503    0 -0.82588337197E+02  0.79021013587E+02 -0.11078176329E+03  0.15917836884E+03  0.00000000000E+00 0.  1.
         -4    1    6    6    0  503 -0.17206939621E+03  0.33754878729E+03 -0.18244044935E+03  0.42051347003E+03  0.00000000000E+00 0. -1.
<mgrwt>
<rscale>  0 0.15601211E+04</rscale>
<asrwt>0</asrwt>
<pdfrwt beam="1">  1        2 0.32718439E+00 0.15601211E+04</pdfrwt>
<pdfrwt beam="2">  1       -1 0.44018714E-01 0.15601211E+04</pdfrwt>
<totfact> 0.31758688E+01</totfact>
</mgrwt>
</event>
<event>
12    7  0.1497947E-008  0.2173900E+04  0.7818608E-02  0.8529370E-01
          2   -1    0    0  501    0  0.00000000000E+00  0.00000000000E+00  0.17658331746E+04  0.17658331746E+04  0.00000000000E+00 0. -1.
         -1   -1    0    0    0  501 -0.00000000000E+00 -0.00000000000E+00 -0.66906707019E+03  0.66906707019E+03  0.00000000000E+00 0.  1.
         24    2    1    2    0    0 -0.75561517735E+03 -0.33116600292E+03 -0.47167558480E+01  0.82910013244E+03  0.82216568327E+02 0.  0.
        254    2    1    2    0    0  0.75561517735E+03  0.33116600292E+03  0.11014828603E+04  0.16058001124E+04  0.82746860465E+03 0.  0.
         23    2    4    4    0    0  0.47120395577E+03 -0.11554872411E+03  0.91363424451E+03  0.10385301868E+04  0.91829954331E+02 0.  0.
         23    2    4    4    0    0  0.28441122158E+03  0.44671472703E+03  0.18784861575E+03  0.56726992559E+03  0.77873459768E+02 0.  0.
          2    1    3    3  502    0 -0.61877715660E+03 -0.27650944535E+03 -0.35075885096E+02  0.67865525903E+03  0.00000000000E+00 0. -1.
         -1    1    3    3    0  502 -0.13683802074E+03 -0.54656557572E+02  0.30359129248E+02  0.15044487341E+03  0.00000000000E+00 0.  1.
         13    1    5    5    0    0  0.41538614623E+03 -0.71754668604E+02  0.75386923123E+03  0.86372055709E+03  0.00000000000E+00 0. -1.
        -13    1    5    5    0    0  0.55817809537E+02 -0.43794055508E+02  0.15976501329E+03  0.17480962968E+03  0.00000000000E+00 0.  1.
          3    1    6    6  503    0  0.92343728911E+02  0.19766497499E+03  0.49717976241E+02  0.22376479564E+03  0.00000000000E+00 0. -1.
         -3    1    6    6    0  503  0.19206749267E+03  0.24904975204E+03  0.13813063951E+03  0.34350512995E+03  0.00000000000E+00 0.  1.
<mgrwt>
<rscale>  0 0.21739005E+04</rscale>
<asrwt>0</asrwt>
<pdfrwt beam="1">  1        2 0.27166664E+00 0.21739005E+04</pdfrwt>
<pdfrwt beam="2">  1       -1 0.10293340E+00 0.21739005E+04</pdfrwt>
<totfact> 0.83827274E+00</totfact>
</mgrwt>
</event>
<event>
11    7  0.1497947E-008  0.2178879E+04  0.7818608E-02  0.8527271E-01
         -1   -1    0    0    0  501 -0.00000000000E+00  0.00000000000E+00  0.14792034940E+04  0.14792034940E+04  0.00000000000E+00 0.  1.
          2   -1    0    0  501    0  0.00000000000E+00 -0.00000000000E+00 -0.80237666083E+03  0.80237666083E+03  0.00000000000E+00 0. -1.
         24    2    1    2    0    0 -0.67407681378E+03 -0.47230260617E+03  0.67351499121E+03  0.10666708982E+04  0.81945463162E+02 0.  0.
        254    2    1    2    0    0  0.67407681378E+03  0.47230260617E+03  0.33118419690E+01  0.12149092567E+04  0.89361302083E+03 0.  0.
         23    2    4    4    0    0  0.14607895488E+03  0.60411132162E+03 -0.92965810377E+02  0.63507508209E+03  0.91586942455E+02 0.  0.
          4    1    3    3  502    0 -0.97468010506E+01 -0.21149913947E+02  0.11711746545E+02  0.26066913853E+02  0.00000000000E+00 0. -1.
         -3    1    3    3    0  502 -0.66433001273E+03 -0.45115269223E+03  0.66180324466E+03  0.10406039843E+04  0.00000000000E+00 0.  1.
         13    1    5    5    0    0 -0.12310727100E+02  0.32324878898E+02 -0.49210883479E+00  0.34593264787E+02  0.00000000000E+00 0. -1.
        -13    1    5    5    0    0  0.15838968198E+03  0.57178644272E+03 -0.92473701542E+02  0.60048181731E+03  0.00000000000E+00 0.  1.
          3    1    4    4  503    0  0.74233146961E+02 -0.86959643605E+02  0.36133431535E+02  0.11990898464E+03  0.00000000000E+00 0. -1.
         -3    1    4    4    0  503  0.45376471194E+03 -0.44849071842E+02  0.60144220811E+02  0.45992518994E+03  0.00000000000E+00 0.  1.
<mgrwt>
<rscale>  0 0.21788789E+04</rscale>
<asrwt>0</asrwt>
<pdfrwt beam="1">  1        2 0.12344256E+00 0.21788789E+04</pdfrwt>
<pdfrwt beam="2">  1       -1 0.22756977E+00 0.21788789E+04</pdfrwt>
<totfact> 0.35112371E+00</totfact>
</mgrwt>
</event>
<event>
12    7  0.1497947E-008  0.1145021E+04  0.7818608E-02  0.9162390E-01
          2   -1    0    0  501    0  0.00000000000E+00  0.00000000000E+00  0.15190614340E+04  0.15190614340E+04  0.00000000000E+00 0. -1.
         -1   -1    0    0    0  501 -0.00000000000E+00 -0.00000000000E+00 -0.21577010181E+03  0.21577010181E+03  0.00000000000E+00 0.  1.
         24    2    1    2    0    0  0.17478512875E+03 -0.22406777448E+02  0.10652765376E+03  0.22106268100E+03  0.80427998886E+02 0.  0.
        254    2    1    2    0    0 -0.17478512875E+03  0.22406777448E+02  0.11967636784E+04  0.15137688548E+04  0.91005545926E+03 0.  0.
         23    2    4    4    0    0 -0.25042780001E+03  0.15348460852E+02 -0.39494127221E+02  0.27002039233E+03  0.91660067207E+02 0.  0.
         23    2    4    4    0    0  0.75642671258E+02  0.70583165958E+01  0.12362578057E+04  0.12437484625E+04  0.11316025089E+03 0.  0.
          4    1    3    3  502    0  0.46876943914E+02  0.26075851061E+02  0.49059333828E+02  0.72692613895E+02  0.00000000000E+00 0. -1.
         -3    1    3    3    0  502  0.12790818484E+03 -0.48482628508E+02  0.57468319936E+02  0.14837006710E+03  0.00000000000E+00 0.  1.
         13    1    5    5    0    0 -0.54774329877E+02 -0.17930619061E+02  0.22844231367E+02  0.61996719430E+02  0.00000000000E+00 0. -1.
        -13    1    5    5    0    0 -0.19565347013E+03  0.33279079913E+02 -0.62338358588E+02  0.20802367290E+03  0.00000000000E+00 0.  1.
          4    1    6    6  503    0  0.35302377605E+02  0.25196401662E+02  0.13922263607E+03  0.14582201108E+03  0.00000000000E+00 0. -1.
         -4    1    6    6    0  503  0.40340293654E+02 -0.18138085066E+02  0.10970351696E+04  0.10979264514E+04  0.00000000000E+00 0.  1.
<mgrwt>
<rscale>  0 0.11450206E+04</rscale>
<asrwt>0</asrwt>
<pdfrwt beam="1">  1        2 0.23370175E+00 0.11450206E+04</pdfrwt>
<pdfrwt beam="2">  1       -1 0.33195401E-01 0.11450206E+04</pdfrwt>
<totfact> 0.11910465E+02</totfact>
</mgrwt>
</event>
<event>
11    7  0.1497947E-008  0.1780007E+04  0.7818608E-02  0.8717004E-01
         -1   -1    0    0    0  501 -0.00000000000E+00  0.00000000000E+00  0.54638387008E+03  0.54638387008E+03  0.00000000000E+00 0.  1.
          2   -1    0    0  501    0  0.00000000000E+00 -0.00000000000E+00 -0.14497252576E+04  0.14497252576E+04  0.00000000000E+00 0. -1.
         24    2    1    2    0    0 -0.49866301743E+02 -0.29346407142E+03 -0.94419826612E+03  0.99316971221E+03  0.79170084331E+02 0.  0.
        254    2    1    2    0    0  0.49866301743E+02  0.29346407142E+03  0.40856878615E+02  0.10029394155E+04  0.95687531961E+03 0.  0.
         23    2    4    4    0    0 -0.94543543921E+02  0.33130126814E+03  0.56598931684E+02  0.36078975321E+03  0.90921916997E+02 0.  0.
          2    1    3    3  502    0 -0.49249100701E+01 -0.21424504753E+03 -0.71878505949E+03  0.75005143615E+03  0.00000000000E+00 0. -1.
         -1    1    3    3    0  502 -0.44941391673E+02 -0.79219023891E+02 -0.22541320663E+03  0.24311827606E+03  0.00000000000E+00 0.  1.
         13    1    5    5    0    0 -0.12971467980E+02  0.82080400908E+02  0.52947001522E+02  0.98533426637E+02  0.00000000000E+00 0.  1.
        -13    1    5    5    0    0 -0.81572075941E+02  0.24922086723E+03  0.36519301622E+01  0.26225632658E+03  0.00000000000E+00 0. -1.
          1    1    4    4  503    0  0.32514248464E+03 -0.10767417199E+03 -0.18108777803E+03  0.38743276318E+03  0.00000000000E+00 0. -1.
         -1    1    4    4    0  503 -0.18073263898E+03  0.69836975277E+02  0.16534572496E+03  0.25471689906E+03  0.00000000000E+00 0.  1.
<mgrwt>
<rscale>  0 0.17800073E+04</rscale>
<asrwt>0</asrwt>
<pdfrwt beam="1">  1        2 0.22303465E+00 0.17800073E+04</pdfrwt>
<pdfrwt beam="2">  1       -1 0.84059058E-01 0.17800073E+04</pdfrwt>
<totfact> 0.20486246E+01</totfact>
</mgrwt>
</event>
<event>
11    7  0.1497947E-008  0.2814991E+04  0.7818608E-02  0.8298629E-01
          2   -1    0    0  501    0  0.00000000000E+00  0.00000000000E+00  0.41216045194E+04  0.41216045194E+04  0.00000000000E+00 0. -1.
         -1   -1    0    0    0  501 -0.00000000000E+00 -0.00000000000E+00 -0.48064852529E+03  0.48064852529E+03  0.00000000000E+00 0.  1.
         24    2    1    2    0    0 -0.99516983012E+03  0.37709732396E+03  0.27512437260E+04  0.29510529685E+04  0.82499699110E+02 0.  0.
        254    2    1    2    0    0  0.99516983012E+03 -0.37709732396E+03  0.88971226813E+03  0.16512000762E+04  0.89571669024E+03 0.  0.
         23    2    4    4    0    0  0.12791090249E+03 -0.43207265507E+03  0.28541114934E+03  0.54106017277E+03  0.90766778927E+02 0.  0.
          2    1    3    3  502    0 -0.63595161116E+03  0.27361405400E+03  0.18543228997E+04  0.19793464877E+04  0.00000000000E+00 0. -1.
         -1    1    3    3    0  502 -0.35921821896E+03  0.10348326996E+03  0.89692082634E+03  0.97170648074E+03  0.00000000000E+00 0.  1.
         13    1    5    5    0    0  0.92940392307E+02 -0.32165309929E+03  0.25625430429E+03  0.42162175142E+03  0.00000000000E+00 0. -1.
        -13    1    5    5    0    0  0.34970510182E+02 -0.11041955578E+03  0.29156845049E+02  0.11943842135E+03  0.00000000000E+00 0.  1.
          4    1    4    4  503    0  0.37646286028E+03  0.18480781890E+03  0.22123699841E+03  0.47415611834E+03  0.00000000000E+00 0. -1.
         -4    1    4    4    0  503  0.49079606735E+03 -0.12983248779E+03  0.38306412039E+03  0.63598378512E+03  0.00000000000E+00 0.  1.
<mgrwt>
<rscale>  0 0.28149907E+04</rscale>
<asrwt>0</asrwt>
<pdfrwt beam="1">  1        2 0.63409298E+00 0.28149907E+04</pdfrwt>
<pdfrwt beam="2">  1       -1 0.73945930E-01 0.28149907E+04</pdfrwt>
<totfact> 0.49409626E-01</totfact>
</mgrwt>
</event>
<event>
11    7  0.1497947E-008  0.4582061E+04  0.7818608E-02  0.7896426E-01
         -1   -1    0    0    0  501 -0.00000000000E+00  0.00000000000E+00  0.10922258897E+04  0.10922258897E+04  0.00000000000E+00 0.  1.
          2   -1    0    0  501    0  0.00000000000E+00 -0.00000000000E+00 -0.48056183468E+04  0.48056183468E+04  0.00000000000E+00 0. -1.
         24    2    1    2    0    0  0.78896364896E+03 -0.88296332955E+03  0.60341123865E+03  0.13313706190E+04  0.79716507032E+02 0.  0.
        254    2    1    2    0    0 -0.78896364896E+03  0.88296332955E+03 -0.43168036958E+04  0.45664736174E+04  0.90321607066E+03 0.  0.
         23    2    4    4    0    0  0.59801055339E+02  0.41634653011E+03 -0.71923043444E+03  0.83832717354E+03  0.92625227181E+02 0.  0.
          2    1    3    3  502    0  0.84249309925E+01 -0.27073113657E+02  0.12264925037E+02  0.30892739138E+02  0.00000000000E+00 0. -1.
         -1    1    3    3    0  502  0.78053871797E+03 -0.85589021589E+03  0.59114631361E+03  0.13004778799E+04  0.00000000000E+00 0.  1.
         13    1    5    5    0    0  0.51601827038E+02  0.41714647512E+03 -0.71410331418E+03  0.82862384323E+03  0.00000000000E+00 0. -1.
        -13    1    5    5    0    0  0.81992283010E+01 -0.79994501149E+00 -0.51271202662E+01  0.97033303034E+01  0.00000000000E+00 0.  1.
          3    1    4    4  503    0 -0.67607974656E+03  0.42664682185E+03 -0.28664348981E+04  0.29758293565E+04  0.00000000000E+00 0. -1.
         -3    1    4    4    0  503 -0.17268495774E+03  0.39969977598E+02 -0.73113836324E+03  0.75231708737E+03  0.00000000000E+00 0.  1.
<mgrwt>
<rscale>  0 0.45820610E+04</rscale>
<asrwt>0</asrwt>
<pdfrwt beam="1">  1        2 0.73932590E+00 0.45820610E+04</pdfrwt>
<pdfrwt beam="2">  1       -1 0.16803475E+00 0.45820610E+04</pdfrwt>
<totfact> 0.12573884E-02</totfact>
</mgrwt>
</event>
<event>
12    7  0.1497947E-008  0.3291847E+04  0.7818608E-02  0.8164973E-01
          2   -1    0    0  501    0  0.00000000000E+00  0.00000000000E+00  0.23216189689E+04  0.23216189689E+04  0.00000000000E+00 0. -1.
         -1   -1    0    0    0  501 -0.00000000000E+00 -0.00000000000E+00 -0.11668854390E+04  0.11668854390E+04  0.00000000000E+00 0.  1.
         24    2    1    2    0    0  0.14393165861E+04 -0.46748402143E+03  0.71440903357E+03  0.16753919410E+04  0.79902086124E+02 0.  0.
        254    2    1    2    0    0 -0.14393165861E+04  0.46748402143E+03  0.44032449630E+03  0.18131124669E+04  0.89627987271E+03 0.  0.
         23    2    4    4    0    0 -0.12056072112E+04 -0.16770517660E+02  0.27401764713E+03  0.12404343468E+04  0.99104488444E+02 0.  0.
         23    2    4    4    0    0 -0.23370937484E+03  0.48425453909E+03  0.16630684917E+03  0.57267812011E+03  0.10573424543E+03 0.  0.
          2    1    3    3  502    0  0.12783180573E+04 -0.43078044650E+03  0.65814088215E+03  0.15009391291E+04  0.00000000000E+00 0. -1.
         -1    1    3    3    0  502  0.16099852880E+03 -0.36703574925E+02  0.56268151428E+02  0.17445281182E+03  0.00000000000E+00 0.  1.
         13    1    5    5    0    0 -0.11323142325E+04 -0.14101612548E+02  0.23204649236E+03  0.11559325028E+04  0.00000000000E+00 0. -1.
        -13    1    5    5    0    0 -0.73292978785E+02 -0.26689051125E+01  0.41971154777E+02  0.84501843926E+02  0.00000000000E+00 0.  1.
          1    1    6    6  503    0 -0.12870067603E+03  0.26658452612E+03  0.14622119537E+03  0.33016936798E+03  0.00000000000E+00 0. -1.
         -1    1    6    6    0  503 -0.10500869881E+03  0.21767001296E+03  0.20085653800E+02  0.24250875213E+03  0.00000000000E+00 0.  1.
<mgrwt>
<rscale>  0 0.32918465E+04</rscale>
<asrwt>0</asrwt>
<pdfrwt beam="1">  1        2 0.35717215E+00 0.32918465E+04</pdfrwt>
<pdfrwt beam="2">  1       -1 0.17952084E+00 0.32918465E+04</pdfrwt>
<totfact> 0.87824651E-01</totfact>
</mgrwt>
</event>
<event>
11    7  0.1497947E-008  0.1611098E+04  0.7818608E-02  0.8813759E-01
          2   -1    0    0  501    0  0.00000000000E+00  0.00000000000E+00  0.10222528000E+04  0.10222528000E+04  0.00000000000E+00 0. -1.
         -1   -1    0    0    0  501 -0.00000000000E+00 -0.00000000000E+00 -0.63478342564E+03  0.63478342564E+03  0.00000000000E+00 0.  1.
         24    2    1    2    0    0 -0.42406256196E+03  0.11178371086E+02 -0.22770115829E+03  0.48821506386E+03  0.80945158363E+02 0.  0.
        254    2    1    2    0    0  0.42406256196E+03 -0.11178371086E+02  0.61517053267E+03  0.11688211618E+04  0.89875141811E+03 0.  0.
         23    2    4    4    0    0  0.51108788106E+03  0.83898387751E+02  0.64066368045E+02  0.53011347163E+03  0.93091522962E+02 0.  0.
          2    1    3    3  502    0 -0.35309785024E+02 -0.76908813757E+01 -0.46500944362E+02  0.58892006260E+02  0.00000000000E+00 0. -1.
         -1    1    3    3    0  502 -0.38875277694E+03  0.18869252461E+02 -0.18120021392E+03  0.42932305760E+03  0.00000000000E+00 0.  1.
         13    1    5    5    0    0  0.28360346904E+03  0.64417565782E+02 -0.72495390667E+01  0.29091769669E+03  0.00000000000E+00 0. -1.
        -13    1    5    5    0    0  0.22748441203E+03  0.19480821969E+02  0.71315907112E+02  0.23919577494E+03  0.00000000000E+00 0.  1.
          1    1    4    4  503    0  0.59392728147E+02  0.19820643610E+02  0.38245383496E+03  0.38754521020E+03  0.00000000000E+00 0. -1.
         -1    1    4    4    0  503 -0.14641804725E+03 -0.11489740245E+03  0.16865032966E+03  0.25116247997E+03  0.00000000000E+00 0.  1.
<mgrwt>
<rscale>  0 0.16110979E+04</rscale>
<asrwt>0</asrwt>
<pdfrwt beam="1">  1        2 0.15726966E+00 0.16110979E+04</pdfrwt>
<pdfrwt beam="2">  1       -1 0.97658989E-01 0.16110979E+04</pdfrwt>
<totfact> 0.26809648E+01</totfact>
</mgrwt>
</event>
<event>
12    7  0.1497947E-008  0.1504478E+04  0.7818608E-02  0.8881481E-01
          2   -1    0    0  501    0  0.00000000000E+00  0.00000000000E+00  0.34718276927E+03  0.34718276927E+03  0.00000000000E+00 0. -1.
         -1   -1    0    0    0  501 -0.00000000000E+00 -0.00000000000E+00 -0.16298715532E+04  0.16298715532E+04  0.00000000000E+00 0.  1.
         24    2    1    2    0    0  0.32298727192E+03 -0.35283314103E+03 -0.36958253376E+03  0.60999949028E+03  0.81829857922E+02 0.  0.
        254    2    1    2    0    0 -0.32298727192E+03  0.35283314103E+03 -0.91310625015E+03  0.13670548322E+04  0.89792198264E+03 0.  0.
         23    2    4    4    0    0  0.65815131699E+02 -0.17573770855E+03  0.33858527129E+02  0.21335106267E+03  0.95691704537E+02 0.  0.
         23    2    4    4    0    0 -0.38880240361E+03  0.52857084958E+03 -0.94696477728E+03  0.11537037695E+04  0.61119933773E+02 0.  0.
          4    1    3    3  502    0  0.56207425693E+02 -0.45716692771E+02 -0.93804481636E+02  0.11852666989E+03  0.00000000000E+00 0. -1.
         -3    1    3    3    0  502  0.26677984622E+03 -0.30711644826E+03 -0.27577805213E+03  0.49147282038E+03  0.00000000000E+00 0.  1.
         13    1    5    5    0    0 -0.24505520869E+02 -0.45163611691E+02  0.20297625822E+01  0.51423655161E+02  0.00000000000E+00 0.  1.
        -13    1    5    5    0    0  0.90320652568E+02 -0.13057409686E+03  0.31828764547E+02  0.16192740751E+03  0.00000000000E+00 0. -1.
          3    1    6    6  503    0 -0.46341671348E+02  0.34525936307E+02 -0.77889572305E+02  0.96986474598E+02  0.00000000000E+00 0. -1.
         -3    1    6    6    0  503 -0.34246073227E+03  0.49404491327E+03 -0.86907520497E+03  0.10567172949E+04  0.00000000000E+00 0.  1.
<mgrwt>
<rscale>  0 0.15044777E+04</rscale>
<asrwt>0</asrwt>
<pdfrwt beam="1">  1        2 0.53412734E-01 0.15044777E+04</pdfrwt>
<pdfrwt beam="2">  1       -1 0.25074947E+00 0.15044777E+04</pdfrwt>
<totfact> 0.71110003E+00</totfact>
</mgrwt>
</event>
<event>
11    7  0.1497947E-008  0.2206846E+04  0.7818608E-02  0.8515584E-01
          2   -1    0    0  501    0  0.00000000000E+00  0.00000000000E+00  0.29752853674E+04  0.29752853674E+04  0.00000000000E+00 0. -1.
         -1   -1    0    0    0  501 -0.00000000000E+00 -0.00000000000E+00 -0.40921874366E+03  0.40921874366E+03  0.00000000000E+00 0.  1.
         24    2    1    2    0    0  0.51737209063E+03 -0.84177413542E+02 -0.79677670494E+02  0.53608002381E+03  0.79205704557E+02 0.  0.
        254    2    1    2    0    0 -0.51737209063E+03  0.84177413542E+02  0.26457442942E+04  0.28484240872E+04  0.91585871905E+03 0.  0.
         23    2    4    4    0    0 -0.51651050444E+03  0.27614870956E+03  0.97243328098E+03  0.11390003367E+04  0.93027253707E+02 0.  0.
          4    1    3    3  502    0  0.79676081617E+01 -0.43196257351E+01  0.91271171625E+01  0.12862589708E+02  0.00000000000E+00 0. -1.
         -1    1    3    3    0  502  0.50940448247E+03 -0.79857787807E+02 -0.88804787657E+02  0.52321743410E+03  0.00000000000E+00 0.  1.
         13    1    5    5    0    0 -0.36917954856E+03  0.21990068008E+03  0.77665854694E+03  0.88760821690E+03  0.00000000000E+00 0.  1.
        -13    1    5    5    0    0 -0.14733095589E+03  0.56248029484E+02  0.19577473404E+03  0.25139211975E+03  0.00000000000E+00 0. -1.
          3    1    4    4  503    0  0.12930004557E+03 -0.17471914175E+03  0.98428896926E+03  0.10080030036E+04  0.00000000000E+00 0. -1.
         -3    1    4    4    0  503 -0.13016163176E+03 -0.17252154268E+02  0.68902204397E+03  0.70142074697E+03  0.00000000000E+00 0.  1.
<mgrwt>
<rscale>  0 0.22068462E+04</rscale>
<asrwt>0</asrwt>
<pdfrwt beam="1">  1        2 0.45773620E+00 0.22068462E+04</pdfrwt>
<pdfrwt beam="2">  1       -1 0.62956732E-01 0.22068462E+04</pdfrwt>
<totfact> 0.48047033E+00</totfact>
</mgrwt>
</event>
<event>
12    7  0.3200706E-008  0.2222748E+04  0.7818608E-02  0.8509019E-01
         -1   -1    0    0    0  501 -0.00000000000E+00  0.00000000000E+00  0.10525614125E+04  0.10525614125E+04  0.00000000000E+00 0.  1.
          2   -1    0    0  501    0  0.00000000000E+00 -0.00000000000E+00 -0.11734729044E+04  0.11734729044E+04  0.00000000000E+00 0. -1.
         24    2    1    2    0    0 -0.81553752451E+03  0.26658104162E+02  0.38961561405E+03  0.90887632019E+03  0.91889772462E+02 0.  0.
        254    2    1    2    0    0  0.81553752451E+03 -0.26658104162E+02 -0.51052710598E+03  0.13171579967E+04  0.89914134257E+03 0.  0.
         23    2    4    4    0    0  0.82998425719E+03  0.17328002506E+03 -0.63118959069E+03  0.10608554283E+04  0.90078333262E+02 0.  0.
         23    2    4    4    0    0 -0.14446732678E+02 -0.19993812922E+03  0.12066248471E+03  0.25630256838E+03  0.10463081640E+03 0.  0.
          4    1    3    3  502    0 -0.21318718422E+03  0.37751950294E+01  0.14759010561E+03  0.25931808052E+03  0.00000000000E+00 0. -1.
         -3    1    3    3    0  502 -0.60235034029E+03  0.22882909132E+02  0.24202550844E+03  0.64955823966E+03  0.00000000000E+00 0.  1.
         13    1    5    5    0    0  0.28353709520E+03  0.45790205608E+02 -0.16423498378E+03  0.33085216817E+03  0.00000000000E+00 0. -1.
        -13    1    5    5    0    0  0.54644716198E+03  0.12748981945E+03 -0.46695460691E+03  0.73000326014E+03  0.00000000000E+00 0.  1.
          3    1    6    6  503    0 -0.49087011164E+02 -0.73865165830E+02  0.19041748087E+02  0.90709346588E+02  0.00000000000E+00 0. -1.
         -3    1    6    6    0  503  0.34640278485E+02 -0.12607296339E+03  0.10162073662E+03  0.16559322179E+03  0.00000000000E+00 0.  1.
<mgrwt>
<rscale>  0 0.22227481E+04</rscale>
<asrwt>0</asrwt>
<pdfrwt beam="1">  1        2 0.18053429E+00 0.22227481E+04</pdfrwt>
<pdfrwt beam="2">  1       -1 0.16193253E+00 0.22227481E+04</pdfrwt>
<totfact> 0.57750433E+00</totfact>
</mgrwt>
</event>
<event>
12    7  0.1497947E-008  0.1887999E+04  0.7818608E-02  0.8660853E-01
          2   -1    0    0  501    0  0.00000000000E+00  0.00000000000E+00  0.30960439314E+04  0.30960439314E+04  0.00000000000E+00 0. -1.
         -1   -1    0    0    0  501 -0.00000000000E+00 -0.00000000000E+00 -0.28783012126E+03  0.28783012126E+03  0.00000000000E+00 0.  1.
         24    2    1    2    0    0  0.49357131139E+03 -0.12495689344E+03  0.19408402591E+04  0.20082613850E+04  0.83821325761E+02 0.  0.
        254    2    1    2    0    0 -0.49357131139E+03  0.12495689344E+03  0.86737355103E+03  0.13756126676E+04  0.93848093728E+03 0.  0.
         23    2    4    4    0    0 -0.46677443326E+03  0.33898083173E+03  0.12888077115E+03  0.59803626592E+03  0.90833619050E+02 0.  0.
         23    2    4    4    0    0 -0.26796878133E+02 -0.21402393830E+03  0.73849277988E+03  0.77757640170E+03  0.11282356009E+03 0.  0.
          4    1    3    3  502    0  0.33161269706E+03 -0.42821438182E+02  0.12464298444E+04  0.12904991334E+04  0.00000000000E+00 0. -1.
         -3    1    3    3    0  502  0.16195861433E+03 -0.82135455256E+02  0.69441041467E+03  0.71776225157E+03  0.00000000000E+00 0.  1.
         13    1    5    5    0    0 -0.80078512393E+02  0.31378675159E+02 -0.48420238549E+01  0.86143105336E+02  0.00000000000E+00 0.  1.
        -13    1    5    5    0    0 -0.38669592087E+03  0.30760215657E+03  0.13372279501E+03  0.51189316058E+03  0.00000000000E+00 0. -1.
          1    1    6    6  503    0  0.12139333465E+02 -0.19509491813E+03  0.65473010739E+03  0.68328683876E+03  0.00000000000E+00 0. -1.
         -1    1    6    6    0  503 -0.38936211598E+02 -0.18929020168E+02  0.83762672483E+02  0.94289562941E+02  0.00000000000E+00 0.  1.
<mgrwt>
<rscale>  0 0.18879986E+04</rscale>
<asrwt>0</asrwt>
<pdfrwt beam="1">  1        2 0.47631443E+00 0.18879986E+04</pdfrwt>
<pdfrwt beam="2">  1       -1 0.44281559E-01 0.18879986E+04</pdfrwt>
<totfact> 0.81830355E+00</totfact>
</mgrwt>
</event>
<event>
11    7  0.1497947E-008  0.1509927E+04  0.7818608E-02  0.8877878E-01
         -1   -1    0    0    0  501 -0.00000000000E+00  0.00000000000E+00  0.31722135442E+03  0.31722135442E+03  0.00000000000E+00 0.  1.
          2   -1    0    0  501    0  0.00000000000E+00 -0.00000000000E+00 -0.17967574948E+04  0.17967574948E+04  0.00000000000E+00 0. -1.
         24    2    1    2    0    0  0.21287985026E+03  0.43121283779E+03 -0.51105134556E+03  0.70880337023E+03  0.99831847305E+02 0.  0.
        254    2    1    2    0    0 -0.21287985026E+03 -0.43121283779E+03 -0.96848479482E+03  0.14051754790E+04  0.89738118257E+03 0.  0.
         23    2    4    4    0    0 -0.23557757661E+03 -0.27044618877E+03 -0.17417304949E+02  0.37139472918E+03  0.94830094036E+02 0.  0.
          2    1    3    3  502    0  0.21616352678E+03  0.43166922785E+03 -0.49137630196E+03  0.68885097279E+03  0.00000000000E+00 0. -1.
         -1    1    3    3    0  502 -0.32836765231E+01 -0.45639005554E+00 -0.19675043593E+02  0.19952397444E+02  0.00000000000E+00 0.  1.
         13    1    5    5    0    0 -0.40681485680E+02 -0.25863519802E+02  0.27418724917E+02  0.55458916413E+02  0.00000000000E+00 0. -1.
        -13    1    5    5    0    0 -0.19489609093E+03 -0.24458266896E+03 -0.44836029865E+02  0.31593581277E+03  0.00000000000E+00 0.  1.
          3    1    4    4  503    0  0.89802880329E+02 -0.11576881803E+03 -0.96584783181E+02  0.17548674277E+03  0.00000000000E+00 0. -1.
         -3    1    4    4    0  503 -0.67105153982E+02 -0.44997830992E+02 -0.85448270669E+03  0.85829400704E+03  0.00000000000E+00 0.  1.
<mgrwt>
<rscale>  0 0.15099269E+04</rscale>
<asrwt>0</asrwt>
<pdfrwt beam="1">  1        2 0.27642423E+00 0.15099269E+04</pdfrwt>
<pdfrwt beam="2">  1       -1 0.48803286E-01 0.15099269E+04</pdfrwt>
<totfact> 0.40056386E+01</totfact>
</mgrwt>
</event>
<event>
12    7  0.1497947E-008  0.2268524E+04  0.7818608E-02  0.8490436E-01
         -1   -1    0    0    0  501 -0.00000000000E+00  0.00000000000E+00  0.10534994054E+04  0.10534994054E+04  0.00000000000E+00 0.  1.
          2   -1    0    0  501    0  0.00000000000E+00 -0.00000000000E+00 -0.12212154880E+04  0.12212154880E+04  0.00000000000E+00 0. -1.
         24    2    1    2    0    0 -0.75822128529E+03 -0.42681953506E+03 -0.47009899412E+03  0.99227255585E+03  0.80853743459E+02 0.  0.
        254    2    1    2    0    0  0.75822128529E+03  0.42681953506E+03  0.30238291152E+03  0.12824423375E+04  0.89227153422E+03 0.  0.
         23    2    4    4    0    0 -0.21735204664E+02  0.17722016426E+03 -0.22607783578E+03  0.30212558791E+03  0.91045468289E+02 0.  0.
         23    2    4    4    0    0  0.77995648996E+03  0.24959937080E+03  0.52846074730E+03  0.98031674956E+03  0.10544285608E+03 0.  0.
          4    1    3    3  502    0 -0.65435396780E+03 -0.38132311072E+03 -0.43586993285E+03  0.87382436925E+03  0.00000000000E+00 0. -1.
         -3    1    3    3    0  502 -0.10386731749E+03 -0.45496424349E+02 -0.34229061273E+02  0.11844818659E+03  0.00000000000E+00 0.  1.
         13    1    5    5    0    0 -0.87855879471E+01  0.18481493015E+03 -0.21369947919E+03  0.28266802502E+03  0.00000000000E+00 0. -1.
        -13    1    5    5    0    0 -0.12949616717E+02 -0.75947658825E+01 -0.12378356593E+02  0.19457562897E+02  0.00000000000E+00 0.  1.
          4    1    6    6  503    0  0.64565908261E+03  0.22624120547E+03  0.39727259800E+03  0.79112973091E+03  0.00000000000E+00 0. -1.
         -4    1    6    6    0  503  0.13429740735E+03  0.23358165330E+02  0.13118814930E+03  0.18918701865E+03  0.00000000000E+00 0.  1.
<mgrwt>
<rscale>  0 0.22685236E+04</rscale>
<asrwt>0</asrwt>
<pdfrwt beam="1">  1        2 0.18787930E+00 0.22685236E+04</pdfrwt>
<pdfrwt beam="2">  1       -1 0.16207683E+00 0.22685236E+04</pdfrwt>
<totfact> 0.53726631E+00</totfact>
</mgrwt>
</event>
<event>
12    7  0.1497947E-008  0.1796664E+04  0.7818608E-02  0.8708076E-01
          2   -1    0    0  501    0  0.00000000000E+00  0.00000000000E+00  0.30023638902E+04  0.30023638902E+04  0.00000000000E+00 0. -1.
         -1   -1    0    0    0  501 -0.00000000000E+00 -0.00000000000E+00 -0.26878825414E+03  0.26878825414E+03  0.00000000000E+00 0.  1.
         24    2    1    2    0    0 -0.10790078288E+03 -0.63374030201E+03  0.68884058220E+03  0.94563029272E+03  0.80286695577E+02 0.  0.
        254    2    1    2    0    0  0.10790078288E+03  0.63374030201E+03  0.20447350538E+04  0.23255218516E+04  0.90213141644E+03 0.  0.
         23    2    4    4    0    0 -0.20879129959E+03 -0.34038455018E+02  0.10819282179E+04  0.11063252514E+04  0.92921849380E+02 0.  0.
         23    2    4    4    0    0  0.31669208247E+03  0.66777875703E+03  0.96280683594E+03  0.12191966002E+04  0.11498262070E+03 0.  0.
          2    1    3    3  502    0 -0.13716060677E+02 -0.21584672752E+02  0.48107324486E+02  0.54482502581E+02  0.00000000000E+00 0. -1.
         -1    1    3    3    0  502 -0.94184722202E+02 -0.61215562926E+03  0.64073325771E+03  0.89114779014E+03  0.00000000000E+00 0.  1.
         13    1    5    5    0    0 -0.21397247514E+03 -0.37497205748E+02  0.96143484502E+03  0.98567095005E+03  0.00000000000E+00 0.  1.
        -13    1    5    5    0    0  0.51811755523E+01  0.34587507304E+01  0.12049337288E+03  0.12065430139E+03  0.00000000000E+00 0. -1.
          1    1    6    6  503    0  0.25256192788E+02  0.12663447138E+03  0.12160733050E+03  0.17737673874E+03  0.00000000000E+00 0. -1.
         -1    1    6    6    0  503  0.29143588968E+03  0.54114428565E+03  0.84119950545E+03  0.10418198614E+04  0.00000000000E+00 0.  1.
<mgrwt>
<rscale>  0 0.17966637E+04</rscale>
<asrwt>0</asrwt>
<pdfrwt beam="1">  1        2 0.46190211E+00 0.17966637E+04</pdfrwt>
<pdfrwt beam="2">  1       -1 0.41352041E-01 0.17966637E+04</pdfrwt>
<totfact> 0.10731010E+01</totfact>
</mgrwt>
</event>
<event>
12    7  0.1497947E-008  0.1354567E+04  0.7818608E-02  0.8987378E-01
          2   -1    0    0  501    0  0.00000000000E+00  0.00000000000E+00  0.16054457017E+04  0.16054457017E+04  0.00000000000E+00 0. -1.
         -1   -1    0    0    0  501 -0.00000000000E+00 -0.00000000000E+00 -0.28572311858E+03  0.28572311858E+03  0.00000000000E+00 0.  1.
         24    2    1    2    0    0 -0.45545365069E+02  0.33984959150E+03  0.56267119926E+03  0.66423565661E+03  0.83892812034E+02 0.  0.
        254    2    1    2    0    0  0.45545365069E+02 -0.33984959150E+03  0.75705138389E+03  0.12269331637E+04  0.90258853595E+03 0.  0.
         23    2    4    4    0    0  0.43428147045E+03 -0.34802089616E+03  0.50562739979E+03  0.75760267974E+03  0.92648870430E+02 0.  0.
         23    2    4    4    0    0 -0.38873610538E+03  0.81713046568E+01  0.25142398410E+03  0.46933048397E+03  0.76645636230E+02 0.  0.
          2    1    3    3  502    0 -0.10111302364E+02  0.18970183046E+03  0.23593602031E+03  0.30291059506E+03  0.00000000000E+00 0. -1.
         -1    1    3    3    0  502 -0.35434062705E+02  0.15014776104E+03  0.32673517895E+03  0.36132506156E+03  0.00000000000E+00 0.  1.
         13    1    5    5    0    0  0.37947249043E+03 -0.30687149540E+03  0.47974201354E+03  0.68434047464E+03  0.00000000000E+00 0. -1.
        -13    1    5    5    0    0  0.54808980022E+02 -0.41149400766E+02  0.25885386244E+02  0.73262205095E+02  0.00000000000E+00 0.  1.
          3    1    6    6  503    0 -0.30934235196E+03 -0.14202200676E+01  0.23296631403E+03  0.38725703507E+03  0.00000000000E+00 0. -1.
         -3    1    6    6    0  503 -0.79393753423E+02  0.95915247243E+01  0.18457670071E+02  0.82073448895E+02  0.00000000000E+00 0.  1.
<mgrwt>
<rscale>  0 0.13545670E+04</rscale>
<asrwt>0</asrwt>
<pdfrwt beam="1">  1        2 0.24699164E+00 0.13545670E+04</pdfrwt>
<pdfrwt beam="2">  1       -1 0.43957404E-01 0.13545670E+04</pdfrwt>
<totfact> 0.63025349E+01</totfact>
</mgrwt>
</event>
<event>
11    7  0.1497947E-008  0.1684665E+04  0.7818608E-02  0.8770159E-01
          2   -1    0    0  501    0  0.00000000000E+00  0.00000000000E+00  0.36315809274E+03  0.36315809274E+03  0.00000000000E+00 0. -1.
         -1   -1    0    0    0  501 -0.00000000000E+00 -0.00000000000E+00 -0.19537602634E+04  0.19537602634E+04  0.00000000000E+00 0.  1.
         24    2    1    2    0    0  0.66988858886E+00  0.27437225620E+03  0.16433665653E+03  0.32897185978E+03  0.77041314414E+02 0.  0.
        254    2    1    2    0    0 -0.66988858886E+00 -0.27437225620E+03 -0.17549388272E+04  0.19879464963E+04  0.89265917431E+03 0.  0.
         23    2    4    4    0    0 -0.18862922100E+02 -0.25055586727E+03 -0.45687442864E+02  0.27161683977E+03  0.92489527851E+02 0.  0.
          4    1    3    3  502    0 -0.22574719601E+02  0.19066096303E+03  0.14332144040E+03  0.23958767929E+03  0.00000000000E+00 0. -1.
         -3    1    3    3    0  502  0.23244608190E+02  0.83711293168E+02  0.21015216136E+02  0.89384180496E+02  0.00000000000E+00 0.  1.
         13    1    5    5    0    0 -0.25126245364E+02 -0.17422468189E+03  0.10941773767E+02  0.17636691980E+03  0.00000000000E+00 0. -1.
        -13    1    5    5    0    0  0.62633232647E+01 -0.76331185372E+02 -0.56629216631E+02  0.95249919973E+02  0.00000000000E+00 0.  1.
          2    1    4    4  503    0  0.38871748447E+02 -0.65087035143E+02 -0.15057991553E+04  0.15077063478E+04  0.00000000000E+00 0. -1.
         -2    1    4    4    0  503 -0.20678714936E+02  0.41270646208E+02 -0.20345222900E+03  0.20862330880E+03  0.00000000000E+00 0.  1.
<mgrwt>
<rscale>  0 0.16846648E+04</rscale>
<asrwt>0</asrwt>
<pdfrwt beam="1">  1        2 0.55870474E-01 0.16846648E+04</pdfrwt>
<pdfrwt beam="2">  1       -1 0.30057851E+00 0.16846648E+04</pdfrwt>
<totfact> 0.31686996E+00</totfact>
</mgrwt>
</event>
<event>
11    7  0.1497947E-008  0.2046964E+04  0.7818608E-02  0.8584973E-01
          2   -1    0    0  501    0  0.00000000000E+00  0.00000000000E+00  0.23927297338E+04  0.23927297338E+04  0.00000000000E+00 0. -1.
         -1   -1    0    0    0  501 -0.00000000000E+00 -0.00000000000E+00 -0.43779095182E+03  0.43779095182E+03  0.00000000000E+00 0.  1.
         24    2    1    2    0    0  0.14624012905E+03  0.80399800100E+03  0.71147688891E+03  0.10849683641E+04  0.56196323295E+02 0.  0.
        254    2    1    2    0    0 -0.14624012905E+03 -0.80399800100E+03  0.12434618931E+04  0.17455523215E+04  0.91266448743E+03 0.  0.
         23    2    4    4    0    0  0.11649983254E+03 -0.82986986164E+03  0.11337969199E+04  0.14127125171E+04  0.89470678067E+02 0.  0.
          4    1    3    3  502    0  0.46047305318E+02  0.15276228114E+03  0.15644471401E+03  0.22345383731E+03  0.00000000000E+00 0. -1.
         -3    1    3    3    0  502  0.10019282373E+03  0.65123571986E+03  0.55503217490E+03  0.86151452682E+03  0.00000000000E+00 0.  1.
         13    1    5    5    0    0  0.97577787443E+02 -0.44933037915E+03  0.57188010146E+03  0.73380246980E+03  0.00000000000E+00 0.  1.
        -13    1    5    5    0    0  0.18922045095E+02 -0.38053948249E+03  0.56191681846E+03  0.67891004735E+03  0.00000000000E+00 0. -1.
          2    1    4    4  503    0  0.13582091323E+02  0.32395448705E+02 -0.91999476750E+00  0.35139503296E+02  0.00000000000E+00 0. -1.
         -2    1    4    4    0  503 -0.27632205291E+03 -0.65235880618E+01  0.11058496793E+03  0.29770030107E+03  0.00000000000E+00 0.  1.
<mgrwt>
<rscale>  0 0.20469640E+04</rscale>
<asrwt>0</asrwt>
<pdfrwt beam="1">  1        2 0.36811226E+00 0.20469640E+04</pdfrwt>
<pdfrwt beam="2">  1       -1 0.67352456E-01 0.20469640E+04</pdfrwt>
<totfact> 0.94434970E+00</totfact>
</mgrwt>
</event>
<event>
11    7  0.1497947E-008  0.1659800E+04  0.7818608E-02  0.8784630E-01
          2   -1    0    0  501    0  0.00000000000E+00  0.00000000000E+00  0.88682190497E+03  0.88682190497E+03  0.00000000000E+00 0. -1.
         -1   -1    0    0    0  501 -0.00000000000E+00 -0.00000000000E+00 -0.77663187707E+03  0.77663187707E+03  0.00000000000E+00 0.  1.
         24    2    1    2    0    0  0.87525055860E+02 -0.43227403788E+03 -0.34377354963E+03  0.56484754632E+03  0.79693274040E+02 0.  0.
        254    2    1    2    0    0 -0.87525055860E+02  0.43227403788E+03  0.45396357753E+03  0.10986062357E+04  0.89795949364E+03 0.  0.
         23    2    4    4    0    0  0.92455504277E+02  0.38994086242E+03  0.55941711452E+03  0.69418286244E+03  0.91326020563E+02 0.  0.
          2    1    3    3  502    0  0.40108709134E+02 -0.13956645402E+03 -0.15962965735E+03  0.21579882100E+03  0.00000000000E+00 0. -1.
         -1    1    3    3    0  502  0.47416346726E+02 -0.29270758386E+03 -0.18414389227E+03  0.34904872532E+03  0.00000000000E+00 0.  1.
         13    1    5    5    0    0 -0.77568502464E+01  0.11375402704E+03  0.19719985011E+03  0.22778921897E+03  0.00000000000E+00 0.  1.
        -13    1    5    5    0    0  0.10021235452E+03  0.27618683538E+03  0.36221726441E+03  0.46639364347E+03  0.00000000000E+00 0. -1.
          3    1    4    4  503    0 -0.20373349453E+03 -0.68997808361E+02 -0.16945353103E+03  0.27382938763E+03  0.00000000000E+00 0. -1.
         -3    1    4    4    0  503  0.23752934395E+02  0.11133098382E+03  0.63999994040E+02  0.13059398565E+03  0.00000000000E+00 0.  1.
<mgrwt>
<rscale>  0 0.16598002E+04</rscale>
<asrwt>0</asrwt>
<pdfrwt beam="1">  1        2 0.13643414E+00 0.16598002E+04</pdfrwt>
<pdfrwt beam="2">  1       -1 0.11948183E+00 0.16598002E+04</pdfrwt>
<totfact> 0.20407682E+01</totfact>
</mgrwt>
</event>
<event>
11    7  0.1497947E-008  0.1700957E+04  0.7818608E-02  0.8760819E-01
         -1   -1    0    0    0  501 -0.00000000000E+00  0.00000000000E+00  0.13244311100E+04  0.13244311100E+04  0.00000000000E+00 0.  1.
          2   -1    0    0  501    0  0.00000000000E+00 -0.00000000000E+00 -0.54613146875E+03  0.54613146875E+03  0.00000000000E+00 0. -1.
         24    2    1    2    0    0  0.14148923526E+03  0.30971551794E+03 -0.27249892957E+03  0.44378815044E+03  0.82154428389E+02 0.  0.
        254    2    1    2    0    0 -0.14148923526E+03 -0.30971551794E+03  0.10507985709E+04  0.14267744283E+04  0.90308622352E+03 0.  0.
         23    2    4    4    0    0 -0.48008664008E+03 -0.31007479097E+03  0.78516148633E+03  0.97526270893E+03  0.89605992196E+02 0.  0.
          4    1    3    3  502    0  0.75415124717E+02  0.24687005155E+03 -0.21539606803E+03  0.33619596891E+03  0.00000000000E+00 0. -1.
         -3    1    3    3    0  502  0.66074110542E+02  0.62845466391E+02 -0.57102861541E+02  0.10759218153E+03  0.00000000000E+00 0.  1.
         13    1    5    5    0    0 -0.20397091050E+03 -0.86568738456E+02  0.26604631221E+03  0.34623535211E+03  0.00000000000E+00 0. -1.
        -13    1    5    5    0    0 -0.27611572958E+03 -0.22350605251E+03  0.51911517412E+03  0.62902735682E+03  0.00000000000E+00 0.  1.
          3    1    4    4  503    0  0.40259368346E+02 -0.40060726397E+02  0.78977248435E+02  0.97278385624E+02  0.00000000000E+00 0. -1.
         -3    1    4    4    0  503  0.29833803647E+03  0.40419999423E+02  0.18665983609E+03  0.35423333379E+03  0.00000000000E+00 0.  1.
<mgrwt>
<rscale>  0 0.17009568E+04</rscale>
<asrwt>0</asrwt>
<pdfrwt beam="1">  1        2 0.84020226E-01 0.17009568E+04</pdfrwt>
<pdfrwt beam="2">  1       -1 0.20375863E+00 0.17009568E+04</pdfrwt>
<totfact> 0.85574081E+00</totfact>
</mgrwt>
</event>
<event>
12    7  0.1497947E-008  0.1812790E+04  0.7818608E-02  0.8699527E-01
          2   -1    0    0  501    0  0.00000000000E+00  0.00000000000E+00  0.13155935614E+04  0.13155935614E+04  0.00000000000E+00 0. -1.
         -1   -1    0    0    0  501 -0.00000000000E+00 -0.00000000000E+00 -0.62447251132E+03  0.62447251132E+03  0.00000000000E+00 0.  1.
         24    2    1    2    0    0 -0.15977709323E+03 -0.19037003832E+03  0.95700208737E+03  0.99189322231E+03  0.78928437420E+02 0.  0.
        254    2    1    2    0    0  0.15977709323E+03  0.19037003832E+03 -0.26588103734E+03  0.94817285035E+03  0.87553958056E+03 0.  0.
         23    2    4    4    0    0  0.22822101223E+03 -0.52785349924E+02 -0.52232102683E+03  0.57972748983E+03  0.91616504012E+02 0.  0.
         23    2    4    4    0    0 -0.68443918996E+02  0.24315538824E+03  0.25643998950E+03  0.36844536052E+03  0.78621896411E+02 0.  0.
          4    1    3    3  502    0 -0.15974237803E+03 -0.19544026231E+03  0.90184459829E+03  0.93650317828E+03  0.00000000000E+00 0. -1.
         -3    1    3    3    0  502 -0.34715207684E-01  0.50702239877E+01  0.55157489076E+02  0.55390044030E+02  0.00000000000E+00 0.  1.
         13    1    5    5    0    0  0.11328314570E+03 -0.51275801051E+02 -0.35966862785E+03  0.38055722399E+03  0.00000000000E+00 0. -1.
        -13    1    5    5    0    0  0.11493786653E+03 -0.15095488730E+01 -0.16265239899E+03  0.19917026584E+03  0.00000000000E+00 0.  1.
          2    1    6    6  503    0  0.55889743196E+01  0.12090596719E+03  0.10524638907E+03  0.16039417679E+03  0.00000000000E+00 0. -1.
         -2    1    6    6    0  503 -0.74032893316E+02  0.12224942106E+03  0.15119360043E+03  0.20805118373E+03  0.00000000000E+00 0.  1.
<mgrwt>
<rscale>  0 0.18127901E+04</rscale>
<asrwt>0</asrwt>
<pdfrwt beam="1">  1        2 0.20239901E+00 0.18127901E+04</pdfrwt>
<pdfrwt beam="2">  1       -1 0.96072694E-01 0.18127901E+04</pdfrwt>
<totfact> 0.18171386E+01</totfact>
</mgrwt>
</event>
<event>
11    7  0.1497947E-008  0.1908370E+04  0.7818608E-02  0.8650701E-01
          2   -1    0    0  501    0  0.00000000000E+00  0.00000000000E+00  0.21177844988E+04  0.21177844988E+04  0.00000000000E+00 0. -1.
         -1   -1    0    0    0  501 -0.00000000000E+00 -0.00000000000E+00 -0.42991591448E+03  0.42991591448E+03  0.00000000000E+00 0.  1.
         24    2    1    2    0    0  0.85905081289E+02  0.65914204058E+03  0.21967012843E+03  0.70473403357E+03  0.80914646961E+02 0.  0.
        254    2    1    2    0    0 -0.85905081289E+02 -0.65914204058E+03  0.14681984559E+04  0.18429663797E+04  0.89390741032E+03 0.  0.
         23    2    4    4    0    0  0.93299664031E+02  0.10454642013E+03  0.75922483831E+03  0.77739971099E+03  0.91066867066E+02 0.  0.
          4    1    3    3  502    0  0.26432463904E+02  0.42372782764E+02  0.18704066178E+02  0.53328884845E+02  0.00000000000E+00 0. -1.
         -3    1    3    3    0  502  0.59472617385E+02  0.61676925781E+03  0.20096606226E+03  0.65140514872E+03  0.00000000000E+00 0.  1.
         13    1    5    5    0    0 -0.86788562329E+01  0.54577217885E+01  0.84706804484E+01  0.13298936044E+02  0.00000000000E+00 0.  1.
        -13    1    5    5    0    0  0.10197852026E+03  0.99088698344E+02  0.75075415786E+03  0.76410077495E+03  0.00000000000E+00 0. -1.
          1    1    4    4  503    0 -0.12593812535E+03 -0.59754901741E+03  0.47476269775E+03  0.77351461446E+03  0.00000000000E+00 0. -1.
         -1    1    4    4    0  503 -0.53266619973E+02 -0.16613944331E+03  0.23421091986E+03  0.29205205428E+03  0.00000000000E+00 0.  1.
<mgrwt>
<rscale>  0 0.19083703E+04</rscale>
<asrwt>0</asrwt>
<pdfrwt beam="1">  1        2 0.32581299E+00 0.19083703E+04</pdfrwt>
<pdfrwt beam="2">  1       -1 0.66140911E-01 0.19083703E+04</pdfrwt>
<totfact> 0.14178301E+01</totfact>
</mgrwt>
</event>
<event>
12    7  0.1497947E-008  0.1705369E+04  0.7818608E-02  0.8758308E-01
          2   -1    0    0  501    0  0.00000000000E+00  0.00000000000E+00  0.90294041292E+03  0.90294041292E+03  0.00000000000E+00 0. -1.
         -1   -1    0    0    0  501 -0.00000000000E+00 -0.00000000000E+00 -0.80522598824E+03  0.80522598824E+03  0.00000000000E+00 0.  1.
         24    2    1    2    0    0 -0.42703709066E+03  0.73424893812E+02 -0.41303739128E+03  0.60375718813E+03  0.78555482224E+02 0.  0.
        254    2    1    2    0    0  0.42703709066E+03 -0.73424893812E+02  0.51075181596E+03  0.11044092130E+04  0.87812322625E+03 0.  0.
         23    2    4    4    0    0  0.55798146937E+03  0.33239699649E+01  0.66635267181E+03  0.87383326130E+03  0.90577681519E+02 0.  0.
         23    2    4    4    0    0 -0.13094437871E+03 -0.76748863776E+02 -0.15560085585E+03  0.23057595172E+03  0.76920899402E+02 0.  0.
          2    1    3    3  502    0 -0.21642442771E+03  0.26996255611E+02 -0.15559123432E+03  0.26791222988E+03  0.00000000000E+00 0. -1.
         -1    1    3    3    0  502 -0.21061266296E+03  0.46428638201E+02 -0.25744615696E+03  0.33584495824E+03  0.00000000000E+00 0.  1.
         13    1    5    5    0    0  0.36963904957E+03  0.16861432881E+02  0.50106217823E+03  0.62288092067E+03  0.00000000000E+00 0. -1.
        -13    1    5    5    0    0  0.18834241981E+03 -0.13537462916E+02  0.16529049359E+03  0.25095234064E+03  0.00000000000E+00 0.  1.
          4    1    6    6  503    0 -0.13387517156E+03 -0.84857172229E+02 -0.15536721225E+03  0.22195105740E+03  0.00000000000E+00 0. -1.
         -4    1    6    6    0  503  0.29307928524E+01  0.81083084530E+01 -0.23364360043E+00  0.86248943208E+01  0.00000000000E+00 0.  1.
<mgrwt>
<rscale>  0 0.17053693E+04</rscale>
<asrwt>0</asrwt>
<pdfrwt beam="1">  1        2 0.13891391E+00 0.17053693E+04</pdfrwt>
<pdfrwt beam="2">  1       -1 0.12388092E+00 0.17053693E+04</pdfrwt>
<totfact> 0.18134795E+01</totfact>
</mgrwt>
</event>
<event>
11    7  0.1497947E-008  0.1981697E+04  0.7818608E-02  0.8615226E-01
          2   -1    0    0  501    0  0.00000000000E+00  0.00000000000E+00  0.27779160657E+04  0.27779160657E+04  0.00000000000E+00 0. -1.
         -3   -1    0    0    0  501 -0.00000000000E+00 -0.00000000000E+00 -0.35342347406E+03  0.35342347406E+03  0.00000000000E+00 0.  1.
         24    2    1    2    0    0  0.25339871563E+02 -0.14708855508E+03 -0.25247786155E+03  0.30379447223E+03  0.79176124318E+02 0.  0.
        254    2    1    2    0    0 -0.25339871563E+02  0.14708855508E+03  0.26769704532E+04  0.28275450675E+04  0.89808860892E+03 0.  0.
         23    2    4    4    0    0  0.24222716506E+03 -0.40493169723E+02  0.19740398397E+04  0.19916363196E+04  0.97304905353E+02 0.  0.
          4    1    3    3  502    0 -0.32793469866E+01  0.70643802021E+01 -0.15962711765E+01  0.79503248970E+01  0.00000000000E+00 0. -1.
         -3    1    3    3    0  502  0.28619218550E+02 -0.15415293528E+03 -0.25088159037E+03  0.29584414734E+03  0.00000000000E+00 0.  1.
         13    1    5    5    0    0  0.18103493009E+02  0.24300580399E+02  0.18872672544E+03  0.19114400739E+03  0.00000000000E+00 0. -1.
        -13    1    5    5    0    0  0.22412367205E+03 -0.64793750122E+02  0.17853131143E+04  0.18004923122E+04  0.00000000000E+00 0.  1.
          1    1    4    4  503    0  0.70562252491E+02  0.53094755356E+02  0.14631685373E+03  0.17089969633E+03  0.00000000000E+00 0. -1.
         -1    1    4    4    0  503 -0.33812928912E+03  0.13448696945E+03  0.55661375976E+03  0.66500905157E+03  0.00000000000E+00 0.  1.
<mgrwt>
<rscale>  0 0.19816970E+04</rscale>
<asrwt>0</asrwt>
<pdfrwt beam="1">  1        2 0.42737169E+00 0.19816970E+04</pdfrwt>
<pdfrwt beam="2">  1       -3 0.54372844E-01 0.19816970E+04</pdfrwt>
<totfact> 0.47772449E+00</totfact>
</mgrwt>
</event>
<event>
12    7  0.1497947E-008  0.1245927E+04  0.7818608E-02  0.9073580E-01
         -1   -1    0    0    0  501 -0.00000000000E+00  0.00000000000E+00  0.19375792381E+03  0.19375792381E+03  0.00000000000E+00 0.  1.
          2   -1    0    0  501    0  0.00000000000E+00 -0.00000000000E+00 -0.20029285833E+04  0.20029285833E+04  0.00000000000E+00 0. -1.
         24    2    1    2    0    0  0.22088814802E+03 -0.16007219208E+03 -0.23155168057E+03  0.36640853116E+03  0.78894551893E+02 0.  0.
        254    2    1    2    0    0 -0.22088814802E+03  0.16007219208E+03 -0.15776189789E+04  0.18302779760E+04  0.88691665107E+03 0.  0.
         23    2    4    4    0    0 -0.37426994156E+03 -0.94672014353E+02 -0.26294117829E+03  0.47668462019E+03  0.95128252530E+02 0.  0.
         23    2    4    4    0    0  0.15338179354E+03  0.25474420643E+03 -0.13146778007E+04  0.13535933558E+04  0.12416387536E+03 0.  0.
          2    1    3    3  502    0  0.33352146850E+02 -0.53259045206E+02 -0.24865776733E+02  0.67581050956E+02  0.00000000000E+00 0. -1.
         -1    1    3    3    0  502  0.18753600117E+03 -0.10681314688E+03 -0.20668590383E+03  0.29882748020E+03  0.00000000000E+00 0.  1.
         13    1    5    5    0    0 -0.49801032830E+02 -0.67496006103E+01 -0.78588201180E+02  0.93283467689E+02  0.00000000000E+00 0.  1.
        -13    1    5    5    0    0 -0.32446890873E+03 -0.87922413743E+02 -0.18435297711E+03  0.38340115250E+03  0.00000000000E+00 0. -1.
          1    1    6    6  503    0  0.81756170441E+02  0.23279637258E+03 -0.97257223263E+03  0.10033817669E+04  0.00000000000E+00 0. -1.
         -1    1    6    6    0  503  0.71625623098E+02  0.21947833859E+02 -0.34210556802E+03  0.35021158886E+03  0.00000000000E+00 0.  1.
<mgrwt>
<rscale>  0 0.12459266E+04</rscale>
<asrwt>0</asrwt>
<pdfrwt beam="1">  1        2 0.30814285E+00 0.12459266E+04</pdfrwt>
<pdfrwt beam="2">  1       -1 0.29808912E-01 0.12459266E+04</pdfrwt>
<totfact> 0.77058941E+01</totfact>
</mgrwt>
</event>
<event>
12    7  0.1497947E-008  0.1532549E+04  0.7818608E-02  0.8863092E-01
          2   -1    0    0  501    0  0.00000000000E+00  0.00000000000E+00  0.50396015236E+03  0.50396015236E+03  0.00000000000E+00 0. -1.
         -1   -1    0    0    0  501 -0.00000000000E+00 -0.00000000000E+00 -0.11651252468E+04  0.11651252468E+04  0.00000000000E+00 0.  1.
         24    2    1    2    0    0  0.44634295264E+03  0.22715434183E+03 -0.21938506983E+03  0.55269135222E+03  0.80726671956E+02 0.  0.
        254    2    1    2    0    0 -0.44634295264E+03 -0.22715434183E+03 -0.44178002459E+03  0.11163940469E+04  0.89462000396E+03 0.  0.
         23    2    4    4    0    0 -0.55030396752E+03  0.16636919495E+03 -0.14034032224E+03  0.59871018943E+03  0.90803739907E+02 0.  0.
         23    2    4    4    0    0  0.10396101488E+03 -0.39352353677E+03 -0.30143970235E+03  0.51768385749E+03  0.10706080303E+03 0.  0.
          4    1    3    3  502    0  0.92367034602E+02  0.74003990938E+02 -0.25746104928E+02  0.12112440578E+03  0.00000000000E+00 0. -1.
         -3    1    3    3    0  502  0.35397591804E+03  0.15315035089E+03 -0.19363896490E+03  0.43156694644E+03  0.00000000000E+00 0.  1.
         13    1    5    5    0    0 -0.46146418993E+03  0.10526264887E+03 -0.12701577014E+03  0.49006369963E+03  0.00000000000E+00 0.  1.
        -13    1    5    5    0    0 -0.88839777596E+02  0.61106546073E+02 -0.13324552092E+02  0.10864648980E+03  0.00000000000E+00 0. -1.
          2    1    6    6  503    0  0.26608467182E+02 -0.20074081500E+03 -0.91039406403E+02  0.22202040188E+03  0.00000000000E+00 0. -1.
         -2    1    6    6    0  503  0.77352547696E+02 -0.19278272178E+03 -0.21040029595E+03  0.29566345562E+03  0.00000000000E+00 0.  1.
<mgrwt>
<rscale>  0 0.15325491E+04</rscale>
<asrwt>0</asrwt>
<pdfrwt beam="1">  1        2 0.77532332E-01 0.15325491E+04</pdfrwt>
<pdfrwt beam="2">  1       -1 0.17925004E+00 0.15325491E+04</pdfrwt>
<totfact> 0.14164499E+01</totfact>
</mgrwt>
</event>
<event>
12    7  0.1497947E-008  0.2001721E+04  0.7818608E-02  0.8605816E-01
         -1   -1    0    0    0  501 -0.00000000000E+00  0.00000000000E+00  0.51414393029E+03  0.51414393029E+03  0.00000000000E+00 0.  1.
          2   -1    0    0  501    0  0.00000000000E+00 -0.00000000000E+00 -0.19483293518E+04  0.19483293518E+04  0.00000000000E+00 0. -1.
         24    2    1    2    0    0 -0.45448008642E+03  0.49592425484E+03 -0.52829425986E+02  0.67958870682E+03  0.80974358294E+02 0.  0.
        254    2    1    2    0    0  0.45448008642E+03 -0.49592425484E+03 -0.13813559955E+04  0.17828845752E+04  0.90445564117E+03 0.  0.
         23    2    4    4    0    0  0.18142089441E+03  0.17629227350E+03 -0.80180606313E+03  0.84548007810E+03  0.89168901310E+02 0.  0.
         23    2    4    4    0    0  0.27305919202E+03 -0.67221652834E+03 -0.57954993234E+03  0.93740449712E+03  0.12811199722E+03 0.  0.
          4    1    3    3  502    0 -0.89877279984E+02  0.14688642875E+03 -0.11092498833E+01  0.17220562953E+03  0.00000000000E+00 0. -1.
         -3    1    3    3    0  502 -0.36460280644E+03  0.34903782609E+03 -0.51720176102E+02  0.50738307729E+03  0.00000000000E+00 0.  1.
         13    1    5    5    0    0  0.18776505072E+03  0.16135166764E+03 -0.70227872243E+03  0.74463781726E+03  0.00000000000E+00 0. -1.
        -13    1    5    5    0    0 -0.63441563124E+01  0.14940605866E+02 -0.99527340704E+02  0.10084226084E+03  0.00000000000E+00 0.  1.
          3    1    6    6  503    0  0.19911476857E+03 -0.55131564996E+03 -0.52036771445E+03  0.78382280855E+03  0.00000000000E+00 0. -1.
         -3    1    6    6    0  503  0.73944423450E+02 -0.12090087838E+03 -0.59182217891E+02  0.15358168858E+03  0.00000000000E+00 0.  1.
<mgrwt>
<rscale>  0 0.20017210E+04</rscale>
<asrwt>0</asrwt>
<pdfrwt beam="1">  1        2 0.29974299E+00 0.20017210E+04</pdfrwt>
<pdfrwt beam="2">  1       -1 0.79099064E-01 0.20017210E+04</pdfrwt>
<totfact> 0.12064132E+01</totfact>
</mgrwt>
</event>
<event>
11    7  0.1497947E-008  0.1716669E+04  0.7818608E-02  0.8751914E-01
         -1   -1    0    0    0  501 -0.00000000000E+00  0.00000000000E+00  0.29234237263E+04  0.29234237263E+04  0.00000000000E+00 0.  1.
          2   -1    0    0  501    0  0.00000000000E+00 -0.00000000000E+00 -0.25201200738E+03  0.25201200738E+03  0.00000000000E+00 0. -1.
         24    2    1    2    0    0  0.15349343849E+03  0.65330251563E+02 -0.13695158423E+03  0.22440118056E+03  0.61415600518E+02 0.  0.
        254    2    1    2    0    0 -0.15349343849E+03 -0.65330251563E+02  0.28083633032E+04  0.29510345532E+04  0.89099506950E+03 0.  0.
         23    2    4    4    0    0 -0.61282789009E+02 -0.32141770149E+03  0.22975020826E+04  0.23225319630E+04  0.92595790762E+02 0.  0.
          2    1    3    3  502    0  0.12044483417E+03  0.76605058664E+02 -0.11302696045E+03  0.18207247700E+03  0.00000000000E+00 0. -1.
         -1    1    3    3    0  502  0.33048604321E+02 -0.11274807102E+02 -0.23924623774E+02  0.42328703565E+02  0.00000000000E+00 0.  1.
         13    1    5    5    0    0 -0.81614749545E+00 -0.23132714582E+03  0.15238070104E+04  0.15412659470E+04  0.00000000000E+00 0.  1.
        -13    1    5    5    0    0 -0.60466641514E+02 -0.90090555668E+02  0.77369507220E+03  0.78126601597E+03  0.00000000000E+00 0. -1.
          3    1    4    4  503    0  0.49899424355E+02  0.21104948011E+03  0.31198700539E+03  0.37995753334E+03  0.00000000000E+00 0. -1.
         -3    1    4    4    0  503 -0.14211007384E+03  0.45037969821E+02  0.19887421516E+03  0.24854505681E+03  0.00000000000E+00 0.  1.
<mgrwt>
<rscale>  0 0.17166687E+04</rscale>
<asrwt>0</asrwt>
<pdfrwt beam="1">  1        2 0.38771080E-01 0.17166687E+04</pdfrwt>
<pdfrwt beam="2">  1       -1 0.44975747E+00 0.17166687E+04</pdfrwt>
<totfact> 0.47283893E-01</totfact>
</mgrwt>
</event>
<event>
11    7  0.1497947E-008  0.2064051E+04  0.7818608E-02  0.8577247E-01
          2   -1    0    0  501    0  0.00000000000E+00  0.00000000000E+00  0.21103421292E+04  0.21103421292E+04  0.00000000000E+00 0. -1.
         -1   -1    0    0    0  501 -0.00000000000E+00 -0.00000000000E+00 -0.50469391477E+03  0.50469391477E+03  0.00000000000E+00 0.  1.
         24    2    1    2    0    0 -0.60033442467E+03  0.55526575602E+03  0.44834467558E+03  0.93625560840E+03  0.82705107961E+02 0.  0.
        254    2    1    2    0    0  0.60033442467E+03 -0.55526575602E+03  0.11573035389E+04  0.16787804356E+04  0.90012820675E+03 0.  0.
         23    2    4    4    0    0 -0.74597348477E+02 -0.40862432450E+03  0.52129719733E+03  0.67275790395E+03  0.91180186516E+02 0.  0.
          2    1    3    3  502    0 -0.51648934709E+03  0.50017700788E+03  0.41694822541E+03  0.83113422955E+03  0.00000000000E+00 0. -1.
         -3    1    3    3    0  502 -0.83845077585E+02  0.55088748142E+02  0.31396450173E+02  0.10512137885E+03  0.00000000000E+00 0.  1.
         13    1    5    5    0    0 -0.44333429416E+02 -0.35871297765E+03  0.48169581333E+03  0.60222197725E+03  0.00000000000E+00 0. -1.
        -13    1    5    5    0    0 -0.30263919062E+02 -0.49911346851E+02  0.39601383993E+02  0.70535926701E+02  0.00000000000E+00 0.  1.
          4    1    4    4  503    0  0.53159565047E+03  0.51986015306E+02  0.42103936999E+03  0.68012545348E+03  0.00000000000E+00 0. -1.
         -4    1    4    4    0  503  0.14333612268E+03 -0.19862744682E+03  0.21496697154E+03  0.32589707816E+03  0.00000000000E+00 0.  1.
<mgrwt>
<rscale>  0 0.20640512E+04</rscale>
<asrwt>0</asrwt>
<pdfrwt beam="1">  1        2 0.32466802E+00 0.20640512E+04</pdfrwt>
<pdfrwt beam="2">  1       -1 0.77645219E-01 0.20640512E+04</pdfrwt>
<totfact> 0.10139109E+01</totfact>
</mgrwt>
</event>
<event>
11    7  0.1497947E-008  0.1735770E+04  0.7818608E-02  0.8741222E-01
          4   -1    0    0  501    0  0.00000000000E+00  0.00000000000E+00  0.14748108586E+04  0.14748108586E+04  0.00000000000E+00 0. -1.
         -1   -1    0    0    0  501 -0.00000000000E+00 -0.00000000000E+00 -0.51072634283E+03  0.51072634283E+03  0.00000000000E+00 0.  1.
         24    2    1    2    0    0 -0.19411685670E+03 -0.37152164742E+03 -0.17977039904E+03  0.46250395523E+03  0.76699567683E+02 0.  0.
        254    2    1    2    0    0  0.19411685670E+03  0.37152164742E+03  0.11438549148E+04  0.15230332462E+04  0.91406592447E+03 0.  0.
         23    2    4    4    0    0  0.53966967562E+03  0.21321733348E+03  0.56574767685E+03  0.81549585232E+03  0.90873875253E+02 0.  0.
          2    1    3    3  502    0  0.78698435976E+00 -0.27150282063E+02 -0.27110919069E+02  0.38376543529E+02  0.00000000000E+00 0. -1.
         -1    1    3    3    0  502 -0.19490384106E+03 -0.34437136535E+03 -0.15265947997E+03  0.42412741171E+03  0.00000000000E+00 0.  1.
         13    1    5    5    0    0  0.50093663149E+03  0.21453547226E+03  0.54813421381E+03  0.77292567170E+03  0.00000000000E+00 0. -1.
        -13    1    5    5    0    0  0.38733044130E+02 -0.13181387782E+01  0.17613463044E+02  0.42570180618E+02  0.00000000000E+00 0.  1.
          2    1    4    4  503    0 -0.35130682349E+03  0.17065437645E+03  0.53544529369E+03  0.66275264086E+03  0.00000000000E+00 0. -1.
         -2    1    4    4    0  503  0.57540045688E+01 -0.12350062517E+02  0.42661944230E+02  0.44784752966E+02  0.00000000000E+00 0.  1.
<mgrwt>
<rscale>  0 0.17357704E+04</rscale>
<asrwt>0</asrwt>
<pdfrwt beam="1">  1        4 0.22689398E+00 0.17357704E+04</pdfrwt>
<pdfrwt beam="2">  1       -1 0.78573284E-01 0.17357704E+04</pdfrwt>
<totfact> 0.55390090E-01</totfact>
</mgrwt>
</event>
<event>
12    7  0.1497947E-008  0.1619263E+04  0.7818608E-02  0.8808801E-01
         -1   -1    0    0    0  501 -0.00000000000E+00  0.00000000000E+00  0.51565267420E+03  0.51565267420E+03  0.00000000000E+00 0.  1.
          2   -1    0    0  501    0  0.00000000000E+00 -0.00000000000E+00 -0.12712103897E+04  0.12712103897E+04  0.00000000000E+00 0. -1.
         24    2    1    2    0    0  0.21167674321E+03 -0.14081861098E+03 -0.80405589394E+03  0.84696425875E+03  0.78775949382E+02 0.  0.
        254    2    1    2    0    0 -0.21167674321E+03  0.14081861098E+03  0.48498178450E+02  0.93989880514E+03  0.90356005101E+03 0.  0.
         23    2    4    4    0    0 -0.34054529555E+03  0.18334767475E+03  0.39476128064E+03  0.56035308878E+03  0.92583191021E+02 0.  0.
         23    2    4    4    0    0  0.12886855235E+03 -0.42529063772E+02 -0.34626310218E+03  0.37954571636E+03  0.75769319824E+02 0.  0.
          2    1    3    3  502    0  0.10571909148E+03 -0.78649494886E+02 -0.53822408022E+03  0.55411860633E+03  0.00000000000E+00 0. -1.
         -1    1    3    3    0  502  0.10595765173E+03 -0.62169116090E+02 -0.26583181372E+03  0.29284565242E+03  0.00000000000E+00 0.  1.
         13    1    5    5    0    0 -0.30265022465E+03  0.19078896523E+03  0.36879514975E+03  0.51381655307E+03  0.00000000000E+00 0.  1.
        -13    1    5    5    0    0 -0.37895070902E+02 -0.74412904777E+01  0.25966130890E+02  0.46536535712E+02  0.00000000000E+00 0. -1.
          4    1    6    6  503    0  0.77596636334E+02 -0.35348961569E+02 -0.11860556718E+03  0.14607555449E+03  0.00000000000E+00 0. -1.
         -4    1    6    6    0  503  0.51271916011E+02 -0.71801022027E+01 -0.22765753501E+03  0.23347016187E+03  0.00000000000E+00 0.  1.
<mgrwt>
<rscale>  0 0.16192628E+04</rscale>
<asrwt>0</asrwt>
<pdfrwt beam="1">  1        2 0.19557083E+00 0.16192628E+04</pdfrwt>
<pdfrwt beam="2">  1       -1 0.79331182E-01 0.16192628E+04</pdfrwt>
<totfact> 0.29795542E+01</totfact>
</mgrwt>
</event>
<event>
12    7  0.1497947E-008  0.1606274E+04  0.7818608E-02  0.8816703E-01
          2   -1    0    0  501    0  0.00000000000E+00  0.00000000000E+00  0.18938730233E+04  0.18938730233E+04  0.00000000000E+00 0. -1.
         -1   -1    0    0    0  501 -0.00000000000E+00 -0.00000000000E+00 -0.34058734069E+03  0.34058734069E+03  0.00000000000E+00 0.  1.
         24    2    1    2    0    0 -0.47605134952E+03  0.27506322875E+03  0.51766394970E+03  0.75951069204E+03  0.81214895956E+02 0.  0.
        254    2    1    2    0    0  0.47605134952E+03 -0.27506322875E+03  0.10356217329E+04  0.14749496720E+04  0.89480695902E+03 0.  0.
         23    2    4    4    0    0  0.64718030199E+03 -0.15385243970E+03  0.37020391057E+03  0.76666644769E+03  0.90628859271E+02 0.  0.
         23    2    4    4    0    0 -0.17112895247E+03 -0.12121078904E+03  0.66541782237E+03  0.70828322427E+03  0.12209452774E+03 0.  0.
          4    1    3    3  502    0 -0.11890598094E+03  0.69994494201E+02  0.84395886678E+02  0.16174216275E+03  0.00000000000E+00 0. -1.
         -3    1    3    3    0  502 -0.35714536858E+03  0.20506873454E+03  0.43326806302E+03  0.59776852930E+03  0.00000000000E+00 0.  1.
         13    1    5    5    0    0  0.18855776849E+03 -0.15918185952E+02  0.13942864190E+03  0.23504843519E+03  0.00000000000E+00 0. -1.
        -13    1    5    5    0    0  0.45862253350E+03 -0.13793425375E+03  0.23077526866E+03  0.53161801250E+03  0.00000000000E+00 0.  1.
          3    1    6    6  503    0 -0.48168457808E+02 -0.86192217196E+02  0.42126473127E+03  0.43268149075E+03  0.00000000000E+00 0.  1.
         -3    1    6    6    0  503 -0.12296049467E+03 -0.35018571847E+02  0.24415309110E+03  0.27560173351E+03  0.00000000000E+00 0. -1.
<mgrwt>
<rscale>  0 0.16062742E+04</rscale>
<asrwt>0</asrwt>
<pdfrwt beam="1">  1        2 0.29136507E+00 0.16062742E+04</pdfrwt>
<pdfrwt beam="2">  1       -1 0.52398054E-01 0.16062742E+04</pdfrwt>
<totfact> 0.30661663E+01</totfact>
</mgrwt>
</event>
<event>
12    7  0.1497947E-008  0.1584871E+04  0.7818608E-02  0.8829897E-01
          2   -1    0    0  501    0  0.00000000000E+00  0.00000000000E+00  0.64181279028E+03  0.64181279028E+03  0.00000000000E+00 0. -1.
         -1   -1    0    0    0  501 -0.00000000000E+00 -0.00000000000E+00 -0.97840639423E+03  0.97840639423E+03  0.00000000000E+00 0.  1.
         24    2    1    2    0    0  0.13083300889E+03 -0.71575126550E+02 -0.63539890726E+03  0.65778296042E+03  0.81892470443E+02 0.  0.
        254    2    1    2    0    0 -0.13083300889E+03  0.71575126550E+02  0.29880530331E+03  0.96243622408E+03  0.90263979592E+03 0.  0.
         23    2    4    4    0    0  0.32002232202E+03  0.16188805159E+03  0.32019886206E+03  0.48933011963E+03  0.91074842146E+02 0.  0.
         23    2    4    4    0    0 -0.45085533091E+03 -0.90312925039E+02 -0.21393558753E+02  0.47310610446E+03  0.10929203025E+03 0.  0.
          2    1    3    3  502    0  0.70994826058E+02  0.69198092091E+01 -0.25527287385E+03  0.26505167272E+03  0.00000000000E+00 0. -1.
         -1    1    3    3    0  502  0.59838182835E+02 -0.78494935759E+02 -0.38012603341E+03  0.39273128770E+03  0.00000000000E+00 0.  1.
         13    1    5    5    0    0  0.64604584952E+02  0.76483162370E+02  0.99261914443E+02  0.14098352451E+03  0.00000000000E+00 0. -1.
        -13    1    5    5    0    0  0.25541773707E+03  0.85404889219E+02  0.22093694762E+03  0.34834659512E+03  0.00000000000E+00 0.  1.
          3    1    6    6  503    0 -0.39903279413E+01 -0.53536938799E+00  0.15315706660E+02  0.15836041423E+02  0.00000000000E+00 0. -1.
         -3    1    6    6    0  503 -0.44686500297E+03 -0.89777555651E+02 -0.36709265413E+02  0.45727006303E+03  0.00000000000E+00 0.  1.
<mgrwt>
<rscale>  0 0.15848706E+04</rscale>
<asrwt>0</asrwt>
<pdfrwt beam="1">  1        2 0.98740429E-01 0.15848706E+04</pdfrwt>
<pdfrwt beam="2">  1       -1 0.15052406E+00 0.15848706E+04</pdfrwt>
<totfact> 0.17313766E+01</totfact>
</mgrwt>
</event>
<event>
12    7  0.1497947E-008  0.1959968E+04  0.7818608E-02  0.8625569E-01
          2   -1    0    0  501    0  0.00000000000E+00  0.00000000000E+00  0.32799127493E+04  0.32799127493E+04  0.00000000000E+00 0. -1.
         -1   -1    0    0    0  501 -0.00000000000E+00 -0.00000000000E+00 -0.29280318935E+03  0.29280318935E+03  0.00000000000E+00 0.  1.
         24    2    1    2    0    0  0.43223641538E+03  0.27605870961E+03  0.22267772656E+04  0.22864548182E+04  0.79384600959E+02 0.  0.
        254    2    1    2    0    0 -0.43223641538E+03 -0.27605870961E+03  0.76033229429E+03  0.12862611204E+04  0.90184574197E+03 0.  0.
         23    2    4    4    0    0 -0.10345923907E+03  0.30805461868E+03  0.13290073828E+03  0.36168567765E+03  0.86904895960E+02 0.  0.
         23    2    4    4    0    0 -0.32877717631E+03 -0.58411332829E+03  0.62743155601E+03  0.92457544280E+03  0.10902559335E+03 0.  0.
          4    1    3    3  502    0  0.42811590663E+03  0.28130279128E+03  0.21945688732E+04  0.22535631851E+04  0.00000000000E+00 0. -1.
         -3    1    3    3    0  502  0.41205087440E+01 -0.52440816674E+01  0.32208392410E+02  0.32891633077E+02  0.00000000000E+00 0.  1.
         13    1    5    5    0    0 -0.77268896090E+02  0.28311727216E+03  0.13947486598E+03  0.32492939285E+03  0.00000000000E+00 0.  1.
        -13    1    5    5    0    0 -0.26190342977E+02  0.24937346517E+02 -0.65741277074E+01  0.36756284791E+02  0.00000000000E+00 0. -1.
          2    1    6    6  503    0 -0.28618271450E+03 -0.54774293458E+03  0.53968756890E+03  0.82047884828E+03  0.00000000000E+00 0.  1.
         -2    1    6    6    0  503 -0.42594461814E+02 -0.36370393715E+02  0.87743987118E+02  0.10409659452E+03  0.00000000000E+00 0. -1.
<mgrwt>
<rscale>  0 0.19599683E+04</rscale>
<asrwt>0</asrwt>
<pdfrwt beam="1">  1        2 0.50460194E+00 0.19599683E+04</pdfrwt>
<pdfrwt beam="2">  1       -1 0.45046647E-01 0.19599683E+04</pdfrwt>
<totfact> 0.59831640E+00</totfact>
</mgrwt>
</event>
<event>
11    7  0.1497947E-008  0.3481988E+04  0.7818608E-02  0.8118072E-01
         -1   -1    0    0    0  501 -0.00000000000E+00  0.00000000000E+00  0.11516272937E+04  0.11516272937E+04  0.00000000000E+00 0.  1.
          2   -1    0    0  501    0  0.00000000000E+00 -0.00000000000E+00 -0.26319803312E+04  0.26319803312E+04  0.00000000000E+00 0. -1.
         24    2    1    2    0    0 -0.48743368993E+03 -0.15015603092E+04 -0.26875004290E+03  0.16034646724E+04  0.81224416973E+02 0.  0.
        254    2    1    2    0    0  0.48743368993E+03  0.15015603092E+04 -0.12116029946E+04  0.21801429525E+04  0.89037436640E+03 0.  0.
         23    2    4    4    0    0  0.13141652656E+03  0.31605957840E+03  0.66384245545E+02  0.36116813593E+03  0.94189138428E+02 0.  0.
          4    1    3    3  502    0 -0.43575588905E+03 -0.12474078425E+04 -0.21795223792E+03  0.13391835940E+04  0.00000000000E+00 0. -1.
         -3    1    3    3    0  502 -0.51677800883E+02 -0.25415246667E+03 -0.50797804984E+02  0.26428107842E+03  0.00000000000E+00 0.  1.
         13    1    5    5    0    0  0.10276401641E+03  0.28709933340E+03  0.84729110480E+02  0.31648932441E+03  0.00000000000E+00 0.  1.
        -13    1    5    5    0    0  0.28652510145E+02  0.28960245009E+02 -0.18344864935E+02  0.44678811512E+02  0.00000000000E+00 0. -1.
          4    1    4    4  503    0  0.18500883344E+03  0.16141241972E+03 -0.15907655535E+03  0.29255356459E+03  0.00000000000E+00 0. -1.
         -4    1    4    4    0  503  0.17100832994E+03  0.10240883111E+04 -0.11189106848E+04  0.15264212520E+04  0.00000000000E+00 0.  1.
<mgrwt>
<rscale>  0 0.34819882E+04</rscale>
<asrwt>0</asrwt>
<pdfrwt beam="1">  1        2 0.40492005E+00 0.34819882E+04</pdfrwt>
<pdfrwt beam="2">  1       -1 0.17717343E+00 0.34819882E+04</pdfrwt>
<totfact> 0.59413444E-01</totfact>
</mgrwt>
</event>
<event>
12    7  0.1497947E-008  0.1831506E+04  0.7818608E-02  0.8689722E-01
          2   -1    0    0  501    0  0.00000000000E+00  0.00000000000E+00  0.36217679183E+03  0.36217679183E+03  0.00000000000E+00 0. -1.
         -3   -1    0    0    0  501 -0.00000000000E+00 -0.00000000000E+00 -0.23154541138E+04  0.23154541138E+04  0.00000000000E+00 0.  1.
         24    2    1    2    0    0  0.53105167210E+03  0.28632983655E+03 -0.23086217114E+03  0.65098842642E+03  0.80547722088E+02 0.  0.
        254    2    1    2    0    0 -0.53105167210E+03 -0.28632983655E+03 -0.17224151509E+04  0.20266424792E+04  0.88122933052E+03 0.  0.
         23    2    4    4    0    0 -0.10019072207E+02 -0.32333569681E+03 -0.13215313732E+04  0.13635757291E+04  0.90814336887E+02 0.  0.
         23    2    4    4    0    0 -0.52103259989E+03  0.37005860263E+02 -0.40088377763E+03  0.66306675018E+03  0.78136471523E+02 0.  0.
          2    1    3    3  502    0  0.24461344608E+03  0.12236248265E+03 -0.62860535754E+02  0.28064169704E+03  0.00000000000E+00 0. -1.
         -1    1    3    3    0  502  0.28643822602E+03  0.16396735390E+03 -0.16800163539E+03  0.37034672938E+03  0.00000000000E+00 0.  1.
         13    1    5    5    0    0 -0.31505364949E+02 -0.30780441809E+03 -0.12093840499E+04  0.12483372653E+04  0.00000000000E+00 0. -1.
        -13    1    5    5    0    0  0.21486292743E+02 -0.15531278723E+02 -0.11214732337E+03  0.11523846378E+03  0.00000000000E+00 0.  1.
          3    1    6    6  503    0 -0.37599243977E+03  0.30867952196E+01 -0.31898084606E+03  0.49308074717E+03  0.00000000000E+00 0.  1.
         -3    1    6    6    0  503 -0.14504016012E+03  0.33919065043E+02 -0.81902931563E+02  0.16998600301E+03  0.00000000000E+00 0. -1.
<mgrwt>
<rscale>  0 0.18315062E+04</rscale>
<asrwt>0</asrwt>
<pdfrwt beam="1">  1        2 0.55719510E-01 0.18315062E+04</pdfrwt>
<pdfrwt beam="2">  1       -3 0.35622369E+00 0.18315062E+04</pdfrwt>
<totfact> 0.96340905E-01</totfact>
</mgrwt>
</event>
<event>
11    7  0.1497947E-008  0.3074716E+04  0.7818608E-02  0.8222711E-01
          2   -1    0    0  501    0  0.00000000000E+00  0.00000000000E+00  0.15337999832E+04  0.15337999832E+04  0.00000000000E+00 0. -1.
         -1   -1    0    0    0  501 -0.00000000000E+00 -0.00000000000E+00 -0.15409239415E+04  0.15409239415E+04  0.00000000000E+00 0.  1.
         24    2    1    2    0    0  0.12790128889E+04 -0.52102213177E+03 -0.22904375592E+03  0.14022482483E+04  0.80629249545E+02 0.  0.
        254    2    1    2    0    0 -0.12790128889E+04  0.52102213177E+03  0.22191979766E+03  0.16724756764E+04  0.91683611396E+03 0.  0.
         23    2    4    4    0    0 -0.42201864340E+03  0.58568905812E+03  0.32028242720E+03  0.79507606655E+03  0.91835234262E+02 0.  0.
          2    1    3    3  502    0  0.13335858230E+03 -0.51047296630E+02  0.77720527178E+00  0.14279685576E+03  0.00000000000E+00 0. -1.
         -1    1    3    3    0  502  0.11456543066E+04 -0.46997483514E+03 -0.22982096119E+03  0.12594513925E+04  0.00000000000E+00 0.  1.
         13    1    5    5    0    0 -0.56330279320E+02  0.85226764589E+02  0.12151956878E+02  0.10288037629E+03  0.00000000000E+00 0. -1.
        -13    1    5    5    0    0 -0.36568836408E+03  0.50046229353E+03  0.30813047032E+03  0.69219569026E+03  0.00000000000E+00 0.  1.
          2    1    4    4  503    0 -0.23105230329E+03 -0.82332225901E+02 -0.15835909716E+02  0.24579369055E+03  0.00000000000E+00 0. -1.
         -2    1    4    4    0  503 -0.62594194221E+03  0.17665299547E+02 -0.82526719829E+02  0.63160591932E+03  0.00000000000E+00 0.  1.
<mgrwt>
<rscale>  0 0.30747157E+04</rscale>
<asrwt>0</asrwt>
<pdfrwt beam="1">  1        2 0.23596923E+00 0.30747157E+04</pdfrwt>
<pdfrwt beam="2">  1       -1 0.23706522E+00 0.30747157E+04</pdfrwt>
<totfact> 0.99745028E-01</totfact>
</mgrwt>
</event>
<event>
11    7  0.1497947E-008  0.1303840E+04  0.7818608E-02  0.9026525E-01
          2   -1    0    0  501    0  0.00000000000E+00  0.00000000000E+00  0.16758404588E+04  0.16758404588E+04  0.00000000000E+00 0. -1.
         -1   -1    0    0    0  501 -0.00000000000E+00 -0.00000000000E+00 -0.25360409325E+03  0.25360409325E+03  0.00000000000E+00 0.  1.
         24    2    1    2    0    0 -0.64985017821E+02  0.33929788895E+03  0.24623658034E+03  0.43019857838E+03  0.71360026290E+02 0.  0.
        254    2    1    2    0    0  0.64985017821E+02 -0.33929788895E+03  0.11759997852E+04  0.14992459737E+04  0.86337528618E+03 0.  0.
         23    2    4    4    0    0  0.15671080645E+03 -0.11019494388E+03  0.90539816529E+03  0.92977035100E+03  0.89587194249E+02 0.  0.
          2    1    3    3  502    0 -0.32084841711E+02  0.19027527180E+03  0.94003659845E+02  0.21464110555E+03  0.00000000000E+00 0. -1.
         -1    1    3    3    0  502 -0.32900176110E+02  0.14902261715E+03  0.15223292049E+03  0.21555747283E+03  0.00000000000E+00 0.  1.
         13    1    5    5    0    0  0.67943203028E+02 -0.95798080495E+02  0.60093395141E+03  0.61230316431E+03  0.00000000000E+00 0.  1.
        -13    1    5    5    0    0  0.88767603420E+02 -0.14396863381E+02  0.30446421388E+03  0.31746718669E+03  0.00000000000E+00 0. -1.
          1    1    4    4  503    0  0.64282672674E+02  0.30128116889E+02 -0.79613470906E+02  0.10666897479E+03  0.00000000000E+00 0. -1.
         -1    1    4    4    0  503 -0.15600846130E+03 -0.25923106197E+03  0.35021509086E+03  0.46280664791E+03  0.00000000000E+00 0.  1.
<mgrwt>
<rscale>  0 0.13038405E+04</rscale>
<asrwt>0</asrwt>
<pdfrwt beam="1">  1        2 0.25782160E+00 0.13038405E+04</pdfrwt>
<pdfrwt beam="2">  1       -1 0.39016015E-01 0.13038405E+04</pdfrwt>
<totfact> 0.71982377E+01</totfact>
</mgrwt>
</event>
<event>
11    7  0.1497947E-008  0.1524060E+04  0.7818608E-02  0.8868609E-01
          2   -1    0    0  501    0  0.00000000000E+00  0.00000000000E+00  0.34436591003E+03  0.34436591003E+03  0.00000000000E+00 0. -1.
         -1   -1    0    0    0  501 -0.00000000000E+00 -0.00000000000E+00 -0.16862577338E+04  0.16862577338E+04  0.00000000000E+00 0.  1.
         24    2    1    2    0    0 -0.80101892915E+02 -0.43376708100E+03 -0.72919255181E+03  0.85587100998E+03  0.78887351902E+02 0.  0.
        254    2    1    2    0    0  0.80101892915E+02  0.43376708100E+03 -0.61269927195E+03  0.11747526338E+04  0.90004064300E+03 0.  0.
         23    2    4    4    0    0  0.27962693495E+03  0.18845771111E+03  0.11270839316E+03  0.36643795474E+03  0.88690817788E+02 0.  0.
          4    1    3    3  502    0  0.14773154363E+02 -0.48698735587E+02 -0.69333247081E+02  0.86005302676E+02  0.00000000000E+00 0. -1.
         -3    1    3    3    0  502 -0.94875047278E+02 -0.38506834542E+03 -0.65985930473E+03  0.76986570730E+03  0.00000000000E+00 0.  1.
         13    1    5    5    0    0  0.25261566719E+03  0.14876615477E+03  0.68252133357E+02  0.30100564417E+03  0.00000000000E+00 0.  1.
        -13    1    5    5    0    0  0.27011267754E+02  0.39691556333E+02  0.44456259804E+02  0.65432310562E+02  0.00000000000E+00 0. -1.
          2    1    4    4  503    0  0.18665600137E+02  0.79463164534E+02 -0.19158941836E+03  0.20825298167E+03  0.00000000000E+00 0. -1.
         -2    1    4    4    0  503 -0.21819064217E+03  0.16584620536E+03 -0.53381824675E+03  0.60006169743E+03  0.00000000000E+00 0.  1.
<mgrwt>
<rscale>  0 0.15240599E+04</rscale>
<asrwt>0</asrwt>
<pdfrwt beam="1">  1        2 0.52979371E-01 0.15240599E+04</pdfrwt>
<pdfrwt beam="2">  1       -1 0.25942427E+00 0.15240599E+04</pdfrwt>
<totfact> 0.62919353E+00</totfact>
</mgrwt>
</event>
<event>
12    7  0.1497947E-008  0.1580140E+04  0.7818608E-02  0.8832842E-01
          2   -1    0    0  501    0  0.00000000000E+00  0.00000000000E+00  0.14510144342E+04  0.14510144342E+04  0.00000000000E+00 0. -1.
         -1   -1    0    0    0  501 -0.00000000000E+00 -0.00000000000E+00 -0.43018934579E+03  0.43018934579E+03  0.00000000000E+00 0.  1.
         24    2    1    2    0    0 -0.51474270497E+03  0.10361196024E+03  0.25539657008E+03  0.58935080577E+03  0.80071678118E+02 0.  0.
        254    2    1    2    0    0  0.51474270497E+03 -0.10361196024E+03  0.76542851836E+03  0.12918529742E+04  0.89850308831E+03 0.  0.
         23    2    4    4    0    0  0.12627243181E+03 -0.44926967639E+03  0.53944660169E+03  0.71998704971E+03  0.97932356806E+02 0.  0.
         23    2    4    4    0    0  0.38847027316E+03  0.34565771615E+03  0.22598191666E+03  0.57186592453E+03  0.74661898705E+02 0.  0.
          2    1    3    3  502    0 -0.18115305701E+03  0.42117867874E+02  0.49184148827E+02  0.19237833910E+03  0.00000000000E+00 0. -1.
         -1    1    3    3    0  502 -0.33358964796E+03  0.61494092364E+02  0.20621242125E+03  0.39697246668E+03  0.00000000000E+00 0.  1.
         13    1    5    5    0    0  0.10130232547E+03 -0.30760840824E+03  0.30464897201E+03  0.44463028475E+03  0.00000000000E+00 0. -1.
        -13    1    5    5    0    0  0.24970106336E+02 -0.14166126814E+03  0.23479762969E+03  0.27535676496E+03  0.00000000000E+00 0.  1.
          2    1    6    6  503    0  0.57005675177E+02  0.37941060744E+02  0.56832294515E+02  0.88989217283E+02  0.00000000000E+00 0. -1.
         -2    1    6    6    0  503  0.33146459798E+03  0.30771665540E+03  0.16914962215E+03  0.48287670725E+03  0.00000000000E+00 0.  1.
<mgrwt>
<rscale>  0 0.15801404E+04</rscale>
<asrwt>0</asrwt>
<pdfrwt beam="1">  1        2 0.22323299E+00 0.15801404E+04</pdfrwt>
<pdfrwt beam="2">  1       -1 0.66182977E-01 0.15801404E+04</pdfrwt>
<totfact> 0.34265457E+01</totfact>
</mgrwt>
</event>
<event>
12    7  0.1497947E-008  0.4291710E+04  0.7818608E-02  0.7948153E-01
          2   -1    0    0  501    0  0.00000000000E+00  0.00000000000E+00  0.39324601040E+04  0.39324601040E+04  0.00000000000E+00 0. -1.
         -1   -1    0    0    0  501 -0.00000000000E+00 -0.00000000000E+00 -0.11709449824E+04  0.11709449824E+04  0.00000000000E+00 0.  1.
         24    2    1    2    0    0 -0.12465132043E+04  0.22277638275E+02 -0.62030653690E+03  0.13947227285E+04  0.78611882293E+02 0.  0.
        254    2    1    2    0    0  0.12465132043E+04 -0.22277638275E+02  0.33818216584E+04  0.37086823578E+04  0.87367936922E+03 0.  0.
         23    2    4    4    0    0  0.86368400955E+03  0.12184117540E+03  0.12012342357E+04  0.14873138899E+04  0.91343185808E+02 0.  0.
         23    2    4    4    0    0  0.38282919477E+03 -0.14411881368E+03  0.21805874227E+04  0.22213684680E+04  0.11039899241E+03 0.  0.
          2    1    3    3  502    0 -0.38963529355E+03 -0.71736576553E+01 -0.15672422424E+03  0.42003524353E+03  0.00000000000E+00 0. -1.
         -1    1    3    3    0  502 -0.85687791077E+03  0.29451295930E+02 -0.46358231266E+03  0.97468748500E+03  0.00000000000E+00 0.  1.
         13    1    5    5    0    0  0.10202340172E+03 -0.95534305626E+01  0.17148625612E+03  0.19976881281E+03  0.00000000000E+00 0.  1.
        -13    1    5    5    0    0  0.76166060783E+03  0.13139460596E+03  0.10297479796E+04  0.12875450771E+04  0.00000000000E+00 0. -1.
          1    1    6    6  503    0  0.37191745146E+03 -0.15943142321E+03  0.20671281928E+04  0.21063617769E+04  0.00000000000E+00 0. -1.
         -1    1    6    6    0  503  0.10911743313E+02  0.15312609536E+02  0.11345922987E+03  0.11500669109E+03  0.00000000000E+00 0.  1.
<mgrwt>
<rscale>  0 0.42917103E+04</rscale>
<asrwt>0</asrwt>
<pdfrwt beam="1">  1        2 0.60499386E+00 0.42917103E+04</pdfrwt>
<pdfrwt beam="2">  1       -1 0.18014538E+00 0.42917103E+04</pdfrwt>
<totfact> 0.70070965E-02</totfact>
</mgrwt>
</event>
<event>
12    7  0.1497947E-008  0.2830122E+04  0.7818608E-02  0.8293977E-01
          4   -1    0    0  501    0  0.00000000000E+00  0.00000000000E+00  0.17920571229E+04  0.17920571229E+04  0.00000000000E+00 0. -1.
         -3   -1    0    0    0  501 -0.00000000000E+00 -0.00000000000E+00 -0.11173734038E+04  0.11173734038E+04  0.00000000000E+00 0.  1.
         24    2    1    2    0    0  0.75473357564E+02  0.46360484587E+03  0.15176601685E+04  0.15907673507E+04  0.81379949684E+02 0.  0.
        254    2    1    2    0    0 -0.75473357564E+02 -0.46360484587E+03 -0.84297644932E+03  0.13186631760E+04  0.89868659541E+03 0.  0.
         23    2    4    4    0    0  0.22275564786E+03 -0.58973690903E+03 -0.69768811917E+03  0.94473392391E+03  0.91344265427E+02 0.  0.
         23    2    4    4    0    0 -0.29822900543E+03  0.12613206316E+03 -0.14528833016E+03  0.37392925208E+03  0.11774782225E+03 0.  0.
          2    1    3    3  502    0  0.81803729650E+02  0.35639688121E+03  0.12493360007E+04  0.13017492192E+04  0.00000000000E+00 0. -1.
         -1    1    3    3    0  502 -0.63303720860E+01  0.10720796466E+03  0.26832416778E+03  0.28901813146E+03  0.00000000000E+00 0.  1.
         13    1    5    5    0    0  0.14090896333E+03 -0.37153956534E+03 -0.37246305195E+03  0.54463355536E+03  0.00000000000E+00 0.  1.
        -13    1    5    5    0    0  0.81846684538E+02 -0.21819734369E+03 -0.32522506722E+03  0.40010036854E+03  0.00000000000E+00 0. -1.
          2    1    6    6  503    0 -0.30804086117E+03  0.12890285398E+03 -0.14401062446E+03  0.36365392597E+03  0.00000000000E+00 0. -1.
         -2    1    6    6    0  503  0.98118557399E+01 -0.27707908240E+01 -0.12777056937E+01  0.10275326111E+02  0.00000000000E+00 0.  1.
<mgrwt>
<rscale>  0 0.28301215E+04</rscale>
<asrwt>0</asrwt>
<pdfrwt beam="1">  1        4 0.27570110E+00 0.28301215E+04</pdfrwt>
<pdfrwt beam="2">  1       -3 0.17190360E+00 0.28301215E+04</pdfrwt>
<totfact> 0.19323202E-02</totfact>
</mgrwt>
</event>
<event>
12    7  0.1497947E-008  0.2579355E+04  0.7818608E-02  0.8375248E-01
          2   -1    0    0  501    0  0.00000000000E+00  0.00000000000E+00  0.36802149260E+04  0.36802149260E+04  0.00000000000E+00 0. -1.
         -1   -1    0    0    0  501 -0.00000000000E+00 -0.00000000000E+00 -0.45194873344E+03  0.45194873344E+03  0.00000000000E+00 0.  1.
         24    2    1    2    0    0  0.67645346727E+03 -0.11662070344E+03 -0.21395974526E+02  0.69148301823E+03  0.80630607896E+02 0.  0.
        254    2    1    2    0    0 -0.67645346727E+03  0.11662070344E+03  0.32496621671E+04  0.34406806412E+04  0.89821455831E+03 0.  0.
         23    2    4    4    0    0 -0.46910978173E+03 -0.17364247967E+03  0.28446723955E+04  0.28900949271E+04  0.10135063882E+03 0.  0.
         23    2    4    4    0    0 -0.20734368553E+03  0.29026318311E+03  0.40498977158E+03  0.55058571408E+03  0.10901281608E+03 0.  0.
          2    1    3    3  502    0  0.40908957383E+03 -0.81143176397E+02  0.25026615845E+02  0.41780955709E+03  0.00000000000E+00 0. -1.
         -1    1    3    3    0  502  0.26736389344E+03 -0.35477527042E+02 -0.46422590371E+02  0.27367346114E+03  0.00000000000E+00 0.  1.
         13    1    5    5    0    0 -0.46510642627E+03 -0.16421603602E+03  0.28266796409E+04  0.28693916927E+04  0.00000000000E+00 0. -1.
        -13    1    5    5    0    0 -0.40033554660E+01 -0.94264436462E+01  0.17992754637E+02  0.20703234390E+02  0.00000000000E+00 0.  1.
          4    1    6    6  503    0 -0.17666097384E+03  0.18595426374E+03  0.33239322840E+03  0.41984919456E+03  0.00000000000E+00 0. -1.
         -4    1    6    6    0  503 -0.30682711699E+02  0.10430891937E+03  0.72596543171E+02  0.13073651953E+03  0.00000000000E+00 0.  1.
<mgrwt>
<rscale>  0 0.25793553E+04</rscale>
<asrwt>0</asrwt>
<pdfrwt beam="1">  1        2 0.56618689E+00 0.25793553E+04</pdfrwt>
<pdfrwt beam="2">  1       -1 0.69530577E-01 0.25793553E+04</pdfrwt>
<totfact> 0.12740144E+00</totfact>
</mgrwt>
</event>
<event>
11    7  0.1497947E-008  0.1841110E+04  0.7818608E-02  0.8684738E-01
         -3   -1    0    0    0  501 -0.00000000000E+00  0.00000000000E+00  0.60969333031E+03  0.60969333031E+03  0.00000000000E+00 0.  1.
          2   -1    0    0  501    0  0.00000000000E+00 -0.00000000000E+00 -0.13899147081E+04  0.13899147081E+04  0.00000000000E+00 0. -1.
         24    2    1    2    0    0 -0.16695283257E+03 -0.76205682166E+02 -0.10222569303E+04  0.10419648898E+04  0.83672251867E+02 0.  0.
        254    2    1    2    0    0  0.16695283257E+03  0.76205682166E+02  0.24203555253E+03  0.95764314859E+03  0.90819526373E+03 0.  0.
         23    2    4    4    0    0 -0.78378194979E+02  0.11180304298E+02  0.52109326898E+03  0.53614951361E+03  0.98234236958E+02 0.  0.
          2    1    3    3  502    0 -0.67422486033E+02 -0.70753658556E+02 -0.61309753628E+03  0.62083851428E+03  0.00000000000E+00 0. -1.
         -1    1    3    3    0  502 -0.99530346538E+02 -0.54520236098E+01 -0.40915939403E+03  0.42112637553E+03  0.00000000000E+00 0.  1.
         13    1    5    5    0    0 -0.23584031635E+02  0.52026323484E+02  0.20938407919E+03  0.21703602812E+03  0.00000000000E+00 0. -1.
        -13    1    5    5    0    0 -0.54794163344E+02 -0.40846019186E+02  0.31170918979E+03  0.31911348549E+03  0.00000000000E+00 0.  1.
          3    1    4    4  503    0 -0.89263456256E+01  0.28343562518E+02  0.13085235507E+02  0.32469378970E+02  0.00000000000E+00 0. -1.
         -3    1    4    4    0  503  0.25425737318E+03  0.36681815350E+02 -0.29214295196E+03  0.38902425602E+03  0.00000000000E+00 0.  1.
<mgrwt>
<rscale>  0 0.18411102E+04</rscale>
<asrwt>0</asrwt>
<pdfrwt beam="1">  1        2 0.21383303E+00 0.18411102E+04</pdfrwt>
<pdfrwt beam="2">  1       -3 0.93798975E-01 0.18411102E+04</pdfrwt>
<totfact> 0.89008597E+00</totfact>
</mgrwt>
</event>
<event>
12    7  0.1497947E-008  0.1678464E+04  0.7818608E-02  0.8773743E-01
          2   -1    0    0  501    0  0.00000000000E+00  0.00000000000E+00  0.11139312935E+04  0.11139312935E+04  0.00000000000E+00 0. -1.
         -1   -1    0    0    0  501 -0.00000000000E+00 -0.00000000000E+00 -0.63227474295E+03  0.63227474295E+03  0.00000000000E+00 0.  1.
         24    2    1    2    0    0  0.16335701469E+03 -0.44817536525E+03 -0.22267483970E+03  0.53244258446E+03  0.79776871620E+02 0.  0.
        254    2    1    2    0    0 -0.16335701469E+03  0.44817536525E+03  0.70433139022E+03  0.12137634519E+04  0.86579000789E+03 0.  0.
         23    2    4    4    0    0 -0.12047944312E+03  0.23077249981E+03  0.87249503376E+03  0.91501624147E+03  0.90751833831E+02 0.  0.
         23    2    4    4    0    0 -0.42877571573E+02  0.21740286545E+03 -0.16816364354E+03  0.29874721048E+03  0.10894215306E+03 0.  0.
          4    1    3    3  502    0  0.63556626683E+02 -0.12987056708E+03 -0.31565676986E+02  0.14799392201E+03  0.00000000000E+00 0. -1.
         -3    1    3    3    0  502  0.99800388008E+02 -0.31830479817E+03 -0.19110916272E+03  0.38444866245E+03  0.00000000000E+00 0.  1.
         13    1    5    5    0    0 -0.25693658805E+02  0.71300983061E+02  0.40551450754E+03  0.41253607129E+03  0.00000000000E+00 0. -1.
        -13    1    5    5    0    0 -0.94785784313E+02  0.15947151675E+03  0.46698052621E+03  0.50248017018E+03  0.00000000000E+00 0.  1.
          3    1    6    6  503    0 -0.29540564938E+02  0.21231444227E+03 -0.18022777270E+03  0.28005734667E+03  0.00000000000E+00 0. -1.
         -3    1    6    6    0  503 -0.13337006635E+02  0.50884231766E+01  0.12064129167E+02  0.18689863803E+02  0.00000000000E+00 0.  1.
<mgrwt>
<rscale>  0 0.16784643E+04</rscale>
<asrwt>0</asrwt>
<pdfrwt beam="1">  1        2 0.17137405E+00 0.16784643E+04</pdfrwt>
<pdfrwt beam="2">  1       -1 0.97273037E-01 0.16784643E+04</pdfrwt>
<totfact> 0.23574190E+01</totfact>
</mgrwt>
</event>
<event>
12    7  0.1497947E-008  0.1658081E+04  0.7818608E-02  0.8785640E-01
         -1   -1    0    0    0  501 -0.00000000000E+00  0.00000000000E+00  0.12352381091E+04  0.12352381091E+04  0.00000000000E+00 0.  1.
          2   -1    0    0  501    0  0.00000000000E+00 -0.00000000000E+00 -0.55641739196E+03  0.55641739196E+03  0.00000000000E+00 0. -1.
         24    2    1    2    0    0  0.15450244504E+03 -0.43853358791E+03 -0.13849446924E+03  0.49117775087E+03  0.76760352346E+02 0.  0.
        254    2    1    2    0    0 -0.15450244504E+03  0.43853358791E+03  0.81731518633E+03  0.13004777501E+04  0.89836270602E+03 0.  0.
         23    2    4    4    0    0  0.66886839416E+02  0.34081119793E+03  0.94837924378E+03  0.10142944812E+04  0.93509265157E+02 0.  0.
         23    2    4    4    0    0 -0.22138928446E+03  0.97722389983E+02 -0.13106405746E+03  0.28618326893E+03  0.78486912803E+02 0.  0.
          2    1    3    3  502    0  0.16000929303E+01 -0.66278434109E+02 -0.37882522137E+02  0.76357557641E+02  0.00000000000E+00 0. -1.
         -1    1    3    3    0  502  0.15290235211E+03 -0.37225515380E+03 -0.10061194710E+03  0.41482019323E+03  0.00000000000E+00 0.  1.
         13    1    5    5    0    0  0.83370453405E+01  0.24884176663E+03  0.70286681854E+03  0.74566312485E+03  0.00000000000E+00 0.  1.
        -13    1    5    5    0    0  0.58549794075E+02  0.91969431296E+02  0.24551242524E+03  0.26863135637E+03  0.00000000000E+00 0. -1.
          2    1    6    6  503    0 -0.68816180320E+00 -0.61200159146E+01  0.40296534183E+01  0.73597736469E+01  0.00000000000E+00 0. -1.
         -2    1    6    6    0  503 -0.22070112265E+03  0.10384240590E+03 -0.13509371087E+03  0.27882349528E+03  0.00000000000E+00 0.  1.
<mgrwt>
<rscale>  0 0.16580808E+04</rscale>
<asrwt>0</asrwt>
<pdfrwt beam="1">  1        2 0.85602676E-01 0.16580808E+04</pdfrwt>
<pdfrwt beam="2">  1       -1 0.19003663E+00 0.16580808E+04</pdfrwt>
<totfact> 0.10458440E+01</totfact>
</mgrwt>
</event>
<event>
11    7  0.1497947E-008  0.1414890E+04  0.7818608E-02  0.8943110E-01
         -1   -1    0    0    0  501 -0.00000000000E+00  0.00000000000E+00  0.42402807722E+03  0.42402807722E+03  0.00000000000E+00 0.  1.
          2   -1    0    0  501    0  0.00000000000E+00 -0.00000000000E+00 -0.11802957906E+04  0.11802957906E+04  0.00000000000E+00 0. -1.
         24    2    1    2    0    0 -0.11001895430E+03 -0.39577172771E+03 -0.19022722981E+03  0.45999001337E+03  0.81639345160E+02 0.  0.
        254    2    1    2    0    0  0.11001895430E+03  0.39577172771E+03 -0.56604048361E+03  0.11443338545E+04  0.90573655701E+03 0.  0.
         23    2    4    4    0    0 -0.61908735892E+02 -0.25885851068E+03 -0.16355957896E+03  0.32666454570E+03  0.95485964507E+02 0.  0.
          2    1    3    3  502    0 -0.19999759722E+02 -0.18700993966E+02 -0.29715724284E+02  0.40407200274E+02  0.00000000000E+00 0. -1.
         -1    1    3    3    0  502 -0.90019194576E+02 -0.37707073374E+03 -0.16051150553E+03  0.41958281310E+03  0.00000000000E+00 0.  1.
         13    1    5    5    0    0 -0.51161885768E+02 -0.21799342419E+03 -0.88983484150E+02  0.24094964619E+03  0.00000000000E+00 0.  1.
        -13    1    5    5    0    0 -0.10746850124E+02 -0.40865086483E+02 -0.74576094812E+02  0.85714899511E+02  0.00000000000E+00 0. -1.
          1    1    4    4  503    0  0.12712680028E+02  0.31903425442E+02  0.27799346388E+02  0.44184210393E+02  0.00000000000E+00 0. -1.
         -1    1    4    4    0  503  0.15921501016E+03  0.62272681294E+03 -0.43028025103E+03  0.77348509840E+03  0.00000000000E+00 0.  1.
<mgrwt>
<rscale>  0 0.14148902E+04</rscale>
<asrwt>0</asrwt>
<pdfrwt beam="1">  1        2 0.18158396E+00 0.14148902E+04</pdfrwt>
<pdfrwt beam="2">  1       -1 0.65235090E-01 0.14148902E+04</pdfrwt>
<totfact> 0.51407236E+01</totfact>
</mgrwt>
</event>
<event>
11    7  0.1497947E-008  0.3236973E+04  0.7818608E-02  0.8179120E-01
          2   -1    0    0  501    0  0.00000000000E+00  0.00000000000E+00  0.17444893134E+04  0.17444893134E+04  0.00000000000E+00 0. -1.
         -1   -1    0    0    0  501 -0.00000000000E+00 -0.00000000000E+00 -0.15015850888E+04  0.15015850888E+04  0.00000000000E+00 0.  1.
         24    2    1    2    0    0 -0.17430890520E+03 -0.29549333755E+03  0.15648290916E+04  0.16040496468E+04  0.81149716637E+02 0.  0.
        254    2    1    2    0    0  0.17430890520E+03  0.29549333755E+03 -0.13219248669E+04  0.16420247554E+04  0.91162494299E+03 0.  0.
         23    2    4    4    0    0 -0.12095410391E+02  0.57513474366E+03 -0.62708991834E+03  0.85602266437E+03  0.92772646319E+02 0.  0.
          4    1    3    3  502    0 -0.18300276343E+03 -0.28641971092E+03  0.15151624971E+04  0.15528179722E+04  0.00000000000E+00 0. -1.
         -3    1    3    3    0  502  0.86938582287E+01 -0.90736266263E+01  0.49666594503E+02  0.51231674583E+02  0.00000000000E+00 0.  1.
         13    1    5    5    0    0  0.14566108412E+02  0.49867088196E+03 -0.56669715977E+03  0.75500363636E+03  0.00000000000E+00 0. -1.
        -13    1    5    5    0    0 -0.26661518803E+02  0.76463861699E+02 -0.60392758574E+02  0.10101902800E+03  0.00000000000E+00 0.  1.
          2    1    4    4  503    0  0.62295247431E+02 -0.22202192630E+03 -0.43551661067E+03  0.49279727249E+03  0.00000000000E+00 0. -1.
         -2    1    4    4    0  503  0.12410906816E+03 -0.57619479816E+02 -0.25931833790E+03  0.29320481855E+03  0.00000000000E+00 0.  1.
<mgrwt>
<rscale>  0 0.32369734E+04</rscale>
<asrwt>0</asrwt>
<pdfrwt beam="1">  1        2 0.26838297E+00 0.32369734E+04</pdfrwt>
<pdfrwt beam="2">  1       -1 0.23101309E+00 0.32369734E+04</pdfrwt>
<totfact> 0.82258522E-01</totfact>
</mgrwt>
</event>
<event>
11    7  0.1497947E-008  0.1854802E+04  0.7818608E-02  0.8677687E-01
         -1   -1    0    0    0  501 -0.00000000000E+00  0.00000000000E+00  0.18512153502E+03  0.18512153502E+03  0.00000000000E+00 0.  1.
          2   -1    0    0  501    0  0.00000000000E+00 -0.00000000000E+00 -0.46459875545E+04  0.46459875545E+04  0.00000000000E+00 0. -1.
         24    2    1    2    0    0 -0.28690759660E+03  0.54035573659E+02 -0.32944248126E+02  0.30361267298E+03  0.76547498345E+02 0.  0.
        254    2    1    2    0    0  0.28690759660E+03 -0.54035573659E+02 -0.44279217714E+04  0.45274964165E+04  0.89805165573E+03 0.  0.
         23    2    4    4    0    0 -0.20847891881E+03  0.12149614418E+03 -0.21295991783E+04  0.21453152344E+04  0.94657393259E+02 0.  0.
          4    1    3    3  502    0 -0.17351112934E+02  0.25376761560E+02 -0.29582165359E+01  0.30883526231E+02  0.00000000000E+00 0. -1.
         -3    1    3    3    0  502 -0.26955648366E+03  0.28658812098E+02 -0.29986031590E+02  0.27272914675E+03  0.00000000000E+00 0.  1.
         13    1    5    5    0    0 -0.18774787642E+03  0.12893431699E+03 -0.17049548451E+04  0.17201000979E+04  0.00000000000E+00 0. -1.
        -13    1    5    5    0    0 -0.20731042389E+02 -0.74381728115E+01 -0.42464433318E+03  0.42521513641E+03  0.00000000000E+00 0.  1.
          2    1    4    4  503    0  0.50268472272E+03 -0.16944879894E+03 -0.16373253706E+04  0.17211156833E+04  0.00000000000E+00 0. -1.
         -2    1    4    4    0  503 -0.72982073100E+01 -0.60829188959E+01 -0.66099722250E+03  0.66106549893E+03  0.00000000000E+00 0.  1.
<mgrwt>
<rscale>  0 0.18548017E+04</rscale>
<asrwt>0</asrwt>
<pdfrwt beam="1">  1        2 0.71476726E+00 0.18548017E+04</pdfrwt>
<pdfrwt beam="2">  1       -1 0.28480238E-01 0.18548017E+04</pdfrwt>
<totfact> 0.10721115E+00</totfact>
</mgrwt>
</event>
<event>
12    7  0.1497947E-008  0.1352699E+04  0.7818608E-02  0.8988788E-01
         -1   -1    0    0    0  501 -0.00000000000E+00  0.00000000000E+00  0.58058912078E+03  0.58058912078E+03  0.00000000000E+00 0.  1.
          2   -1    0    0  501    0  0.00000000000E+00 -0.00000000000E+00 -0.78790419461E+03  0.78790419461E+03  0.00000000000E+00 0. -1.
         24    2    1    2    0    0 -0.31009465307E+03  0.18649260991E+03 -0.13772975760E+03  0.39539910082E+03  0.80204584598E+02 0.  0.
        254    2    1    2    0    0  0.31009465307E+03 -0.18649260991E+03 -0.69585316235E+02  0.97309421457E+03  0.90062869529E+03 0.  0.
         23    2    4    4    0    0  0.50036763845E+03 -0.29587961540E+03 -0.28646967662E+03  0.65471336941E+03  0.93124647902E+02 0.  0.
         23    2    4    4    0    0 -0.19027298538E+03  0.10938700549E+03  0.21688436038E+03  0.31838084516E+03  0.78474268708E+02 0.  0.
          4    1    3    3  502    0 -0.17094960321E+02  0.21292203736E+02 -0.33580765640E+02  0.43281213353E+02  0.00000000000E+00 0. -1.
         -3    1    3    3    0  502 -0.29299969275E+03  0.16520040618E+03 -0.10414899196E+03  0.35211788747E+03  0.00000000000E+00 0.  1.
         13    1    5    5    0    0  0.31239518454E+03 -0.22083903667E+03 -0.22189305733E+03  0.44226367738E+03  0.00000000000E+00 0.  1.
        -13    1    5    5    0    0  0.18797245391E+03 -0.75040578738E+02 -0.64576619289E+02  0.21244969203E+03  0.00000000000E+00 0. -1.
          1    1    6    6  503    0 -0.16653560823E+03  0.76819809023E+02  0.13704489062E+03  0.22894692379E+03  0.00000000000E+00 0. -1.
         -1    1    6    6    0  503 -0.23737377153E+02  0.32567196467E+02  0.79839469765E+02  0.89433921373E+02  0.00000000000E+00 0.  1.
<mgrwt>
<rscale>  0 0.13526989E+04</rscale>
<asrwt>0</asrwt>
<pdfrwt beam="1">  1        2 0.12121603E+00 0.13526989E+04</pdfrwt>
<pdfrwt beam="2">  1       -1 0.89321403E-01 0.13526989E+04</pdfrwt>
<totfact> 0.48163704E+01</totfact>
</mgrwt>
</event>
<event>
12    7  0.1497947E-008  0.1393639E+04  0.7818608E-02  0.8958436E-01
          2   -1    0    0  501    0  0.00000000000E+00  0.00000000000E+00  0.15427284524E+04  0.15427284524E+04  0.00000000000E+00 0. -1.
         -1   -1    0    0    0  501 -0.00000000000E+00 -0.00000000000E+00 -0.31473931996E+03  0.31473931996E+03  0.00000000000E+00 0.  1.
         24    2    1    2    0    0  0.18220529588E+02  0.82938218630E+02 -0.15946564303E+03  0.19734226606E+03  0.79397373112E+02 0.  0.
        254    2    1    2    0    0 -0.18220529588E+02 -0.82938218630E+02  0.13874547754E+04  0.16601255063E+04  0.90762062938E+03 0.  0.
         23    2    4    4    0    0  0.36005451981E+03 -0.87135247895E+01  0.11328553287E+04  0.11921606321E+04  0.90391339276E+02 0.  0.
         23    2    4    4    0    0 -0.37827504940E+03 -0.74224693841E+02  0.25459944678E+03  0.46796487421E+03  0.74625243856E+02 0.  0.
          4    1    3    3  502    0  0.17886205063E+02  0.11817184615E+02  0.13720943904E+01  0.21481266881E+02  0.00000000000E+00 0. -1.
         -3    1    3    3    0  502  0.33432452565E+00  0.71121034015E+02 -0.16083773742E+03  0.17586099918E+03  0.00000000000E+00 0.  1.
         13    1    5    5    0    0  0.88850012352E+02  0.85921400935E+01  0.41725757267E+03  0.42669899404E+03  0.00000000000E+00 0. -1.
        -13    1    5    5    0    0  0.27120450746E+03 -0.17305664883E+02  0.71559775599E+03  0.76546163802E+03  0.00000000000E+00 0.  1.
          4    1    6    6  503    0 -0.28154164173E+03 -0.75400669702E+02  0.15924375811E+03  0.33212878754E+03  0.00000000000E+00 0. -1.
         -4    1    6    6    0  503 -0.96733407667E+02  0.11759758616E+01  0.95355688672E+02  0.13583608666E+03  0.00000000000E+00 0.  1.
<mgrwt>
<rscale>  0 0.13936388E+04</rscale>
<asrwt>0</asrwt>
<pdfrwt beam="1">  1        2 0.23734284E+00 0.13936388E+04</pdfrwt>
<pdfrwt beam="2">  1       -1 0.48421435E-01 0.13936388E+04</pdfrwt>
<totfact> 0.56835755E+01</totfact>
</mgrwt>
</event>
<event>
12    7  0.1497947E-008  0.2048294E+04  0.7818608E-02  0.8584369E-01
         -1   -1    0    0    0  501 -0.00000000000E+00  0.00000000000E+00  0.99706258412E+03  0.99706258412E+03  0.00000000000E+00 0.  1.
          2   -1    0    0  501    0  0.00000000000E+00 -0.00000000000E+00 -0.10519671711E+04  0.10519671711E+04  0.00000000000E+00 0. -1.
         24    2    1    2    0    0 -0.47762981496E+03  0.12041297979E+03  0.63914954767E+03  0.81077291891E+03  0.78810252650E+02 0.  0.
        254    2    1    2    0    0  0.47762981496E+03 -0.12041297979E+03 -0.69405413463E+03  0.12382568363E+04  0.89941054307E+03 0.  0.
         23    2    4    4    0    0  0.72393434696E+03 -0.70594061088E+02 -0.60715526435E+03  0.95185481812E+03  0.91244833161E+02 0.  0.
         23    2    4    4    0    0 -0.24630453200E+03 -0.49818918700E+02 -0.86898870276E+02  0.28640201816E+03  0.10642769944E+03 0.  0.
          2    1    3    3  502    0 -0.36588154610E+03  0.10486589652E+03  0.43907499979E+03  0.58107918348E+03  0.00000000000E+00 0. -1.
         -1    1    3    3    0  502 -0.11174826886E+03  0.15547083264E+02  0.20007454787E+03  0.22969373544E+03  0.00000000000E+00 0.  1.
         13    1    5    5    0    0 -0.15417765119E+01 -0.15084617542E+01  0.12695349650E+01  0.25028485180E+01  0.00000000000E+00 0. -1.
        -13    1    5    5    0    0  0.72547612347E+03 -0.69085599333E+02 -0.60842479932E+03  0.94935196960E+03  0.00000000000E+00 0.  1.
          4    1    6    6  503    0 -0.25393011060E+03 -0.48193903106E+02 -0.94801392936E+02  0.27530066739E+03  0.00000000000E+00 0.  1.
         -4    1    6    6    0  503  0.76255785935E+01 -0.16250155936E+01  0.79025226596E+01  0.11101350771E+02  0.00000000000E+00 0. -1.
<mgrwt>
<rscale>  0 0.20482940E+04</rscale>
<asrwt>0</asrwt>
<pdfrwt beam="1">  1        2 0.16184110E+00 0.20482940E+04</pdfrwt>
<pdfrwt beam="2">  1       -1 0.15339424E+00 0.20482940E+04</pdfrwt>
<totfact> 0.80896840E+00</totfact>
</mgrwt>
</event>
<event>
12    7  0.1497947E-008  0.2546041E+04  0.7818608E-02  0.8386764E-01
         -1   -1    0    0    0  501 -0.00000000000E+00  0.00000000000E+00  0.47905910579E+03  0.47905910579E+03  0.00000000000E+00 0.  1.
          2   -1    0    0  501    0  0.00000000000E+00 -0.00000000000E+00 -0.33828429601E+04  0.33828429601E+04  0.00000000000E+00 0. -1.
         24    2    1    2    0    0  0.17894367462E+03  0.17315016558E+03 -0.29162864942E+04  0.29279737423E+04  0.79381994349E+02 0.  0.
        254    2    1    2    0    0 -0.17894367462E+03 -0.17315016558E+03  0.12502639833E+02  0.93392832362E+03  0.90003554326E+03 0.  0.
         23    2    4    4    0    0 -0.28388381759E+03 -0.48162734980E+03  0.10725551084E+03  0.57675675194E+03  0.92680528343E+02 0.  0.
         23    2    4    4    0    0  0.10494014297E+03  0.30847718422E+03 -0.94752871004E+02  0.35717157168E+03  0.11145769717E+03 0.  0.
          2    1    3    3  502    0  0.14047778410E+03  0.17247865191E+03 -0.24233029423E+04  0.24334913280E+04  0.00000000000E+00 0. -1.
         -3    1    3    3    0  502  0.38465890517E+02  0.67151367302E+00 -0.49298355186E+03  0.49448241431E+03  0.00000000000E+00 0.  1.
         13    1    5    5    0    0 -0.26749838349E+03 -0.46117598945E+03  0.80284893442E+02  0.53915150239E+03  0.00000000000E+00 0. -1.
        -13    1    5    5    0    0 -0.16385434099E+02 -0.20451360354E+02  0.26970617395E+02  0.37605249549E+02  0.00000000000E+00 0.  1.
          4    1    6    6  503    0  0.12334682052E+03  0.29828768255E+03 -0.93686074677E+02  0.33610572783E+03  0.00000000000E+00 0. -1.
         -4    1    6    6    0  503 -0.18406677545E+02  0.10189501677E+02 -0.10667963276E+01  0.21065843850E+02  0.00000000000E+00 0.  1.
<mgrwt>
<rscale>  0 0.25460414E+04</rscale>
<asrwt>0</asrwt>
<pdfrwt beam="1">  1        2 0.52043736E+00 0.25460414E+04</pdfrwt>
<pdfrwt beam="2">  1       -1 0.73701403E-01 0.25460414E+04</pdfrwt>
<totfact> 0.18363501E+00</totfact>
</mgrwt>
</event>
<event>
12    7  0.1497947E-008  0.2334538E+04  0.7818608E-02  0.8464427E-01
          2   -1    0    0  501    0  0.00000000000E+00  0.00000000000E+00  0.92553439840E+03  0.92553439840E+03  0.00000000000E+00 0. -1.
         -1   -1    0    0    0  501 -0.00000000000E+00 -0.00000000000E+00 -0.14721404895E+04  0.14721404895E+04  0.00000000000E+00 0.  1.
         24    2    1    2    0    0  0.92280030485E+03  0.32109457793E+03 -0.87681249768E+02  0.98368069425E+03  0.72646927555E+02 0.  0.
        254    2    1    2    0    0 -0.92280030485E+03 -0.32109457793E+03 -0.45892484132E+03  0.14139941936E+04  0.91329373098E+03 0.  0.
         23    2    4    4    0    0 -0.46166828372E+03 -0.28787811046E+03  0.21256195246E+03  0.59177041204E+03  0.94858980917E+02 0.  0.
         23    2    4    4    0    0 -0.46113202113E+03 -0.33216467465E+02 -0.67148679377E+03  0.82222378160E+03  0.10682395885E+03 0.  0.
          2    1    3    3  502    0  0.64991816527E+03  0.20368225896E+03 -0.35081043768E+02  0.68199029597E+03  0.00000000000E+00 0. -1.
         -1    1    3    3    0  502  0.27288213957E+03  0.11741231896E+03 -0.52600206001E+02  0.30169039828E+03  0.00000000000E+00 0.  1.
         13    1    5    5    0    0 -0.42690787442E+02 -0.44797834992E+02  0.53890006900E+02  0.82057797899E+02  0.00000000000E+00 0.  1.
        -13    1    5    5    0    0 -0.41897749627E+03 -0.24308027547E+03  0.15867194555E+03  0.50971261414E+03  0.00000000000E+00 0. -1.
          4    1    6    6  503    0 -0.45646260170E+03 -0.27540358065E+02 -0.67397118684E+03  0.81446530851E+03  0.00000000000E+00 0. -1.
         -4    1    6    6    0  503 -0.46694194317E+01 -0.56761094000E+01  0.24843930657E+01  0.77584730878E+01  0.00000000000E+00 0.  1.
<mgrwt>
<rscale>  0 0.23345378E+04</rscale>
<asrwt>0</asrwt>
<pdfrwt beam="1">  1        2 0.14238991E+00 0.23345378E+04</pdfrwt>
<pdfrwt beam="2">  1       -1 0.22648315E+00 0.23345378E+04</pdfrwt>
<totfact> 0.28944158E+00</totfact>
</mgrwt>
</event>
<event>
12    7  0.1497947E-008  0.1731611E+04  0.7818608E-02  0.8743538E-01
         -1   -1    0    0    0  501 -0.00000000000E+00  0.00000000000E+00  0.14620229231E+04  0.14620229231E+04  0.00000000000E+00 0.  1.
          2   -1    0    0  501    0  0.00000000000E+00 -0.00000000000E+00 -0.51272750272E+03  0.51272750272E+03  0.00000000000E+00 0. -1.
         24    2    1    2    0    0  0.24799161475E+03  0.15024246214E+03 -0.29066013668E+03  0.41792399351E+03  0.78131369351E+02 0.  0.
        254    2    1    2    0    0 -0.24799161475E+03 -0.15024246214E+03  0.12399555570E+04  0.15568264323E+04  0.89562610416E+03 0.  0.
         23    2    4    4    0    0 -0.55244100495E+03 -0.18307498540E+03  0.60865563665E+03  0.84706106161E+03  0.91341358843E+02 0.  0.
         23    2    4    4    0    0  0.30444939020E+03  0.32832523262E+02  0.63129992036E+03  0.70976537066E+03  0.10705085788E+03 0.  0.
          4    1    3    3  502    0  0.20954997901E+03  0.14915082201E+03 -0.22453053011E+03  0.34142513141E+03  0.00000000000E+00 0. -1.
         -3    1    3    3    0  502  0.38441635750E+02  0.10916401292E+01 -0.66129606563E+02  0.76498862092E+02  0.00000000000E+00 0.  1.
         13    1    5    5    0    0 -0.34845140407E+03 -0.14036001569E+03  0.33698955522E+03  0.50465956380E+03  0.00000000000E+00 0. -1.
        -13    1    5    5    0    0 -0.20398960088E+03 -0.42714969717E+02  0.27166608143E+03  0.34240149781E+03  0.00000000000E+00 0.  1.
          2    1    6    6  503    0  0.27049969356E+03  0.59630338937E+02  0.50099728836E+03  0.57247195956E+03  0.00000000000E+00 0. -1.
         -2    1    6    6    0  503  0.33949696636E+02 -0.26797815675E+02  0.13030263200E+03  0.13729341110E+03  0.00000000000E+00 0.  1.
<mgrwt>
<rscale>  0 0.17316112E+04</rscale>
<asrwt>0</asrwt>
<pdfrwt beam="1">  1        2 0.78881155E-01 0.17316112E+04</pdfrwt>
<pdfrwt beam="2">  1       -1 0.22492660E+00 0.17316112E+04</pdfrwt>
<totfact> 0.66167292E+00</totfact>
</mgrwt>
</event>
<event>
11    7  0.1497947E-008  0.1459291E+04  0.7818608E-02  0.8911984E-01
         -1   -1    0    0    0  501 -0.00000000000E+00  0.00000000000E+00  0.45728133527E+03  0.45728133527E+03  0.00000000000E+00 0.  1.
          2   -1    0    0  501    0  0.00000000000E+00 -0.00000000000E+00 -0.11642345114E+04  0.11642345114E+04  0.00000000000E+00 0. -1.
         24    2    1    2    0    0  0.13920862913E+02  0.44839842623E+03 -0.17448636281E+03  0.48787959580E+03  0.79536596116E+02 0.  0.
        254    2    1    2    0    0 -0.13920862913E+02 -0.44839842623E+03 -0.53246681331E+03  0.11336362509E+04  0.89462578933E+03 0.  0.
         23    2    4    4    0    0 -0.22787377896E+03  0.19016893014E+03 -0.20299016664E+03  0.37163677324E+03  0.93905283877E+02 0.  0.
          4    1    3    3  502    0  0.38075701232E+02  0.11337016104E+03 -0.50749917625E+02  0.12991576724E+03  0.00000000000E+00 0. -1.
         -3    1    3    3    0  502 -0.24154838320E+02  0.33502826519E+03 -0.12373644519E+03  0.35796382856E+03  0.00000000000E+00 0.  1.
         13    1    5    5    0    0  0.33254761981E+00 -0.35985583840E+00  0.74115498146E+01  0.74277287779E+01  0.00000000000E+00 0.  1.
        -13    1    5    5    0    0 -0.22820632658E+03  0.19052878598E+03 -0.21040171646E+03  0.36420904446E+03  0.00000000000E+00 0. -1.
          2    1    4    4  503    0  0.15562056939E+03 -0.57127285604E+03 -0.25025361422E+03  0.64280425411E+03  0.00000000000E+00 0. -1.
         -2    1    4    4    0  503  0.58332346652E+02 -0.67294500331E+02 -0.79223032452E+02  0.11919522353E+03  0.00000000000E+00 0.  1.
<mgrwt>
<rscale>  0 0.14592912E+04</rscale>
<asrwt>0</asrwt>
<pdfrwt beam="1">  1        2 0.17911300E+00 0.14592912E+04</pdfrwt>
<pdfrwt beam="2">  1       -1 0.70350974E-01 0.14592912E+04</pdfrwt>
<totfact> 0.44920790E+01</totfact>
</mgrwt>
</event>
<event>
12    7  0.1497947E-008  0.1380241E+04  0.7818608E-02  0.8968247E-01
          2   -1    0    0  501    0  0.00000000000E+00  0.00000000000E+00  0.37258425059E+04  0.37258425059E+04  0.00000000000E+00 0. -1.
         -1   -1    0    0    0  501 -0.00000000000E+00 -0.00000000000E+00 -0.12782773072E+03  0.12782773072E+03  0.00000000000E+00 0.  1.
         24    2    1    2    0    0 -0.68771696958E+01  0.13592687436E+03  0.20346463679E+04  0.20407626194E+04  0.80017594498E+02 0.  0.
        254    2    1    2    0    0  0.68771696958E+01 -0.13592687436E+03  0.15633684073E+04  0.18129076173E+04  0.90773886185E+03 0.  0.
         23    2    4    4    0    0  0.12405695000E+03 -0.45341821397E+03  0.12496853407E+04  0.13383367606E+04  0.91943626472E+02 0.  0.
         23    2    4    4    0    0 -0.11717978030E+03  0.31749133961E+03  0.31368306661E+03  0.47457085671E+03  0.11085386833E+03 0.  0.
          2    1    3    3  502    0 -0.10796260139E+02  0.12522558577E+03  0.20059818395E+04  0.20099157064E+04  0.00000000000E+00 0. -1.
         -1    1    3    3    0  502  0.39190904428E+01  0.10701288590E+02  0.28664528457E+02  0.30846912958E+02  0.00000000000E+00 0.  1.
         13    1    5    5    0    0  0.50316165069E+02 -0.33968011524E+03  0.90490039704E+03  0.96786312344E+03  0.00000000000E+00 0.  1.
        -13    1    5    5    0    0  0.73740784926E+02 -0.11373809872E+03  0.34478494363E+03  0.37047363714E+03  0.00000000000E+00 0. -1.
          1    1    6    6  503    0 -0.93555152732E+02  0.21456247249E+03  0.14434036608E+03  0.27499774996E+03  0.00000000000E+00 0. -1.
         -1    1    6    6    0  503 -0.23624627568E+02  0.10292886712E+03  0.16934270054E+03  0.19957310676E+03  0.00000000000E+00 0.  1.
<mgrwt>
<rscale>  0 0.13802405E+04</rscale>
<asrwt>0</asrwt>
<pdfrwt beam="1">  1        2 0.57320646E+00 0.13802405E+04</pdfrwt>
<pdfrwt beam="2">  1       -1 0.19665808E-01 0.13802405E+04</pdfrwt>
<totfact> 0.13341652E+01</totfact>
</mgrwt>
</event>
<event>
11    7  0.1497947E-008  0.1696037E+04  0.7818608E-02  0.8763628E-01
         -1   -1    0    0    0  501 -0.00000000000E+00  0.00000000000E+00  0.35944949470E+03  0.35944949470E+03  0.00000000000E+00 0.  1.
          2   -1    0    0  501    0  0.00000000000E+00 -0.00000000000E+00 -0.20006585012E+04  0.20006585012E+04  0.00000000000E+00 0. -1.
         24    2    1    2    0    0 -0.10217832834E+03  0.41386871663E+03 -0.11924885029E+04  0.12690122445E+04  0.81458712386E+02 0.  0.
        254    2    1    2    0    0  0.10217832834E+03 -0.41386871663E+03 -0.44872050356E+03  0.10910957513E+04  0.89856114031E+03 0.  0.
         23    2    4    4    0    0  0.27526948631E+03 -0.14182224281E+03 -0.63701621163E+03  0.71391191227E+03  0.89407639282E+02 0.  0.
          4    1    3    3  502    0 -0.10035062965E+03  0.41642300958E+03 -0.11633010306E+04  0.12396562667E+04  0.00000000000E+00 0. -1.
         -3    1    3    3    0  502 -0.18276986852E+01 -0.25542929440E+01 -0.29187472289E+02  0.29355977816E+02  0.00000000000E+00 0.  1.
         13    1    5    5    0    0  0.25902493326E+03 -0.14308519210E+03 -0.54210640696E+03  0.61761366947E+03  0.00000000000E+00 0.  1.
        -13    1    5    5    0    0  0.16244553042E+02  0.12629492923E+01 -0.94909804672E+02  0.96298242805E+02  0.00000000000E+00 0. -1.
          1    1    4    4  503    0 -0.72876397986E+02 -0.15313641405E+03  0.11749598392E+03  0.20631780566E+03  0.00000000000E+00 0. -1.
         -1    1    4    4    0  503 -0.10021475998E+03 -0.11891005977E+03  0.70799724145E+02  0.17086603340E+03  0.00000000000E+00 0.  1.
<mgrwt>
<rscale>  0 0.16960374E+04</rscale>
<asrwt>0</asrwt>
<pdfrwt beam="1">  1        2 0.30779362E+00 0.16960374E+04</pdfrwt>
<pdfrwt beam="2">  1       -1 0.55299922E-01 0.16960374E+04</pdfrwt>
<totfact> 0.23927989E+01</totfact>
</mgrwt>
</event>
<event>
11    7  0.1497947E-008  0.1147781E+04  0.7818608E-02  0.9159834E-01
         -1   -1    0    0    0  501 -0.00000000000E+00  0.00000000000E+00  0.94235007241E+02  0.94235007241E+02  0.00000000000E+00 0.  1.
          2   -1    0    0  501    0  0.00000000000E+00 -0.00000000000E+00 -0.34949858731E+04  0.34949858731E+04  0.00000000000E+00 0. -1.
         24    2    1    2    0    0 -0.11231847391E+03  0.17638691606E+03 -0.88932336622E+03  0.91715528347E+03  0.80931950131E+02 0.  0.
        254    2    1    2    0    0  0.11231847391E+03 -0.17638691606E+03 -0.25114274996E+04  0.26720655969E+04  0.88822220435E+03 0.  0.
         23    2    4    4    0    0 -0.12906151267E+02 -0.23816433218E+02  0.43810363814E+02  0.10520421587E+03  0.91732152641E+02 0.  0.
          4    1    3    3  502    0 -0.89063788151E+02  0.15700593122E+03 -0.84084071280E+03  0.85999786343E+03  0.00000000000E+00 0. -1.
         -3    1    3    3    0  502 -0.23254685759E+02  0.19380984843E+02 -0.48482653420E+02  0.57157420042E+02  0.00000000000E+00 0.  1.
         13    1    5    5    0    0  0.20025265813E+02 -0.10553930331E+02  0.61504242261E+02  0.65537535294E+02  0.00000000000E+00 0.  1.
        -13    1    5    5    0    0 -0.32931417080E+02 -0.13262502887E+02 -0.17693878446E+02  0.39666680579E+02  0.00000000000E+00 0. -1.
          2    1    4    4  503    0 -0.99748770613E+01 -0.72358881440E+02 -0.46302770978E+03  0.46875363030E+03  0.00000000000E+00 0. -1.
         -2    1    4    4    0  503  0.13519950224E+03 -0.80211601406E+02 -0.20922101537E+04  0.20981077507E+04  0.00000000000E+00 0.  1.
<mgrwt>
<rscale>  0 0.11477805E+04</rscale>
<asrwt>0</asrwt>
<pdfrwt beam="1">  1        2 0.53769009E+00 0.11477805E+04</pdfrwt>
<pdfrwt beam="2">  1       -1 0.14497694E-01 0.11477805E+04</pdfrwt>
<totfact> 0.33075339E+01</totfact>
</mgrwt>
</event>
<event>
12    7  0.1497947E-008  0.1346926E+04  0.7818608E-02  0.8993159E-01
         -1   -1    0    0    0  501 -0.00000000000E+00  0.00000000000E+00  0.71282480822E+03  0.71282480822E+03  0.00000000000E+00 0.  1.
          2   -1    0    0  501    0  0.00000000000E+00 -0.00000000000E+00 -0.63627432165E+03  0.63627432165E+03  0.00000000000E+00 0. -1.
         24    2    1    2    0    0  0.95594573907E+02  0.22593366385E+03 -0.24664192855E+03  0.35706074998E+03  0.80472325887E+02 0.  0.
        254    2    1    2    0    0 -0.95594573907E+02 -0.22593366385E+03  0.32319241512E+03  0.99203837990E+03  0.90526375547E+03 0.  0.
         23    2    4    4    0    0  0.15575027103E+03 -0.14725585340E+03  0.57424307374E+03  0.62009339438E+03  0.93905679910E+02 0.  0.
         23    2    4    4    0    0 -0.25134484494E+03 -0.78677810456E+02 -0.25105065862E+03  0.37194498552E+03  0.77150567882E+02 0.  0.
          2    1    3    3  502    0  0.38518663793E+02  0.12173657270E+03 -0.18046418138E+03  0.22106741359E+03  0.00000000000E+00 0. -1.
         -1    1    3    3    0  502  0.57075910114E+02  0.10419709115E+03 -0.66177747175E+02  0.13599333639E+03  0.00000000000E+00 0.  1.
         13    1    5    5    0    0 -0.77119877672E+01 -0.10882591479E+02  0.91894822504E+02  0.92857761957E+02  0.00000000000E+00 0.  1.
        -13    1    5    5    0    0  0.16346225880E+03 -0.13637326192E+03  0.48234825124E+03  0.52723563242E+03  0.00000000000E+00 0. -1.
          1    1    6    6  503    0 -0.95136047627E+02 -0.84310100735E+01 -0.49919352200E+02  0.10776776518E+03  0.00000000000E+00 0. -1.
         -1    1    6    6    0  503 -0.15620879731E+03 -0.70246800383E+02 -0.20113130642E+03  0.26417722033E+03  0.00000000000E+00 0.  1.
<mgrwt>
<rscale>  0 0.13469256E+04</rscale>
<asrwt>0</asrwt>
<pdfrwt beam="1">  1        2 0.97888357E-01 0.13469256E+04</pdfrwt>
<pdfrwt beam="2">  1       -1 0.10966536E+00 0.13469256E+04</pdfrwt>
<totfact> 0.39631080E+01</totfact>
</mgrwt>
</event>
<event>
12    7  0.1497947E-008  0.1406557E+04  0.7818608E-02  0.8949086E-01
          2   -1    0    0  501    0  0.00000000000E+00  0.00000000000E+00  0.20649647408E+04  0.20649647408E+04  0.00000000000E+00 0. -1.
         -1   -1    0    0    0  501 -0.00000000000E+00 -0.00000000000E+00 -0.23952001143E+03  0.23952001143E+03  0.00000000000E+00 0.  1.
         24    2    1    2    0    0  0.21081747224E+03  0.12377224902E+03  0.19679144385E+02  0.25772782343E+03  0.79200921798E+02 0.  0.
        254    2    1    2    0    0 -0.21081747224E+03 -0.12377224902E+03  0.18057655850E+04  0.20467569288E+04  0.93201985035E+03 0.  0.
         23    2    4    4    0    0 -0.30189510421E+03  0.14236616041E+02  0.10077146742E+03  0.33236980409E+03  0.94717806372E+02 0.  0.
         23    2    4    4    0    0  0.91077631968E+02 -0.13800886506E+03  0.17049941176E+04  0.17143871247E+04  0.69113606013E+02 0.  0.
          4    1    3    3  502    0  0.93432939460E+02  0.99583560743E+02  0.19052947037E+02  0.13787535870E+03  0.00000000000E+00 0. -1.
         -3    1    3    3    0  502  0.11738453278E+03  0.24188688278E+02  0.62619734873E+00  0.11985246473E+03  0.00000000000E+00 0.  1.
         13    1    5    5    0    0 -0.15865992684E+03  0.48160836223E+02  0.27963486816E+02  0.16814991860E+03  0.00000000000E+00 0.  1.
        -13    1    5    5    0    0 -0.14323517737E+03 -0.33924220182E+02  0.72807980603E+02  0.16421988549E+03  0.00000000000E+00 0. -1.
          2    1    6    6  503    0 -0.86457710099E+01  0.35569947378E+00  0.85425337247E+02  0.85862472142E+02  0.00000000000E+00 0. -1.
         -2    1    6    6    0  503  0.99723402978E+02 -0.13836456454E+03  0.16195687804E+04  0.16285246526E+04  0.00000000000E+00 0.  1.
<mgrwt>
<rscale>  0 0.14065566E+04</rscale>
<asrwt>0</asrwt>
<pdfrwt beam="1">  1        2 0.31768687E+00 0.14065566E+04</pdfrwt>
<pdfrwt beam="2">  1       -1 0.36849234E-01 0.14065566E+04</pdfrwt>
<totfact> 0.48213663E+01</totfact>
</mgrwt>
</event>
<event>
11    7  0.1497947E-008  0.1410151E+04  0.7818608E-02  0.8946503E-01
          2   -1    0    0  501    0  0.00000000000E+00  0.00000000000E+00  0.35203647337E+03  0.35203647337E+03  0.00000000000E+00 0. -1.
         -1   -1    0    0    0  501 -0.00000000000E+00 -0.00000000000E+00 -0.14121587049E+04  0.14121587049E+04  0.00000000000E+00 0.  1.
         24    2    1    2    0    0 -0.64880462624E+02  0.23865373630E+02 -0.82767435360E+03  0.83419587793E+03  0.77838914824E+02 0.  0.
        254    2    1    2    0    0  0.64880462624E+02 -0.23865373630E+02 -0.23244787791E+03  0.92999930032E+03  0.89782384250E+03 0.  0.
         23    2    4    4    0    0 -0.32358185865E+03  0.22261502744E+03 -0.52813993112E+02  0.40711891682E+03  0.93240682493E+02 0.  0.
          2    1    3    3  502    0 -0.18347166609E+02  0.48045798404E+02 -0.38183039446E+03  0.38527842841E+03  0.00000000000E+00 0. -1.
         -1    1    3    3    0  502 -0.46533296015E+02 -0.24180424773E+02 -0.44584395913E+03  0.44891744951E+03  0.00000000000E+00 0.  1.
         13    1    5    5    0    0 -0.32640255582E+03  0.20426506229E+03 -0.51897498810E+02  0.38853081538E+03  0.00000000000E+00 0. -1.
        -13    1    5    5    0    0  0.28206971603E+01  0.18349965148E+02 -0.91649430225E+00  0.18588101442E+02  0.00000000000E+00 0.  1.
          4    1    4    4  503    0  0.26596991332E+03 -0.25144299321E+03 -0.11145322145E+03  0.38260344247E+03  0.00000000000E+00 0. -1.
         -4    1    4    4    0  503  0.12249240796E+03  0.49625921353E+01 -0.68180663352E+02  0.14027694103E+03  0.00000000000E+00 0.  1.
<mgrwt>
<rscale>  0 0.14101509E+04</rscale>
<asrwt>0</asrwt>
<pdfrwt beam="1">  1        2 0.54159458E-01 0.14101509E+04</pdfrwt>
<pdfrwt beam="2">  1       -1 0.21725518E+00 0.14101509E+04</pdfrwt>
<totfact> 0.11738173E+01</totfact>
</mgrwt>
</event>
<event>
12    7  0.1497947E-008  0.1623770E+04  0.7818608E-02  0.8806077E-01
         -1   -1    0    0    0  501 -0.00000000000E+00  0.00000000000E+00  0.43886976060E+03  0.43886976060E+03  0.00000000000E+00 0.  1.
          2   -1    0    0  501    0  0.00000000000E+00 -0.00000000000E+00 -0.15019418792E+04  0.15019418792E+04  0.00000000000E+00 0. -1.
         24    2    1    2    0    0 -0.34125559321E+03  0.38525788316E+03 -0.11143831469E+03  0.53193283109E+03  0.75199882835E+02 0.  0.
        254    2    1    2    0    0  0.34125559321E+03 -0.38525788316E+03 -0.95163380393E+03  0.14088788087E+04  0.90247082194E+03 0.  0.
         23    2    4    4    0    0 -0.17471770009E+03 -0.23742308834E+03  0.44038252107E+01  0.30672558708E+03  0.84647471849E+02 0.  0.
         23    2    4    4    0    0  0.51597329330E+03 -0.14783479482E+03 -0.95603762914E+03  0.11021532216E+04  0.11247315098E+03 0.  0.
          4    1    3    3  502    0 -0.51059575683E+02  0.23515492598E+02 -0.16129862146E+02  0.58482742017E+02  0.00000000000E+00 0. -1.
         -1    1    3    3    0  502 -0.29019601753E+03  0.36174239056E+03 -0.95308452548E+02  0.47345008908E+03  0.00000000000E+00 0.  1.
         13    1    5    5    0    0 -0.12942715929E+03 -0.21777406287E+03  0.22068951417E+02  0.25429111396E+03  0.00000000000E+00 0. -1.
        -13    1    5    5    0    0 -0.45290540794E+02 -0.19649025471E+02 -0.17665126206E+02  0.52434473119E+02  0.00000000000E+00 0.  1.
          1    1    6    6  503    0  0.45210609684E+03 -0.11137315375E+03 -0.88441697476E+03  0.99949851797E+03  0.00000000000E+00 0. -1.
         -1    1    6    6    0  503  0.63867196463E+02 -0.36461641062E+02 -0.71620654376E+02  0.10265470367E+03  0.00000000000E+00 0.  1.
<mgrwt>
<rscale>  0 0.16237695E+04</rscale>
<asrwt>0</asrwt>
<pdfrwt beam="1">  1        2 0.23106798E+00 0.16237695E+04</pdfrwt>
<pdfrwt beam="2">  1       -1 0.67518425E-01 0.16237695E+04</pdfrwt>
<totfact> 0.30679783E+01</totfact>
</mgrwt>
</event>
<event>
11    7  0.1497947E-008  0.2722056E+04  0.7818608E-02  0.8327884E-01
         -1   -1    0    0    0  501 -0.00000000000E+00  0.00000000000E+00  0.67416120687E+03  0.67416120687E+03  0.00000000000E+00 0.  1.
          2   -1    0    0  501    0  0.00000000000E+00 -0.00000000000E+00 -0.27477074743E+04  0.27477074743E+04  0.00000000000E+00 0. -1.
         24    2    1    2    0    0  0.18060288562E+03 -0.86360603938E+03  0.76490886532E+02  0.88941322415E+03  0.82293584392E+02 0.  0.
        254    2    1    2    0    0 -0.18060288562E+03  0.86360603938E+03 -0.21500371539E+04  0.25324554570E+04  0.10061004348E+04 0.  0.
         23    2    4    4    0    0 -0.14775703499E+03  0.91249176093E+03 -0.94532108990E+03  0.13254534032E+04  0.93388468070E+02 0.  0.
          2    1    3    3  502    0  0.33947539559E+02 -0.66228478900E+02 -0.49173783405E+01  0.74584364778E+02  0.00000000000E+00 0. -1.
         -1    1    3    3    0  502  0.14665534606E+03 -0.79737756048E+03  0.81408264872E+02  0.81482885937E+03  0.00000000000E+00 0.  1.
         13    1    5    5    0    0  0.71414788274E+01  0.14406143963E+03 -0.12576595277E+03  0.19136816346E+03  0.00000000000E+00 0. -1.
        -13    1    5    5    0    0 -0.15489851382E+03  0.76843032130E+03 -0.81955513713E+03  0.11340852398E+04  0.00000000000E+00 0.  1.
          1    1    4    4  503    0 -0.19333409568E+02 -0.25127347241E+02 -0.26518178670E+03  0.26707029842E+03  0.00000000000E+00 0. -1.
         -1    1    4    4    0  503 -0.13512441056E+02 -0.23758374312E+02 -0.93953427732E+03  0.93993175533E+03  0.00000000000E+00 0.  1.
<mgrwt>
<rscale>  0 0.27220564E+04</rscale>
<asrwt>0</asrwt>
<pdfrwt beam="1">  1        2 0.42272423E+00 0.27220564E+04</pdfrwt>
<pdfrwt beam="2">  1       -1 0.10371711E+00 0.27220564E+04</pdfrwt>
<totfact> 0.21679757E+00</totfact>
</mgrwt>
</event>
<event>
12    7  0.1497947E-008  0.2050012E+04  0.7818608E-02  0.8583589E-01
          2   -1    0    0  501    0  0.00000000000E+00  0.00000000000E+00  0.30028981883E+04  0.30028981883E+04  0.00000000000E+00 0. -1.
         -1   -1    0    0    0  501 -0.00000000000E+00 -0.00000000000E+00 -0.34987433879E+03  0.34987433879E+03  0.00000000000E+00 0.  1.
         24    2    1    2    0    0  0.72658624444E+03 -0.39241200941E+03  0.11108814397E+04  0.13866236912E+04  0.82176226559E+02 0.  0.
        254    2    1    2    0    0 -0.72658624444E+03  0.39241200941E+03  0.15421424098E+04  0.19661488359E+04  0.89756519373E+03 0.  0.
         23    2    4    4    0    0  0.12346495830E+03  0.17897135765E+03  0.73784419177E+03  0.77495332979E+03  0.94150248208E+02 0.  0.
         23    2    4    4    0    0 -0.85005120274E+03  0.21344065176E+03  0.80429821806E+03  0.11911955061E+04  0.62507208439E+02 0.  0.
          4    1    3    3  502    0  0.10303357452E+03 -0.37455814773E+02  0.18813816152E+03  0.21774945088E+03  0.00000000000E+00 0. -1.
         -3    1    3    3    0  502  0.62355266991E+03 -0.35495619464E+03  0.92274327818E+03  0.11688742403E+04  0.00000000000E+00 0.  1.
         13    1    5    5    0    0 -0.61134368079E+01  0.27443797537E+01  0.15821315831E+01  0.68854099503E+01  0.00000000000E+00 0. -1.
        -13    1    5    5    0    0  0.12957839511E+03  0.17622697790E+03  0.73626206019E+03  0.76806791984E+03  0.00000000000E+00 0.  1.
          3    1    6    6  503    0 -0.27505427104E+03  0.39926058245E+02  0.26366099765E+03  0.38310059231E+03  0.00000000000E+00 0. -1.
         -3    1    6    6    0  503 -0.57499693170E+03  0.17351459351E+03  0.54063722041E+03  0.80809491380E+03  0.00000000000E+00 0.  1.
<mgrwt>
<rscale>  0 0.20500117E+04</rscale>
<asrwt>0</asrwt>
<pdfrwt beam="1">  1        2 0.46198432E+00 0.20500117E+04</pdfrwt>
<pdfrwt beam="2">  1       -1 0.53826823E-01 0.20500117E+04</pdfrwt>
<totfact> 0.63746218E+00</totfact>
</mgrwt>
</event>
<event>
11    7  0.1497947E-008  0.1626711E+04  0.7818608E-02  0.8804304E-01
         -1   -1    0    0    0  501 -0.00000000000E+00  0.00000000000E+00  0.19944964166E+04  0.19944964166E+04  0.00000000000E+00 0.  1.
          2   -1    0    0  501    0  0.00000000000E+00 -0.00000000000E+00 -0.33168644400E+03  0.33168644400E+03  0.00000000000E+00 0. -1.
         24    2    1    2    0    0 -0.41571557990E+03 -0.29938371948E+02  0.39791821502E+02  0.42609725501E+03  0.79118469294E+02 0.  0.
        254    2    1    2    0    0  0.41571557990E+03  0.29938371948E+02  0.16230181511E+04  0.19000856056E+04  0.89577990617E+03 0.  0.
         23    2    4    4    0    0 -0.77398537640E+02  0.30765778582E+03  0.63779608973E+03  0.71816127849E+03  0.91257454753E+02 0.  0.
          4    1    3    3  502    0 -0.20623360851E+03 -0.78546640788E+01 -0.19408009317E+02  0.20729367538E+03  0.00000000000E+00 0. -1.
         -3    1    3    3    0  502 -0.20948197139E+03 -0.22083707869E+02  0.59199830819E+02  0.21880357963E+03  0.00000000000E+00 0.  1.
         13    1    5    5    0    0  0.82046306221E+01  0.37096742694E+02  0.14097976202E+03  0.14600951195E+03  0.00000000000E+00 0. -1.
        -13    1    5    5    0    0 -0.85603168262E+02  0.27056104312E+03  0.49681632771E+03  0.57215176654E+03  0.00000000000E+00 0.  1.
          4    1    4    4  503    0  0.22617636015E+03 -0.22301751690E+03  0.77564975502E+03  0.83816770470E+03  0.00000000000E+00 0.  1.
         -4    1    4    4    0  503  0.26693775738E+03 -0.54701896970E+02  0.20957230632E+03  0.34375662237E+03  0.00000000000E+00 0. -1.
<mgrwt>
<rscale>  0 0.16267113E+04</rscale>
<asrwt>0</asrwt>
<pdfrwt beam="1">  1        2 0.51028685E-01 0.16267113E+04</pdfrwt>
<pdfrwt beam="2">  1       -1 0.30684560E+00 0.16267113E+04</pdfrwt>
<totfact> 0.32109368E+00</totfact>
</mgrwt>
</event>
<event>
12    7  0.1497947E-008  0.1906380E+04  0.7818608E-02  0.8651687E-01
          2   -1    0    0  501    0  0.00000000000E+00  0.00000000000E+00  0.26390080886E+04  0.26390080886E+04  0.00000000000E+00 0. -1.
         -1   -1    0    0    0  501 -0.00000000000E+00 -0.00000000000E+00 -0.34428495521E+03  0.34428495521E+03  0.00000000000E+00 0.  1.
         24    2    1    2    0    0 -0.12038210977E+03 -0.15837743355E+03 -0.21990893351E+03  0.30740151286E+03  0.80996834874E+02 0.  0.
        254    2    1    2    0    0  0.12038210977E+03  0.15837743355E+03  0.25146320669E+04  0.26758915310E+04  0.89299820257E+03 0.  0.
         23    2    4    4    0    0  0.41770570301E+03  0.74919714029E+02  0.21176077057E+04  0.21616750836E+04  0.92118151564E+02 0.  0.
         23    2    4    4    0    0 -0.29732359323E+03  0.83457719516E+02  0.39702436119E+03  0.51421644738E+03  0.10688171656E+03 0.  0.
          2    1    3    3  502    0 -0.56522913702E+02 -0.48513652443E+02 -0.33200340390E+02  0.81551682072E+02  0.00000000000E+00 0. -1.
         -1    1    3    3    0  502 -0.63859196071E+02 -0.10986378110E+03 -0.18670859312E+03  0.22584983078E+03  0.00000000000E+00 0.  1.
         13    1    5    5    0    0 -0.48802149485E+01 -0.72130812449E+00  0.22014122202E+02  0.22560105490E+02  0.00000000000E+00 0.  1.
        -13    1    5    5    0    0  0.42258591795E+03  0.75641022154E+02  0.20955935835E+04  0.21391149781E+04  0.00000000000E+00 0. -1.
          4    1    6    6  503    0 -0.16297697155E+03  0.16061036656E+02  0.27733896965E+03  0.32208128514E+03  0.00000000000E+00 0. -1.
         -4    1    6    6    0  503 -0.13434662168E+03  0.67396682860E+02  0.11968539155E+03  0.19213516224E+03  0.00000000000E+00 0.  1.
<mgrwt>
<rscale>  0 0.19063796E+04</rscale>
<asrwt>0</asrwt>
<pdfrwt beam="1">  1        2 0.40600123E+00 0.19063796E+04</pdfrwt>
<pdfrwt beam="2">  1       -1 0.52966918E-01 0.19063796E+04</pdfrwt>
<totfact> 0.11068343E+01</totfact>
</mgrwt>
</event>
<event>
12    7  0.1497947E-008  0.1814833E+04  0.7818608E-02  0.8698451E-01
          2   -1    0    0  501    0  0.00000000000E+00  0.00000000000E+00  0.15135442257E+04  0.15135442257E+04  0.00000000000E+00 0. -1.
         -1   -1    0    0    0  501 -0.00000000000E+00 -0.00000000000E+00 -0.54402422177E+03  0.54402422177E+03  0.00000000000E+00 0.  1.
         24    2    1    2    0    0  0.49080570639E+02  0.29905629681E+03  0.10579211864E+04  0.11035157986E+04  0.81892063096E+02 0.  0.
        254    2    1    2    0    0 -0.49080570639E+02 -0.29905629681E+03 -0.88401182480E+02  0.95405264888E+03  0.90031001144E+03 0.  0.
         23    2    4    4    0    0 -0.21427528857E+02  0.19934542660E+03 -0.32249592994E+03  0.38975096610E+03  0.87775011517E+02 0.  0.
         23    2    4    4    0    0 -0.27653041782E+02 -0.49840172341E+03  0.23409474746E+03  0.56430168278E+03  0.12027913278E+03 0.  0.
          4    1    3    3  502    0  0.40782109203E+02  0.20852262118E+03  0.85762344725E+03  0.88355126690E+03  0.00000000000E+00 0. -1.
         -3    1    3    3    0  502  0.82984614367E+01  0.90533675628E+02  0.20029773914E+03  0.21996453166E+03  0.00000000000E+00 0.  1.
         13    1    5    5    0    0 -0.31382398130E+02  0.19556017607E+03 -0.26261608394E+03  0.32893136810E+03  0.00000000000E+00 0. -1.
        -13    1    5    5    0    0  0.99548692732E+01  0.37852505366E+01 -0.59879846001E+02  0.60819598001E+02  0.00000000000E+00 0.  1.
          3    1    6    6  503    0 -0.19809177053E+02 -0.36123205038E+03  0.10732477999E+03  0.37735872339E+03  0.00000000000E+00 0. -1.
         -3    1    6    6    0  503 -0.78438647294E+01 -0.13716967303E+03  0.12676996747E+03  0.18694295939E+03  0.00000000000E+00 0.  1.
<mgrwt>
<rscale>  0 0.18148330E+04</rscale>
<asrwt>0</asrwt>
<pdfrwt beam="1">  1        2 0.23285296E+00 0.18148330E+04</pdfrwt>
<pdfrwt beam="2">  1       -1 0.83696035E-01 0.18148330E+04</pdfrwt>
<totfact> 0.18971343E+01</totfact>
</mgrwt>
</event>
<event>
11    7  0.1497947E-008  0.2635935E+04  0.7818608E-02  0.8356096E-01
         -1   -1    0    0    0  501 -0.00000000000E+00  0.00000000000E+00  0.61331357748E+03  0.61331357748E+03  0.00000000000E+00 0.  1.
          2   -1    0    0  501    0  0.00000000000E+00 -0.00000000000E+00 -0.28322188931E+04  0.28322188931E+04  0.00000000000E+00 0. -1.
         24    2    1    2    0    0 -0.12776238656E+03  0.45525546043E+02 -0.24859727379E+04  0.24912903948E+04  0.89841945631E+02 0.  0.
        254    2    1    2    0    0  0.12776238656E+03 -0.45525546043E+02  0.26706742221E+03  0.95424207578E+03  0.90601166020E+03 0.  0.
         23    2    4    4    0    0  0.71265922172E+02  0.38950962880E+03  0.12434061333E+03  0.42519972641E+03  0.92399332418E+02 0.  0.
          2    1    3    3  502    0 -0.13343862849E+03  0.26853149584E+02 -0.18420829607E+04  0.18471049222E+04  0.00000000000E+00 0. -1.
         -1    1    3    3    0  502  0.56762419316E+01  0.18672396459E+02 -0.64388977713E+03  0.64418547267E+03  0.00000000000E+00 0.  1.
         13    1    5    5    0    0  0.63384297046E+02  0.16088245740E+03  0.86434412955E+02  0.19331746417E+03  0.00000000000E+00 0. -1.
        -13    1    5    5    0    0  0.78816251262E+01  0.22862717140E+03  0.37906200371E+02  0.23188226224E+03  0.00000000000E+00 0.  1.
          1    1    4    4  503    0 -0.30390553840E+02 -0.10650300913E+02 -0.46308595750E+02  0.56404793348E+02  0.00000000000E+00 0. -1.
         -1    1    4    4    0  503  0.86887018230E+02 -0.42438487392E+03  0.18903540464E+03  0.47263755602E+03  0.00000000000E+00 0.  1.
<mgrwt>
<rscale>  0 0.26359350E+04</rscale>
<asrwt>0</asrwt>
<pdfrwt beam="1">  1        2 0.43572598E+00 0.26359350E+04</pdfrwt>
<pdfrwt beam="2">  1       -1 0.94355935E-01 0.26359350E+04</pdfrwt>
<totfact> 0.24094017E+00</totfact>
</mgrwt>
</event>
<event>
12    7  0.1497947E-008  0.2493578E+04  0.7818608E-02  0.8405277E-01
          2   -1    0    0  501    0  0.00000000000E+00  0.00000000000E+00  0.16253835367E+04  0.16253835367E+04  0.00000000000E+00 0. -1.
         -1   -1    0    0    0  501 -0.00000000000E+00 -0.00000000000E+00 -0.95637912400E+03  0.95637912400E+03  0.00000000000E+00 0.  1.
         24    2    1    2    0    0  0.16198096857E+03  0.73828783300E+03  0.10897622698E+04  0.13286198615E+04  0.79637762059E+02 0.  0.
        254    2    1    2    0    0 -0.16198096857E+03 -0.73828783300E+03 -0.42075785709E+03  0.12531427992E+04  0.90665480882E+03 0.  0.
         23    2    4    4    0    0 -0.51450464912E+03 -0.28148252612E+03 -0.20959573051E+03  0.62936241901E+03  0.90660011775E+02 0.  0.
         23    2    4    4    0    0  0.35252368055E+03 -0.45680530688E+03 -0.21116212659E+03  0.62378038020E+03  0.10755689320E+03 0.  0.
          4    1    3    3  502    0  0.16487733754E+03  0.64413618662E+03  0.93179690598E+03  0.11447014621E+04  0.00000000000E+00 0. -1.
         -3    1    3    3    0  502 -0.28963689621E+01  0.94151646380E+02  0.15796536377E+03  0.18391839935E+03  0.00000000000E+00 0.  1.
         13    1    5    5    0    0 -0.41191471326E+03 -0.19220258088E+03 -0.13461730696E+03  0.47406474497E+03  0.00000000000E+00 0. -1.
        -13    1    5    5    0    0 -0.10258993586E+03 -0.89279945246E+02 -0.74978423543E+02  0.15529767404E+03  0.00000000000E+00 0.  1.
          2    1    6    6  503    0  0.15118977435E+03 -0.12406999102E+03 -0.97912948757E+02  0.21872049760E+03  0.00000000000E+00 0.  1.
         -2    1    6    6    0  503  0.20133390620E+03 -0.33273531586E+03 -0.11324917783E+03  0.40505988259E+03  0.00000000000E+00 0. -1.
<mgrwt>
<rscale>  0 0.24935781E+04</rscale>
<asrwt>0</asrwt>
<pdfrwt beam="1">  1        2 0.25005901E+00 0.24935781E+04</pdfrwt>
<pdfrwt beam="2">  1       -1 0.14713525E+00 0.24935781E+04</pdfrwt>
<totfact> 0.40301446E+00</totfact>
</mgrwt>
</event>
<event>
11    7  0.1497947E-008  0.1402286E+04  0.7818608E-02  0.8952166E-01
          2   -1    0    0  501    0  0.00000000000E+00  0.00000000000E+00  0.10379106299E+04  0.10379106299E+04  0.00000000000E+00 0. -1.
         -1   -1    0    0    0  501 -0.00000000000E+00 -0.00000000000E+00 -0.47364499164E+03  0.47364499164E+03  0.00000000000E+00 0.  1.
         24    2    1    2    0    0  0.96614772323E+02 -0.36749902471E+03  0.60792374263E+02  0.39300011731E+03  0.79771122862E+02 0.  0.
        254    2    1    2    0    0 -0.96614772323E+02  0.36749902471E+03  0.50347326399E+03  0.11185555042E+04  0.92373759320E+03 0.  0.
         23    2    4    4    0    0  0.38986258997E+03  0.26169014561E+03  0.19405815876E+03  0.51787397189E+03  0.10030109878E+03 0.  0.
          2    1    3    3  502    0  0.89018267580E+02 -0.26203537345E+03  0.73935860866E+02  0.28644947273E+03  0.00000000000E+00 0. -1.
         -1    1    3    3    0  502  0.75965047428E+01 -0.10546365126E+03 -0.13143486603E+02  0.10655064458E+03  0.00000000000E+00 0.  1.
         13    1    5    5    0    0  0.22796377696E+03  0.17681595634E+03  0.69738118607E+02  0.29680763334E+03  0.00000000000E+00 0.  1.
        -13    1    5    5    0    0  0.16189881301E+03  0.84874189276E+02  0.12432004015E+03  0.22106633855E+03  0.00000000000E+00 0. -1.
          4    1    4    4  503    0 -0.32884896700E+03  0.10288211006E+03  0.14787017818E+03  0.37495594576E+03  0.00000000000E+00 0. -1.
         -4    1    4    4    0  503 -0.15762839529E+03  0.29267690332E+01  0.16154492705E+03  0.22572558658E+03  0.00000000000E+00 0.  1.
<mgrwt>
<rscale>  0 0.14022855E+04</rscale>
<asrwt>0</asrwt>
<pdfrwt beam="1">  1        2 0.15967856E+00 0.14022855E+04</pdfrwt>
<pdfrwt beam="2">  1       -1 0.72868460E-01 0.14022855E+04</pdfrwt>
<totfact> 0.50225946E+01</totfact>
</mgrwt>
</event>
<event>
12    7  0.1497947E-008  0.2191220E+04  0.7818608E-02  0.8522092E-01
         -1   -1    0    0    0  501 -0.00000000000E+00  0.00000000000E+00  0.69008622551E+03  0.69008622551E+03  0.00000000000E+00 0.  1.
          2   -1    0    0  501    0  0.00000000000E+00 -0.00000000000E+00 -0.17394363643E+04  0.17394363643E+04  0.00000000000E+00 0. -1.
         24    2    1    2    0    0  0.85892973450E+02 -0.29291618371E+03 -0.13832494101E+04  0.14187929639E+04  0.80106493665E+02 0.  0.
        254    2    1    2    0    0 -0.85892973450E+02  0.29291618371E+03  0.33389927134E+03  0.10107296259E+04  0.90382971827E+03 0.  0.
         23    2    4    4    0    0 -0.22221168188E+03 -0.26657291949E+03  0.19028180838E+03  0.40622119444E+03  0.91484092845E+02 0.  0.
         23    2    4    4    0    0  0.13631870843E+03  0.55948910320E+03  0.14361746296E+03  0.60450843142E+03  0.11486348910E+03 0.  0.
          2    1    3    3  502    0  0.71130156078E+02 -0.27721701805E+03 -0.11716085258E+04  0.12060577565E+04  0.00000000000E+00 0. -1.
         -1    1    3    3    0  502  0.14762817372E+02 -0.15699165661E+02 -0.21164088431E+03  0.21273520745E+03  0.00000000000E+00 0.  1.
         13    1    5    5    0    0 -0.10186937698E+02  0.12170238033E+01  0.24478443144E+02  0.26541458614E+02  0.00000000000E+00 0. -1.
        -13    1    5    5    0    0 -0.21202474418E+03 -0.26778994329E+03  0.16580336524E+03  0.37967973583E+03  0.00000000000E+00 0.  1.
          1    1    6    6  503    0  0.79977086707E+02  0.33959042158E+03  0.28655318797E+02  0.35005587571E+03  0.00000000000E+00 0. -1.
         -1    1    6    6    0  503  0.56341621722E+02  0.21989868162E+03  0.11496214416E+03  0.25445255571E+03  0.00000000000E+00 0.  1.
<mgrwt>
<rscale>  0 0.21912198E+04</rscale>
<asrwt>0</asrwt>
<pdfrwt beam="1">  1        2 0.26760559E+00 0.21912198E+04</pdfrwt>
<pdfrwt beam="2">  1       -1 0.10616711E+00 0.21912198E+04</pdfrwt>
<totfact> 0.80567247E+00</totfact>
</mgrwt>
</event>
<event>
11    7  0.1497947E-008  0.1903467E+04  0.7818608E-02  0.8653133E-01
          2   -1    0    0  501    0  0.00000000000E+00  0.00000000000E+00  0.29552436891E+04  0.29552436891E+04  0.00000000000E+00 0. -1.
         -1   -1    0    0    0  501 -0.00000000000E+00 -0.00000000000E+00 -0.30650480620E+03  0.30650480620E+03  0.00000000000E+00 0.  1.
         24    2    1    2    0    0  0.32304117795E+03 -0.48784183346E+03  0.17620408860E+04  0.18582374338E+04  0.76896160422E+02 0.  0.
        254    2    1    2    0    0 -0.32304117795E+03  0.48784183346E+03  0.88669799688E+03  0.14035110614E+04  0.91720483251E+03 0.  0.
         23    2    4    4    0    0 -0.22001215020E+03 -0.20053707196E+03  0.93973744430E+02  0.32518038931E+03  0.91053596785E+02 0.  0.
          4    1    3    3  502    0  0.27514575741E+03 -0.43900244729E+03  0.14816358463E+04  0.15696092245E+04  0.00000000000E+00 0. -1.
         -3    1    3    3    0  502  0.47895420536E+02 -0.48839386175E+02  0.28040503971E+03  0.28862820937E+03  0.00000000000E+00 0.  1.
         13    1    5    5    0    0 -0.12639780824E+03 -0.13727361427E+03  0.14745823428E+02  0.18718410833E+03  0.00000000000E+00 0.  1.
        -13    1    5    5    0    0 -0.93614341958E+02 -0.63263457687E+02  0.79227921002E+02  0.13799628098E+03  0.00000000000E+00 0. -1.
          2    1    4    4  503    0  0.26250176638E+02  0.44340828272E+03  0.39995914054E+03  0.59771840449E+03  0.00000000000E+00 0. -1.
         -2    1    4    4    0  503 -0.12927920439E+03  0.24497062270E+03  0.39276511191E+03  0.48061226764E+03  0.00000000000E+00 0.  1.
<mgrwt>
<rscale>  0 0.19034667E+04</rscale>
<asrwt>0</asrwt>
<pdfrwt beam="1">  1        2 0.45465286E+00 0.19034667E+04</pdfrwt>
<pdfrwt beam="2">  1       -1 0.47154588E-01 0.19034667E+04</pdfrwt>
<totfact> 0.89027243E+00</totfact>
</mgrwt>
</event>
<event>
11    7  0.1497947E-008  0.1381489E+04  0.7818608E-02  0.8967328E-01
          2   -1    0    0  501    0  0.00000000000E+00  0.00000000000E+00  0.27476293354E+04  0.27476293354E+04  0.00000000000E+00 0. -1.
         -1   -1    0    0    0  501 -0.00000000000E+00 -0.00000000000E+00 -0.17365074355E+03  0.17365074355E+03  0.00000000000E+00 0.  1.
         24    2    1    2    0    0  0.10777779086E+03  0.12687156830E+03  0.15024516271E+04  0.15136890947E+04  0.78621476748E+02 0.  0.
        254    2    1    2    0    0 -0.10777779086E+03 -0.12687156830E+03  0.10715269648E+04  0.14075909843E+04  0.89745746181E+03 0.  0.
         23    2    4    4    0    0  0.25125568762E+03 -0.16376646894E+03  0.54513516902E+02  0.31835477175E+03  0.91810458323E+02 0.  0.
          2    1    3    3  502    0 -0.41192770164E+01  0.28586666938E+02  0.42678056133E+03  0.42775672233E+03  0.00000000000E+00 0. -1.
         -1    1    3    3    0  502  0.11189706787E+03  0.98284901361E+02  0.10756710657E+04  0.10859323723E+04  0.00000000000E+00 0.  1.
         13    1    5    5    0    0  0.24957867271E+03 -0.14749466071E+03  0.67275497205E+02  0.29760742822E+03  0.00000000000E+00 0. -1.
        -13    1    5    5    0    0  0.16770149155E+01 -0.16271808232E+02 -0.12761980303E+02  0.20747343527E+02  0.00000000000E+00 0.  1.
          2    1    4    4  503    0 -0.29211952444E+03  0.78061080662E+02  0.69775377642E+03  0.76045228738E+03  0.00000000000E+00 0. -1.
         -2    1    4    4    0  503 -0.66913954034E+02 -0.41166180022E+02  0.31925967148E+03  0.32878392518E+03  0.00000000000E+00 0.  1.
<mgrwt>
<rscale>  0 0.13814889E+04</rscale>
<asrwt>0</asrwt>
<pdfrwt beam="1">  1        2 0.42271217E+00 0.13814889E+04</pdfrwt>
<pdfrwt beam="2">  1       -1 0.26715501E-01 0.13814889E+04</pdfrwt>
<totfact> 0.34701481E+01</totfact>
</mgrwt>
</event>
<event>
11    7  0.1497947E-008  0.1866886E+04  0.7818608E-02  0.8671517E-01
          2   -1    0    0  501    0  0.00000000000E+00  0.00000000000E+00  0.12473086914E+04  0.12473086914E+04  0.00000000000E+00 0. -1.
         -1   -1    0    0    0  501 -0.00000000000E+00 -0.00000000000E+00 -0.69855705017E+03  0.69855705017E+03  0.00000000000E+00 0.  1.
         24    2    1    2    0    0 -0.39644797190E+03 -0.16752306868E+03 -0.38657166887E+03  0.58401129754E+03  0.79978544135E+02 0.  0.
        254    2    1    2    0    0  0.39644797190E+03  0.16752306868E+03  0.93532331012E+03  0.13618544441E+04  0.89139377347E+03 0.  0.
         23    2    4    4    0    0 -0.11027932483E+03  0.63915302974E+02 -0.93267664718E+02  0.18236498859E+03  0.91167079275E+02 0.  0.
          2    1    3    3  502    0 -0.15923683408E+03 -0.87739881990E+02 -0.11714407951E+03  0.21628081650E+03  0.00000000000E+00 0. -1.
         -1    1    3    3    0  502 -0.23721113782E+03 -0.79783186688E+02 -0.26942758935E+03  0.36773048104E+03  0.00000000000E+00 0.  1.
         13    1    5    5    0    0 -0.90937241064E+02  0.31343034429E+02 -0.10529917235E+03  0.14261796281E+03  0.00000000000E+00 0. -1.
        -13    1    5    5    0    0 -0.19342083766E+02  0.32572268545E+02  0.12031507630E+02  0.39747025781E+02  0.00000000000E+00 0.  1.
          3    1    4    4  503    0  0.12603216284E+03  0.28596406194E+02  0.54168234483E+03  0.55688564644E+03  0.00000000000E+00 0. -1.
         -3    1    4    4    0  503  0.38069513389E+03  0.75011359511E+02  0.48690863001E+03  0.62260380902E+03  0.00000000000E+00 0.  1.
<mgrwt>
<rscale>  0 0.18668865E+04</rscale>
<asrwt>0</asrwt>
<pdfrwt beam="1">  1        2 0.19189365E+00 0.18668865E+04</pdfrwt>
<pdfrwt beam="2">  1       -1 0.10747032E+00 0.18668865E+04</pdfrwt>
<totfact> 0.15324687E+01</totfact>
</mgrwt>
</event>
<event>
11    7  0.1497947E-008  0.1343484E+04  0.7818608E-02  0.8995776E-01
          4   -1    0    0  501    0  0.00000000000E+00  0.00000000000E+00  0.30536606150E+03  0.30536606150E+03  0.00000000000E+00 0. -1.
         -3   -1    0    0    0  501 -0.00000000000E+00 -0.00000000000E+00 -0.14776922573E+04  0.14776922573E+04  0.00000000000E+00 0.  1.
         24    2    1    2    0    0  0.27281412495E+02 -0.31589745722E+03 -0.54306043762E+03  0.63387126912E+03  0.79640868632E+02 0.  0.
        254    2    1    2    0    0 -0.27281412495E+02  0.31589745722E+03 -0.62926575818E+03  0.11491870497E+04  0.90781055390E+03 0.  0.
         23    2    4    4    0    0  0.26220547198E+03 -0.14853309937E+03 -0.46283207136E+03  0.55959756598E+03  0.90122796388E+02 0.  0.
          2    1    3    3  502    0  0.10668462226E+02 -0.16637061826E+00 -0.20427232564E+02  0.23045945319E+02  0.00000000000E+00 0. -1.
         -1    1    3    3    0  502  0.16612950270E+02 -0.31573108661E+03 -0.52263320506E+03  0.61082532380E+03  0.00000000000E+00 0.  1.
         13    1    5    5    0    0  0.50721838976E+02 -0.52599537261E+02 -0.59684164276E+02  0.94348374308E+02  0.00000000000E+00 0. -1.
        -13    1    5    5    0    0  0.21148363300E+03 -0.95933562109E+02 -0.40314790708E+03  0.46524919167E+03  0.00000000000E+00 0.  1.
          4    1    4    4  503    0 -0.97829217743E+02  0.58047974160E+02 -0.56561826668E+02  0.12704079417E+03  0.00000000000E+00 0. -1.
         -4    1    4    4    0  503 -0.19165766673E+03  0.40638258243E+03 -0.10987186015E+03  0.46254868952E+03  0.00000000000E+00 0.  1.
<mgrwt>
<rscale>  0 0.13434836E+04</rscale>
<asrwt>0</asrwt>
<pdfrwt beam="1">  1        4 0.46979394E-01 0.13434836E+04</pdfrwt>
<pdfrwt beam="2">  1       -3 0.22733727E+00 0.13434836E+04</pdfrwt>
<totfact> 0.97920774E-01</totfact>
</mgrwt>
</event>
<event>
12    7  0.1497947E-008  0.2463894E+04  0.7818608E-02  0.8415962E-01
         -1   -1    0    0    0  501 -0.00000000000E+00  0.00000000000E+00  0.57611890357E+03  0.57611890357E+03  0.00000000000E+00 0.  1.
          2   -1    0    0  501    0  0.00000000000E+00 -0.00000000000E+00 -0.26343411749E+04  0.26343411749E+04  0.00000000000E+00 0. -1.
         24    2    1    2    0    0 -0.47007349652E+03 -0.95706952475E+03 -0.88974992355E+03  0.13910377669E+04  0.79874746973E+02 0.  0.
        254    2    1    2    0    0  0.47007349652E+03  0.95706952475E+03 -0.11684723478E+04  0.18194223115E+04  0.89889863327E+03 0.  0.
         23    2    4    4    0    0  0.64482556342E+02 -0.11454947716E+03 -0.41917170840E+03  0.44885736967E+03  0.92132699945E+02 0.  0.
         23    2    4    4    0    0  0.40559094018E+03  0.10716190019E+04 -0.74930063937E+03  0.13705649419E+04  0.64230177621E+02 0.  0.
          2    1    3    3  502    0 -0.37327895534E+03 -0.74612690145E+03 -0.65256148001E+03  0.10591879044E+04  0.00000000000E+00 0. -1.
         -1    1    3    3    0  502 -0.96794541180E+02 -0.21094262330E+03 -0.23718844353E+03  0.33184986255E+03  0.00000000000E+00 0.  1.
         13    1    5    5    0    0  0.20833172926E+02 -0.40216765304E+02 -0.41356588975E+02  0.61333325014E+02  0.00000000000E+00 0.  1.
        -13    1    5    5    0    0  0.43649383417E+02 -0.74332711852E+02 -0.37781511942E+03  0.38752404466E+03  0.00000000000E+00 0. -1.
          2    1    6    6  503    0  0.22692555047E+03  0.61295475135E+03 -0.38970451044E+03  0.76097196933E+03  0.00000000000E+00 0. -1.
         -2    1    6    6    0  503  0.17866538971E+03  0.45866425055E+03 -0.35959612894E+03  0.60959297253E+03  0.00000000000E+00 0.  1.
<mgrwt>
<rscale>  0 0.24638943E+04</rscale>
<asrwt>0</asrwt>
<pdfrwt beam="1">  1        2 0.40528326E+00 0.24638943E+04</pdfrwt>
<pdfrwt beam="2">  1       -1 0.88633677E-01 0.24638943E+04</pdfrwt>
<totfact> 0.36919707E+00</totfact>
</mgrwt>
</event>
<event>
11    7  0.1497947E-008  0.1796017E+04  0.7818608E-02  0.8708420E-01
         -1   -1    0    0    0  501 -0.00000000000E+00  0.00000000000E+00  0.76862147468E+03  0.76862147468E+03  0.00000000000E+00 0.  1.
          2   -1    0    0  501    0  0.00000000000E+00 -0.00000000000E+00 -0.10491760469E+04  0.10491760469E+04  0.00000000000E+00 0. -1.
         24    2    1    2    0    0  0.53721926698E+03  0.81224599463E+02 -0.50521745030E+03  0.74608011508E+03  0.78669496373E+02 0.  0.
        254    2    1    2    0    0 -0.53721926698E+03 -0.81224599463E+02  0.22466287806E+03  0.10717174065E+04  0.89604844416E+03 0.  0.
         23    2    4    4    0    0  0.34768574328E+02  0.17473219251E+02  0.42506572763E+03  0.43738251961E+03  0.95438087305E+02 0.  0.
          2    1    3    3  502    0  0.53447499649E+03  0.79396079273E+02 -0.48652687133E+03  0.72710085669E+03  0.00000000000E+00 0. -1.
         -1    1    3    3    0  502  0.27442704840E+01  0.18285201909E+01 -0.18690578971E+02  0.18979258385E+02  0.00000000000E+00 0.  1.
         13    1    5    5    0    0 -0.23532679326E+02 -0.21732999214E+02  0.10943977900E+03  0.11403146705E+03  0.00000000000E+00 0. -1.
        -13    1    5    5    0    0  0.58301253654E+02  0.39206218465E+02  0.31562594863E+03  0.32335105256E+03  0.00000000000E+00 0.  1.
          1    1    4    4  503    0 -0.11021298597E+02 -0.33955452085E+02 -0.18234334317E+01  0.35745862118E+02  0.00000000000E+00 0. -1.
         -1    1    4    4    0  503 -0.56096654271E+03 -0.64742366629E+02 -0.19857941614E+03  0.59858902478E+03  0.00000000000E+00 0.  1.
<mgrwt>
<rscale>  0 0.17960170E+04</rscale>
<asrwt>0</asrwt>
<pdfrwt beam="1">  1        2 0.16141170E+00 0.17960170E+04</pdfrwt>
<pdfrwt beam="2">  1       -1 0.11824946E+00 0.17960170E+04</pdfrwt>
<totfact> 0.16204196E+01</totfact>
</mgrwt>
</event>
<event>
12    7  0.1497947E-008  0.1574503E+04  0.7818608E-02  0.8836366E-01
          2   -1    0    0  501    0  0.00000000000E+00  0.00000000000E+00  0.17913603278E+04  0.17913603278E+04  0.00000000000E+00 0. -1.
         -1   -1    0    0    0  501 -0.00000000000E+00 -0.00000000000E+00 -0.34597460891E+03  0.34597460891E+03  0.00000000000E+00 0.  1.
         24    2    1    2    0    0  0.35038281168E+03 -0.34319118542E+03  0.28623928674E+03  0.57337606098E+03  0.79239343534E+02 0.  0.
        254    2    1    2    0    0 -0.35038281168E+03  0.34319118542E+03  0.11591464322E+04  0.15639588757E+04  0.92833108821E+03 0.  0.
         23    2    4    4    0    0 -0.42590776133E+03  0.61192826558E+03  0.74017059005E+03  0.10545812362E+04  0.91844749645E+02 0.  0.
         23    2    4    4    0    0  0.75524949650E+02 -0.26873708016E+03  0.41897584211E+03  0.50937763951E+03  0.77467329179E+02 0.  0.
          4    1    3    3  502    0  0.16359140211E+03 -0.14956084056E+03  0.17429422537E+03  0.28197352512E+03  0.00000000000E+00 0. -1.
         -3    1    3    3    0  502  0.18679140957E+03 -0.19363034487E+03  0.11194506137E+03  0.29140253586E+03  0.00000000000E+00 0.  1.
         13    1    5    5    0    0 -0.28517876171E+03  0.33135718734E+03  0.44039179452E+03  0.62053963968E+03  0.00000000000E+00 0. -1.
        -13    1    5    5    0    0 -0.14072899962E+03  0.28057107825E+03  0.29977879552E+03  0.43404159654E+03  0.00000000000E+00 0.  1.
          4    1    6    6  503    0  0.89548426273E+02 -0.19447725664E+03  0.31240823803E+03  0.37873372069E+03  0.00000000000E+00 0. -1.
         -4    1    6    6    0  503 -0.14023476623E+02 -0.74259823525E+02  0.10656760408E+03  0.13064391882E+03  0.00000000000E+00 0.  1.
<mgrwt>
<rscale>  0 0.15745033E+04</rscale>
<asrwt>0</asrwt>
<pdfrwt beam="1">  1        2 0.27559389E+00 0.15745033E+04</pdfrwt>
<pdfrwt beam="2">  1       -1 0.53226864E-01 0.15745033E+04</pdfrwt>
<totfact> 0.33994828E+01</totfact>
</mgrwt>
</event>
<event>
11    7  0.1497947E-008  0.2767873E+04  0.7818608E-02  0.8313312E-01
          2   -1    0    0  501    0  0.00000000000E+00  0.00000000000E+00  0.14955847697E+04  0.14955847697E+04  0.00000000000E+00 0. -1.
         -1   -1    0    0    0  501 -0.00000000000E+00 -0.00000000000E+00 -0.12806233732E+04  0.12806233732E+04  0.00000000000E+00 0.  1.
         24    2    1    2    0    0 -0.12040769756E+04 -0.22252998635E+03  0.26415122206E+03  0.12551398175E+04  0.79240996730E+02 0.  0.
        254    2    1    2    0    0  0.12040769756E+04  0.22252998635E+03 -0.49189825582E+02  0.15210683253E+04  0.90105951711E+03 0.  0.
         23    2    4    4    0    0  0.36147930056E+03  0.18294931356E+03 -0.41770369828E+03  0.58903883288E+03  0.91392729531E+02 0.  0.
          4    1    3    3  502    0 -0.17519686404E+03 -0.11475782665E+02  0.57082298420E+02  0.18461858940E+03  0.00000000000E+00 0. -1.
         -3    1    3    3    0  502 -0.10288801115E+04 -0.21105420369E+03  0.20706892364E+03  0.10705212281E+04  0.00000000000E+00 0.  1.
         13    1    5    5    0    0  0.28796933894E+03  0.13671406373E+03 -0.37526369168E+03  0.49238187790E+03  0.00000000000E+00 0. -1.
        -13    1    5    5    0    0  0.73509961626E+02  0.46235249834E+02 -0.42440006599E+02  0.96656954978E+02  0.00000000000E+00 0.  1.
          4    1    4    4  503    0  0.83848061070E+03  0.41991519114E+02  0.37853971187E+03  0.92092634649E+03  0.00000000000E+00 0. -1.
         -4    1    4    4    0  503  0.41170642953E+01 -0.24108463232E+01 -0.10025839173E+02  0.11103145929E+02  0.00000000000E+00 0.  1.
<mgrwt>
<rscale>  0 0.27678734E+04</rscale>
<asrwt>0</asrwt>
<pdfrwt beam="1">  1        2 0.23008996E+00 0.27678734E+04</pdfrwt>
<pdfrwt beam="2">  1       -1 0.19701898E+00 0.27678734E+04</pdfrwt>
<totfact> 0.20020725E+00</totfact>
</mgrwt>
</event>
<event>
12    7  0.5418672E-008  0.2319427E+04  0.7818608E-02  0.8470300E-01
          2   -1    0    0  501    0  0.00000000000E+00  0.00000000000E+00  0.20782713489E+04  0.20782713489E+04  0.00000000000E+00 0. -1.
         -1   -1    0    0    0  501 -0.00000000000E+00 -0.00000000000E+00 -0.64714140142E+03  0.64714140142E+03  0.00000000000E+00 0.  1.
         24    2    1    2    0    0 -0.15316246127E+03  0.26376182031E+02 -0.53274638011E+03  0.55955139136E+03  0.71586392053E+02 0.  0.
        254    2    1    2    0    0  0.15316246127E+03 -0.26376182031E+02  0.19638763276E+04  0.21658613590E+04  0.89999486311E+03 0.  0.
         23    2    4    4    0    0  0.47500213627E+03  0.10899226125E+03  0.14746137105E+04  0.15557859049E+04  0.92075208579E+02 0.  0.
         23    2    4    4    0    0 -0.32183967501E+03 -0.13536844328E+03  0.48926261710E+03  0.61007545412E+03  0.10444500652E+03 0.  0.
          4    1    3    3  502    0  0.37038738958E-01 -0.11941991014E+02 -0.23174334632E+02  0.26070333846E+02  0.00000000000E+00 0. -1.
         -1    1    3    3    0  502 -0.15319950001E+03  0.38318173045E+02 -0.50957204548E+03  0.53348105751E+03  0.00000000000E+00 0.  1.
         13    1    5    5    0    0  0.42147743034E+02  0.34050970691E+02  0.21673364939E+03  0.22340406359E+03  0.00000000000E+00 0. -1.
        -13    1    5    5    0    0  0.43285439324E+03  0.74941290557E+02  0.12578800611E+04  0.13323818413E+04  0.00000000000E+00 0.  1.
          1    1    6    6  503    0 -0.29344952758E+03 -0.10853373874E+03  0.36987077432E+03  0.48445493844E+03  0.00000000000E+00 0.  1.
         -1    1    6    6    0  503 -0.28390147429E+02 -0.26834704538E+02  0.11939184278E+03  0.12562051568E+03  0.00000000000E+00 0. -1.
<mgrwt>
<rscale>  0 0.23194270E+04</rscale>
<asrwt>0</asrwt>
<pdfrwt beam="1">  1        2 0.31973405E+00 0.23194270E+04</pdfrwt>
<pdfrwt beam="2">  1       -1 0.99560217E-01 0.23194270E+04</pdfrwt>
<totfact> 0.59920962E+00</totfact>
</mgrwt>
</event>
<event>
12    7  0.1497947E-008  0.1605095E+04  0.7818608E-02  0.8817424E-01
         -1   -1    0    0    0  501 -0.00000000000E+00  0.00000000000E+00  0.33407778623E+03  0.33407778623E+03  0.00000000000E+00 0.  1.
          2   -1    0    0  501    0  0.00000000000E+00 -0.00000000000E+00 -0.19279405246E+04  0.19279405246E+04  0.00000000000E+00 0. -1.
         24    2    1    2    0    0  0.50292609720E+03  0.21766997593E+03 -0.51011159922E+03  0.75295581965E+03  0.80085860233E+02 0.  0.
        254    2    1    2    0    0 -0.50292609720E+03 -0.21766997593E+03 -0.10837511392E+04  0.15090624912E+04  0.89578914541E+03 0.  0.
         23    2    4    4    0    0 -0.46998784546E+03 -0.52015179288E+03 -0.60457204152E+03  0.93012718683E+03  0.90458652320E+02 0.  0.
         23    2    4    4    0    0 -0.32938251743E+02  0.30248181695E+03 -0.47917909767E+03  0.57893530439E+03  0.11390039950E+03 0.  0.
          2    1    3    3  502    0  0.38128248089E+03  0.16467637368E+03 -0.43066675383E+03  0.59830468086E+03  0.00000000000E+00 0. -1.
         -1    1    3    3    0  502  0.12164361632E+03  0.52993602246E+02 -0.79444845393E+02  0.15465113879E+03  0.00000000000E+00 0.  1.
         13    1    5    5    0    0 -0.45582097898E+03 -0.49858516768E+03 -0.60078388048E+03  0.90404712562E+03  0.00000000000E+00 0.  1.
        -13    1    5    5    0    0 -0.14166866480E+02 -0.21566625206E+02 -0.37881610419E+01  0.26080061210E+02  0.00000000000E+00 0. -1.
          2    1    6    6  503    0 -0.58551052005E+02  0.25226627973E+03 -0.33015140360E+03  0.41960272983E+03  0.00000000000E+00 0.  1.
         -2    1    6    6    0  503  0.25612800262E+02  0.50215537222E+02 -0.14902769406E+03  0.15933257455E+03  0.00000000000E+00 0. -1.
<mgrwt>
<rscale>  0 0.16050945E+04</rscale>
<asrwt>0</asrwt>
<pdfrwt beam="1">  1        2 0.29660623E+00 0.16050945E+04</pdfrwt>
<pdfrwt beam="2">  1       -1 0.51396582E-01 0.16050945E+04</pdfrwt>
<totfact> 0.30466680E+01</totfact>
</mgrwt>
</event>
<event>
11    7  0.1497947E-008  0.3002521E+04  0.7818608E-02  0.8243011E-01
         -1   -1    0    0    0  501 -0.00000000000E+00  0.00000000000E+00  0.91727143535E+03  0.91727143535E+03  0.00000000000E+00 0.  1.
          2   -1    0    0  501    0  0.00000000000E+00 -0.00000000000E+00 -0.24570521570E+04  0.24570521570E+04  0.00000000000E+00 0. -1.
         24    2    1    2    0    0 -0.84608470667E+02  0.12921718342E+04 -0.17479509424E+03  0.13091745901E+04  0.80734998204E+02 0.  0.
        254    2    1    2    0    0  0.84608470667E+02 -0.12921718342E+04 -0.13649856274E+04  0.20651490022E+04  0.85134481609E+03 0.  0.
         23    2    4    4    0    0 -0.29758960814E+03 -0.82115000167E+03 -0.53686245647E+03  0.10293265415E+04  0.91896309758E+02 0.  0.
          2    1    3    3  502    0 -0.52655495895E+02  0.95213990130E+03 -0.16311605997E+03  0.96744500718E+03  0.00000000000E+00 0. -1.
         -1    1    3    3    0  502 -0.31952974772E+02  0.34003193293E+03 -0.11679034267E+02  0.34172958293E+03  0.00000000000E+00 0.  1.
         13    1    5    5    0    0 -0.27517146229E+03 -0.67385605591E+03 -0.42350136081E+03  0.84211324675E+03  0.00000000000E+00 0. -1.
        -13    1    5    5    0    0 -0.22418145854E+02 -0.14729394576E+03 -0.11336109566E+03  0.18721329475E+03  0.00000000000E+00 0.  1.
          1    1    4    4  503    0  0.23003792981E+03 -0.37554511427E+03 -0.54772995946E+03  0.70282265935E+03  0.00000000000E+00 0. -1.
         -1    1    4    4    0  503  0.15216014900E+03 -0.95476718290E+02 -0.28039321147E+03  0.33299980138E+03  0.00000000000E+00 0.  1.
<mgrwt>
<rscale>  0 0.30025214E+04</rscale>
<asrwt>0</asrwt>
<pdfrwt beam="1">  1        2 0.37800802E+00 0.30025214E+04</pdfrwt>
<pdfrwt beam="2">  1       -1 0.14111868E+00 0.30025214E+04</pdfrwt>
<totfact> 0.14717139E+00</totfact>
</mgrwt>
</event>
<event>
12    7  0.1497947E-008  0.4978378E+04  0.7818608E-02  0.7831851E-01
         -1   -1    0    0    0  501 -0.00000000000E+00  0.00000000000E+00  0.25421331220E+04  0.25421331220E+04  0.00000000000E+00 0.  1.
          2   -1    0    0  501    0  0.00000000000E+00 -0.00000000000E+00 -0.24373473108E+04  0.24373473108E+04  0.00000000000E+00 0. -1.
         24    2    1    2    0    0  0.22974170701E+04 -0.46560206870E+03 -0.49726200855E+03  0.23976947778E+04  0.82220813022E+02 0.  0.
        254    2    1    2    0    0 -0.22974170701E+04  0.46560206870E+03  0.60204781968E+03  0.25817856550E+04  0.89902453283E+03 0.  0.
         23    2    4    4    0    0 -0.21037045403E+04  0.45116156860E+03  0.26002708847E+03  0.21691872531E+04  0.92949977106E+02 0.  0.
         23    2    4    4    0    0 -0.19371252978E+03  0.14440500100E+02  0.34202073121E+03  0.41259840189E+03  0.12460412684E+03 0.  0.
          4    1    3    3  502    0  0.82244771745E+03 -0.15592903351E+03 -0.21645398887E+03  0.86463081181E+03  0.00000000000E+00 0. -1.
         -3    1    3    3    0  502  0.14749693527E+04 -0.30967303520E+03 -0.28080801968E+03  0.15330639660E+04  0.00000000000E+00 0.  1.
         13    1    5    5    0    0 -0.20073808567E+04  0.44942280437E+03  0.25332849917E+03  0.20726152777E+04  0.00000000000E+00 0. -1.
        -13    1    5    5    0    0 -0.96323683623E+02  0.17387642326E+01  0.66985893059E+01  0.96571975368E+02  0.00000000000E+00 0.  1.
          1    1    6    6  503    0 -0.18416935684E+03 -0.22767285321E+02  0.31512789820E+03  0.36570793470E+03  0.00000000000E+00 0. -1.
         -1    1    6    6    0  503 -0.95431729419E+01  0.37207785421E+02  0.26892833009E+02  0.46890467186E+02  0.00000000000E+00 0.  1.
<mgrwt>
<rscale>  0 0.49783778E+04</rscale>
<asrwt>0</asrwt>
<pdfrwt beam="1">  1        2 0.37497651E+00 0.49783778E+04</pdfrwt>
<pdfrwt beam="2">  1       -1 0.39109741E+00 0.49783778E+04</pdfrwt>
<totfact> 0.25841413E-02</totfact>
</mgrwt>
</event>
<event>
11    7  0.1497947E-008  0.1774105E+04  0.7818608E-02  0.8720193E-01
          2   -1    0    0  501    0  0.00000000000E+00  0.00000000000E+00  0.46566267533E+04  0.46566267533E+04  0.00000000000E+00 0. -1.
         -1   -1    0    0    0  501 -0.00000000000E+00 -0.00000000000E+00 -0.16897685829E+03  0.16897685829E+03  0.00000000000E+00 0.  1.
         24    2    1    2    0    0 -0.20713983745E+03 -0.61318671688E+03  0.19475827148E+04  0.20539616146E+04  0.82310515715E+02 0.  0.
        254    2    1    2    0    0  0.20713983745E+03  0.61318671688E+03  0.25400671802E+04  0.27716419971E+04  0.90064044867E+03 0.  0.
         23    2    4    4    0    0  0.30559226119E+03  0.57187168963E+03  0.24622888965E+04  0.25475931099E+04  0.83307767942E+02 0.  0.
          2    1    3    3  502    0 -0.44763655808E+01 -0.63855253187E+00  0.39225516160E+02  0.39485272143E+02  0.00000000000E+00 0. -1.
         -3    1    3    3    0  502 -0.20266347187E+03 -0.61254816435E+03  0.19083571987E+04  0.20144763424E+04  0.00000000000E+00 0.  1.
         13    1    5    5    0    0  0.13136215256E+03  0.23540777528E+03  0.11858131963E+04  0.12160698057E+04  0.00000000000E+00 0.  1.
        -13    1    5    5    0    0  0.17423010863E+03  0.33646391435E+03  0.12764757002E+04  0.13315233042E+04  0.00000000000E+00 0. -1.
          4    1    4    4  503    0 -0.10795314476E+03  0.16424904294E+02  0.12736020703E+03  0.16776257414E+03  0.00000000000E+00 0. -1.
         -4    1    4    4    0  503  0.95007210246E+01  0.24890122958E+02 -0.49581923287E+02  0.56286313059E+02  0.00000000000E+00 0.  1.
<mgrwt>
<rscale>  0 0.17741050E+04</rscale>
<asrwt>0</asrwt>
<pdfrwt beam="1">  1        2 0.71640402E+00 0.17741050E+04</pdfrwt>
<pdfrwt beam="2">  1       -1 0.25996443E-01 0.17741050E+04</pdfrwt>
<totfact> 0.12363577E+00</totfact>
</mgrwt>
</event>
<event>
11    7  0.1497947E-008  0.2200606E+04  0.7818608E-02  0.8518176E-01
          2   -1    0    0  501    0  0.00000000000E+00  0.00000000000E+00  0.84844132476E+03  0.84844132476E+03  0.00000000000E+00 0. -1.
         -1   -1    0    0    0  501 -0.00000000000E+00 -0.00000000000E+00 -0.14269300377E+04  0.14269300377E+04  0.00000000000E+00 0.  1.
         24    2    1    2    0    0 -0.64264412857E+03 -0.63890876074E+03 -0.11785984281E+03  0.91714504778E+03  0.77898752187E+02 0.  0.
        254    2    1    2    0    0  0.64264412857E+03  0.63890876074E+03 -0.46062887016E+03  0.13582263147E+04  0.90077959866E+03 0.  0.
         23    2    4    4    0    0  0.73022706832E+03  0.44344073516E+03 -0.53254468708E+03  0.10114016005E+04  0.97252747156E+02 0.  0.
          4    1    3    3  502    0 -0.42513142131E+03 -0.38393086668E+03 -0.48423904570E+02  0.57487782207E+03  0.00000000000E+00 0. -1.
         -3    1    3    3    0  502 -0.21751270726E+03 -0.25497789406E+03 -0.69435938236E+02  0.34226722571E+03  0.00000000000E+00 0.  1.
         13    1    5    5    0    0  0.68912060309E+03  0.41176103988E+03 -0.47039583683E+03  0.93043355640E+03  0.00000000000E+00 0.  1.
        -13    1    5    5    0    0  0.41106465232E+02  0.31679695274E+02 -0.62148850244E+02  0.80968044086E+02  0.00000000000E+00 0. -1.
          4    1    4    4  503    0 -0.40895222161E+02  0.25623132891E+03  0.35188999127E+02  0.26184953460E+03  0.00000000000E+00 0.  1.
         -4    1    4    4    0  503 -0.46687717589E+02 -0.60763303322E+02  0.36726817793E+02  0.84975179608E+02  0.00000000000E+00 0. -1.
<mgrwt>
<rscale>  0 0.22006057E+04</rscale>
<asrwt>0</asrwt>
<pdfrwt beam="1">  1        2 0.13052944E+00 0.22006057E+04</pdfrwt>
<pdfrwt beam="2">  1       -1 0.21952769E+00 0.22006057E+04</pdfrwt>
<totfact> 0.36776403E+00</totfact>
</mgrwt>
</event>
<event>
11    7  0.1497947E-008  0.1333085E+04  0.7818608E-02  0.9003732E-01
         -1   -1    0    0    0  501 -0.00000000000E+00  0.00000000000E+00  0.30235363624E+03  0.30235363624E+03  0.00000000000E+00 0.  1.
          2   -1    0    0  501    0  0.00000000000E+00 -0.00000000000E+00 -0.14694022472E+04  0.14694022472E+04  0.00000000000E+00 0. -1.
         24    2    1    2    0    0  0.79137500423E+02 -0.22769332386E+03 -0.51470711303E+03  0.57382737166E+03  0.79040790521E+02 0.  0.
        254    2    1    2    0    0 -0.79137500423E+02  0.22769332386E+03 -0.65234149795E+03  0.11979285118E+04  0.97538520376E+03 0.  0.
         23    2    4    4    0    0  0.42743165051E+02  0.25165350384E+03 -0.86844965904E+03  0.90971787508E+03  0.90693648044E+02 0.  0.
          4    1    3    3  502    0  0.45907111416E+01 -0.13256818193E+03 -0.28006594804E+03  0.30989084004E+03  0.00000000000E+00 0. -1.
         -3    1    3    3    0  502  0.74546789281E+02 -0.95125141934E+02 -0.23464116499E+03  0.26393653163E+03  0.00000000000E+00 0.  1.
         13    1    5    5    0    0  0.50228923952E+01  0.21521561601E+03 -0.74763377343E+03  0.77800980071E+03  0.00000000000E+00 0. -1.
        -13    1    5    5    0    0  0.37720272656E+02  0.36437887831E+02 -0.12081588561E+03  0.13170807437E+03  0.00000000000E+00 0.  1.
          3    1    4    4  503    0 -0.81188492823E+02 -0.46098918800E+02  0.32514690974E+02  0.98862969865E+02  0.00000000000E+00 0.  1.
         -3    1    4    4    0  503 -0.40692172651E+02  0.22138738820E+02  0.18359347011E+03  0.18934766685E+03  0.00000000000E+00 0. -1.
<mgrwt>
<rscale>  0 0.13330853E+04</rscale>
<asrwt>0</asrwt>
<pdfrwt beam="1">  1        2 0.22606188E+00 0.13330853E+04</pdfrwt>
<pdfrwt beam="2">  1       -1 0.46515944E-01 0.13330853E+04</pdfrwt>
<totfact> 0.67737478E+01</totfact>
</mgrwt>
</event>
<event>
12    7  0.1497947E-008  0.2562244E+04  0.7818608E-02  0.8381140E-01
         -1   -1    0    0    0  501 -0.00000000000E+00  0.00000000000E+00  0.98573409908E+03  0.98573409908E+03  0.00000000000E+00 0.  1.
          2   -1    0    0  501    0  0.00000000000E+00 -0.00000000000E+00 -0.16650268335E+04  0.16650268335E+04  0.00000000000E+00 0. -1.
         24    2    1    2    0    0  0.60827777806E+02 -0.45510709463E+03  0.76121313086E+03  0.89240724124E+03  0.78248114896E+02 0.  0.
        254    2    1    2    0    0 -0.60827777806E+02  0.45510709463E+03 -0.14405058653E+04  0.17583536913E+04  0.89773496631E+03 0.  0.
         23    2    4    4    0    0 -0.38639512266E+03  0.51087675080E+03 -0.10615736881E+04  0.12433367589E+04  0.93012663102E+02 0.  0.
         23    2    4    4    0    0  0.32556734485E+03 -0.55769656165E+02 -0.37893217715E+03  0.51501693237E+03  0.11202006593E+03 0.  0.
          2    1    3    3  502    0 -0.17153887624E+02 -0.14294171763E+03  0.22940314847E+03  0.27083647285E+03  0.00000000000E+00 0. -1.
         -1    1    3    3    0  502  0.77981665430E+02 -0.31216537701E+03  0.53180998239E+03  0.62157076839E+03  0.00000000000E+00 0.  1.
         13    1    5    5    0    0 -0.32735614462E+03  0.37298177534E+03 -0.84342871218E+03  0.97859564821E+03  0.00000000000E+00 0.  1.
        -13    1    5    5    0    0 -0.59038978041E+02  0.13789497546E+03 -0.21814497594E+03  0.26474111074E+03  0.00000000000E+00 0. -1.
          4    1    6    6  503    0 -0.13234324842E+01  0.10253702988E+02 -0.14144365023E+00  0.10339724601E+02  0.00000000000E+00 0. -1.
         -4    1    6    6    0  503  0.32689077734E+03 -0.66023359154E+02 -0.37879073350E+03  0.50467720777E+03  0.00000000000E+00 0.  1.
<mgrwt>
<rscale>  0 0.25622441E+04</rscale>
<asrwt>0</asrwt>
<pdfrwt beam="1">  1        2 0.25615797E+00 0.25622441E+04</pdfrwt>
<pdfrwt beam="2">  1       -1 0.15165140E+00 0.25622441E+04</pdfrwt>
<totfact> 0.35099038E+00</totfact>
</mgrwt>
</event>
<event>
11    7  0.1497947E-008  0.1334785E+04  0.7818608E-02  0.9002426E-01
          2   -1    0    0  501    0  0.00000000000E+00  0.00000000000E+00  0.16342041794E+04  0.16342041794E+04  0.00000000000E+00 0. -1.
         -1   -1    0    0    0  501 -0.00000000000E+00 -0.00000000000E+00 -0.27255641434E+03  0.27255641434E+03  0.00000000000E+00 0.  1.
         24    2    1    2    0    0  0.97404290525E+02 -0.23473725373E+03  0.13006571993E+02  0.26676805800E+03  0.80042811984E+02 0.  0.
        254    2    1    2    0    0 -0.97404290525E+02  0.23473725373E+03  0.13486411931E+04  0.16399925357E+04  0.89786038756E+03 0.  0.
         23    2    4    4    0    0 -0.23151227043E+03  0.44697966383E+02 -0.24205165776E+00  0.25217278630E+03  0.89415971729E+02 0.  0.
          2    1    3    3  502    0  0.92515884345E+02 -0.23873150996E+03  0.43675191098E+01  0.25606834620E+03  0.00000000000E+00 0. -1.
         -1    1    3    3    0  502  0.48884061802E+01  0.39942562270E+01  0.86390528828E+01  0.10699711795E+02  0.00000000000E+00 0.  1.
         13    1    5    5    0    0 -0.15517279067E+03  0.24399824550E+02  0.41997021827E+02  0.16259672889E+03  0.00000000000E+00 0.  1.
        -13    1    5    5    0    0 -0.76339479762E+02  0.20298141833E+02 -0.42239073485E+02  0.89576057410E+02  0.00000000000E+00 0. -1.
          1    1    4    4  503    0  0.12820516893E+03  0.23861791805E+02  0.31943432439E+03  0.34502788010E+03  0.00000000000E+00 0. -1.
         -1    1    4    4    0  503  0.59028109785E+01  0.16617749555E+03  0.10294489203E+04  0.10427918693E+04  0.00000000000E+00 0.  1.
<mgrwt>
<rscale>  0 0.13347851E+04</rscale>
<asrwt>0</asrwt>
<pdfrwt beam="1">  1        2 0.25141602E+00 0.13347851E+04</pdfrwt>
<pdfrwt beam="2">  1       -1 0.41931757E-01 0.13347851E+04</pdfrwt>
<totfact> 0.66380335E+01</totfact>
</mgrwt>
</event>
<event>
12    7  0.1497947E-008  0.2010250E+04  0.7818608E-02  0.8601843E-01
         -1   -1    0    0    0  501 -0.00000000000E+00  0.00000000000E+00  0.10962778641E+04  0.10962778641E+04  0.00000000000E+00 0.  1.
          2   -1    0    0  501    0  0.00000000000E+00 -0.00000000000E+00 -0.92155165501E+03  0.92155165501E+03  0.00000000000E+00 0. -1.
         24    2    1    2    0    0 -0.63272784449E+03  0.25818903138E+03 -0.35115355389E+03  0.77240077957E+03  0.79297192561E+02 0.  0.
        254    2    1    2    0    0  0.63272784449E+03 -0.25818903138E+03  0.52587976302E+03  0.12454287396E+04  0.89863069118E+03 0.  0.
         23    2    4    4    0    0 -0.14051473904E+03  0.68383100174E+02  0.33364496868E+03  0.38259661822E+03  0.10315312345E+03 0.  0.
         23    2    4    4    0    0  0.77324258352E+03 -0.32657213155E+03  0.19223479435E+03  0.86283212137E+03  0.54512415382E+02 0.  0.
          2    1    3    3  502    0 -0.60290626744E+03  0.22619382342E+03 -0.32325999083E+03  0.72052524920E+03  0.00000000000E+00 0. -1.
         -1    1    3    3    0  502 -0.29821577052E+02  0.31995207959E+02 -0.27893563058E+02  0.51875530362E+02  0.00000000000E+00 0.  1.
         13    1    5    5    0    0 -0.62253263920E+02 -0.16025671923E+02  0.17621335239E+03  0.18757248356E+03  0.00000000000E+00 0.  1.
        -13    1    5    5    0    0 -0.78261475115E+02  0.84408772097E+02  0.15743161629E+03  0.19502413466E+03  0.00000000000E+00 0. -1.
          2    1    6    6  503    0  0.58550927734E+03 -0.27223753866E+03  0.14669184401E+03  0.66215775190E+03  0.00000000000E+00 0. -1.
         -2    1    6    6    0  503  0.18773330619E+03 -0.54334592887E+02  0.45542950340E+02  0.20067436947E+03  0.00000000000E+00 0.  1.
<mgrwt>
<rscale>  0 0.20102504E+04</rscale>
<asrwt>0</asrwt>
<pdfrwt beam="1">  1        2 0.14177718E+00 0.20102504E+04</pdfrwt>
<pdfrwt beam="2">  1       -1 0.16865813E+00 0.20102504E+04</pdfrwt>
<totfact> 0.75603990E+00</totfact>
</mgrwt>
</event>
<event>
12    7  0.1497947E-008  0.1159323E+04  0.7818608E-02  0.9149225E-01
          2   -1    0    0  501    0  0.00000000000E+00  0.00000000000E+00  0.40689153799E+03  0.40689153799E+03  0.00000000000E+00 0. -1.
         -1   -1    0    0    0  501 -0.00000000000E+00 -0.00000000000E+00 -0.82579122518E+03  0.82579122518E+03  0.00000000000E+00 0.  1.
         24    2    1    2    0    0 -0.69431869309E+02  0.12970162314E+03  0.70545295849E+02  0.18190348744E+03  0.80429748566E+02 0.  0.
        254    2    1    2    0    0  0.69431869309E+02 -0.12970162314E+03 -0.48944498304E+03  0.10507792757E+04  0.91811622323E+03 0.  0.
         23    2    4    4    0    0  0.54063280190E+01 -0.14969870908E+03 -0.74476729461E+03  0.76617120510E+03  0.99504072844E+02 0.  0.
         23    2    4    4    0    0  0.64025541290E+02  0.19997085939E+02  0.25532231157E+03  0.28460807063E+03  0.10636314069E+03 0.  0.
          4    1    3    3  502    0 -0.14282674401E+02  0.96569057942E+02  0.65103138399E+02  0.11733710568E+03  0.00000000000E+00 0. -1.
         -3    1    3    3    0  502 -0.55149194908E+02  0.33132565200E+02  0.54421574500E+01  0.64566381759E+02  0.00000000000E+00 0.  1.
         13    1    5    5    0    0  0.19906587411E+02 -0.78353861650E+02 -0.58547598108E+03  0.59103106880E+03  0.00000000000E+00 0. -1.
        -13    1    5    5    0    0 -0.14500259392E+02 -0.71344847432E+02 -0.15929131353E+03  0.17514013630E+03  0.00000000000E+00 0.  1.
          3    1    6    6  503    0 -0.55028863283E+01  0.49760869584E+02  0.10569858081E+03  0.11695561502E+03  0.00000000000E+00 0. -1.
         -3    1    6    6    0  503  0.69528427618E+02 -0.29763783645E+02  0.14962373076E+03  0.16765245561E+03  0.00000000000E+00 0.  1.
<mgrwt>
<rscale>  0 0.11593230E+04</rscale>
<asrwt>0</asrwt>
<pdfrwt beam="1">  1        2 0.62598699E-01 0.11593230E+04</pdfrwt>
<pdfrwt beam="2">  1       -1 0.12704480E+00 0.11593230E+04</pdfrwt>
<totfact> 0.47473143E+01</totfact>
</mgrwt>
</event>
<event>
11    7  0.1497947E-008  0.2110344E+04  0.7818608E-02  0.8556700E-01
          2   -1    0    0  501    0  0.00000000000E+00  0.00000000000E+00  0.19882257849E+04  0.19882257849E+04  0.00000000000E+00 0. -1.
         -1   -1    0    0    0  501 -0.00000000000E+00 -0.00000000000E+00 -0.55999092672E+03  0.55999092672E+03  0.00000000000E+00 0.  1.
         24    2    1    2    0    0  0.78896447933E+03 -0.14355358417E+03  0.20724439397E+03  0.83465544238E+03  0.10308679593E+03 0.  0.
        254    2    1    2    0    0 -0.78896447933E+03  0.14355358417E+03  0.12209904642E+04  0.17135612692E+04  0.89576890354E+03 0.  0.
         23    2    4    4    0    0 -0.68664272848E+03  0.16326437146E+03  0.13257883799E+04  0.15047357578E+04  0.91549883189E+02 0.  0.
          4    1    3    3  502    0  0.37417838932E+03 -0.49533091388E+02  0.14719413862E+03  0.40512850877E+03  0.00000000000E+00 0. -1.
         -3    1    3    3    0  502  0.41478609001E+03 -0.94020492785E+02  0.60050255349E+02  0.42952693361E+03  0.00000000000E+00 0.  1.
         13    1    5    5    0    0 -0.12734673054E+01  0.24594911592E+01 -0.83885412218E+00  0.28938714516E+01  0.00000000000E+00 0.  1.
        -13    1    5    5    0    0 -0.68536926117E+03  0.16080488030E+03  0.13266272340E+04  0.15018418864E+04  0.00000000000E+00 0. -1.
          1    1    4    4  503    0  0.65183077868E+01  0.41405711311E+02 -0.65861645691E+02  0.78068416397E+02  0.00000000000E+00 0. -1.
         -1    1    4    4    0  503 -0.10884005864E+03 -0.61116498598E+02 -0.38936270008E+02  0.13075709498E+03  0.00000000000E+00 0.  1.
<mgrwt>
<rscale>  0 0.21103444E+04</rscale>
<asrwt>0</asrwt>
<pdfrwt beam="1">  1        2 0.30588089E+00 0.21103444E+04</pdfrwt>
<pdfrwt beam="2">  1       -1 0.86152452E-01 0.21103444E+04</pdfrwt>
<totfact> 0.94521791E+00</totfact>
</mgrwt>
</event>
<event>
11    7  0.1497947E-008  0.3206368E+04  0.7818608E-02  0.8187137E-01
          2   -1    0    0  501    0  0.00000000000E+00  0.00000000000E+00  0.13221842798E+04  0.13221842798E+04  0.00000000000E+00 0. -1.
         -1   -1    0    0    0  501 -0.00000000000E+00 -0.00000000000E+00 -0.19439034882E+04  0.19439034882E+04  0.00000000000E+00 0.  1.
         24    2    1    2    0    0 -0.12798634640E+04  0.73580536203E+02  0.45133407153E+03  0.13616278458E+04  0.82845425609E+02 0.  0.
        254    2    1    2    0    0  0.12798634640E+04 -0.73580536203E+02 -0.10730532799E+04  0.19044599222E+04  0.91217304940E+03 0.  0.
         23    2    4    4    0    0  0.82968629021E+03  0.37199104558E+03 -0.68231231709E+03  0.11406870826E+04  0.94128870400E+02 0.  0.
          4    1    3    3  502    0 -0.96457115682E+03  0.84863502280E+02  0.31881691179E+03  0.10194329570E+04  0.00000000000E+00 0. -1.
         -3    1    3    3    0  502 -0.31529230716E+03 -0.11282966077E+02  0.13251715974E+03  0.34219488877E+03  0.00000000000E+00 0.  1.
         13    1    5    5    0    0  0.62068535884E+03  0.32193541122E+03 -0.52249709472E+03  0.87286650621E+03  0.00000000000E+00 0. -1.
        -13    1    5    5    0    0  0.20900093137E+03  0.50055634361E+02 -0.15981522237E+03  0.26782057641E+03  0.00000000000E+00 0.  1.
          1    1    4    4  503    0  0.18090699937E+03 -0.29325584633E+03 -0.17375386811E+03  0.38589731861E+03  0.00000000000E+00 0. -1.
         -1    1    4    4    0  503  0.26927017439E+03 -0.15231573546E+03 -0.21698709470E+03  0.37787552097E+03  0.00000000000E+00 0.  1.
<mgrwt>
<rscale>  0 0.32063678E+04</rscale>
<asrwt>0</asrwt>
<pdfrwt beam="1">  1        2 0.20341297E+00 0.32063678E+04</pdfrwt>
<pdfrwt beam="2">  1       -1 0.29906207E+00 0.32063678E+04</pdfrwt>
<totfact> 0.51506386E-01</totfact>
</mgrwt>
</event>
<event>
12    7  0.1497947E-008  0.1762278E+04  0.7818608E-02  0.8726621E-01
          2   -1    0    0  501    0  0.00000000000E+00  0.00000000000E+00  0.57326404703E+03  0.57326404703E+03  0.00000000000E+00 0. -1.
         -1   -1    0    0    0  501 -0.00000000000E+00 -0.00000000000E+00 -0.13543602694E+04  0.13543602694E+04  0.00000000000E+00 0.  1.
         24    2    1    2    0    0 -0.10731184013E+03 -0.55825303671E+03 -0.65286067433E+03  0.86847012858E+03  0.69649265055E+02 0.  0.
        254    2    1    2    0    0  0.10731184013E+03  0.55825303671E+03 -0.12823554803E+03  0.10591541878E+04  0.88442125361E+03 0.  0.
         23    2    4    4    0    0 -0.30269416781E+03  0.31663254452E+03  0.17951300542E+03  0.48221139613E+03  0.91776816048E+02 0.  0.
         23    2    4    4    0    0  0.41000600794E+03  0.24162049219E+03 -0.30774855346E+03  0.57694279172E+03  0.10802047938E+03 0.  0.
          4    1    3    3  502    0 -0.35322774899E+02 -0.10494181525E+03 -0.93704411705E+02  0.14505516119E+03  0.00000000000E+00 0. -1.
         -3    1    3    3    0  502 -0.71989065233E+02 -0.45331122146E+03 -0.55915626262E+03  0.72341496739E+03  0.00000000000E+00 0.  1.
         13    1    5    5    0    0 -0.34104903700E+02  0.67648143388E+02  0.34240565168E+01  0.75836270499E+02  0.00000000000E+00 0. -1.
        -13    1    5    5    0    0 -0.26858926411E+03  0.24898440113E+03  0.17608894891E+03  0.40637512563E+03  0.00000000000E+00 0.  1.
          4    1    6    6  503    0  0.16734487123E+03  0.14607504705E+03 -0.10040514584E+03  0.24376919126E+03  0.00000000000E+00 0. -1.
         -4    1    6    6    0  503  0.24266113672E+03  0.95545445138E+02 -0.20734340762E+03  0.33317360046E+03  0.00000000000E+00 0.  1.
<mgrwt>
<rscale>  0 0.17622781E+04</rscale>
<asrwt>0</asrwt>
<pdfrwt beam="1">  1        2 0.88194469E-01 0.17622781E+04</pdfrwt>
<pdfrwt beam="2">  1       -1 0.20836312E+00 0.17622781E+04</pdfrwt>
<totfact> 0.74749025E+00</totfact>
</mgrwt>
</event>
<event>
12    7  0.1497947E-008  0.1284711E+04  0.7818608E-02  0.9041778E-01
          2   -1    0    0  501    0  0.00000000000E+00  0.00000000000E+00  0.74811766095E+03  0.74811766095E+03  0.00000000000E+00 0. -1.
         -1   -1    0    0    0  501 -0.00000000000E+00 -0.00000000000E+00 -0.55154489764E+03  0.55154489764E+03  0.00000000000E+00 0.  1.
         24    2    1    2    0    0  0.11584903516E+03  0.55733262705E+02 -0.24768686317E+03  0.28427641654E+03  0.54195048583E+02 0.  0.
        254    2    1    2    0    0 -0.11584903516E+03 -0.55733262705E+02  0.44425962648E+03  0.10153861421E+04  0.90394424951E+03 0.  0.
         23    2    4    4    0    0  0.21236728647E+03  0.82198965850E+02 -0.17271157556E+03  0.29926348709E+03  0.88728868017E+02 0.  0.
         23    2    4    4    0    0 -0.32821632163E+03 -0.13793222856E+03  0.61697120204E+03  0.71612265497E+03  0.73667763280E+02 0.  0.
          4    1    3    3  502    0  0.91486183583E+01  0.22159353245E+02 -0.73087872067E+02  0.76919251150E+02  0.00000000000E+00 0. -1.
         -3    1    3    3    0  502  0.10670041680E+03  0.33573909460E+02 -0.17459899111E+03  0.20735716539E+03  0.00000000000E+00 0.  1.
         13    1    5    5    0    0  0.28397131495E+02 -0.27726709194E+01 -0.62226265612E+02  0.68455773410E+02  0.00000000000E+00 0. -1.
        -13    1    5    5    0    0  0.18397015498E+03  0.84971636770E+02 -0.11048530995E+03  0.23080771368E+03  0.00000000000E+00 0.  1.
          3    1    6    6  503    0 -0.21503796079E+03 -0.90042208927E+02  0.46921554209E+03  0.52393906985E+03  0.00000000000E+00 0. -1.
         -3    1    6    6    0  503 -0.11317836084E+03 -0.47890019628E+02  0.14775565995E+03  0.19218358512E+03  0.00000000000E+00 0.  1.
<mgrwt>
<rscale>  0 0.12847108E+04</rscale>
<asrwt>0</asrwt>
<pdfrwt beam="1">  1        2 0.11509502E+00 0.12847108E+04</pdfrwt>
<pdfrwt beam="2">  1       -1 0.84853062E-01 0.12847108E+04</pdfrwt>
<totfact> 0.57959149E+01</totfact>
</mgrwt>
</event>
<event>
11    7  0.1497947E-008  0.1151234E+04  0.7818608E-02  0.9156646E-01
         -3   -1    0    0    0  501 -0.00000000000E+00  0.00000000000E+00  0.79824004833E+03  0.79824004833E+03  0.00000000000E+00 0.  1.
          4   -1    0    0  501    0  0.00000000000E+00 -0.00000000000E+00 -0.41508193912E+03  0.41508193912E+03  0.00000000000E+00 0. -1.
         24    2    1    2    0    0 -0.57063086538E+02  0.12724713098E+03 -0.92116001341E+02  0.18521066752E+03  0.79809808119E+02 0.  0.
        254    2    1    2    0    0  0.57063086538E+02 -0.12724713098E+03  0.47527411055E+03  0.10281113199E+04  0.90093250458E+03 0.  0.
         23    2    4    4    0    0 -0.19684537878E+03 -0.35626771108E+03  0.48700478443E+03  0.64107230254E+03  0.90140179315E+02 0.  0.
          4    1    3    3  502    0 -0.41461588321E+02  0.41222073199E+02 -0.76685182207E+02  0.96431010547E+02  0.00000000000E+00 0. -1.
         -3    1    3    3    0  502 -0.15601498217E+02  0.86025057786E+02 -0.15430819134E+02  0.88779656976E+02  0.00000000000E+00 0.  1.
         13    1    5    5    0    0 -0.19974898489E+03 -0.33985485275E+03  0.43782540119E+03  0.58914519418E+03  0.00000000000E+00 0.  1.
        -13    1    5    5    0    0  0.29036061065E+01 -0.16412858329E+02  0.49179383239E+02  0.51927108361E+02  0.00000000000E+00 0. -1.
          3    1    4    4  503    0  0.11052056451E+02 -0.14997245559E+02  0.34960293324E+02  0.39614232738E+02  0.00000000000E+00 0. -1.
         -3    1    4    4    0  503  0.24285640887E+03  0.24401782565E+03 -0.46690967199E+02  0.34742478464E+03  0.00000000000E+00 0.  1.
<mgrwt>
<rscale>  0 0.11512342E+04</rscale>
<asrwt>0</asrwt>
<pdfrwt beam="1">  1        4 0.63858760E-01 0.11512342E+04</pdfrwt>
<pdfrwt beam="2">  1       -3 0.12280616E+00 0.11512342E+04</pdfrwt>
<totfact> 0.27684019E+00</totfact>
</mgrwt>
</event>
<event>
11    7  0.1497947E-008  0.1389780E+04  0.7818608E-02  0.8961250E-01
          2   -1    0    0  501    0  0.00000000000E+00  0.00000000000E+00  0.60314941527E+03  0.60314941527E+03  0.00000000000E+00 0. -1.
         -1   -1    0    0    0  501 -0.00000000000E+00 -0.00000000000E+00 -0.80058443403E+03  0.80058443403E+03  0.00000000000E+00 0.  1.
         24    2    1    2    0    0  0.21036022326E+03  0.10144434510E+01 -0.38793066350E+03  0.44889661794E+03  0.82252788942E+02 0.  0.
        254    2    1    2    0    0 -0.21036022326E+03 -0.10144434510E+01  0.19049564473E+03  0.95483723136E+03  0.91168695017E+03 0.  0.
         23    2    4    4    0    0 -0.43513694968E+03 -0.44656566208E+02 -0.19204330782E+03  0.48623503743E+03  0.90584246269E+02 0.  0.
          2    1    3    3  502    0  0.29037401784E+02 -0.23223416710E+02 -0.33533650287E+02  0.50069985896E+02  0.00000000000E+00 0. -1.
         -1    1    3    3    0  502  0.18132282148E+03  0.24237860161E+02 -0.35439701321E+03  0.39882663204E+03  0.00000000000E+00 0.  1.
         13    1    5    5    0    0 -0.26394549410E+03 -0.36666275395E+01 -0.73506918486E+02  0.27401447969E+03  0.00000000000E+00 0.  1.
        -13    1    5    5    0    0 -0.17119145557E+03 -0.40989938668E+02 -0.11853638933E+03  0.21222055774E+03  0.00000000000E+00 0. -1.
          1    1    4    4  503    0  0.13639815382E+03  0.94335998376E+02  0.20261032966E+03  0.26182949154E+03  0.00000000000E+00 0. -1.
         -1    1    4    4    0  503  0.88378572593E+02 -0.50693875619E+02  0.17992862289E+03  0.20677270239E+03  0.00000000000E+00 0.  1.
<mgrwt>
<rscale>  0 0.13897799E+04</rscale>
<asrwt>0</asrwt>
<pdfrwt beam="1">  1        2 0.92792218E-01 0.13897799E+04</pdfrwt>
<pdfrwt beam="2">  1       -1 0.12316684E+00 0.13897799E+04</pdfrwt>
<totfact> 0.31857205E+01</totfact>
</mgrwt>
</event>
<event>
12    7  0.1497947E-008  0.1054765E+04  0.7818608E-02  0.9250438E-01
          2   -1    0    0  501    0  0.00000000000E+00  0.00000000000E+00  0.22933930547E+04  0.22933930547E+04  0.00000000000E+00 0. -1.
         -1   -1    0    0    0  501 -0.00000000000E+00 -0.00000000000E+00 -0.12127541917E+03  0.12127541917E+03  0.00000000000E+00 0.  1.
         24    2    1    2    0    0 -0.76445335869E+02 -0.62635249816E+02  0.39222022876E+03  0.41224654388E+03  0.79645723007E+02 0.  0.
        254    2    1    2    0    0  0.76445335869E+02  0.62635249816E+02  0.17798974067E+04  0.20024219299E+04  0.91208099595E+03 0.  0.
         23    2    4    4    0    0  0.39154668904E+03  0.11910881559E+03  0.39277875670E+03  0.57433404861E+03  0.89937356151E+02 0.  0.
         23    2    4    4    0    0 -0.31510135317E+03 -0.56473565770E+02  0.13871186500E+04  0.14280878813E+04  0.11339630140E+03 0.  0.
          2    1    3    3  502    0 -0.55008287207E+02 -0.38612643706E+02  0.36167338394E+03  0.36786476397E+03  0.00000000000E+00 0. -1.
         -1    1    3    3    0  502 -0.21437048662E+02 -0.24022606110E+02  0.30546844817E+02  0.44381779909E+02  0.00000000000E+00 0.  1.
         13    1    5    5    0    0  0.81566545260E+02  0.41344221226E+02  0.44674621425E+02  0.10177557533E+03  0.00000000000E+00 0.  1.
        -13    1    5    5    0    0  0.30998014378E+03  0.77764594359E+02  0.34810413528E+03  0.47255847328E+03  0.00000000000E+00 0. -1.
          1    1    6    6  503    0 -0.32179334516E+03 -0.44873497245E+02  0.13022857535E+04  0.13422044447E+04  0.00000000000E+00 0. -1.
         -1    1    6    6    0  503  0.66919919883E+01 -0.11600068525E+02  0.84832896560E+02  0.85883436618E+02  0.00000000000E+00 0.  1.
<mgrwt>
<rscale>  0 0.10547648E+04</rscale>
<asrwt>0</asrwt>
<pdfrwt beam="1">  1        2 0.35282967E+00 0.10547648E+04</pdfrwt>
<pdfrwt beam="2">  1       -1 0.18657758E-01 0.10547648E+04</pdfrwt>
<totfact> 0.11991370E+02</totfact>
</mgrwt>
</event>
<event>
11    7  0.1497947E-008  0.1198310E+04  0.7818608E-02  0.9114337E-01
         -1   -1    0    0    0  501 -0.00000000000E+00  0.00000000000E+00  0.41411554813E+03  0.41411554813E+03  0.00000000000E+00 0.  1.
          2   -1    0    0  501    0  0.00000000000E+00 -0.00000000000E+00 -0.86687590408E+03  0.86687590408E+03  0.00000000000E+00 0. -1.
         24    2    1    2    0    0  0.18645198140E+03  0.15798733273E+03 -0.50536986785E+02  0.26172166724E+03  0.78866376844E+02 0.  0.
        254    2    1    2    0    0 -0.18645198140E+03 -0.15798733273E+03 -0.40222336917E+03  0.10192697850E+04  0.90410337749E+03 0.  0.
         23    2    4    4    0    0 -0.98438616897E+02  0.35885306342E+03 -0.25245617681E+03  0.45856770797E+03  0.89914065436E+02 0.  0.
          2    1    3    3  502    0  0.62627954596E+02  0.29373776069E+02 -0.46111207139E+02  0.83134366186E+02  0.00000000000E+00 0. -1.
         -1    1    3    3    0  502  0.12382402681E+03  0.12861355666E+03 -0.44257796465E+01  0.17858730105E+03  0.00000000000E+00 0.  1.
         13    1    5    5    0    0 -0.82482209487E+02  0.35228790847E+03 -0.25267814880E+03  0.44131205764E+03  0.00000000000E+00 0.  1.
        -13    1    5    5    0    0 -0.15956407410E+02  0.65651549548E+01  0.22197199107E+00  0.17255650337E+02  0.00000000000E+00 0. -1.
          3    1    4    4  503    0  0.15864374744E+02 -0.21406563489E+02  0.12075256839E+02  0.29252883177E+02  0.00000000000E+00 0. -1.
         -3    1    4    4    0  503 -0.10387773925E+03 -0.49543383266E+03 -0.16184244920E+03  0.53144919383E+03  0.00000000000E+00 0.  1.
<mgrwt>
<rscale>  0 0.11983101E+04</rscale>
<asrwt>0</asrwt>
<pdfrwt beam="1">  1        2 0.13336552E+00 0.11983101E+04</pdfrwt>
<pdfrwt beam="2">  1       -1 0.63710085E-01 0.11983101E+04</pdfrwt>
<totfact> 0.86949167E+01</totfact>
</mgrwt>
</event>
<event>
12    7  0.1497947E-008  0.1427437E+04  0.7818608E-02  0.8934194E-01
          2   -1    0    0  501    0  0.00000000000E+00  0.00000000000E+00  0.26836296781E+04  0.26836296781E+04  0.00000000000E+00 0. -1.
         -1   -1    0    0    0  501 -0.00000000000E+00 -0.00000000000E+00 -0.18981547020E+03  0.18981547020E+03  0.00000000000E+00 0.  1.
         24    2    1    2    0    0  0.99320537806E+02 -0.15887684538E+03  0.14942862915E+04  0.15080861449E+04  0.79535389412E+02 0.  0.
        254    2    1    2    0    0 -0.99320537806E+02  0.15887684538E+03  0.99952791646E+03  0.13653590035E+04  0.91106680952E+03 0.  0.
         23    2    4    4    0    0  0.78091702027E+02  0.17433625159E+03 -0.11023512527E+03  0.23901686008E+03  0.92118586695E+02 0.  0.
         23    2    4    4    0    0 -0.17741223983E+03 -0.15459406208E+02  0.11097630417E+04  0.11263421434E+04  0.73201906816E+02 0.  0.
          4    1    3    3  502    0  0.28286154266E+02 -0.11255170784E+03  0.98110992333E+03  0.98794973309E+03  0.00000000000E+00 0. -1.
         -3    1    3    3    0  502  0.71034383540E+02 -0.46325137544E+02  0.51317636815E+03  0.52013641176E+03  0.00000000000E+00 0.  1.
         13    1    5    5    0    0 -0.11918692322E+02  0.16957173749E+02 -0.39111613444E+02  0.44264198563E+02  0.00000000000E+00 0. -1.
        -13    1    5    5    0    0  0.90010394349E+02  0.15737907784E+03 -0.71123511823E+02  0.19475266152E+03  0.00000000000E+00 0.  1.
          3    1    6    6  503    0 -0.37680629370E+02  0.26508091237E+02  0.23089618761E+03  0.23544756993E+03  0.00000000000E+00 0. -1.
         -3    1    6    6    0  503 -0.13973161046E+03 -0.41967497445E+02  0.87886685411E+03  0.89089457349E+03  0.00000000000E+00 0.  1.
<mgrwt>
<rscale>  0 0.14274375E+04</rscale>
<asrwt>0</asrwt>
<pdfrwt beam="1">  1        2 0.41286608E+00 0.14274375E+04</pdfrwt>
<pdfrwt beam="2">  1       -1 0.29202382E-01 0.14274375E+04</pdfrwt>
<totfact> 0.32303471E+01</totfact>
</mgrwt>
</event>
<event>
11    7  0.1497947E-008  0.2060746E+04  0.7818608E-02  0.8578735E-01
         -1   -1    0    0    0  501 -0.00000000000E+00  0.00000000000E+00  0.37388669308E+03  0.37388669308E+03  0.00000000000E+00 0.  1.
          2   -1    0    0  501    0  0.00000000000E+00 -0.00000000000E+00 -0.28395458272E+04  0.28395458272E+04  0.00000000000E+00 0. -1.
         24    2    1    2    0    0 -0.27269886477E+03 -0.65899461652E+03 -0.16641628734E+04  0.18123689648E+04  0.81268812689E+02 0.  0.
        254    2    1    2    0    0  0.27269886477E+03  0.65899461652E+03 -0.80149626076E+03  0.14010635555E+04  0.90107949436E+03 0.  0.
         23    2    4    4    0    0  0.19449332232E+03 -0.49724494644E+02 -0.60126002052E+03  0.64016901307E+03  0.89457113903E+02 0.  0.
          4    1    3    3  502    0 -0.48983709620E+02 -0.85043930441E+02 -0.17159960186E+03  0.19768231401E+03  0.00000000000E+00 0. -1.
         -3    1    3    3    0  502 -0.22371515515E+03 -0.57395068608E+03 -0.14925632715E+04  0.16146866508E+04  0.00000000000E+00 0.  1.
         13    1    5    5    0    0  0.16177844443E+03 -0.37895993213E+02 -0.56886149176E+03  0.59263122445E+03  0.00000000000E+00 0. -1.
        -13    1    5    5    0    0  0.32714877888E+02 -0.11828501431E+02 -0.32398528758E+02  0.47537788621E+02  0.00000000000E+00 0.  1.
          3    1    4    4  503    0  0.42420056196E+02  0.18988838864E+03  0.21061550927E+02  0.19570551917E+03  0.00000000000E+00 0. -1.
         -3    1    4    4    0  503  0.35785486259E+02  0.51883072252E+03 -0.22129779116E+03  0.56518902328E+03  0.00000000000E+00 0.  1.
<mgrwt>
<rscale>  0 0.20607459E+04</rscale>
<asrwt>0</asrwt>
<pdfrwt beam="1">  1        2 0.43685320E+00 0.20607459E+04</pdfrwt>
<pdfrwt beam="2">  1       -1 0.57521030E-01 0.20607459E+04</pdfrwt>
<totfact> 0.70568001E+00</totfact>
</mgrwt>
</event>
<event>
12    7  0.1497947E-008  0.1720450E+04  0.7818608E-02  0.8749786E-01
         -1   -1    0    0    0  501 -0.00000000000E+00  0.00000000000E+00  0.51640109191E+03  0.51640109191E+03  0.00000000000E+00 0.  1.
          2   -1    0    0  501    0  0.00000000000E+00 -0.00000000000E+00 -0.14329698551E+04  0.14329698551E+04  0.00000000000E+00 0. -1.
         24    2    1    2    0    0  0.32861171242E+03 -0.55775326887E+03 -0.37603756123E+03  0.75359228950E+03  0.86155237019E+02 0.  0.
        254    2    1    2    0    0 -0.32861171242E+03  0.55775326887E+03 -0.54053120201E+03  0.11957786576E+04  0.84772533939E+03 0.  0.
         23    2    4    4    0    0 -0.25378321923E+02  0.58809208541E+03 -0.38482408774E+02  0.59767107008E+03  0.96090853272E+02 0.  0.
         23    2    4    4    0    0 -0.30323339050E+03 -0.30338816533E+02 -0.50204879323E+03  0.59810758748E+03  0.11317580356E+03 0.  0.
          2    1    3    3  502    0  0.28503923560E+03 -0.49299509956E+03 -0.29601277810E+03  0.64180612245E+03  0.00000000000E+00 0. -1.
         -1    1    3    3    0  502  0.43572476825E+02 -0.64758169317E+02 -0.80024783126E+02  0.11178616705E+03  0.00000000000E+00 0.  1.
         13    1    5    5    0    0 -0.74961543273E+01  0.49385181715E+03  0.10824998261E+01  0.49390989203E+03  0.00000000000E+00 0.  1.
        -13    1    5    5    0    0 -0.17882167596E+02  0.94240268253E+02 -0.39564908600E+02  0.10376117805E+03  0.00000000000E+00 0. -1.
          1    1    6    6  503    0 -0.46890862029E+02 -0.11980540439E+02 -0.17830879648E+03  0.18476015045E+03  0.00000000000E+00 0. -1.
         -1    1    6    6    0  503 -0.25634252847E+03 -0.18358276094E+02 -0.32373999675E+03  0.41334743703E+03  0.00000000000E+00 0.  1.
<mgrwt>
<rscale>  0 0.17204502E+04</rscale>
<asrwt>0</asrwt>
<pdfrwt beam="1">  1        2 0.22045690E+00 0.17204502E+04</pdfrwt>
<pdfrwt beam="2">  1       -1 0.79446323E-01 0.17204502E+04</pdfrwt>
<totfact> 0.23750808E+01</totfact>
</mgrwt>
</event>
<event>
12    7  0.1497947E-008  0.1271417E+04  0.7818608E-02  0.9052544E-01
         -1   -1    0    0    0  501 -0.00000000000E+00  0.00000000000E+00  0.52427163690E+03  0.52427163690E+03  0.00000000000E+00 0.  1.
          2   -1    0    0  501    0  0.00000000000E+00 -0.00000000000E+00 -0.77083189056E+03  0.77083189056E+03  0.00000000000E+00 0. -1.
         24    2    1    2    0    0 -0.29564252844E+02 -0.10949349698E+03 -0.35106842218E+03  0.37690716562E+03  0.77117465695E+02 0.  0.
        254    2    1    2    0    0  0.29564252844E+02  0.10949349698E+03  0.10450816853E+03  0.91819636184E+03  0.90515177218E+03 0.  0.
         23    2    4    4    0    0  0.35141681072E+03  0.19555326845E+03 -0.20245173020E+03  0.45959410077E+03  0.92223526030E+02 0.  0.
         23    2    4    4    0    0 -0.32185255787E+03 -0.86059771471E+02  0.30695989872E+03  0.45860226107E+03  0.71388382523E+02 0.  0.
          4    1    3    3  502    0 -0.70969806952E+01 -0.57475245251E+02 -0.28044751145E+03  0.28636441404E+03  0.00000000000E+00 0. -1.
         -3    1    3    3    0  502 -0.22467272148E+02 -0.52018251727E+02 -0.70620910735E+02  0.90542751580E+02  0.00000000000E+00 0.  1.
         13    1    5    5    0    0  0.30295395757E+03  0.19384118881E+03 -0.15464419360E+03  0.39149755235E+03  0.00000000000E+00 0. -1.
        -13    1    5    5    0    0  0.48462853150E+02  0.17120796433E+01 -0.47807536592E+02  0.68096548423E+02  0.00000000000E+00 0.  1.
          1    1    6    6  503    0 -0.22219459359E+03 -0.49596108090E+02  0.16409777288E+03  0.28063907502E+03  0.00000000000E+00 0. -1.
         -1    1    6    6    0  503 -0.99657964278E+02 -0.36463663381E+02  0.14286212584E+03  0.17796318605E+03  0.00000000000E+00 0.  1.
<mgrwt>
<rscale>  0 0.12714170E+04</rscale>
<asrwt>0</asrwt>
<pdfrwt beam="1">  1        2 0.11858952E+00 0.12714170E+04</pdfrwt>
<pdfrwt beam="2">  1       -1 0.80657175E-01 0.12714170E+04</pdfrwt>
<totfact> 0.62220615E+01</totfact>
</mgrwt>
</event>
<event>
12    7  0.1497947E-008  0.1489137E+04  0.7818608E-02  0.8891709E-01
          2   -1    0    0  501    0  0.00000000000E+00  0.00000000000E+00  0.24880503664E+04  0.24880503664E+04  0.00000000000E+00 0. -1.
         -1   -1    0    0    0  501 -0.00000000000E+00 -0.00000000000E+00 -0.22281798232E+03  0.22281798232E+03  0.00000000000E+00 0.  1.
         24    2    1    2    0    0 -0.16712253706E+03 -0.56080568524E+02 -0.64154466987E+02  0.20382300522E+03  0.79706017735E+02 0.  0.
        254    2    1    2    0    0  0.16712253706E+03  0.56080568524E+02  0.23293868510E+04  0.25070453435E+04  0.91003202135E+03 0.  0.
         23    2    4    4    0    0 -0.20119385432E+03 -0.30156376844E+03  0.69442187888E+03  0.78863652399E+03  0.91138069133E+02 0.  0.
         23    2    4    4    0    0  0.36831639138E+03  0.35764433696E+03  0.16349649722E+04  0.17184088195E+04  0.12748323335E+03 0.  0.
          4    1    3    3  502    0  0.43136966480E+01 -0.73346908115E+01 -0.17696391608E+02  0.19635884090E+02  0.00000000000E+00 0. -1.
         -3    1    3    3    0  502 -0.17143623371E+03 -0.48745877712E+02 -0.46458075379E+02  0.18418712113E+03  0.00000000000E+00 0.  1.
         13    1    5    5    0    0 -0.10831035839E+03 -0.84121827048E+02  0.26772397625E+03  0.30080515784E+03  0.00000000000E+00 0. -1.
        -13    1    5    5    0    0 -0.92883495927E+02 -0.21744194139E+03  0.42669790263E+03  0.48783136615E+03  0.00000000000E+00 0.  1.
          3    1    6    6  503    0  0.35353668792E+03  0.28980905594E+03  0.14696705255E+04  0.15391260287E+04  0.00000000000E+00 0. -1.
         -3    1    6    6    0  503  0.14779703454E+02  0.67835281024E+02  0.16529444662E+03  0.17928279078E+03  0.00000000000E+00 0.  1.
<mgrwt>
<rscale>  0 0.14891371E+04</rscale>
<asrwt>0</asrwt>
<pdfrwt beam="1">  1        2 0.38277696E+00 0.14891371E+04</pdfrwt>
<pdfrwt beam="2">  1       -1 0.34279691E-01 0.14891371E+04</pdfrwt>
<totfact> 0.31462313E+01</totfact>
</mgrwt>
</event>
<event>
11    7  0.1497947E-008  0.1478857E+04  0.7818608E-02  0.8898636E-01
         -1   -1    0    0    0  501 -0.00000000000E+00  0.00000000000E+00  0.53041953120E+03  0.53041953120E+03  0.00000000000E+00 0.  1.
          2   -1    0    0  501    0  0.00000000000E+00 -0.00000000000E+00 -0.10307957442E+04  0.10307957442E+04  0.00000000000E+00 0. -1.
         24    2    1    2    0    0  0.37266487923E+03  0.19338184680E+03 -0.35982840319E+03  0.55859694290E+03  0.79236443565E+02 0.  0.
        254    2    1    2    0    0 -0.37266487923E+03 -0.19338184680E+03 -0.14054780978E+03  0.10026183325E+04  0.89956332902E+03 0.  0.
         23    2    4    4    0    0 -0.63837167431E+03 -0.17836479240E+03 -0.17180178744E+03  0.69028998016E+03  0.87475761273E+02 0.  0.
          2    1    3    3  502    0  0.23596112931E+03  0.14305180889E+03 -0.27716226105E+03  0.39110151307E+03  0.00000000000E+00 0. -1.
         -1    1    3    3    0  502  0.13670374992E+03  0.50330037907E+02 -0.82666142140E+02  0.16749542983E+03  0.00000000000E+00 0.  1.
         13    1    5    5    0    0 -0.94293260890E+02  0.18608029829E+01 -0.10630896398E+02  0.94908891023E+02  0.00000000000E+00 0.  1.
        -13    1    5    5    0    0 -0.54407841342E+03 -0.18022559539E+03 -0.16117089104E+03  0.59538108914E+03  0.00000000000E+00 0. -1.
          4    1    4    4  503    0  0.26999256120E+03  0.23919902689E+02  0.21149244472E+02  0.27187393289E+03  0.00000000000E+00 0. -1.
         -4    1    4    4    0  503 -0.42857661136E+01 -0.38936957087E+02  0.10104733185E+02  0.40454419426E+02  0.00000000000E+00 0.  1.
<mgrwt>
<rscale>  0 0.14788566E+04</rscale>
<asrwt>0</asrwt>
<pdfrwt beam="1">  1        2 0.15858396E+00 0.14788566E+04</pdfrwt>
<pdfrwt beam="2">  1       -1 0.81603006E-01 0.14788566E+04</pdfrwt>
<totfact> 0.39740653E+01</totfact>
</mgrwt>
</event>
<event>
11    7  0.1497947E-008  0.1889724E+04  0.7818608E-02  0.8659988E-01
         -1   -1    0    0    0  501 -0.00000000000E+00  0.00000000000E+00  0.80097445927E+03  0.80097445927E+03  0.00000000000E+00 0.  1.
          2   -1    0    0  501    0  0.00000000000E+00 -0.00000000000E+00 -0.11145979286E+04  0.11145979286E+04  0.00000000000E+00 0. -1.
         24    2    1    2    0    0 -0.41659043726E+03  0.49055656692E+03  0.21382589379E+03  0.68278566113E+03  0.79255336881E+02 0.  0.
        254    2    1    2    0    0  0.41659043726E+03 -0.49055656692E+03 -0.52744936315E+03  0.12327867268E+04  0.90959713348E+03 0.  0.
         23    2    4    4    0    0  0.28577274343E+03 -0.30759722546E+02  0.17909996891E+03  0.35107313933E+03  0.92538256284E+02 0.  0.
          4    1    3    3  502    0 -0.31026281990E+02  0.58736743239E+02  0.23610225024E+01  0.66469614169E+02  0.00000000000E+00 0. -1.
         -3    1    3    3    0  502 -0.38556415527E+03  0.43181982368E+03  0.21146487129E+03  0.61631604696E+03  0.00000000000E+00 0.  1.
         13    1    5    5    0    0  0.27364667511E+03 -0.53224570010E+01  0.16007169137E+03  0.31707061946E+03  0.00000000000E+00 0.  1.
        -13    1    5    5    0    0  0.12126068322E+02 -0.25437265545E+02  0.19028277543E+02  0.34002519872E+02  0.00000000000E+00 0. -1.
          1    1    4    4  503    0  0.11720834984E+03 -0.15302918298E+03 -0.14326471462E+03  0.24016766346E+03  0.00000000000E+00 0. -1.
         -1    1    4    4    0  503  0.13609343994E+02 -0.30676766139E+03 -0.56328461744E+03  0.64154592397E+03  0.00000000000E+00 0.  1.
<mgrwt>
<rscale>  0 0.18897243E+04</rscale>
<asrwt>0</asrwt>
<pdfrwt beam="1">  1        2 0.17147660E+00 0.18897243E+04</pdfrwt>
<pdfrwt beam="2">  1       -1 0.12322684E+00 0.18897243E+04</pdfrwt>
<totfact> 0.13229059E+01</totfact>
</mgrwt>
</event>
<event>
12    7  0.1497947E-008  0.1084185E+04  0.7818608E-02  0.9220745E-01
          2   -1    0    0  501    0  0.00000000000E+00  0.00000000000E+00  0.15044897248E+04  0.15044897248E+04  0.00000000000E+00 0. -1.
         -1   -1    0    0    0  501 -0.00000000000E+00 -0.00000000000E+00 -0.19532484275E+03  0.19532484275E+03  0.00000000000E+00 0.  1.
         24    2    1    2    0    0  0.10521173433E+03  0.88925786830E+02  0.12585486995E+03  0.20283140764E+03  0.79522493845E+02 0.  0.
        254    2    1    2    0    0 -0.10521173433E+03 -0.88925786830E+02  0.11833100120E+04  0.14969831599E+04  0.90650906875E+03 0.  0.
         23    2    4    4    0    0  0.38733892821E+03 -0.99399424544E+02  0.57427695446E+03  0.70667516885E+03  0.98407738171E+02 0.  0.
         23    2    4    4    0    0 -0.49255066255E+03  0.10473637714E+02  0.60903305759E+03  0.79030799102E+03  0.10464035158E+03 0.  0.
          2    1    3    3  502    0  0.31747090478E+02  0.37768684481E+02  0.11898465641E+01  0.49353490415E+02  0.00000000000E+00 0. -1.
         -1    1    3    3    0  502  0.73464643855E+02  0.51157102349E+02  0.12466502339E+03  0.15347791722E+03  0.00000000000E+00 0.  1.
         13    1    5    5    0    0  0.26674764414E+03 -0.42623226640E+02  0.31363793295E+03  0.41393211773E+03  0.00000000000E+00 0.  1.
        -13    1    5    5    0    0  0.12059128407E+03 -0.56776197904E+02  0.26063902151E+03  0.29274305112E+03  0.00000000000E+00 0. -1.
          4    1    6    6  503    0 -0.22361108015E+03  0.52005158092E+02  0.24431327872E+03  0.33525427632E+03  0.00000000000E+00 0. -1.
         -4    1    6    6    0  503 -0.26893958240E+03 -0.41531520379E+02  0.36471977887E+03  0.45505371470E+03  0.00000000000E+00 0.  1.
<mgrwt>
<rscale>  0 0.10841849E+04</rscale>
<asrwt>0</asrwt>
<pdfrwt beam="1">  1        2 0.23145995E+00 0.10841849E+04</pdfrwt>
<pdfrwt beam="2">  1       -1 0.30049977E-01 0.10841849E+04</pdfrwt>
<totfact> 0.14527463E+02</totfact>
</mgrwt>
</event>
<event>
12    7  0.1497947E-008  0.3976091E+04  0.7818608E-02  0.8009387E-01
          2   -1    0    0  501    0  0.00000000000E+00  0.00000000000E+00  0.39690691003E+04  0.39690691003E+04  0.00000000000E+00 0. -1.
         -3   -1    0    0    0  501 -0.00000000000E+00 -0.00000000000E+00 -0.99578155207E+03  0.99578155207E+03  0.00000000000E+00 0.  1.
         24    2    1    2    0    0 -0.12936751581E+04  0.24467310132E+03 -0.27313251701E+03  0.13470201045E+04  0.80009055907E+02 0.  0.
        254    2    1    2    0    0  0.12936751581E+04 -0.24467310132E+03  0.32464200652E+04  0.36178305478E+04  0.90332402374E+03 0.  0.
         23    2    4    4    0    0  0.91692025555E+03 -0.57300010333E+03  0.20656264436E+04  0.23333062117E+04  0.91833543347E+02 0.  0.
         23    2    4    4    0    0  0.37675490251E+03  0.32832700201E+03  0.11807936216E+04  0.12845243361E+04  0.77371289282E+02 0.  0.
          2    1    3    3  502    0 -0.42292068253E+03  0.11803261373E+03 -0.95875321256E+02  0.44942816872E+03  0.00000000000E+00 0. -1.
         -1    1    3    3    0  502 -0.87075447553E+03  0.12664048759E+03 -0.17725719576E+03  0.89759193579E+03  0.00000000000E+00 0.  1.
         13    1    5    5    0    0  0.39098556937E+03 -0.22565420576E+03  0.95434940312E+03  0.10557330720E+04  0.00000000000E+00 0.  1.
        -13    1    5    5    0    0  0.52593468617E+03 -0.34734589757E+03  0.11112770405E+04  0.12775731398E+04  0.00000000000E+00 0. -1.
          4    1    6    6  503    0  0.29865885314E+03  0.29621201901E+03  0.10060737400E+04  0.10904691839E+04  0.00000000000E+00 0. -1.
         -4    1    6    6    0  503  0.78096049367E+02  0.32114982998E+02  0.17471988158E+03  0.19405515216E+03  0.00000000000E+00 0.  1.
<mgrwt>
<rscale>  0 0.39760914E+04</rscale>
<asrwt>0</asrwt>
<pdfrwt beam="1">  1        2 0.61062601E+00 0.39760914E+04</pdfrwt>
<pdfrwt beam="2">  1       -3 0.15319716E+00 0.39760914E+04</pdfrwt>
<totfact> 0.55573874E-02</totfact>
</mgrwt>
</event>
<event>
12    7  0.1497947E-008  0.2022360E+04  0.7818608E-02  0.8596238E-01
          2   -1    0    0  501    0  0.00000000000E+00  0.00000000000E+00  0.14186731984E+04  0.14186731984E+04  0.00000000000E+00 0. -1.
         -1   -1    0    0    0  501 -0.00000000000E+00 -0.00000000000E+00 -0.72073309496E+03  0.72073309496E+03  0.00000000000E+00 0.  1.
         24    2    1    2    0    0  0.41199506180E+03  0.62454238924E+03 -0.52331636517E+02  0.75424106234E+03  0.79673414824E+02 0.  0.
        254    2    1    2    0    0 -0.41199506180E+03 -0.62454238924E+03  0.75027174000E+03  0.13851652311E+04  0.89217818096E+03 0.  0.
         23    2    4    4    0    0  0.25420348721E+03 -0.20907839758E+03  0.38902460120E+03  0.51769177167E+03  0.91276726890E+02 0.  0.
         23    2    4    4    0    0 -0.66619854901E+03 -0.41546399166E+03  0.36124713880E+03  0.86747345939E+03  0.74698543398E+02 0.  0.
          4    1    3    3  502    0  0.14607010783E+03  0.20966135641E+03  0.19374307648E+02  0.25626104771E+03  0.00000000000E+00 0. -1.
         -3    1    3    3    0  502  0.26592495397E+03  0.41488103283E+03 -0.71705944166E+02  0.49798001463E+03  0.00000000000E+00 0.  1.
         13    1    5    5    0    0  0.21079317572E+03 -0.20576279085E+03  0.36092522225E+03  0.46587455938E+03  0.00000000000E+00 0. -1.
        -13    1    5    5    0    0  0.43410311490E+02 -0.33156067370E+01  0.28099378952E+02  0.51817212287E+02  0.00000000000E+00 0.  1.
          1    1    6    6  503    0 -0.61649359951E+03 -0.35969191948E+03  0.33290410725E+03  0.78757080939E+03  0.00000000000E+00 0. -1.
         -1    1    6    6    0  503 -0.49704949501E+02 -0.55772072179E+02  0.28343031555E+02  0.79902650005E+02  0.00000000000E+00 0.  1.
<mgrwt>
<rscale>  0 0.20223597E+04</rscale>
<asrwt>0</asrwt>
<pdfrwt beam="1">  1        2 0.21825741E+00 0.20223597E+04</pdfrwt>
<pdfrwt beam="2">  1       -1 0.11088201E+00 0.20223597E+04</pdfrwt>
<totfact> 0.11174272E+01</totfact>
</mgrwt>
</event>
<event>
12    7  0.1497947E-008  0.1233453E+04  0.7818608E-02  0.9084069E-01
          2   -1    0    0  501    0  0.00000000000E+00  0.00000000000E+00  0.12612245431E+04  0.12612245431E+04  0.00000000000E+00 0. -1.
         -1   -1    0    0    0  501 -0.00000000000E+00 -0.00000000000E+00 -0.30157321289E+03  0.30157321289E+03  0.00000000000E+00 0.  1.
         24    2    1    2    0    0 -0.20395887514E+02  0.27446783181E+03  0.36670531773E+03  0.46741575838E+03  0.90863183987E+02 0.  0.
        254    2    1    2    0    0  0.20395887514E+02 -0.27446783181E+03  0.59294601251E+03  0.10953819976E+04  0.87893581340E+03 0.  0.
         23    2    4    4    0    0  0.12005214457E+02 -0.57696360352E+03  0.44988150354E+03  0.73761425392E+03  0.93006964292E+02 0.  0.
         23    2    4    4    0    0  0.83906730565E+01  0.30249577171E+03  0.14306450897E+03  0.35776774372E+03  0.12631789034E+03 0.  0.
          2    1    3    3  502    0 -0.10039186315E+02  0.47805334550E+02  0.13298655185E+03  0.14167412695E+03  0.00000000000E+00 0. -1.
         -1    1    3    3    0  502 -0.10356701199E+02  0.22666249726E+03  0.23371876588E+03  0.32574163143E+03  0.00000000000E+00 0.  1.
         13    1    5    5    0    0  0.55963465308E+01 -0.10673964832E+03  0.13263405922E+03  0.17034220053E+03  0.00000000000E+00 0. -1.
        -13    1    5    5    0    0  0.64088679267E+01 -0.47022395520E+03  0.31724744432E+03  0.56727205339E+03  0.00000000000E+00 0.  1.
          1    1    6    6  503    0  0.42135728291E+02  0.85934103085E+02 -0.58953819954E+00  0.95710173059E+02  0.00000000000E+00 0. -1.
         -1    1    6    6    0  503 -0.33745055235E+02  0.21656166863E+03  0.14365404717E+03  0.26205757066E+03  0.00000000000E+00 0.  1.
<mgrwt>
<rscale>  0 0.12334529E+04</rscale>
<asrwt>0</asrwt>
<pdfrwt beam="1">  1        2 0.19403454E+00 0.12334529E+04</pdfrwt>
<pdfrwt beam="2">  1       -1 0.46395880E-01 0.12334529E+04</pdfrwt>
<totfact> 0.90382376E+01</totfact>
</mgrwt>
</event>
<event>
12    7  0.1497947E-008  0.1284633E+04  0.7818608E-02  0.9041841E-01
          2   -1    0    0  501    0  0.00000000000E+00  0.00000000000E+00  0.15989964087E+04  0.15989964087E+04  0.00000000000E+00 0. -1.
         -1   -1    0    0    0  501 -0.00000000000E+00 -0.00000000000E+00 -0.25801834109E+03  0.25801834109E+03  0.00000000000E+00 0.  1.
         24    2    1    2    0    0  0.20343063056E+03  0.24892599949E+03  0.41275541148E+03  0.52926551375E+03  0.80042361684E+02 0.  0.
        254    2    1    2    0    0 -0.20343063056E+03 -0.24892599949E+03  0.92822265612E+03  0.13277492360E+04  0.89329309847E+03 0.  0.
         23    2    4    4    0    0  0.34253937672E+03 -0.13162463693E+03  0.36888628588E+03  0.52831136379E+03  0.91528878215E+02 0.  0.
         23    2    4    4    0    0 -0.54597000728E+03 -0.11730136256E+03  0.55933637024E+03  0.79943787224E+03  0.12000365826E+03 0.  0.
          4    1    3    3  502    0  0.17824866126E+03  0.16544813127E+03  0.32049914986E+03  0.40232496124E+03  0.00000000000E+00 0. -1.
         -3    1    3    3    0  502  0.25181969296E+02  0.83477868226E+02  0.92256261622E+02  0.12694055250E+03  0.00000000000E+00 0.  1.
         13    1    5    5    0    0  0.18352076055E+03 -0.93712193389E+02  0.26059147211E+03  0.33221944567E+03  0.00000000000E+00 0.  1.
        -13    1    5    5    0    0  0.15901861617E+03 -0.37912443542E+02  0.10829481377E+03  0.19609191812E+03  0.00000000000E+00 0. -1.
          4    1    6    6  503    0 -0.52756555066E+03 -0.13267037843E+03  0.55035583059E+03  0.77383356080E+03  0.00000000000E+00 0. -1.
         -4    1    6    6    0  503 -0.18404456620E+02  0.15369015865E+02  0.89805396494E+01  0.25604311444E+02  0.00000000000E+00 0.  1.
<mgrwt>
<rscale>  0 0.12846329E+04</rscale>
<asrwt>0</asrwt>
<pdfrwt beam="1">  1        2 0.24599944E+00 0.12846329E+04</pdfrwt>
<pdfrwt beam="2">  1       -1 0.39695130E-01 0.12846329E+04</pdfrwt>
<totfact> 0.77088486E+01</totfact>
</mgrwt>
</event>
<event>
11    7  0.1497947E-008  0.2758614E+04  0.7818608E-02  0.8316234E-01
          2   -1    0    0  501    0  0.00000000000E+00  0.00000000000E+00  0.19124726978E+04  0.19124726978E+04  0.00000000000E+00 0. -1.
         -1   -1    0    0    0  501 -0.00000000000E+00 -0.00000000000E+00 -0.99477890669E+03  0.99477890669E+03  0.00000000000E+00 0.  1.
         24    2    1    2    0    0 -0.76428480662E+02 -0.12200458881E+04  0.60135843060E+03  0.13646477393E+04  0.79235146913E+02 0.  0.
        254    2    1    2    0    0  0.76428480662E+02  0.12200458881E+04  0.31633536056E+03  0.15426038653E+04  0.88611813158E+03 0.  0.
         23    2    4    4    0    0  0.30615207895E+03  0.76348198795E+03  0.51037996116E+03  0.97224441877E+03  0.90209000090E+02 0.  0.
          4    1    3    3  502    0 -0.54392095897E+02 -0.76085639281E+03  0.33281783847E+03  0.83224315208E+03  0.00000000000E+00 0. -1.
         -3    1    3    3    0  502 -0.22036384765E+02 -0.45918949528E+03  0.26854059213E+03  0.53240458718E+03  0.00000000000E+00 0.  1.
         13    1    5    5    0    0  0.10602893085E+03  0.16979224169E+03  0.14237652840E+03  0.24564733940E+03  0.00000000000E+00 0.  1.
        -13    1    5    5    0    0  0.20012314810E+03  0.59368974626E+03  0.36800343277E+03  0.72659707937E+03  0.00000000000E+00 0. -1.
          1    1    4    4  503    0 -0.11407764102E+03  0.14935435168E+03 -0.14731784874E+03  0.23879484732E+03  0.00000000000E+00 0. -1.
         -1    1    4    4    0  503 -0.11564595727E+03  0.30720954846E+03 -0.46726751869E+02  0.33156459919E+03  0.00000000000E+00 0.  1.
<mgrwt>
<rscale>  0 0.27586138E+04</rscale>
<asrwt>0</asrwt>
<pdfrwt beam="1">  1        2 0.29422657E+00 0.27586138E+04</pdfrwt>
<pdfrwt beam="2">  1       -1 0.15304291E+00 0.27586138E+04</pdfrwt>
<totfact> 0.24530786E+00</totfact>
</mgrwt>
</event>
<event>
11    7  0.1497947E-008  0.1118233E+04  0.7818608E-02  0.9187601E-01
          2   -1    0    0  501    0  0.00000000000E+00  0.00000000000E+00  0.18004479956E+04  0.18004479956E+04  0.00000000000E+00 0. -1.
         -1   -1    0    0    0  501 -0.00000000000E+00 -0.00000000000E+00 -0.17362976492E+03  0.17362976492E+03  0.00000000000E+00 0.  1.
         24    2    1    2    0    0 -0.32993981951E+02  0.34635454232E+01  0.62381103457E+03  0.62993753744E+03  0.81120251661E+02 0.  0.
        254    2    1    2    0    0  0.32993981951E+02 -0.34635454232E+01  0.10030071961E+04  0.13441402231E+04  0.89419735230E+03 0.  0.
         23    2    4    4    0    0 -0.66850990680E+02  0.41842536971E+03  0.39737455143E+03  0.58761118337E+03  0.88495896658E+02 0.  0.
          4    1    3    3  502    0 -0.30326448549E+02  0.40171911160E+02  0.32648095257E+03  0.33033814239E+03  0.00000000000E+00 0. -1.
         -3    1    3    3    0  502 -0.26675334016E+01 -0.36708365737E+02  0.29733008200E+03  0.29959939505E+03  0.00000000000E+00 0.  1.
         13    1    5    5    0    0 -0.87734492573E+02  0.30480836563E+03  0.29851037816E+03  0.43556162229E+03  0.00000000000E+00 0.  1.
        -13    1    5    5    0    0  0.20883501892E+02  0.11361700408E+03  0.98864173267E+02  0.15204956108E+03  0.00000000000E+00 0. -1.
          1    1    4    4  503    0  0.81989942400E+01  0.93338688453E+01  0.14202501120E+02  0.18869436988E+02  0.00000000000E+00 0. -1.
         -1    1    4    4    0  503  0.91645978391E+02 -0.43122278398E+03  0.59143014356E+03  0.73765960272E+03  0.00000000000E+00 0.  1.
<mgrwt>
<rscale>  0 0.11182332E+04</rscale>
<asrwt>0</asrwt>
<pdfrwt beam="1">  1        2 0.27699199E+00 0.11182332E+04</pdfrwt>
<pdfrwt beam="2">  1       -1 0.26712273E-01 0.11182332E+04</pdfrwt>
<totfact> 0.12180742E+02</totfact>
</mgrwt>
</event>
<event>
12    7  0.1497947E-008  0.1416016E+04  0.7818608E-02  0.8942306E-01
          2   -1    0    0  501    0  0.00000000000E+00  0.00000000000E+00  0.32654242936E+04  0.32654242936E+04  0.00000000000E+00 0. -1.
         -3   -1    0    0    0  501 -0.00000000000E+00 -0.00000000000E+00 -0.15351001595E+03  0.15351001595E+03  0.00000000000E+00 0.  1.
         24    2    1    2    0    0  0.41554553349E+03 -0.64280566214E+02  0.10170609616E+04  0.11031010433E+04  0.74892126529E+02 0.  0.
        254    2    1    2    0    0 -0.41554553349E+03  0.64280566214E+02  0.20948533161E+04  0.23158332662E+04  0.89323189569E+03 0.  0.
         23    2    4    4    0    0  0.18223568867E+03  0.25246024724E+03  0.47077156209E+03  0.57190496164E+03  0.92213875387E+02 0.  0.
         23    2    4    4    0    0 -0.59778122216E+03 -0.18817968103E+03  0.16240817540E+04  0.17439283046E+04  0.10435710793E+03 0.  0.
          4    1    3    3  502    0  0.65640089412E+02  0.44461625401E+01  0.10620628933E+03  0.12493264423E+03  0.00000000000E+00 0. -1.
         -1    1    3    3    0  502  0.34990544408E+03 -0.68726728754E+02  0.91085467222E+03  0.97816839908E+03  0.00000000000E+00 0.  1.
         13    1    5    5    0    0  0.18034335400E+03  0.24916914242E+03  0.41787496790E+03  0.51887231152E+03  0.00000000000E+00 0.  1.
        -13    1    5    5    0    0  0.18923346688E+01  0.32911048162E+01  0.52896594190E+02  0.53032650116E+02  0.00000000000E+00 0. -1.
          1    1    6    6  503    0 -0.44556408678E+02 -0.38019993324E+02  0.10415228821E+03  0.11949264657E+03  0.00000000000E+00 0. -1.
         -1    1    6    6    0  503 -0.55322481348E+03 -0.15015968770E+03  0.15199294658E+04  0.16244356580E+04  0.00000000000E+00 0.  1.
<mgrwt>
<rscale>  0 0.14160160E+04</rscale>
<asrwt>0</asrwt>
<pdfrwt beam="1">  1        2 0.50237292E+00 0.14160160E+04</pdfrwt>
<pdfrwt beam="2">  1       -3 0.23616928E-01 0.14160160E+04</pdfrwt>
<totfact> 0.12794462E+01</totfact>
</mgrwt>
</event>
<event>
11    7  0.1497947E-008  0.1522955E+04  0.7818608E-02  0.8869330E-01
          2   -1    0    0  501    0  0.00000000000E+00  0.00000000000E+00  0.11134585709E+04  0.11134585709E+04  0.00000000000E+00 0. -1.
         -1   -1    0    0    0  501 -0.00000000000E+00 -0.00000000000E+00 -0.52076316791E+03  0.52076316791E+03  0.00000000000E+00 0.  1.
         24    2    1    2    0    0 -0.45051397812E+03 -0.18142440442E+03  0.27639885998E+03  0.56436548893E+03  0.78958320030E+02 0.  0.
        254    2    1    2    0    0  0.45051397812E+03  0.18142440442E+03  0.31629654303E+03  0.10698562499E+04  0.89926149328E+03 0.  0.
         23    2    4    4    0    0  0.57413258899E+03 -0.12452227636E+03  0.37342929271E+03  0.70213638817E+03  0.91717195172E+02 0.  0.
          4    1    3    3  502    0 -0.53256358065E+02 -0.10469215782E+02  0.59522349588E+02  0.80552804135E+02  0.00000000000E+00 0. -1.
         -3    1    3    3    0  502 -0.39725762006E+03 -0.17095518863E+03  0.21687651039E+03  0.48381268480E+03  0.00000000000E+00 0.  1.
         13    1    5    5    0    0  0.13705587917E+03 -0.46378187285E+02  0.51029833519E+02  0.15342520712E+03  0.00000000000E+00 0. -1.
        -13    1    5    5    0    0  0.43707670982E+03 -0.78144089077E+02  0.32239945919E+03  0.54871118105E+03  0.00000000000E+00 0.  1.
          1    1    4    4  503    0  0.68638628903E+01  0.17571712825E+03 -0.41269199421E+01  0.17589955441E+03  0.00000000000E+00 0. -1.
         -1    1    4    4    0  503 -0.13048247376E+03  0.13022955253E+03 -0.53005829740E+02  0.19182030731E+03  0.00000000000E+00 0.  1.
<mgrwt>
<rscale>  0 0.15229553E+04</rscale>
<asrwt>0</asrwt>
<pdfrwt beam="1">  1        2 0.17130132E+00 0.15229553E+04</pdfrwt>
<pdfrwt beam="2">  1       -1 0.80117411E-01 0.15229553E+04</pdfrwt>
<totfact> 0.36569024E+01</totfact>
</mgrwt>
</event>
<event>
12    7  0.1497947E-008  0.1511349E+04  0.7818608E-02  0.8876941E-01
          2   -1    0    0  501    0  0.00000000000E+00  0.00000000000E+00  0.14133512133E+04  0.14133512133E+04  0.00000000000E+00 0. -1.
         -1   -1    0    0    0  501 -0.00000000000E+00 -0.00000000000E+00 -0.40403538044E+03  0.40403538044E+03  0.00000000000E+00 0.  1.
         24    2    1    2    0    0  0.25598914993E+03 -0.19882870272E+03 -0.10144192226E+03  0.34842835357E+03  0.77772463449E+02 0.  0.
        254    2    1    2    0    0 -0.25598914993E+03  0.19882870272E+03  0.11107577551E+04  0.14689582401E+04  0.90498189091E+03 0.  0.
         23    2    4    4    0    0 -0.31614253426E+03 -0.29577311908E+03  0.65703354991E+03  0.79194894423E+03  0.89789780178E+02 0.  0.
         23    2    4    4    0    0  0.60153384331E+02  0.49460182180E+03  0.45372420519E+03  0.67700929591E+03  0.65011849691E+02 0.  0.
          4    1    3    3  502    0  0.25228768941E+02  0.31536381229E+01 -0.16137155878E+02  0.30113850891E+02  0.00000000000E+00 0. -1.
         -3    1    3    3    0  502  0.23076038099E+03 -0.20198234084E+03 -0.85304766382E+02  0.31831450267E+03  0.00000000000E+00 0.  1.
         13    1    5    5    0    0 -0.10683026764E+03 -0.47783106829E+02  0.19272316074E+03  0.22547316485E+03  0.00000000000E+00 0.  1.
        -13    1    5    5    0    0 -0.20931226662E+03 -0.24799001226E+03  0.46431038917E+03  0.56647577939E+03  0.00000000000E+00 0. -1.
          1    1    6    6  503    0  0.20618237761E+01  0.10934504119E+03  0.68138036230E+02  0.12885410793E+03  0.00000000000E+00 0. -1.
         -1    1    6    6    0  503  0.58091560555E+02  0.38525678062E+03  0.38558616896E+03  0.54815518798E+03  0.00000000000E+00 0.  1.
<mgrwt>
<rscale>  0 0.15113489E+04</rscale>
<asrwt>0</asrwt>
<pdfrwt beam="1">  1        2 0.21743865E+00 0.15113489E+04</pdfrwt>
<pdfrwt beam="2">  1       -1 0.62159290E-01 0.15113489E+04</pdfrwt>
<totfact> 0.41063554E+01</totfact>
</mgrwt>
</event>
<event>
12    7  0.1497947E-008  0.2379775E+04  0.7818608E-02  0.8447115E-01
          2   -1    0    0  501    0  0.00000000000E+00  0.00000000000E+00  0.23961634037E+04  0.23961634037E+04  0.00000000000E+00 0. -1.
         -1   -1    0    0    0  501 -0.00000000000E+00 -0.00000000000E+00 -0.59087461283E+03  0.59087461283E+03  0.00000000000E+00 0.  1.
         24    2    1    2    0    0 -0.39418806648E+03 -0.79966084746E+03  0.13944638337E+04  0.16570689624E+04  0.80662631247E+02 0.  0.
        254    2    1    2    0    0  0.39418806648E+03  0.79966084746E+03  0.41082495724E+03  0.13299690541E+04  0.89732872281E+03 0.  0.
         23    2    4    4    0    0 -0.15568270370E+03  0.66354750012E+03  0.19809505337E+03  0.71534539567E+03  0.89134705853E+02 0.  0.
         23    2    4    4    0    0  0.54987077018E+03  0.13611334733E+03  0.21272990387E+03  0.61462365847E+03  0.10781244051E+03 0.  0.
          4    1    3    3  502    0 -0.19396286761E+03 -0.42993442337E+03  0.80527680058E+03  0.93323948050E+03  0.00000000000E+00 0. -1.
         -3    1    3    3    0  502 -0.20022519887E+03 -0.36972642409E+03  0.58918703307E+03  0.72382948190E+03  0.00000000000E+00 0.  1.
         13    1    5    5    0    0 -0.40291137679E+02  0.34529368495E+03  0.12153582307E+03  0.36826900621E+03  0.00000000000E+00 0. -1.
        -13    1    5    5    0    0 -0.11539156602E+03  0.31825381517E+03  0.76559230302E+02  0.34707638947E+03  0.00000000000E+00 0.  1.
          1    1    6    6  503    0 -0.83854653153E+00  0.79419985602E+01 -0.41846124945E+01  0.90160680535E+01  0.00000000000E+00 0. -1.
         -1    1    6    6    0  503  0.55070931671E+03  0.12817134877E+03  0.21691451636E+03  0.60560759042E+03  0.00000000000E+00 0.  1.
<mgrwt>
<rscale>  0 0.23797749E+04</rscale>
<asrwt>0</asrwt>
<pdfrwt beam="1">  1        2 0.36864052E+00 0.23797749E+04</pdfrwt>
<pdfrwt beam="2">  1       -1 0.90903788E-01 0.23797749E+04</pdfrwt>
<totfact> 0.48369871E+00</totfact>
</mgrwt>
</event>
<event>
12    7  0.1497947E-008  0.1301602E+04  0.7818608E-02  0.9028295E-01
         -1   -1    0    0    0  501 -0.00000000000E+00  0.00000000000E+00  0.33831676469E+03  0.33831676469E+03  0.00000000000E+00 0.  1.
          2   -1    0    0  501    0  0.00000000000E+00 -0.00000000000E+00 -0.12519102636E+04  0.12519102636E+04  0.00000000000E+00 0. -1.
         24    2    1    2    0    0 -0.31760080535E+03  0.21298865181E+02 -0.12628985396E+03  0.35129322263E+03  0.78319140927E+02 0.  0.
        254    2    1    2    0    0  0.31760080535E+03 -0.21298865181E+02 -0.78730364498E+03  0.12389338057E+04  0.90210089916E+03 0.  0.
         23    2    4    4    0    0  0.52140092834E+03 -0.27757107839E+03 -0.57143824242E+03  0.82701211696E+03  0.92210330567E+02 0.  0.
         23    2    4    4    0    0 -0.20380012299E+03  0.25627221321E+03 -0.21586540255E+03  0.41192168872E+03  0.12598280926E+03 0.  0.
          4    1    3    3  502    0 -0.14066801564E+03 -0.16611925525E+02 -0.86670462781E+02  0.16605786887E+03  0.00000000000E+00 0. -1.
         -3    1    3    3    0  502 -0.17693278970E+03  0.37910790706E+02 -0.39619391176E+02  0.18523535376E+03  0.00000000000E+00 0.  1.
         13    1    5    5    0    0  0.35931605992E+03 -0.23736625685E+03 -0.42124878972E+03  0.60241290960E+03  0.00000000000E+00 0. -1.
        -13    1    5    5    0    0  0.16208486842E+03 -0.40204821545E+02 -0.15018945270E+03  0.22459920736E+03  0.00000000000E+00 0.  1.
          2    1    6    6  503    0 -0.19041494554E+03  0.17169404027E+03 -0.11908749301E+03  0.28269864864E+03  0.00000000000E+00 0. -1.
         -2    1    6    6    0  503 -0.13385177444E+02  0.84578172941E+02 -0.96777909544E+02  0.12922304009E+03  0.00000000000E+00 0.  1.
<mgrwt>
<rscale>  0 0.13016024E+04</rscale>
<asrwt>0</asrwt>
<pdfrwt beam="1">  1        2 0.19260158E+00 0.13016024E+04</pdfrwt>
<pdfrwt beam="2">  1       -1 0.52048732E-01 0.13016024E+04</pdfrwt>
<totfact> 0.73246515E+01</totfact>
</mgrwt>
</event>
<event>
12    7  0.1497947E-008  0.2381516E+04  0.7818608E-02  0.8446456E-01
         -1   -1    0    0    0  501 -0.00000000000E+00  0.00000000000E+00  0.44682189249E+03  0.44682189249E+03  0.00000000000E+00 0.  1.
          2   -1    0    0  501    0  0.00000000000E+00 -0.00000000000E+00 -0.31733118112E+04  0.31733118112E+04  0.00000000000E+00 0. -1.
         24    2    1    2    0    0  0.50936638689E+02  0.30465433836E+03  0.30534681547E+03  0.44182821394E+03  0.81035090436E+02 0.  0.
        254    2    1    2    0    0 -0.50936638689E+02 -0.30465433836E+03 -0.30318367342E+04  0.31783054898E+04  0.90232089434E+03 0.  0.
         23    2    4    4    0    0  0.70637369742E+02  0.84882324381E+02 -0.29182772410E+02  0.14576194088E+03  0.90555299166E+02 0.  0.
         23    2    4    4    0    0 -0.12157400843E+03 -0.38953666274E+03 -0.30026539618E+04  0.30325435489E+04  0.11777313134E+03 0.  0.
          2    1    3    3  502    0  0.70619393906E+02  0.18449232162E+03  0.19166139691E+03  0.27524281389E+03  0.00000000000E+00 0. -1.
         -1    1    3    3    0  502 -0.19682755218E+02  0.12016201674E+03  0.11368541856E+03  0.16658540006E+03  0.00000000000E+00 0.  1.
         13    1    5    5    0    0  0.82286335672E+02  0.95250897360E+02 -0.32090041189E+02  0.12989821103E+03  0.00000000000E+00 0. -1.
        -13    1    5    5    0    0 -0.11648965930E+02 -0.10368572979E+02  0.29072687790E+01  0.15863729846E+02  0.00000000000E+00 0.  1.
          1    1    6    6  503    0 -0.12075903689E+03 -0.18964559072E+03 -0.15863017165E+04  0.16021552143E+04  0.00000000000E+00 0. -1.
         -1    1    6    6    0  503 -0.81497154438E+00 -0.19989107202E+03 -0.14163522453E+04  0.14303883346E+04  0.00000000000E+00 0.  1.
<mgrwt>
<rscale>  0 0.23815165E+04</rscale>
<asrwt>0</asrwt>
<pdfrwt beam="1">  1        2 0.48820181E+00 0.23815165E+04</pdfrwt>
<pdfrwt beam="2">  1       -1 0.68741830E-01 0.23815165E+04</pdfrwt>
<totfact> 0.29637926E+00</totfact>
</mgrwt>
</event>
<event>
11    7  0.1497947E-008  0.1985622E+04  0.7818608E-02  0.8613372E-01
         -1   -1    0    0    0  501 -0.00000000000E+00  0.00000000000E+00  0.21606442404E+03  0.21606442404E+03  0.00000000000E+00 0.  1.
          2   -1    0    0  501    0  0.00000000000E+00 -0.00000000000E+00 -0.45619439483E+04  0.45619439483E+04  0.00000000000E+00 0. -1.
         24    2    1    2    0    0 -0.15486462844E+03  0.27453220955E+03 -0.34290841066E+04  0.34444925484E+04  0.80994559207E+02 0.  0.
        254    2    1    2    0    0  0.15486462844E+03 -0.27453220955E+03 -0.91679541771E+03  0.13335158240E+04  0.91564164807E+03 0.  0.
         23    2    4    4    0    0  0.39409080891E+03 -0.22027067646E+03 -0.11317370516E+03  0.47442608348E+03  0.91897141270E+02 0.  0.
          4    1    3    3  502    0 -0.76770579319E+02  0.12454275889E+03 -0.20214657914E+04  0.20267532081E+04  0.00000000000E+00 0. -1.
         -3    1    3    3    0  502 -0.78094049123E+02  0.14998945066E+03 -0.14076183151E+04  0.14177393402E+04  0.00000000000E+00 0.  1.
         13    1    5    5    0    0  0.18020419719E+03 -0.14967219214E+03 -0.75066239286E+02  0.24598832912E+03  0.00000000000E+00 0. -1.
        -13    1    5    5    0    0  0.21388661172E+03 -0.70598484325E+02 -0.38107465870E+02  0.22843775436E+03  0.00000000000E+00 0.  1.
          1    1    4    4  503    0 -0.14740104030E+03 -0.11649474960E+03 -0.57621270540E+03  0.60606862254E+03  0.00000000000E+00 0. -1.
         -1    1    4    4    0  503 -0.91825140170E+02  0.62233216507E+02 -0.22740900716E+03  0.25302111798E+03  0.00000000000E+00 0.  1.
<mgrwt>
<rscale>  0 0.19856221E+04</rscale>
<asrwt>0</asrwt>
<pdfrwt beam="1">  1        2 0.70183745E+00 0.19856221E+04</pdfrwt>
<pdfrwt beam="2">  1       -1 0.33240684E-01 0.19856221E+04</pdfrwt>
<totfact> 0.97982050E-01</totfact>
</mgrwt>
</event>
<event>
11    7  0.1497947E-008  0.1897904E+04  0.7818608E-02  0.8655900E-01
          2   -1    0    0  501    0  0.00000000000E+00  0.00000000000E+00  0.71425116699E+03  0.71425116699E+03  0.00000000000E+00 0. -1.
         -1   -1    0    0    0  501 -0.00000000000E+00 -0.00000000000E+00 -0.12607746153E+04  0.12607746153E+04  0.00000000000E+00 0.  1.
         24    2    1    2    0    0 -0.27075791548E+03 -0.66806184747E+03 -0.35572381583E+03  0.80776121507E+03  0.79512681913E+02 0.  0.
        254    2    1    2    0    0  0.27075791548E+03  0.66806184747E+03 -0.19079963253E+03  0.11672645673E+04  0.89804542724E+03 0.  0.
         23    2    4    4    0    0  0.45879603137E+03  0.37483009665E+03  0.19418075785E+03  0.63026226854E+03  0.92374025973E+02 0.  0.
          4    1    3    3  502    0 -0.39089345955E+02 -0.18544090417E+03 -0.81961723624E+02  0.20648009601E+03  0.00000000000E+00 0. -1.
         -3    1    3    3    0  502 -0.23166856952E+03 -0.48262094330E+03 -0.27376209220E+03  0.60128111906E+03  0.00000000000E+00 0.  1.
         13    1    5    5    0    0  0.27625994260E+03  0.16685963528E+03  0.97567868312E+02  0.33716640209E+03  0.00000000000E+00 0.  1.
        -13    1    5    5    0    0  0.18253608876E+03  0.20797046138E+03  0.96612889537E+02  0.29309586645E+03  0.00000000000E+00 0. -1.
          2    1    4    4  503    0 -0.13086354670E+03  0.10207455416E+03 -0.23358205935E+03  0.28653980685E+03  0.00000000000E+00 0. -1.
         -2    1    4    4    0  503 -0.57174569198E+02  0.19115719665E+03 -0.15139833103E+03  0.25046249187E+03  0.00000000000E+00 0.  1.
<mgrwt>
<rscale>  0 0.18979038E+04</rscale>
<asrwt>0</asrwt>
<pdfrwt beam="1">  1        2 0.10988480E+00 0.18979038E+04</pdfrwt>
<pdfrwt beam="2">  1       -1 0.19396532E+00 0.18979038E+04</pdfrwt>
<totfact> 0.70779159E+00</totfact>
</mgrwt>
</event>
<event>
11    7  0.1497947E-008  0.1516438E+04  0.7818608E-02  0.8873595E-01
         -1   -1    0    0    0  501 -0.00000000000E+00  0.00000000000E+00  0.16432773268E+04  0.16432773268E+04  0.00000000000E+00 0.  1.
          2   -1    0    0  501    0  0.00000000000E+00 -0.00000000000E+00 -0.34984726953E+03  0.34984726953E+03  0.00000000000E+00 0. -1.
         24    2    1    2    0    0 -0.40017161708E+02  0.26910694860E+03 -0.11054105342E+03  0.30448281014E+03  0.80439630535E+02 0.  0.
        254    2    1    2    0    0  0.40017161708E+02 -0.26910694860E+03  0.14039711107E+04  0.16886417862E+04  0.89797342911E+03 0.  0.
         23    2    4    4    0    0 -0.72234513248E+01  0.15883851024E+03  0.11618130495E+04  0.11763917000E+04  0.93840392367E+02 0.  0.
          2    1    3    3  502    0 -0.48611529047E+02  0.20658744798E+03 -0.52234972666E+02  0.21856337019E+03  0.00000000000E+00 0. -1.
         -1    1    3    3    0  502  0.85943673387E+01  0.62519500623E+02 -0.58306080755E+02  0.85919439949E+02  0.00000000000E+00 0.  1.
         13    1    5    5    0    0 -0.36203190910E+02  0.13679937386E+03  0.77035931314E+03  0.78324849892E+03  0.00000000000E+00 0. -1.
        -13    1    5    5    0    0  0.28979739585E+02  0.22039136379E+02  0.39145373637E+03  0.39314320108E+03  0.00000000000E+00 0.  1.
          2    1    4    4  503    0 -0.12275645453E+02 -0.71991184004E+02 -0.75033846961E+01  0.73414731679E+02  0.00000000000E+00 0.  1.
         -2    1    4    4    0  503  0.59516258486E+02 -0.35595427484E+03  0.24966144584E+03  0.43883535447E+03  0.00000000000E+00 0. -1.
<mgrwt>
<rscale>  0 0.15164380E+04</rscale>
<asrwt>0</asrwt>
<pdfrwt beam="1">  1        2 0.53822658E-01 0.15164380E+04</pdfrwt>
<pdfrwt beam="2">  1       -1 0.25281189E+00 0.15164380E+04</pdfrwt>
<totfact> 0.68286997E+00</totfact>
</mgrwt>
</event>
<event>
12    7  0.1497947E-008  0.1995070E+04  0.7818608E-02  0.8608929E-01
          2   -1    0    0  501    0  0.00000000000E+00  0.00000000000E+00  0.21897689765E+04  0.21897689765E+04  0.00000000000E+00 0. -1.
         -1   -1    0    0    0  501 -0.00000000000E+00 -0.00000000000E+00 -0.45442057202E+03  0.45442057202E+03  0.00000000000E+00 0.  1.
         24    2    1    2    0    0 -0.67831230930E+03 -0.11865306437E+03  0.11971732350E+04  0.13834580093E+04  0.80908406477E+02 0.  0.
        254    2    1    2    0    0  0.67831230930E+03  0.11865306437E+03  0.53817516948E+03  0.12607315392E+04  0.90863929163E+03 0.  0.
         23    2    4    4    0    0  0.38725670372E+03  0.27131398917E+03  0.72321153708E+03  0.86898638648E+03  0.92322138352E+02 0.  0.
         23    2    4    4    0    0  0.29105560558E+03 -0.15266092480E+03 -0.18503636760E+03  0.39174515274E+03  0.10586351522E+03 0.  0.
          4    1    3    3  502    0 -0.65214537932E+03 -0.97053717828E+02  0.11432767632E+04  0.13197707290E+04  0.00000000000E+00 0. -1.
         -3    1    3    3    0  502 -0.26166929982E+02 -0.21599346543E+02  0.53896471869E+02  0.63687280329E+02  0.00000000000E+00 0.  1.
         13    1    5    5    0    0  0.13269267732E+03  0.11456262515E+03  0.19638427554E+03  0.26324651066E+03  0.00000000000E+00 0. -1.
        -13    1    5    5    0    0  0.25456402640E+03  0.15675136403E+03  0.52682726154E+03  0.60573987583E+03  0.00000000000E+00 0.  1.
          3    1    6    6  503    0  0.15032107111E+03 -0.11475540878E+03 -0.15117417592E+03  0.24211332001E+03  0.00000000000E+00 0. -1.
         -3    1    6    6    0  503  0.14073453447E+03 -0.37905516020E+02 -0.33862191686E+02  0.14963183272E+03  0.00000000000E+00 0.  1.
<mgrwt>
<rscale>  0 0.19950700E+04</rscale>
<asrwt>0</asrwt>
<pdfrwt beam="1">  1        2 0.33688753E+00 0.19950700E+04</pdfrwt>
<pdfrwt beam="2">  1       -1 0.69910859E-01 0.19950700E+04</pdfrwt>
<totfact> 0.11454209E+01</totfact>
</mgrwt>
</event>
<event>
11    7  0.1497947E-008  0.1768341E+04  0.7818608E-02  0.8723319E-01
         -1   -1    0    0    0  501 -0.00000000000E+00  0.00000000000E+00  0.18774156372E+03  0.18774156372E+03  0.00000000000E+00 0.  1.
          2   -1    0    0  501    0  0.00000000000E+00 -0.00000000000E+00 -0.41640069060E+04  0.41640069060E+04  0.00000000000E+00 0. -1.
         24    2    1    2    0    0  0.42502150868E+03 -0.48638350224E+03 -0.16094775163E+04  0.17360576817E+04  0.79159361800E+02 0.  0.
        254    2    1    2    0    0 -0.42502150868E+03  0.48638350224E+03 -0.23667878259E+04  0.26156907880E+04  0.90716122676E+03 0.  0.
         23    2    4    4    0    0 -0.35602918926E+03 -0.14325698796E+03 -0.77207021174E+03  0.86839534332E+03  0.10362775811E+03 0.  0.
          4    1    3    3  502    0  0.29913652396E+02 -0.66978503400E+02 -0.15068767007E+03  0.16759391525E+03  0.00000000000E+00 0. -1.
         -3    1    3    3    0  502  0.39510785629E+03 -0.41940499884E+03 -0.14587898463E+04  0.15684637665E+04  0.00000000000E+00 0.  1.
         13    1    5    5    0    0 -0.77791331645E+02 -0.69217226452E+02 -0.14637241873E+03  0.17963129093E+03  0.00000000000E+00 0. -1.
        -13    1    5    5    0    0 -0.27823785762E+03 -0.74039761512E+02 -0.62569779301E+03  0.68876405239E+03  0.00000000000E+00 0.  1.
          2    1    4    4  503    0  0.58148915550E+02  0.91246703850E+02 -0.79549092940E+02  0.13429562737E+03  0.00000000000E+00 0. -1.
         -2    1    4    4    0  503 -0.12714123497E+03  0.53839378635E+03 -0.15151685213E+04  0.16129998173E+04  0.00000000000E+00 0.  1.
<mgrwt>
<rscale>  0 0.17683407E+04</rscale>
<asrwt>0</asrwt>
<pdfrwt beam="1">  1        2 0.64061642E+00 0.17683407E+04</pdfrwt>
<pdfrwt beam="2">  1       -1 0.28883319E-01 0.17683407E+04</pdfrwt>
<totfact> 0.29882760E+00</totfact>
</mgrwt>
</event>
<event>
12    7  0.1497947E-008  0.4444001E+04  0.7818608E-02  0.7920514E-01
          4   -1    0    0  501    0  0.00000000000E+00  0.00000000000E+00  0.14223283937E+04  0.14223283937E+04  0.00000000000E+00 0. -1.
         -3   -1    0    0    0  501 -0.00000000000E+00 -0.00000000000E+00 -0.34712709907E+04  0.34712709907E+04  0.00000000000E+00 0.  1.
         24    2    1    2    0    0 -0.11496713593E+04  0.46633825437E+03  0.92634005016E+03  0.15503934170E+04  0.79989105834E+02 0.  0.
        254    2    1    2    0    0  0.11496713593E+04 -0.46633825437E+03 -0.29752826471E+04  0.33432059674E+04  0.88628647092E+03 0.  0.
         23    2    4    4    0    0  0.29558820020E+02  0.19780208966E+03 -0.43768607178E+03  0.49015440242E+03  0.93181812962E+02 0.  0.
         23    2    4    4    0    0  0.11201125393E+04 -0.66414034403E+03 -0.25375965753E+04  0.28530515650E+04  0.69082242379E+02 0.  0.
          4    1    3    3  502    0 -0.79503327403E+03  0.35018730289E+03  0.68026324579E+03  0.11033889330E+04  0.00000000000E+00 0. -1.
         -3    1    3    3    0  502 -0.35463808526E+03  0.11615095148E+03  0.24607680437E+03  0.44700448398E+03  0.00000000000E+00 0.  1.
         13    1    5    5    0    0  0.16075248679E+02  0.23507807722E+02 -0.13821825650E+02  0.31655544669E+02  0.00000000000E+00 0.  1.
        -13    1    5    5    0    0  0.13483571341E+02  0.17429428194E+03 -0.42386424613E+03  0.45849885775E+03  0.00000000000E+00 0. -1.
          2    1    6    6  503    0  0.11624417327E+03 -0.59565537249E+02 -0.29882632227E+03  0.32612563826E+03  0.00000000000E+00 0.  1.
         -2    1    6    6    0  503  0.10038683660E+04 -0.60457480678E+03 -0.22387702530E+04  0.25269259267E+04  0.00000000000E+00 0. -1.
<mgrwt>
<rscale>  0 0.44440015E+04</rscale>
<asrwt>0</asrwt>
<pdfrwt beam="1">  1        4 0.21881976E+00 0.44440015E+04</pdfrwt>
<pdfrwt beam="2">  1       -3 0.53404168E+00 0.44440015E+04</pdfrwt>
<totfact> 0.34206397E-04</totfact>
</mgrwt>
</event>
<event>
12    7  0.1497947E-008  0.2616460E+04  0.7818608E-02  0.8362631E-01
         -1   -1    0    0    0  501 -0.00000000000E+00  0.00000000000E+00  0.24898408036E+04  0.24898408036E+04  0.00000000000E+00 0.  1.
          2   -1    0    0  501    0  0.00000000000E+00 -0.00000000000E+00 -0.68737979359E+03  0.68737979359E+03  0.00000000000E+00 0. -1.
         24    2    1    2    0    0 -0.42902704948E+02  0.70753881302E+03  0.19015455797E+04  0.20311676356E+04  0.85525188970E+02 0.  0.
        254    2    1    2    0    0  0.42902704948E+02 -0.70753881302E+03 -0.99084569681E+02  0.11460529617E+04  0.89507978693E+03 0.  0.
         23    2    4    4    0    0  0.14483790589E+03  0.17471528100E+03 -0.28674060250E+02  0.24658769151E+03  0.92086043863E+02 0.  0.
         23    2    4    4    0    0 -0.10193520094E+03 -0.88225409403E+03 -0.70410509432E+02  0.89946527016E+03  0.12376211362E+03 0.  0.
          4    1    3    3  502    0 -0.64666004362E+01  0.39687858018E+03  0.95216974725E+03  0.10315918049E+04  0.00000000000E+00 0. -1.
         -3    1    3    3    0  502 -0.36436104511E+02  0.31066023284E+03  0.94937583248E+03  0.99957583068E+03  0.00000000000E+00 0.  1.
         13    1    5    5    0    0  0.14699243770E+03  0.18261733173E+03 -0.33910108260E+02  0.23686654899E+03  0.00000000000E+00 0. -1.
        -13    1    5    5    0    0 -0.21545318146E+01 -0.79020507268E+01  0.52360480104E+01  0.97211425150E+01  0.00000000000E+00 0.  1.
          1    1    6    6  503    0 -0.15701910812E+02 -0.24654403139E+03  0.34402413386E+02  0.24942741522E+03  0.00000000000E+00 0. -1.
         -1    1    6    6    0  503 -0.86233290126E+02 -0.63571006264E+03 -0.10481292282E+03  0.65003785494E+03  0.00000000000E+00 0.  1.
<mgrwt>
<rscale>  0 0.26164604E+04</rscale>
<asrwt>0</asrwt>
<pdfrwt beam="1">  1        2 0.10575074E+00 0.26164604E+04</pdfrwt>
<pdfrwt beam="2">  1       -1 0.38305243E+00 0.26164604E+04</pdfrwt>
<totfact> 0.39411574E-01</totfact>
</mgrwt>
</event>
<event>
12    7  0.1497947E-008  0.2085901E+04  0.7818608E-02  0.8567480E-01
         -1   -1    0    0    0  501 -0.00000000000E+00  0.00000000000E+00  0.50630892945E+03  0.50630892945E+03  0.00000000000E+00 0.  1.
          2   -1    0    0  501    0  0.00000000000E+00 -0.00000000000E+00 -0.21483830147E+04  0.21483830147E+04  0.00000000000E+00 0. -1.
         24    2    1    2    0    0 -0.51592677287E+03 -0.80527498744E+02  0.18289398775E+03  0.55899029280E+03  0.79717147943E+02 0.  0.
        254    2    1    2    0    0  0.51592677287E+03  0.80527498744E+02 -0.18249680730E+04  0.20957016514E+04  0.88813953350E+03 0.  0.
         23    2    4    4    0    0  0.62361529439E+03 -0.17489634191E+03 -0.83942802563E+03  0.10640996976E+04  0.90465410369E+02 0.  0.
         23    2    4    4    0    0 -0.10768852152E+03  0.25542384065E+03 -0.98554004738E+03  0.10316019537E+04  0.12678820884E+03 0.  0.
          4    1    3    3  502    0 -0.67682706286E+02 -0.38726732060E+02  0.24139300101E+02  0.81629739162E+02  0.00000000000E+00 0. -1.
         -3    1    3    3    0  502 -0.44824406658E+03 -0.41800766684E+02  0.15875468764E+03  0.47736055364E+03  0.00000000000E+00 0.  1.
         13    1    5    5    0    0  0.12210155137E+03 -0.13361603120E+01 -0.18265913794E+03  0.21971557716E+03  0.00000000000E+00 0.  1.
        -13    1    5    5    0    0  0.50151374302E+03 -0.17356018160E+03 -0.65676888769E+03  0.84438412047E+03  0.00000000000E+00 0. -1.
          3    1    6    6  503    0 -0.10486978986E+03  0.88489667552E+02 -0.41145030570E+03  0.43372738921E+03  0.00000000000E+00 0. -1.
         -3    1    6    6    0  503 -0.28187316633E+01  0.16693417310E+03 -0.57408974168E+03  0.59787456452E+03  0.00000000000E+00 0.  1.
<mgrwt>
<rscale>  0 0.20859008E+04</rscale>
<asrwt>0</asrwt>
<pdfrwt beam="1">  1        2 0.33052045E+00 0.20859008E+04</pdfrwt>
<pdfrwt beam="2">  1       -1 0.77893684E-01 0.20859008E+04</pdfrwt>
<totfact> 0.95710173E+00</totfact>
</mgrwt>
</event>
<event>
12    7  0.1497947E-008  0.3219558E+04  0.7818608E-02  0.8183671E-01
          2   -1    0    0  501    0  0.00000000000E+00  0.00000000000E+00  0.47229322002E+04  0.47229322002E+04  0.00000000000E+00 0. -1.
         -1   -1    0    0    0  501 -0.00000000000E+00 -0.00000000000E+00 -0.54868198090E+03  0.54868198090E+03  0.00000000000E+00 0.  1.
         24    2    1    2    0    0 -0.11323083585E+04  0.43713876641E+03  0.33191157840E+04  0.35349816792E+04  0.79707997183E+02 0.  0.
        254    2    1    2    0    0  0.11323083585E+04 -0.43713876641E+03  0.85513443527E+03  0.17366325019E+04  0.90079133239E+03 0.  0.
         23    2    4    4    0    0  0.48823167132E+03 -0.51744331400E+03  0.80417312022E+03  0.10772415716E+04  0.87391351329E+02 0.  0.
         23    2    4    4    0    0  0.64407668713E+03  0.80304547592E+02  0.50961315050E+02  0.65939093025E+03  0.10447843794E+03 0.  0.
          4    1    3    3  502    0 -0.11035930149E+04  0.43797882084E+03  0.32522278323E+04  0.34621855616E+04  0.00000000000E+00 0. -1.
         -3    1    3    3    0  502 -0.28715343523E+02 -0.84005442328E+00  0.66887951744E+02  0.72796117572E+02  0.00000000000E+00 0.  1.
         13    1    5    5    0    0  0.27893330295E+03 -0.29464362338E+03  0.52281001209E+03  0.66177712338E+03  0.00000000000E+00 0. -1.
        -13    1    5    5    0    0  0.20929836837E+03 -0.22279969062E+03  0.28136310814E+03  0.41546444825E+03  0.00000000000E+00 0.  1.
          4    1    6    6  503    0  0.44191164035E+03  0.59439513606E+01  0.38442422405E+02  0.44362038758E+03  0.00000000000E+00 0. -1.
         -4    1    6    6    0  503  0.20216504678E+03  0.74360596231E+02  0.12518892644E+02  0.21577054267E+03  0.00000000000E+00 0.  1.
<mgrwt>
<rscale>  0 0.32195576E+04</rscale>
<asrwt>0</asrwt>
<pdfrwt beam="1">  1        2 0.72660492E+00 0.32195576E+04</pdfrwt>
<pdfrwt beam="2">  1       -1 0.84412616E-01 0.32195576E+04</pdfrwt>
<totfact> 0.95843273E-02</totfact>
</mgrwt>
</event>
<event>
12    7  0.1497947E-008  0.1410623E+04  0.7818608E-02  0.8946165E-01
          2   -1    0    0  501    0  0.00000000000E+00  0.00000000000E+00  0.50988068218E+03  0.50988068218E+03  0.00000000000E+00 0. -1.
         -1   -1    0    0    0  501 -0.00000000000E+00 -0.00000000000E+00 -0.97564797523E+03  0.97564797523E+03  0.00000000000E+00 0.  1.
         24    2    1    2    0    0  0.36617784279E+02  0.41647140745E+03 -0.12199260060E+02  0.42588068279E+03  0.80226172044E+02 0.  0.
        254    2    1    2    0    0 -0.36617784279E+02 -0.41647140745E+03 -0.45356803299E+03  0.10596479746E+04  0.86159188380E+03 0.  0.
         23    2    4    4    0    0  0.22964681484E+03  0.86735721622E+02  0.78584141823E+02  0.27336584549E+03  0.91064115669E+02 0.  0.
         23    2    4    4    0    0 -0.26626459912E+03 -0.50320712907E+03 -0.53215217481E+03  0.78628212913E+03  0.10459157683E+03 0.  0.
          2    1    3    3  502    0  0.52485447682E+01  0.13198260583E+03  0.32934245534E+02  0.13613089287E+03  0.00000000000E+00 0. -1.
         -1    1    3    3    0  502  0.31369239510E+02  0.28448880162E+03 -0.45133505594E+02  0.28974978992E+03  0.00000000000E+00 0.  1.
         13    1    5    5    0    0  0.44602639140E+02 -0.36611692351E+01 -0.14940252270E+02  0.47180618015E+02  0.00000000000E+00 0.  1.
        -13    1    5    5    0    0  0.18504417570E+03  0.90396890857E+02  0.93524394093E+02  0.22618522748E+03  0.00000000000E+00 0. -1.
          2    1    6    6  503    0 -0.13745653617E+03 -0.34410139753E+03 -0.38370502213E+03  0.53341317487E+03  0.00000000000E+00 0. -1.
         -2    1    6    6    0  503 -0.12880806295E+03 -0.15910573154E+03 -0.14844715268E+03  0.25286895426E+03  0.00000000000E+00 0.  1.
<mgrwt>
<rscale>  0 0.14106226E+04</rscale>
<asrwt>0</asrwt>
<pdfrwt beam="1">  1        2 0.78443183E-01 0.14106226E+04</pdfrwt>
<pdfrwt beam="2">  1       -1 0.15009969E+00 0.14106226E+04</pdfrwt>
<totfact> 0.23311448E+01</totfact>
</mgrwt>
</event>
<event>
11    7  0.1497947E-008  0.1701000E+04  0.7818608E-02  0.8760794E-01
          2   -1    0    0  501    0  0.00000000000E+00  0.00000000000E+00  0.21290031611E+04  0.21290031611E+04  0.00000000000E+00 0. -1.
         -1   -1    0    0    0  501 -0.00000000000E+00 -0.00000000000E+00 -0.33976005921E+03  0.33976005921E+03  0.00000000000E+00 0.  1.
         24    2    1    2    0    0 -0.49387110394E+03  0.20929156546E+03  0.22852119663E+03  0.58863610548E+03  0.80987040276E+02 0.  0.
        254    2    1    2    0    0  0.49387110394E+03 -0.20929156546E+03  0.15607219052E+04  0.18801271148E+04  0.90072941309E+03 0.  0.
         23    2    4    4    0    0  0.53736844211E+03  0.13425270383E+03  0.97482399739E+03  0.11245074551E+04  0.86293450806E+02 0.  0.
          4    1    3    3  502    0 -0.37347215882E+01 -0.47401648406E+01 -0.18342178612E+01  0.63072706633E+01  0.00000000000E+00 0. -1.
         -3    1    3    3    0  502 -0.49013638235E+03  0.21403173030E+03  0.23035541449E+03  0.58232883482E+03  0.00000000000E+00 0.  1.
         13    1    5    5    0    0  0.33032925389E+03  0.11602950305E+03  0.55809848667E+03  0.65882788525E+03  0.00000000000E+00 0. -1.
        -13    1    5    5    0    0  0.20703918822E+03  0.18223200779E+02  0.41672551072E+03  0.46567956986E+03  0.00000000000E+00 0.  1.
          3    1    4    4  503    0 -0.65965571920E+02 -0.35085732565E+03  0.29320796337E+03  0.46197752047E+03  0.00000000000E+00 0. -1.
         -3    1    4    4    0  503  0.22468233747E+02  0.73130563583E+01  0.29268994447E+03  0.29364213920E+03  0.00000000000E+00 0.  1.
<mgrwt>
<rscale>  0 0.17010000E+04</rscale>
<asrwt>0</asrwt>
<pdfrwt beam="1">  1        2 0.32753894E+00 0.17010000E+04</pdfrwt>
<pdfrwt beam="2">  1       -1 0.52270779E-01 0.17010000E+04</pdfrwt>
<totfact> 0.22619502E+01</totfact>
</mgrwt>
</event>
<event>
12    7  0.1497947E-008  0.2303224E+04  0.7818608E-02  0.8476651E-01
         -1   -1    0    0    0  501 -0.00000000000E+00  0.00000000000E+00  0.88219966625E+03  0.88219966625E+03  0.00000000000E+00 0.  1.
          2   -1    0    0  501    0  0.00000000000E+00 -0.00000000000E+00 -0.15032997236E+04  0.15032997236E+04  0.00000000000E+00 0. -1.
         24    2    1    2    0    0 -0.54975519682E+03  0.58475749153E+03  0.30855475030E+03  0.86383183610E+03  0.82627518318E+02 0.  0.
        254    2    1    2    0    0  0.54975519682E+03 -0.58475749153E+03 -0.92965480769E+03  0.15216675538E+04  0.89835515387E+03 0.  0.
         23    2    4    4    0    0  0.34341950414E+03 -0.69000377692E+03 -0.99106395288E+03  0.12586230112E+04  0.88780389754E+02 0.  0.
         23    2    4    4    0    0  0.20633569268E+03  0.10524628539E+03  0.61409145192E+02  0.26304454261E+03  0.10849032040E+03 0.  0.
          2    1    3    3  502    0 -0.32252678625E+03  0.31861348366E+03  0.21399938438E+03  0.50133204200E+03  0.00000000000E+00 0. -1.
         -3    1    3    3    0  502 -0.22722841057E+03  0.26614400787E+03  0.94555365929E+02  0.36249979410E+03  0.00000000000E+00 0.  1.
         13    1    5    5    0    0  0.16488346660E+03 -0.41268249660E+03 -0.60868871620E+03  0.75365466481E+03  0.00000000000E+00 0.  1.
        -13    1    5    5    0    0  0.17853603754E+03 -0.27732128032E+03 -0.38237523668E+03  0.50496834638E+03  0.00000000000E+00 0. -1.
          3    1    6    6  503    0  0.16893503874E+02  0.23362337321E+02 -0.26087966349E+02  0.38881502884E+02  0.00000000000E+00 0. -1.
         -3    1    6    6    0  503  0.18944218880E+03  0.81883948065E+02  0.87497111542E+02  0.22416303972E+03  0.00000000000E+00 0.  1.
<mgrwt>
<rscale>  0 0.23032243E+04</rscale>
<asrwt>0</asrwt>
<pdfrwt beam="1">  1        2 0.23127688E+00 0.23032243E+04</pdfrwt>
<pdfrwt beam="2">  1       -1 0.13572303E+00 0.23032243E+04</pdfrwt>
<totfact> 0.59296507E+00</totfact>
</mgrwt>
</event>
<event>
12    7  0.1497947E-008  0.3041011E+04  0.7818608E-02  0.8232116E-01
         -1   -1    0    0    0  501 -0.00000000000E+00  0.00000000000E+00  0.11201600173E+04  0.11201600173E+04  0.00000000000E+00 0.  1.
          2   -1    0    0  501    0  0.00000000000E+00 -0.00000000000E+00 -0.20639342868E+04  0.20639342868E+04  0.00000000000E+00 0. -1.
         24    2    1    2    0    0 -0.50563216805E+03  0.68662720033E+03 -0.15844026233E+04  0.18013035746E+04  0.85100490247E+02 0.  0.
        254    2    1    2    0    0  0.50563216805E+03 -0.68662720033E+03  0.64062835384E+03  0.13827907294E+04  0.88010494376E+03 0.  0.
         23    2    4    4    0    0  0.34142274879E+03 -0.30260881801E+03  0.79728314917E+03  0.92358558083E+03  0.95959965875E+02 0.  0.
         23    2    4    4    0    0  0.16420941926E+03 -0.38401838231E+03 -0.15665479533E+03  0.45920514858E+03  0.10905866429E+03 0.  0.
          2    1    3    3  502    0 -0.50312642715E+03  0.66526441019E+03 -0.15582374926E+04  0.17674323241E+04  0.00000000000E+00 0. -1.
         -1    1    3    3    0  502 -0.25057408978E+01  0.21362790138E+02 -0.26165130782E+02  0.33871250475E+02  0.00000000000E+00 0.  1.
         13    1    5    5    0    0  0.17140039449E+03 -0.12527292957E+03  0.45679431692E+03  0.50371862193E+03  0.00000000000E+00 0. -1.
        -13    1    5    5    0    0  0.17002235430E+03 -0.17733588844E+03  0.34048883225E+03  0.41986695890E+03  0.00000000000E+00 0.  1.
          1    1    6    6  503    0  0.16977729233E+03 -0.38818177494E+03 -0.15788041699E+03  0.45214560205E+03  0.00000000000E+00 0. -1.
         -1    1    6    6    0  503 -0.55678730717E+01  0.41633926274E+01  0.12256216646E+01  0.70595465277E+01  0.00000000000E+00 0.  1.
<mgrwt>
<rscale>  0 0.30410108E+04</rscale>
<asrwt>0</asrwt>
<pdfrwt beam="1">  1        2 0.31752835E+00 0.30410108E+04</pdfrwt>
<pdfrwt beam="2">  1       -1 0.17233231E+00 0.30410108E+04</pdfrwt>
<totfact> 0.14127911E+00</totfact>
</mgrwt>
</event>
<event>
12    7  0.1497947E-008  0.1242722E+04  0.7818608E-02  0.9076263E-01
         -1   -1    0    0    0  501 -0.00000000000E+00  0.00000000000E+00  0.55212771787E+03  0.55212771787E+03  0.00000000000E+00 0.  1.
          2   -1    0    0  501    0  0.00000000000E+00 -0.00000000000E+00 -0.69927532509E+03  0.69927532509E+03  0.00000000000E+00 0. -1.
         24    2    1    2    0    0 -0.21514720556E+03  0.42441832527E+02 -0.19970652337E+03  0.30544426052E+03  0.72964865523E+02 0.  0.
        254    2    1    2    0    0  0.21514720556E+03 -0.42441832527E+02  0.52558916155E+02  0.94595878243E+03  0.91868707903E+03 0.  0.
         23    2    4    4    0    0 -0.18849492529E+02  0.37977457792E+02  0.45651615786E+03  0.46717222616E+03  0.89695573158E+02 0.  0.
         23    2    4    4    0    0  0.23399669809E+03 -0.80419290320E+02 -0.40395724170E+03  0.47878655626E+03  0.69522632015E+02 0.  0.
          4    1    3    3  502    0 -0.37480067457E+02 -0.18067430360E+02 -0.52047858392E+02  0.66634578558E+02  0.00000000000E+00 0. -1.
         -1    1    3    3    0  502 -0.17766713810E+03  0.60509262888E+02 -0.14765866498E+03  0.23880968197E+03  0.00000000000E+00 0.  1.
         13    1    5    5    0    0  0.11878731178E+01 -0.26062058329E+02  0.66658591512E+02  0.71582188771E+02  0.00000000000E+00 0.  1.
        -13    1    5    5    0    0 -0.20037365646E+02  0.64039516121E+02  0.38985756635E+03  0.39559003739E+03  0.00000000000E+00 0. -1.
          3    1    6    6  503    0  0.20458778292E+03 -0.87107627176E+02 -0.37996834988E+03  0.44024975473E+03  0.00000000000E+00 0. -1.
         -3    1    6    6    0  503  0.29408915167E+02  0.66883368565E+01 -0.23988891824E+02  0.38536801530E+02  0.00000000000E+00 0.  1.
<mgrwt>
<rscale>  0 0.12427217E+04</rscale>
<asrwt>0</asrwt>
<pdfrwt beam="1">  1        2 0.10758082E+00 0.12427217E+04</pdfrwt>
<pdfrwt beam="2">  1       -1 0.84942727E-01 0.12427217E+04</pdfrwt>
<totfact> 0.63254129E+01</totfact>
</mgrwt>
</event>
<event>
12    7  0.1497947E-008  0.1938922E+04  0.7818608E-02  0.8635721E-01
          2   -1    0    0  501    0  0.00000000000E+00  0.00000000000E+00  0.63587868327E+03  0.63587868327E+03  0.00000000000E+00 0. -1.
         -1   -1    0    0    0  501 -0.00000000000E+00 -0.00000000000E+00 -0.14780405765E+04  0.14780405765E+04  0.00000000000E+00 0.  1.
         24    2    1    2    0    0 -0.38179910048E+03  0.44893358123E+03  0.18720424029E+03  0.62392809402E+03  0.83240167234E+02 0.  0.
        254    2    1    2    0    0  0.38179910048E+03 -0.44893358123E+03 -0.10293661335E+04  0.14899911657E+04  0.90175779654E+03 0.  0.
         23    2    4    4    0    0  0.37227187486E+03  0.94311864335E+01 -0.30986400880E+02  0.38631449332E+03  0.97997115361E+02 0.  0.
         23    2    4    4    0    0  0.95272256200E+01 -0.45836476766E+03 -0.99837973261E+03  0.11036766724E+04  0.10559866674E+03 0.  0.
          2    1    3    3  502    0 -0.32998179503E+03  0.37253268024E+03  0.18693061659E+03  0.53161230076E+03  0.00000000000E+00 0. -1.
         -1    1    3    3    0  502 -0.51817305451E+02  0.76400900990E+02  0.27362370854E+00  0.92315793265E+02  0.00000000000E+00 0.  1.
         13    1    5    5    0    0  0.34820962387E+03 -0.25999067392E+01 -0.40473797767E+01  0.34824285055E+03  0.00000000000E+00 0. -1.
        -13    1    5    5    0    0  0.24062250988E+02  0.12031093173E+02 -0.26939021103E+02  0.38071642774E+02  0.00000000000E+00 0.  1.
          4    1    6    6  503    0  0.19740686350E+02 -0.41219439751E+03 -0.80512717871E+03  0.90472299072E+03  0.00000000000E+00 0. -1.
         -4    1    6    6    0  503 -0.10213460730E+02 -0.46170370153E+02 -0.19325255390E+03  0.19895368166E+03  0.00000000000E+00 0.  1.
<mgrwt>
<rscale>  0 0.19389219E+04</rscale>
<asrwt>0</asrwt>
<pdfrwt beam="1">  1        2 0.97827491E-01 0.19389219E+04</pdfrwt>
<pdfrwt beam="2">  1       -1 0.22739086E+00 0.19389219E+04</pdfrwt>
<totfact> 0.48379218E+00</totfact>
</mgrwt>
</event>
<event>
12    7  0.1497947E-008  0.1057013E+04  0.7818608E-02  0.9248133E-01
         -1   -1    0    0    0  501 -0.00000000000E+00  0.00000000000E+00  0.11253648652E+03  0.11253648652E+03  0.00000000000E+00 0.  1.
          2   -1    0    0  501    0  0.00000000000E+00 -0.00000000000E+00 -0.24820329341E+04  0.24820329341E+04  0.00000000000E+00 0. -1.
         24    2    1    2    0    0 -0.46616230101E+02 -0.16373846123E+02 -0.56219580694E+03  0.57217523899E+03  0.94229523083E+02 0.  0.
        254    2    1    2    0    0  0.46616230101E+02  0.16373846123E+02 -0.18073006406E+04  0.20223941816E+04  0.90625683142E+03 0.  0.
         23    2    4    4    0    0 -0.29399332927E+03  0.12834909244E+02 -0.15456804433E+04  0.15762370690E+04  0.93800065429E+02 0.  0.
         23    2    4    4    0    0  0.34060955937E+03  0.35389368786E+01 -0.26162019733E+03  0.44615711264E+03  0.12076276538E+03 0.  0.
          2    1    3    3  502    0 -0.36095564297E+02 -0.23047388131E+02 -0.55705295334E+03  0.55869675558E+03  0.00000000000E+00 0. -1.
         -1    1    3    3    0  502 -0.10520665805E+02  0.66735420076E+01 -0.51428535962E+01  0.13478483409E+02  0.00000000000E+00 0.  1.
         13    1    5    5    0    0 -0.97717425462E+02  0.29108188165E+02 -0.35398994704E+03  0.36838141166E+03  0.00000000000E+00 0.  1.
        -13    1    5    5    0    0 -0.19627590381E+03 -0.16273278921E+02 -0.11916904963E+04  0.12078556573E+04  0.00000000000E+00 0. -1.
          2    1    6    6  503    0  0.28756475464E+03 -0.35237570290E+02 -0.24226060944E+03  0.37765775162E+03  0.00000000000E+00 0. -1.
         -2    1    6    6    0  503  0.53044804730E+02  0.38776507169E+02 -0.19359587882E+02  0.68499361019E+02  0.00000000000E+00 0.  1.
<mgrwt>
<rscale>  0 0.10570133E+04</rscale>
<asrwt>0</asrwt>
<pdfrwt beam="1">  1        2 0.38185117E+00 0.10570133E+04</pdfrwt>
<pdfrwt beam="2">  1       -1 0.17313308E-01 0.10570133E+04</pdfrwt>
<totfact> 0.10615655E+02</totfact>
</mgrwt>
</event>
<event>
12    7  0.1708745E-008  0.1934694E+04  0.7818608E-02  0.8637777E-01
          2   -1    0    0  501    0  0.00000000000E+00  0.00000000000E+00  0.27813480655E+04  0.27813480655E+04  0.00000000000E+00 0. -1.
         -1   -1    0    0    0  501 -0.00000000000E+00 -0.00000000000E+00 -0.33644114287E+03  0.33644114287E+03  0.00000000000E+00 0.  1.
         24    2    1    2    0    0  0.11286571828E+03  0.50551758604E+03  0.18446854183E+04  0.19176557858E+04  0.79074144061E+02 0.  0.
        254    2    1    2    0    0 -0.11286571828E+03 -0.50551758604E+03  0.60022150432E+03  0.12001334225E+04  0.90098150784E+03 0.  0.
         23    2    4    4    0    0 -0.49728820778E+03 -0.28113191033E+03  0.38264064773E+03  0.69394478480E+03  0.93887094238E+02 0.  0.
         23    2    4    4    0    0  0.38442248949E+03 -0.22438567571E+03  0.21758085660E+03  0.50618863773E+03  0.10371078012E+03 0.  0.
          4    1    3    3  502    0  0.11174996924E+03  0.50410262944E+03  0.17911091234E+04  0.18640491969E+04  0.00000000000E+00 0. -1.
         -3    1    3    3    0  502  0.11157490447E+01  0.14149565985E+01  0.53576294901E+02  0.53606588899E+02  0.00000000000E+00 0.  1.
         13    1    5    5    0    0 -0.74622460918E+02 -0.15634741352E+02  0.26251927889E+02  0.80635727370E+02  0.00000000000E+00 0. -1.
        -13    1    5    5    0    0 -0.42266574686E+03 -0.26549716898E+03  0.35638871984E+03  0.61330905743E+03  0.00000000000E+00 0.  1.
          3    1    6    6  503    0  0.80739332578E+00 -0.17849486036E+02  0.22753018193E+02  0.28930189640E+02  0.00000000000E+00 0. -1.
         -3    1    6    6    0  503  0.38361509617E+03 -0.20653618968E+03  0.19482783840E+03  0.47725844809E+03  0.00000000000E+00 0.  1.
<mgrwt>
<rscale>  0 0.19346937E+04</rscale>
<asrwt>0</asrwt>
<pdfrwt beam="1">  1        2 0.42789969E+00 0.19346937E+04</pdfrwt>
<pdfrwt beam="2">  1       -1 0.51760178E-01 0.19346937E+04</pdfrwt>
<totfact> 0.94955793E+00</totfact>
</mgrwt>
</event>
<event>
11    7  0.1497947E-008  0.1117725E+04  0.7818608E-02  0.9188086E-01
          2   -1    0    0  501    0  0.00000000000E+00  0.00000000000E+00  0.13911472211E+04  0.13911472211E+04  0.00000000000E+00 0. -1.
         -1   -1    0    0    0  501 -0.00000000000E+00 -0.00000000000E+00 -0.22451060777E+03  0.22451060777E+03  0.00000000000E+00 0.  1.
         24    2    1    2    0    0 -0.97255816054E+02 -0.90508310024E+02  0.37836475933E+03  0.40884097816E+03  0.79627924586E+02 0.  0.
        254    2    1    2    0    0  0.97255816054E+02  0.90508310024E+02  0.78827185402E+03  0.12068168507E+04  0.90409288650E+03 0.  0.
         23    2    4    4    0    0  0.36841254178E+03 -0.22882755865E+03  0.29220835466E+03  0.53077629143E+03  0.90817930358E+02 0.  0.
          4    1    3    3  502    0  0.93899240770E+01 -0.40554533943E+01  0.57359268204E+01  0.11726816827E+02  0.00000000000E+00 0. -1.
         -3    1    3    3    0  502 -0.10664574013E+03 -0.86452856630E+02  0.37262883251E+03  0.39711416133E+03  0.00000000000E+00 0.  1.
         13    1    5    5    0    0  0.91947609680E+01  0.46909814558E+01  0.21830099285E+02  0.24147508590E+02  0.00000000000E+00 0.  1.
        -13    1    5    5    0    0  0.35921778081E+03 -0.23351854010E+03  0.27037825537E+03  0.50662878284E+03  0.00000000000E+00 0. -1.
          1    1    4    4  503    0 -0.24753542757E+03  0.22820211895E+03  0.47038422543E+03  0.57845597458E+03  0.00000000000E+00 0. -1.
         -1    1    4    4    0  503 -0.23621298155E+02  0.91133749722E+02  0.25679273937E+02  0.97584584719E+02  0.00000000000E+00 0.  1.
<mgrwt>
<rscale>  0 0.11177250E+04</rscale>
<asrwt>0</asrwt>
<pdfrwt beam="1">  1        2 0.21402264E+00 0.11177250E+04</pdfrwt>
<pdfrwt beam="2">  1       -1 0.34540094E-01 0.11177250E+04</pdfrwt>
<totfact> 0.13137700E+02</totfact>
</mgrwt>
</event>
<event>
11    7  0.1497947E-008  0.1568787E+04  0.7818608E-02  0.8839956E-01
          2   -1    0    0  501    0  0.00000000000E+00  0.00000000000E+00  0.11377096587E+04  0.11377096587E+04  0.00000000000E+00 0. -1.
         -1   -1    0    0    0  501 -0.00000000000E+00 -0.00000000000E+00 -0.54079981050E+03  0.54079981050E+03  0.00000000000E+00 0.  1.
         24    2    1    2    0    0  0.86765259625E+02  0.22585995428E+03  0.59563313688E+03  0.64733235905E+03  0.75626847769E+02 0.  0.
        254    2    1    2    0    0 -0.86765259625E+02 -0.22585995428E+03  0.12767113088E+01  0.10311771101E+04  0.10023889830E+04 0.  0.
         23    2    4    4    0    0 -0.21427133753E+03 -0.49119349935E+03  0.15400405845E+03  0.56564534418E+03  0.95153273664E+02 0.  0.
          2    1    3    3  502    0  0.86358459120E+02  0.22447733071E+03  0.59800318608E+03  0.64455850473E+03  0.00000000000E+00 0. -1.
         -1    1    3    3    0  502  0.40680050468E+00  0.13826235730E+01 -0.23700491982E+01  0.27738543216E+01  0.00000000000E+00 0.  1.
         13    1    5    5    0    0 -0.80209373899E+02 -0.29248226794E+03  0.66645550543E+02  0.31051739102E+03  0.00000000000E+00 0. -1.
        -13    1    5    5    0    0 -0.13406196363E+03 -0.19871123141E+03  0.87358507904E+02  0.25512795316E+03  0.00000000000E+00 0.  1.
          4    1    4    4  503    0 -0.10578978902E+03  0.45479698594E+02 -0.68884525558E+02  0.13418256335E+03  0.00000000000E+00 0.  1.
         -4    1    4    4    0  503  0.23329586693E+03  0.21985384647E+03 -0.83842821580E+02  0.33134920260E+03  0.00000000000E+00 0. -1.
<mgrwt>
<rscale>  0 0.15687870E+04</rscale>
<asrwt>0</asrwt>
<pdfrwt beam="1">  1        2 0.17503225E+00 0.15687870E+04</pdfrwt>
<pdfrwt beam="2">  1       -1 0.83199971E-01 0.15687870E+04</pdfrwt>
<totfact> 0.32475143E+01</totfact>
</mgrwt>
</event>
<event>
11    7  0.1497947E-008  0.2342538E+04  0.7818608E-02  0.8461335E-01
          2   -1    0    0  501    0  0.00000000000E+00  0.00000000000E+00  0.33052109707E+04  0.33052109707E+04  0.00000000000E+00 0. -1.
         -1   -1    0    0    0  501 -0.00000000000E+00 -0.00000000000E+00 -0.41506299222E+03  0.41506299222E+03  0.00000000000E+00 0.  1.
         24    2    1    2    0    0  0.94860258433E+03 -0.88514274755E+02  0.77951219003E+03  0.12336222637E+04  0.80641151127E+02 0.  0.
        254    2    1    2    0    0 -0.94860258433E+03  0.88514274755E+02  0.21106357884E+04  0.24866516992E+04  0.90607483238E+03 0.  0.
         23    2    4    4    0    0 -0.92921055359E+03  0.27654809860E+03  0.20092697570E+04  0.22327413395E+04  0.89765408666E+02 0.  0.
          2    1    3    3  502    0  0.39326853892E+03 -0.38732495263E+02  0.37499494962E+03  0.54477661672E+03  0.00000000000E+00 0. -1.
         -1    1    3    3    0  502  0.55533404542E+03 -0.49781779491E+02  0.40451724041E+03  0.68884564698E+03  0.00000000000E+00 0.  1.
         13    1    5    5    0    0 -0.72711499227E+03  0.25177695585E+03  0.16188922428E+04  0.17924563987E+04  0.00000000000E+00 0.  1.
        -13    1    5    5    0    0 -0.20209556132E+03  0.24771142751E+02  0.39037751427E+03  0.44028494077E+03  0.00000000000E+00 0. -1.
          3    1    4    4  503    0  0.12243655047E+02 -0.19164894864E+03  0.58972293390E+02  0.20089041289E+03  0.00000000000E+00 0.  1.
         -3    1    4    4    0  503 -0.31635685786E+02  0.36151247954E+01  0.42393737964E+02  0.53019946822E+02  0.00000000000E+00 0. -1.
<mgrwt>
<rscale>  0 0.23425377E+04</rscale>
<asrwt>0</asrwt>
<pdfrwt beam="1">  1        2 0.50849398E+00 0.23425377E+04</pdfrwt>
<pdfrwt beam="2">  1       -1 0.63855847E-01 0.23425377E+04</pdfrwt>
<totfact> 0.28289293E+00</totfact>
</mgrwt>
</event>
<event>
12    7  0.1497947E-008  0.2209610E+04  0.7818608E-02  0.8514439E-01
         -1   -1    0    0    0  501 -0.00000000000E+00  0.00000000000E+00  0.54765080441E+03  0.54765080441E+03  0.00000000000E+00 0.  1.
          2   -1    0    0  501    0  0.00000000000E+00 -0.00000000000E+00 -0.22287820124E+04  0.22287820124E+04  0.00000000000E+00 0. -1.
         24    2    1    2    0    0  0.71714332920E+02  0.50256779326E+03 -0.16643199071E+04  0.17418187976E+04  0.79086271977E+02 0.  0.
        254    2    1    2    0    0 -0.71714332920E+02 -0.50256779326E+03 -0.16811300969E+02  0.10346140192E+04  0.90134689023E+03 0.  0.
         23    2    4    4    0    0 -0.28777630957E+03 -0.64010739803E+03  0.14724308337E+03  0.72281482031E+03  0.90708618687E+02 0.  0.
         23    2    4    4    0    0  0.21606197665E+03  0.13753960477E+03 -0.16405438433E+03  0.31179919889E+03  0.68592847847E+02 0.  0.
          2    1    3    3  502    0  0.68120858545E+02  0.50363201947E+03 -0.16602158367E+04  0.17362610077E+04  0.00000000000E+00 0. -1.
         -1    1    3    3    0  502  0.35934743753E+01 -0.10642262159E+01 -0.41040703350E+01  0.55577899240E+01  0.00000000000E+00 0.  1.
         13    1    5    5    0    0 -0.10244892443E+03 -0.16321011316E+03  0.93965370703E+01  0.19292904930E+03  0.00000000000E+00 0.  1.
        -13    1    5    5    0    0 -0.18532738514E+03 -0.47689728487E+03  0.13784654630E+03  0.52988577102E+03  0.00000000000E+00 0. -1.
          4    1    6    6  503    0  0.49430664393E+02  0.25781594562E+02 -0.71973048963E+02  0.91039557213E+02  0.00000000000E+00 0. -1.
         -4    1    6    6    0  503  0.16663131225E+03  0.11175801021E+03 -0.92081335371E+02  0.22075964168E+03  0.00000000000E+00 0.  1.
<mgrwt>
<rscale>  0 0.22096102E+04</rscale>
<asrwt>0</asrwt>
<pdfrwt beam="1">  1        2 0.34288955E+00 0.22096102E+04</pdfrwt>
<pdfrwt beam="2">  1       -1 0.84253968E-01 0.22096102E+04</pdfrwt>
<totfact> 0.72148768E+00</totfact>
</mgrwt>
</event>
<event>
11    7  0.1497947E-008  0.1930636E+04  0.7818608E-02  0.8639756E-01
         -1   -1    0    0    0  501 -0.00000000000E+00  0.00000000000E+00  0.32864863067E+03  0.32864863067E+03  0.00000000000E+00 0.  1.
          2   -1    0    0  501    0  0.00000000000E+00 -0.00000000000E+00 -0.28353638018E+04  0.28353638018E+04  0.00000000000E+00 0. -1.
         24    2    1    2    0    0  0.19954030495E+03  0.44327658708E+03 -0.41901581521E+02  0.49444857380E+03  0.80082355387E+02 0.  0.
        254    2    1    2    0    0 -0.19954030495E+03 -0.44327658708E+03 -0.24648135896E+04  0.26695638587E+04  0.90274841347E+03 0.  0.
         23    2    4    4    0    0  0.42695686202E+02  0.25482123300E+03 -0.62037954819E+03  0.67801394903E+03  0.89862944817E+02 0.  0.
          4    1    3    3  502    0 -0.21396043651E+01  0.39745931067E+02 -0.14960089937E+02  0.42522008821E+02  0.00000000000E+00 0. -1.
         -1    1    3    3    0  502  0.20167990932E+03  0.40353065601E+03 -0.26941491584E+02  0.45192656498E+03  0.00000000000E+00 0.  1.
         13    1    5    5    0    0  0.21437519489E+02  0.20587455945E+03 -0.38988776793E+03  0.44142538786E+03  0.00000000000E+00 0.  1.
        -13    1    5    5    0    0  0.21258166713E+02  0.48946673548E+02 -0.23049178027E+03  0.23658856116E+03  0.00000000000E+00 0. -1.
          1    1    4    4  503    0 -0.18145343342E+03 -0.37451540117E+03 -0.11509966601E+04  0.12239201141E+04  0.00000000000E+00 0. -1.
         -1    1    4    4    0  503 -0.60782557734E+02 -0.32358241890E+03 -0.69343738138E+03  0.76762979557E+03  0.00000000000E+00 0.  1.
<mgrwt>
<rscale>  0 0.19306356E+04</rscale>
<asrwt>0</asrwt>
<pdfrwt beam="1">  1        2 0.43620980E+00 0.19306356E+04</pdfrwt>
<pdfrwt beam="2">  1       -1 0.50561330E-01 0.19306356E+04</pdfrwt>
<totfact> 0.92153405E+00</totfact>
</mgrwt>
</event>
<event>
12    7  0.1497947E-008  0.2467541E+04  0.7818608E-02  0.8414641E-01
          2   -1    0    0  501    0  0.00000000000E+00  0.00000000000E+00  0.14271806614E+04  0.14271806614E+04  0.00000000000E+00 0. -1.
         -1   -1    0    0    0  501 -0.00000000000E+00 -0.00000000000E+00 -0.10665714144E+04  0.10665714144E+04  0.00000000000E+00 0.  1.
         24    2    1    2    0    0  0.97718764719E+02  0.60286554668E+03 -0.73174474126E+03  0.95647900940E+03  0.80036895881E+02 0.  0.
        254    2    1    2    0    0 -0.97718764719E+02 -0.60286554668E+03  0.10923539882E+04  0.15372730664E+04  0.89273479871E+03 0.  0.
         23    2    4    4    0    0 -0.19121595111E+03 -0.79743662478E+02  0.94649038248E+03  0.97273031981E+03  0.86241749082E+02 0.  0.
         23    2    4    4    0    0  0.93497186390E+02 -0.52312188420E+03  0.14586360572E+03  0.56454274660E+03  0.12261358684E+03 0.  0.
          4    1    3    3  502    0  0.21045761837E+01  0.12027246543E+03 -0.18810731532E+03  0.22328066924E+03  0.00000000000E+00 0. -1.
         -3    1    3    3    0  502  0.95614188535E+02  0.48259308125E+03 -0.54363742595E+03  0.73319834015E+03  0.00000000000E+00 0.  1.
         13    1    5    5    0    0 -0.68914727954E+02 -0.57208447251E+02  0.25814690017E+03  0.27324324005E+03  0.00000000000E+00 0. -1.
        -13    1    5    5    0    0 -0.12230122315E+03 -0.22535215227E+02  0.68834348231E+03  0.69948707976E+03  0.00000000000E+00 0.  1.
          3    1    6    6  503    0  0.10258403023E+03 -0.27201737395E+03  0.46848108539E+02  0.29446847074E+03  0.00000000000E+00 0. -1.
         -3    1    6    6    0  503 -0.90868438399E+01 -0.25110451025E+03  0.99015497181E+02  0.27007427586E+03  0.00000000000E+00 0.  1.
<mgrwt>
<rscale>  0 0.24675414E+04</rscale>
<asrwt>0</asrwt>
<pdfrwt beam="1">  1        2 0.21956626E+00 0.24675414E+04</pdfrwt>
<pdfrwt beam="2">  1       -1 0.16408791E+00 0.24675414E+04</pdfrwt>
<totfact> 0.38722239E+00</totfact>
</mgrwt>
</event>
<event>
11    7  0.1497947E-008  0.1508995E+04  0.7818608E-02  0.8878493E-01
          2   -1    0    0  501    0  0.00000000000E+00  0.00000000000E+00  0.61607142967E+03  0.61607142967E+03  0.00000000000E+00 0. -1.
         -1   -1    0    0    0  501 -0.00000000000E+00 -0.00000000000E+00 -0.92402641776E+03  0.92402641776E+03  0.00000000000E+00 0.  1.
         24    2    1    2    0    0 -0.22514100806E+03  0.20709998665E+03  0.27926383088E+03  0.42310859015E+03  0.86334893523E+02 0.  0.
        254    2    1    2    0    0  0.22514100806E+03 -0.20709998665E+03 -0.58721881897E+03  0.11169892573E+04  0.89958889586E+03 0.  0.
         23    2    4    4    0    0  0.19745255683E+03 -0.43434727133E+03 -0.64932035598E+03  0.81054194714E+03  0.87842239693E+02 0.  0.
          2    1    3    3  502    0 -0.14023920343E+02 -0.67208219663E+01  0.25207736642E+02  0.29618740289E+02  0.00000000000E+00 0. -1.
         -1    1    3    3    0  502 -0.21111708772E+03  0.21382080862E+03  0.25405609423E+03  0.39348984986E+03  0.00000000000E+00 0.  1.
         13    1    5    5    0    0  0.32911457327E+02 -0.16562819751E+03 -0.20009631389E+03  0.26182894925E+03  0.00000000000E+00 0.  1.
        -13    1    5    5    0    0  0.16454109951E+03 -0.26871907382E+03 -0.44922404209E+03  0.54871299789E+03  0.00000000000E+00 0. -1.
          1    1    4    4  503    0 -0.62918532006E+02  0.17355139659E+03  0.77107487787E+02  0.20006097471E+03  0.00000000000E+00 0. -1.
         -1    1    4    4    0  503  0.90606983232E+02  0.53695888084E+02 -0.15005950778E+02  0.10638633543E+03  0.00000000000E+00 0.  1.
<mgrwt>
<rscale>  0 0.15089947E+04</rscale>
<asrwt>0</asrwt>
<pdfrwt beam="1">  1        2 0.94780220E-01 0.15089947E+04</pdfrwt>
<pdfrwt beam="2">  1       -1 0.14215791E+00 0.15089947E+04</pdfrwt>
<totfact> 0.21336549E+01</totfact>
</mgrwt>
</event>
<event>
11    7  0.1497947E-008  0.1629301E+04  0.7818608E-02  0.8802747E-01
         -1   -1    0    0    0  501 -0.00000000000E+00  0.00000000000E+00  0.45712250345E+03  0.45712250345E+03  0.00000000000E+00 0.  1.
          2   -1    0    0  501    0  0.00000000000E+00 -0.00000000000E+00 -0.14518103073E+04  0.14518103073E+04  0.00000000000E+00 0. -1.
         24    2    1    2    0    0  0.49979634992E+03  0.23519573214E+03 -0.15108761084E+03  0.57828067249E+03  0.80421677509E+02 0.  0.
        254    2    1    2    0    0 -0.49979634992E+03 -0.23519573214E+03 -0.84360019300E+03  0.13306521383E+04  0.86825134817E+03 0.  0.
         23    2    4    4    0    0  0.19348507708E+03 -0.11607682101E+03 -0.13495956895E+03  0.27960446081E+03  0.95153905971E+02 0.  0.
          4    1    3    3  502    0  0.31143322590E+03  0.13375362053E+03 -0.13108349878E+03  0.36340551572E+03  0.00000000000E+00 0. -1.
         -3    1    3    3    0  502  0.18836312403E+03  0.10144211161E+03 -0.20004112054E+02  0.21487515677E+03  0.00000000000E+00 0.  1.
         13    1    5    5    0    0  0.72995352388E+02 -0.57753630416E+02 -0.10884673315E+03  0.14321806665E+03  0.00000000000E+00 0. -1.
        -13    1    5    5    0    0  0.12048972470E+03 -0.58323190595E+02 -0.26112835799E+02  0.13638639416E+03  0.00000000000E+00 0.  1.
          1    1    4    4  503    0 -0.32848341725E+03  0.56102478797E+02 -0.16098602195E+03  0.37008829055E+03  0.00000000000E+00 0. -1.
         -1    1    4    4    0  503 -0.36479800976E+03 -0.17522138992E+03 -0.54765460210E+03  0.68095938690E+03  0.00000000000E+00 0.  1.
<mgrwt>
<rscale>  0 0.16293007E+04</rscale>
<asrwt>0</asrwt>
<pdfrwt beam="1">  1        2 0.22335543E+00 0.16293007E+04</pdfrwt>
<pdfrwt beam="2">  1       -1 0.70326541E-01 0.16293007E+04</pdfrwt>
<totfact> 0.30120889E+01</totfact>
</mgrwt>
</event>
<event>
12    7  0.1497947E-008  0.1609889E+04  0.7818608E-02  0.8814496E-01
          2   -1    0    0  501    0  0.00000000000E+00  0.00000000000E+00  0.91884258341E+03  0.91884258341E+03  0.00000000000E+00 0. -1.
         -1   -1    0    0    0  501 -0.00000000000E+00 -0.00000000000E+00 -0.70516462116E+03  0.70516462116E+03  0.00000000000E+00 0.  1.
         24    2    1    2    0    0 -0.47356174821E+03  0.11532477193E+03 -0.19084073317E+03  0.52982606976E+03  0.82066719011E+02 0.  0.
        254    2    1    2    0    0  0.47356174821E+03 -0.11532477193E+03  0.40451869542E+03  0.10941811348E+04  0.89220874712E+03 0.  0.
         23    2    4    4    0    0  0.33349073968E+03 -0.27243069387E+03  0.62753556964E+03  0.76630944701E+03  0.89413203746E+02 0.  0.
         23    2    4    4    0    0  0.14007100854E+03  0.15710592194E+03 -0.22301687421E+03  0.32787168780E+03  0.11602223638E+03 0.  0.
          4    1    3    3  502    0 -0.15408266521E+03  0.40076814995E+02 -0.10449096790E+03  0.19043629168E+03  0.00000000000E+00 0. -1.
         -3    1    3    3    0  502 -0.31947908301E+03  0.75247956936E+02 -0.86349765273E+02  0.33938977808E+03  0.00000000000E+00 0.  1.
         13    1    5    5    0    0  0.55839078297E+02 -0.29788422043E+02  0.15134283770E+03  0.16404269955E+03  0.00000000000E+00 0.  1.
        -13    1    5    5    0    0  0.27765166138E+03 -0.24264227183E+03  0.47619273193E+03  0.60226674746E+03  0.00000000000E+00 0. -1.
          4    1    6    6  503    0  0.75557877821E+02  0.15540046573E+03 -0.13802113452E+03  0.22115182844E+03  0.00000000000E+00 0. -1.
         -4    1    6    6    0  503  0.64513130715E+02  0.17054562169E+01 -0.84995739691E+02  0.10671985936E+03  0.00000000000E+00 0.  1.
<mgrwt>
<rscale>  0 0.16098885E+04</rscale>
<asrwt>0</asrwt>
<pdfrwt beam="1">  1        2 0.14136040E+00 0.16098885E+04</pdfrwt>
<pdfrwt beam="2">  1       -1 0.10848687E+00 0.16098885E+04</pdfrwt>
<totfact> 0.24561758E+01</totfact>
</mgrwt>
</event>
<event>
11    7  0.1497947E-008  0.1450198E+04  0.7818608E-02  0.8918263E-01
         -1   -1    0    0    0  501 -0.00000000000E+00  0.00000000000E+00  0.15541747893E+03  0.15541747893E+03  0.00000000000E+00 0.  1.
          2   -1    0    0  501    0  0.00000000000E+00 -0.00000000000E+00 -0.33829457655E+04  0.33829457655E+04  0.00000000000E+00 0. -1.
         24    2    1    2    0    0 -0.21209893916E+03  0.38798389111E+03 -0.97297638221E+03  0.10716146261E+04  0.78469145219E+02 0.  0.
        254    2    1    2    0    0  0.21209893916E+03 -0.38798389111E+03 -0.22545519044E+04  0.24667486184E+04  0.89795712421E+03 0.  0.
         23    2    4    4    0    0 -0.13751011958E+03  0.43842919714E+02 -0.11200698999E+04  0.11330465838E+04  0.91688307365E+02 0.  0.
          2    1    3    3  502    0  0.71480866727E-01  0.14547458472E+02 -0.72600569228E+02  0.74043745919E+02  0.00000000000E+00 0. -1.
         -1    1    3    3    0  502 -0.21217042003E+03  0.37343643264E+03 -0.90037581298E+03  0.99757088017E+03  0.00000000000E+00 0.  1.
         13    1    5    5    0    0 -0.14213137320E+03  0.30876861525E+02 -0.82979653743E+03  0.84244703178E+03  0.00000000000E+00 0. -1.
        -13    1    5    5    0    0  0.46212536143E+01  0.12966058189E+02 -0.29027336251E+03  0.29059955202E+03  0.00000000000E+00 0.  1.
          4    1    4    4  503    0  0.11880694083E+03  0.77598277630E+02 -0.22339771343E+03  0.26465660817E+03  0.00000000000E+00 0.  1.
         -4    1    4    4    0  503  0.23080211792E+03 -0.50942508846E+03 -0.91108429101E+03  0.10690454264E+04  0.00000000000E+00 0. -1.
<mgrwt>
<rscale>  0 0.14501985E+04</rscale>
<asrwt>0</asrwt>
<pdfrwt beam="1">  1        2 0.52045316E+00 0.14501985E+04</pdfrwt>
<pdfrwt beam="2">  1       -1 0.23910383E-01 0.14501985E+04</pdfrwt>
<totfact> 0.16575366E+01</totfact>
</mgrwt>
</event>
<event>
11    7  0.1497947E-008  0.3664463E+04  0.7818608E-02  0.8075883E-01
         -1   -1    0    0    0  501 -0.00000000000E+00  0.00000000000E+00  0.10315171874E+04  0.10315171874E+04  0.00000000000E+00 0.  1.
          2   -1    0    0  501    0  0.00000000000E+00 -0.00000000000E+00 -0.32544998058E+04  0.32544998058E+04  0.00000000000E+00 0. -1.
         24    2    1    2    0    0 -0.10266750223E+04  0.29113550954E+03  0.53233160851E+03  0.11952826761E+04  0.80636518036E+02 0.  0.
        254    2    1    2    0    0  0.10266750223E+04 -0.29113550954E+03 -0.27553142268E+04  0.30907343171E+04  0.90667560043E+03 0.  0.
         23    2    4    4    0    0  0.77352550709E+03 -0.10302282019E+02 -0.23483611440E+04  0.24742342222E+04  0.92666482558E+02 0.  0.
          2    1    3    3  502    0 -0.28358368450E+03  0.67780260924E+02  0.18379072674E+03  0.34466346067E+03  0.00000000000E+00 0. -1.
         -1    1    3    3    0  502 -0.74309133775E+03  0.22335524862E+03  0.34854088177E+03  0.85061921539E+03  0.00000000000E+00 0.  1.
         13    1    5    5    0    0  0.59167926761E+02 -0.24640763074E+02 -0.16954832742E+03  0.18125850627E+03  0.00000000000E+00 0. -1.
        -13    1    5    5    0    0  0.71435758033E+03  0.14338481056E+02 -0.21788128165E+04  0.22929757160E+04  0.00000000000E+00 0.  1.
          4    1    4    4  503    0  0.24096343377E+03 -0.33200725852E+03 -0.35395330389E+03  0.54182574455E+03  0.00000000000E+00 0. -1.
         -4    1    4    4    0  503  0.12186081395E+02  0.51174030993E+02 -0.52999778988E+02  0.74674350352E+02  0.00000000000E+00 0.  1.
<mgrwt>
<rscale>  0 0.36644631E+04</rscale>
<asrwt>0</asrwt>
<pdfrwt beam="1">  1        2 0.50069229E+00 0.36644631E+04</pdfrwt>
<pdfrwt beam="2">  1       -1 0.15869495E+00 0.36644631E+04</pdfrwt>
<totfact> 0.32823875E-01</totfact>
</mgrwt>
</event>
<event>
11    7  0.1497947E-008  0.1375195E+04  0.7818608E-02  0.8971972E-01
          2   -1    0    0  501    0  0.00000000000E+00  0.00000000000E+00  0.34905886229E+03  0.34905886229E+03  0.00000000000E+00 0. -1.
         -1   -1    0    0    0  501 -0.00000000000E+00 -0.00000000000E+00 -0.13544724234E+04  0.13544724234E+04  0.00000000000E+00 0.  1.
         24    2    1    2    0    0  0.21704664688E+03  0.19016003238E+03 -0.64042122960E+03  0.70460664605E+03  0.55327113567E+02 0.  0.
        254    2    1    2    0    0 -0.21704664688E+03 -0.19016003238E+03 -0.36499233154E+03  0.99892463967E+03  0.88394623638E+03 0.  0.
         23    2    4    4    0    0 -0.27645418639E+03 -0.14985258130E+03 -0.61770836065E+03  0.69910951312E+03  0.91147019738E+02 0.  0.
          2    1    3    3  502    0  0.14769270006E+03  0.11061309642E+03 -0.45933288947E+03  0.49501019595E+03  0.00000000000E+00 0. -1.
         -1    1    3    3    0  502  0.69353946826E+02  0.79546935964E+02 -0.18108834013E+03  0.20959645010E+03  0.00000000000E+00 0.  1.
         13    1    5    5    0    0 -0.19357867528E+03 -0.14691079877E+03 -0.48794885633E+03  0.54511427491E+03  0.00000000000E+00 0. -1.
        -13    1    5    5    0    0 -0.82875511118E+02 -0.29417825378E+01 -0.12975950433E+03  0.15399523821E+03  0.00000000000E+00 0.  1.
          4    1    4    4  503    0  0.56933733468E+02  0.42225363209E+02  0.16376724221E+03  0.17844926710E+03  0.00000000000E+00 0. -1.
         -4    1    4    4    0  503  0.24738060457E+01 -0.82532814285E+02  0.88948786898E+02  0.12136585945E+03  0.00000000000E+00 0.  1.
<mgrwt>
<rscale>  0 0.13751954E+04</rscale>
<asrwt>0</asrwt>
<pdfrwt beam="1">  1        2 0.53701363E-01 0.13751954E+04</pdfrwt>
<pdfrwt beam="2">  1       -1 0.20838037E+00 0.13751954E+04</pdfrwt>
<totfact> 0.13643215E+01</totfact>
</mgrwt>
</event>
<event>
12    7  0.1497947E-008  0.1195969E+04  0.7818608E-02  0.9116392E-01
         -1   -1    0    0    0  501 -0.00000000000E+00  0.00000000000E+00  0.66851280657E+03  0.66851280657E+03  0.00000000000E+00 0.  1.
          2   -1    0    0  501    0  0.00000000000E+00 -0.00000000000E+00 -0.53489712141E+03  0.53489712141E+03  0.00000000000E+00 0. -1.
         24    2    1    2    0    0 -0.76249455097E+02 -0.10493869123E+03  0.23646215493E+03  0.28135195988E+03  0.80115331207E+02 0.  0.
        254    2    1    2    0    0  0.76249455097E+02  0.10493869123E+03 -0.10284646978E+03  0.92205796810E+03  0.90707628779E+03 0.  0.
         23    2    4    4    0    0  0.37354707636E+03 -0.21063371804E+03 -0.16678556842E+03  0.46924369384E+03  0.92023023994E+02 0.  0.
         23    2    4    4    0    0 -0.29729762126E+03  0.31557240927E+03  0.63939098640E+02  0.45281427426E+03  0.11393303971E+03 0.  0.
          2    1    3    3  502    0 -0.20198241574E+02  0.48370452034E+00  0.48529972290E+01  0.20778703397E+02  0.00000000000E+00 0. -1.
         -1    1    3    3    0  502 -0.56051213523E+02 -0.10542239575E+03  0.23160915771E+03  0.26057325649E+03  0.00000000000E+00 0.  1.
         13    1    5    5    0    0  0.35601548986E+03 -0.19501380021E+03 -0.17797937602E+03  0.44323139508E+03  0.00000000000E+00 0.  1.
        -13    1    5    5    0    0  0.17531586499E+02 -0.15619917832E+02  0.11193807606E+02  0.26012298764E+02  0.00000000000E+00 0. -1.
          3    1    6    6  503    0 -0.47416546646E+02  0.81731831090E+02 -0.27810774814E+02  0.98498021832E+02  0.00000000000E+00 0. -1.
         -3    1    6    6    0  503 -0.24988107462E+03  0.23384057818E+03  0.91749873453E+02  0.35431625243E+03  0.00000000000E+00 0.  1.
<mgrwt>
<rscale>  0 0.11959692E+04</rscale>
<asrwt>0</asrwt>
<pdfrwt beam="1">  1        2 0.82291864E-01 0.11959692E+04</pdfrwt>
<pdfrwt beam="2">  1       -1 0.10284812E+00 0.11959692E+04</pdfrwt>
<totfact> 0.57388940E+01</totfact>
</mgrwt>
</event>
<event>
11    7  0.1497947E-008  0.2329888E+04  0.7818608E-02  0.8466229E-01
         -1   -1    0    0    0  501 -0.00000000000E+00  0.00000000000E+00  0.10975048922E+04  0.10975048922E+04  0.00000000000E+00 0.  1.
          2   -1    0    0  501    0  0.00000000000E+00 -0.00000000000E+00 -0.12365269354E+04  0.12365269354E+04  0.00000000000E+00 0. -1.
         24    2    1    2    0    0  0.95130692233E+03 -0.19747458377E+02 -0.30588097665E+03  0.10032129193E+04  0.86591957119E+02 0.  0.
        254    2    1    2    0    0 -0.95130692233E+03  0.19747458377E+02  0.16685893341E+03  0.13308189083E+04  0.91534815260E+03 0.  0.
         23    2    4    4    0    0 -0.11293902369E+04  0.39180481003E+02  0.13951889936E+03  0.11421883071E+04  0.89839792633E+02 0.  0.
          4    1    3    3  502    0  0.42088077552E+03 -0.21266089305E+02 -0.17876244838E+03  0.45776509992E+03  0.00000000000E+00 0. -1.
         -3    1    3    3    0  502  0.53042614681E+03  0.15186309275E+01 -0.12711852826E+03  0.54544781940E+03  0.00000000000E+00 0.  1.
         13    1    5    5    0    0 -0.71072160631E+03  0.35440468470E+02  0.13008259626E+03  0.72339664800E+03  0.00000000000E+00 0. -1.
        -13    1    5    5    0    0 -0.41866863061E+03  0.37400125336E+01  0.94363031014E+01  0.41879165914E+03  0.00000000000E+00 0.  1.
          1    1    4    4  503    0  0.16240052890E+03 -0.19378974562E+02  0.80236389232E+01  0.16374936709E+03  0.00000000000E+00 0. -1.
         -1    1    4    4    0  503  0.15682785699E+02 -0.54048064400E-01  0.19316395129E+02  0.24881234078E+02  0.00000000000E+00 0.  1.
<mgrwt>
<rscale>  0 0.23298879E+04</rscale>
<asrwt>0</asrwt>
<pdfrwt beam="1">  1        2 0.19023491E+00 0.23298879E+04</pdfrwt>
<pdfrwt beam="2">  1       -1 0.16884691E+00 0.23298879E+04</pdfrwt>
<totfact> 0.46600494E+00</totfact>
</mgrwt>
</event>
<event>
12    7  0.1497947E-008  0.1425875E+04  0.7818608E-02  0.8935299E-01
         -1   -1    0    0    0  501 -0.00000000000E+00  0.00000000000E+00  0.63293734717E+03  0.63293734717E+03  0.00000000000E+00 0.  1.
          2   -1    0    0  501    0  0.00000000000E+00 -0.00000000000E+00 -0.80304927875E+03  0.80304927875E+03  0.00000000000E+00 0. -1.
         24    2    1    2    0    0 -0.35493860489E+03  0.80510247911E+02 -0.26352970186E+03  0.45587902260E+03  0.76905566934E+02 0.  0.
        254    2    1    2    0    0  0.35493860489E+03 -0.80510247911E+02  0.93417770275E+02  0.98010760331E+03  0.90521860399E+03 0.  0.
         23    2    4    4    0    0 -0.90857355167E+02  0.26247091441E+03 -0.17850232070E+03  0.34353031204E+03  0.94889182187E+02 0.  0.
         23    2    4    4    0    0  0.44579596006E+03 -0.34298116232E+03  0.27192009098E+03  0.63657729127E+03  0.12214743623E+03 0.  0.
          2    1    3    3  502    0 -0.30299697108E+03  0.89056741041E+02 -0.20193318645E+03  0.37485367731E+03  0.00000000000E+00 0. -1.
         -1    1    3    3    0  502 -0.51941633814E+02 -0.85464931305E+01 -0.61596515413E+02  0.81025345288E+02  0.00000000000E+00 0.  1.
         13    1    5    5    0    0  0.19762282502E+02  0.29569617068E+02 -0.24773779459E+02  0.43343398712E+02  0.00000000000E+00 0. -1.
        -13    1    5    5    0    0 -0.11061963767E+03  0.23290129734E+03 -0.15372854124E+03  0.30018691333E+03  0.00000000000E+00 0.  1.
          1    1    6    6  503    0  0.61777100662E+02 -0.83510479706E+01  0.78405214120E+01  0.62830119723E+02  0.00000000000E+00 0. -1.
         -1    1    6    6    0  503  0.38401885940E+03 -0.33463011435E+03  0.26407956956E+03  0.57374717155E+03  0.00000000000E+00 0.  1.
<mgrwt>
<rscale>  0 0.14258750E+04</rscale>
<asrwt>0</asrwt>
<pdfrwt beam="1">  1        2 0.12354604E+00 0.14258750E+04</pdfrwt>
<pdfrwt beam="2">  1       -1 0.97374976E-01 0.14258750E+04</pdfrwt>
<totfact> 0.38509995E+01</totfact>
</mgrwt>
</event>
<event>
11    7  0.1497947E-008  0.1701478E+04  0.7818608E-02  0.8760522E-01
          4   -1    0    0  501    0  0.00000000000E+00  0.00000000000E+00  0.79204357048E+03  0.79204357048E+03  0.00000000000E+00 0. -1.
         -3   -1    0    0    0  501 -0.00000000000E+00 -0.00000000000E+00 -0.91378461400E+03  0.91378461400E+03  0.00000000000E+00 0.  1.
         24    2    1    2    0    0  0.47200467590E+03 -0.36651911448E+03  0.73626617186E+02  0.60740528600E+03  0.79972666247E+02 0.  0.
        254    2    1    2    0    0 -0.47200467590E+03  0.36651911448E+03 -0.19536766071E+03  0.10984228985E+04  0.90068843987E+03 0.  0.
         23    2    4    4    0    0 -0.71290714950E+03  0.29124731860E+03 -0.77988771386E+02  0.77980890263E+03  0.94647090589E+02 0.  0.
          2    1    3    3  502    0  0.47525333524E+03 -0.36517699133E+03  0.73855096346E+02  0.60388288841E+03  0.00000000000E+00 0. -1.
         -1    1    3    3    0  502 -0.32486593398E+01 -0.13421231521E+01 -0.22847916021E+00  0.35223975909E+01  0.00000000000E+00 0.  1.
         13    1    5    5    0    0 -0.38632981699E+03  0.18953932360E+03 -0.80319456936E+02  0.43775232478E+03  0.00000000000E+00 0.  1.
        -13    1    5    5    0    0 -0.32657733250E+03  0.10170799500E+03  0.23306855505E+01  0.34205657784E+03  0.00000000000E+00 0. -1.
          3    1    4    4  503    0 -0.17049718295E+02  0.26153918128E+02 -0.25846940352E+02  0.40531279932E+02  0.00000000000E+00 0. -1.
         -3    1    4    4    0  503  0.25795219189E+03  0.49117877756E+02 -0.91531948972E+02  0.27808271593E+03  0.00000000000E+00 0.  1.
<mgrwt>
<rscale>  0 0.17014784E+04</rscale>
<asrwt>0</asrwt>
<pdfrwt beam="1">  1        4 0.12185286E+00 0.17014784E+04</pdfrwt>
<pdfrwt beam="2">  1       -3 0.14058225E+00 0.17014784E+04</pdfrwt>
<totfact> 0.42260575E-01</totfact>
</mgrwt>
</event>
<event>
11    7  0.1497947E-008  0.1219010E+04  0.7818608E-02  0.9096378E-01
          2   -1    0    0  501    0  0.00000000000E+00  0.00000000000E+00  0.61721530818E+03  0.61721530818E+03  0.00000000000E+00 0. -1.
         -1   -1    0    0    0  501 -0.00000000000E+00 -0.00000000000E+00 -0.60189071119E+03  0.60189071119E+03  0.00000000000E+00 0.  1.
         24    2    1    2    0    0  0.15560363626E+03  0.25377114005E+02 -0.22017279025E+03  0.28232415370E+03  0.79839718594E+02 0.  0.
        254    2    1    2    0    0 -0.15560363626E+03 -0.25377114005E+02  0.23549738724E+03  0.93678186566E+03  0.89288563372E+03 0.  0.
         23    2    4    4    0    0 -0.20653543130E+03  0.18658806200E+03 -0.23316078888E+03  0.37478554215E+03  0.92888426987E+02 0.  0.
          4    1    3    3  502    0  0.14599188456E+02  0.22084648513E+02 -0.81985942832E+01  0.27714345594E+02  0.00000000000E+00 0. -1.
         -3    1    3    3    0  502  0.14100444781E+03  0.32924654924E+01 -0.21197419596E+03  0.25460980811E+03  0.00000000000E+00 0.  1.
         13    1    5    5    0    0 -0.15919784845E+03  0.16759036999E+03 -0.22600585774E+03  0.32327872618E+03  0.00000000000E+00 0.  1.
        -13    1    5    5    0    0 -0.47337582849E+02  0.18997692011E+02 -0.71549311351E+01  0.51506815969E+02  0.00000000000E+00 0. -1.
          4    1    4    4  503    0 -0.77298089587E+02 -0.81265869461E+02  0.26708634919E+03  0.28967957145E+03  0.00000000000E+00 0. -1.
         -4    1    4    4    0  503  0.12822988462E+03 -0.13069930654E+03  0.20157182693E+03  0.27231675206E+03  0.00000000000E+00 0.  1.
<mgrwt>
<rscale>  0 0.12190097E+04</rscale>
<asrwt>0</asrwt>
<pdfrwt beam="1">  1        2 0.94956201E-01 0.12190097E+04</pdfrwt>
<pdfrwt beam="2">  1       -1 0.92598571E-01 0.12190097E+04</pdfrwt>
<totfact> 0.61227691E+01</totfact>
</mgrwt>
</event>
<event>
12    7  0.1497947E-008  0.1344656E+04  0.7818608E-02  0.8994883E-01
         -1   -1    0    0    0  501 -0.00000000000E+00  0.00000000000E+00  0.55779079533E+03  0.55779079533E+03  0.00000000000E+00 0.  1.
          2   -1    0    0  501    0  0.00000000000E+00 -0.00000000000E+00 -0.81038438114E+03  0.81038438114E+03  0.00000000000E+00 0. -1.
         24    2    1    2    0    0  0.18676693070E+03  0.12071980518E+03 -0.36993912526E+03  0.43873942032E+03  0.78626743362E+02 0.  0.
        254    2    1    2    0    0 -0.18676693070E+03 -0.12071980518E+03  0.11734553945E+03  0.92943575615E+03  0.89477689478E+03 0.  0.
         23    2    4    4    0    0  0.21347226443E+00 -0.96876788300E+02 -0.36973337266E+03  0.39402746665E+03  0.95758654619E+02 0.  0.
         23    2    4    4    0    0 -0.18698040297E+03 -0.23843016877E+02  0.48707891211E+03  0.53540828951E+03  0.11783891253E+03 0.  0.
          2    1    3    3  502    0  0.17959727775E+03  0.95769974372E+02 -0.28710150434E+03  0.35192945878E+03  0.00000000000E+00 0. -1.
         -1    1    3    3    0  502  0.71696529532E+01  0.24949830806E+02 -0.82837620923E+02  0.86809961531E+02  0.00000000000E+00 0.  1.
         13    1    5    5    0    0 -0.37803945960E+02 -0.89156174372E+02 -0.27977919965E+03  0.29606479412E+03  0.00000000000E+00 0. -1.
        -13    1    5    5    0    0  0.38017418225E+02 -0.77206139286E+01 -0.89954173005E+02  0.97962672529E+02  0.00000000000E+00 0.  1.
          3    1    6    6  503    0  0.50161173665E+01  0.18288245418E+02  0.15463631409E+02  0.24469271551E+02  0.00000000000E+00 0. -1.
         -3    1    6    6    0  503 -0.19199652033E+03 -0.42131262295E+02  0.47161528070E+03  0.51093901796E+03  0.00000000000E+00 0.  1.
<mgrwt>
<rscale>  0 0.13446560E+04</rscale>
<asrwt>0</asrwt>
<pdfrwt beam="1">  1        2 0.12467452E+00 0.13446560E+04</pdfrwt>
<pdfrwt beam="2">  1       -1 0.85813968E-01 0.13446560E+04</pdfrwt>
<totfact> 0.50671152E+01</totfact>
</mgrwt>
</event>
<event>
12    7  0.1497947E-008  0.2249130E+04  0.7818608E-02  0.8498253E-01
         -1   -1    0    0    0  501 -0.00000000000E+00  0.00000000000E+00  0.35080104621E+03  0.35080104621E+03  0.00000000000E+00 0.  1.
          2   -1    0    0  501    0  0.00000000000E+00 -0.00000000000E+00 -0.36050248110E+04  0.36050248110E+04  0.00000000000E+00 0. -1.
         24    2    1    2    0    0  0.91757027110E+03 -0.21831378888E+03 -0.13685199255E+04  0.16634200465E+04  0.67255868744E+02 0.  0.
        254    2    1    2    0    0 -0.91757027110E+03  0.21831378888E+03 -0.18857038393E+04  0.22924058107E+04  0.89980515586E+03 0.  0.
         23    2    4    4    0    0 -0.85705951842E+03 -0.16431498719E+03 -0.14865541404E+04  0.17261647400E+04  0.90835368414E+02 0.  0.
         23    2    4    4    0    0 -0.60510752680E+02  0.38262877607E+03 -0.39914969884E+03  0.56624107064E+03  0.10602894192E+03 0.  0.
          2    1    3    3  502    0  0.74281197677E+03 -0.17134272053E+03 -0.11496609898E+04  0.13794376942E+04  0.00000000000E+00 0. -1.
         -1    1    3    3    0  502  0.17475829433E+03 -0.46971068350E+02 -0.21885893572E+03  0.28398235235E+03  0.00000000000E+00 0.  1.
         13    1    5    5    0    0 -0.44828105910E+03 -0.49645681480E+02 -0.82094823610E+03  0.93668383566E+03  0.00000000000E+00 0. -1.
        -13    1    5    5    0    0 -0.40877845932E+03 -0.11466930571E+03 -0.66560590432E+03  0.78948090436E+03  0.00000000000E+00 0.  1.
          2    1    6    6  503    0 -0.20722912098E+02  0.13653733626E+03 -0.74473854214E+02  0.15690200203E+03  0.00000000000E+00 0. -1.
         -2    1    6    6    0  503 -0.39787840583E+02  0.24609143982E+03 -0.32467584462E+03  0.40933906861E+03  0.00000000000E+00 0.  1.
<mgrwt>
<rscale>  0 0.22491300E+04</rscale>
<asrwt>0</asrwt>
<pdfrwt beam="1">  1        2 0.55461916E+00 0.22491300E+04</pdfrwt>
<pdfrwt beam="2">  1       -1 0.53969396E-01 0.22491300E+04</pdfrwt>
<totfact> 0.24670453E+00</totfact>
</mgrwt>
</event>
<event>
12    7  0.1497947E-008  0.1285026E+04  0.7818608E-02  0.9041524E-01
          2   -1    0    0  501    0  0.00000000000E+00  0.00000000000E+00  0.22304645112E+03  0.22304645112E+03  0.00000000000E+00 0. -1.
         -1   -1    0    0    0  501 -0.00000000000E+00 -0.00000000000E+00 -0.18508395124E+04  0.18508395124E+04  0.00000000000E+00 0.  1.
         24    2    1    2    0    0  0.24329708398E+03  0.49059408206E+02 -0.28369111595E+03  0.38529556389E+03  0.79823089885E+02 0.  0.
        254    2    1    2    0    0 -0.24329708398E+03 -0.49059408206E+02 -0.13441019454E+04  0.16885903997E+04  0.99152771102E+03 0.  0.
         23    2    4    4    0    0 -0.48941578349E+03  0.13962127548E+03 -0.30090847088E+03  0.59837525979E+03  0.92114787036E+02 0.  0.
         23    2    4    4    0    0  0.24611869951E+03 -0.18868068368E+03 -0.10431934745E+04  0.10902151399E+04  0.64355352389E+02 0.  0.
          4    1    3    3  502    0  0.16480709422E+02 -0.16080670875E+02 -0.39422334486E+02  0.45654377831E+02  0.00000000000E+00 0. -1.
         -3    1    3    3    0  502  0.22681637456E+03  0.65140079081E+02 -0.24426878147E+03  0.33964118606E+03  0.00000000000E+00 0.  1.
         13    1    5    5    0    0 -0.25132401226E+03  0.24716377526E+02 -0.15729584345E+03  0.29751746306E+03  0.00000000000E+00 0. -1.
        -13    1    5    5    0    0 -0.23809177122E+03  0.11490489795E+03 -0.14361262743E+03  0.30085779673E+03  0.00000000000E+00 0.  1.
          1    1    6    6  503    0  0.11599293709E+03 -0.53129221074E+02 -0.47004637627E+03  0.48705304786E+03  0.00000000000E+00 0. -1.
         -1    1    6    6    0  503  0.13012576242E+03 -0.13555146261E+03 -0.57314709822E+03  0.60316209202E+03  0.00000000000E+00 0.  1.
<mgrwt>
<rscale>  0 0.12850264E+04</rscale>
<asrwt>0</asrwt>
<pdfrwt beam="1">  1        2 0.34314838E-01 0.12850264E+04</pdfrwt>
<pdfrwt beam="2">  1       -1 0.28474455E+00 0.12850264E+04</pdfrwt>
<totfact> 0.71652117E+00</totfact>
</mgrwt>
</event>
<event>
12    7  0.1497947E-008  0.1944518E+04  0.7818608E-02  0.8633009E-01
          2   -1    0    0  501    0  0.00000000000E+00  0.00000000000E+00  0.18738300344E+04  0.18738300344E+04  0.00000000000E+00 0. -1.
         -1   -1    0    0    0  501 -0.00000000000E+00 -0.00000000000E+00 -0.50446828440E+03  0.50446828440E+03  0.00000000000E+00 0.  1.
         24    2    1    2    0    0 -0.37082852948E+03 -0.22887232809E+03  0.13060078971E+04  0.13792036110E+04  0.81545278370E+02 0.  0.
        254    2    1    2    0    0  0.37082852948E+03  0.22887232809E+03  0.63353852949E+02  0.99909470787E+03  0.89681669463E+03 0.  0.
         23    2    4    4    0    0  0.55151636869E+02 -0.20893691422E+03 -0.26888492747E+03  0.35675387105E+03  0.90982872656E+02 0.  0.
         23    2    4    4    0    0  0.31567689261E+03  0.43780924231E+03  0.33223878042E+03  0.64234083682E+03  0.10435664931E+03 0.  0.
          2    1    3    3  502    0 -0.35274502785E+03 -0.22722751982E+03  0.12831382393E+04  0.13500019043E+04  0.00000000000E+00 0. -1.
         -1    1    3    3    0  502 -0.18083501632E+02 -0.16448082652E+01  0.22869657759E+02  0.29201706654E+02  0.00000000000E+00 0.  1.
         13    1    5    5    0    0  0.25495373811E+02 -0.56310155869E+01 -0.50886450084E+02  0.57193996402E+02  0.00000000000E+00 0.  1.
        -13    1    5    5    0    0  0.29656263058E+02 -0.20330589863E+03 -0.21799847739E+03  0.29955987465E+03  0.00000000000E+00 0. -1.
          3    1    6    6  503    0  0.30432942239E+03  0.36127448283E+03  0.28587106762E+03  0.55213939959E+03  0.00000000000E+00 0. -1.
         -3    1    6    6    0  503  0.11347470222E+02  0.76534759477E+02  0.46367712796E+02  0.90201437231E+02  0.00000000000E+00 0.  1.
<mgrwt>
<rscale>  0 0.19445183E+04</rscale>
<asrwt>0</asrwt>
<pdfrwt beam="1">  1        2 0.28828154E+00 0.19445183E+04</pdfrwt>
<pdfrwt beam="2">  1       -1 0.77610506E-01 0.19445183E+04</pdfrwt>
<totfact> 0.13881185E+01</totfact>
</mgrwt>
</event>
<event>
12    7  0.1497947E-008  0.1095714E+04  0.7818608E-02  0.9209379E-01
         -1   -1    0    0    0  501 -0.00000000000E+00  0.00000000000E+00  0.11825232572E+03  0.11825232572E+03  0.00000000000E+00 0.  1.
          2   -1    0    0  501    0  0.00000000000E+00 -0.00000000000E+00 -0.25381948494E+04  0.25381948494E+04  0.00000000000E+00 0. -1.
         24    2    1    2    0    0 -0.34445434804E+01  0.16003275615E+03 -0.44556145737E+03  0.47996782783E+03  0.78878105568E+02 0.  0.
        254    2    1    2    0    0  0.34445434804E+01 -0.16003275615E+03 -0.19743810663E+04  0.21764793473E+04  0.90180896328E+03 0.  0.
         23    2    4    4    0    0 -0.42537111471E+03 -0.46413337920E+02 -0.12001273262E+04  0.12775466797E+04  0.93408439459E+02 0.  0.
         23    2    4    4    0    0  0.42881565819E+03 -0.11361941823E+03 -0.77425374008E+03  0.89893266755E+03  0.10871451544E+03 0.  0.
          4    1    3    3  502    0 -0.10593620785E+02  0.89334905061E+02 -0.34693845862E+03  0.35841211494E+03  0.00000000000E+00 0. -1.
         -3    1    3    3    0  502  0.71490773044E+01  0.70697851085E+02 -0.98622998747E+02  0.12155571289E+03  0.00000000000E+00 0.  1.
         13    1    5    5    0    0 -0.39170856471E+03 -0.61348165620E+02 -0.11406275842E+04  0.12075721440E+04  0.00000000000E+00 0.  1.
        -13    1    5    5    0    0 -0.33662549997E+02  0.14934827700E+02 -0.59499742004E+02  0.69974535720E+02  0.00000000000E+00 0. -1.
          3    1    6    6  503    0  0.12885610398E+03 -0.23744350188E+02 -0.14095121391E+03  0.19244462685E+03  0.00000000000E+00 0. -1.
         -3    1    6    6    0  503  0.29995955421E+03 -0.89875068039E+02 -0.63330252616E+03  0.70648804071E+03  0.00000000000E+00 0.  1.
<mgrwt>
<rscale>  0 0.10957143E+04</rscale>
<asrwt>0</asrwt>
<pdfrwt beam="1">  1        2 0.39049150E+00 0.10957143E+04</pdfrwt>
<pdfrwt beam="2">  1       -1 0.18192666E-01 0.10957143E+04</pdfrwt>
<totfact> 0.90495937E+01</totfact>
</mgrwt>
</event>
<event>
11    7  0.1497947E-008  0.1524586E+04  0.7818608E-02  0.8868266E-01
         -1   -1    0    0    0  501 -0.00000000000E+00  0.00000000000E+00  0.39977643325E+03  0.39977643325E+03  0.00000000000E+00 0.  1.
          2   -1    0    0  501    0  0.00000000000E+00 -0.00000000000E+00 -0.14535385695E+04  0.14535385695E+04  0.00000000000E+00 0. -1.
         24    2    1    2    0    0 -0.10330792155E+03 -0.34480036252E+03 -0.75483412020E+03  0.84010635832E+03  0.80276569513E+02 0.  0.
        254    2    1    2    0    0  0.10330792155E+03  0.34480036252E+03 -0.29892801606E+03  0.10132086444E+04  0.89870683860E+03 0.  0.
         23    2    4    4    0    0 -0.24031308390E+03  0.39492638263E+03  0.71550302837E+02  0.47674838220E+03  0.91936652661E+02 0.  0.
          4    1    3    3  502    0 -0.81048325678E+02 -0.16649759431E+03 -0.44408347041E+03  0.48114489366E+03  0.00000000000E+00 0. -1.
         -3    1    3    3    0  502 -0.22259595875E+02 -0.17830276821E+03 -0.31075064979E+03  0.35896146466E+03  0.00000000000E+00 0.  1.
         13    1    5    5    0    0 -0.10935456028E+03  0.10662088743E+03  0.30038211649E+01  0.15275947248E+03  0.00000000000E+00 0. -1.
        -13    1    5    5    0    0 -0.13095852361E+03  0.28830549520E+03  0.68546481672E+02  0.32398890972E+03  0.00000000000E+00 0.  1.
          1    1    4    4  503    0 -0.11281078445E+02 -0.25556219393E+02 -0.91569319772E+01  0.29397831277E+02  0.00000000000E+00 0. -1.
         -1    1    4    4    0  503  0.35490208389E+03 -0.24569800717E+02 -0.36132138692E+03  0.50706243097E+03  0.00000000000E+00 0.  1.
<mgrwt>
<rscale>  0 0.15245858E+04</rscale>
<asrwt>0</asrwt>
<pdfrwt beam="1">  1        2 0.22362131E+00 0.15245858E+04</pdfrwt>
<pdfrwt beam="2">  1       -1 0.61504068E-01 0.15245858E+04</pdfrwt>
<totfact> 0.39743035E+01</totfact>
</mgrwt>
</event>
<event>
11    7  0.1497947E-008  0.1848692E+04  0.7818608E-02  0.8680826E-01
         -1   -1    0    0    0  501 -0.00000000000E+00  0.00000000000E+00  0.28779222185E+03  0.28779222185E+03  0.00000000000E+00 0.  1.
          2   -1    0    0  501    0  0.00000000000E+00 -0.00000000000E+00 -0.29688621297E+04  0.29688621297E+04  0.00000000000E+00 0. -1.
         24    2    1    2    0    0 -0.95016762669E+02 -0.56220717322E+03 -0.30244984749E+03  0.65041937500E+03  0.80401258240E+02 0.  0.
        254    2    1    2    0    0  0.95016762669E+02  0.56220717322E+03 -0.23786200604E+04  0.26062349766E+04  0.89973455565E+03 0.  0.
         23    2    4    4    0    0 -0.22811252466E+03  0.62061601717E+03 -0.16008421382E+04  0.17344046963E+04  0.90909485377E+02 0.  0.
          2    1    3    3  502    0 -0.89341344274E+02 -0.48476227746E+03 -0.22896456184E+03  0.54350815267E+03  0.00000000000E+00 0. -1.
         -1    1    3    3    0  502 -0.56754183950E+01 -0.77444895762E+02 -0.73485285649E+02  0.10691122233E+03  0.00000000000E+00 0.  1.
         13    1    5    5    0    0 -0.19970212841E+03  0.58399095009E+03 -0.15294395118E+04  0.16492760806E+04  0.00000000000E+00 0.  1.
        -13    1    5    5    0    0 -0.28410396245E+02  0.36625067074E+02 -0.71402626361E+02  0.85128615660E+02  0.00000000000E+00 0. -1.
          4    1    4    4  503    0  0.13064416902E+03  0.79284746851E+02 -0.24350865784E+03  0.28748988926E+03  0.00000000000E+00 0. -1.
         -4    1    4    4    0  503  0.19248511831E+03 -0.13769359080E+03 -0.53426926436E+03  0.58434039101E+03  0.00000000000E+00 0.  1.
<mgrwt>
<rscale>  0 0.18486919E+04</rscale>
<asrwt>0</asrwt>
<pdfrwt beam="1">  1        2 0.45674803E+00 0.18486919E+04</pdfrwt>
<pdfrwt beam="2">  1       -1 0.44275726E-01 0.18486919E+04</pdfrwt>
<totfact> 0.98734614E+00</totfact>
</mgrwt>
</event>
<event>
12    7  0.1497947E-008  0.3345485E+04  0.7818608E-02  0.8151417E-01
          2   -1    0    0  501    0  0.00000000000E+00  0.00000000000E+00  0.19223440546E+04  0.19223440546E+04  0.00000000000E+00 0. -1.
         -1   -1    0    0    0  501 -0.00000000000E+00 -0.00000000000E+00 -0.14555500269E+04  0.14555500269E+04  0.00000000000E+00 0.  1.
         24    2    1    2    0    0  0.62531391222E+03  0.12748619086E+03  0.16016565635E+04  0.17259335960E+04  0.79201090452E+02 0.  0.
        254    2    1    2    0    0 -0.62531391222E+03 -0.12748619086E+03 -0.11348625359E+04  0.16519604854E+04  0.10167547651E+04 0.  0.
         23    2    4    4    0    0 -0.84800533653E+03 -0.68988449264E+02 -0.11022946483E+04  0.13954964992E+04  0.92111512223E+02 0.  0.
         23    2    4    4    0    0  0.22269142431E+03 -0.58497741591E+02 -0.32567887596E+02  0.25646398621E+03  0.10816493282E+03 0.  0.
          2    1    3    3  502    0  0.61719179628E+03  0.13288288353E+03  0.15898798641E+04  0.17106436089E+04  0.00000000000E+00 0. -1.
         -3    1    3    3    0  502  0.81221159430E+01 -0.53966926768E+01  0.11776699401E+02  0.15289987182E+02  0.00000000000E+00 0.  1.
         13    1    5    5    0    0 -0.28992290621E+03 -0.42897276981E+02 -0.44499992810E+03  0.53284181886E+03  0.00000000000E+00 0. -1.
        -13    1    5    5    0    0 -0.55808243032E+03 -0.26091172283E+02 -0.65729472021E+03  0.86265468035E+03  0.00000000000E+00 0.  1.
          2    1    6    6  503    0  0.81612258548E+02 -0.32037128509E+02  0.39134036728E+02  0.96012557403E+02  0.00000000000E+00 0. -1.
         -2    1    6    6    0  503  0.14107916576E+03 -0.26460613082E+02 -0.71701924324E+02  0.16045142881E+03  0.00000000000E+00 0.  1.
<mgrwt>
<rscale>  0 0.33454853E+04</rscale>
<asrwt>0</asrwt>
<pdfrwt beam="1">  1        2 0.29574524E+00 0.33454853E+04</pdfrwt>
<pdfrwt beam="2">  1       -1 0.22393077E+00 0.33454853E+04</pdfrwt>
<totfact> 0.72365407E-01</totfact>
</mgrwt>
</event>
<event>
11    7  0.1497947E-008  0.3517964E+04  0.7818608E-02  0.8109546E-01
         -1   -1    0    0    0  501 -0.00000000000E+00  0.00000000000E+00  0.17040376830E+04  0.17040376830E+04  0.00000000000E+00 0.  1.
          2   -1    0    0  501    0  0.00000000000E+00 -0.00000000000E+00 -0.18156974704E+04  0.18156974704E+04  0.00000000000E+00 0. -1.
         24    2    1    2    0    0  0.26095029938E+03 -0.14020539519E+04  0.76443283119E+03  0.16200528108E+04  0.79769752548E+02 0.  0.
        254    2    1    2    0    0 -0.26095029938E+03  0.14020539519E+04 -0.87609261856E+03  0.18996823427E+04  0.89855683398E+03 0.  0.
         23    2    4    4    0    0 -0.14480861607E+03  0.71754504489E+03 -0.92713458112E+03  0.11848441428E+04  0.91851426085E+02 0.  0.
          4    1    3    3  502    0  0.58876387057E+02 -0.43670690637E+03  0.26987976007E+03  0.51673439591E+03  0.00000000000E+00 0. -1.
         -3    1    3    3    0  502  0.20207391232E+03 -0.96534704557E+03  0.49455307111E+03  0.11033184149E+04  0.00000000000E+00 0.  1.
         13    1    5    5    0    0 -0.11741276431E+03  0.55038138246E+03 -0.77045941031E+03  0.95410331009E+03  0.00000000000E+00 0.  1.
        -13    1    5    5    0    0 -0.27395851759E+02  0.16716366243E+03 -0.15667517080E+03  0.23074083270E+03  0.00000000000E+00 0. -1.
          3    1    4    4  503    0 -0.11563602867E+03  0.26080999783E+03  0.57769138222E+02  0.29108558780E+03  0.00000000000E+00 0. -1.
         -3    1    4    4    0  503 -0.50565464386E+00  0.42369890922E+03 -0.67271756698E+01  0.42375261209E+03  0.00000000000E+00 0.  1.
<mgrwt>
<rscale>  0 0.35179636E+04</rscale>
<asrwt>0</asrwt>
<pdfrwt beam="1">  1        2 0.27933807E+00 0.35179636E+04</pdfrwt>
<pdfrwt beam="2">  1       -1 0.26215965E+00 0.35179636E+04</pdfrwt>
<totfact> 0.45871303E-01</totfact>
</mgrwt>
</event>
<event>
12    7  0.1497947E-008  0.1059603E+04  0.7818608E-02  0.9245485E-01
          2   -1    0    0  501    0  0.00000000000E+00  0.00000000000E+00  0.94896014455E+03  0.94896014455E+03  0.00000000000E+00 0. -1.
         -1   -1    0    0    0  501 -0.00000000000E+00 -0.00000000000E+00 -0.29578675901E+03  0.29578675901E+03  0.00000000000E+00 0.  1.
         24    2    1    2    0    0  0.82347492873E+02  0.86414831929E+02  0.20714809830E+02  0.14544348819E+03  0.80474046436E+02 0.  0.
        254    2    1    2    0    0 -0.82347492873E+02 -0.86414831929E+02  0.63245857571E+03  0.10993034154E+04  0.89118769982E+03 0.  0.
         23    2    4    4    0    0  0.21788467591E+03  0.31054334063E+03  0.21462483364E+03  0.44504323899E+03  0.89937572503E+02 0.  0.
         23    2    4    4    0    0 -0.30023216879E+03 -0.39695817256E+03  0.41783374207E+03  0.65426017639E+03  0.75869601677E+02 0.  0.
          4    1    3    3  502    0  0.60994469639E+02  0.40549353269E+02  0.48381731621E+02  0.87780221757E+02  0.00000000000E+00 0. -1.
         -3    1    3    3    0  502  0.21353023234E+02  0.45865478660E+02 -0.27666921791E+02  0.57663266429E+02  0.00000000000E+00 0.  1.
         13    1    5    5    0    0  0.71313648737E+02  0.54161303293E+02  0.21225917412E+02  0.92030553843E+02  0.00000000000E+00 0.  1.
        -13    1    5    5    0    0  0.14657102718E+03  0.25638203733E+03  0.19339891623E+03  0.35301268514E+03  0.00000000000E+00 0. -1.
          1    1    6    6  503    0 -0.14690556833E+03 -0.13657796384E+03  0.18374748061E+03  0.27202559226E+03  0.00000000000E+00 0. -1.
         -1    1    6    6    0  503 -0.15332660046E+03 -0.26038020872E+03  0.23408626146E+03  0.38223458413E+03  0.00000000000E+00 0.  1.
<mgrwt>
<rscale>  0 0.10596034E+04</rscale>
<asrwt>0</asrwt>
<pdfrwt beam="1">  1        2 0.14599387E+00 0.10596034E+04</pdfrwt>
<pdfrwt beam="2">  1       -1 0.45505656E-01 0.10596034E+04</pdfrwt>
<totfact> 0.14795236E+02</totfact>
</mgrwt>
</event>
<event>
12    7  0.1762703E-008  0.2417173E+04  0.7818608E-02  0.8433102E-01
         -1   -1    0    0    0  501 -0.00000000000E+00  0.00000000000E+00  0.14678111729E+04  0.14678111729E+04  0.00000000000E+00 0.  1.
          2   -1    0    0  501    0  0.00000000000E+00 -0.00000000000E+00 -0.99514279815E+03  0.99514279815E+03  0.00000000000E+00 0. -1.
         24    2    1    2    0    0  0.22351724470E+03  0.62517881404E+03 -0.60764805599E+03  0.90377220698E+03  0.82216384917E+02 0.  0.
        254    2    1    2    0    0 -0.22351724470E+03 -0.62517881404E+03  0.10803164308E+04  0.15591817641E+04  0.90727927052E+03 0.  0.
         23    2    4    4    0    0 -0.20324418269E+03 -0.74334916836E+03  0.42496845830E+03  0.88469380712E+03  0.90602195991E+02 0.  0.
         23    2    4    4    0    0 -0.20273062014E+02  0.11817035432E+03  0.65534797249E+03  0.67448795700E+03  0.10525117292E+03 0.  0.
          4    1    3    3  502    0  0.21029218205E+03  0.58374605318E+03 -0.59191154160E+03  0.85752057090E+03  0.00000000000E+00 0. -1.
         -3    1    3    3    0  502  0.13225062652E+02  0.41432760859E+02 -0.15736514389E+02  0.46251636075E+02  0.00000000000E+00 0.  1.
         13    1    5    5    0    0 -0.99499880385E+02 -0.39597833815E+03  0.27558218020E+03  0.49258969592E+03  0.00000000000E+00 0. -1.
        -13    1    5    5    0    0 -0.10374430230E+03 -0.34737083021E+03  0.14938627810E+03  0.39210411120E+03  0.00000000000E+00 0.  1.
          3    1    6    6  503    0  0.84670522108E+01  0.33979548804E+02  0.44132798255E+03  0.44271513289E+03  0.00000000000E+00 0. -1.
         -3    1    6    6    0  503 -0.28740114225E+02  0.84190805512E+02  0.21401998994E+03  0.23177282410E+03  0.00000000000E+00 0.  1.
<mgrwt>
<rscale>  0 0.24171733E+04</rscale>
<asrwt>0</asrwt>
<pdfrwt beam="1">  1        2 0.15309889E+00 0.24171733E+04</pdfrwt>
<pdfrwt beam="2">  1       -1 0.22581710E+00 0.24171733E+04</pdfrwt>
<totfact> 0.26138964E+00</totfact>
</mgrwt>
</event>
<event>
12    7  0.1497947E-008  0.1813558E+04  0.7818608E-02  0.8699122E-01
         -1   -1    0    0    0  501 -0.00000000000E+00  0.00000000000E+00  0.13231011341E+04  0.13231011341E+04  0.00000000000E+00 0.  1.
          2   -1    0    0  501    0  0.00000000000E+00 -0.00000000000E+00 -0.62145551985E+03  0.62145551985E+03  0.00000000000E+00 0. -1.
         24    2    1    2    0    0 -0.10654935286E+03  0.59134502377E+03  0.59685742841E+03  0.85054729988E+03  0.78423324141E+02 0.  0.
        254    2    1    2    0    0  0.10654935286E+03 -0.59134502377E+03  0.10478818585E+03  0.10940093541E+04  0.90820383238E+03 0.  0.
         23    2    4    4    0    0  0.30847555758E+03 -0.42364769384E+03  0.42008571611E+03  0.67827796792E+03  0.94627980917E+02 0.  0.
         23    2    4    4    0    0 -0.20192620472E+03 -0.16769732993E+03 -0.31529753026E+03  0.41573138614E+03  0.67256718728E+02 0.  0.
          2    1    3    3  502    0 -0.86647124839E+01  0.13011029900E+03  0.17217343727E+03  0.21598022977E+03  0.00000000000E+00 0. -1.
         -1    1    3    3    0  502 -0.97884640375E+02  0.46123472477E+03  0.42468399113E+03  0.63456707012E+03  0.00000000000E+00 0.  1.
         13    1    5    5    0    0  0.26984232888E+03 -0.39173353932E+03  0.34343426075E+03  0.58670021284E+03  0.00000000000E+00 0. -1.
        -13    1    5    5    0    0  0.38633228695E+02 -0.31914154520E+02  0.76651455360E+02  0.91577755088E+02  0.00000000000E+00 0.  1.
          2    1    6    6  503    0 -0.19251419609E+03 -0.17386762089E+03 -0.30579830463E+03  0.40100407530E+03  0.00000000000E+00 0. -1.
         -2    1    6    6    0  503 -0.94120086325E+01  0.61702909619E+01 -0.94992256275E+01  0.14727310840E+02  0.00000000000E+00 0.  1.
<mgrwt>
<rscale>  0 0.18135584E+04</rscale>
<asrwt>0</asrwt>
<pdfrwt beam="1">  1        2 0.95608542E-01 0.18135584E+04</pdfrwt>
<pdfrwt beam="2">  1       -1 0.20355402E+00 0.18135584E+04</pdfrwt>
<totfact> 0.72800747E+00</totfact>
</mgrwt>
</event>
<event>
11    7  0.1497947E-008  0.1594287E+04  0.7818608E-02  0.8824066E-01
          2   -1    0    0  501    0  0.00000000000E+00  0.00000000000E+00  0.50621167574E+03  0.50621167574E+03  0.00000000000E+00 0. -1.
         -1   -1    0    0    0  501 -0.00000000000E+00 -0.00000000000E+00 -0.12552803886E+04  0.12552803886E+04  0.00000000000E+00 0.  1.
         24    2    1    2    0    0 -0.33988395153E+03 -0.71109854198E+02 -0.70356387257E+03  0.78841983143E+03  0.77627288628E+02 0.  0.
        254    2    1    2    0    0  0.33988395153E+03  0.71109854198E+02 -0.45504840268E+02  0.97307223288E+03  0.90786627211E+03 0.  0.
         23    2    4    4    0    0  0.38456437534E+03  0.30530703502E+03  0.95180397669E+02  0.50836616435E+03  0.90965402988E+02 0.  0.
          2    1    3    3  502    0 -0.14449228384E+01  0.91601203080E-01 -0.40980414036E+02  0.41005981604E+02  0.00000000000E+00 0. -1.
         -1    1    3    3    0  502 -0.33843902869E+03 -0.71201455401E+02 -0.66258345854E+03  0.74741384983E+03  0.00000000000E+00 0.  1.
         13    1    5    5    0    0  0.30553749155E+03  0.27648063897E+03  0.56994381719E+02  0.41598444924E+03  0.00000000000E+00 0.  1.
        -13    1    5    5    0    0  0.79026883794E+02  0.28826396049E+02  0.38186015951E+02  0.92381715104E+02  0.00000000000E+00 0. -1.
          2    1    4    4  503    0  0.69124936844E+02  0.56736906724E+02 -0.12264271653E+03  0.15178461515E+03  0.00000000000E+00 0. -1.
         -2    1    4    4    0  503 -0.11380536066E+03 -0.29093408754E+03 -0.18042521407E+02  0.31292145338E+03  0.00000000000E+00 0.  1.
<mgrwt>
<rscale>  0 0.15942868E+04</rscale>
<asrwt>0</asrwt>
<pdfrwt beam="1">  1        2 0.77878720E-01 0.15942868E+04</pdfrwt>
<pdfrwt beam="2">  1       -1 0.19312006E+00 0.15942868E+04</pdfrwt>
<totfact> 0.11182251E+01</totfact>
</mgrwt>
</event>
<event>
11    7  0.1497947E-008  0.2531784E+04  0.7818608E-02  0.8391749E-01
          2   -1    0    0  501    0  0.00000000000E+00  0.00000000000E+00  0.88697538184E+03  0.88697538184E+03  0.00000000000E+00 0. -1.
         -1   -1    0    0    0  501 -0.00000000000E+00 -0.00000000000E+00 -0.18066814665E+04  0.18066814665E+04  0.00000000000E+00 0.  1.
         24    2    1    2    0    0  0.89393229477E+03  0.62129182681E+03 -0.60221474691E+03  0.12465464838E+04  0.78083628692E+02 0.  0.
        254    2    1    2    0    0 -0.89393229477E+03 -0.62129182681E+03 -0.31749133773E+03  0.14471103646E+04  0.89900454728E+03 0.  0.
         23    2    4    4    0    0 -0.60050585091E+03 -0.58567246699E+03 -0.58151203957E+03  0.10247192010E+04  0.90959733602E+02 0.  0.
          2    1    3    3  502    0  0.81462320127E+03  0.55378551342E+03 -0.52003016775E+03  0.11138764430E+04  0.00000000000E+00 0. -1.
         -1    1    3    3    0  502  0.79309093502E+02  0.67506313394E+02 -0.82184579166E+02  0.13267004075E+03  0.00000000000E+00 0.  1.
         13    1    5    5    0    0 -0.17489533276E+03 -0.17957948286E+03 -0.12507123042E+03  0.28014278639E+03  0.00000000000E+00 0.  1.
        -13    1    5    5    0    0 -0.42561051815E+03 -0.40609298413E+03 -0.45644080916E+03  0.74457641460E+03  0.00000000000E+00 0. -1.
          3    1    4    4  503    0 -0.24109436813E+03 -0.71850785949E+02  0.25481637896E+03  0.35807878571E+03  0.00000000000E+00 0. -1.
         -3    1    4    4    0  503 -0.52332075730E+02  0.36231426122E+02  0.92043228794E+01  0.64312377881E+02  0.00000000000E+00 0.  1.
<mgrwt>
<rscale>  0 0.25317835E+04</rscale>
<asrwt>0</asrwt>
<pdfrwt beam="1">  1        2 0.13645775E+00 0.25317835E+04</pdfrwt>
<pdfrwt beam="2">  1       -1 0.27795099E+00 0.25317835E+04</pdfrwt>
<totfact> 0.13929611E+00</totfact>
</mgrwt>
</event>
<event>
12    7  0.1497947E-008  0.2390445E+04  0.7818608E-02  0.8443089E-01
          2   -1    0    0  501    0  0.00000000000E+00  0.00000000000E+00  0.14571358435E+04  0.14571358435E+04  0.00000000000E+00 0. -1.
         -1   -1    0    0    0  501 -0.00000000000E+00 -0.00000000000E+00 -0.98038707383E+03  0.98038707383E+03  0.00000000000E+00 0.  1.
         24    2    1    2    0    0 -0.85364900217E+03  0.45850376391E+03 -0.12710120057E+03  0.98054544412E+03  0.79826890164E+02 0.  0.
        254    2    1    2    0    0  0.85364900217E+03 -0.45850376391E+03  0.60384997021E+03  0.14569774732E+04  0.90510013280E+03 0.  0.
         23    2    4    4    0    0  0.81166691284E+03 -0.29447052314E+03  0.79578474081E+03  0.11777658191E+04  0.91339502060E+02 0.  0.
         23    2    4    4    0    0  0.41982089327E+02 -0.16403324077E+03 -0.19193477059E+03  0.27921165403E+03  0.11158311559E+03 0.  0.
          4    1    3    3  502    0 -0.37178041244E+03  0.21549967878E+03 -0.18939117727E+02  0.43013890409E+03  0.00000000000E+00 0. -1.
         -3    1    3    3    0  502 -0.48186858972E+03  0.24300408512E+03 -0.10816208284E+03  0.55040654004E+03  0.00000000000E+00 0.  1.
         13    1    5    5    0    0  0.65175250679E+03 -0.23198931139E+03  0.68421781191E+03  0.97301304454E+03  0.00000000000E+00 0. -1.
        -13    1    5    5    0    0  0.15991440604E+03 -0.62481211752E+02  0.11156692890E+03  0.20475277460E+03  0.00000000000E+00 0.  1.
          3    1    6    6  503    0  0.42573740744E+02 -0.16120431888E+03 -0.11574857401E+03  0.20297065850E+03  0.00000000000E+00 0. -1.
         -3    1    6    6    0  503 -0.59165141705E+00 -0.28289218892E+01 -0.76186196581E+02  0.76240995533E+02  0.00000000000E+00 0.  1.
<mgrwt>
<rscale>  0 0.23904453E+04</rscale>
<asrwt>0</asrwt>
<pdfrwt beam="1">  1        2 0.22417475E+00 0.23904453E+04</pdfrwt>
<pdfrwt beam="2">  1       -1 0.15082878E+00 0.23904453E+04</pdfrwt>
<totfact> 0.47309016E+00</totfact>
</mgrwt>
</event>
<event>
11    7  0.1497947E-008  0.1424997E+04  0.7818608E-02  0.8935921E-01
          2   -1    0    0  501    0  0.00000000000E+00  0.00000000000E+00  0.25200150349E+03  0.25200150349E+03  0.00000000000E+00 0. -1.
         -1   -1    0    0    0  501 -0.00000000000E+00 -0.00000000000E+00 -0.20144877883E+04  0.20144877883E+04  0.00000000000E+00 0.  1.
         24    2    1    2    0    0 -0.15736197722E+03 -0.28954603621E+03 -0.95430988268E+03  0.10128140471E+04  0.80531005762E+02 0.  0.
        254    2    1    2    0    0  0.15736197722E+03  0.28954603621E+03 -0.80817640210E+03  0.12536752446E+04  0.89997379027E+03 0.  0.
         23    2    4    4    0    0 -0.13540203938E+03 -0.13713511010E+03 -0.12898163611E+03  0.24754235506E+03  0.86609493720E+02 0.  0.
          2    1    3    3  502    0  0.29968132795E+01 -0.10356243961E+02 -0.85723016762E+01  0.13773780703E+02  0.00000000000E+00 0. -1.
         -1    1    3    3    0  502 -0.16035879050E+03 -0.27918979225E+03 -0.94573758100E+03  0.99904026641E+03  0.00000000000E+00 0.  1.
         13    1    5    5    0    0 -0.21054892546E+02 -0.99543204185E+00 -0.47506448563E+02  0.51972704761E+02  0.00000000000E+00 0. -1.
        -13    1    5    5    0    0 -0.11434714683E+03 -0.13613967806E+03 -0.81475187551E+02  0.19556965030E+03  0.00000000000E+00 0.  1.
          1    1    4    4  503    0 -0.42809295605E+02 -0.49119134003E+02  0.43302582203E+02  0.78233232970E+02  0.00000000000E+00 0. -1.
         -1    1    4    4    0  503  0.33557331221E+03  0.47580028032E+03 -0.72249734819E+03  0.92789965662E+03  0.00000000000E+00 0.  1.
<mgrwt>
<rscale>  0 0.14249968E+04</rscale>
<asrwt>0</asrwt>
<pdfrwt beam="1">  1        2 0.38769463E-01 0.14249968E+04</pdfrwt>
<pdfrwt beam="2">  1       -1 0.30992119E+00 0.14249968E+04</pdfrwt>
<totfact> 0.42441842E+00</totfact>
</mgrwt>
</event>
<event>
12    7  0.1497947E-008  0.1221549E+04  0.7818608E-02  0.9094201E-01
          2   -1    0    0  501    0  0.00000000000E+00  0.00000000000E+00  0.46221462023E+03  0.46221462023E+03  0.00000000000E+00 0. -1.
         -1   -1    0    0    0  501 -0.00000000000E+00 -0.00000000000E+00 -0.80708230646E+03  0.80708230646E+03  0.00000000000E+00 0.  1.
         24    2    1    2    0    0 -0.11886992559E+02 -0.14190565168E+03  0.15680202127E+03  0.22652473600E+03  0.80299860365E+02 0.  0.
        254    2    1    2    0    0  0.11886992559E+02  0.14190565168E+03 -0.50166970750E+03  0.10427721907E+04  0.90300765870E+03 0.  0.
         23    2    4    4    0    0 -0.30832865644E+03 -0.43462505287E+02  0.88014863846E+02  0.33695154479E+03  0.93990305510E+02 0.  0.
         23    2    4    4    0    0  0.32021564899E+03  0.18536815697E+03 -0.58968457134E+03  0.70582064590E+03  0.11642798210E+03 0.  0.
          4    1    3    3  502    0  0.15125459791E+02 -0.13442251903E+03  0.13380634985E+03  0.19026910526E+03  0.00000000000E+00 0. -1.
         -3    1    3    3    0  502 -0.27012452350E+02 -0.74831326487E+01  0.22995671417E+02  0.36255630737E+02  0.00000000000E+00 0.  1.
         13    1    5    5    0    0 -0.23675071246E+03 -0.39412272199E+02  0.10701224573E+03  0.26278479367E+03  0.00000000000E+00 0.  1.
        -13    1    5    5    0    0 -0.71577943980E+02 -0.40502330886E+01 -0.18997381884E+02  0.74166751114E+02  0.00000000000E+00 0. -1.
          1    1    6    6  503    0  0.10309502616E+03  0.12387222713E+03 -0.22020815029E+03  0.27288192049E+03  0.00000000000E+00 0. -1.
         -1    1    6    6    0  503  0.21712062283E+03  0.61495929833E+02 -0.36947642106E+03  0.43293872541E+03  0.00000000000E+00 0.  1.
<mgrwt>
<rscale>  0 0.12215486E+04</rscale>
<asrwt>0</asrwt>
<pdfrwt beam="1">  1        2 0.71109943E-01 0.12215486E+04</pdfrwt>
<pdfrwt beam="2">  1       -1 0.12416651E+00 0.12215486E+04</pdfrwt>
<totfact> 0.43272033E+01</totfact>
</mgrwt>
</event>
<event>
12    7  0.1497947E-008  0.1674214E+04  0.7818608E-02  0.8776209E-01
          2   -1    0    0  501    0  0.00000000000E+00  0.00000000000E+00  0.11288560362E+04  0.11288560362E+04  0.00000000000E+00 0. -1.
         -1   -1    0    0    0  501 -0.00000000000E+00 -0.00000000000E+00 -0.62075948102E+03  0.62075948102E+03  0.00000000000E+00 0.  1.
         24    2    1    2    0    0 -0.35841690594E+03  0.44940819565E+03  0.59763404253E+02  0.58392368926E+03  0.83455410903E+02 0.  0.
        254    2    1    2    0    0  0.35841690594E+03 -0.44940819565E+03  0.44833315093E+03  0.11656918280E+04  0.90961773222E+03 0.  0.
         23    2    4    4    0    0  0.30748095782E+03 -0.36958182505E+03  0.71113362171E+03  0.86332375800E+03  0.92095702320E+02 0.  0.
         23    2    4    4    0    0  0.50935948114E+02 -0.79826370604E+02 -0.26280047078E+03  0.30236806995E+03  0.11573954394E+03 0.  0.
          2    1    3    3  502    0 -0.14718203185E+03  0.12708066362E+03  0.36470111664E+02  0.19784366204E+03  0.00000000000E+00 0. -1.
         -1    1    3    3    0  502 -0.21123487409E+03  0.32232753203E+03  0.23293292589E+02  0.38608002721E+03  0.00000000000E+00 0.  1.
         13    1    5    5    0    0  0.17909164386E+03 -0.14521568462E+03  0.35347482274E+03  0.42202590237E+03  0.00000000000E+00 0. -1.
        -13    1    5    5    0    0  0.12838931396E+03 -0.22436614042E+03  0.35765879896E+03  0.44129785563E+03  0.00000000000E+00 0.  1.
          3    1    6    6  503    0  0.41624980546E+02 -0.10965718694E+03 -0.19223273641E+03  0.22519050291E+03  0.00000000000E+00 0. -1.
         -3    1    6    6    0  503  0.93109675688E+01  0.29830816338E+02 -0.70567734374E+02  0.77177567046E+02  0.00000000000E+00 0.  1.
<mgrwt>
<rscale>  0 0.16742139E+04</rscale>
<asrwt>0</asrwt>
<pdfrwt beam="1">  1        2 0.17367016E+00 0.16742139E+04</pdfrwt>
<pdfrwt beam="2">  1       -1 0.95501458E-01 0.16742139E+04</pdfrwt>
<totfact> 0.24068410E+01</totfact>
</mgrwt>
</event>
<event>
12    7  0.1497947E-008  0.1459265E+04  0.7818608E-02  0.8912002E-01
          2   -1    0    0  501    0  0.00000000000E+00  0.00000000000E+00  0.24833646204E+04  0.24833646204E+04  0.00000000000E+00 0. -1.
         -1   -1    0    0    0  501 -0.00000000000E+00 -0.00000000000E+00 -0.21437194169E+03  0.21437194169E+03  0.00000000000E+00 0.  1.
         24    2    1    2    0    0  0.22976720669E+03  0.25134845264E+03  0.14563900483E+03  0.37887962594E+03  0.79812513475E+02 0.  0.
        254    2    1    2    0    0 -0.22976720669E+03 -0.25134845264E+03  0.21233536738E+04  0.23188569361E+04  0.86746622532E+03 0.  0.
         23    2    4    4    0    0 -0.36898601424E+03 -0.14654828969E+03  0.36211493059E+03  0.54500255103E+03  0.90958659558E+02 0.  0.
         23    2    4    4    0    0  0.13921880756E+03 -0.10480016295E+03  0.17612387432E+04  0.17738543851E+04  0.11930011848E+03 0.  0.
          4    1    3    3  502    0  0.12158584838E+03  0.17911774403E+03  0.11543764386E+03  0.24534085345E+03  0.00000000000E+00 0. -1.
         -3    1    3    3    0  502  0.10818135831E+03  0.72230708609E+02  0.30201360971E+02  0.13353877248E+03  0.00000000000E+00 0.  1.
         13    1    5    5    0    0 -0.27893442444E+03 -0.81128221734E+02  0.29974699884E+03  0.41741402086E+03  0.00000000000E+00 0.  1.
        -13    1    5    5    0    0 -0.90051589807E+02 -0.65420067960E+02  0.62367931746E+02  0.12758853016E+03  0.00000000000E+00 0. -1.
          2    1    6    6  503    0  0.11522999772E+03 -0.13169013827E+03  0.14336477755E+04  0.14442874329E+04  0.00000000000E+00 0.  1.
         -2    1    6    6    0  503  0.23988809839E+02  0.26889975325E+02  0.32759096779E+03  0.32956695215E+03  0.00000000000E+00 0. -1.
<mgrwt>
<rscale>  0 0.14592652E+04</rscale>
<asrwt>0</asrwt>
<pdfrwt beam="1">  1        2 0.38205608E+00 0.14592652E+04</pdfrwt>
<pdfrwt beam="2">  1       -1 0.32980300E-01 0.14592652E+04</pdfrwt>
<totfact> 0.34003354E+01</totfact>
</mgrwt>
</event>
<event>
12    7  0.2331126E-008  0.1754671E+04  0.7818608E-02  0.8730784E-01
          2   -1    0    0  501    0  0.00000000000E+00  0.00000000000E+00  0.70720052326E+03  0.70720052326E+03  0.00000000000E+00 0. -1.
         -1   -1    0    0    0  501 -0.00000000000E+00 -0.00000000000E+00 -0.10884003936E+04  0.10884003936E+04  0.00000000000E+00 0.  1.
         24    2    1    2    0    0 -0.44976305293E+02 -0.45003461017E+03 -0.58539447881E+03  0.74417126752E+03  0.80933066186E+02 0.  0.
        254    2    1    2    0    0  0.44976305293E+02  0.45003461017E+03  0.20419460844E+03  0.10514296494E+04  0.92696000510E+03 0.  0.
         23    2    4    4    0    0 -0.58157968319E-01  0.60259222102E+03 -0.16886808881E+03  0.63262697213E+03  0.92644839218E+02 0.  0.
         23    2    4    4    0    0  0.45034463261E+02 -0.15255761085E+03  0.37306269725E+03  0.41880267723E+03  0.10448913276E+03 0.  0.
          2    1    3    3  502    0 -0.11291563100E+02 -0.81675580611E+02 -0.16329448900E+03  0.18293028728E+03  0.00000000000E+00 0. -1.
         -1    1    3    3    0  502 -0.33684742193E+02 -0.36835902955E+03 -0.42209998981E+03  0.56124098024E+03  0.00000000000E+00 0.  1.
         13    1    5    5    0    0  0.19037661903E+02  0.49286483137E+03 -0.16859242140E+03  0.52125001595E+03  0.00000000000E+00 0.  1.
        -13    1    5    5    0    0 -0.19095819871E+02  0.10972738965E+03 -0.27566740573E+00  0.11137695618E+03  0.00000000000E+00 0. -1.
          4    1    6    6  503    0 -0.21487386817E+02  0.25770901936E+00  0.25513725485E+02  0.33357523803E+02  0.00000000000E+00 0. -1.
         -4    1    6    6    0  503  0.66521850079E+02 -0.15281531987E+03  0.34754897176E+03  0.38544515342E+03  0.00000000000E+00 0.  1.
<mgrwt>
<rscale>  0 0.17546707E+04</rscale>
<asrwt>0</asrwt>
<pdfrwt beam="1">  1        2 0.10880008E+00 0.17546707E+04</pdfrwt>
<pdfrwt beam="2">  1       -1 0.16744621E+00 0.17546707E+04</pdfrwt>
<totfact> 0.11244269E+01</totfact>
</mgrwt>
</event>
<event>
11    7  0.1497947E-008  0.1645613E+04  0.7818608E-02  0.8793006E-01
          2   -1    0    0  501    0  0.00000000000E+00  0.00000000000E+00  0.63620837002E+03  0.63620837002E+03  0.00000000000E+00 0. -1.
         -1   -1    0    0    0  501 -0.00000000000E+00 -0.00000000000E+00 -0.10641337614E+04  0.10641337614E+04  0.00000000000E+00 0.  1.
         24    2    1    2    0    0 -0.92284049044E+02 -0.48239265473E+03  0.13047449325E+03  0.51438509217E+03  0.79683189043E+02 0.  0.
        254    2    1    2    0    0  0.92284049044E+02  0.48239265473E+03 -0.55839988465E+03  0.11859570393E+04  0.92383150453E+03 0.  0.
         23    2    4    4    0    0  0.21248133438E+03  0.68251921787E+03 -0.30128950147E+03  0.78116916231E+03  0.92027692716E+02 0.  0.
          4    1    3    3  502    0 -0.84064579823E+02 -0.29485094847E+03  0.52267327369E+02  0.31102380761E+03  0.00000000000E+00 0. -1.
         -3    1    3    3    0  502 -0.82194692209E+01 -0.18754170626E+03  0.78207165882E+02  0.20336128456E+03  0.00000000000E+00 0.  1.
         13    1    5    5    0    0  0.23593872459E+02  0.11931390076E+03 -0.87518566240E+02  0.14983983839E+03  0.00000000000E+00 0.  1.
        -13    1    5    5    0    0  0.18888746192E+03  0.56320531711E+03 -0.21377093523E+03  0.63132932392E+03  0.00000000000E+00 0. -1.
          4    1    4    4  503    0  0.28402585123E+02 -0.84615156372E+02 -0.39688775030E+01  0.89343066425E+02  0.00000000000E+00 0.  1.
         -4    1    4    4    0  503 -0.14859987046E+03 -0.11551140677E+03 -0.25314150567E+03  0.31544481053E+03  0.00000000000E+00 0. -1.
<mgrwt>
<rscale>  0 0.16456133E+04</rscale>
<asrwt>0</asrwt>
<pdfrwt beam="1">  1        2 0.97878212E-01 0.16456133E+04</pdfrwt>
<pdfrwt beam="2">  1       -1 0.16371288E+00 0.16456133E+04</pdfrwt>
<totfact> 0.13808407E+01</totfact>
</mgrwt>
</event>
<event>
12    7  0.1935285E-008  0.2139223E+04  0.7818608E-02  0.8544160E-01
          2   -1    0    0  501    0  0.00000000000E+00  0.00000000000E+00  0.20616492869E+04  0.20616492869E+04  0.00000000000E+00 0. -1.
         -1   -1    0    0    0  501 -0.00000000000E+00 -0.00000000000E+00 -0.55492867080E+03  0.55492867080E+03  0.00000000000E+00 0.  1.
         24    2    1    2    0    0  0.32595382975E+03 -0.37916408081E+03 -0.26341848114E+03  0.57084260611E+03  0.80378389105E+02 0.  0.
        254    2    1    2    0    0 -0.32595382975E+03  0.37916408081E+03  0.17701390973E+04  0.20457353516E+04  0.89533759327E+03 0.  0.
         23    2    4    4    0    0 -0.13854678801E+03  0.65026234795E+03  0.10427618674E+04  0.12399884122E+04  0.90457816142E+02 0.  0.
         23    2    4    4    0    0 -0.18740704174E+03 -0.27109826714E+03  0.72737722983E+03  0.80574693946E+03  0.10740030832E+03 0.  0.
          2    1    3    3  502    0  0.68459067163E+01 -0.37322480781E+02 -0.11410437870E+02  0.39623630611E+02  0.00000000000E+00 0. -1.
         -1    1    3    3    0  502  0.31910792304E+03 -0.34184160002E+03 -0.25200804327E+03  0.53121897550E+03  0.00000000000E+00 0.  1.
         13    1    5    5    0    0 -0.29454791704E+01  0.18989900090E+03  0.32904347320E+03  0.37992093078E+03  0.00000000000E+00 0. -1.
        -13    1    5    5    0    0 -0.13560130884E+03  0.46036334705E+03  0.71371839424E+03  0.86006748140E+03  0.00000000000E+00 0.  1.
          3    1    6    6  503    0 -0.25557349622E+02 -0.37109708687E+02  0.34559756518E+02  0.56786313220E+02  0.00000000000E+00 0. -1.
         -3    1    6    6    0  503 -0.16184969212E+03 -0.23398855846E+03  0.69281747331E+03  0.74896062624E+03  0.00000000000E+00 0.  1.
<mgrwt>
<rscale>  0 0.21392226E+04</rscale>
<asrwt>0</asrwt>
<pdfrwt beam="1">  1        2 0.31717681E+00 0.21392226E+04</pdfrwt>
<pdfrwt beam="2">  1       -1 0.85373642E-01 0.21392226E+04</pdfrwt>
<totfact> 0.87525997E+00</totfact>
</mgrwt>
</event>
<event>
12    7  0.1497947E-008  0.1775871E+04  0.7818608E-02  0.8719237E-01
         -1   -1    0    0    0  501 -0.00000000000E+00  0.00000000000E+00  0.59673780439E+03  0.59673780439E+03  0.00000000000E+00 0.  1.
          2   -1    0    0  501    0  0.00000000000E+00 -0.00000000000E+00 -0.13212324886E+04  0.13212324886E+04  0.00000000000E+00 0. -1.
         24    2    1    2    0    0 -0.37908587257E+02 -0.28162416548E+03  0.36140002266E+03  0.46481018342E+03  0.68478453964E+02 0.  0.
        254    2    1    2    0    0  0.37908587257E+02  0.28162416548E+03 -0.10858947069E+04  0.14531601096E+04  0.92290723158E+03 0.  0.
         23    2    4    4    0    0 -0.11869726438E+03 -0.40560859795E+02  0.11769635237E+03  0.19179100917E+03  0.84835935297E+02 0.  0.
         23    2    4    4    0    0  0.15660585164E+03  0.32218502528E+03 -0.12035910593E+04  0.12613691005E+04  0.11870967233E+03 0.  0.
          2    1    3    3  502    0  0.90003484685E+01 -0.70581382910E+02  0.12954085846E+03  0.14779571001E+03  0.00000000000E+00 0. -1.
         -1    1    3    3    0  502 -0.46908935726E+02 -0.21104278257E+03  0.23185916420E+03  0.31701447341E+03  0.00000000000E+00 0.  1.
         13    1    5    5    0    0 -0.21960054082E+02 -0.35352362921E+02  0.31006527769E+01  0.41733051494E+02  0.00000000000E+00 0.  1.
        -13    1    5    5    0    0 -0.96737210299E+02 -0.52084968744E+01  0.11459569959E+03  0.15005795767E+03  0.00000000000E+00 0. -1.
          1    1    6    6  503    0  0.15760477953E+03  0.28477513030E+03 -0.11553124603E+04  0.12002845589E+04  0.00000000000E+00 0. -1.
         -1    1    6    6    0  503 -0.99892788736E+00  0.37409894980E+02 -0.48278599003E+02  0.61084541588E+02  0.00000000000E+00 0.  1.
<mgrwt>
<rscale>  0 0.17758709E+04</rscale>
<asrwt>0</asrwt>
<pdfrwt beam="1">  1        2 0.20326653E+00 0.17758709E+04</pdfrwt>
<pdfrwt beam="2">  1       -1 0.91805818E-01 0.17758709E+04</pdfrwt>
<totfact> 0.20025987E+01</totfact>
</mgrwt>
</event>
<event>
12    7  0.1497947E-008  0.3030049E+04  0.7818608E-02  0.8235202E-01
          2   -1    0    0  501    0  0.00000000000E+00  0.00000000000E+00  0.18633327208E+04  0.18633327208E+04  0.00000000000E+00 0. -1.
         -1   -1    0    0    0  501 -0.00000000000E+00 -0.00000000000E+00 -0.12318243206E+04  0.12318243206E+04  0.00000000000E+00 0.  1.
         24    2    1    2    0    0 -0.76768650614E+03 -0.11204043464E+04  0.40566093843E+02  0.13610881515E+04  0.79163609786E+02 0.  0.
        254    2    1    2    0    0  0.76768650614E+03  0.11204043464E+04  0.59094230637E+03  0.17340688898E+04  0.90173922721E+03 0.  0.
         23    2    4    4    0    0  0.90295061727E+03  0.62872705139E+03  0.45214603110E+03  0.11926930125E+04  0.86389040320E+02 0.  0.
         23    2    4    4    0    0 -0.13526411113E+03  0.49167729503E+03  0.13879627526E+03  0.54137587727E+03  0.11739034139E+03 0.  0.
          2    1    3    3  502    0 -0.43861875251E+03 -0.67816615789E+03 -0.83035582931E+01  0.80769096617E+03  0.00000000000E+00 0. -1.
         -1    1    3    3    0  502 -0.32906775363E+03 -0.44223818854E+03  0.48869652136E+02  0.55339718537E+03  0.00000000000E+00 0.  1.
         13    1    5    5    0    0  0.17222253571E+03  0.80277106053E+02  0.77181671146E+02  0.20509028725E+03  0.00000000000E+00 0. -1.
        -13    1    5    5    0    0  0.73072808156E+03  0.54844994534E+03  0.37496435996E+03  0.98760272527E+03  0.00000000000E+00 0.  1.
          3    1    6    6  503    0 -0.10890070032E+03  0.48330793524E+03  0.12808613199E+03  0.51171474476E+03  0.00000000000E+00 0.  1.
         -3    1    6    6    0  503 -0.26363410811E+02  0.83693597955E+01  0.10710143275E+02  0.29661132513E+02  0.00000000000E+00 0. -1.
<mgrwt>
<rscale>  0 0.30300486E+04</rscale>
<asrwt>0</asrwt>
<pdfrwt beam="1">  1        2 0.28666657E+00 0.30300486E+04</pdfrwt>
<pdfrwt beam="2">  1       -1 0.18951144E+00 0.30300486E+04</pdfrwt>
<totfact> 0.13770914E+00</totfact>
</mgrwt>
</event>
<event>
12    7  0.1497947E-008  0.1125589E+04  0.7818608E-02  0.9180604E-01
          2   -1    0    0  501    0  0.00000000000E+00  0.00000000000E+00  0.17608196658E+04  0.17608196658E+04  0.00000000000E+00 0. -1.
         -1   -1    0    0    0  501 -0.00000000000E+00 -0.00000000000E+00 -0.17988081713E+03  0.17988081713E+03  0.00000000000E+00 0.  1.
         24    2    1    2    0    0  0.12732450178E+03 -0.59335414595E+02  0.71584602712E+02  0.17834917620E+03  0.83377773593E+02 0.  0.
        254    2    1    2    0    0 -0.12732450178E+03  0.59335414595E+02  0.15093542460E+04  0.17623513067E+04  0.89888801769E+03 0.  0.
         23    2    4    4    0    0 -0.35045991110E+03  0.21027650804E+03  0.13849834387E+04  0.14469078151E+04  0.91240018027E+02 0.  0.
         23    2    4    4    0    0  0.22313540932E+03 -0.15094109345E+03  0.12437080727E+03  0.31544349160E+03  0.10706948262E+03 0.  0.
          4    1    3    3  502    0 -0.82066466415E+01 -0.63542247022E+01  0.22494181722E+02  0.24773240241E+02  0.00000000000E+00 0. -1.
         -3    1    3    3    0  502  0.13553114842E+03 -0.52981189893E+02  0.49090420990E+02  0.15357593596E+03  0.00000000000E+00 0.  1.
         13    1    5    5    0    0 -0.27579309685E+03  0.15064374501E+03  0.91951731025E+03  0.97173425073E+03  0.00000000000E+00 0. -1.
        -13    1    5    5    0    0 -0.74666814253E+02  0.59632763035E+02  0.46546612844E+03  0.47517356440E+03  0.00000000000E+00 0.  1.
          2    1    6    6  503    0  0.15762673760E+03 -0.12094692788E+03  0.13827845955E+03  0.24206461978E+03  0.00000000000E+00 0. -1.
         -2    1    6    6    0  503  0.65508671719E+02 -0.29994165566E+02 -0.13907652282E+02  0.73378871825E+02  0.00000000000E+00 0.  1.
<mgrwt>
<rscale>  0 0.11255891E+04</rscale>
<asrwt>0</asrwt>
<pdfrwt beam="1">  1        2 0.27089532E+00 0.11255891E+04</pdfrwt>
<pdfrwt beam="2">  1       -1 0.27673973E-01 0.11255891E+04</pdfrwt>
<totfact> 0.12042706E+02</totfact>
</mgrwt>
</event>
<event>
12    7  0.1497947E-008  0.1664766E+04  0.7818608E-02  0.8781719E-01
          2   -1    0    0  501    0  0.00000000000E+00  0.00000000000E+00  0.30466351279E+04  0.30466351279E+04  0.00000000000E+00 0. -1.
         -1   -1    0    0    0  501 -0.00000000000E+00 -0.00000000000E+00 -0.22741867042E+03  0.22741867042E+03  0.00000000000E+00 0.  1.
         24    2    1    2    0    0 -0.46815764972E+03 -0.27246269056E+03  0.55370066495E+03  0.77861047088E+03  0.79008456876E+02 0.  0.
        254    2    1    2    0    0  0.46815764972E+03  0.27246269056E+03  0.22655157925E+04  0.24954433274E+04  0.89513579502E+03 0.  0.
         23    2    4    4    0    0 -0.14837465162E+03 -0.18792197381E+03  0.40195954860E+03  0.47649250182E+03  0.90243670646E+02 0.  0.
         23    2    4    4    0    0  0.61653230134E+03  0.46038466437E+03  0.18635562439E+04  0.20189508256E+04  0.10608696538E+03 0.  0.
          4    1    3    3  502    0 -0.40363052278E+03 -0.23624680218E+03  0.51288466964E+03  0.69410434000E+03  0.00000000000E+00 0. -1.
         -3    1    3    3    0  502 -0.64527126946E+02 -0.36215888380E+02  0.40815995311E+02  0.84506130880E+02  0.00000000000E+00 0.  1.
         13    1    5    5    0    0 -0.86665541083E+02 -0.76080415275E+02  0.11733897682E+03  0.16452228141E+03  0.00000000000E+00 0. -1.
        -13    1    5    5    0    0 -0.61709110538E+02 -0.11184155853E+03  0.28462057178E+03  0.31197022040E+03  0.00000000000E+00 0.  1.
          3    1    6    6  503    0  0.43664701086E+03  0.26334686362E+03  0.12307119034E+04  0.13321651443E+04  0.00000000000E+00 0. -1.
         -3    1    6    6    0  503  0.17988529048E+03  0.19703780075E+03  0.63284434052E+03  0.68678568126E+03  0.00000000000E+00 0.  1.
<mgrwt>
<rscale>  0 0.16647663E+04</rscale>
<asrwt>0</asrwt>
<pdfrwt beam="1">  1        2 0.46871307E+00 0.16647663E+04</pdfrwt>
<pdfrwt beam="2">  1       -1 0.34987490E-01 0.16647663E+04</pdfrwt>
<totfact> 0.13804807E+01</totfact>
</mgrwt>
</event>
<event>
12    7  0.1497947E-008  0.1531969E+04  0.7818608E-02  0.8863468E-01
          2   -1    0    0  501    0  0.00000000000E+00  0.00000000000E+00  0.21236155374E+04  0.21236155374E+04  0.00000000000E+00 0. -1.
         -1   -1    0    0    0  501 -0.00000000000E+00 -0.00000000000E+00 -0.27628930303E+03  0.27628930303E+03  0.00000000000E+00 0.  1.
         24    2    1    2    0    0  0.22057043489E+03  0.41024979763E+03  0.88421985055E+03  0.10027425675E+04  0.81802807377E+02 0.  0.
        254    2    1    2    0    0 -0.22057043489E+03 -0.41024979763E+03  0.96310638380E+03  0.13971622729E+04  0.89862800826E+03 0.  0.
         23    2    4    4    0    0  0.14300229173E+03  0.18092132360E+03  0.49120646701E+03  0.55030615456E+03  0.91492566621E+02 0.  0.
         23    2    4    4    0    0 -0.36357272662E+03 -0.59117112123E+03  0.47189991679E+03  0.84685611838E+03  0.11316948201E+03 0.  0.
          4    1    3    3  502    0  0.11681336610E+03  0.24114260812E+03  0.58858461011E+03  0.64670469552E+03  0.00000000000E+00 0. -1.
         -3    1    3    3    0  502  0.10375706879E+03  0.16910718951E+03  0.29563524044E+03  0.35603787195E+03  0.00000000000E+00 0.  1.
         13    1    5    5    0    0  0.20404884589E+01  0.37571226814E+02  0.33448987537E+02  0.50344765813E+02  0.00000000000E+00 0. -1.
        -13    1    5    5    0    0  0.14096180327E+03  0.14335009678E+03  0.45775747947E+03  0.49996138875E+03  0.00000000000E+00 0.  1.
          3    1    6    6  503    0 -0.14108310715E+01 -0.61235246410E+02  0.44547275087E+02  0.75737742010E+02  0.00000000000E+00 0. -1.
         -3    1    6    6    0  503 -0.36216189555E+03 -0.52993587482E+03  0.42735264170E+03  0.77111837637E+03  0.00000000000E+00 0.  1.
<mgrwt>
<rscale>  0 0.15319690E+04</rscale>
<asrwt>0</asrwt>
<pdfrwt beam="1">  1        2 0.32671007E+00 0.15319690E+04</pdfrwt>
<pdfrwt beam="2">  1       -1 0.42506048E-01 0.15319690E+04</pdfrwt>
<totfact> 0.34099556E+01</totfact>
</mgrwt>
</event>
<event>
12    7  0.1497947E-008  0.1709793E+04  0.7818608E-02  0.8755799E-01
         -1   -1    0    0    0  501 -0.00000000000E+00  0.00000000000E+00  0.13298605384E+04  0.13298605384E+04  0.00000000000E+00 0.  1.
          2   -1    0    0  501    0  0.00000000000E+00 -0.00000000000E+00 -0.54956737733E+03  0.54956737733E+03  0.00000000000E+00 0. -1.
         24    2    1    2    0    0 -0.74421430176E+02  0.59066200167E+03  0.44086408970E+03  0.74519723999E+03  0.80855620825E+02 0.  0.
        254    2    1    2    0    0  0.74421430176E+02 -0.59066200167E+03  0.33942907132E+03  0.11342306757E+04  0.90379587393E+03 0.  0.
         23    2    4    4    0    0  0.45071449109E+03 -0.13342278573E+03  0.15124348731E+03  0.50200694365E+03  0.90505175478E+02 0.  0.
         23    2    4    4    0    0 -0.37629306092E+03 -0.45723921594E+03  0.18818558401E+03  0.63222373203E+03  0.11674273009E+03 0.  0.
          2    1    3    3  502    0  0.15665829900E+02  0.16282531078E+03  0.11917788759E+03  0.20238791700E+03  0.00000000000E+00 0. -1.
         -1    1    3    3    0  502 -0.90087260076E+02  0.42783669089E+03  0.32168620212E+03  0.54280932300E+03  0.00000000000E+00 0.  1.
         13    1    5    5    0    0  0.42689148489E+03 -0.12104868036E+03  0.16298242075E+03  0.47270751249E+03  0.00000000000E+00 0.  1.
        -13    1    5    5    0    0  0.23823006202E+02 -0.12374105372E+02 -0.11738933440E+02  0.29299431165E+02  0.00000000000E+00 0. -1.
          3    1    6    6  503    0 -0.11758097071E+03 -0.11284031286E+03  0.10401018305E+03  0.19332961246E+03  0.00000000000E+00 0. -1.
         -3    1    6    6    0  503 -0.25871209021E+03 -0.34439890308E+03  0.84175400960E+02  0.43889411957E+03  0.00000000000E+00 0.  1.
<mgrwt>
<rscale>  0 0.17097929E+04</rscale>
<asrwt>0</asrwt>
<pdfrwt beam="1">  1        2 0.84548827E-01 0.17097929E+04</pdfrwt>
<pdfrwt beam="2">  1       -1 0.20459393E+00 0.17097929E+04</pdfrwt>
<totfact> 0.83767272E+00</totfact>
</mgrwt>
</event>
<event>
11    7  0.1497947E-008  0.1712775E+04  0.7818608E-02  0.8754111E-01
         -1   -1    0    0    0  501 -0.00000000000E+00  0.00000000000E+00  0.42710326126E+03  0.42710326126E+03  0.00000000000E+00 0.  1.
          2   -1    0    0  501    0  0.00000000000E+00 -0.00000000000E+00 -0.17171488319E+04  0.17171488319E+04  0.00000000000E+00 0. -1.
         24    2    1    2    0    0 -0.60476445402E+03  0.12589090352E+03 -0.20324226900E+03  0.65564642242E+03  0.83523929964E+02 0.  0.
        254    2    1    2    0    0  0.60476445402E+03 -0.12589090352E+03 -0.10868033017E+04  0.14886056708E+04  0.80821832576E+03 0.  0.
         23    2    4    4    0    0  0.63157470311E+03 -0.14479988561E+03 -0.38436710308E+03  0.75888883373E+03  0.91217210823E+02 0.  0.
          4    1    3    3  502    0 -0.45497670174E+03  0.10670234988E+03 -0.11700654410E+03  0.48174653290E+03  0.00000000000E+00 0. -1.
         -3    1    3    3    0  502 -0.14978775228E+03  0.19188553641E+02 -0.86235724901E+02  0.17389988951E+03  0.00000000000E+00 0.  1.
         13    1    5    5    0    0  0.35705034385E+03 -0.11476688957E+03 -0.18434793753E+03  0.41790016638E+03  0.00000000000E+00 0. -1.
        -13    1    5    5    0    0  0.27452435926E+03 -0.30032996045E+02 -0.20001916555E+03  0.34098866735E+03  0.00000000000E+00 0.  1.
          3    1    4    4  503    0 -0.29217113705E+02 -0.64932526475E+02 -0.10778915374E+03  0.12918349117E+03  0.00000000000E+00 0. -1.
         -3    1    4    4    0  503  0.24068646213E+01  0.83841508571E+02 -0.59464704483E+03  0.60053334586E+03  0.00000000000E+00 0.  1.
<mgrwt>
<rscale>  0 0.17127754E+04</rscale>
<asrwt>0</asrwt>
<pdfrwt beam="1">  1        2 0.26417674E+00 0.17127754E+04</pdfrwt>
<pdfrwt beam="2">  1       -1 0.65708194E-01 0.17127754E+04</pdfrwt>
<totfact> 0.24388249E+01</totfact>
</mgrwt>
</event>
<event>
12    7  0.1497947E-008  0.2209340E+04  0.7818608E-02  0.8514551E-01
         -1   -1    0    0    0  501 -0.00000000000E+00  0.00000000000E+00  0.17609112895E+04  0.17609112895E+04  0.00000000000E+00 0.  1.
          4   -1    0    0  501    0  0.00000000000E+00 -0.00000000000E+00 -0.69299091121E+03  0.69299091121E+03  0.00000000000E+00 0. -1.
         24    2    1    2    0    0 -0.33816794823E+03  0.16112109466E+03 -0.48681054685E+03  0.61919332038E+03  0.78091556016E+02 0.  0.
        254    2    1    2    0    0  0.33816794823E+03 -0.16112109466E+03  0.15547309251E+04  0.18347088803E+04  0.89925016410E+03 0.  0.
         23    2    4    4    0    0  0.17074966202E+03 -0.26741918397E+03  0.77488061462E+02  0.33928263586E+03  0.91868603409E+02 0.  0.
         23    2    4    4    0    0  0.16741828620E+03  0.10629808932E+03  0.14772428637E+04  0.14954262445E+04  0.12134664402E+03 0.  0.
          2    1    3    3  502    0 -0.28607970067E+03  0.10420149659E+03 -0.40579953520E+03  0.50731923854E+03  0.00000000000E+00 0. -1.
         -1    1    3    3    0  502 -0.52088247559E+02  0.56919598063E+02 -0.81011011655E+02  0.11187408184E+03  0.00000000000E+00 0.  1.
         13    1    5    5    0    0  0.11300516137E+03 -0.24223639949E+03  0.61244353312E+02  0.27422529159E+03  0.00000000000E+00 0.  1.
        -13    1    5    5    0    0  0.57744500650E+02 -0.25182784482E+02  0.16243708150E+02  0.65057344274E+02  0.00000000000E+00 0. -1.
          4    1    6    6  503    0  0.68346008790E+02  0.20809159400E+02  0.21813352419E+03  0.22953525309E+03  0.00000000000E+00 0. -1.
         -4    1    6    6    0  503  0.99072277414E+02  0.85488929915E+02  0.12591093395E+04  0.12658909914E+04  0.00000000000E+00 0.  1.
<mgrwt>
<rscale>  0 0.22093397E+04</rscale>
<asrwt>0</asrwt>
<pdfrwt beam="1">  1        4 0.10661399E+00 0.22093397E+04</pdfrwt>
<pdfrwt beam="2">  1       -1 0.27090943E+00 0.22093397E+04</pdfrwt>
<totfact> 0.13751783E-01</totfact>
</mgrwt>
</event>
<event>
12    7  0.1497947E-008  0.1754891E+04  0.7818608E-02  0.8730663E-01
          2   -1    0    0  501    0  0.00000000000E+00  0.00000000000E+00  0.10910057777E+04  0.10910057777E+04  0.00000000000E+00 0. -1.
         -1   -1    0    0    0  501 -0.00000000000E+00 -0.00000000000E+00 -0.70568878746E+03  0.70568878746E+03  0.00000000000E+00 0.  1.
         24    2    1    2    0    0 -0.58400073585E+03  0.14398272512E+03 -0.21774584769E+01  0.60694868169E+03  0.81203917830E+02 0.  0.
        254    2    1    2    0    0  0.58400073585E+03 -0.14398272512E+03  0.38749444870E+03  0.11897458834E+04  0.95055532969E+03 0.  0.
         23    2    4    4    0    0 -0.10916189377E+03  0.61508079365E+02 -0.19886376871E+03  0.25253547211E+03  0.92346105994E+02 0.  0.
         23    2    4    4    0    0  0.69316262962E+03 -0.20549080448E+03  0.58635821741E+03  0.93721041134E+03  0.10884160128E+03 0.  0.
          4    1    3    3  502    0 -0.57547311009E+02  0.39392096330E+02 -0.78302357735E+01  0.70176512095E+02  0.00000000000E+00 0. -1.
         -3    1    3    3    0  502 -0.52645342484E+03  0.10459062879E+03  0.56527772966E+01  0.53677216959E+03  0.00000000000E+00 0.  1.
         13    1    5    5    0    0 -0.61117017206E+02  0.81956995120E+02 -0.11632276393E+03  0.15486518089E+03  0.00000000000E+00 0. -1.
        -13    1    5    5    0    0 -0.48044876563E+02 -0.20448915755E+02 -0.82541004772E+02  0.97670291227E+02  0.00000000000E+00 0.  1.
          2    1    6    6  503    0  0.35198750531E+03 -0.13404967534E+03  0.24495904355E+03  0.44929884528E+03  0.00000000000E+00 0. -1.
         -2    1    6    6    0  503  0.34117512431E+03 -0.71441129140E+02  0.34139917386E+03  0.48791156606E+03  0.00000000000E+00 0.  1.
<mgrwt>
<rscale>  0 0.17548909E+04</rscale>
<asrwt>0</asrwt>
<pdfrwt beam="1">  1        2 0.16784704E+00 0.17548909E+04</pdfrwt>
<pdfrwt beam="2">  1       -1 0.10856751E+00 0.17548909E+04</pdfrwt>
<totfact> 0.18775090E+01</totfact>
</mgrwt>
</event>
<event>
11    7  0.1497947E-008  0.1575301E+04  0.7818608E-02  0.8835867E-01
         -1   -1    0    0    0  501 -0.00000000000E+00  0.00000000000E+00  0.45053211312E+03  0.45053211312E+03  0.00000000000E+00 0.  1.
          2   -1    0    0  501    0  0.00000000000E+00 -0.00000000000E+00 -0.13770242754E+04  0.13770242754E+04  0.00000000000E+00 0. -1.
         24    2    1    2    0    0 -0.31408321035E+03  0.10916081694E+02 -0.80163097142E+03  0.86458571339E+03  0.78286765116E+02 0.  0.
        254    2    1    2    0    0  0.31408321035E+03 -0.10916081694E+02 -0.12486119090E+03  0.96297067518E+03  0.90164005036E+03 0.  0.
         23    2    4    4    0    0  0.27910150223E+03 -0.33371493104E+03  0.19366814480E+03  0.48481666275E+03  0.90975504482E+02 0.  0.
          2    1    3    3  502    0 -0.30616994466E+03 -0.16596001072E+01 -0.78314977706E+03  0.84087238187E+03  0.00000000000E+00 0. -1.
         -1    1    3    3    0  502 -0.79132656970E+01  0.12575681801E+02 -0.18481194359E+02  0.23713331518E+02  0.00000000000E+00 0.  1.
         13    1    5    5    0    0  0.27753611885E+01 -0.41136847184E+02  0.26661498249E+02  0.49099677340E+02  0.00000000000E+00 0.  1.
        -13    1    5    5    0    0  0.27632614105E+03 -0.29257808386E+03  0.16700664655E+03  0.43571698541E+03  0.00000000000E+00 0. -1.
          3    1    4    4  503    0 -0.19690871448E+02  0.28042346994E+03 -0.21619326838E+03  0.35463302470E+03  0.00000000000E+00 0. -1.
         -3    1    4    4    0  503  0.54672579566E+02  0.42375379405E+02 -0.10233606733E+03  0.12352098774E+03  0.00000000000E+00 0.  1.
<mgrwt>
<rscale>  0 0.15753014E+04</rscale>
<asrwt>0</asrwt>
<pdfrwt beam="1">  1        2 0.21184989E+00 0.15753014E+04</pdfrwt>
<pdfrwt beam="2">  1       -1 0.69312634E-01 0.15753014E+04</pdfrwt>
<totfact> 0.34392440E+01</totfact>
</mgrwt>
</event>
<event>
11    7  0.1497947E-008  0.2920368E+04  0.7818608E-02  0.8266843E-01
          2   -1    0    0  501    0  0.00000000000E+00  0.00000000000E+00  0.22810764695E+04  0.22810764695E+04  0.00000000000E+00 0. -1.
         -1   -1    0    0    0  501 -0.00000000000E+00 -0.00000000000E+00 -0.93470644726E+03  0.93470644726E+03  0.00000000000E+00 0.  1.
         24    2    1    2    0    0 -0.11104021420E+04  0.14138478332E+03 -0.16081518451E+03  0.11334847524E+04  0.77094658900E+02 0.  0.
        254    2    1    2    0    0  0.11104021420E+04 -0.14138478332E+03  0.15071852067E+04  0.20822981643E+04  0.90076402219E+03 0.  0.
         23    2    4    4    0    0  0.44576495691E+03  0.21590416064E+03  0.11309996977E+04  0.12380591126E+04  0.91153973082E+02 0.  0.
          2    1    3    3  502    0 -0.20336936781E+02  0.38604853494E+01  0.73858030686E+01  0.21978271810E+02  0.00000000000E+00 0. -1.
         -1    1    3    3    0  502 -0.10900652053E+04  0.13752429797E+03 -0.16820098758E+03  0.11115064806E+04  0.00000000000E+00 0.  1.
         13    1    5    5    0    0  0.96777276528E+02  0.76176319116E+02  0.35593132250E+03  0.37663746386E+03  0.00000000000E+00 0. -1.
        -13    1    5    5    0    0  0.34898768038E+03  0.13972784153E+03  0.77506837516E+03  0.86142164875E+03  0.00000000000E+00 0.  1.
          2    1    4    4  503    0  0.50905170360E+03 -0.25282865703E+03  0.28507838681E+03  0.63586606560E+03  0.00000000000E+00 0. -1.
         -2    1    4    4    0  503  0.15558548153E+03 -0.10446028693E+03  0.91107122268E+02  0.20837298610E+03  0.00000000000E+00 0.  1.
<mgrwt>
<rscale>  0 0.29203677E+04</rscale>
<asrwt>0</asrwt>
<pdfrwt beam="1">  1        2 0.35093484E+00 0.29203677E+04</pdfrwt>
<pdfrwt beam="2">  1       -1 0.14380099E+00 0.29203677E+04</pdfrwt>
<totfact> 0.17780402E+00</totfact>
</mgrwt>
</event>
<event>
12    7  0.1497947E-008  0.2770761E+04  0.7818608E-02  0.8312404E-01
          2   -1    0    0  501    0  0.00000000000E+00  0.00000000000E+00  0.24062165645E+04  0.24062165645E+04  0.00000000000E+00 0. -1.
         -1   -1    0    0    0  501 -0.00000000000E+00 -0.00000000000E+00 -0.79763376662E+03  0.79763376662E+03  0.00000000000E+00 0.  1.
         24    2    1    2    0    0  0.95856212591E+03  0.64937608960E+03  0.26750527453E+03  0.11908932692E+04  0.78339337601E+02 0.  0.
        254    2    1    2    0    0 -0.95856212591E+03 -0.64937608960E+03  0.13410775234E+04  0.20129570619E+04  0.95549806617E+03 0.  0.
         23    2    4    4    0    0 -0.81236407062E+03 -0.77034806259E+03  0.13888434230E+04  0.17862538163E+04  0.91897344810E+02 0.  0.
         23    2    4    4    0    0 -0.14619805529E+03  0.12097197299E+03 -0.47765899654E+02  0.22670324556E+03  0.11447572127E+03 0.  0.
          2    1    3    3  502    0  0.66247973988E+03  0.45527293033E+03  0.14883707349E+03  0.81749943198E+03  0.00000000000E+00 0. -1.
         -1    1    3    3    0  502  0.29608238603E+03  0.19410315927E+03  0.11866820104E+03  0.37339383725E+03  0.00000000000E+00 0.  1.
         13    1    5    5    0    0 -0.81117049957E+03 -0.76329134532E+03  0.13673039861E+04  0.17635564770E+04  0.00000000000E+00 0. -1.
        -13    1    5    5    0    0 -0.11935710590E+01 -0.70567172683E+01  0.21539436883E+02  0.22697339309E+02  0.00000000000E+00 0.  1.
          4    1    6    6  503    0 -0.49397154444E+02 -0.15889836552E+02 -0.24767434941E+02  0.57497753055E+02  0.00000000000E+00 0.  1.
         -4    1    6    6    0  503 -0.96800900844E+02  0.13686180955E+03 -0.22998464713E+02  0.16920549251E+03  0.00000000000E+00 0. -1.
<mgrwt>
<rscale>  0 0.27707613E+04</rscale>
<asrwt>0</asrwt>
<pdfrwt beam="1">  1        2 0.37018716E+00 0.27707613E+04</pdfrwt>
<pdfrwt beam="2">  1       -1 0.12271289E+00 0.27707613E+04</pdfrwt>
<totfact> 0.22906124E+00</totfact>
</mgrwt>
</event>
<event>
12    7  0.1663201E-008  0.1922723E+04  0.7818608E-02  0.8643628E-01
          2   -1    0    0  501    0  0.00000000000E+00  0.00000000000E+00  0.14883220160E+04  0.14883220160E+04  0.00000000000E+00 0. -1.
         -1   -1    0    0    0  501 -0.00000000000E+00 -0.00000000000E+00 -0.62097854002E+03  0.62097854002E+03  0.00000000000E+00 0.  1.
         24    2    1    2    0    0 -0.45669077123E+03  0.56006755153E+03  0.21504642612E+03  0.75859244467E+03  0.83518913525E+02 0.  0.
        254    2    1    2    0    0  0.45669077123E+03 -0.56006755153E+03  0.65229704991E+03  0.13507081114E+04  0.93631129335E+03 0.  0.
         23    2    4    4    0    0 -0.72186833201E+02 -0.49845243109E+03  0.62254258889E+03  0.80647663179E+03  0.95809799588E+02 0.  0.
         23    2    4    4    0    0  0.52887760443E+03 -0.61615120442E+02  0.29754461022E+02  0.54423147960E+03  0.10860309342E+03 0.  0.
          4    1    3    3  502    0 -0.10969299929E+02  0.33374501750E+02  0.24349388351E+02  0.42744305130E+02  0.00000000000E+00 0. -1.
         -3    1    3    3    0  502 -0.44572147130E+03  0.52669304978E+03  0.19069703777E+03  0.71584813954E+03  0.00000000000E+00 0.  1.
         13    1    5    5    0    0 -0.13085379053E+02 -0.37887578601E+03  0.47022600205E+03  0.60401207055E+03  0.00000000000E+00 0. -1.
        -13    1    5    5    0    0 -0.59101454148E+02 -0.11957664508E+03  0.15231658684E+03  0.20246456123E+03  0.00000000000E+00 0.  1.
          1    1    6    6  503    0  0.48383653998E+03 -0.48422286291E+02 -0.42534084854E+01  0.48627215293E+03  0.00000000000E+00 0. -1.
         -1    1    6    6    0  503  0.45041064457E+02 -0.13192834151E+02  0.34007869508E+02  0.57959326677E+02  0.00000000000E+00 0.  1.
<mgrwt>
<rscale>  0 0.19227231E+04</rscale>
<asrwt>0</asrwt>
<pdfrwt beam="1">  1        2 0.22897262E+00 0.19227231E+04</pdfrwt>
<pdfrwt beam="2">  1       -1 0.95535161E-01 0.19227231E+04</pdfrwt>
<totfact> 0.14515865E+01</totfact>
</mgrwt>
</event>
<event>
12    7  0.1497947E-008  0.1606048E+04  0.7818608E-02  0.8816841E-01
          2   -1    0    0  501    0  0.00000000000E+00  0.00000000000E+00  0.25955859472E+04  0.25955859472E+04  0.00000000000E+00 0. -1.
         -1   -1    0    0    0  501 -0.00000000000E+00 -0.00000000000E+00 -0.24844003459E+03  0.24844003459E+03  0.00000000000E+00 0.  1.
         24    2    1    2    0    0 -0.36049033202E+03 -0.39433596090E+03  0.63660726175E+03  0.83493852670E+03  0.79996300606E+02 0.  0.
        254    2    1    2    0    0  0.36049033202E+03  0.39433596090E+03  0.17105386509E+04  0.20090874551E+04  0.90831481141E+03 0.  0.
         23    2    4    4    0    0  0.59402999175E+03  0.21562971731E+03  0.15245591553E+04  0.16528494530E+04  0.90900440987E+02 0.  0.
         23    2    4    4    0    0 -0.23353965973E+03  0.17870624359E+03  0.18597949559E+03  0.35623800213E+03  0.76422818692E+02 0.  0.
          4    1    3    3  502    0 -0.68032383067E+02 -0.11517005478E+03  0.19184327588E+03  0.23387259174E+03  0.00000000000E+00 0. -1.
         -3    1    3    3    0  502 -0.29245794895E+03 -0.27916590613E+03  0.44476398586E+03  0.60106593496E+03  0.00000000000E+00 0.  1.
         13    1    5    5    0    0  0.49979751043E+03  0.18084453884E+03  0.13584820996E+04  0.14587583465E+04  0.00000000000E+00 0.  1.
        -13    1    5    5    0    0  0.94232481323E+02  0.34785178471E+02  0.16607705574E+03  0.19409110650E+03  0.00000000000E+00 0. -1.
          4    1    6    6  503    0 -0.20183451219E+01  0.26871963533E+02  0.15290082507E+02  0.30983265874E+02  0.00000000000E+00 0. -1.
         -4    1    6    6    0  503 -0.23152131461E+03  0.15183428006E+03  0.17068941308E+03  0.32525473626E+03  0.00000000000E+00 0.  1.
<mgrwt>
<rscale>  0 0.16060479E+04</rscale>
<asrwt>0</asrwt>
<pdfrwt beam="1">  1        2 0.39932090E+00 0.16060479E+04</pdfrwt>
<pdfrwt beam="2">  1       -1 0.38221545E-01 0.16060479E+04</pdfrwt>
<totfact> 0.22175199E+01</totfact>
</mgrwt>
</event>
<event>
11    7  0.1497947E-008  0.3188226E+04  0.7818608E-02  0.8191934E-01
          2   -1    0    0  501    0  0.00000000000E+00  0.00000000000E+00  0.18201351246E+04  0.18201351246E+04  0.00000000000E+00 0. -1.
         -1   -1    0    0    0  501 -0.00000000000E+00 -0.00000000000E+00 -0.13961577755E+04  0.13961577755E+04  0.00000000000E+00 0.  1.
         24    2    1    2    0    0  0.13242560426E+03 -0.85555173978E+03 -0.99381845414E+03  0.13201351846E+04  0.74675737534E+02 0.  0.
        254    2    1    2    0    0 -0.13242560426E+03  0.85555173978E+03  0.14177958033E+04  0.18961577155E+04  0.91420119352E+03 0.  0.
         23    2    4    4    0    0 -0.11303068213E+03  0.51705931450E+03  0.15766642501E+03  0.55916077543E+03  0.87611650999E+02 0.  0.
          2    1    3    3  502    0  0.18788149768E+02 -0.29263297704E+02 -0.44071559619E+02  0.56139447196E+02  0.00000000000E+00 0. -1.
         -1    1    3    3    0  502  0.11363745449E+03 -0.82628844207E+03 -0.94974689452E+03  0.12639957374E+04  0.00000000000E+00 0.  1.
         13    1    5    5    0    0 -0.70898068736E+02  0.45793814241E+03  0.14430899683E+03  0.48534417169E+03  0.00000000000E+00 0.  1.
        -13    1    5    5    0    0 -0.42132613393E+02  0.59121172088E+02  0.13357428182E+02  0.73816603742E+02  0.00000000000E+00 0. -1.
          4    1    4    4  503    0 -0.22483681599E+02  0.32734225843E+03  0.66293016632E+03  0.73968565993E+03  0.00000000000E+00 0. -1.
         -4    1    4    4    0  503  0.30887594656E+01  0.11150166845E+02  0.59719921193E+03  0.59731128014E+03  0.00000000000E+00 0.  1.
<mgrwt>
<rscale>  0 0.31882257E+04</rscale>
<asrwt>0</asrwt>
<pdfrwt beam="1">  1        2 0.28002079E+00 0.31882257E+04</pdfrwt>
<pdfrwt beam="2">  1       -1 0.21479350E+00 0.31882257E+04</pdfrwt>
<totfact> 0.96220182E-01</totfact>
</mgrwt>
</event>
<event>
12    7  0.1497947E-008  0.2077098E+04  0.7818608E-02  0.8571399E-01
         -1   -1    0    0    0  501 -0.00000000000E+00  0.00000000000E+00  0.11607542011E+04  0.11607542011E+04  0.00000000000E+00 0.  1.
          2   -1    0    0  501    0  0.00000000000E+00 -0.00000000000E+00 -0.92920997429E+03  0.92920997429E+03  0.00000000000E+00 0. -1.
         24    2    1    2    0    0 -0.41677543873E+03 -0.10049058787E+02 -0.64166358441E+03  0.76973716743E+03  0.83429020473E+02 0.  0.
        254    2    1    2    0    0  0.41677543873E+03  0.10049058787E+02  0.87320781118E+03  0.13202270079E+04  0.89816742373E+03 0.  0.
         23    2    4    4    0    0 -0.86235236477E+02 -0.25712393681E+02 -0.13728844527E+03  0.18831393534E+03  0.92284223146E+02 0.  0.
         23    2    4    4    0    0  0.50301067520E+03  0.35761452468E+02  0.10104962564E+04  0.11319130726E+04  0.76327575295E+02 0.  0.
          4    1    3    3  502    0 -0.32088635007E+03 -0.35703387103E+02 -0.44932288132E+03  0.55329362294E+03  0.00000000000E+00 0. -1.
         -3    1    3    3    0  502 -0.95889088654E+02  0.25654328316E+02 -0.19234070309E+03  0.21644354448E+03  0.00000000000E+00 0.  1.
         13    1    5    5    0    0  0.10121559998E+01 -0.12386162910E+02  0.10438560546E+02  0.16229757782E+02  0.00000000000E+00 0. -1.
        -13    1    5    5    0    0 -0.87247392477E+02 -0.13326230770E+02 -0.14772700581E+03  0.17208417756E+03  0.00000000000E+00 0.  1.
          4    1    6    6  503    0  0.14181556208E+03 -0.17521111524E+02  0.33135638436E+03  0.36085412074E+03  0.00000000000E+00 0. -1.
         -4    1    6    6    0  503  0.36119511312E+03  0.53282563992E+02  0.67913987208E+03  0.77105895185E+03  0.00000000000E+00 0.  1.
<mgrwt>
<rscale>  0 0.20770983E+04</rscale>
<asrwt>0</asrwt>
<pdfrwt beam="1">  1        2 0.14295538E+00 0.20770983E+04</pdfrwt>
<pdfrwt beam="2">  1       -1 0.17857757E+00 0.20770983E+04</pdfrwt>
<totfact> 0.62895835E+00</totfact>
</mgrwt>
</event>
<event>
12    7  0.1497947E-008  0.1925158E+04  0.7818608E-02  0.8642434E-01
          2   -1    0    0  501    0  0.00000000000E+00  0.00000000000E+00  0.33761762213E+04  0.33761762213E+04  0.00000000000E+00 0. -1.
         -1   -1    0    0    0  501 -0.00000000000E+00 -0.00000000000E+00 -0.27444023598E+03  0.27444023598E+03  0.00000000000E+00 0.  1.
         24    2    1    2    0    0  0.27203219764E+03  0.16258750224E+03  0.24640375285E+04  0.24856426794E+04  0.80637307485E+02 0.  0.
        254    2    1    2    0    0 -0.27203219764E+03 -0.16258750224E+03  0.63769845676E+03  0.11649737778E+04  0.92199152319E+03 0.  0.
         23    2    4    4    0    0 -0.22128719218E+03 -0.36435121577E+03 -0.48048708273E+02  0.43861017693E+03  0.91380408618E+02 0.  0.
         23    2    4    4    0    0 -0.50745005455E+02  0.20176371354E+03  0.68574716503E+03  0.72636360090E+03  0.11862231950E+03 0.  0.
          4    1    3    3  502    0  0.22065686054E+03  0.13938036311E+03  0.17463861508E+04  0.17657805422E+04  0.00000000000E+00 0. -1.
         -3    1    3    3    0  502  0.51375337094E+02  0.23207139126E+02  0.71765137777E+03  0.71986213720E+03  0.00000000000E+00 0.  1.
         13    1    5    5    0    0 -0.39351053150E+02 -0.17778490906E+02  0.55373799832E+01  0.43534385260E+02  0.00000000000E+00 0. -1.
        -13    1    5    5    0    0 -0.18193613903E+03 -0.34657272487E+03 -0.53586088257E+02  0.39507579167E+03  0.00000000000E+00 0.  1.
          3    1    6    6  503    0 -0.20839141215E+02 -0.11334425559E+02  0.84599344277E+02  0.87862324471E+02  0.00000000000E+00 0. -1.
         -3    1    6    6    0  503 -0.29905864241E+02  0.21309813910E+03  0.60114782075E+03  0.63850127643E+03  0.00000000000E+00 0.  1.
<mgrwt>
<rscale>  0 0.19251583E+04</rscale>
<asrwt>0</asrwt>
<pdfrwt beam="1">  1        2 0.51941170E+00 0.19251583E+04</pdfrwt>
<pdfrwt beam="2">  1       -1 0.42221577E-01 0.19251583E+04</pdfrwt>
<totfact> 0.58379350E+00</totfact>
</mgrwt>
</event>
<event>
12    7  0.1497947E-008  0.2987853E+04  0.7818608E-02  0.8247208E-01
         -1   -1    0    0    0  501 -0.00000000000E+00  0.00000000000E+00  0.52094544670E+03  0.52094544670E+03  0.00000000000E+00 0.  1.
          2   -1    0    0  501    0  0.00000000000E+00 -0.00000000000E+00 -0.42841664783E+04  0.42841664783E+04  0.00000000000E+00 0. -1.
         24    2    1    2    0    0  0.10704291002E+04 -0.28040884590E+03 -0.44969315581E+03  0.11971182552E+04  0.80128666481E+02 0.  0.
        254    2    1    2    0    0 -0.10704291002E+04  0.28040884590E+03 -0.33135278758E+04  0.36079936698E+04  0.90205529679E+03 0.  0.
         23    2    4    4    0    0 -0.74134439352E+03  0.53862145265E+03 -0.16579975019E+04  0.18965426841E+04  0.90630331619E+02 0.  0.
         23    2    4    4    0    0 -0.32908470663E+03 -0.25821260675E+03 -0.16555303739E+04  0.17114509857E+04  0.11538268255E+03 0.  0.
          4    1    3    3  502    0  0.19177377814E+03 -0.19334633825E+02 -0.72789041850E+02  0.20603216899E+03  0.00000000000E+00 0. -1.
         -3    1    3    3    0  502  0.87865532202E+03 -0.26107421207E+03 -0.37690411396E+03  0.99108608619E+03  0.00000000000E+00 0.  1.
         13    1    5    5    0    0 -0.32427791103E+03  0.19181103167E+03 -0.73582373310E+03  0.82667055206E+03  0.00000000000E+00 0.  1.
        -13    1    5    5    0    0 -0.41706648249E+03  0.34681042097E+03 -0.92217376883E+03  0.10698721320E+04  0.00000000000E+00 0. -1.
          1    1    6    6  503    0 -0.24313938975E+03 -0.14345231829E+03 -0.93054796956E+03  0.97242730017E+03  0.00000000000E+00 0. -1.
         -1    1    6    6    0  503 -0.85945316887E+02 -0.11476028846E+03 -0.72498240429E+03  0.73902368557E+03  0.00000000000E+00 0.  1.
<mgrwt>
<rscale>  0 0.29878534E+04</rscale>
<asrwt>0</asrwt>
<pdfrwt beam="1">  1        2 0.65910250E+00 0.29878534E+04</pdfrwt>
<pdfrwt beam="2">  1       -1 0.80145457E-01 0.29878534E+04</pdfrwt>
<totfact> 0.29632743E-01</totfact>
</mgrwt>
</event>
<event>
12    7  0.1497947E-008  0.2388153E+04  0.7818608E-02  0.8443952E-01
         -1   -1    0    0    0  501 -0.00000000000E+00  0.00000000000E+00  0.48120341537E+03  0.48120341537E+03  0.00000000000E+00 0.  1.
          2   -1    0    0  501    0  0.00000000000E+00 -0.00000000000E+00 -0.29630274188E+04  0.29630274188E+04  0.00000000000E+00 0. -1.
         24    2    1    2    0    0  0.37841134261E+03  0.65432982797E+03 -0.63938476380E+02  0.76251766373E+03  0.77475097571E+02 0.  0.
        254    2    1    2    0    0 -0.37841134261E+03 -0.65432982797E+03 -0.24178855270E+04  0.26817131704E+04  0.87981386591E+03 0.  0.
         23    2    4    4    0    0 -0.49569037056E+03 -0.64817693758E+03 -0.24069142614E+04  0.25429005992E+04  0.85234440746E+02 0.  0.
         23    2    4    4    0    0  0.11727902795E+03 -0.61528903906E+01 -0.10971265654E+02  0.13881257123E+03  0.73186971560E+02 0.  0.
          4    1    3    3  502    0  0.56187361865E+02  0.12945522857E+03 -0.37682785481E+02  0.14606734118E+03  0.00000000000E+00 0. -1.
         -3    1    3    3    0  502  0.32222398075E+03  0.52487459940E+03 -0.26255690899E+02  0.61645032255E+03  0.00000000000E+00 0.  1.
         13    1    5    5    0    0 -0.33945313856E+03 -0.37986904183E+03 -0.15385659928E+04  0.16207141131E+04  0.00000000000E+00 0. -1.
        -13    1    5    5    0    0 -0.15623723201E+03 -0.26830789575E+03 -0.86834826857E+03  0.92218648608E+03  0.00000000000E+00 0.  1.
          3    1    6    6  503    0  0.67727907630E+02 -0.19602590439E+02  0.26421326915E+02  0.75295534661E+02  0.00000000000E+00 0. -1.
         -3    1    6    6    0  503  0.49551120317E+02  0.13449700048E+02 -0.37392592569E+02  0.63517036574E+02  0.00000000000E+00 0.  1.
<mgrwt>
<rscale>  0 0.23881532E+04</rscale>
<asrwt>0</asrwt>
<pdfrwt beam="1">  1        2 0.45585037E+00 0.23881532E+04</pdfrwt>
<pdfrwt beam="2">  1       -1 0.74031295E-01 0.23881532E+04</pdfrwt>
<totfact> 0.34556397E+00</totfact>
</mgrwt>
</event>
<event>
12    7  0.1497947E-008  0.2931880E+04  0.7818608E-02  0.8263455E-01
          2   -1    0    0  501    0  0.00000000000E+00  0.00000000000E+00  0.28305612232E+04  0.28305612232E+04  0.00000000000E+00 0. -1.
         -3   -1    0    0    0  501 -0.00000000000E+00 -0.00000000000E+00 -0.75920615876E+03  0.75920615876E+03  0.00000000000E+00 0.  1.
         24    2    1    2    0    0  0.11076236876E+03 -0.58766707562E+03 -0.51053378945E+03  0.79010072855E+03  0.77417807955E+02 0.  0.
        254    2    1    2    0    0 -0.11076236876E+03  0.58766707562E+03  0.25818888539E+04  0.27996666534E+04  0.90242031353E+03 0.  0.
         23    2    4    4    0    0 -0.43938923983E+03  0.67071889462E+02  0.97627212787E+03  0.10766208907E+04  0.91889783031E+02 0.  0.
         23    2    4    4    0    0  0.32862687107E+03  0.52059518616E+03  0.16056167260E+04  0.17230457627E+04  0.10893420604E+03 0.  0.
          4    1    3    3  502    0  0.60818946977E+02 -0.14234314090E+03 -0.13730197363E+03  0.20691144491E+03  0.00000000000E+00 0. -1.
         -3    1    3    3    0  502  0.49943421782E+02 -0.44532393472E+03 -0.37323181582E+03  0.58318928364E+03  0.00000000000E+00 0.  1.
         13    1    5    5    0    0 -0.22728511560E+02  0.26731326896E+02  0.83967300446E+02  0.91003607728E+02  0.00000000000E+00 0. -1.
        -13    1    5    5    0    0 -0.41666072827E+03  0.40340562566E+02  0.89230482742E+03  0.98561728298E+03  0.00000000000E+00 0.  1.
          4    1    6    6  503    0  0.24202860116E+03  0.38582629647E+03  0.10438840562E+04  0.11389177747E+04  0.00000000000E+00 0.  1.
         -4    1    6    6    0  503  0.86598269912E+02  0.13476888969E+03  0.56173266981E+03  0.58412798795E+03  0.00000000000E+00 0. -1.
<mgrwt>
<rscale>  0 0.29318796E+04</rscale>
<asrwt>0</asrwt>
<pdfrwt beam="1">  1        2 0.43547095E+00 0.29318796E+04</pdfrwt>
<pdfrwt beam="2">  1       -3 0.11680095E+00 0.29318796E+04</pdfrwt>
<totfact> 0.73504880E-01</totfact>
</mgrwt>
</event>
<event>
11    7  0.1497947E-008  0.3003718E+04  0.7818608E-02  0.8242670E-01
         -1   -1    0    0    0  501 -0.00000000000E+00  0.00000000000E+00  0.14197432881E+04  0.14197432881E+04  0.00000000000E+00 0.  1.
          2   -1    0    0  501    0  0.00000000000E+00 -0.00000000000E+00 -0.15887237224E+04  0.15887237224E+04  0.00000000000E+00 0. -1.
         24    2    1    2    0    0  0.12381488568E+04  0.41059081822E+03  0.33613390724E+03  0.13494987473E+04  0.81015144662E+02 0.  0.
        254    2    1    2    0    0 -0.12381488568E+04 -0.41059081822E+03 -0.50511434158E+03  0.16589682632E+04  0.89187319081E+03 0.  0.
         23    2    4    4    0    0 -0.38274824322E+03 -0.56536161633E+03 -0.15864244832E+03  0.70702919988E+03  0.92697832595E+02 0.  0.
          4    1    3    3  502    0  0.76414497414E+02  0.30172475534E+02  0.41577873080E+02  0.92077539198E+02  0.00000000000E+00 0. -1.
         -1    1    3    3    0  502  0.11617343594E+04  0.38041834269E+03  0.29455603416E+03  0.12574212081E+04  0.00000000000E+00 0.  1.
         13    1    5    5    0    0 -0.56992357307E+02 -0.38342575211E+02 -0.25823829479E+02  0.73383595130E+02  0.00000000000E+00 0. -1.
        -13    1    5    5    0    0 -0.32575588591E+03 -0.52701904112E+03 -0.13281861884E+03  0.63364560475E+03  0.00000000000E+00 0.  1.
          3    1    4    4  503    0 -0.27114856374E+03  0.63586814318E+02 -0.26941595418E+02  0.27980471071E+03  0.00000000000E+00 0. -1.
         -3    1    4    4    0  503 -0.58425204987E+03  0.91183983796E+02 -0.31953029784E+03  0.67213435258E+03  0.00000000000E+00 0.  1.
<mgrwt>
<rscale>  0 0.30037176E+04</rscale>
<asrwt>0</asrwt>
<pdfrwt beam="1">  1        2 0.24441903E+00 0.30037176E+04</pdfrwt>
<pdfrwt beam="2">  1       -1 0.21842204E+00 0.30037176E+04</pdfrwt>
<totfact> 0.12431536E+00</totfact>
</mgrwt>
</event>
<event>
12    7  0.1497947E-008  0.1567158E+04  0.7818608E-02  0.8840982E-01
          2   -1    0    0  501    0  0.00000000000E+00  0.00000000000E+00  0.20029315248E+04  0.20029315248E+04  0.00000000000E+00 0. -1.
         -1   -1    0    0    0  501 -0.00000000000E+00 -0.00000000000E+00 -0.30654875514E+03  0.30654875514E+03  0.00000000000E+00 0.  1.
         24    2    1    2    0    0  0.10132484425E+03  0.11404944331E+03 -0.16352578351E+03  0.23783303207E+03  0.80931265217E+02 0.  0.
        254    2    1    2    0    0 -0.10132484425E+03 -0.11404944331E+03  0.18599085532E+04  0.20716472479E+04  0.89954905028E+03 0.  0.
         23    2    4    4    0    0 -0.32213434578E+03 -0.38271275749E+03  0.13685150972E+04  0.14601651148E+04  0.94915751273E+02 0.  0.
         23    2    4    4    0    0  0.22080950152E+03  0.26866331418E+03  0.49139345596E+03  0.61148213302E+03  0.10726629523E+03 0.  0.
          2    1    3    3  502    0  0.46665467911E+02  0.10220738701E+02 -0.18367451313E+02  0.51180979501E+02  0.00000000000E+00 0. -1.
         -1    1    3    3    0  502  0.54659376344E+02  0.10382870461E+03 -0.14515833219E+03  0.18665205257E+03  0.00000000000E+00 0.  1.
         13    1    5    5    0    0 -0.26351481114E+03 -0.32007926282E+03  0.10154377097E+04  0.10968156328E+04  0.00000000000E+00 0. -1.
        -13    1    5    5    0    0 -0.58619534642E+02 -0.62633494674E+02  0.35307738753E+03  0.36334948202E+03  0.00000000000E+00 0.  1.
          4    1    6    6  503    0  0.18262763178E+03  0.21737779600E+03  0.45924114502E+03  0.53991516682E+03  0.00000000000E+00 0. -1.
         -4    1    6    6    0  503  0.38181869746E+02  0.51285518181E+02  0.32152310939E+02  0.71566966201E+02  0.00000000000E+00 0.  1.
<mgrwt>
<rscale>  0 0.15671581E+04</rscale>
<asrwt>0</asrwt>
<pdfrwt beam="1">  1        2 0.30814330E+00 0.15671581E+04</pdfrwt>
<pdfrwt beam="2">  1       -1 0.47161348E-01 0.15671581E+04</pdfrwt>
<totfact> 0.32693490E+01</totfact>
</mgrwt>
</event>
<event>
11    7  0.1497947E-008  0.1728026E+04  0.7818608E-02  0.8745540E-01
          2   -1    0    0  501    0  0.00000000000E+00  0.00000000000E+00  0.46919694089E+03  0.46919694089E+03  0.00000000000E+00 0. -1.
         -1   -1    0    0    0  501 -0.00000000000E+00 -0.00000000000E+00 -0.15910555106E+04  0.15910555106E+04  0.00000000000E+00 0.  1.
         24    2    1    2    0    0 -0.50120053864E+03 -0.13259736051E+03 -0.83482372338E+03  0.98518164495E+03  0.69772376270E+02 0.  0.
        254    2    1    2    0    0  0.50120053864E+03  0.13259736051E+03 -0.28703484633E+03  0.10750708065E+04  0.89699732225E+03 0.  0.
         23    2    4    4    0    0 -0.21417754135E+03  0.25140674822E+02 -0.20088388528E+03  0.30844666958E+03  0.90999669561E+02 0.  0.
          4    1    3    3  502    0 -0.71378019820E+02  0.49794401559E+00 -0.14438519218E+03  0.16106568034E+03  0.00000000000E+00 0. -1.
         -3    1    3    3    0  502 -0.42982251882E+03 -0.13309530453E+03 -0.69043853120E+03  0.82411596461E+03  0.00000000000E+00 0.  1.
         13    1    5    5    0    0 -0.35403982890E+02  0.34528039328E+02 -0.18269553773E+02  0.52720054053E+02  0.00000000000E+00 0. -1.
        -13    1    5    5    0    0 -0.17877355846E+03 -0.93873645058E+01 -0.18261433150E+03  0.25572661553E+03  0.00000000000E+00 0.  1.
          3    1    4    4  503    0  0.27424869537E+03 -0.73893386681E+02 -0.49030254649E+02  0.28823002165E+03  0.00000000000E+00 0. -1.
         -3    1    4    4    0  503  0.44112938462E+03  0.18135007237E+03 -0.37120706405E+02  0.47839411531E+03  0.00000000000E+00 0.  1.
<mgrwt>
<rscale>  0 0.17280259E+04</rscale>
<asrwt>0</asrwt>
<pdfrwt beam="1">  1        2 0.72184144E-01 0.17280259E+04</pdfrwt>
<pdfrwt beam="2">  1       -1 0.24477777E+00 0.17280259E+04</pdfrwt>
<totfact> 0.54271284E+00</totfact>
</mgrwt>
</event>
<event>
12    7  0.1497947E-008  0.1294126E+04  0.7818608E-02  0.9034236E-01
         -1   -1    0    0    0  501 -0.00000000000E+00  0.00000000000E+00  0.23044251243E+03  0.23044251243E+03  0.00000000000E+00 0.  1.
          2   -1    0    0  501    0  0.00000000000E+00 -0.00000000000E+00 -0.18168981083E+04  0.18168981083E+04  0.00000000000E+00 0. -1.
         24    2    1    2    0    0  0.16379742401E+03  0.27050442979E+03 -0.24894955993E+03  0.41035034605E+03  0.80057981897E+02 0.  0.
        254    2    1    2    0    0 -0.16379742401E+03 -0.27050442979E+03 -0.13375060359E+04  0.16369902746E+04  0.88927640278E+03 0.  0.
         23    2    4    4    0    0 -0.42572674694E+03  0.10833448721E+03 -0.79631908489E+03  0.91507431111E+03  0.10127825889E+03 0.  0.
         23    2    4    4    0    0  0.26192932293E+03 -0.37883891700E+03 -0.54118695101E+03  0.72191596353E+03  0.12709621239E+03 0.  0.
          2    1    3    3  502    0  0.15521839553E+03  0.21675074731E+03 -0.23180401131E+03  0.35327996891E+03  0.00000000000E+00 0. -1.
         -1    1    3    3    0  502  0.85790284723E+01  0.53753682476E+02 -0.17145548620E+02  0.57070377138E+02  0.00000000000E+00 0.  1.
         13    1    5    5    0    0 -0.66068352464E+02  0.87148649688E+01 -0.20758058575E+03  0.21801531059E+03  0.00000000000E+00 0.  1.
        -13    1    5    5    0    0 -0.35965839448E+03  0.99619622237E+02 -0.58873849914E+03  0.69705900053E+03  0.00000000000E+00 0. -1.
          1    1    6    6  503    0  0.18168695132E+03 -0.32829909412E+03 -0.37444933904E+03  0.53009692603E+03  0.00000000000E+00 0. -1.
         -1    1    6    6    0  503  0.80242371612E+02 -0.50539822873E+02 -0.16673761198E+03  0.19181903750E+03  0.00000000000E+00 0.  1.
<mgrwt>
<rscale>  0 0.12941261E+04</rscale>
<asrwt>0</asrwt>
<pdfrwt beam="1">  1        2 0.27952280E+00 0.12941261E+04</pdfrwt>
<pdfrwt beam="2">  1       -1 0.35452693E-01 0.12941261E+04</pdfrwt>
<totfact> 0.71540306E+01</totfact>
</mgrwt>
</event>
<event>
12    7  0.1497947E-008  0.1458697E+04  0.7818608E-02  0.8912393E-01
         -1   -1    0    0    0  501 -0.00000000000E+00  0.00000000000E+00  0.15513800195E+03  0.15513800195E+03  0.00000000000E+00 0.  1.
          2   -1    0    0  501    0  0.00000000000E+00 -0.00000000000E+00 -0.34288777832E+04  0.34288777832E+04  0.00000000000E+00 0. -1.
         24    2    1    2    0    0 -0.16050342156E+03  0.40968329136E+03 -0.81713229347E+03  0.93154852018E+03  0.80471814049E+02 0.  0.
        254    2    1    2    0    0  0.16050342156E+03 -0.40968329136E+03 -0.24566074878E+04  0.26524672650E+04  0.89836545749E+03 0.  0.
         23    2    4    4    0    0 -0.21473516058E+03 -0.39119298204E+03 -0.58999422315E+03  0.74547155529E+03  0.92149433069E+02 0.  0.
         23    2    4    4    0    0  0.37523858214E+03 -0.18490309329E+02 -0.18666132646E+04  0.19069957097E+04  0.10602675139E+03 0.  0.
          2    1    3    3  502    0 -0.48073946637E+02  0.45742278139E+02 -0.11741862401E+03  0.13487250876E+03  0.00000000000E+00 0. -1.
         -1    1    3    3    0  502 -0.11242947493E+03  0.36394101323E+03 -0.69971366946E+03  0.79667601142E+03  0.00000000000E+00 0.  1.
         13    1    5    5    0    0 -0.10646395725E+03 -0.22578100892E+03 -0.39856565558E+03  0.47028312748E+03  0.00000000000E+00 0. -1.
        -13    1    5    5    0    0 -0.10827120333E+03 -0.16541197311E+03 -0.19142856757E+03  0.27518842781E+03  0.00000000000E+00 0.  1.
          2    1    6    6  503    0  0.11038095762E+03  0.15072498659E+02 -0.35773167142E+03  0.37467730750E+03  0.00000000000E+00 0. -1.
         -2    1    6    6    0  503  0.26485762452E+03 -0.33562807988E+02 -0.15088815932E+04  0.15323184022E+04  0.00000000000E+00 0.  1.
<mgrwt>
<rscale>  0 0.14586970E+04</rscale>
<asrwt>0</asrwt>
<pdfrwt beam="1">  1        2 0.52751960E+00 0.14586970E+04</pdfrwt>
<pdfrwt beam="2">  1       -1 0.23867387E-01 0.14586970E+04</pdfrwt>
<totfact> 0.15463570E+01</totfact>
</mgrwt>
</event>
<event>
11    7  0.1497947E-008  0.2231881E+04  0.7818608E-02  0.8505274E-01
          2   -1    0    0  501    0  0.00000000000E+00  0.00000000000E+00  0.11633835435E+04  0.11633835435E+04  0.00000000000E+00 0. -1.
         -1   -1    0    0    0  501 -0.00000000000E+00 -0.00000000000E+00 -0.10704324567E+04  0.10704324567E+04  0.00000000000E+00 0.  1.
         24    2    1    2    0    0 -0.99565198680E+02 -0.17753808919E+03 -0.87196375300E+03  0.89892812397E+03  0.79485744799E+02 0.  0.
        254    2    1    2    0    0  0.99565198680E+02  0.17753808919E+03  0.96491483976E+03  0.13348878762E+04  0.89968438480E+03 0.  0.
         23    2    4    4    0    0 -0.20382931381E+03  0.36885548415E+03  0.81820330926E+03  0.92499951958E+03  0.92556461512E+02 0.  0.
          2    1    3    3  502    0 -0.14674451420E+02 -0.51328068910E+02 -0.11436336362E+03  0.12620970296E+03  0.00000000000E+00 0. -1.
         -1    1    3    3    0  502 -0.84890747260E+02 -0.12621002028E+03 -0.75760038937E+03  0.77271842101E+03  0.00000000000E+00 0.  1.
         13    1    5    5    0    0 -0.15686566118E+03  0.30399390220E+03  0.72809031048E+03  0.80444678410E+03  0.00000000000E+00 0. -1.
        -13    1    5    5    0    0 -0.46963652622E+02  0.64861581950E+02  0.90112998788E+02  0.12055273548E+03  0.00000000000E+00 0.  1.
          2    1    4    4  503    0  0.23622350336E+02  0.16495771442E+02 -0.59324743451E+01  0.29416324766E+02  0.00000000000E+00 0.  1.
         -2    1    4    4    0  503  0.27977216215E+03 -0.20781316640E+03  0.15264400484E+03  0.38047203190E+03  0.00000000000E+00 0. -1.
<mgrwt>
<rscale>  0 0.22318813E+04</rscale>
<asrwt>0</asrwt>
<pdfrwt beam="1">  1        2 0.17898208E+00 0.22318813E+04</pdfrwt>
<pdfrwt beam="2">  1       -1 0.16468192E+00 0.22318813E+04</pdfrwt>
<totfact> 0.55807585E+00</totfact>
</mgrwt>
</event>
<event>
12    7  0.1497947E-008  0.1056064E+04  0.7818608E-02  0.9249106E-01
          2   -1    0    0  501    0  0.00000000000E+00  0.00000000000E+00  0.13755118442E+04  0.13755118442E+04  0.00000000000E+00 0. -1.
         -1   -1    0    0    0  501 -0.00000000000E+00 -0.00000000000E+00 -0.20270094946E+03  0.20270094946E+03  0.00000000000E+00 0.  1.
         24    2    1    2    0    0  0.68302874902E+02 -0.39273474717E+02  0.15233668067E+02  0.11272335307E+03  0.79163129986E+02 0.  0.
        254    2    1    2    0    0 -0.68302874902E+02  0.39273474717E+02  0.11575772267E+04  0.14654894406E+04  0.89524665664E+03 0.  0.
         23    2    4    4    0    0 -0.21843232069E+03  0.41000808061E+03  0.72741961382E+03  0.86822240609E+03  0.94082660374E+02 0.  0.
         23    2    4    4    0    0  0.15012944579E+03 -0.37073460589E+03  0.43015761286E+03  0.59726703451E+03  0.10820970432E+03 0.  0.
          4    1    3    3  502    0  0.38741761033E+02 -0.14422760852E+02  0.47089928610E+02  0.62661004261E+02  0.00000000000E+00 0. -1.
         -3    1    3    3    0  502  0.29561113869E+02 -0.24850713866E+02 -0.31856260543E+02  0.50062348812E+02  0.00000000000E+00 0.  1.
         13    1    5    5    0    0 -0.15512023313E+03  0.28213937281E+03  0.41918836687E+03  0.52856768662E+03  0.00000000000E+00 0. -1.
        -13    1    5    5    0    0 -0.63312087560E+02  0.12786870780E+03  0.30823124695E+03  0.33965471948E+03  0.00000000000E+00 0.  1.
          2    1    6    6  503    0  0.26084309642E+02 -0.18210856464E+03  0.23792919036E+03  0.30075608082E+03  0.00000000000E+00 0.  1.
         -2    1    6    6    0  503  0.12404513614E+03 -0.18862604125E+03  0.19222842250E+03  0.29651095369E+03  0.00000000000E+00 0. -1.
<mgrwt>
<rscale>  0 0.10560636E+04</rscale>
<asrwt>0</asrwt>
<pdfrwt beam="1">  1        2 0.21161720E+00 0.10560636E+04</pdfrwt>
<pdfrwt beam="2">  1       -1 0.31184762E-01 0.10560636E+04</pdfrwt>
<totfact> 0.16140175E+02</totfact>
</mgrwt>
</event>
<event>
12    7  0.1497947E-008  0.1512136E+04  0.7818608E-02  0.8876422E-01
          2   -1    0    0  501    0  0.00000000000E+00  0.00000000000E+00  0.39900333892E+03  0.39900333892E+03  0.00000000000E+00 0. -1.
         -1   -1    0    0    0  501 -0.00000000000E+00 -0.00000000000E+00 -0.14326675105E+04  0.14326675105E+04  0.00000000000E+00 0.  1.
         24    2    1    2    0    0  0.45027902541E+03 -0.15844368278E+03 -0.20425261878E+03  0.52544265173E+03  0.80717077732E+02 0.  0.
        254    2    1    2    0    0 -0.45027902541E+03  0.15844368278E+03 -0.82941155280E+03  0.13062281977E+04  0.88907422593E+03 0.  0.
         23    2    4    4    0    0 -0.46704863004E+03  0.30371137578E+03 -0.95157502713E+03  0.11063858001E+04  0.90661368507E+02 0.  0.
         23    2    4    4    0    0  0.16769604633E+02 -0.14526769300E+03  0.12216347433E+03  0.19984239763E+03  0.60242403350E+02 0.  0.
          4    1    3    3  502    0  0.75135431116E+01 -0.15755623600E+02 -0.17181211044E+00  0.17456303289E+02  0.00000000000E+00 0. -1.
         -3    1    3    3    0  502  0.44276548230E+03 -0.14268805918E+03 -0.20408080667E+03  0.50798634844E+03  0.00000000000E+00 0.  1.
         13    1    5    5    0    0 -0.66549540567E+02  0.91585182323E+01 -0.12056281604E+03  0.13801489926E+03  0.00000000000E+00 0.  1.
        -13    1    5    5    0    0 -0.40049908948E+03  0.29455285755E+03 -0.83101221109E+03  0.96837090081E+03  0.00000000000E+00 0. -1.
          2    1    6    6  503    0  0.11995847553E+02 -0.10860992942E+03  0.12074529752E+03  0.16284791678E+03  0.00000000000E+00 0. -1.
         -2    1    6    6    0  503  0.47737570795E+01 -0.36657763584E+02  0.14181768027E+01  0.36994480846E+02  0.00000000000E+00 0.  1.
<mgrwt>
<rscale>  0 0.15121364E+04</rscale>
<asrwt>0</asrwt>
<pdfrwt beam="1">  1        2 0.61385129E-01 0.15121364E+04</pdfrwt>
<pdfrwt beam="2">  1       -1 0.22041039E+00 0.15121364E+04</pdfrwt>
<totfact> 0.96304107E+00</totfact>
</mgrwt>
</event>
<event>
12    7  0.1497947E-008  0.1702394E+04  0.7818608E-02  0.8760000E-01
         -1   -1    0    0    0  501 -0.00000000000E+00  0.00000000000E+00  0.26951252520E+03  0.26951252520E+03  0.00000000000E+00 0.  1.
          2   -1    0    0  501    0  0.00000000000E+00 -0.00000000000E+00 -0.26883205883E+04  0.26883205883E+04  0.00000000000E+00 0. -1.
         24    2    1    2    0    0  0.19816165949E+03  0.56738799108E+03 -0.87983865131E+03  0.10686358520E+04  0.81666125625E+02 0.  0.
        254    2    1    2    0    0 -0.19816165949E+03 -0.56738799108E+03 -0.15389694118E+04  0.18891972615E+04  0.91621082007E+03 0.  0.
         23    2    4    4    0    0  0.34547498187E+03 -0.34006426102E+03 -0.60160764298E+03  0.77934220546E+03  0.10220495290E+03 0.  0.
         23    2    4    4    0    0 -0.54363664136E+03 -0.22732373007E+03 -0.93736176882E+03  0.11098550561E+04  0.76904380692E+02 0.  0.
          2    1    3    3  502    0  0.48684520794E+02  0.20847405765E+03 -0.25798090303E+03  0.33523985682E+03  0.00000000000E+00 0. -1.
         -1    1    3    3    0  502  0.14947713869E+03  0.35891393344E+03 -0.62185774829E+03  0.73339599515E+03  0.00000000000E+00 0.  1.
         13    1    5    5    0    0  0.43159197406E+02 -0.80427067219E+02 -0.16238710766E+03  0.18628151330E+03  0.00000000000E+00 0.  1.
        -13    1    5    5    0    0  0.30231578447E+03 -0.25963719380E+03 -0.43922053532E+03  0.59306069216E+03  0.00000000000E+00 0. -1.
          4    1    6    6  503    0 -0.27391406287E+03 -0.15485841695E+03 -0.51423109552E+03  0.60286288883E+03  0.00000000000E+00 0. -1.
         -4    1    6    6    0  503 -0.26972257849E+03 -0.72465313116E+02 -0.42313067331E+03  0.50699216725E+03  0.00000000000E+00 0.  1.
<mgrwt>
<rscale>  0 0.17023937E+04</rscale>
<asrwt>0</asrwt>
<pdfrwt beam="1">  1        2 0.41358780E+00 0.17023937E+04</pdfrwt>
<pdfrwt beam="2">  1       -1 0.41463464E-01 0.17023937E+04</pdfrwt>
<totfact> 0.16709819E+01</totfact>
</mgrwt>
</event>
<event>
12    7  0.1497947E-008  0.3381766E+04  0.7818608E-02  0.8142396E-01
          2   -1    0    0  501    0  0.00000000000E+00  0.00000000000E+00  0.36721388862E+04  0.36721388862E+04  0.00000000000E+00 0. -1.
         -1   -1    0    0    0  501 -0.00000000000E+00 -0.00000000000E+00 -0.77858875110E+03  0.77858875110E+03  0.00000000000E+00 0.  1.
         24    2    1    2    0    0 -0.32894590318E+03 -0.45134384805E+03  0.32695728694E+04  0.33179423563E+04  0.81963741518E+02 0.  0.
        254    2    1    2    0    0  0.32894590318E+03  0.45134384805E+03 -0.37602273429E+03  0.11327852810E+04  0.91098447836E+03 0.  0.
         23    2    4    4    0    0  0.35297658077E+03 -0.33688780535E+01 -0.52721853391E+03  0.64088322896E+03  0.90377623108E+02 0.  0.
         23    2    4    4    0    0 -0.24030677595E+02  0.45471272610E+03  0.15119579961E+03  0.49190205206E+03  0.10847267979E+03 0.  0.
          4    1    3    3  502    0 -0.32918516081E+03 -0.42464064047E+03  0.30830369949E+04  0.31295046982E+04  0.00000000000E+00 0. -1.
         -3    1    3    3    0  502  0.23925762952E+00 -0.26703207578E+02  0.18653587444E+03  0.18843765810E+03  0.00000000000E+00 0.  1.
         13    1    5    5    0    0  0.21385819813E+03  0.38378965712E+02 -0.34712249308E+03  0.40951471172E+03  0.00000000000E+00 0. -1.
        -13    1    5    5    0    0  0.13911838264E+03 -0.41747843766E+02 -0.18009604083E+03  0.23136851724E+03  0.00000000000E+00 0.  1.
          2    1    6    6  503    0  0.11530044250E+02  0.16123425900E+02  0.29169394667E+02  0.35266986948E+02  0.00000000000E+00 0. -1.
         -2    1    6    6    0  503 -0.35560721846E+02  0.43858930020E+03  0.12202640495E+03  0.45663506512E+03  0.00000000000E+00 0.  1.
<mgrwt>
<rscale>  0 0.33817664E+04</rscale>
<asrwt>0</asrwt>
<pdfrwt beam="1">  1        2 0.56494443E+00 0.33817664E+04</pdfrwt>
<pdfrwt beam="2">  1       -1 0.11978289E+00 0.33817664E+04</pdfrwt>
<totfact> 0.35776806E-01</totfact>
</mgrwt>
</event>
<event>
12    7  0.1497947E-008  0.1225088E+04  0.7818608E-02  0.9091176E-01
          2   -1    0    0  501    0  0.00000000000E+00  0.00000000000E+00  0.39191969842E+03  0.39191969842E+03  0.00000000000E+00 0. -1.
         -1   -1    0    0    0  501 -0.00000000000E+00 -0.00000000000E+00 -0.95736527124E+03  0.95736527124E+03  0.00000000000E+00 0.  1.
         24    2    1    2    0    0 -0.36551022073E+03  0.55777300119E+02 -0.28011668304E+03  0.47007518941E+03  0.76134741792E+02 0.  0.
        254    2    1    2    0    0  0.36551022073E+03 -0.55777300119E+02 -0.28532888978E+03  0.87920978026E+03  0.74490833912E+03 0.  0.
         23    2    4    4    0    0  0.18163049969E+03 -0.96922481980E+01 -0.51658712726E+03  0.55528552662E+03  0.91630660383E+02 0.  0.
         23    2    4    4    0    0  0.18387972104E+03 -0.46085051921E+02  0.23125823748E+03  0.32392425364E+03  0.12454302821E+03 0.  0.
          4    1    3    3  502    0 -0.34860804038E+02 -0.10866807413E+02 -0.97564197357E+01  0.37796175568E+02  0.00000000000E+00 0. -1.
         -3    1    3    3    0  502 -0.33064941669E+03  0.66644107532E+02 -0.27036026331E+03  0.43227901384E+03  0.00000000000E+00 0.  1.
         13    1    5    5    0    0  0.17658535661E+03 -0.21717079233E+02 -0.51102143210E+03  0.54110712781E+03  0.00000000000E+00 0. -1.
        -13    1    5    5    0    0  0.50451430816E+01  0.12024831035E+02 -0.55656951642E+01  0.14178398809E+02  0.00000000000E+00 0.  1.
          1    1    6    6  503    0  0.42854952236E+01  0.16001208972E+02  0.78170923175E+02  0.79906804390E+02  0.00000000000E+00 0.  1.
         -1    1    6    6    0  503  0.17959422581E+03 -0.62086260893E+02  0.15308731431E+03  0.24401744925E+03  0.00000000000E+00 0. -1.
<mgrwt>
<rscale>  0 0.12250883E+04</rscale>
<asrwt>0</asrwt>
<pdfrwt beam="1">  1        2 0.60295339E-01 0.12250883E+04</pdfrwt>
<pdfrwt beam="2">  1       -1 0.14728696E+00 0.12250883E+04</pdfrwt>
<totfact> 0.33626963E+01</totfact>
</mgrwt>
</event>
<event>
12    7  0.1497947E-008  0.2623682E+04  0.7818608E-02  0.8360201E-01
          2   -1    0    0  501    0  0.00000000000E+00  0.00000000000E+00  0.95442569471E+03  0.95442569471E+03  0.00000000000E+00 0. -1.
         -1   -1    0    0    0  501 -0.00000000000E+00 -0.00000000000E+00 -0.18031017949E+04  0.18031017949E+04  0.00000000000E+00 0.  1.
         24    2    1    2    0    0 -0.46246742290E+03 -0.41609017260E+03 -0.13979857692E+04  0.15322167553E+04  0.79478458683E+02 0.  0.
        254    2    1    2    0    0  0.46246742290E+03  0.41609017260E+03  0.54930966898E+03  0.12253107343E+04  0.90146443869E+03 0.  0.
         23    2    4    4    0    0 -0.16282059501E+03  0.25745011496E+03 -0.69070565387E+02  0.32537899572E+03  0.91157226798E+02 0.  0.
         23    2    4    4    0    0  0.62528801790E+03  0.15864005764E+03  0.61838023437E+03  0.89993173860E+03  0.10644832860E+03 0.  0.
          2    1    3    3  502    0 -0.23254776688E+03 -0.25430913211E+03 -0.71834459429E+03  0.79672489273E+03  0.00000000000E+00 0. -1.
         -1    1    3    3    0  502 -0.22991965602E+03 -0.16178104049E+03 -0.67964117491E+03  0.73549186258E+03  0.00000000000E+00 0.  1.
         13    1    5    5    0    0 -0.79696771034E+02  0.49012086145E+02 -0.20055574715E+02  0.95686916445E+02  0.00000000000E+00 0. -1.
        -13    1    5    5    0    0 -0.83123823974E+02  0.20843802882E+03 -0.49014990672E+02  0.22969207927E+03  0.00000000000E+00 0.  1.
          1    1    6    6  503    0  0.41691234644E+03  0.14586387322E+03  0.37618757596E+03  0.58018037404E+03  0.00000000000E+00 0. -1.
         -1    1    6    6    0  503  0.20837567147E+03  0.12776184424E+02  0.24219265841E+03  0.31975136456E+03  0.00000000000E+00 0.  1.
<mgrwt>
<rscale>  0 0.26236819E+04</rscale>
<asrwt>0</asrwt>
<pdfrwt beam="1">  1        2 0.14683472E+00 0.26236819E+04</pdfrwt>
<pdfrwt beam="2">  1       -1 0.27740027E+00 0.26236819E+04</pdfrwt>
<totfact> 0.12557729E+00</totfact>
</mgrwt>
</event>
<event>
12    7  0.1497947E-008  0.1974423E+04  0.7818608E-02  0.8618673E-01
          2   -1    0    0  501    0  0.00000000000E+00  0.00000000000E+00  0.15728615010E+04  0.15728615010E+04  0.00000000000E+00 0. -1.
         -1   -1    0    0    0  501 -0.00000000000E+00 -0.00000000000E+00 -0.61962663423E+03  0.61962663423E+03  0.00000000000E+00 0.  1.
         24    2    1    2    0    0 -0.28364268021E+03 -0.33256727953E+02  0.11865118586E+04  0.12253125633E+04  0.10964172198E+03 0.  0.
        254    2    1    2    0    0  0.28364268021E+03  0.33256727953E+02 -0.23327699185E+03  0.96717557191E+03  0.89412037891E+03 0.  0.
         23    2    4    4    0    0 -0.12183220071E+03 -0.33515360889E+03 -0.28860166530E+02  0.36878360431E+03  0.89428244501E+02 0.  0.
         23    2    4    4    0    0  0.40547488092E+03  0.36841033684E+03 -0.20441682532E+03  0.59839196760E+03  0.12708521970E+03 0.  0.
          4    1    3    3  502    0 -0.23112297222E+03 -0.62659794028E+02  0.83396593417E+03  0.86766540638E+03  0.00000000000E+00 0. -1.
         -3    1    3    3    0  502 -0.52519707992E+02  0.29403066075E+02  0.35254592444E+03  0.35764715693E+03  0.00000000000E+00 0.  1.
         13    1    5    5    0    0 -0.11828021627E+03 -0.23397636170E+03  0.44295197556E+01  0.26221130418E+03  0.00000000000E+00 0.  1.
        -13    1    5    5    0    0 -0.35519844462E+01 -0.10117724719E+03 -0.33289686286E+02  0.10657230013E+03  0.00000000000E+00 0. -1.
          3    1    6    6  503    0 -0.66161814007E+01 -0.32955707517E+01 -0.18985163935E+01  0.76314485783E+01  0.00000000000E+00 0. -1.
         -3    1    6    6    0  503  0.41209106232E+03  0.37170590759E+03 -0.20251830892E+03  0.59076051902E+03  0.00000000000E+00 0.  1.
<mgrwt>
<rscale>  0 0.19744233E+04</rscale>
<asrwt>0</asrwt>
<pdfrwt beam="1">  1        2 0.24197869E+00 0.19744233E+04</pdfrwt>
<pdfrwt beam="2">  1       -1 0.95327175E-01 0.19744233E+04</pdfrwt>
<totfact> 0.13014922E+01</totfact>
</mgrwt>
</event>
<event>
12    7  0.1497947E-008  0.2585282E+04  0.7818608E-02  0.8373218E-01
          2   -1    0    0  501    0  0.00000000000E+00  0.00000000000E+00  0.33898377955E+04  0.33898377955E+04  0.00000000000E+00 0. -1.
         -1   -1    0    0    0  501 -0.00000000000E+00 -0.00000000000E+00 -0.49292048548E+03  0.49292048548E+03  0.00000000000E+00 0.  1.
         24    2    1    2    0    0  0.67518756718E+03 -0.75430300932E+03  0.20375970989E+04  0.22766336708E+04  0.80047816983E+02 0.  0.
        254    2    1    2    0    0 -0.67518756718E+03  0.75430300932E+03  0.85932021114E+03  0.16061246102E+04  0.90352297003E+03 0.  0.
         23    2    4    4    0    0 -0.86106135203E+03  0.69297816996E+03  0.59444481395E+03  0.12584280205E+04  0.92903444127E+02 0.  0.
         23    2    4    4    0    0  0.18587378485E+03  0.61324839352E+02  0.26487539719E+03  0.34769658968E+03  0.11146363811E+03 0.  0.
          2    1    3    3  502    0  0.64324456569E+03 -0.73074528743E+03  0.19835840674E+04  0.22096058469E+04  0.00000000000E+00 0. -1.
         -1    1    3    3    0  502  0.31943001495E+02 -0.23557721891E+02  0.54013031530E+02  0.67027823926E+02  0.00000000000E+00 0.  1.
         13    1    5    5    0    0 -0.63660668337E+03  0.55662473781E+03  0.43155368130E+03  0.94938809129E+03  0.00000000000E+00 0. -1.
        -13    1    5    5    0    0 -0.22445466866E+03  0.13635343216E+03  0.16289113265E+03  0.30903992920E+03  0.00000000000E+00 0.  1.
          4    1    6    6  503    0  0.16982343094E+03  0.27343116946E+02  0.25707499220E+03  0.30931407235E+03  0.00000000000E+00 0. -1.
         -4    1    6    6    0  503  0.16050353901E+02  0.33981722406E+02  0.78004049948E+01  0.38382517324E+02  0.00000000000E+00 0.  1.
<mgrwt>
<rscale>  0 0.25852818E+04</rscale>
<asrwt>0</asrwt>
<pdfrwt beam="1">  1        2 0.52151349E+00 0.25852818E+04</pdfrwt>
<pdfrwt beam="2">  1       -1 0.75833923E-01 0.25852818E+04</pdfrwt>
<totfact> 0.17050666E+00</totfact>
</mgrwt>
</event>
<event>
12    7  0.1497947E-008  0.1546354E+04  0.7818608E-02  0.8854200E-01
         -1   -1    0    0    0  501 -0.00000000000E+00  0.00000000000E+00  0.60555012629E+03  0.60555012629E+03  0.00000000000E+00 0.  1.
          2   -1    0    0  501    0  0.00000000000E+00 -0.00000000000E+00 -0.98720645348E+03  0.98720645348E+03  0.00000000000E+00 0. -1.
         24    2    1    2    0    0 -0.45864517572E+01 -0.14293037787E+03  0.37686386602E+03  0.41120979952E+03  0.81344927657E+02 0.  0.
        254    2    1    2    0    0  0.45864517572E+01  0.14293037787E+03 -0.75852019321E+03  0.11815467802E+04  0.89456681245E+03 0.  0.
         23    2    4    4    0    0 -0.31249544033E+03 -0.23222562826E+03 -0.25359722849E+03  0.47355483841E+03  0.91435704345E+02 0.  0.
         23    2    4    4    0    0  0.31708189209E+03  0.37515600613E+03 -0.50492296473E+03  0.70799194184E+03  0.70869134112E+02 0.  0.
          2    1    3    3  502    0 -0.10049875988E+02 -0.48789611874E+00  0.93218633470E+02  0.93760075064E+02  0.00000000000E+00 0. -1.
         -1    1    3    3    0  502  0.54634242303E+01 -0.14244248175E+03  0.28364523255E+03  0.31744972446E+03  0.00000000000E+00 0.  1.
         13    1    5    5    0    0 -0.30656389118E+01 -0.19721161115E+02 -0.31821584393E+02  0.37562422325E+02  0.00000000000E+00 0. -1.
        -13    1    5    5    0    0 -0.30942980142E+03 -0.21250446715E+03 -0.22177564409E+03  0.43599241608E+03  0.00000000000E+00 0.  1.
          4    1    6    6  503    0  0.17480696513E+02  0.50056581641E+02 -0.39908965261E+02  0.66362350956E+02  0.00000000000E+00 0. -1.
         -4    1    6    6    0  503  0.29960119558E+03  0.32509942449E+03 -0.46501399947E+03  0.64162959088E+03  0.00000000000E+00 0.  1.
<mgrwt>
<rscale>  0 0.15463544E+04</rscale>
<asrwt>0</asrwt>
<pdfrwt beam="1">  1        2 0.15187792E+00 0.15463544E+04</pdfrwt>
<pdfrwt beam="2">  1       -1 0.93161558E-01 0.15463544E+04</pdfrwt>
<totfact> 0.31558448E+01</totfact>
</mgrwt>
</event>
<event>
12    7  0.1497947E-008  0.1888322E+04  0.7818608E-02  0.8660691E-01
          2   -1    0    0  501    0  0.00000000000E+00  0.00000000000E+00  0.84570023287E+03  0.84570023287E+03  0.00000000000E+00 0. -1.
         -1   -1    0    0    0  501 -0.00000000000E+00 -0.00000000000E+00 -0.10540854674E+04  0.10540854674E+04  0.00000000000E+00 0.  1.
         24    2    1    2    0    0 -0.59267613930E+03  0.10967984102E+03  0.32609197231E+03  0.69129087185E+03  0.90842839433E+02 0.  0.
        254    2    1    2    0    0  0.59267613930E+03 -0.10967984102E+03 -0.53447720681E+03  0.12084948284E+04  0.90083249943E+03 0.  0.
         23    2    4    4    0    0  0.65594355578E+03  0.21091921883E+03 -0.51174725104E+03  0.86266606407E+03  0.86940346881E+02 0.  0.
         23    2    4    4    0    0 -0.63267416478E+02 -0.32059905985E+03 -0.22729955769E+02  0.34582876432E+03  0.11087993586E+03 0.  0.
          2    1    3    3  502    0 -0.58944933191E+03  0.10071368404E+03  0.32727092263E+03  0.68168909177E+03  0.00000000000E+00 0. -1.
         -1    1    3    3    0  502 -0.32268073913E+01  0.89661569725E+01 -0.11789503207E+01  0.96017800774E+01  0.00000000000E+00 0.  1.
         13    1    5    5    0    0  0.65511638725E+03  0.20380609375E+03 -0.50015493787E+03  0.84904026205E+03  0.00000000000E+00 0. -1.
        -13    1    5    5    0    0  0.82716852095E+00  0.71131250826E+01 -0.11592313168E+02  0.13625802024E+02  0.00000000000E+00 0.  1.
          2    1    6    6  503    0 -0.48966493685E+02 -0.29154044655E+03  0.15124080729E+02  0.29601062025E+03  0.00000000000E+00 0. -1.
         -2    1    6    6    0  503 -0.14300922794E+02 -0.29058613294E+02 -0.37854036498E+02  0.49818144069E+02  0.00000000000E+00 0.  1.
<mgrwt>
<rscale>  0 0.18883224E+04</rscale>
<asrwt>0</asrwt>
<pdfrwt beam="1">  1        2 0.13010773E+00 0.18883224E+04</pdfrwt>
<pdfrwt beam="2">  1       -1 0.16216699E+00 0.18883224E+04</pdfrwt>
<totfact> 0.96225364E+00</totfact>
</mgrwt>
</event>
<event>
11    7  0.1497947E-008  0.1431068E+04  0.7818608E-02  0.8931632E-01
          2   -1    0    0  501    0  0.00000000000E+00  0.00000000000E+00  0.73039085203E+03  0.73039085203E+03  0.00000000000E+00 0. -1.
         -1   -1    0    0    0  501 -0.00000000000E+00 -0.00000000000E+00 -0.70097916264E+03  0.70097916264E+03  0.00000000000E+00 0.  1.
         24    2    1    2    0    0  0.26087485065E+03  0.21424255028E+03 -0.23735537348E+03  0.42035931721E+03  0.80055132195E+02 0.  0.
        254    2    1    2    0    0 -0.26087485065E+03 -0.21424255028E+03  0.26676706287E+03  0.10110106975E+04  0.91488928648E+03 0.  0.
         23    2    4    4    0    0 -0.36478053843E+03 -0.47351342765E+03  0.24426397418E+02  0.60673575463E+03  0.10125127002E+03 0.  0.
          2    1    3    3  502    0  0.18389328168E+03  0.10427429763E+03 -0.12724934958E+03  0.24674331838E+03  0.00000000000E+00 0. -1.
         -1    1    3    3    0  502  0.76981568971E+02  0.10996825265E+03 -0.11010602389E+03  0.17361599883E+03  0.00000000000E+00 0.  1.
         13    1    5    5    0    0 -0.21296575110E+03 -0.19461131923E+03  0.37027186754E+01  0.28851635454E+03  0.00000000000E+00 0. -1.
        -13    1    5    5    0    0 -0.15181478733E+03 -0.27890210842E+03  0.20723678743E+02  0.31821940009E+03  0.00000000000E+00 0.  1.
          1    1    4    4  503    0  0.90185480492E+02  0.10726928973E+03  0.30903810542E+02  0.14351016311E+03  0.00000000000E+00 0. -1.
         -1    1    4    4    0  503  0.13720207284E+02  0.15200158764E+03  0.21143685491E+03  0.26076477972E+03  0.00000000000E+00 0.  1.
<mgrwt>
<rscale>  0 0.14310678E+04</rscale>
<asrwt>0</asrwt>
<pdfrwt beam="1">  1        2 0.11236782E+00 0.14310678E+04</pdfrwt>
<pdfrwt beam="2">  1       -1 0.10784295E+00 0.14310678E+04</pdfrwt>
<totfact> 0.34433094E+01</totfact>
</mgrwt>
</event>
<event>
12    7  0.1497947E-008  0.3046398E+04  0.7818608E-02  0.8230605E-01
         -1   -1    0    0    0  501 -0.00000000000E+00  0.00000000000E+00  0.11997245320E+04  0.11997245320E+04  0.00000000000E+00 0.  1.
          2   -1    0    0  501    0  0.00000000000E+00 -0.00000000000E+00 -0.19338894311E+04  0.19338894311E+04  0.00000000000E+00 0. -1.
         24    2    1    2    0    0  0.17669080267E+03 -0.16999772292E+03 -0.17422334448E+04  0.17612358988E+04  0.80347058428E+02 0.  0.
        254    2    1    2    0    0 -0.17669080267E+03  0.16999772292E+03  0.10080685456E+04  0.13723780642E+04  0.89838771860E+03 0.  0.
         23    2    4    4    0    0  0.10682738001E+03  0.12283377814E+03  0.10555845997E+04  0.10718917515E+04  0.90514384246E+02 0.  0.
         23    2    4    4    0    0 -0.28351818268E+03  0.47163944784E+02 -0.47516054067E+02  0.30048631268E+03  0.73669879305E+02 0.  0.
          2    1    3    3  502    0  0.17717837306E+03 -0.16159143523E+03 -0.15162340771E+04  0.15350797192E+04  0.00000000000E+00 0. -1.
         -1    1    3    3    0  502 -0.48757038955E+00 -0.84062876928E+01 -0.22599936768E+03  0.22615617964E+03  0.00000000000E+00 0.  1.
         13    1    5    5    0    0  0.48468391992E+02  0.36271201016E+02  0.65975226619E+03  0.66252383941E+03  0.00000000000E+00 0.  1.
        -13    1    5    5    0    0  0.58358988015E+02  0.86562577124E+02  0.39583233350E+03  0.40936791214E+03  0.00000000000E+00 0. -1.
          3    1    6    6  503    0 -0.16156163999E+01 -0.42376794932E-01 -0.12405340188E+02  0.12510174952E+02  0.00000000000E+00 0. -1.
         -3    1    6    6    0  503 -0.28190256628E+03  0.47206321579E+02 -0.35110713879E+02  0.28797613773E+03  0.00000000000E+00 0.  1.
<mgrwt>
<rscale>  0 0.30463976E+04</rscale>
<asrwt>0</asrwt>
<pdfrwt beam="1">  1        2 0.29752145E+00 0.30463976E+04</pdfrwt>
<pdfrwt beam="2">  1       -1 0.18457300E+00 0.30463976E+04</pdfrwt>
<totfact> 0.13616319E+00</totfact>
</mgrwt>
</event>
<event>
11    7  0.1497947E-008  0.1276096E+04  0.7818608E-02  0.9048739E-01
         -1   -1    0    0    0  501 -0.00000000000E+00  0.00000000000E+00  0.17479248915E+04  0.17479248915E+04  0.00000000000E+00 0.  1.
          2   -1    0    0  501    0  0.00000000000E+00 -0.00000000000E+00 -0.23290791569E+03  0.23290791569E+03  0.00000000000E+00 0. -1.
         24    2    1    2    0    0  0.16519298688E+03 -0.23042926896E+03  0.60156169538E+03  0.67008131171E+03  0.82134767534E+02 0.  0.
        254    2    1    2    0    0 -0.16519298688E+03  0.23042926896E+03  0.91345528046E+03  0.13107514955E+04  0.89626032083E+03 0.  0.
         23    2    4    4    0    0 -0.21000265774E+03 -0.28831604836E+03  0.21423170553E+03  0.42669089271E+03  0.94565502508E+02 0.  0.
          2    1    3    3  502    0  0.10518892499E+02 -0.88134629832E-01  0.40107463874E+01  0.11257928482E+02  0.00000000000E+00 0. -1.
         -1    1    3    3    0  502  0.15467409438E+03 -0.23034113433E+03  0.59755094900E+03  0.65882338322E+03  0.00000000000E+00 0.  1.
         13    1    5    5    0    0 -0.72487894224E+02 -0.36853769187E+02  0.61295298976E+02  0.10183225810E+03  0.00000000000E+00 0. -1.
        -13    1    5    5    0    0 -0.13751476352E+03 -0.25146227917E+03  0.15293640655E+03  0.32485863461E+03  0.00000000000E+00 0.  1.
          1    1    4    4  503    0  0.61879786044E+02  0.76833058706E+02  0.13331705895E+03  0.16584892233E+03  0.00000000000E+00 0. -1.
         -1    1    4    4    0  503 -0.17070115180E+02  0.44191225861E+03  0.56590651598E+03  0.71821168047E+03  0.00000000000E+00 0.  1.
<mgrwt>
<rscale>  0 0.12760965E+04</rscale>
<asrwt>0</asrwt>
<pdfrwt beam="1">  1        2 0.35831988E-01 0.12760965E+04</pdfrwt>
<pdfrwt beam="2">  1       -1 0.26891151E+00 0.12760965E+04</pdfrwt>
<totfact> 0.86391928E+00</totfact>
</mgrwt>
</event>
<event>
11    7  0.1497947E-008  0.1268230E+04  0.7818608E-02  0.9055146E-01
          2   -1    0    0  501    0  0.00000000000E+00  0.00000000000E+00  0.29445689948E+03  0.29445689948E+03  0.00000000000E+00 0. -1.
         -1   -1    0    0    0  501 -0.00000000000E+00 -0.00000000000E+00 -0.13655707046E+04  0.13655707046E+04  0.00000000000E+00 0.  1.
         24    2    1    2    0    0  0.19289730903E+02  0.26473165330E+03 -0.49625516912E+03  0.56875774352E+03  0.82226735020E+02 0.  0.
        254    2    1    2    0    0 -0.19289730903E+02 -0.26473165330E+03 -0.57485863596E+03  0.10912698605E+04  0.88879272903E+03 0.  0.
         23    2    4    4    0    0 -0.28167129164E+03  0.19018684613E+03 -0.35357787374E+03  0.49900725945E+03  0.92093317949E+02 0.  0.
          2    1    3    3  502    0  0.20103851469E+02  0.96247919020E+02 -0.11109045326E+03  0.14835402106E+03  0.00000000000E+00 0. -1.
         -1    1    3    3    0  502 -0.81412056620E+00  0.16848373428E+03 -0.38516471586E+03  0.42040372246E+03  0.00000000000E+00 0.  1.
         13    1    5    5    0    0 -0.23043643766E+02  0.52455473300E+02 -0.40261616160E+02  0.70025594842E+02  0.00000000000E+00 0.  1.
        -13    1    5    5    0    0 -0.25862764787E+03  0.13773137283E+03 -0.31331625758E+03  0.42898166461E+03  0.00000000000E+00 0. -1.
          2    1    4    4  503    0  0.70105309216E+02 -0.14261346981E+03 -0.15025331575E+03  0.21869937139E+03  0.00000000000E+00 0.  1.
         -2    1    4    4    0  503  0.19227625152E+03 -0.31230502962E+03 -0.71027446461E+02  0.37356322969E+03  0.00000000000E+00 0. -1.
<mgrwt>
<rscale>  0 0.12682298E+04</rscale>
<asrwt>0</asrwt>
<pdfrwt beam="1">  1        2 0.45301062E-01 0.12682298E+04</pdfrwt>
<pdfrwt beam="2">  1       -1 0.21008780E+00 0.12682298E+04</pdfrwt>
<totfact> 0.16201980E+01</totfact>
</mgrwt>
</event>
<event>
12    7  0.1497947E-008  0.1422406E+04  0.7818608E-02  0.8937757E-01
          2   -1    0    0  501    0  0.00000000000E+00  0.00000000000E+00  0.21765932647E+04  0.21765932647E+04  0.00000000000E+00 0. -1.
         -1   -1    0    0    0  501 -0.00000000000E+00 -0.00000000000E+00 -0.23238608699E+03  0.23238608699E+03  0.00000000000E+00 0.  1.
         24    2    1    2    0    0  0.36255421165E+03  0.19260379354E+03  0.44498401450E+03  0.61053254835E+03  0.78723832248E+02 0.  0.
        254    2    1    2    0    0 -0.36255421165E+03 -0.19260379354E+03  0.14992231632E+04  0.17984468033E+04  0.90454354988E+03 0.  0.
         23    2    4    4    0    0 -0.35874619696E+02 -0.49519390527E+03  0.10071499790E+04  0.11265887202E+04  0.91362311627E+02 0.  0.
         23    2    4    4    0    0 -0.32667959195E+03  0.30259011173E+03  0.49207318419E+03  0.67185808317E+03  0.10477086336E+03 0.  0.
          4    1    3    3  502    0  0.32860424618E+03  0.18031280935E+03  0.43252168933E+03  0.57233597787E+03  0.00000000000E+00 0. -1.
         -3    1    3    3    0  502  0.33949965468E+02  0.12290984191E+02  0.12462325166E+02  0.38196570477E+02  0.00000000000E+00 0.  1.
         13    1    5    5    0    0 -0.16981593709E+02 -0.26258151788E+03  0.43109900458E+03  0.50505819448E+03  0.00000000000E+00 0.  1.
        -13    1    5    5    0    0 -0.18893025987E+02 -0.23261238739E+03  0.57605097443E+03  0.62153052567E+03  0.00000000000E+00 0. -1.
          4    1    6    6  503    0 -0.14642523882E+03  0.67643021262E+02  0.17680621699E+03  0.23932481537E+03  0.00000000000E+00 0. -1.
         -4    1    6    6    0  503 -0.18025435314E+03  0.23494709047E+03  0.31526696720E+03  0.43253326780E+03  0.00000000000E+00 0.  1.
<mgrwt>
<rscale>  0 0.14224064E+04</rscale>
<asrwt>0</asrwt>
<pdfrwt beam="1">  1        2 0.33486049E+00 0.14224064E+04</pdfrwt>
<pdfrwt beam="2">  1       -1 0.35751707E-01 0.14224064E+04</pdfrwt>
<totfact> 0.44059583E+01</totfact>
</mgrwt>
</event>
<event>
12    7  0.1497947E-008  0.1257194E+04  0.7818608E-02  0.9064217E-01
          2   -1    0    0  501    0  0.00000000000E+00  0.00000000000E+00  0.85722700401E+03  0.85722700401E+03  0.00000000000E+00 0. -1.
         -1   -1    0    0    0  501 -0.00000000000E+00 -0.00000000000E+00 -0.46094437486E+03  0.46094437486E+03  0.00000000000E+00 0.  1.
         24    2    1    2    0    0 -0.19363194906E+03 -0.19299509516E+03  0.12002992613E+03  0.30947408663E+03  0.81403861557E+02 0.  0.
        254    2    1    2    0    0  0.19363194906E+03  0.19299509516E+03  0.27625270302E+03  0.10086972922E+04  0.93081374774E+03 0.  0.
         23    2    4    4    0    0 -0.99635033578E+02  0.36729912639E+03  0.46907777869E+03  0.61102447387E+03  0.92093197564E+02 0.  0.
         23    2    4    4    0    0  0.29326698264E+03 -0.17430403123E+03 -0.19282507567E+03  0.39767281837E+03  0.67636840931E+02 0.  0.
          2    1    3    3  502    0 -0.55937068113E+02 -0.37764350327E+02  0.67444296797E+02  0.95414018441E+02  0.00000000000E+00 0. -1.
         -1    1    3    3    0  502 -0.13769488095E+03 -0.15523074484E+03  0.52585629330E+02  0.21406006819E+03  0.00000000000E+00 0.  1.
         13    1    5    5    0    0 -0.49139273682E+02  0.78998479376E+02  0.71534222771E+02  0.11735660607E+03  0.00000000000E+00 0.  1.
        -13    1    5    5    0    0 -0.50495759897E+02  0.28830064702E+03  0.39754355592E+03  0.49366786779E+03  0.00000000000E+00 0. -1.
          1    1    6    6  503    0  0.24349048229E+03 -0.17012515002E+03 -0.17428565893E+03  0.34439174285E+03  0.00000000000E+00 0. -1.
         -1    1    6    6    0  503  0.49776500346E+02 -0.41788812123E+01 -0.18539416736E+02  0.53281075513E+02  0.00000000000E+00 0.  1.
<mgrwt>
<rscale>  0 0.12571936E+04</rscale>
<asrwt>0</asrwt>
<pdfrwt beam="1">  1        2 0.13188108E+00 0.12571936E+04</pdfrwt>
<pdfrwt beam="2">  1       -1 0.70914519E-01 0.12571936E+04</pdfrwt>
<totfact> 0.70729971E+01</totfact>
</mgrwt>
</event>
<event>
11    7  0.1497947E-008  0.2112728E+04  0.7818608E-02  0.8555657E-01
         -1   -1    0    0    0  501 -0.00000000000E+00  0.00000000000E+00  0.43483555350E+03  0.43483555350E+03  0.00000000000E+00 0.  1.
          2   -1    0    0  501    0  0.00000000000E+00 -0.00000000000E+00 -0.25662682949E+04  0.25662682949E+04  0.00000000000E+00 0. -1.
         24    2    1    2    0    0  0.85264158159E+03  0.33214752359E+02 -0.67140779061E+03  0.10885770830E+04  0.78171336280E+02 0.  0.
        254    2    1    2    0    0 -0.85264158159E+03 -0.33214752359E+02 -0.14600249508E+04  0.19125267654E+04  0.89329999728E+03 0.  0.
         23    2    4    4    0    0 -0.55246236731E+01 -0.86252356658E+02 -0.84532223666E+03  0.85496466757E+03  0.94471733906E+02 0.  0.
          4    1    3    3  502    0  0.17162495295E+03 -0.15845269068E+02 -0.16385793047E+03  0.23781425190E+03  0.00000000000E+00 0. -1.
         -3    1    3    3    0  502  0.68101662864E+03  0.49060021427E+02 -0.50754986014E+03  0.85076283106E+03  0.00000000000E+00 0.  1.
         13    1    5    5    0    0 -0.14511391083E+02  0.10747460027E+02 -0.41467056043E+02  0.45228366155E+02  0.00000000000E+00 0. -1.
        -13    1    5    5    0    0  0.89867674102E+01 -0.96999816685E+02 -0.80385518062E+03  0.80973630142E+03  0.00000000000E+00 0.  1.
          3    1    4    4  503    0 -0.47111361011E+02  0.18856372436E+02 -0.47358141386E+01  0.50965390740E+02  0.00000000000E+00 0. -1.
         -3    1    4    4    0  503 -0.80000559691E+03  0.34181231863E+02 -0.60996689996E+03  0.10065967071E+04  0.00000000000E+00 0.  1.
<mgrwt>
<rscale>  0 0.21127278E+04</rscale>
<asrwt>0</asrwt>
<pdfrwt beam="1">  1        2 0.39481050E+00 0.21127278E+04</pdfrwt>
<pdfrwt beam="2">  1       -1 0.66897778E-01 0.21127278E+04</pdfrwt>
<totfact> 0.75572380E+00</totfact>
</mgrwt>
</event>
<event>
11    7  0.1497947E-008  0.1546226E+04  0.7818608E-02  0.8854282E-01
          2   -1    0    0  501    0  0.00000000000E+00  0.00000000000E+00  0.12901457271E+04  0.12901457271E+04  0.00000000000E+00 0. -1.
         -1   -1    0    0    0  501 -0.00000000000E+00 -0.00000000000E+00 -0.46328399477E+03  0.46328399477E+03  0.00000000000E+00 0.  1.
         24    2    1    2    0    0 -0.11718419591E+03 -0.25837394452E+03  0.71795045324E+03  0.77567764357E+03  0.75721347314E+02 0.  0.
        254    2    1    2    0    0  0.11718419591E+03  0.25837394452E+03  0.10891127907E+03  0.97775207828E+03  0.92932676110E+03 0.  0.
         23    2    4    4    0    0  0.47054076228E+03  0.31323780258E+03 -0.12467074694E+02  0.57240716530E+03  0.89263682403E+02 0.  0.
          4    1    3    3  502    0 -0.36553565325E+02 -0.14331003367E+03  0.44074975730E+03  0.46490243864E+03  0.00000000000E+00 0. -1.
         -3    1    3    3    0  502 -0.80630630588E+02 -0.11506391086E+03  0.27720069594E+03  0.31077520493E+03  0.00000000000E+00 0.  1.
         13    1    5    5    0    0  0.54464539550E+02  0.16062388748E+02 -0.22305798225E+02  0.61007663741E+02  0.00000000000E+00 0. -1.
        -13    1    5    5    0    0  0.41607622273E+03  0.29717541384E+03  0.98387235313E+01  0.51139950156E+03  0.00000000000E+00 0.  1.
          1    1    4    4  503    0 -0.67160350076E+02 -0.51210800446E+02  0.79665311194E+02  0.11610176791E+03  0.00000000000E+00 0. -1.
         -1    1    4    4    0  503 -0.28619621629E+03 -0.36530576166E+01  0.41713042574E+02  0.28924314507E+03  0.00000000000E+00 0.  1.
<mgrwt>
<rscale>  0 0.15462262E+04</rscale>
<asrwt>0</asrwt>
<pdfrwt beam="1">  1        2 0.19848396E+00 0.15462262E+04</pdfrwt>
<pdfrwt beam="2">  1       -1 0.71274461E-01 0.15462262E+04</pdfrwt>
<totfact> 0.36554564E+01</totfact>
</mgrwt>
</event>
<event>
12    7  0.1497947E-008  0.3154961E+04  0.7818608E-02  0.8200814E-01
         -1   -1    0    0    0  501 -0.00000000000E+00  0.00000000000E+00  0.18020881490E+04  0.18020881490E+04  0.00000000000E+00 0.  1.
          2   -1    0    0  501    0  0.00000000000E+00 -0.00000000000E+00 -0.13808676675E+04  0.13808676675E+04  0.00000000000E+00 0. -1.
         24    2    1    2    0    0 -0.23894581761E+03  0.13957562420E+04 -0.10042944448E+03  0.14218940719E+04  0.80411984919E+02 0.  0.
        254    2    1    2    0    0  0.23894581761E+03 -0.13957562420E+04  0.52164992601E+03  0.17610617446E+04  0.90773852621E+03 0.  0.
         23    2    4    4    0    0  0.41059556966E+03 -0.30684948099E+03 -0.30546596195E+02  0.52250583552E+03  0.96612254908E+02 0.  0.
         23    2    4    4    0    0 -0.17164975205E+03 -0.10889067610E+04  0.55219652220E+03  0.12385559091E+04  0.11797529024E+03 0.  0.
          4    1    3    3  502    0 -0.20389010115E+03  0.11775681462E+04 -0.11385537968E+03  0.12005002956E+04  0.00000000000E+00 0. -1.
         -3    1    3    3    0  502 -0.35055716461E+02  0.21818809587E+03  0.13425935196E+02  0.22139377627E+03  0.00000000000E+00 0.  1.
         13    1    5    5    0    0  0.40260633687E+03 -0.31317074193E+03 -0.35253936371E+02  0.51128330319E+03  0.00000000000E+00 0. -1.
        -13    1    5    5    0    0  0.79892327872E+01  0.63212609335E+01  0.47073401755E+01  0.11222532328E+02  0.00000000000E+00 0.  1.
          1    1    6    6  503    0 -0.14738656379E+03 -0.78218854236E+03  0.34431017607E+03  0.86723192534E+03  0.00000000000E+00 0. -1.
         -1    1    6    6    0  503 -0.24263188266E+02 -0.30671821868E+03  0.20788634613E+03  0.37132398372E+03  0.00000000000E+00 0.  1.
<mgrwt>
<rscale>  0 0.31549613E+04</rscale>
<asrwt>0</asrwt>
<pdfrwt beam="1">  1        2 0.21244118E+00 0.31549613E+04</pdfrwt>
<pdfrwt beam="2">  1       -1 0.27724433E+00 0.31549613E+04</pdfrwt>
<totfact> 0.66239564E-01</totfact>
</mgrwt>
</event>
<event>
12    7  0.1497947E-008  0.2239774E+04  0.7818608E-02  0.8502053E-01
          2   -1    0    0  501    0  0.00000000000E+00  0.00000000000E+00  0.19389187495E+04  0.19389187495E+04  0.00000000000E+00 0. -1.
         -1   -1    0    0    0  501 -0.00000000000E+00 -0.00000000000E+00 -0.64682791247E+03  0.64682791247E+03  0.00000000000E+00 0.  1.
         24    2    1    2    0    0  0.19144726468E+03 -0.53669403859E+03  0.14228673012E+04  0.15347791975E+04  0.79393211699E+02 0.  0.
        254    2    1    2    0    0 -0.19144726468E+03  0.53669403859E+03 -0.13077646423E+03  0.10509674644E+04  0.87334848797E+03 0.  0.
         23    2    4    4    0    0  0.80859151611E+02  0.10941497782E+03 -0.42236555467E+03  0.45307787369E+03  0.91526269899E+02 0.  0.
         23    2    4    4    0    0 -0.27230641629E+03  0.42727906077E+03  0.29158909045E+03  0.59788959072E+03  0.12541764189E+03 0.  0.
          4    1    3    3  502    0  0.17088336260E+03 -0.51257176105E+03  0.13752099435E+04  0.14775430019E+04  0.00000000000E+00 0. -1.
         -3    1    3    3    0  502  0.20563902073E+02 -0.24122277539E+02  0.47657357761E+02  0.57236195636E+02  0.00000000000E+00 0.  1.
         13    1    5    5    0    0  0.62190688031E+02  0.11993947339E+03 -0.30233168857E+03  0.33114590269E+03  0.00000000000E+00 0. -1.
        -13    1    5    5    0    0  0.18668463580E+02 -0.10524495575E+02 -0.12003386611E+03  0.12193197100E+03  0.00000000000E+00 0.  1.
          1    1    6    6  503    0 -0.54912390409E+02  0.35193373413E+02  0.41866886658E+01  0.65356503231E+02  0.00000000000E+00 0. -1.
         -1    1    6    6    0  503 -0.21739402588E+03  0.39208568736E+03  0.28740240178E+03  0.53253308749E+03  0.00000000000E+00 0.  1.
<mgrwt>
<rscale>  0 0.22397739E+04</rscale>
<asrwt>0</asrwt>
<pdfrwt beam="1">  1        2 0.29829519E+00 0.22397739E+04</pdfrwt>
<pdfrwt beam="2">  1       -1 0.99511987E-01 0.22397739E+04</pdfrwt>
<totfact> 0.72211572E+00</totfact>
</mgrwt>
</event>
<event>
12    7  0.1497947E-008  0.2068683E+04  0.7818608E-02  0.8575166E-01
          2   -1    0    0  501    0  0.00000000000E+00  0.00000000000E+00  0.33162057782E+04  0.33162057782E+04  0.00000000000E+00 0. -1.
         -1   -1    0    0    0  501 -0.00000000000E+00 -0.00000000000E+00 -0.32261644010E+03  0.32261644010E+03  0.00000000000E+00 0.  1.
         24    2    1    2    0    0  0.50048991550E+03 -0.37678259250E+03  0.21835840056E+04  0.22731189274E+04  0.81088044938E+02 0.  0.
        254    2    1    2    0    0 -0.50048991550E+03  0.37678259250E+03  0.81000533249E+03  0.13657032909E+04  0.90364902620E+03 0.  0.
         23    2    4    4    0    0 -0.11971201836E+03  0.33225150302E+03  0.88825562926E+03  0.96038929157E+03  0.92884335850E+02 0.  0.
         23    2    4    4    0    0 -0.38077789714E+03  0.44531089487E+02 -0.78250296777E+02  0.40531399932E+03  0.10574263198E+03 0.  0.
          2    1    3    3  502    0  0.47031600129E+03 -0.37476206363E+03  0.20864637728E+04  0.21713992771E+04  0.00000000000E+00 0. -1.
         -1    1    3    3    0  502  0.30173914214E+02 -0.20205288749E+01  0.97120232814E+02  0.10171965030E+03  0.00000000000E+00 0.  1.
         13    1    5    5    0    0 -0.84879082053E+02  0.13773674834E+03  0.31662231853E+03  0.35556372566E+03  0.00000000000E+00 0.  1.
        -13    1    5    5    0    0 -0.34832936310E+02  0.19451475468E+03  0.57163331073E+03  0.60482556591E+03  0.00000000000E+00 0. -1.
          1    1    6    6  503    0 -0.15313708811E+02  0.27247406102E+02 -0.12062328982E+02  0.33502695373E+02  0.00000000000E+00 0.  1.
         -1    1    6    6    0  503 -0.36546418833E+03  0.17283683385E+02 -0.66187967795E+02  0.37181130394E+03  0.00000000000E+00 0. -1.
<mgrwt>
<rscale>  0 0.20686832E+04</rscale>
<asrwt>0</asrwt>
<pdfrwt beam="1">  1        2 0.51018548E+00 0.20686832E+04</pdfrwt>
<pdfrwt beam="2">  1       -1 0.49633301E-01 0.20686832E+04</pdfrwt>
<totfact> 0.46668585E+00</totfact>
</mgrwt>
</event>
<event>
12    7  0.1501962E-008  0.1604513E+04  0.7818608E-02  0.8817780E-01
          2   -1    0    0  501    0  0.00000000000E+00  0.00000000000E+00  0.23336583993E+04  0.23336583993E+04  0.00000000000E+00 0. -1.
         -1   -1    0    0    0  501 -0.00000000000E+00 -0.00000000000E+00 -0.27579674184E+03  0.27579674184E+03  0.00000000000E+00 0.  1.
         24    2    1    2    0    0 -0.27388874624E+02  0.57066382962E+02  0.15751573990E+04  0.15798981766E+04  0.10464556508E+03 0.  0.
        254    2    1    2    0    0  0.27388874624E+02 -0.57066382962E+02  0.48270425851E+03  0.10295569646E+04  0.90718102913E+03 0.  0.
         23    2    4    4    0    0 -0.80959922190E+02 -0.36570999081E+03 -0.60840891514E+02  0.39056542199E+03  0.92419848495E+02 0.  0.
         23    2    4    4    0    0  0.10834879681E+03  0.30864360784E+03  0.54354515002E+03  0.63899154259E+03  0.76606285350E+02 0.  0.
          2    1    3    3  502    0  0.17642935318E+02  0.58589924043E+02  0.12656532012E+04  0.12671314367E+04  0.00000000000E+00 0. -1.
         -1    1    3    3    0  502 -0.45031809942E+02 -0.15235410811E+01  0.30950419780E+03  0.31276673982E+03  0.00000000000E+00 0.  1.
         13    1    5    5    0    0 -0.46011237332E+02 -0.85728203180E+02 -0.47049153508E+02  0.10807396369E+03  0.00000000000E+00 0.  1.
        -13    1    5    5    0    0 -0.34948684859E+02 -0.27998178763E+03 -0.13791738007E+02  0.28249145830E+03  0.00000000000E+00 0. -1.
          4    1    6    6  503    0  0.58436987413E+02  0.25889622305E+03  0.42373582546E+03  0.49999418555E+03  0.00000000000E+00 0. -1.
         -4    1    6    6    0  503  0.49911809401E+02  0.49747384794E+02  0.11980932457E+03  0.13899735704E+03  0.00000000000E+00 0.  1.
<mgrwt>
<rscale>  0 0.16045129E+04</rscale>
<asrwt>0</asrwt>
<pdfrwt beam="1">  1        2 0.35902436E+00 0.16045129E+04</pdfrwt>
<pdfrwt beam="2">  1       -1 0.42430270E-01 0.16045129E+04</pdfrwt>
<totfact> 0.25909223E+01</totfact>
</mgrwt>
</event>
<event>
12    7  0.1497947E-008  0.2010454E+04  0.7818608E-02  0.8601748E-01
         -1   -1    0    0    0  501 -0.00000000000E+00  0.00000000000E+00  0.89181465592E+03  0.89181465592E+03  0.00000000000E+00 0.  1.
          2   -1    0    0  501    0  0.00000000000E+00 -0.00000000000E+00 -0.11330623897E+04  0.11330623897E+04  0.00000000000E+00 0. -1.
         24    2    1    2    0    0 -0.62868371732E+03 -0.24353138950E+03  0.33909478296E+03  0.75883492407E+03  0.79337356049E+02 0.  0.
        254    2    1    2    0    0  0.62868371732E+03  0.24353138950E+03 -0.58034251670E+03  0.12660421215E+04  0.90084097522E+03 0.  0.
         23    2    4    4    0    0  0.53776829743E+01  0.40765217715E+03 -0.42882988924E+02  0.42000741728E+03  0.91422441542E+02 0.  0.
         23    2    4    4    0    0  0.62330603434E+03 -0.16412078766E+03 -0.53745952777E+03  0.84603470422E+03  0.10707908931E+03 0.  0.
          4    1    3    3  502    0 -0.32542727712E+03 -0.83857307989E+02  0.17344703538E+03  0.37817831096E+03  0.00000000000E+00 0. -1.
         -3    1    3    3    0  502 -0.30325644020E+03 -0.15967408151E+03  0.16564774758E+03  0.38065661311E+03  0.00000000000E+00 0.  1.
         13    1    5    5    0    0 -0.33788692724E+02  0.14415813650E+03  0.10067425391E+02  0.14840686349E+03  0.00000000000E+00 0. -1.
        -13    1    5    5    0    0  0.39166375698E+02  0.26349404065E+03 -0.52950414315E+02  0.27160055379E+03  0.00000000000E+00 0.  1.
          4    1    6    6  503    0  0.24428047950E+03 -0.15228196344E+02 -0.22894498628E+03  0.33514274178E+03  0.00000000000E+00 0. -1.
         -4    1    6    6    0  503  0.37902555485E+03 -0.14889259131E+03 -0.30851454149E+03  0.51089196244E+03  0.00000000000E+00 0.  1.
<mgrwt>
<rscale>  0 0.20104543E+04</rscale>
<asrwt>0</asrwt>
<pdfrwt beam="1">  1        2 0.17431729E+00 0.20104543E+04</pdfrwt>
<pdfrwt beam="2">  1       -1 0.13720226E+00 0.20104543E+04</pdfrwt>
<totfact> 0.97241849E+00</totfact>
</mgrwt>
</event>
<event>
12    7  0.1497947E-008  0.3790374E+04  0.7818608E-02  0.8048224E-01
         -1   -1    0    0    0  501 -0.00000000000E+00  0.00000000000E+00  0.22305676459E+04  0.22305676459E+04  0.00000000000E+00 0.  1.
          2   -1    0    0  501    0  0.00000000000E+00 -0.00000000000E+00 -0.16102331533E+04  0.16102331533E+04  0.00000000000E+00 0. -1.
         24    2    1    2    0    0 -0.16381051155E+04 -0.48112834020E+03  0.82783690928E+03  0.18991015252E+04  0.79998785310E+02 0.  0.
        254    2    1    2    0    0  0.16381051155E+04  0.48112834020E+03 -0.20750241664E+03  0.19416992740E+04  0.90125799227E+03 0.  0.
         23    2    4    4    0    0  0.11322110446E+04  0.68840744416E+03  0.43322285910E+02  0.13289180188E+04  0.91321527496E+02 0.  0.
         23    2    4    4    0    0  0.50589407084E+03 -0.20727910396E+03 -0.25082470255E+03  0.61278125522E+03  0.11702306393E+03 0.  0.
          2    1    3    3  502    0 -0.10357214721E+04 -0.30424528613E+03  0.56604510245E+03  0.12188893387E+04  0.00000000000E+00 0. -1.
         -1    1    3    3    0  502 -0.60238364333E+03 -0.17688305406E+03  0.26179180683E+03  0.68021218652E+03  0.00000000000E+00 0.  1.
         13    1    5    5    0    0  0.20161627314E+03  0.10790715092E+03 -0.24676986455E+02  0.23000440969E+03  0.00000000000E+00 0.  1.
        -13    1    5    5    0    0  0.93059477149E+03  0.58050029324E+03  0.67999272365E+02  0.10989136091E+04  0.00000000000E+00 0. -1.
          1    1    6    6  503    0  0.37584222922E+03 -0.20421504194E+03 -0.20948600681E+03  0.47628305834E+03  0.00000000000E+00 0. -1.
         -1    1    6    6    0  503  0.13005184162E+03 -0.30640620263E+01 -0.41338695738E+02  0.13649819688E+03  0.00000000000E+00 0.  1.
<mgrwt>
<rscale>  0 0.37903741E+04</rscale>
<asrwt>0</asrwt>
<pdfrwt beam="1">  1        2 0.24772818E+00 0.37903741E+04</pdfrwt>
<pdfrwt beam="2">  1       -1 0.34316425E+00 0.37903741E+04</pdfrwt>
<totfact> 0.17331954E-01</totfact>
</mgrwt>
</event>
<event>
12    7  0.1497947E-008  0.1352301E+04  0.7818608E-02  0.8989088E-01
         -1   -1    0    0    0  501 -0.00000000000E+00  0.00000000000E+00  0.20070244092E+03  0.20070244092E+03  0.00000000000E+00 0.  1.
          2   -1    0    0  501    0  0.00000000000E+00 -0.00000000000E+00 -0.22778971551E+04  0.22778971551E+04  0.00000000000E+00 0. -1.
         24    2    1    2    0    0  0.27288940651E+02  0.13698132377E+03  0.53628575429E+02  0.16893687372E+03  0.78454278749E+02 0.  0.
        254    2    1    2    0    0 -0.27288940651E+02 -0.13698132377E+03 -0.21308232896E+04  0.23096627223E+04  0.88012807586E+03 0.  0.
         23    2    4    4    0    0 -0.38115757698E+03 -0.19206665831E+03 -0.63833094898E+03  0.77352914560E+03  0.93328660871E+02 0.  0.
         23    2    4    4    0    0  0.35386863633E+03  0.55085334539E+02 -0.14924923406E+04  0.15361335767E+04  0.62574537926E+02 0.  0.
          4    1    3    3  502    0 -0.87243476789E+01 -0.44471320378E+01 -0.57751994354E+01  0.11368559905E+02  0.00000000000E+00 0. -1.
         -3    1    3    3    0  502  0.36013288330E+02  0.14142845581E+03  0.59403774865E+02  0.15756831381E+03  0.00000000000E+00 0.  1.
         13    1    5    5    0    0 -0.19813764904E+03 -0.11102740654E+03 -0.41897348285E+03  0.47657569420E+03  0.00000000000E+00 0.  1.
        -13    1    5    5    0    0 -0.18301992793E+03 -0.81039251776E+02 -0.21935746613E+03  0.29695345139E+03  0.00000000000E+00 0. -1.
          3    1    6    6  503    0  0.32422574475E+03  0.49132982949E+02 -0.14238992255E+04  0.14611726072E+04  0.00000000000E+00 0. -1.
         -3    1    6    6    0  503  0.29642891580E+02  0.59523515903E+01 -0.68593115126E+02  0.74960969533E+02  0.00000000000E+00 0.  1.
<mgrwt>
<rscale>  0 0.13523010E+04</rscale>
<asrwt>0</asrwt>
<pdfrwt beam="1">  1        2 0.35044568E+00 0.13523010E+04</pdfrwt>
<pdfrwt beam="2">  1       -1 0.30877301E-01 0.13523010E+04</pdfrwt>
<totfact> 0.50460770E+01</totfact>
</mgrwt>
</event>
<event>
12    7  0.1497947E-008  0.3038078E+04  0.7818608E-02  0.8232940E-01
         -1   -1    0    0    0  501 -0.00000000000E+00  0.00000000000E+00  0.13087862605E+04  0.13087862605E+04  0.00000000000E+00 0.  1.
          2   -1    0    0  501    0  0.00000000000E+00 -0.00000000000E+00 -0.17630677113E+04  0.17630677113E+04  0.00000000000E+00 0. -1.
         24    2    1    2    0    0 -0.11786190735E+04 -0.24064681434E+03  0.50069218575E+03  0.13053399997E+04  0.78524137772E+02 0.  0.
        254    2    1    2    0    0  0.11786190735E+04  0.24064681434E+03 -0.95497363651E+03  0.17665139721E+04  0.87266440147E+03 0.  0.
         23    2    4    4    0    0  0.41264914237E+01 -0.19330658168E+03 -0.23208353938E+03  0.31549316052E+03  0.91042312320E+02 0.  0.
         23    2    4    4    0    0  0.11744925821E+04  0.43395339601E+03 -0.72289009713E+03  0.14510208116E+04  0.12305660450E+03 0.  0.
          4    1    3    3  502    0 -0.70221509227E+03 -0.15902055134E+03  0.33764275188E+03  0.79523342450E+03  0.00000000000E+00 0. -1.
         -3    1    3    3    0  502 -0.47640398122E+03 -0.81626262997E+02  0.16304943388E+03  0.51010657516E+03  0.00000000000E+00 0.  1.
         13    1    5    5    0    0  0.42210566568E+02 -0.53543194431E+02 -0.86213081792E+02  0.10991497201E+03  0.00000000000E+00 0. -1.
        -13    1    5    5    0    0 -0.38084075145E+02 -0.13976338725E+03 -0.14587045759E+03  0.20557818851E+03  0.00000000000E+00 0.  1.
          3    1    6    6  503    0  0.77861183917E+02 -0.19826307017E+01 -0.39577843209E+02  0.87365327553E+02  0.00000000000E+00 0. -1.
         -3    1    6    6    0  503  0.10966313981E+04  0.43593602671E+03 -0.68331225392E+03  0.13636554840E+04  0.00000000000E+00 0.  1.
<mgrwt>
<rscale>  0 0.30380775E+04</rscale>
<asrwt>0</asrwt>
<pdfrwt beam="1">  1        2 0.27124118E+00 0.30380775E+04</pdfrwt>
<pdfrwt beam="2">  1       -1 0.20135173E+00 0.30380775E+04</pdfrwt>
<totfact> 0.12941615E+00</totfact>
</mgrwt>
</event>
<event>
12    7  0.1497947E-008  0.1364096E+04  0.7818608E-02  0.8980226E-01
          2   -1    0    0  501    0  0.00000000000E+00  0.00000000000E+00  0.16116802291E+04  0.16116802291E+04  0.00000000000E+00 0. -1.
         -1   -1    0    0    0  501 -0.00000000000E+00 -0.00000000000E+00 -0.28863630902E+03  0.28863630902E+03  0.00000000000E+00 0.  1.
         24    2    1    2    0    0 -0.78524512619E+02 -0.13152276800E+03  0.85410400501E+03  0.87110012616E+03  0.76533919571E+02 0.  0.
        254    2    1    2    0    0  0.78524512619E+02  0.13152276800E+03  0.46893991511E+03  0.10292164120E+04  0.90328148501E+03 0.  0.
         23    2    4    4    0    0 -0.14352553155E+03 -0.25934584678E+03 -0.68915026116E+02  0.31827734310E+03  0.93227355723E+02 0.  0.
         23    2    4    4    0    0  0.22205004417E+03  0.39086861478E+03  0.53785494123E+03  0.71093906890E+03  0.11858299099E+03 0.  0.
          4    1    3    3  502    0 -0.65891469871E+02 -0.41004069166E+02  0.46297950343E+03  0.46943906962E+03  0.00000000000E+00 0. -1.
         -3    1    3    3    0  502 -0.12633042748E+02 -0.90518698834E+02  0.39112450158E+03  0.40166105654E+03  0.00000000000E+00 0.  1.
         13    1    5    5    0    0 -0.56381140559E+02 -0.27791828378E+02 -0.20976783872E+02  0.66266463592E+02  0.00000000000E+00 0.  1.
        -13    1    5    5    0    0 -0.87144390991E+02 -0.23155401840E+03 -0.47938242244E+02  0.25201087950E+03  0.00000000000E+00 0. -1.
          3    1    6    6  503    0  0.11656678134E+03  0.25152085965E+03  0.24534813634E+03  0.37019760312E+03  0.00000000000E+00 0. -1.
         -3    1    6    6    0  503  0.10548326283E+03  0.13934775513E+03  0.29250680489E+03  0.34074146578E+03  0.00000000000E+00 0.  1.
<mgrwt>
<rscale>  0 0.13640959E+04</rscale>
<asrwt>0</asrwt>
<pdfrwt beam="1">  1        2 0.24795080E+00 0.13640959E+04</pdfrwt>
<pdfrwt beam="2">  1       -1 0.44405587E-01 0.13640959E+04</pdfrwt>
<totfact> 0.61309027E+01</totfact>
</mgrwt>
</event>
<event>
12    7  0.1497947E-008  0.1252184E+04  0.7818608E-02  0.9068368E-01
          4   -1    0    0  501    0  0.00000000000E+00  0.00000000000E+00  0.94802505427E+03  0.94802505427E+03  0.00000000000E+00 0. -1.
         -3   -1    0    0    0  501 -0.00000000000E+00 -0.00000000000E+00 -0.41348171145E+03  0.41348171145E+03  0.00000000000E+00 0.  1.
         24    2    1    2    0    0 -0.24151501220E+03 -0.16682290142E+03  0.86371984900E+02  0.31615234358E+03  0.79578910636E+02 0.  0.
        254    2    1    2    0    0  0.24151501220E+03  0.16682290142E+03  0.44817135791E+03  0.10453544221E+04  0.89763518217E+03 0.  0.
         23    2    4    4    0    0  0.52263624441E+02 -0.34524064420E+03  0.59850136236E+02  0.36662856391E+03  0.94402734169E+02 0.  0.
         23    2    4    4    0    0  0.18925138776E+03  0.51206354563E+03  0.38832122168E+03  0.67872585822E+03  0.10885888518E+03 0.  0.
          4    1    3    3  502    0 -0.87134590550E+02 -0.26575715202E+02  0.51614972337E+02  0.10470344253E+03  0.00000000000E+00 0. -1.
         -3    1    3    3    0  502 -0.15438042165E+03 -0.14024718622E+03  0.34757012563E+02  0.21144890105E+03  0.00000000000E+00 0.  1.
         13    1    5    5    0    0  0.64512618413E+02 -0.12752995267E+03  0.12282615132E+02  0.14344556249E+03  0.00000000000E+00 0. -1.
        -13    1    5    5    0    0 -0.12248993973E+02 -0.21771069153E+03  0.47567521104E+02  0.22318300142E+03  0.00000000000E+00 0.  1.
          1    1    6    6  503    0  0.14007433832E+03  0.39189200482E+03  0.34876694101E+03  0.54299037085E+03  0.00000000000E+00 0. -1.
         -1    1    6    6    0  503  0.49177049441E+02  0.12017154081E+03  0.39554280665E+02  0.13573548737E+03  0.00000000000E+00 0.  1.
<mgrwt>
<rscale>  0 0.12521837E+04</rscale>
<asrwt>0</asrwt>
<pdfrwt beam="1">  1        4 0.14585001E+00 0.12521837E+04</pdfrwt>
<pdfrwt beam="2">  1       -3 0.63612571E-01 0.12521837E+04</pdfrwt>
<totfact> 0.17290959E+00</totfact>
</mgrwt>
</event>
<event>
11    7  0.1497947E-008  0.1415861E+04  0.7818608E-02  0.8942417E-01
         -1   -1    0    0    0  501 -0.00000000000E+00  0.00000000000E+00  0.16550856256E+03  0.16550856256E+03  0.00000000000E+00 0.  1.
          2   -1    0    0  501    0  0.00000000000E+00 -0.00000000000E+00 -0.30280324924E+04  0.30280324924E+04  0.00000000000E+00 0. -1.
         24    2    1    2    0    0  0.93952524397E+02 -0.39516136432E+03 -0.10649460077E+04  0.11427349320E+04  0.82179953924E+02 0.  0.
        254    2    1    2    0    0 -0.93952524397E+02  0.39516136432E+03 -0.17975779221E+04  0.20508061229E+04  0.89974428983E+03 0.  0.
         23    2    4    4    0    0 -0.45367267952E+03  0.37412900114E+03 -0.98823966783E+03  0.11535633770E+04  0.91101119929E+02 0.  0.
          4    1    3    3  502    0  0.29130619991E+02 -0.87198954129E+02 -0.34439055586E+03  0.35645070569E+03  0.00000000000E+00 0. -1.
         -3    1    3    3    0  502  0.64821904406E+02 -0.30796241019E+03 -0.72055545185E+03  0.78628422633E+03  0.00000000000E+00 0.  1.
         13    1    5    5    0    0 -0.17069552441E+03  0.19032583499E+03 -0.47285079733E+03  0.53753954464E+03  0.00000000000E+00 0. -1.
        -13    1    5    5    0    0 -0.28297715511E+03  0.18380316615E+03 -0.51538887049E+03  0.61602383235E+03  0.00000000000E+00 0.  1.
          3    1    4    4  503    0  0.40791420779E+02  0.25718645787E+02 -0.34416132540E+02  0.59244062397E+02  0.00000000000E+00 0. -1.
         -3    1    4    4    0  503  0.31892873434E+03 -0.46862826125E+01 -0.77492212176E+03  0.83799868354E+03  0.00000000000E+00 0.  1.
<mgrwt>
<rscale>  0 0.14158606E+04</rscale>
<asrwt>0</asrwt>
<pdfrwt beam="1">  1        2 0.46585114E+00 0.14158606E+04</pdfrwt>
<pdfrwt beam="2">  1       -1 0.25462857E-01 0.14158606E+04</pdfrwt>
<totfact> 0.25354855E+01</totfact>
</mgrwt>
</event>
<event>
11    7  0.1497947E-008  0.2230573E+04  0.7818608E-02  0.8505810E-01
         -3   -1    0    0    0  501 -0.00000000000E+00  0.00000000000E+00  0.14836767432E+04  0.14836767432E+04  0.00000000000E+00 0.  1.
          2   -1    0    0  501    0  0.00000000000E+00 -0.00000000000E+00 -0.83836588278E+03  0.83836588278E+03  0.00000000000E+00 0. -1.
         24    2    1    2    0    0 -0.73503383919E+03  0.52453126201E+03  0.48293660064E+02  0.90773432039E+03  0.79003349484E+02 0.  0.
        254    2    1    2    0    0  0.73503383919E+03 -0.52453126201E+03  0.59701720039E+03  0.14143083056E+04  0.91018166112E+03 0.  0.
         23    2    4    4    0    0  0.65936988609E+03 -0.15671957821E+03 -0.13790092700E+02  0.68369249840E+03  0.88969617481E+02 0.  0.
          4    1    3    3  502    0 -0.73578311417E+03  0.52268044639E+03  0.51447685073E+02  0.90400138519E+03  0.00000000000E+00 0. -1.
         -3    1    3    3    0  502  0.74927497212E+00  0.18508156172E+01 -0.31540250097E+01  0.37329351983E+01  0.00000000000E+00 0.  1.
         13    1    5    5    0    0  0.24802090890E+03 -0.10314931494E+03  0.72077829724E+00  0.26861621684E+03  0.00000000000E+00 0. -1.
        -13    1    5    5    0    0  0.41134897719E+03 -0.53570263267E+02 -0.14510870997E+02  0.41507628156E+03  0.00000000000E+00 0.  1.
          1    1    4    4  503    0  0.74191708596E+01 -0.50518410944E+02  0.20354676798E+03  0.20985337904E+03  0.00000000000E+00 0. -1.
         -1    1    4    4    0  503  0.68244782246E+02 -0.31729327285E+03  0.40726052511E+03  0.52076242819E+03  0.00000000000E+00 0.  1.
<mgrwt>
<rscale>  0 0.22305730E+04</rscale>
<asrwt>0</asrwt>
<pdfrwt beam="1">  1        2 0.12897937E+00 0.22305730E+04</pdfrwt>
<pdfrwt beam="2">  1       -3 0.22825796E+00 0.22305730E+04</pdfrwt>
<totfact> 0.18166791E+00</totfact>
</mgrwt>
</event>
<event>
12    7  0.1497947E-008  0.1214337E+04  0.7818608E-02  0.9100400E-01
         -1   -1    0    0    0  501 -0.00000000000E+00  0.00000000000E+00  0.40983501986E+03  0.40983501986E+03  0.00000000000E+00 0.  1.
          2   -1    0    0  501    0  0.00000000000E+00 -0.00000000000E+00 -0.89951641613E+03  0.89951641613E+03  0.00000000000E+00 0. -1.
         24    2    1    2    0    0  0.99803920371E+02  0.27957715084E+02  0.15452122408E+03  0.20154819936E+03  0.77475232310E+02 0.  0.
        254    2    1    2    0    0 -0.99803920371E+02 -0.27957715084E+02 -0.64420262035E+03  0.11078032366E+04  0.89525892269E+03 0.  0.
         23    2    4    4    0    0  0.10198363639E+03 -0.42509327949E+03 -0.37552401817E+03  0.58169860734E+03  0.79057088261E+02 0.  0.
         23    2    4    4    0    0 -0.20178755676E+03  0.39713556440E+03 -0.26867860218E+03  0.52610462928E+03  0.78504873122E+02 0.  0.
          4    1    3    3  502    0  0.13079012082E+02  0.38163375348E+02  0.34256291504E+02  0.52924448817E+02  0.00000000000E+00 0. -1.
         -3    1    3    3    0  502  0.86724908290E+02 -0.10205660263E+02  0.12026493258E+03  0.14862375055E+03  0.00000000000E+00 0.  1.
         13    1    5    5    0    0  0.75081774220E+02 -0.40132299155E+03 -0.34248942939E+03  0.53291315016E+03  0.00000000000E+00 0.  1.
        -13    1    5    5    0    0  0.26901862170E+02 -0.23770287936E+02 -0.33034588781E+02  0.48785457185E+02  0.00000000000E+00 0. -1.
          4    1    6    6  503    0 -0.55602441216E+02  0.11048292529E+03 -0.11743992955E+03  0.17055862717E+03  0.00000000000E+00 0. -1.
         -4    1    6    6    0  503 -0.14618511554E+03  0.28665263912E+03 -0.15123867263E+03  0.35554600211E+03  0.00000000000E+00 0.  1.
<mgrwt>
<rscale>  0 0.12143366E+04</rscale>
<asrwt>0</asrwt>
<pdfrwt beam="1">  1        2 0.13838714E+00 0.12143366E+04</pdfrwt>
<pdfrwt beam="2">  1       -1 0.63051541E-01 0.12143366E+04</pdfrwt>
<totfact> 0.84229668E+01</totfact>
</mgrwt>
</event>
<event>
11    7  0.1497947E-008  0.2090379E+04  0.7818608E-02  0.8565493E-01
         -1   -1    0    0    0  501 -0.00000000000E+00  0.00000000000E+00  0.78362351078E+03  0.78362351078E+03  0.00000000000E+00 0.  1.
          2   -1    0    0  501    0  0.00000000000E+00 -0.00000000000E+00 -0.13940633971E+04  0.13940633971E+04  0.00000000000E+00 0. -1.
         24    2    1    2    0    0  0.53858379691E+03 -0.62048333271E+03 -0.10987136609E+03  0.83278307411E+03  0.79899054899E+02 0.  0.
        254    2    1    2    0    0 -0.53858379691E+03  0.62048333271E+03 -0.50056852027E+03  0.13449038338E+04  0.93974752261E+03 0.  0.
         23    2    4    4    0    0  0.48132625622E+02  0.31838697424E+03 -0.52967553769E+03  0.62664821561E+03  0.91895570537E+02 0.  0.
          4    1    3    3  502    0  0.49862181479E+03 -0.55648686406E+03 -0.79359188525E+02  0.75139817997E+03  0.00000000000E+00 0. -1.
         -3    1    3    3    0  502  0.39961982114E+02 -0.63996468656E+02 -0.30512177566E+02  0.81384894143E+02  0.00000000000E+00 0.  1.
         13    1    5    5    0    0  0.54115734017E+02  0.24226777752E+03 -0.46269078636E+03  0.52507613969E+03  0.00000000000E+00 0. -1.
        -13    1    5    5    0    0 -0.59831083941E+01  0.76119196722E+02 -0.66984751337E+02  0.10157207592E+03  0.00000000000E+00 0.  1.
          3    1    4    4  503    0 -0.18960561043E+03  0.25179056709E+03  0.40636441856E+02  0.31780512518E+03  0.00000000000E+00 0.  1.
         -3    1    4    4    0  503 -0.39711081210E+03  0.50305791386E+02 -0.11529424432E+02  0.40045049302E+03  0.00000000000E+00 0. -1.
<mgrwt>
<rscale>  0 0.20903788E+04</rscale>
<asrwt>0</asrwt>
<pdfrwt beam="1">  1        2 0.21447129E+00 0.20903788E+04</pdfrwt>
<pdfrwt beam="2">  1       -1 0.12055746E+00 0.20903788E+04</pdfrwt>
<totfact> 0.93825591E+00</totfact>
</mgrwt>
</event>
<event>
11    7  0.1497947E-008  0.3260581E+04  0.7818608E-02  0.8172999E-01
          2   -1    0    0  501    0  0.00000000000E+00  0.00000000000E+00  0.12557467994E+04  0.12557467994E+04  0.00000000000E+00 0. -1.
         -1   -1    0    0    0  501 -0.00000000000E+00 -0.00000000000E+00 -0.21165467338E+04  0.21165467338E+04  0.00000000000E+00 0.  1.
         24    2    1    2    0    0 -0.32779427882E+03 -0.79314941323E+03  0.87870325034E+03  0.12308750681E+04  0.79993438666E+02 0.  0.
        254    2    1    2    0    0  0.32779427882E+03  0.79314941323E+03 -0.17395031847E+04  0.21414184651E+04  0.90734041695E+03 0.  0.
         23    2    4    4    0    0  0.23870596872E+03  0.11005104250E+02 -0.10523698135E+04  0.10829026028E+04  0.89967610125E+02 0.  0.
          2    1    3    3  502    0 -0.16073041824E+03 -0.38621933955E+03  0.37132962414E+03  0.55936154261E+03  0.00000000000E+00 0. -1.
         -1    1    3    3    0  502 -0.16706386058E+03 -0.40693007368E+03  0.50737362620E+03  0.67151352551E+03  0.00000000000E+00 0.  1.
         13    1    5    5    0    0  0.21838251428E+03 -0.55816532235E+01 -0.10076363610E+04  0.10310446709E+04  0.00000000000E+00 0.  1.
        -13    1    5    5    0    0  0.20323454437E+02  0.16586757474E+02 -0.44733452546E+02  0.51857931895E+02  0.00000000000E+00 0. -1.
          1    1    4    4  503    0  0.55187505513E+02  0.35667981590E+03 -0.42523958914E+03  0.55775878299E+03  0.00000000000E+00 0. -1.
         -1    1    4    4    0  503  0.33900804583E+02  0.42546449309E+03 -0.26189378200E+03  0.50075707931E+03  0.00000000000E+00 0.  1.
<mgrwt>
<rscale>  0 0.32605808E+04</rscale>
<asrwt>0</asrwt>
<pdfrwt beam="1">  1        2 0.19319182E+00 0.32605808E+04</pdfrwt>
<pdfrwt beam="2">  1       -1 0.32562257E+00 0.32605808E+04</pdfrwt>
<totfact> 0.37658073E-01</totfact>
</mgrwt>
</event>
<event>
11    7  0.1497947E-008  0.1199348E+04  0.7818608E-02  0.9113427E-01
         -1   -1    0    0    0  501 -0.00000000000E+00  0.00000000000E+00  0.29405301739E+03  0.29405301739E+03  0.00000000000E+00 0.  1.
          2   -1    0    0  501    0  0.00000000000E+00 -0.00000000000E+00 -0.12229394453E+04  0.12229394453E+04  0.00000000000E+00 0. -1.
         24    2    1    2    0    0 -0.28589363587E+02  0.65879503690E+02  0.10200551119E+03  0.14814119430E+03  0.79895108852E+02 0.  0.
        254    2    1    2    0    0  0.28589363587E+02 -0.65879503690E+02 -0.10308919391E+04  0.13688512684E+04  0.89769601992E+03 0.  0.
         23    2    4    4    0    0  0.28349855203E+03 -0.83885447558E+02 -0.24920134649E+02  0.31159135833E+03  0.95183843987E+02 0.  0.
          4    1    3    3  502    0 -0.29749192765E+02  0.45766098020E+02  0.11974151248E+02  0.55883186167E+02  0.00000000000E+00 0. -1.
         -3    1    3    3    0  502  0.11598291773E+01  0.20113405670E+02  0.90031359942E+02  0.92258008131E+02  0.00000000000E+00 0.  1.
         13    1    5    5    0    0  0.74296087714E+02 -0.62288638187E+02 -0.29132827744E+02  0.10123489887E+03  0.00000000000E+00 0.  1.
        -13    1    5    5    0    0  0.20920246432E+03 -0.21596809371E+02  0.42126930954E+01  0.21035645946E+03  0.00000000000E+00 0. -1.
          4    1    4    4  503    0 -0.25766476489E+03 -0.24545508070E+02 -0.96116902583E+03  0.99540921698E+03  0.00000000000E+00 0. -1.
         -4    1    4    4    0  503  0.27555764421E+01  0.42551451939E+02 -0.44802778618E+02  0.61850693089E+02  0.00000000000E+00 0.  1.
<mgrwt>
<rscale>  0 0.11993482E+04</rscale>
<asrwt>0</asrwt>
<pdfrwt beam="1">  1        2 0.18814453E+00 0.11993482E+04</pdfrwt>
<pdfrwt beam="2">  1       -1 0.45238926E-01 0.11993482E+04</pdfrwt>
<totfact> 0.10006508E+02</totfact>
</mgrwt>
</event>
<event>
12    7  0.1497947E-008  0.1395890E+04  0.7818608E-02  0.8956799E-01
          2   -1    0    0  501    0  0.00000000000E+00  0.00000000000E+00  0.17292740035E+04  0.17292740035E+04  0.00000000000E+00 0. -1.
         -1   -1    0    0    0  501 -0.00000000000E+00 -0.00000000000E+00 -0.28169484452E+03  0.28169484452E+03  0.00000000000E+00 0.  1.
         24    2    1    2    0    0 -0.32927782514E+01 -0.98653958994E+02 -0.13008829549E+03  0.18227927836E+03  0.80989657877E+02 0.  0.
        254    2    1    2    0    0  0.32927782514E+01  0.98653958994E+02  0.15776674545E+04  0.18286895697E+04  0.91941693443E+03 0.  0.
         23    2    4    4    0    0 -0.57604170873E+02  0.15135866593E+03 -0.53139021397E+02  0.19243765696E+03  0.89335379160E+02 0.  0.
         23    2    4    4    0    0  0.60896949125E+02 -0.52704706931E+02  0.16308064759E+04  0.16362519127E+04  0.10632184897E+03 0.  0.
          2    1    3    3  502    0 -0.34083994565E+02 -0.12700967510E+02 -0.36202783731E+02  0.51319341491E+02  0.00000000000E+00 0. -1.
         -1    1    3    3    0  502  0.30791216314E+02 -0.85952991484E+02 -0.93885511756E+02  0.13095993687E+03  0.00000000000E+00 0.  1.
         13    1    5    5    0    0 -0.17536686036E+02 -0.31851532656E+01 -0.24402724644E+02  0.30218761200E+02  0.00000000000E+00 0.  1.
        -13    1    5    5    0    0 -0.40067484838E+02  0.15454381919E+03 -0.28736296754E+02  0.16221889576E+03  0.00000000000E+00 0. -1.
          3    1    6    6  503    0 -0.45216274788E+00  0.27501123272E+02  0.56606064855E+03  0.56672848355E+03  0.00000000000E+00 0. -1.
         -3    1    6    6    0  503  0.61349111873E+02 -0.80205830203E+02  0.10647458273E+04  0.10695234292E+04  0.00000000000E+00 0.  1.
<mgrwt>
<rscale>  0 0.13958905E+04</rscale>
<asrwt>0</asrwt>
<pdfrwt beam="1">  1        2 0.26604215E+00 0.13958905E+04</pdfrwt>
<pdfrwt beam="2">  1       -1 0.43337669E-01 0.13958905E+04</pdfrwt>
<totfact> 0.55039607E+01</totfact>
</mgrwt>
</event>
<event>
11    7  0.1497947E-008  0.2804910E+04  0.7818608E-02  0.8301746E-01
          2   -1    0    0  501    0  0.00000000000E+00  0.00000000000E+00  0.27454538327E+04  0.27454538327E+04  0.00000000000E+00 0. -1.
         -1   -1    0    0    0  501 -0.00000000000E+00 -0.00000000000E+00 -0.71641324733E+03  0.71641324733E+03  0.00000000000E+00 0.  1.
         24    2    1    2    0    0  0.19791419085E+03  0.81212491751E+02 -0.61784728204E+03  0.65895123509E+03  0.81951025250E+02 0.  0.
        254    2    1    2    0    0 -0.19791419085E+03 -0.81212491751E+02  0.26468878675E+04  0.28029158450E+04  0.89697065469E+03 0.  0.
         23    2    4    4    0    0  0.13742659465E+03 -0.17447507355E+03  0.22306232258E+04  0.22434399093E+04  0.89526706628E+02 0.  0.
          2    1    3    3  502    0  0.14417129161E+03  0.96166182950E+02 -0.46603142898E+03  0.49721080928E+03  0.00000000000E+00 0. -1.
         -1    1    3    3    0  502  0.53742899244E+02 -0.14953691199E+02 -0.15181585307E+03  0.16174042581E+03  0.00000000000E+00 0.  1.
         13    1    5    5    0    0  0.14451679022E+03 -0.15413667158E+03  0.18146397497E+04  0.18268991865E+04  0.00000000000E+00 0. -1.
        -13    1    5    5    0    0 -0.70901955699E+01 -0.20338401964E+02  0.41598347604E+03  0.41654072286E+03  0.00000000000E+00 0.  1.
          2    1    4    4  503    0 -0.34764593247E+03  0.94269286556E+02  0.40958155217E+03  0.54543692636E+03  0.00000000000E+00 0. -1.
         -2    1    4    4    0  503  0.12305146970E+02 -0.10067047622E+01  0.66830895030E+01  0.14039009286E+02  0.00000000000E+00 0.  1.
<mgrwt>
<rscale>  0 0.28049096E+04</rscale>
<asrwt>0</asrwt>
<pdfrwt beam="1">  1        2 0.42237751E+00 0.28049096E+04</pdfrwt>
<pdfrwt beam="2">  1       -1 0.11021742E+00 0.28049096E+04</pdfrwt>
<totfact> 0.18725988E+00</totfact>
</mgrwt>
</event>
<event>
11    7  0.1497947E-008  0.2515677E+04  0.7818608E-02  0.8397422E-01
          2   -1    0    0  501    0  0.00000000000E+00  0.00000000000E+00  0.85953671568E+03  0.85953671568E+03  0.00000000000E+00 0. -1.
         -1   -1    0    0    0  501 -0.00000000000E+00 -0.00000000000E+00 -0.18407097538E+04  0.18407097538E+04  0.00000000000E+00 0.  1.
         24    2    1    2    0    0 -0.72192005281E+03  0.67946982145E+03  0.75402207575E+02  0.99743556132E+03  0.79651774490E+02 0.  0.
        254    2    1    2    0    0  0.72192005281E+03 -0.67946982145E+03 -0.10565752457E+04  0.17028109081E+04  0.89463173330E+03 0.  0.
         23    2    4    4    0    0  0.40965222940E+03 -0.27571115008E+03 -0.18691481382E+02  0.50254392813E+03  0.91484648384E+02 0.  0.
          2    1    3    3  502    0 -0.69598933638E+03  0.66107939867E+03  0.59146568668E+02  0.96173044263E+03  0.00000000000E+00 0. -1.
         -1    1    3    3    0  502 -0.25930716426E+02  0.18390422777E+02  0.16255638907E+02  0.35705118689E+02  0.00000000000E+00 0.  1.
         13    1    5    5    0    0  0.13009427208E+03 -0.12859813412E+03  0.21122140257E+02  0.18414164259E+03  0.00000000000E+00 0. -1.
        -13    1    5    5    0    0  0.27955795732E+03 -0.14711301595E+03 -0.39813621639E+02  0.31840228553E+03  0.00000000000E+00 0.  1.
          2    1    4    4  503    0  0.24547251145E+02 -0.28840746162E+03 -0.56521868261E+03  0.63502251191E+03  0.00000000000E+00 0.  1.
         -2    1    4    4    0  503  0.28772057226E+03 -0.11535120976E+03 -0.47266508168E+03  0.56524446811E+03  0.00000000000E+00 0. -1.
<mgrwt>
<rscale>  0 0.25156769E+04</rscale>
<asrwt>0</asrwt>
<pdfrwt beam="1">  1        2 0.13223642E+00 0.25156769E+04</pdfrwt>
<pdfrwt beam="2">  1       -1 0.28318611E+00 0.25156769E+04</pdfrwt>
<totfact> 0.13475963E+00</totfact>
</mgrwt>
</event>
<event>
12    7  0.1497947E-008  0.1473588E+04  0.7818608E-02  0.8902209E-01
         -1   -1    0    0    0  501 -0.00000000000E+00  0.00000000000E+00  0.28372262001E+03  0.28372262001E+03  0.00000000000E+00 0.  1.
          2   -1    0    0  501    0  0.00000000000E+00 -0.00000000000E+00 -0.19133655980E+04  0.19133655980E+04  0.00000000000E+00 0. -1.
         24    2    1    2    0    0 -0.18989869463E+03 -0.16412894061E+03 -0.10997445663E+04  0.11307330052E+04  0.78225281104E+02 0.  0.
        254    2    1    2    0    0  0.18989869463E+03  0.16412894061E+03 -0.52989841166E+03  0.10663552128E+04  0.89068585357E+03 0.  0.
         23    2    4    4    0    0  0.16202724697E+03 -0.21379942844E+03 -0.59878498251E+03  0.66250949356E+03  0.91718860731E+02 0.  0.
         23    2    4    4    0    0  0.27871447664E+02  0.37792836906E+03  0.68886570848E+02  0.40384571921E+03  0.12140566522E+03 0.  0.
          4    1    3    3  502    0 -0.15416076652E+03 -0.14280985543E+03 -0.10124292166E+04  0.10340082763E+04  0.00000000000E+00 0. -1.
         -3    1    3    3    0  502 -0.35737928111E+02 -0.21319085183E+02 -0.87315349710E+02  0.96724728966E+02  0.00000000000E+00 0.  1.
         13    1    5    5    0    0  0.16905307978E+03 -0.21740918015E+03 -0.58585807009E+03  0.64736031210E+03  0.00000000000E+00 0. -1.
        -13    1    5    5    0    0 -0.70258328128E+01  0.36097517052E+01 -0.12926912422E+02  0.15149181458E+02  0.00000000000E+00 0.  1.
          2    1    6    6  503    0 -0.26161189021E+02  0.51196906050E+02 -0.20139711223E+02  0.60919118249E+02  0.00000000000E+00 0.  1.
         -2    1    6    6    0  503  0.54032636685E+02  0.32673146301E+03  0.89026282071E+02  0.34292660096E+03  0.00000000000E+00 0. -1.
<mgrwt>
<rscale>  0 0.14735876E+04</rscale>
<asrwt>0</asrwt>
<pdfrwt beam="1">  1        2 0.29436395E+00 0.14735876E+04</pdfrwt>
<pdfrwt beam="2">  1       -1 0.43649633E-01 0.14735876E+04</pdfrwt>
<totfact> 0.42683331E+01</totfact>
</mgrwt>
</event>
<event>
11    7  0.1497947E-008  0.1351239E+04  0.7818608E-02  0.8989891E-01
          2   -1    0    0  501    0  0.00000000000E+00  0.00000000000E+00  0.74300455735E+03  0.74300455735E+03  0.00000000000E+00 0. -1.
         -1   -1    0    0    0  501 -0.00000000000E+00 -0.00000000000E+00 -0.61434540701E+03  0.61434540701E+03  0.00000000000E+00 0.  1.
         24    2    1    2    0    0 -0.30970672831E+03  0.19541048985E+03  0.38520001533E+02  0.37746270109E+03  0.83010740860E+02 0.  0.
        254    2    1    2    0    0  0.30970672831E+03 -0.19541048985E+03  0.90139148811E+02  0.97988726327E+03  0.90440613967E+03 0.  0.
         23    2    4    4    0    0 -0.13026766539E+03 -0.16891024618E+03 -0.28236589103E+03  0.36556433140E+03  0.91686684198E+02 0.  0.
          2    1    3    3  502    0 -0.81748777326E+02  0.33715626582E+02 -0.22826811148E+02  0.91327265246E+02  0.00000000000E+00 0. -1.
         -1    1    3    3    0  502 -0.22795795098E+03  0.16169486327E+03  0.61346812681E+02  0.28613543585E+03  0.00000000000E+00 0.  1.
         13    1    5    5    0    0 -0.12057801878E+03 -0.12227307500E+03 -0.26309755138E+03  0.31418161154E+03  0.00000000000E+00 0. -1.
        -13    1    5    5    0    0 -0.96896466101E+01 -0.46637171186E+02 -0.19268339649E+02  0.51382719862E+02  0.00000000000E+00 0.  1.
          3    1    4    4  503    0  0.19034291787E+03 -0.11018407179E+03  0.21477124535E+03  0.30740469074E+03  0.00000000000E+00 0. -1.
         -3    1    4    4    0  503  0.24963147583E+03  0.83683828119E+02  0.15773379449E+03  0.30691824113E+03  0.00000000000E+00 0.  1.
<mgrwt>
<rscale>  0 0.13512386E+04</rscale>
<asrwt>0</asrwt>
<pdfrwt beam="1">  1        2 0.11430839E+00 0.13512386E+04</pdfrwt>
<pdfrwt beam="2">  1       -1 0.94514678E-01 0.13512386E+04</pdfrwt>
<totfact> 0.45880173E+01</totfact>
</mgrwt>
</event>
<event>
11    7  0.1497947E-008  0.1603352E+04  0.7818608E-02  0.8818491E-01
          2   -1    0    0  501    0  0.00000000000E+00  0.00000000000E+00  0.11040854989E+04  0.11040854989E+04  0.00000000000E+00 0. -1.
         -1   -1    0    0    0  501 -0.00000000000E+00 -0.00000000000E+00 -0.58209648727E+03  0.58209648727E+03  0.00000000000E+00 0.  1.
         24    2    1    2    0    0 -0.17747431006E+03 -0.51330776352E+03  0.13777752322E+03  0.56569796176E+03  0.77778835256E+02 0.  0.
        254    2    1    2    0    0  0.17747431006E+03  0.51330776352E+03  0.38421148840E+03  0.11204840244E+04  0.90160079320E+03 0.  0.
         23    2    4    4    0    0  0.13449720194E+03  0.72271315809E+03  0.22715299859E+03  0.77478681583E+03  0.91062171175E+02 0.  0.
          2    1    3    3  502    0 -0.63229848214E+02 -0.93784966118E+02  0.16542807044E+02  0.11431228298E+03  0.00000000000E+00 0. -1.
         -1    1    3    3    0  502 -0.11424446185E+03 -0.41952279740E+03  0.12123471618E+03  0.45138567878E+03  0.00000000000E+00 0.  1.
         13    1    5    5    0    0 -0.10630378754E+02  0.28777410514E+02  0.18267401198E+02  0.35704933201E+02  0.00000000000E+00 0.  1.
        -13    1    5    5    0    0  0.14512758070E+03  0.69393574757E+03  0.20888559739E+03  0.73908188263E+03  0.00000000000E+00 0. -1.
          1    1    4    4  503    0  0.45735265222E+02 -0.25653629280E+03  0.13701212123E+03  0.29440602129E+03  0.00000000000E+00 0. -1.
         -1    1    4    4    0  503 -0.27581571063E+01  0.47130898231E+02  0.20046368575E+02  0.51291187272E+02  0.00000000000E+00 0.  1.
<mgrwt>
<rscale>  0 0.16033519E+04</rscale>
<asrwt>0</asrwt>
<pdfrwt beam="1">  1        2 0.16985931E+00 0.16033519E+04</pdfrwt>
<pdfrwt beam="2">  1       -1 0.89553305E-01 0.16033519E+04</pdfrwt>
<totfact> 0.28930274E+01</totfact>
</mgrwt>
</event>
<event>
12    7  0.1497947E-008  0.2178099E+04  0.7818608E-02  0.8527599E-01
          2   -1    0    0  501    0  0.00000000000E+00  0.00000000000E+00  0.21150775848E+04  0.21150775848E+04  0.00000000000E+00 0. -1.
         -1   -1    0    0    0  501 -0.00000000000E+00 -0.00000000000E+00 -0.56074979762E+03  0.56074979762E+03  0.00000000000E+00 0.  1.
         24    2    1    2    0    0 -0.88059162396E+02  0.54239476457E+03  0.15254474801E+04  0.16234409090E+04  0.81387182961E+02 0.  0.
        254    2    1    2    0    0  0.88059162396E+02 -0.54239476457E+03  0.28880307060E+02  0.10523864735E+04  0.89707119041E+03 0.  0.
         23    2    4    4    0    0  0.24449745369E+03 -0.87481582681E+02  0.36134106510E+03  0.45388612637E+03  0.89516580645E+02 0.  0.
         23    2    4    4    0    0 -0.15643829130E+03 -0.45491318189E+03 -0.33246075804E+03  0.59850034709E+03  0.12748948109E+03 0.  0.
          4    1    3    3  502    0 -0.52346022288E+02  0.48116651713E+03  0.13040716327E+04  0.13909939419E+04  0.00000000000E+00 0. -1.
         -3    1    3    3    0  502 -0.35713140108E+02  0.61228247439E+02  0.22137584744E+03  0.23244696705E+03  0.00000000000E+00 0.  1.
         13    1    5    5    0    0 -0.45203768245E+00 -0.16228252828E+02  0.80513732192E+01  0.18121400019E+02  0.00000000000E+00 0. -1.
        -13    1    5    5    0    0  0.24494949138E+03 -0.71253329852E+02  0.35328969188E+03  0.43576472635E+03  0.00000000000E+00 0.  1.
          3    1    6    6  503    0 -0.46865956866E+02 -0.84566901683E+02 -0.13540473964E+02  0.97628495883E+02  0.00000000000E+00 0. -1.
         -3    1    6    6    0  503 -0.10957233443E+03 -0.37034628021E+03 -0.31892028408E+03  0.50087185121E+03  0.00000000000E+00 0.  1.
<mgrwt>
<rscale>  0 0.21780995E+04</rscale>
<asrwt>0</asrwt>
<pdfrwt beam="1">  1        2 0.32539655E+00 0.21780995E+04</pdfrwt>
<pdfrwt beam="2">  1       -1 0.86269201E-01 0.21780995E+04</pdfrwt>
<totfact> 0.79611640E+00</totfact>
</mgrwt>
</event>
<event>
12    7  0.1497947E-008  0.1400842E+04  0.7818608E-02  0.8953210E-01
          2   -1    0    0  501    0  0.00000000000E+00  0.00000000000E+00  0.76835087185E+03  0.76835087185E+03  0.00000000000E+00 0. -1.
         -1   -1    0    0    0  501 -0.00000000000E+00 -0.00000000000E+00 -0.63849648630E+03  0.63849648630E+03  0.00000000000E+00 0.  1.
         24    2    1    2    0    0  0.32959786199E+02 -0.95472719080E+02  0.44524029936E+03  0.46344774504E+03  0.79646095987E+02 0.  0.
        254    2    1    2    0    0 -0.32959786199E+02  0.95472719080E+02 -0.31538591381E+03  0.94339961311E+03  0.88336468561E+03 0.  0.
         23    2    4    4    0    0  0.40804332153E+03  0.76240032211E+02 -0.84377422499E+02  0.43351819000E+03  0.92231105808E+02 0.  0.
         23    2    4    4    0    0 -0.44100310773E+03  0.19232686869E+02 -0.23100849131E+03  0.50988142311E+03  0.10844586349E+03 0.  0.
          2    1    3    3  502    0  0.35526564765E+02 -0.12565641340E+02  0.22443723166E+03  0.22757878438E+03  0.00000000000E+00 0. -1.
         -1    1    3    3    0  502 -0.25667785660E+01 -0.82907077740E+02  0.22080306771E+03  0.23586896066E+03  0.00000000000E+00 0.  1.
         13    1    5    5    0    0  0.30995645664E+03  0.16645714441E+02 -0.64630607980E+02  0.31706024713E+03  0.00000000000E+00 0.  1.
        -13    1    5    5    0    0  0.98086864887E+02  0.59594317770E+02 -0.19746814519E+02  0.11645794287E+03  0.00000000000E+00 0. -1.
          1    1    6    6  503    0 -0.20887651894E+03 -0.18226026405E+02 -0.16160727235E+03  0.26472343810E+03  0.00000000000E+00 0. -1.
         -1    1    6    6    0  503 -0.23212658878E+03  0.37458713274E+02 -0.69401218960E+02  0.24515798501E+03  0.00000000000E+00 0.  1.
<mgrwt>
<rscale>  0 0.14008416E+04</rscale>
<asrwt>0</asrwt>
<pdfrwt beam="1">  1        2 0.11820783E+00 0.14008416E+04</pdfrwt>
<pdfrwt beam="2">  1       -1 0.98230229E-01 0.14008416E+04</pdfrwt>
<totfact> 0.40104745E+01</totfact>
</mgrwt>
</event>
<event>
11    7  0.1497947E-008  0.1017109E+04  0.7818608E-02  0.9289976E-01
          2   -1    0    0  501    0  0.00000000000E+00  0.00000000000E+00  0.87965287868E+03  0.87965287868E+03  0.00000000000E+00 0. -1.
         -1   -1    0    0    0  501 -0.00000000000E+00 -0.00000000000E+00 -0.29401132573E+03  0.29401132573E+03  0.00000000000E+00 0.  1.
         24    2    1    2    0    0 -0.25241522981E+01  0.44134425459E+01  0.11518565711E+03  0.14012029893E+03  0.79624824956E+02 0.  0.
        254    2    1    2    0    0  0.25241522981E+01 -0.44134425459E+01  0.47045589584E+03  0.10335439055E+04  0.92024909932E+03 0.  0.
         23    2    4    4    0    0 -0.35681124877E+03 -0.11903800426E+03  0.14323017205E+03  0.41085592294E+03  0.82482686223E+02 0.  0.
          2    1    3    3  502    0  0.29193060545E+02 -0.16536432478E+02  0.85636229048E+02  0.91974192623E+02  0.00000000000E+00 0. -1.
         -1    1    3    3    0  502 -0.31717212843E+02  0.20949875024E+02  0.29549428063E+02  0.48146106311E+02  0.00000000000E+00 0.  1.
         13    1    5    5    0    0 -0.19355930196E+03 -0.94854677551E+02  0.11193010766E+03  0.24288055136E+03  0.00000000000E+00 0. -1.
        -13    1    5    5    0    0 -0.16325194681E+03 -0.24183326710E+02  0.31300064391E+02  0.16797537158E+03  0.00000000000E+00 0.  1.
          1    1    4    4  503    0  0.26618563247E+03  0.12637107496E+03  0.40494641666E+03  0.50080539123E+03  0.00000000000E+00 0. -1.
         -1    1    4    4    0  503  0.93149768596E+02 -0.11746513243E+02 -0.77720692875E+02  0.12188259131E+03  0.00000000000E+00 0.  1.
<mgrwt>
<rscale>  0 0.10171095E+04</rscale>
<asrwt>0</asrwt>
<pdfrwt beam="1">  1        2 0.13533121E+00 0.10171095E+04</pdfrwt>
<pdfrwt beam="2">  1       -1 0.45232512E-01 0.10171095E+04</pdfrwt>
<totfact> 0.16699211E+02</totfact>
</mgrwt>
</event>
<event>
11    7  0.1497947E-008  0.3014849E+04  0.7818608E-02  0.8239503E-01
          2   -1    0    0  501    0  0.00000000000E+00  0.00000000000E+00  0.39924737620E+04  0.39924737620E+04  0.00000000000E+00 0. -1.
         -1   -1    0    0    0  501 -0.00000000000E+00 -0.00000000000E+00 -0.56915300271E+03  0.56915300271E+03  0.00000000000E+00 0.  1.
         24    2    1    2    0    0 -0.97017869150E+03  0.71044661615E+03  0.56195753014E+03  0.13297534692E+04  0.80417257534E+02 0.  0.
        254    2    1    2    0    0  0.97017869150E+03 -0.71044661615E+03  0.28613632292E+04  0.32318732955E+04  0.90090198204E+03 0.  0.
         23    2    4    4    0    0  0.71975173446E+03 -0.61795176506E+03  0.17080380632E+04  0.19558124382E+04  0.88889396778E+02 0.  0.
          4    1    3    3  502    0 -0.61624312331E+03  0.48409455138E+03  0.39620552818E+03  0.87811271615E+03  0.00000000000E+00 0. -1.
         -3    1    3    3    0  502 -0.35393556819E+03  0.22635206477E+03  0.16575200195E+03  0.45164075304E+03  0.00000000000E+00 0.  1.
         13    1    5    5    0    0  0.66996858738E+03 -0.55681484419E+03  0.15205064613E+04  0.17523814018E+04  0.00000000000E+00 0.  1.
        -13    1    5    5    0    0  0.49783147084E+02 -0.61136920877E+02  0.18753160191E+03  0.20343103633E+03  0.00000000000E+00 0. -1.
          2    1    4    4  503    0  0.79111245501E+02 -0.10881497172E+03  0.10810821505E+04  0.10894209028E+04  0.00000000000E+00 0.  1.
         -2    1    4    4    0  503  0.17131571153E+03  0.16320120628E+02  0.72243015465E+02  0.18663995456E+03  0.00000000000E+00 0. -1.
<mgrwt>
<rscale>  0 0.30148489E+04</rscale>
<asrwt>0</asrwt>
<pdfrwt beam="1">  1        2 0.61422672E+00 0.30148489E+04</pdfrwt>
<pdfrwt beam="2">  1       -1 0.87562003E-01 0.30148489E+04</pdfrwt>
<totfact> 0.43212325E-01</totfact>
</mgrwt>
</event>
<event>
12    7  0.1497947E-008  0.2885284E+04  0.7818608E-02  0.8277269E-01
         -1   -1    0    0    0  501 -0.00000000000E+00  0.00000000000E+00  0.13650241165E+04  0.13650241165E+04  0.00000000000E+00 0.  1.
          2   -1    0    0  501    0  0.00000000000E+00 -0.00000000000E+00 -0.15246736270E+04  0.15246736270E+04  0.00000000000E+00 0. -1.
         24    2    1    2    0    0 -0.38589034530E+03  0.43024042614E+03 -0.12419300854E+04  0.13720229121E+04  0.77706828642E+02 0.  0.
        254    2    1    2    0    0  0.38589034530E+03 -0.43024042614E+03  0.10822805750E+04  0.15176748315E+04  0.89330144312E+03 0.  0.
         23    2    4    4    0    0  0.12928446035E+03  0.26511194716E+03  0.24729710903E+03  0.39573132896E+03  0.91916311798E+02 0.  0.
         23    2    4    4    0    0  0.25660588495E+03 -0.69535237329E+03  0.83498346595E+03  0.11219435025E+04  0.11044605572E+03 0.  0.
          2    1    3    3  502    0 -0.18638171146E+03  0.18672793598E+03 -0.65193469732E+03  0.70329532489E+03  0.00000000000E+00 0. -1.
         -1    1    3    3    0  502 -0.19950863384E+03  0.24351249016E+03 -0.58999538812E+03  0.66872758717E+03  0.00000000000E+00 0.  1.
         13    1    5    5    0    0  0.14164906173E+03  0.23688833977E+03  0.23519935308E+03  0.36262829164E+03  0.00000000000E+00 0. -1.
        -13    1    5    5    0    0 -0.12364601374E+02  0.28223607384E+02  0.12097755945E+02  0.33103037320E+02  0.00000000000E+00 0.  1.
          3    1    6    6  503    0  0.26076102707E+03 -0.65598419936E+03  0.76072955815E+03  0.10377962438E+04  0.00000000000E+00 0. -1.
         -3    1    6    6    0  503 -0.41551421171E+01 -0.39368173938E+02  0.74253907794E+02  0.84147258707E+02  0.00000000000E+00 0.  1.
<mgrwt>
<rscale>  0 0.28852842E+04</rscale>
<asrwt>0</asrwt>
<pdfrwt beam="1">  1        2 0.23456517E+00 0.28852842E+04</pdfrwt>
<pdfrwt beam="2">  1       -1 0.21000371E+00 0.28852842E+04</pdfrwt>
<totfact> 0.15549554E+00</totfact>
</mgrwt>
</event>
<event>
11    7  0.1497947E-008  0.2522618E+04  0.7818608E-02  0.8394972E-01
         -1   -1    0    0    0  501 -0.00000000000E+00  0.00000000000E+00  0.15570839128E+04  0.15570839128E+04  0.00000000000E+00 0.  1.
          2   -1    0    0  501    0  0.00000000000E+00 -0.00000000000E+00 -0.10217181118E+04  0.10217181118E+04  0.00000000000E+00 0. -1.
         24    2    1    2    0    0  0.32295788704E+03  0.72009773668E+03  0.10271551880E+04  0.12977536819E+04  0.79210424681E+02 0.  0.
        254    2    1    2    0    0 -0.32295788704E+03 -0.72009773668E+03 -0.49178938696E+03  0.12810483427E+04  0.88112740739E+03 0.  0.
         23    2    4    4    0    0 -0.46611844946E+03 -0.49227990174E+03 -0.11291574848E+03  0.69289220773E+03  0.87998492558E+02 0.  0.
          2    1    3    3  502    0  0.95056726013E+02  0.22263832765E+03  0.25761604366E+03  0.35351044122E+03  0.00000000000E+00 0. -1.
         -1    1    3    3    0  502  0.22790116102E+03  0.49745940903E+03  0.76953914435E+03  0.94424324065E+03  0.00000000000E+00 0.  1.
         13    1    5    5    0    0 -0.69438285663E+01  0.35125619876E+01 -0.11628724950E+00  0.77825683164E+01  0.00000000000E+00 0. -1.
        -13    1    5    5    0    0 -0.45917462089E+03 -0.49579246372E+03 -0.11279946124E+03  0.68510963941E+03  0.00000000000E+00 0.  1.
          1    1    4    4  503    0  0.33304996781E+02 -0.23679782568E+03 -0.54077102811E+02  0.24516681282E+03  0.00000000000E+00 0. -1.
         -1    1    4    4    0  503  0.10985556564E+03  0.89799907388E+01 -0.32479653567E+03  0.34298932216E+03  0.00000000000E+00 0.  1.
<mgrwt>
<rscale>  0 0.25226184E+04</rscale>
<asrwt>0</asrwt>
<pdfrwt beam="1">  1        2 0.15718740E+00 0.25226184E+04</pdfrwt>
<pdfrwt beam="2">  1       -1 0.23955137E+00 0.25226184E+04</pdfrwt>
<totfact> 0.20207844E+00</totfact>
</mgrwt>
</event>
<event>
12    7  0.1497947E-008  0.3096126E+04  0.7818608E-02  0.8216802E-01
          2   -1    0    0  501    0  0.00000000000E+00  0.00000000000E+00  0.11596001308E+04  0.11596001308E+04  0.00000000000E+00 0. -1.
         -1   -1    0    0    0  501 -0.00000000000E+00 -0.00000000000E+00 -0.20666602237E+04  0.20666602237E+04  0.00000000000E+00 0.  1.
         24    2    1    2    0    0 -0.89587197332E+03  0.38307407947E+03 -0.14787256256E+04  0.17726667453E+04  0.79909767459E+02 0.  0.
        254    2    1    2    0    0  0.89587197332E+03 -0.38307407947E+03  0.57166553277E+03  0.14535936093E+04  0.91476803429E+03 0.  0.
         23    2    4    4    0    0  0.18930592058E+03 -0.51522441126E+03  0.49310162526E+02  0.55875519545E+03  0.92102935844E+02 0.  0.
         23    2    4    4    0    0  0.70656605274E+03  0.13215033179E+03  0.52235537025E+03  0.89483841380E+03  0.10574193543E+03 0.  0.
          4    1    3    3  502    0 -0.71195918963E+02  0.53762698163E+02 -0.12091988420E+03  0.15026944129E+03  0.00000000000E+00 0. -1.
         -3    1    3    3    0  502 -0.82467605436E+03  0.32931138131E+03 -0.13578057414E+04  0.16223973040E+04  0.00000000000E+00 0.  1.
         13    1    5    5    0    0  0.32571980660E+02 -0.16188297638E+03 -0.19019426609E+02  0.16621904389E+03  0.00000000000E+00 0.  1.
        -13    1    5    5    0    0  0.15673393992E+03 -0.35334143488E+03  0.68329589134E+02  0.39253615156E+03  0.00000000000E+00 0. -1.
          3    1    6    6  503    0  0.35730859552E+03  0.11954602054E+03  0.25830036912E+03  0.45681480289E+03  0.00000000000E+00 0. -1.
         -3    1    6    6    0  503  0.34925745723E+03  0.12604311242E+02  0.26405500113E+03  0.43802361091E+03  0.00000000000E+00 0.  1.
<mgrwt>
<rscale>  0 0.30961263E+04</rscale>
<asrwt>0</asrwt>
<pdfrwt beam="1">  1        2 0.17840002E+00 0.30961263E+04</pdfrwt>
<pdfrwt beam="2">  1       -1 0.31794772E+00 0.30961263E+04</pdfrwt>
<totfact> 0.48915743E-01</totfact>
</mgrwt>
</event>
<event>
12    7  0.1497947E-008  0.1481468E+04  0.7818608E-02  0.8896871E-01
          4   -1    0    0  501    0  0.00000000000E+00  0.00000000000E+00  0.10783140284E+04  0.10783140284E+04  0.00000000000E+00 0. -1.
         -3   -1    0    0    0  501 -0.00000000000E+00 -0.00000000000E+00 -0.50883766217E+03  0.50883766217E+03  0.00000000000E+00 0.  1.
         24    2    1    2    0    0  0.15431979084E+03  0.38592996795E+03 -0.34431037444E+02  0.42498959354E+03  0.81695289159E+02 0.  0.
        254    2    1    2    0    0 -0.15431979084E+03 -0.38592996795E+03  0.60390740365E+03  0.11621620970E+04  0.90175387414E+03 0.  0.
         23    2    4    4    0    0  0.81261191112E+02 -0.23719757682E+03  0.77478371055E+03  0.81907704740E+03  0.87928037634E+02 0.  0.
         23    2    4    4    0    0 -0.23558098195E+03 -0.14873239112E+03 -0.17087630690E+03  0.34308504961E+03  0.10434996781E+03 0.  0.
          2    1    3    3  502    0  0.34749541537E+02  0.23704166371E+02 -0.58568475160E+01  0.42470234320E+02  0.00000000000E+00 0. -1.
         -1    1    3    3    0  502  0.11957024930E+03  0.36222580157E+03 -0.28574189928E+02  0.38251935921E+03  0.00000000000E+00 0.  1.
         13    1    5    5    0    0  0.65092684396E+02 -0.16478169582E+03  0.65174001725E+03  0.67539256357E+03  0.00000000000E+00 0. -1.
        -13    1    5    5    0    0  0.16168506716E+02 -0.72415881005E+02  0.12304369330E+03  0.14368448382E+03  0.00000000000E+00 0.  1.
          1    1    6    6  503    0 -0.19472120483E+03 -0.71044975073E+02 -0.99355248119E+02  0.22985909037E+03  0.00000000000E+00 0. -1.
         -1    1    6    6    0  503 -0.40859777118E+02 -0.77687416049E+02 -0.71521058778E+02  0.11322595925E+03  0.00000000000E+00 0.  1.
<mgrwt>
<rscale>  0 0.14814679E+04</rscale>
<asrwt>0</asrwt>
<pdfrwt beam="1">  1        4 0.16589447E+00 0.14814679E+04</pdfrwt>
<pdfrwt beam="2">  1       -3 0.78282717E-01 0.14814679E+04</pdfrwt>
<totfact> 0.76424796E-01</totfact>
</mgrwt>
</event>
<event>
12    7  0.1497947E-008  0.1105355E+04  0.7818608E-02  0.9199988E-01
         -1   -1    0    0    0  501 -0.00000000000E+00  0.00000000000E+00  0.17894317313E+03  0.17894317313E+03  0.00000000000E+00 0.  1.
          2   -1    0    0  501    0  0.00000000000E+00 -0.00000000000E+00 -0.17069810727E+04  0.17069810727E+04  0.00000000000E+00 0. -1.
         24    2    1    2    0    0  0.12450751371E+02 -0.11680353528E+03 -0.25716070516E+03  0.29329982254E+03  0.78070932904E+02 0.  0.
        254    2    1    2    0    0 -0.12450751371E+02  0.11680353528E+03 -0.12708771944E+04  0.15926244233E+04  0.95264139283E+03 0.  0.
         23    2    4    4    0    0 -0.39841657237E+02  0.40102419859E+03 -0.16022575573E+03  0.44327493967E+03  0.91720302200E+02 0.  0.
         23    2    4    4    0    0  0.27390905866E+02 -0.28422066331E+03 -0.11106514387E+04  0.11493494836E+04  0.76980322652E+02 0.  0.
          4    1    3    3  502    0 -0.13215118103E+02 -0.92603198898E+02 -0.23148139844E+03  0.24966703751E+03  0.00000000000E+00 0. -1.
         -3    1    3    3    0  502  0.25665869474E+02 -0.24200336377E+02 -0.25679306713E+02  0.43632785034E+02  0.00000000000E+00 0.  1.
         13    1    5    5    0    0 -0.19104382826E+02  0.38855220342E+03 -0.15291095846E+03  0.41799468111E+03  0.00000000000E+00 0.  1.
        -13    1    5    5    0    0 -0.20737274411E+02  0.12471995172E+02 -0.73147972725E+01  0.25280258557E+02  0.00000000000E+00 0. -1.
          3    1    6    6  503    0  0.99915141003E+01 -0.84752005478E+02 -0.20935016355E+03  0.22607570362E+03  0.00000000000E+00 0. -1.
         -3    1    6    6    0  503  0.17399391765E+02 -0.19946865783E+03 -0.90130127515E+03  0.92327378003E+03  0.00000000000E+00 0.  1.
<mgrwt>
<rscale>  0 0.11053553E+04</rscale>
<asrwt>0</asrwt>
<pdfrwt beam="1">  1        2 0.26261247E+00 0.11053553E+04</pdfrwt>
<pdfrwt beam="2">  1       -1 0.27529719E-01 0.11053553E+04</pdfrwt>
<totfact> 0.13033003E+02</totfact>
</mgrwt>
</event>
<event>
12    7  0.1497947E-008  0.1403966E+04  0.7818608E-02  0.8950953E-01
         -1   -1    0    0    0  501 -0.00000000000E+00  0.00000000000E+00  0.15059147625E+04  0.15059147625E+04  0.00000000000E+00 0.  1.
          2   -1    0    0  501    0  0.00000000000E+00 -0.00000000000E+00 -0.32722978996E+03  0.32722978996E+03  0.00000000000E+00 0. -1.
         24    2    1    2    0    0 -0.18973817975E+03  0.32804519042E+03  0.56213814666E+03  0.68259754809E+03  0.79535482131E+02 0.  0.
        254    2    1    2    0    0  0.18973817975E+03 -0.32804519042E+03  0.61654682586E+03  0.11505470043E+04  0.89443512728E+03 0.  0.
         23    2    4    4    0    0  0.21916459173E+03  0.25170319203E+03  0.81913967010E+02  0.35839185760E+03  0.10172123899E+03 0.  0.
         23    2    4    4    0    0 -0.29426411984E+02 -0.57974838245E+03  0.53463285885E+03  0.79215514674E+03  0.68581207845E+02 0.  0.
          2    1    3    3  502    0 -0.51696943099E+02  0.66537588153E+02  0.18555427848E+03  0.20378963375E+03  0.00000000000E+00 0. -1.
         -1    1    3    3    0  502 -0.13804123665E+03  0.26150760227E+03  0.37658386818E+03  0.47880791434E+03  0.00000000000E+00 0.  1.
         13    1    5    5    0    0  0.50792369016E+01 -0.82349439677E+01  0.10261386796E+02  0.14103510507E+02  0.00000000000E+00 0.  1.
        -13    1    5    5    0    0  0.21408535483E+03  0.25993813599E+03  0.71652580214E+02  0.34428834710E+03  0.00000000000E+00 0. -1.
          4    1    6    6  503    0  0.32354322705E+01 -0.35784155338E+03  0.36289322831E+03  0.50965923959E+03  0.00000000000E+00 0. -1.
         -4    1    6    6    0  503 -0.32661844254E+02 -0.22190682907E+03  0.17173963054E+03  0.28249590714E+03  0.00000000000E+00 0.  1.
<mgrwt>
<rscale>  0 0.14039661E+04</rscale>
<asrwt>0</asrwt>
<pdfrwt beam="1">  1        2 0.50343046E-01 0.14039661E+04</pdfrwt>
<pdfrwt beam="2">  1       -1 0.23167919E+00 0.14039661E+04</pdfrwt>
<totfact> 0.10217469E+01</totfact>
</mgrwt>
</event>
<event>
11    7  0.1497947E-008  0.1538330E+04  0.7818608E-02  0.8859357E-01
         -1   -1    0    0    0  501 -0.00000000000E+00  0.00000000000E+00  0.18940685605E+03  0.18940685605E+03  0.00000000000E+00 0.  1.
          2   -1    0    0  501    0  0.00000000000E+00 -0.00000000000E+00 -0.31235122566E+04  0.31235122566E+04  0.00000000000E+00 0. -1.
         24    2    1    2    0    0 -0.68421467636E+02 -0.27421932605E+03 -0.18325849080E+04  0.18560287132E+04  0.81224401862E+02 0.  0.
        254    2    1    2    0    0  0.68421467636E+02  0.27421932605E+03 -0.11015204926E+04  0.14568903994E+04  0.91066157508E+03 0.  0.
         23    2    4    4    0    0  0.40147248620E+03  0.38879169879E+03 -0.58760051295E+03  0.81597370012E+03  0.90551500522E+02 0.  0.
          2    1    3    3  502    0 -0.27587411143E+02 -0.16112668406E+03 -0.80479559047E+03  0.82123006278E+03  0.00000000000E+00 0. -1.
         -1    1    3    3    0  502 -0.40834056493E+02 -0.11309264199E+03 -0.10277893175E+04  0.10347986505E+04  0.00000000000E+00 0.  1.
         13    1    5    5    0    0  0.14102760145E+03  0.18419957888E+03 -0.20143347968E+03  0.30723560336E+03  0.00000000000E+00 0. -1.
        -13    1    5    5    0    0  0.26044488475E+03  0.20459211991E+03 -0.38616703326E+03  0.50873809676E+03  0.00000000000E+00 0.  1.
          4    1    4    4  503    0 -0.32612520636E+02 -0.65277171514E+02 -0.14713634927E+03  0.16423699613E+03  0.00000000000E+00 0. -1.
         -4    1    4    4    0  503 -0.30043849793E+03 -0.49295201226E+02 -0.36678363039E+03  0.47667970318E+03  0.00000000000E+00 0.  1.
<mgrwt>
<rscale>  0 0.15383298E+04</rscale>
<asrwt>0</asrwt>
<pdfrwt beam="1">  1        2 0.48054031E+00 0.15383298E+04</pdfrwt>
<pdfrwt beam="2">  1       -1 0.29139518E-01 0.15383298E+04</pdfrwt>
<totfact> 0.17263272E+01</totfact>
</mgrwt>
</event>
<event>
11    7  0.1497947E-008  0.1832700E+04  0.7818608E-02  0.8689101E-01
          2   -1    0    0  501    0  0.00000000000E+00  0.00000000000E+00  0.13179474060E+04  0.13179474060E+04  0.00000000000E+00 0. -1.
         -1   -1    0    0    0  501 -0.00000000000E+00 -0.00000000000E+00 -0.63712491390E+03  0.63712491390E+03  0.00000000000E+00 0.  1.
         24    2    1    2    0    0 -0.24740630624E+03 -0.75074717671E+02  0.95707168212E+03  0.99462440747E+03  0.80283333311E+02 0.  0.
        254    2    1    2    0    0  0.24740630624E+03  0.75074717671E+02 -0.27624918999E+03  0.96044791247E+03  0.88277997485E+03 0.  0.
         23    2    4    4    0    0  0.47499830284E+01  0.94140162560E+02  0.25632653083E+03  0.28776793521E+03  0.90676135702E+02 0.  0.
          4    1    3    3  502    0 -0.23205751497E+03 -0.58346573931E+02  0.77378886287E+03  0.80994087268E+03  0.00000000000E+00 0. -1.
         -3    1    3    3    0  502 -0.15348791269E+02 -0.16728143740E+02  0.18328281926E+03  0.18468353479E+03  0.00000000000E+00 0.  1.
         13    1    5    5    0    0  0.34428969784E+02  0.52302339095E+02  0.67385142640E+02  0.91987206088E+02  0.00000000000E+00 0. -1.
        -13    1    5    5    0    0 -0.29678986756E+02  0.41837823465E+02  0.18894138819E+03  0.19578072913E+03  0.00000000000E+00 0.  1.
          3    1    4    4  503    0 -0.29568146048E+01 -0.88028111474E+02 -0.34490925745E+03  0.35597764963E+03  0.00000000000E+00 0. -1.
         -3    1    4    4    0  503  0.24561313782E+03  0.68962666584E+02 -0.18766646336E+03  0.31670232762E+03  0.00000000000E+00 0.  1.
<mgrwt>
<rscale>  0 0.18326998E+04</rscale>
<asrwt>0</asrwt>
<pdfrwt beam="1">  1        2 0.20276114E+00 0.18326998E+04</pdfrwt>
<pdfrwt beam="2">  1       -1 0.98019218E-01 0.18326998E+04</pdfrwt>
<totfact> 0.17281745E+01</totfact>
</mgrwt>
</event>
<event>
12    7  0.1497947E-008  0.3002630E+04  0.7818608E-02  0.8242980E-01
          2   -1    0    0  501    0  0.00000000000E+00  0.00000000000E+00  0.39986513819E+04  0.39986513819E+04  0.00000000000E+00 0. -1.
         -1   -1    0    0    0  501 -0.00000000000E+00 -0.00000000000E+00 -0.56367675944E+03  0.56367675944E+03  0.00000000000E+00 0.  1.
         24    2    1    2    0    0  0.50988161835E+03 -0.90886230663E+03  0.29009894655E+04  0.30835320154E+04  0.80123992252E+02 0.  0.
        254    2    1    2    0    0 -0.50988161835E+03  0.90886230663E+03  0.53398515700E+03  0.14787961259E+04  0.90315440377E+03 0.  0.
         23    2    4    4    0    0 -0.64778708361E+03  0.78402284767E+03  0.66739708246E+03  0.12199334324E+04  0.92188841624E+02 0.  0.
         23    2    4    4    0    0  0.13790546527E+03  0.12483945896E+03 -0.13341192545E+03  0.25886269351E+03  0.12086498407E+03 0.  0.
          4    1    3    3  502    0  0.31892423464E+03 -0.48752205344E+03  0.16057088660E+04  0.17081251073E+04  0.00000000000E+00 0. -1.
         -3    1    3    3    0  502  0.19095738371E+03 -0.42134025319E+03  0.12952805995E+04  0.13754069081E+04  0.00000000000E+00 0.  1.
         13    1    5    5    0    0 -0.60748770435E+03  0.75764925717E+03  0.65066411426E+03  0.11689471748E+04  0.00000000000E+00 0. -1.
        -13    1    5    5    0    0 -0.40299379268E+02  0.26373590500E+02  0.16732968200E+02  0.50986257658E+02  0.00000000000E+00 0.  1.
          1    1    6    6  503    0  0.15129786291E+03  0.13015527179E+03 -0.13920812916E+03  0.24333175156E+03  0.00000000000E+00 0. -1.
         -1    1    6    6    0  503 -0.13392397640E+02 -0.53158128236E+01  0.57962037062E+01  0.15530941952E+02  0.00000000000E+00 0.  1.
<mgrwt>
<rscale>  0 0.30026301E+04</rscale>
<asrwt>0</asrwt>
<pdfrwt beam="1">  1        2 0.61517712E+00 0.30026301E+04</pdfrwt>
<pdfrwt beam="2">  1       -1 0.86719504E-01 0.30026301E+04</pdfrwt>
<totfact> 0.43679456E-01</totfact>
</mgrwt>
</event>
<event>
12    7  0.1497947E-008  0.1624947E+04  0.7818608E-02  0.8805367E-01
         -1   -1    0    0    0  501 -0.00000000000E+00  0.00000000000E+00  0.38547119443E+03  0.38547119443E+03  0.00000000000E+00 0.  1.
          2   -1    0    0  501    0  0.00000000000E+00 -0.00000000000E+00 -0.17124840725E+04  0.17124840725E+04  0.00000000000E+00 0. -1.
         24    2    1    2    0    0 -0.72283702786E+02 -0.41992289243E+03 -0.56830820706E+03  0.71457511145E+03  0.77994887149E+02 0.  0.
        254    2    1    2    0    0  0.72283702786E+02  0.41992289243E+03 -0.75870467104E+03  0.13833801555E+04  0.10754290806E+04 0.  0.
         23    2    4    4    0    0 -0.31537412073E+03 -0.13359129187E+03 -0.57462639388E+03  0.67475108540E+03  0.88238684391E+02 0.  0.
         23    2    4    4    0    0  0.38765782351E+03  0.55351418430E+03 -0.18407827716E+03  0.70862907009E+03  0.10776737219E+03 0.  0.
          4    1    3    3  502    0 -0.16297130613E+02 -0.15841312644E+03 -0.15457242828E+03  0.22193005808E+03  0.00000000000E+00 0. -1.
         -3    1    3    3    0  502 -0.55986572172E+02 -0.26150976599E+03 -0.41373577878E+03  0.49264505337E+03  0.00000000000E+00 0.  1.
         13    1    5    5    0    0 -0.11020477614E+03 -0.64222823426E+01 -0.21399759290E+03  0.24079308163E+03  0.00000000000E+00 0. -1.
        -13    1    5    5    0    0 -0.20516934459E+03 -0.12716900953E+03 -0.36062880098E+03  0.43395800377E+03  0.00000000000E+00 0.  1.
          3    1    6    6  503    0  0.26792110976E+03  0.29974838424E+03 -0.83959585575E+02  0.41070674078E+03  0.00000000000E+00 0. -1.
         -3    1    6    6    0  503  0.11973671375E+03  0.25376580006E+03 -0.10011869158E+03  0.29792232932E+03  0.00000000000E+00 0.  1.
<mgrwt>
<rscale>  0 0.16249471E+04</rscale>
<asrwt>0</asrwt>
<pdfrwt beam="1">  1        2 0.26345908E+00 0.16249471E+04</pdfrwt>
<pdfrwt beam="2">  1       -1 0.59303262E-01 0.16249471E+04</pdfrwt>
<totfact> 0.30330629E+01</totfact>
</mgrwt>
</event>
<event>
11    7  0.1497947E-008  0.1454849E+04  0.7818608E-02  0.8915046E-01
          2   -1    0    0  501    0  0.00000000000E+00  0.00000000000E+00  0.90643042218E+03  0.90643042218E+03  0.00000000000E+00 0. -1.
         -1   -1    0    0    0  501 -0.00000000000E+00 -0.00000000000E+00 -0.58376907909E+03  0.58376907909E+03  0.00000000000E+00 0.  1.
         24    2    1    2    0    0  0.39664011382E+03 -0.15171150220E+03 -0.42497634620E+02  0.43392863922E+03  0.78410810434E+02 0.  0.
        254    2    1    2    0    0 -0.39664011382E+03  0.15171150220E+03  0.36515897771E+03  0.10562708620E+04  0.89555976641E+03 0.  0.
         23    2    4    4    0    0 -0.92265260051E+02  0.27925894236E+03  0.56720231924E+03  0.64529203401E+03  0.90470454272E+02 0.  0.
          4    1    3    3  502    0  0.39000333314E+02 -0.35023671313E+02 -0.22962654733E+02  0.57227327941E+02  0.00000000000E+00 0. -1.
         -3    1    3    3    0  502  0.35763978051E+03 -0.11668783088E+03 -0.19534979887E+02  0.37670131127E+03  0.00000000000E+00 0.  1.
         13    1    5    5    0    0 -0.36238907380E+02  0.30607743363E+02  0.51357734864E+02  0.69912154109E+02  0.00000000000E+00 0. -1.
        -13    1    5    5    0    0 -0.56026352671E+02  0.24865119900E+03  0.51584458438E+03  0.57537987990E+03  0.00000000000E+00 0.  1.
          2    1    4    4  503    0 -0.30285183113E+03 -0.83964391400E+02 -0.17729328411E+03  0.36083536306E+03  0.00000000000E+00 0.  1.
         -2    1    4    4    0  503 -0.15230226342E+01 -0.43583048766E+02 -0.24750057417E+02  0.50143464977E+02  0.00000000000E+00 0. -1.
<mgrwt>
<rscale>  0 0.14548485E+04</rscale>
<asrwt>0</asrwt>
<pdfrwt beam="1">  1        2 0.13945083E+00 0.14548485E+04</pdfrwt>
<pdfrwt beam="2">  1       -1 0.89810627E-01 0.14548485E+04</pdfrwt>
<totfact> 0.38989839E+01</totfact>
</mgrwt>
</event>
<event>
11    7  0.1497947E-008  0.1483006E+04  0.7818608E-02  0.8895833E-01
          2   -1    0    0  501    0  0.00000000000E+00  0.00000000000E+00  0.14441249192E+04  0.14441249192E+04  0.00000000000E+00 0. -1.
         -1   -1    0    0    0  501 -0.00000000000E+00 -0.00000000000E+00 -0.38073361944E+03  0.38073361944E+03  0.00000000000E+00 0.  1.
         24    2    1    2    0    0 -0.80988169062E+02 -0.39527363831E+03  0.58225562962E+02  0.41597951397E+03  0.82755103696E+02 0.  0.
        254    2    1    2    0    0  0.80988169062E+02  0.39527363831E+03  0.10051657368E+04  0.14088790247E+04  0.90098924248E+03 0.  0.
         23    2    4    4    0    0  0.46267651449E+03  0.24149992589E+03  0.70372428954E+03  0.88080420448E+03  0.90533969773E+02 0.  0.
          2    1    3    3  502    0  0.12506181989E+02 -0.12094693049E+02  0.96595287852E+00  0.17424673680E+02  0.00000000000E+00 0. -1.
         -1    1    3    3    0  502 -0.93494351051E+02 -0.38317894526E+03  0.57259610084E+02  0.39855484029E+03  0.00000000000E+00 0.  1.
         13    1    5    5    0    0  0.33961948981E+03  0.21315138745E+03  0.56971437291E+03  0.69667020787E+03  0.00000000000E+00 0.  1.
        -13    1    5    5    0    0  0.12305702467E+03  0.28348538435E+02  0.13400991663E+03  0.18413399661E+03  0.00000000000E+00 0. -1.
          2    1    4    4  503    0 -0.87890412089E+02  0.71677683367E+02  0.14842862264E+03  0.18679794123E+03  0.00000000000E+00 0. -1.
         -2    1    4    4    0  503 -0.29379793334E+03  0.82096029059E+02  0.15301282464E+03  0.34127687897E+03  0.00000000000E+00 0.  1.
<mgrwt>
<rscale>  0 0.14830063E+04</rscale>
<asrwt>0</asrwt>
<pdfrwt beam="1">  1        2 0.22217306E+00 0.14830063E+04</pdfrwt>
<pdfrwt beam="2">  1       -1 0.58574404E-01 0.14830063E+04</pdfrwt>
<totfact> 0.44462499E+01</totfact>
</mgrwt>
</event>
<event>
11    7  0.1497947E-008  0.1879637E+04  0.7818608E-02  0.8665059E-01
         -1   -1    0    0    0  501 -0.00000000000E+00  0.00000000000E+00  0.10337529779E+04  0.10337529779E+04  0.00000000000E+00 0.  1.
          2   -1    0    0  501    0  0.00000000000E+00 -0.00000000000E+00 -0.85441961444E+03  0.85441961444E+03  0.00000000000E+00 0. -1.
         24    2    1    2    0    0  0.21952730836E+03 -0.43039396094E+03  0.60528266844E+03  0.77832699885E+03  0.77424851852E+02 0.  0.
        254    2    1    2    0    0 -0.21952730836E+03  0.43039396094E+03 -0.42594930493E+03  0.11098455935E+04  0.90382145936E+03 0.  0.
         23    2    4    4    0    0  0.11755655275E+03  0.22328924996E+03 -0.60022272547E+03  0.65734409105E+03  0.90312245137E+02 0.  0.
          2    1    3    3  502    0  0.62653105866E+02 -0.19889361130E+03  0.23252265510E+03  0.31233133917E+03  0.00000000000E+00 0. -1.
         -1    1    3    3    0  502  0.15687420250E+03 -0.23150034964E+03  0.37276001334E+03  0.46599565968E+03  0.00000000000E+00 0.  1.
         13    1    5    5    0    0  0.58558104710E+02  0.43281979150E+02 -0.23343289002E+03  0.24452667644E+03  0.00000000000E+00 0.  1.
        -13    1    5    5    0    0  0.58998448039E+02  0.18000727081E+03 -0.36678983545E+03  0.41281741461E+03  0.00000000000E+00 0. -1.
          2    1    4    4  503    0 -0.38387147476E+02  0.78361372010E+01  0.67242797327E+02  0.77823980429E+02  0.00000000000E+00 0. -1.
         -2    1    4    4    0  503 -0.29869671364E+03  0.19926857378E+03  0.10703062321E+03  0.37467752206E+03  0.00000000000E+00 0.  1.
<mgrwt>
<rscale>  0 0.18796370E+04</rscale>
<asrwt>0</asrwt>
<pdfrwt beam="1">  1        2 0.13144917E+00 0.18796370E+04</pdfrwt>
<pdfrwt beam="2">  1       -1 0.15903892E+00 0.18796370E+04</pdfrwt>
<totfact> 0.10027085E+01</totfact>
</mgrwt>
</event>
<event>
12    7  0.1497947E-008  0.2323921E+04  0.7818608E-02  0.8468549E-01
          2   -1    0    0  501    0  0.00000000000E+00  0.00000000000E+00  0.34098734079E+04  0.34098734079E+04  0.00000000000E+00 0. -1.
         -1   -1    0    0    0  501 -0.00000000000E+00 -0.00000000000E+00 -0.39595392833E+03  0.39595392833E+03  0.00000000000E+00 0.  1.
         24    2    1    2    0    0  0.77429525992E+03 -0.87416027021E+02  0.22756990215E+04  0.24067422038E+04  0.80170366593E+02 0.  0.
        254    2    1    2    0    0 -0.77429525992E+03  0.87416027021E+02  0.73822045811E+03  0.13990851325E+04  0.89738233315E+03 0.  0.
         23    2    4    4    0    0  0.14732464677E+03  0.12694267126E+03  0.31690034101E+03  0.38263022620E+03  0.90338643669E+02 0.  0.
         23    2    4    4    0    0 -0.92161990668E+03 -0.39526644242E+02  0.42132011710E+03  0.10164549063E+04  0.68733743011E+02 0.  0.
          2    1    3    3  502    0  0.86334530669E+02  0.77653396751E+01  0.31327300238E+03  0.32504449804E+03  0.00000000000E+00 0. -1.
         -1    1    3    3    0  502  0.68796072925E+03 -0.95181366696E+02  0.19624260191E+04  0.20816977057E+04  0.00000000000E+00 0.  1.
         13    1    5    5    0    0  0.14762191391E+03  0.11075772314E+03  0.31657259385E+03  0.36643923081E+03  0.00000000000E+00 0.  1.
        -13    1    5    5    0    0 -0.29726713883E+00  0.16184948122E+02  0.32774715529E+00  0.16190995388E+02  0.00000000000E+00 0. -1.
          4    1    6    6  503    0 -0.49018043855E+03  0.13311523200E+02  0.22302795196E+03  0.53869799178E+03  0.00000000000E+00 0.  1.
         -4    1    6    6    0  503 -0.43143946813E+03 -0.52838167442E+02  0.19829216514E+03  0.47775691450E+03  0.00000000000E+00 0. -1.
<mgrwt>
<rscale>  0 0.23239215E+04</rscale>
<asrwt>0</asrwt>
<pdfrwt beam="1">  1        2 0.52459589E+00 0.23239215E+04</pdfrwt>
<pdfrwt beam="2">  1       -1 0.60915991E-01 0.23239215E+04</pdfrwt>
<totfact> 0.26463423E+00</totfact>
</mgrwt>
</event>
<event>
12    7  0.1497947E-008  0.1413956E+04  0.7818608E-02  0.8943778E-01
         -1   -1    0    0    0  501 -0.00000000000E+00  0.00000000000E+00  0.77891518967E+03  0.77891518967E+03  0.00000000000E+00 0.  1.
          2   -1    0    0  501    0  0.00000000000E+00 -0.00000000000E+00 -0.64168458307E+03  0.64168458307E+03  0.00000000000E+00 0. -1.
         24    2    1    2    0    0 -0.43553753336E+02  0.39112180131E+03  0.15393325514E+03  0.43019042512E+03  0.80592567549E+02 0.  0.
        254    2    1    2    0    0  0.43553753336E+02 -0.39112180131E+03 -0.16702648537E+02  0.99040934762E+03  0.90871255329E+03 0.  0.
         23    2    4    4    0    0  0.42379608160E+03 -0.13107442395E+03 -0.19360952016E+03  0.49277488588E+03  0.92513882536E+02 0.  0.
         23    2    4    4    0    0 -0.38024232826E+03 -0.26004737735E+03  0.17690687163E+03  0.49763446174E+03  0.64305128992E+02 0.  0.
          2    1    3    3  502    0 -0.14789601566E+02  0.71695203120E+01  0.34143682820E+01  0.16786668721E+02  0.00000000000E+00 0. -1.
         -1    1    3    3    0  502 -0.28764151771E+02  0.38395228099E+03  0.15051888685E+03  0.41340375640E+03  0.00000000000E+00 0.  1.
         13    1    5    5    0    0  0.42187042692E+03 -0.11829909662E+03 -0.19538481608E+03  0.47973384259E+03  0.00000000000E+00 0.  1.
        -13    1    5    5    0    0  0.19256546769E+01 -0.12775327332E+02  0.17752959208E+01  0.13041043286E+02  0.00000000000E+00 0. -1.
          1    1    6    6  503    0 -0.97639498840E+02 -0.10208242420E+03  0.58808279287E+02  0.15301211317E+03  0.00000000000E+00 0. -1.
         -1    1    6    6    0  503 -0.28260282942E+03 -0.15796495315E+03  0.11809859234E+03  0.34462234857E+03  0.00000000000E+00 0.  1.
<mgrwt>
<rscale>  0 0.14139560E+04</rscale>
<asrwt>0</asrwt>
<pdfrwt beam="1">  1        2 0.98720705E-01 0.14139560E+04</pdfrwt>
<pdfrwt beam="2">  1       -1 0.11983311E+00 0.14139560E+04</pdfrwt>
<totfact> 0.31537494E+01</totfact>
</mgrwt>
</event>
<event>
12    7  0.1497947E-008  0.2801299E+04  0.7818608E-02  0.8302865E-01
         -1   -1    0    0    0  501 -0.00000000000E+00  0.00000000000E+00  0.92366949135E+03  0.92366949135E+03  0.00000000000E+00 0.  1.
          2   -1    0    0  501    0  0.00000000000E+00 -0.00000000000E+00 -0.21239404787E+04  0.21239404787E+04  0.00000000000E+00 0. -1.
         24    2    1    2    0    0 -0.19733583222E+03  0.11100184370E+04 -0.11235889421E+04  0.15938637583E+04  0.82868618873E+02 0.  0.
        254    2    1    2    0    0  0.19733583222E+03 -0.11100184370E+04 -0.76682045152E+02  0.14537462117E+04  0.91455757107E+03 0.  0.
         23    2    4    4    0    0 -0.32621022321E+03 -0.68162594317E+03  0.13589920979E+02  0.76088345345E+03  0.87931266622E+02 0.  0.
         23    2    4    4    0    0  0.52354605543E+03 -0.42839249383E+03 -0.90271966130E+02  0.69286275824E+03  0.11953732872E+03 0.  0.
          2    1    3    3  502    0 -0.11339721379E+03  0.51921781617E+03 -0.47898043030E+03  0.71544973362E+03  0.00000000000E+00 0. -1.
         -1    1    3    3    0  502 -0.83938618430E+02  0.59080062083E+03 -0.64460851185E+03  0.87841402470E+03  0.00000000000E+00 0.  1.
         13    1    5    5    0    0 -0.79126336007E+01 -0.10184934403E+02 -0.11663283682E+02  0.17388928821E+02  0.00000000000E+00 0. -1.
        -13    1    5    5    0    0 -0.31829758961E+03 -0.67144100877E+03  0.25253204661E+02  0.74349452463E+03  0.00000000000E+00 0.  1.
          2    1    6    6  503    0  0.80345598595E+02 -0.30923193190E+02 -0.41427911446E+02  0.95540205869E+02  0.00000000000E+00 0. -1.
         -2    1    6    6    0  503  0.44320045684E+03 -0.39746930064E+03 -0.48844054684E+02  0.59732255237E+03  0.00000000000E+00 0.  1.
<mgrwt>
<rscale>  0 0.28012990E+04</rscale>
<asrwt>0</asrwt>
<pdfrwt beam="1">  1        2 0.32676007E+00 0.28012990E+04</pdfrwt>
<pdfrwt beam="2">  1       -1 0.14210300E+00 0.28012990E+04</pdfrwt>
<totfact> 0.22723253E+00</totfact>
</mgrwt>
</event>
<event>
11    7  0.1497947E-008  0.2463568E+04  0.7818608E-02  0.8416081E-01
          2   -1    0    0  501    0  0.00000000000E+00  0.00000000000E+00  0.49348010686E+04  0.49348010686E+04  0.00000000000E+00 0. -1.
         -1   -1    0    0    0  501 -0.00000000000E+00 -0.00000000000E+00 -0.30746764706E+03  0.30746764706E+03  0.00000000000E+00 0.  1.
         24    2    1    2    0    0  0.24646759975E+03 -0.21306335249E+03  0.41610420343E+04  0.41746229423E+04  0.84045400184E+02 0.  0.
        254    2    1    2    0    0 -0.24646759975E+03  0.21306335249E+03  0.46629138725E+03  0.10676457734E+04  0.90349187581E+03 0.  0.
         23    2    4    4    0    0  0.67119711105E+02  0.22365304424E+03  0.16638457195E+03  0.30058595651E+03  0.90234980215E+02 0.  0.
          4    1    3    3  502    0  0.24154678485E+03 -0.21599258130E+03  0.38752724994E+04  0.38887960334E+04  0.00000000000E+00 0. -1.
         -3    1    3    3    0  502  0.49208149023E+01  0.29292288156E+01  0.28576953484E+03  0.28582690888E+03  0.00000000000E+00 0.  1.
         13    1    5    5    0    0 -0.67981353811E+01  0.47983025995E+02  0.13604667862E+01  0.48481298437E+02  0.00000000000E+00 0. -1.
        -13    1    5    5    0    0  0.73917846486E+02  0.17567001824E+03  0.16502410516E+03  0.25210465808E+03  0.00000000000E+00 0.  1.
          2    1    4    4  503    0 -0.34376194896E+03 -0.17159796822E+03 -0.43418734419E+02  0.38665660055E+03  0.00000000000E+00 0.  1.
         -2    1    4    4    0  503  0.30174638105E+02  0.16100827647E+03  0.34332554972E+03  0.38040321629E+03  0.00000000000E+00 0. -1.
<mgrwt>
<rscale>  0 0.24635679E+04</rscale>
<asrwt>0</asrwt>
<pdfrwt beam="1">  1        2 0.75920010E+00 0.24635679E+04</pdfrwt>
<pdfrwt beam="2">  1       -1 0.47302719E-01 0.24635679E+04</pdfrwt>
<totfact> 0.18956284E-01</totfact>
</mgrwt>
</event>
<event>
12    7  0.1497947E-008  0.1240477E+04  0.7818608E-02  0.9078147E-01
         -1   -1    0    0    0  501 -0.00000000000E+00  0.00000000000E+00  0.41045808226E+03  0.41045808226E+03  0.00000000000E+00 0.  1.
          2   -1    0    0  501    0  0.00000000000E+00 -0.00000000000E+00 -0.93723542851E+03  0.93723542851E+03  0.00000000000E+00 0. -1.
         24    2    1    2    0    0 -0.16256330243E+03 -0.12019510752E+03 -0.34887132370E+03  0.41108273749E+03  0.80025779545E+02 0.  0.
        254    2    1    2    0    0  0.16256330243E+03  0.12019510752E+03 -0.17790602255E+03  0.93661077329E+03  0.89705936069E+03 0.  0.
         23    2    4    4    0    0 -0.22797086147E+03 -0.24039397855E+03  0.54881456939E+02  0.34695482974E+03  0.87210669985E+02 0.  0.
         23    2    4    4    0    0  0.39053416391E+03  0.36058908607E+03 -0.23278747948E+03  0.58965594355E+03  0.10470290823E+03 0.  0.
          2    1    3    3  502    0 -0.15304289564E+03 -0.11803817689E+03 -0.35135897580E+03  0.40100906347E+03  0.00000000000E+00 0. -1.
         -1    1    3    3    0  502 -0.95204067937E+01 -0.21569306346E+01  0.24876521017E+01  0.10073674020E+02  0.00000000000E+00 0.  1.
         13    1    5    5    0    0 -0.51426007263E+02 -0.17804974587E+02 -0.10504603138E+02  0.55425608072E+02  0.00000000000E+00 0.  1.
        -13    1    5    5    0    0 -0.17654485421E+03 -0.22258900396E+03  0.65386060077E+02  0.29152922166E+03  0.00000000000E+00 0. -1.
          1    1    6    6  503    0  0.23150257288E+03  0.21111794761E+03 -0.19248890894E+03  0.36771756705E+03  0.00000000000E+00 0. -1.
         -1    1    6    6    0  503  0.15903159103E+03  0.14947113845E+03 -0.40298570547E+02  0.22193837650E+03  0.00000000000E+00 0.  1.
<mgrwt>
<rscale>  0 0.12404771E+04</rscale>
<asrwt>0</asrwt>
<pdfrwt beam="1">  1        2 0.14419007E+00 0.12404771E+04</pdfrwt>
<pdfrwt beam="2">  1       -1 0.63147398E-01 0.12404771E+04</pdfrwt>
<totfact> 0.79073855E+01</totfact>
</mgrwt>
</event>
<event>
11    7  0.1497947E-008  0.2164150E+04  0.7818608E-02  0.8533500E-01
          2   -1    0    0  501    0  0.00000000000E+00  0.00000000000E+00  0.29904558905E+04  0.29904558905E+04  0.00000000000E+00 0. -1.
         -1   -1    0    0    0  501 -0.00000000000E+00 -0.00000000000E+00 -0.39154100512E+03  0.39154100512E+03  0.00000000000E+00 0.  1.
         24    2    1    2    0    0 -0.85294831971E+03 -0.57014373680E+02  0.15088214787E+04  0.17359673049E+04  0.79175464740E+02 0.  0.
        254    2    1    2    0    0  0.85294831971E+03  0.57014373680E+02  0.10900934067E+04  0.16460295908E+04  0.88900973187E+03 0.  0.
         23    2    4    4    0    0  0.39149788464E+03  0.20558583288E+03  0.97827866100E+03  0.10773767007E+04  0.90417300246E+02 0.  0.
          2    1    3    3  502    0 -0.56397712749E+02 -0.70742857500E+01  0.14553021344E+03  0.15623632915E+03  0.00000000000E+00 0. -1.
         -1    1    3    3    0  502 -0.79655060696E+03 -0.49940087930E+02  0.13632912652E+04  0.15797309757E+04  0.00000000000E+00 0.  1.
         13    1    5    5    0    0  0.21468201294E+02 -0.66551343588E+01  0.29279107600E+02  0.36911253325E+02  0.00000000000E+00 0. -1.
        -13    1    5    5    0    0  0.37002968335E+03  0.21224096724E+03  0.94899955340E+03  0.10404654473E+04  0.00000000000E+00 0.  1.
          1    1    4    4  503    0  0.32460052671E+03 -0.95909674384E+02  0.20424163679E+03  0.39532115271E+03  0.00000000000E+00 0. -1.
         -1    1    4    4    0  503  0.13684990835E+03 -0.52661784821E+02 -0.92426891059E+02  0.17333173739E+03  0.00000000000E+00 0.  1.
<mgrwt>
<rscale>  0 0.21641498E+04</rscale>
<asrwt>0</asrwt>
<pdfrwt beam="1">  1        2 0.46007012E+00 0.21641498E+04</pdfrwt>
<pdfrwt beam="2">  1       -1 0.60237080E-01 0.21641498E+04</pdfrwt>
<totfact> 0.51534755E+00</totfact>
</mgrwt>
</event>
<event>
12    7  0.1497947E-008  0.1438559E+04  0.7818608E-02  0.8926371E-01
         -1   -1    0    0    0  501 -0.00000000000E+00  0.00000000000E+00  0.42337141288E+03  0.42337141288E+03  0.00000000000E+00 0.  1.
          2   -1    0    0  501    0  0.00000000000E+00 -0.00000000000E+00 -0.12220067639E+04  0.12220067639E+04  0.00000000000E+00 0. -1.
         24    2    1    2    0    0 -0.12331433389E+03 -0.25157881218E+03 -0.61643874733E+03  0.68193085358E+03  0.80837096474E+02 0.  0.
        254    2    1    2    0    0  0.12331433389E+03  0.25157881218E+03 -0.18219660372E+03  0.96344732324E+03  0.90362426847E+03 0.  0.
         23    2    4    4    0    0  0.36004792394E+03  0.10218891200E+03 -0.43548067123E+03  0.58154102066E+03  0.92029682284E+02 0.  0.
         23    2    4    4    0    0 -0.23673359005E+03  0.14938990017E+03  0.25328406752E+03  0.38190630257E+03  0.57788148930E+02 0.  0.
          2    1    3    3  502    0 -0.11260801305E+03 -0.14089348211E+03 -0.37602474128E+03  0.41704453474E+03  0.00000000000E+00 0. -1.
         -1    1    3    3    0  502 -0.10706320837E+02 -0.11068533007E+03 -0.24041400605E+03  0.26488631883E+03  0.00000000000E+00 0.  1.
         13    1    5    5    0    0  0.24157486297E+03  0.40249439537E+02 -0.22729979413E+03  0.33413115420E+03  0.00000000000E+00 0.  1.
        -13    1    5    5    0    0  0.11847306098E+03  0.61939472468E+02 -0.20818087711E+03  0.24740986646E+03  0.00000000000E+00 0. -1.
          2    1    6    6  503    0 -0.24376736828E+02  0.30973685543E+02  0.57626827806E+02  0.69817231236E+02  0.00000000000E+00 0. -1.
         -2    1    6    6    0  503 -0.21235685322E+03  0.11841621463E+03  0.19565723971E+03  0.31208907134E+03  0.00000000000E+00 0.  1.
<mgrwt>
<rscale>  0 0.14385586E+04</rscale>
<asrwt>0</asrwt>
<pdfrwt beam="1">  1        2 0.18800104E+00 0.14385586E+04</pdfrwt>
<pdfrwt beam="2">  1       -1 0.65134064E-01 0.14385586E+04</pdfrwt>
<totfact> 0.48599010E+01</totfact>
</mgrwt>
</event>
<event>
12    7  0.1497947E-008  0.1578945E+04  0.7818608E-02  0.8833589E-01
         -1   -1    0    0    0  501 -0.00000000000E+00  0.00000000000E+00  0.35066997114E+03  0.35066997114E+03  0.00000000000E+00 0.  1.
          2   -1    0    0  501    0  0.00000000000E+00 -0.00000000000E+00 -0.17773593871E+04  0.17773593871E+04  0.00000000000E+00 0. -1.
         24    2    1    2    0    0 -0.14179840069E+03 -0.31737737214E+03 -0.10468728887E+04  0.11059659618E+04  0.79891681220E+02 0.  0.
        254    2    1    2    0    0  0.14179840069E+03  0.31737737214E+03 -0.37981652729E+03  0.10220633965E+04  0.88290305769E+03 0.  0.
         23    2    4    4    0    0 -0.19760813480E+03 -0.75536457970E+02 -0.42824362934E+03  0.48742990568E+03  0.97162623801E+02 0.  0.
         23    2    4    4    0    0  0.33940653549E+03  0.39291383011E+03  0.48427102044E+02  0.53463349082E+03  0.11793943812E+03 0.  0.
          4    1    3    3  502    0 -0.30225775551E+02 -0.29593555653E+02 -0.20442183419E+03  0.20875263432E+03  0.00000000000E+00 0. -1.
         -3    1    3    3    0  502 -0.11157262514E+03 -0.28778381649E+03 -0.84245105449E+03  0.89721332743E+03  0.00000000000E+00 0.  1.
         13    1    5    5    0    0 -0.39921286056E+02 -0.14402326939E+02 -0.22910371562E+02  0.48228842270E+02  0.00000000000E+00 0. -1.
        -13    1    5    5    0    0 -0.15768684875E+03 -0.61134131031E+02 -0.40533325777E+03  0.43920106341E+03  0.00000000000E+00 0.  1.
          4    1    6    6  503    0  0.17557166984E+03  0.19703299392E+03  0.83657145774E+02  0.27685001351E+03  0.00000000000E+00 0.  1.
         -4    1    6    6    0  503  0.16383486565E+03  0.19588083619E+03 -0.35230043729E+02  0.25778347730E+03  0.00000000000E+00 0. -1.
<mgrwt>
<rscale>  0 0.15789447E+04</rscale>
<asrwt>0</asrwt>
<pdfrwt beam="1">  1        2 0.27343990E+00 0.15789447E+04</pdfrwt>
<pdfrwt beam="2">  1       -1 0.53949227E-01 0.15789447E+04</pdfrwt>
<totfact> 0.33707249E+01</totfact>
</mgrwt>
</event>
<event>
12    7  0.1497947E-008  0.1490197E+04  0.7818608E-02  0.8890998E-01
         -3   -1    0    0    0  501 -0.00000000000E+00  0.00000000000E+00  0.18012073054E+03  0.18012073054E+03  0.00000000000E+00 0.  1.
          2   -1    0    0  501    0  0.00000000000E+00 -0.00000000000E+00 -0.30822205550E+04  0.30822205550E+04  0.00000000000E+00 0. -1.
         24    2    1    2    0    0  0.20342132165E+03 -0.13013102552E+03 -0.24862829919E+01  0.25409006914E+03  0.79001669165E+02 0.  0.
        254    2    1    2    0    0 -0.20342132165E+03  0.13013102552E+03 -0.28996135415E+04  0.30082512164E+04  0.76387327041E+03 0.  0.
         23    2    4    4    0    0 -0.39546655059E+03  0.16797518966E+03 -0.93988541419E+03  0.10376054315E+04  0.92903082219E+02 0.  0.
         23    2    4    4    0    0  0.19204522895E+03 -0.37844164145E+02 -0.19597281273E+04  0.19706457849E+04  0.67800634303E+02 0.  0.
          2    1    3    3  502    0  0.12848301831E+03 -0.81386002393E+02 -0.39809892530E+02  0.15721448700E+03  0.00000000000E+00 0. -1.
         -1    1    3    3    0  502  0.74938303334E+02 -0.48745023126E+02  0.37323609538E+02  0.96875582141E+02  0.00000000000E+00 0.  1.
         13    1    5    5    0    0 -0.88959646011E+02  0.46737462587E+01 -0.14524176514E+03  0.17038436801E+03  0.00000000000E+00 0.  1.
        -13    1    5    5    0    0 -0.30650690458E+03  0.16330144341E+03 -0.79464364905E+03  0.86722106348E+03  0.00000000000E+00 0. -1.
          1    1    6    6  503    0  0.17088420697E+03 -0.86845255331E+01 -0.16097976470E+04  0.16188654352E+04  0.00000000000E+00 0. -1.
         -1    1    6    6    0  503  0.21161021982E+02 -0.29159638612E+02 -0.34993048033E+03  0.35178034970E+03  0.00000000000E+00 0.  1.
<mgrwt>
<rscale>  0 0.14901971E+04</rscale>
<asrwt>0</asrwt>
<pdfrwt beam="1">  1        2 0.47418781E+00 0.14901971E+04</pdfrwt>
<pdfrwt beam="2">  1       -3 0.27710880E-01 0.14901971E+04</pdfrwt>
<totfact> 0.12349292E+01</totfact>
</mgrwt>
</event>
<event>
11    7  0.1497947E-008  0.1607509E+04  0.7818608E-02  0.8815948E-01
         -1   -1    0    0    0  501 -0.00000000000E+00  0.00000000000E+00  0.31175774312E+03  0.31175774312E+03  0.00000000000E+00 0.  1.
          2   -1    0    0  501    0  0.00000000000E+00 -0.00000000000E+00 -0.20721900875E+04  0.20721900875E+04  0.00000000000E+00 0. -1.
         24    2    1    2    0    0  0.39240371554E+03  0.22033179213E+03 -0.14708854296E+03  0.48026723768E+03  0.80590356293E+02 0.  0.
        254    2    1    2    0    0 -0.39240371554E+03 -0.22033179213E+03 -0.16133438015E+04  0.19036805930E+04  0.90476229129E+03 0.  0.
         23    2    4    4    0    0 -0.46212018152E+03  0.20558768400E+03 -0.95948201170E+03  0.10884167868E+04  0.90686344138E+02 0.  0.
          2    1    3    3  502    0  0.97384758423E+02  0.71609110125E+02 -0.74528567258E+02  0.14200761657E+03  0.00000000000E+00 0. -1.
         -1    1    3    3    0  502  0.29501895712E+03  0.14872268200E+03 -0.72559975697E+02  0.33825962111E+03  0.00000000000E+00 0.  1.
         13    1    5    5    0    0 -0.37894346791E+03  0.15218779002E+03 -0.83462864308E+03  0.92917395958E+03  0.00000000000E+00 0. -1.
        -13    1    5    5    0    0 -0.83176713611E+02  0.53399893981E+02 -0.12485336862E+03  0.15924282722E+03  0.00000000000E+00 0.  1.
          2    1    4    4  503    0  0.56290846424E+02 -0.38699902011E+03 -0.40490381755E+03  0.56292450863E+03  0.00000000000E+00 0. -1.
         -2    1    4    4    0  503  0.13425619552E+02 -0.38920456027E+02 -0.24895797220E+03  0.25233929754E+03  0.00000000000E+00 0.  1.
<mgrwt>
<rscale>  0 0.16075090E+04</rscale>
<asrwt>0</asrwt>
<pdfrwt beam="1">  1        2 0.31879848E+00 0.16075090E+04</pdfrwt>
<pdfrwt beam="2">  1       -1 0.47962729E-01 0.16075090E+04</pdfrwt>
<totfact> 0.28887543E+01</totfact>
</mgrwt>
</event>
<event>
12    7  0.1497947E-008  0.2625097E+04  0.7818608E-02  0.8359726E-01
          2   -1    0    0  501    0  0.00000000000E+00  0.00000000000E+00  0.16018133448E+04  0.16018133448E+04  0.00000000000E+00 0. -1.
         -1   -1    0    0    0  501 -0.00000000000E+00 -0.00000000000E+00 -0.10755211769E+04  0.10755211769E+04  0.00000000000E+00 0.  1.
         24    2    1    2    0    0 -0.20313991166E+03 -0.46411067079E+03  0.12905713202E+04  0.13888115182E+04  0.80984950168E+02 0.  0.
        254    2    1    2    0    0  0.20313991166E+03  0.46411067079E+03 -0.76427915232E+03  0.12885230035E+04  0.90526480623E+03 0.  0.
         23    2    4    4    0    0 -0.27490050766E+03  0.59201389601E+02 -0.18234546874E+01  0.29582959783E+03  0.91851686574E+02 0.  0.
         23    2    4    4    0    0  0.47804041932E+03  0.40490928119E+03 -0.76245569763E+03  0.99269340565E+03  0.10783013624E+03 0.  0.
          2    1    3    3  502    0 -0.10897307637E+03 -0.26971297055E+03  0.84442224229E+03  0.89312325081E+03  0.00000000000E+00 0. -1.
         -1    1    3    3    0  502 -0.94166835292E+02 -0.19439770024E+03  0.44614907792E+03  0.49568826741E+03  0.00000000000E+00 0.  1.
         13    1    5    5    0    0 -0.23967155213E+03  0.79629536433E+02 -0.15078684393E+02  0.25300332546E+03  0.00000000000E+00 0. -1.
        -13    1    5    5    0    0 -0.35228955526E+02 -0.20428146832E+02  0.13255229705E+02  0.42826272368E+02  0.00000000000E+00 0.  1.
          2    1    6    6  503    0  0.89831832659E+02  0.13608197974E+03 -0.18000745285E+03  0.24288010715E+03  0.00000000000E+00 0. -1.
         -2    1    6    6    0  503  0.38820858666E+03  0.26882730145E+03 -0.58244824478E+03  0.74981329850E+03  0.00000000000E+00 0.  1.
<mgrwt>
<rscale>  0 0.26250975E+04</rscale>
<asrwt>0</asrwt>
<pdfrwt beam="1">  1        2 0.24643282E+00 0.26250975E+04</pdfrwt>
<pdfrwt beam="2">  1       -1 0.16546480E+00 0.26250975E+04</pdfrwt>
<totfact> 0.29731412E+00</totfact>
</mgrwt>
</event>
<event>
11    7  0.1497947E-008  0.1843245E+04  0.7818608E-02  0.8683634E-01
          2   -1    0    0  501    0  0.00000000000E+00  0.00000000000E+00  0.27432899833E+04  0.27432899833E+04  0.00000000000E+00 0. -1.
         -1   -1    0    0    0  501 -0.00000000000E+00 -0.00000000000E+00 -0.30962392975E+03  0.30962392975E+03  0.00000000000E+00 0.  1.
         24    2    1    2    0    0  0.46474860594E+03 -0.24382219079E+03  0.16934665526E+04  0.17746918053E+04  0.79129713873E+02 0.  0.
        254    2    1    2    0    0 -0.46474860594E+03  0.24382219079E+03  0.74019950094E+03  0.12782221077E+04  0.90028658107E+03 0.  0.
         23    2    4    4    0    0 -0.58267054817E+03  0.44101511610E+03  0.51438076576E+03  0.89845824652E+03  0.92953473429E+02 0.  0.
          2    1    3    3  502    0  0.42844842046E+03 -0.19846554518E+03  0.14831662179E+04  0.15565149057E+04  0.00000000000E+00 0. -1.
         -1    1    3    3    0  502  0.36300185478E+02 -0.45356645615E+02  0.21030033464E+03  0.21817689959E+03  0.00000000000E+00 0.  1.
         13    1    5    5    0    0 -0.36035606570E+03  0.29921433755E+03  0.37619317963E+03  0.60075537641E+03  0.00000000000E+00 0.  1.
        -13    1    5    5    0    0 -0.22231448247E+03  0.14180077854E+03  0.13818758613E+03  0.29770287011E+03  0.00000000000E+00 0. -1.
          2    1    4    4  503    0  0.83618573769E+02 -0.16936642201E+03  0.26177743455E+03  0.32280718088E+03  0.00000000000E+00 0. -1.
         -2    1    4    4    0  503  0.34303368466E+02 -0.27826503289E+02 -0.35958699377E+02  0.56956680331E+02  0.00000000000E+00 0.  1.
<mgrwt>
<rscale>  0 0.18432452E+04</rscale>
<asrwt>0</asrwt>
<pdfrwt beam="1">  1        2 0.42204460E+00 0.18432452E+04</pdfrwt>
<pdfrwt beam="2">  1       -1 0.47634453E-01 0.18432452E+04</pdfrwt>
<totfact> 0.11816166E+01</totfact>
</mgrwt>
</event>
<event>
11    7  0.1497947E-008  0.3295959E+04  0.7818608E-02  0.8163924E-01
         -1   -1    0    0    0  501 -0.00000000000E+00  0.00000000000E+00  0.14411984069E+04  0.14411984069E+04  0.00000000000E+00 0.  1.
          2   -1    0    0  501    0  0.00000000000E+00 -0.00000000000E+00 -0.18844290573E+04  0.18844290573E+04  0.00000000000E+00 0. -1.
         24    2    1    2    0    0  0.13582130860E+04 -0.43664091239E+03  0.33983272497E+03  0.14688118455E+04  0.80770558693E+02 0.  0.
        254    2    1    2    0    0 -0.13582130860E+04  0.43664091239E+03 -0.78306337541E+03  0.18568156186E+04  0.89396751527E+03 0.  0.
         23    2    4    4    0    0 -0.81286575117E+03  0.67140615158E+03 -0.38137652943E+03  0.11250814614E+04  0.93932357716E+02 0.  0.
          2    1    3    3  502    0  0.55191034394E+02 -0.20152948303E+01  0.17052547453E+02  0.57800528245E+02  0.00000000000E+00 0. -1.
         -1    1    3    3    0  502  0.13030220516E+04 -0.43462561756E+03  0.32278017752E+03  0.14110113173E+04  0.00000000000E+00 0.  1.
         13    1    5    5    0    0 -0.58402244070E+03  0.43227657255E+03 -0.24056077353E+03  0.76538534881E+03  0.00000000000E+00 0.  1.
        -13    1    5    5    0    0 -0.22884331047E+03  0.23912957904E+03 -0.14081575590E+03  0.35969611261E+03  0.00000000000E+00 0. -1.
          4    1    4    4  503    0 -0.25807917212E+03 -0.62875002602E+02 -0.10922237961E+03  0.28720663858E+03  0.00000000000E+00 0. -1.
         -4    1    4    4    0  503 -0.28726816272E+03 -0.17189023659E+03 -0.29246446637E+03  0.44452751864E+03  0.00000000000E+00 0.  1.
<mgrwt>
<rscale>  0 0.32959588E+04</rscale>
<asrwt>0</asrwt>
<pdfrwt beam="1">  1        2 0.28991216E+00 0.32959588E+04</pdfrwt>
<pdfrwt beam="2">  1       -1 0.22172283E+00 0.32959588E+04</pdfrwt>
<totfact> 0.78907367E-01</totfact>
</mgrwt>
</event>
<event>
12    7  0.1497947E-008  0.2195839E+04  0.7818608E-02  0.8520162E-01
         -1   -1    0    0    0  501 -0.00000000000E+00  0.00000000000E+00  0.36750675552E+03  0.36750675552E+03  0.00000000000E+00 0.  1.
          2   -1    0    0  501    0  0.00000000000E+00 -0.00000000000E+00 -0.32800138382E+04  0.32800138382E+04  0.00000000000E+00 0. -1.
         24    2    1    2    0    0 -0.41704828394E+02 -0.28095001853E+03 -0.26599644848E+04  0.26762879608E+04  0.80212114367E+02 0.  0.
        254    2    1    2    0    0  0.41704828394E+02  0.28095001853E+03 -0.25254259791E+03  0.97123263290E+03  0.89378009479E+03 0.  0.
         23    2    4    4    0    0  0.32892323729E+03  0.36455906473E+03 -0.38319309396E+03  0.62865256545E+03  0.85283603793E+02 0.  0.
         23    2    4    4    0    0 -0.28721840890E+03 -0.83609046202E+02  0.13065049605E+03  0.34258006745E+03  0.10395510319E+03 0.  0.
          4    1    3    3  502    0  0.48082759171E+01 -0.21121027770E+03 -0.18831441700E+04  0.18949577478E+04  0.00000000000E+00 0. -1.
         -1    1    3    3    0  502 -0.46513104311E+02 -0.69739740833E+02 -0.77682031474E+03  0.78133021298E+03  0.00000000000E+00 0.  1.
         13    1    5    5    0    0  0.26176900094E+03  0.30668461814E+03 -0.35020595422E+03  0.53406242634E+03  0.00000000000E+00 0.  1.
        -13    1    5    5    0    0  0.67154236352E+02  0.57874446592E+02 -0.32987139743E+02  0.94590139110E+02  0.00000000000E+00 0. -1.
          1    1    6    6  503    0 -0.46285615317E+02 -0.17772564344E+02 -0.17026159791E+02  0.52422441242E+02  0.00000000000E+00 0. -1.
         -1    1    6    6    0  503 -0.24093279358E+03 -0.65836481858E+02  0.14767665585E+03  0.29015762621E+03  0.00000000000E+00 0.  1.
<mgrwt>
<rscale>  0 0.21958390E+04</rscale>
<asrwt>0</asrwt>
<pdfrwt beam="1">  1        2 0.50461750E+00 0.21958390E+04</pdfrwt>
<pdfrwt beam="2">  1       -1 0.56539502E-01 0.21958390E+04</pdfrwt>
<totfact> 0.37922835E+00</totfact>
</mgrwt>
</event>
<event>
12    7  0.1497947E-008  0.4758975E+04  0.7818608E-02  0.7866803E-01
          2   -1    0    0  501    0  0.00000000000E+00  0.00000000000E+00  0.49928157074E+04  0.49928157074E+04  0.00000000000E+00 0. -1.
         -1   -1    0    0    0  501 -0.00000000000E+00 -0.00000000000E+00 -0.11340216151E+04  0.11340216151E+04  0.00000000000E+00 0.  1.
         24    2    1    2    0    0 -0.21344954881E+04 -0.32015887150E+03  0.28478018456E+04  0.35742313187E+04  0.81126296290E+02 0.  0.
        254    2    1    2    0    0  0.21344954881E+04  0.32015887150E+03  0.10109922467E+04  0.25526060037E+04  0.91384867207E+03 0.  0.
         23    2    4    4    0    0  0.41217299161E+03 -0.77812959925E+02 -0.12666242351E+03  0.44767396142E+03  0.91799643058E+02 0.  0.
         23    2    4    4    0    0  0.17223224965E+04  0.39797183143E+03  0.11376546702E+04  0.21049320423E+04  0.10818684468E+03 0.  0.
          2    1    3    3  502    0 -0.18547316185E+04 -0.29166189080E+03  0.25151692676E+04  0.31386577513E+04  0.00000000000E+00 0. -1.
         -1    1    3    3    0  502 -0.27976386965E+03 -0.28496980705E+02  0.33263257799E+03  0.43557356739E+03  0.00000000000E+00 0.  1.
         13    1    5    5    0    0  0.16221411465E+03 -0.58869559916E+02 -0.14886592475E+02  0.17320697074E+03  0.00000000000E+00 0. -1.
        -13    1    5    5    0    0  0.24995887695E+03 -0.18943400009E+02 -0.11177583104E+03  0.27446699069E+03  0.00000000000E+00 0.  1.
          2    1    6    6  503    0  0.12433479578E+03  0.45315559645E+02  0.11425778618E+03  0.17483558874E+03  0.00000000000E+00 0. -1.
         -2    1    6    6    0  503  0.15979877008E+04  0.35265627178E+03  0.10233968840E+04  0.19300964535E+04  0.00000000000E+00 0.  1.
<mgrwt>
<rscale>  0 0.47589751E+04</rscale>
<asrwt>0</asrwt>
<pdfrwt beam="1">  1        2 0.76812548E+00 0.47589751E+04</pdfrwt>
<pdfrwt beam="2">  1       -1 0.17446487E+00 0.47589751E+04</pdfrwt>
<totfact> 0.66207111E-03</totfact>
</mgrwt>
</event>
<event>
12    7  0.1497947E-008  0.2430550E+04  0.7818608E-02  0.8428154E-01
          2   -1    0    0  501    0  0.00000000000E+00  0.00000000000E+00  0.27651573653E+04  0.27651573653E+04  0.00000000000E+00 0. -1.
         -1   -1    0    0    0  501 -0.00000000000E+00 -0.00000000000E+00 -0.53410818713E+03  0.53410818713E+03  0.00000000000E+00 0.  1.
         24    2    1    2    0    0  0.47963157447E+03 -0.16137972032E+03  0.22094107706E+04  0.22680918785E+04  0.81577905442E+02 0.  0.
        254    2    1    2    0    0 -0.47963157447E+03  0.16137972032E+03  0.21638407525E+02  0.10311736739E+04  0.89819878852E+03 0.  0.
         23    2    4    4    0    0  0.25242450122E+03  0.58763367801E+02 -0.42622656950E+02  0.27837705998E+03  0.92227080752E+02 0.  0.
         23    2    4    4    0    0 -0.73205607569E+03  0.10261635252E+03  0.64261064475E+02  0.75279661392E+03  0.12703166439E+03 0.  0.
          4    1    3    3  502    0  0.44769001302E+03 -0.16303069112E+03  0.21265928664E+04  0.21793124084E+04  0.00000000000E+00 0. -1.
         -3    1    3    3    0  502  0.31941561451E+02  0.16509708017E+01  0.82817904274E+02  0.88779470154E+02  0.00000000000E+00 0.  1.
         13    1    5    5    0    0  0.35674240116E+02  0.39131160275E+02  0.11332961645E+02  0.54151039990E+02  0.00000000000E+00 0.  1.
        -13    1    5    5    0    0  0.21675026110E+03  0.19632207526E+02 -0.53955618595E+02  0.22422601999E+03  0.00000000000E+00 0. -1.
          4    1    6    6  503    0 -0.71327653381E+03  0.12134647979E+03  0.62149566169E+02  0.72618933510E+03  0.00000000000E+00 0. -1.
         -4    1    6    6    0  503 -0.18779541882E+02 -0.18730127272E+02  0.21114983062E+01  0.26607278817E+02  0.00000000000E+00 0.  1.
<mgrwt>
<rscale>  0 0.24305499E+04</rscale>
<asrwt>0</asrwt>
<pdfrwt beam="1">  1        2 0.42540881E+00 0.24305499E+04</pdfrwt>
<pdfrwt beam="2">  1       -1 0.82170493E-01 0.24305499E+04</pdfrwt>
<totfact> 0.36478139E+00</totfact>
</mgrwt>
</event>
<event>
12    7  0.1497947E-008  0.1280292E+04  0.7818608E-02  0.9045341E-01
          2   -1    0    0  501    0  0.00000000000E+00  0.00000000000E+00  0.19994795085E+04  0.19994795085E+04  0.00000000000E+00 0. -1.
         -1   -1    0    0    0  501 -0.00000000000E+00 -0.00000000000E+00 -0.20494693303E+03  0.20494693303E+03  0.00000000000E+00 0.  1.
         24    2    1    2    0    0 -0.11223651074E+03 -0.13359069112E+03  0.92132488250E+03  0.94141595751E+03  0.83552132594E+02 0.  0.
        254    2    1    2    0    0  0.11223651074E+03  0.13359069112E+03  0.87320769295E+03  0.12630104840E+04  0.89568984618E+03 0.  0.
         23    2    4    4    0    0 -0.27766431297E+02 -0.29887173067E+03  0.51740454312E+02  0.31821226857E+03  0.92123217227E+02 0.  0.
         23    2    4    4    0    0  0.14000294203E+03  0.43246242179E+03  0.82146723864E+03  0.94479821543E+03  0.10588046884E+03 0.  0.
          2    1    3    3  502    0 -0.11104864760E+03 -0.74383670311E+02  0.67089941355E+03  0.68408388056E+03  0.00000000000E+00 0. -1.
         -1    1    3    3    0  502 -0.11878631317E+01 -0.59207020806E+02  0.25042546895E+03  0.25733207695E+03  0.00000000000E+00 0.  1.
         13    1    5    5    0    0  0.15018568772E+02 -0.81304636167E+02  0.49701439364E+02  0.96468825768E+02  0.00000000000E+00 0.  1.
        -13    1    5    5    0    0 -0.42785000069E+02 -0.21756709451E+03  0.20390149476E+01  0.22174344280E+03  0.00000000000E+00 0. -1.
          3    1    6    6  503    0  0.13593858218E+03  0.43866392417E+03  0.80625773044E+03  0.92787761282E+03  0.00000000000E+00 0. -1.
         -3    1    6    6    0  503  0.40643598537E+01 -0.62015023769E+01  0.15209508201E+02  0.16920602603E+02  0.00000000000E+00 0.  1.
<mgrwt>
<rscale>  0 0.12802925E+04</rscale>
<asrwt>0</asrwt>
<pdfrwt beam="1">  1        2 0.30761222E+00 0.12802925E+04</pdfrwt>
<pdfrwt beam="2">  1       -1 0.31530299E-01 0.12802925E+04</pdfrwt>
<totfact> 0.69932548E+01</totfact>
</mgrwt>
</event>
<event>
11    7  0.1497947E-008  0.2069108E+04  0.7818608E-02  0.8574975E-01
          2   -1    0    0  501    0  0.00000000000E+00  0.00000000000E+00  0.86683612204E+03  0.86683612204E+03  0.00000000000E+00 0. -1.
         -1   -1    0    0    0  501 -0.00000000000E+00 -0.00000000000E+00 -0.12347228795E+04  0.12347228795E+04  0.00000000000E+00 0.  1.
         24    2    1    2    0    0 -0.29850451011E+02 -0.67105584462E+02 -0.10017697587E+04  0.10077129988E+04  0.80923603066E+02 0.  0.
        254    2    1    2    0    0  0.29850451011E+02  0.67105584462E+02  0.63388300126E+03  0.10938460028E+04  0.88842400328E+03 0.  0.
         23    2    4    4    0    0 -0.84073114587E+02 -0.37147937207E+03  0.22454705089E+03  0.45158639276E+03  0.91889496604E+02 0.  0.
          4    1    3    3  502    0  0.28152907644E+02 -0.23159909676E+02 -0.31913189683E+03  0.32120730876E+03  0.00000000000E+00 0. -1.
         -3    1    3    3    0  502 -0.58003358655E+02 -0.43945674786E+02 -0.68263786186E+03  0.68650568999E+03  0.00000000000E+00 0.  1.
         13    1    5    5    0    0  0.11114509407E+02 -0.13657247618E+02  0.26123883815E+02  0.31504127308E+02  0.00000000000E+00 0.  1.
        -13    1    5    5    0    0 -0.95187623994E+02 -0.35782212446E+03  0.19842316707E+03  0.42008226545E+03  0.00000000000E+00 0. -1.
          2    1    4    4  503    0  0.12179685865E+03  0.45796525788E+03  0.38918731649E+03  0.61321563868E+03  0.00000000000E+00 0. -1.
         -2    1    4    4    0  503 -0.78732930510E+01 -0.19380301346E+02  0.20148633877E+02  0.29043971334E+02  0.00000000000E+00 0.  1.
<mgrwt>
<rscale>  0 0.20691084E+04</rscale>
<asrwt>0</asrwt>
<pdfrwt beam="1">  1        2 0.13335940E+00 0.20691084E+04</pdfrwt>
<pdfrwt beam="2">  1       -1 0.18995737E+00 0.20691084E+04</pdfrwt>
<totfact> 0.57581137E+00</totfact>
</mgrwt>
</event>
<event>
12    7  0.1497947E-008  0.1408721E+04  0.7818608E-02  0.8947530E-01
          2   -1    0    0  501    0  0.00000000000E+00  0.00000000000E+00  0.13664523136E+04  0.13664523136E+04  0.00000000000E+00 0. -1.
         -1   -1    0    0    0  501 -0.00000000000E+00 -0.00000000000E+00 -0.36307413126E+03  0.36307413126E+03  0.00000000000E+00 0.  1.
         24    2    1    2    0    0  0.33944336527E+03 -0.19020893952E+03  0.71866309855E+02  0.40364356588E+03  0.79762916732E+02 0.  0.
        254    2    1    2    0    0 -0.33944336527E+03  0.19020893952E+03  0.93151187249E+03  0.13258828790E+04  0.85956372732E+03 0.  0.
         23    2    4    4    0    0  0.35480093649E+02  0.34694630199E+03  0.63241753590E+02  0.36523784081E+03  0.88139590723E+02 0.  0.
         23    2    4    4    0    0 -0.37492345891E+03 -0.15673736247E+03  0.86827011890E+03  0.96064503818E+03  0.61738878878E+02 0.  0.
          4    1    3    3  502    0  0.77920984557E+02 -0.20291478606E+02 -0.10170667934E+02  0.81159512225E+02  0.00000000000E+00 0. -1.
         -3    1    3    3    0  502  0.26152238071E+03 -0.16991746091E+03  0.82036977789E+02  0.32248405365E+03  0.00000000000E+00 0.  1.
         13    1    5    5    0    0  0.57635082461E+02  0.31424741954E+03  0.63505032204E+02  0.32573936289E+03  0.00000000000E+00 0. -1.
        -13    1    5    5    0    0 -0.22154988812E+02  0.32698882451E+02 -0.26327861400E+00  0.39498477926E+02  0.00000000000E+00 0.  1.
          1    1    6    6  503    0 -0.17335603752E+03 -0.83001287907E+02  0.34231947921E+03  0.39258649415E+03  0.00000000000E+00 0. -1.
         -1    1    6    6    0  503 -0.20156742139E+03 -0.73736074567E+02  0.52595063968E+03  0.56805854403E+03  0.00000000000E+00 0.  1.
<mgrwt>
<rscale>  0 0.14087207E+04</rscale>
<asrwt>0</asrwt>
<pdfrwt beam="1">  1        2 0.21022343E+00 0.14087207E+04</pdfrwt>
<pdfrwt beam="2">  1       -1 0.55857560E-01 0.14087207E+04</pdfrwt>
<totfact> 0.54365415E+01</totfact>
</mgrwt>
</event>
<event>
12    7  0.1497947E-008  0.1403726E+04  0.7818608E-02  0.8951126E-01
         -1   -1    0    0    0  501 -0.00000000000E+00  0.00000000000E+00  0.92076924573E+03  0.92076924573E+03  0.00000000000E+00 0.  1.
          2   -1    0    0  501    0  0.00000000000E+00 -0.00000000000E+00 -0.53500041978E+03  0.53500041978E+03  0.00000000000E+00 0. -1.
         24    2    1    2    0    0 -0.43180033636E+02  0.63640365370E+02  0.45141306526E+03  0.46445180658E+03  0.77634488062E+02 0.  0.
        254    2    1    2    0    0  0.43180033636E+02 -0.63640365370E+02 -0.65644239316E+02  0.99131785893E+03  0.98614771707E+03 0.  0.
         23    2    4    4    0    0  0.12361128434E+03 -0.42573069376E+03  0.22624387811E+03  0.50629061658E+03  0.92830613616E+02 0.  0.
         23    2    4    4    0    0 -0.80431250705E+02  0.36209032839E+03 -0.29188811742E+03  0.48502724236E+03  0.11168778236E+03 0.  0.
          4    1    3    3  502    0 -0.10145439530E+02  0.22883136705E+02  0.27037241429E+02  0.36845356734E+02  0.00000000000E+00 0. -1.
         -3    1    3    3    0  502 -0.33034594106E+02  0.40757228665E+02  0.42437582383E+03  0.42760644985E+03  0.00000000000E+00 0.  1.
         13    1    5    5    0    0  0.95372919517E+02 -0.38969524665E+03  0.17537114382E+03  0.43785090741E+03  0.00000000000E+00 0. -1.
        -13    1    5    5    0    0  0.28238364824E+02 -0.36035447118E+02  0.50872734289E+02  0.68439709168E+02  0.00000000000E+00 0.  1.
          4    1    6    6  503    0 -0.93121511975E+02  0.18039040720E+03 -0.12789642409E+03  0.23993709654E+03  0.00000000000E+00 0. -1.
         -4    1    6    6    0  503  0.12690261270E+02  0.18169992120E+03 -0.16399169334E+03  0.24509014582E+03  0.00000000000E+00 0.  1.
<mgrwt>
<rscale>  0 0.14037264E+04</rscale>
<asrwt>0</asrwt>
<pdfrwt beam="1">  1        2 0.82307757E-01 0.14037264E+04</pdfrwt>
<pdfrwt beam="2">  1       -1 0.14165681E+00 0.14037264E+04</pdfrwt>
<totfact> 0.25719572E+01</totfact>
</mgrwt>
</event>
<event>
11    7  0.1497947E-008  0.2015201E+04  0.7818608E-02  0.8599547E-01
          2   -1    0    0  501    0  0.00000000000E+00  0.00000000000E+00  0.10041760225E+04  0.10041760225E+04  0.00000000000E+00 0. -1.
         -1   -1    0    0    0  501 -0.00000000000E+00 -0.00000000000E+00 -0.10110363695E+04  0.10110363695E+04  0.00000000000E+00 0.  1.
         24    2    1    2    0    0  0.23129214141E+03  0.71871792925E+03 -0.28702020416E+03  0.81164542412E+03  0.79600128124E+02 0.  0.
        254    2    1    2    0    0 -0.23129214141E+03 -0.71871792925E+03  0.28015985716E+03  0.12035669678E+04  0.89444529403E+03 0.  0.
         23    2    4    4    0    0 -0.18818758858E+03  0.12525067796E+03 -0.10529752609E+03  0.26523425714E+03  0.90329072480E+02 0.  0.
          2    1    3    3  502    0  0.21608025621E+03  0.70495537664E+03 -0.28676512170E+03  0.79113020117E+03  0.00000000000E+00 0. -1.
         -1    1    3    3    0  502  0.15211885199E+02  0.13762552613E+02 -0.25508245295E+00  0.20515222952E+02  0.00000000000E+00 0.  1.
         13    1    5    5    0    0 -0.16833761925E+03  0.77978728186E+02 -0.55219368777E+02  0.19356501438E+03  0.00000000000E+00 0.  1.
        -13    1    5    5    0    0 -0.19849969330E+02  0.47271949775E+02 -0.50078157313E+02  0.71669242760E+02  0.00000000000E+00 0. -1.
          1    1    4    4  503    0  0.46054820939E+01 -0.14572278320E+02 -0.99810731947E+01  0.18253317037E+02  0.00000000000E+00 0. -1.
         -1    1    4    4    0  503 -0.47710034929E+02 -0.82939632889E+03  0.39543845644E+03  0.92007939366E+03  0.00000000000E+00 0.  1.
<mgrwt>
<rscale>  0 0.20152007E+04</rscale>
<asrwt>0</asrwt>
<pdfrwt beam="1">  1        2 0.15448862E+00 0.20152007E+04</pdfrwt>
<pdfrwt beam="2">  1       -1 0.15554406E+00 0.20152007E+04</pdfrwt>
<totfact> 0.83749704E+00</totfact>
</mgrwt>
</event>
<event>
12    7  0.1497947E-008  0.1604187E+04  0.7818608E-02  0.8817980E-01
         -1   -1    0    0    0  501 -0.00000000000E+00  0.00000000000E+00  0.18830546528E+03  0.18830546528E+03  0.00000000000E+00 0.  1.
          2   -1    0    0  501    0  0.00000000000E+00 -0.00000000000E+00 -0.34165456729E+04  0.34165456729E+04  0.00000000000E+00 0. -1.
         24    2    1    2    0    0 -0.34036736621E+01 -0.39115985202E+03 -0.19534051345E+04  0.19939547382E+04  0.83942026690E+02 0.  0.
        254    2    1    2    0    0  0.34036736621E+01  0.39115985202E+03 -0.12748350732E+04  0.16108964000E+04  0.90375059220E+03 0.  0.
         23    2    4    4    0    0 -0.88357922249E+02  0.40190205300E+03 -0.10439814224E+03  0.43200645212E+03  0.79988873871E+02 0.  0.
         23    2    4    4    0    0  0.91761595911E+02 -0.10742200978E+02 -0.11704369310E+04  0.11788899479E+04  0.10641106395E+03 0.  0.
          4    1    3    3  502    0 -0.84492300397E+01 -0.24159471188E+03 -0.13977255381E+04  0.14184766738E+04  0.00000000000E+00 0. -1.
         -3    1    3    3    0  502  0.50455563776E+01 -0.14956514014E+03 -0.55567959641E+03  0.57547806444E+03  0.00000000000E+00 0.  1.
         13    1    5    5    0    0 -0.31935261840E+02  0.20852648834E+03 -0.14610880177E+02  0.21146308214E+03  0.00000000000E+00 0.  1.
        -13    1    5    5    0    0 -0.56422660410E+02  0.19337556466E+03 -0.89787262063E+02  0.22054336998E+03  0.00000000000E+00 0. -1.
          3    1    6    6  503    0 -0.43840415127E+01  0.68173667507E+01 -0.53522144583E+01  0.97130072071E+01  0.00000000000E+00 0. -1.
         -3    1    6    6    0  503  0.96145637424E+02 -0.17559567728E+02 -0.11650847165E+04  0.11691769407E+04  0.00000000000E+00 0.  1.
<mgrwt>
<rscale>  0 0.16041873E+04</rscale>
<asrwt>0</asrwt>
<pdfrwt beam="1">  1        2 0.52562238E+00 0.16041873E+04</pdfrwt>
<pdfrwt beam="2">  1       -1 0.28970073E-01 0.16041873E+04</pdfrwt>
<totfact> 0.11116897E+01</totfact>
</mgrwt>
</event>
<event>
11    7  0.1497947E-008  0.2217744E+04  0.7818608E-02  0.8511079E-01
          2   -1    0    0  501    0  0.00000000000E+00  0.00000000000E+00  0.24962040480E+04  0.24962040480E+04  0.00000000000E+00 0. -1.
         -1   -1    0    0    0  501 -0.00000000000E+00 -0.00000000000E+00 -0.49258680908E+03  0.49258680908E+03  0.00000000000E+00 0.  1.
         24    2    1    2    0    0  0.21252534436E+03  0.73147139164E+03  0.15212431225E+04  0.17031111282E+04  0.78673111537E+02 0.  0.
        254    2    1    2    0    0 -0.21252534436E+03 -0.73147139164E+03  0.48237411643E+03  0.12856797289E+04  0.91655341267E+03 0.  0.
         23    2    4    4    0    0 -0.46318678628E+03 -0.34083476323E+03 -0.27904419315E+02  0.58305371934E+03  0.91992653033E+02 0.  0.
          2    1    3    3  502    0  0.10729898933E+03  0.35963699587E+03  0.66234907857E+03  0.76128716251E+03  0.00000000000E+00 0. -1.
         -1    1    3    3    0  502  0.10522635503E+03  0.37183439577E+03  0.85889404395E+03  0.94182396572E+03  0.00000000000E+00 0.  1.
         13    1    5    5    0    0 -0.44398344830E+03 -0.29824544261E+03 -0.34015558177E+02  0.53593722077E+03  0.00000000000E+00 0. -1.
        -13    1    5    5    0    0 -0.19203337982E+02 -0.42589320614E+02  0.61111388616E+01  0.47116498578E+02  0.00000000000E+00 0.  1.
          1    1    4    4  503    0  0.15181007576E+03 -0.33887126523E+03  0.38618376279E+03  0.53574054555E+03  0.00000000000E+00 0. -1.
         -1    1    4    4    0  503  0.98851366166E+02 -0.51765363181E+02  0.12409477296E+03  0.16688546400E+03  0.00000000000E+00 0.  1.
<mgrwt>
<rscale>  0 0.22177441E+04</rscale>
<asrwt>0</asrwt>
<pdfrwt beam="1">  1        2 0.38403138E+00 0.22177441E+04</pdfrwt>
<pdfrwt beam="2">  1       -1 0.75782588E-01 0.22177441E+04</pdfrwt>
<totfact> 0.63574715E+00</totfact>
</mgrwt>
</event>
<event>
12    7  0.1497947E-008  0.1239019E+04  0.7818608E-02  0.9079372E-01
          2   -1    0    0  501    0  0.00000000000E+00  0.00000000000E+00  0.10681341129E+04  0.10681341129E+04  0.00000000000E+00 0. -1.
         -1   -1    0    0    0  501 -0.00000000000E+00 -0.00000000000E+00 -0.35931092037E+03  0.35931092037E+03  0.00000000000E+00 0.  1.
         24    2    1    2    0    0  0.39106036277E+02 -0.26360573096E+03  0.27794045341E+03  0.39321429316E+03  0.79682628162E+02 0.  0.
        254    2    1    2    0    0 -0.39106036277E+02  0.26360573096E+03  0.43088273911E+03  0.10342307401E+04  0.90164074079E+03 0.  0.
         23    2    4    4    0    0 -0.15256044742E+03  0.18622558562E+03  0.68711746734E+03  0.73399431127E+03  0.93072961677E+02 0.  0.
         23    2    4    4    0    0  0.11345441115E+03  0.77380145343E+02 -0.25623472824E+03  0.30023642884E+03  0.75007245934E+02 0.  0.
          2    1    3    3  502    0  0.42027598306E+02 -0.20182620121E+03  0.25341824012E+03  0.32668170892E+03  0.00000000000E+00 0. -1.
         -1    1    3    3    0  502 -0.29215620290E+01 -0.61779529751E+02  0.24522213289E+02  0.66532584240E+02  0.00000000000E+00 0.  1.
         13    1    5    5    0    0 -0.67950923434E+00 -0.68254232113E+01  0.37419439015E+01  0.78134677945E+01  0.00000000000E+00 0.  1.
        -13    1    5    5    0    0 -0.15188093819E+03  0.19305100883E+03  0.68337552344E+03  0.72618084348E+03  0.00000000000E+00 0. -1.
          1    1    6    6  503    0  0.95722121248E+02  0.91654652540E+02 -0.23046469772E+03  0.26585198273E+03  0.00000000000E+00 0. -1.
         -1    1    6    6    0  503  0.17732289899E+02 -0.14274507198E+02 -0.25770030520E+02  0.34384446103E+02  0.00000000000E+00 0.  1.
<mgrwt>
<rscale>  0 0.12390194E+04</rscale>
<asrwt>0</asrwt>
<pdfrwt beam="1">  1        2 0.16432832E+00 0.12390194E+04</pdfrwt>
<pdfrwt beam="2">  1       -1 0.55278604E-01 0.12390194E+04</pdfrwt>
<totfact> 0.84671284E+01</totfact>
</mgrwt>
</event>
<event>
11    7  0.1497947E-008  0.1581623E+04  0.7818608E-02  0.8831918E-01
          2   -1    0    0  501    0  0.00000000000E+00  0.00000000000E+00  0.56452091739E+03  0.56452091739E+03  0.00000000000E+00 0. -1.
         -1   -1    0    0    0  501 -0.00000000000E+00 -0.00000000000E+00 -0.11078110911E+04  0.11078110911E+04  0.00000000000E+00 0.  1.
         24    2    1    2    0    0  0.12048351755E+03  0.52097243142E+03 -0.20060067323E+03  0.57679388305E+03  0.80758907358E+02 0.  0.
        254    2    1    2    0    0 -0.12048351755E+03 -0.52097243142E+03 -0.34268950049E+03  0.10955381255E+04  0.89265846676E+03 0.  0.
         23    2    4    4    0    0 -0.34089822640E+03  0.69380675361E+02 -0.49130301885E+02  0.36417288045E+03  0.95827039087E+02 0.  0.
          4    1    3    3  502    0  0.11581895186E+01 -0.25317678803E+01 -0.42627069770E+01  0.50913576119E+01  0.00000000000E+00 0. -1.
         -3    1    3    3    0  502  0.11932532803E+03  0.52350419930E+03 -0.19633796626E+03  0.57170252544E+03  0.00000000000E+00 0.  1.
         13    1    5    5    0    0 -0.34736282232E+03  0.66191344778E+02 -0.48708608563E+02  0.35695203180E+03  0.00000000000E+00 0. -1.
        -13    1    5    5    0    0  0.64645959262E+01  0.31893305835E+01 -0.42169332165E+00  0.72208486563E+01  0.00000000000E+00 0.  1.
          3    1    4    4  503    0  0.21588615561E+03 -0.29920169142E+03 -0.10191795302E+03  0.38277376279E+03  0.00000000000E+00 0. -1.
         -3    1    4    4    0  503  0.45285532407E+01 -0.29115141536E+03 -0.19164124559E+03  0.34859148221E+03  0.00000000000E+00 0.  1.
<mgrwt>
<rscale>  0 0.15816226E+04</rscale>
<asrwt>0</asrwt>
<pdfrwt beam="1">  1        2 0.86849372E-01 0.15816226E+04</pdfrwt>
<pdfrwt beam="2">  1       -1 0.17043247E+00 0.15816226E+04</pdfrwt>
<totfact> 0.14304692E+01</totfact>
</mgrwt>
</event>
<event>
11    7  0.1497947E-008  0.2495733E+04  0.7818608E-02  0.8404507E-01
         -1   -1    0    0    0  501 -0.00000000000E+00  0.00000000000E+00  0.14841381718E+04  0.14841381718E+04  0.00000000000E+00 0.  1.
          2   -1    0    0  501    0  0.00000000000E+00 -0.00000000000E+00 -0.10492087153E+04  0.10492087153E+04  0.00000000000E+00 0. -1.
         24    2    1    2    0    0 -0.96208869747E+03 -0.49844823635E+03  0.27700855686E+03  0.11207948762E+04  0.73362851026E+02 0.  0.
        254    2    1    2    0    0  0.96208869747E+03  0.49844823635E+03  0.15792089968E+03  0.14125520109E+04  0.89235579605E+03 0.  0.
         23    2    4    4    0    0  0.58002756308E+03  0.64029620869E+02 -0.29998319160E+03  0.66235223186E+03  0.90491974963E+02 0.  0.
          4    1    3    3  502    0 -0.80867222698E+03 -0.38775454721E+03  0.22676856780E+03  0.92505585935E+03  0.00000000000E+00 0. -1.
         -3    1    3    3    0  502 -0.15341647049E+03 -0.11069368914E+03  0.50239989058E+02  0.19573901689E+03  0.00000000000E+00 0.  1.
         13    1    5    5    0    0  0.21596247825E+02  0.61739887683E+01 -0.34883377146E+02  0.41489348736E+02  0.00000000000E+00 0. -1.
        -13    1    5    5    0    0  0.55843131525E+03  0.57855632101E+02 -0.26509981445E+03  0.62086288313E+03  0.00000000000E+00 0.  1.
          1    1    4    4  503    0  0.17395942595E+03  0.25737743341E+03  0.31274680022E+03  0.44081241606E+03  0.00000000000E+00 0.  1.
         -1    1    4    4    0  503  0.20810170844E+03  0.17704118207E+03  0.14515729105E+03  0.30938736295E+03  0.00000000000E+00 0. -1.
<mgrwt>
<rscale>  0 0.24957329E+04</rscale>
<asrwt>0</asrwt>
<pdfrwt beam="1">  1        2 0.16141673E+00 0.24957329E+04</pdfrwt>
<pdfrwt beam="2">  1       -1 0.22832895E+00 0.24957329E+04</pdfrwt>
<totfact> 0.23081002E+00</totfact>
</mgrwt>
</event>
<event>
12    7  0.1497947E-008  0.3517969E+04  0.7818608E-02  0.8109545E-01
          2   -1    0    0  501    0  0.00000000000E+00  0.00000000000E+00  0.13142591577E+04  0.13142591577E+04  0.00000000000E+00 0. -1.
         -1   -1    0    0    0  501 -0.00000000000E+00 -0.00000000000E+00 -0.23541983084E+04  0.23541983084E+04  0.00000000000E+00 0.  1.
         24    2    1    2    0    0  0.83753394644E+03  0.63658679720E+03  0.82917721478E+03  0.13425161364E+04  0.90049215379E+02 0.  0.
        254    2    1    2    0    0 -0.83753394644E+03 -0.63658679720E+03 -0.18691163655E+04  0.23259413297E+04  0.89983399558E+03 0.  0.
         23    2    4    4    0    0 -0.96676277791E+03 -0.40487975186E+03 -0.11648135964E+04  0.15695934388E+04  0.90966842204E+02 0.  0.
         23    2    4    4    0    0  0.12922883147E+03 -0.23170704534E+03 -0.70430276904E+03  0.75634789091E+03  0.75043293220E+02 0.  0.
          4    1    3    3  502    0  0.81082168389E+03  0.63169556153E+03  0.79864748753E+03  0.13016562122E+04  0.00000000000E+00 0. -1.
         -3    1    3    3    0  502  0.26712262553E+02  0.48912356706E+01  0.30529727252E+02  0.40859924170E+02  0.00000000000E+00 0.  1.
         13    1    5    5    0    0 -0.44756568095E+03 -0.16059387970E+03 -0.58470212205E+03  0.75364580838E+03  0.00000000000E+00 0. -1.
        -13    1    5    5    0    0 -0.51919709696E+03 -0.24428587216E+03 -0.58011147439E+03  0.81594763039E+03  0.00000000000E+00 0.  1.
          1    1    6    6  503    0  0.76707117246E+02 -0.13779723756E+03 -0.51495110669E+03  0.53855984142E+03  0.00000000000E+00 0.  1.
         -1    1    6    6    0  503  0.52521714221E+02 -0.93909807774E+02 -0.18935166236E+03  0.21778804948E+03  0.00000000000E+00 0. -1.
<mgrwt>
<rscale>  0 0.35179691E+04</rscale>
<asrwt>0</asrwt>
<pdfrwt beam="1">  1        2 0.20219372E+00 0.35179691E+04</pdfrwt>
<pdfrwt beam="2">  1       -1 0.36218435E+00 0.35179691E+04</pdfrwt>
<totfact> 0.19526299E-01</totfact>
</mgrwt>
</event>
<event>
12    7  0.1497947E-008  0.1681583E+04  0.7818608E-02  0.8771938E-01
          2   -1    0    0  501    0  0.00000000000E+00  0.00000000000E+00  0.42679288689E+03  0.42679288689E+03  0.00000000000E+00 0. -1.
         -1   -1    0    0    0  501 -0.00000000000E+00 -0.00000000000E+00 -0.16563782536E+04  0.16563782536E+04  0.00000000000E+00 0.  1.
         24    2    1    2    0    0 -0.49805383820E+01  0.14311353320E+03 -0.11569900259E+04  0.11685957878E+04  0.80522706434E+02 0.  0.
        254    2    1    2    0    0  0.49805383820E+01 -0.14311353320E+03 -0.72595340811E+02  0.91457535263E+03  0.90037309099E+03 0.  0.
         23    2    4    4    0    0  0.15800516323E+03  0.22006092741E+03 -0.32596994558E+03  0.43168831118E+03  0.81889860189E+02 0.  0.
         23    2    4    4    0    0 -0.15302462484E+03 -0.36317446061E+03  0.25337460477E+03  0.48288704145E+03  0.11691441231E+03 0.  0.
          2    1    3    3  502    0 -0.24892887629E+00  0.18697704769E+02 -0.34674540227E+02  0.39395302628E+02  0.00000000000E+00 0. -1.
         -1    1    3    3    0  502 -0.47316095057E+01  0.12441582843E+03 -0.11223154856E+04  0.11292004852E+04  0.00000000000E+00 0.  1.
         13    1    5    5    0    0  0.11839958024E+03  0.11687511059E+03 -0.23822547501E+03  0.29056777010E+03  0.00000000000E+00 0.  1.
        -13    1    5    5    0    0  0.39605582983E+02  0.10318581683E+03 -0.87744470575E+02  0.14112054108E+03  0.00000000000E+00 0. -1.
          1    1    6    6  503    0 -0.11099189631E+03 -0.15025240569E+03  0.16252788267E+03  0.24760916604E+03  0.00000000000E+00 0. -1.
         -1    1    6    6    0  503 -0.42032728539E+02 -0.21292205492E+03  0.90846722105E+02  0.23527787541E+03  0.00000000000E+00 0.  1.
<mgrwt>
<rscale>  0 0.16815831E+04</rscale>
<asrwt>0</asrwt>
<pdfrwt beam="1">  1        2 0.65660445E-01 0.16815831E+04</pdfrwt>
<pdfrwt beam="2">  1       -1 0.25482742E+00 0.16815831E+04</pdfrwt>
<totfact> 0.52216878E+00</totfact>
</mgrwt>
</event>
<event>
11    7  0.1497947E-008  0.1152787E+04  0.7818608E-02  0.9155216E-01
          2   -1    0    0  501    0  0.00000000000E+00  0.00000000000E+00  0.11419951948E+04  0.11419951948E+04  0.00000000000E+00 0. -1.
         -1   -1    0    0    0  501 -0.00000000000E+00 -0.00000000000E+00 -0.29092021446E+03  0.29092021446E+03  0.00000000000E+00 0.  1.
         24    2    1    2    0    0 -0.16214936405E+03  0.44804291597E+02 -0.31965343460E+02  0.18955461922E+03  0.81297783959E+02 0.  0.
        254    2    1    2    0    0  0.16214936405E+03 -0.44804291597E+02  0.88304032379E+03  0.12433607900E+04  0.85900291032E+03 0.  0.
         23    2    4    4    0    0  0.33977346370E+03 -0.18944786089E+03  0.71089788904E+03  0.81533761209E+03  0.89794846340E+02 0.  0.
          4    1    3    3  502    0 -0.33635440610E+02 -0.23754456640E+02 -0.75913474974E+01  0.41871776081E+02  0.00000000000E+00 0. -1.
         -3    1    3    3    0  502 -0.12851392344E+03  0.68558748237E+02 -0.24373995962E+02  0.14768284314E+03  0.00000000000E+00 0.  1.
         13    1    5    5    0    0  0.16205952948E+03 -0.95027885694E+02  0.25258686481E+03  0.31479154123E+03  0.00000000000E+00 0.  1.
        -13    1    5    5    0    0  0.17771393422E+03 -0.94419975199E+02  0.45831102422E+03  0.50054607086E+03  0.00000000000E+00 0. -1.
          2    1    4    4  503    0 -0.20347906869E+03 -0.33279206946E+02  0.54845831225E+02  0.21335253036E+03  0.00000000000E+00 0. -1.
         -2    1    4    4    0  503  0.25854969043E+02  0.17792277624E+03  0.11729660353E+03  0.21467064757E+03  0.00000000000E+00 0.  1.
<mgrwt>
<rscale>  0 0.11527870E+04</rscale>
<asrwt>0</asrwt>
<pdfrwt beam="1">  1        2 0.17569157E+00 0.11527870E+04</pdfrwt>
<pdfrwt beam="2">  1       -1 0.44756957E-01 0.11527870E+04</pdfrwt>
<totfact> 0.11455068E+02</totfact>
</mgrwt>
</event>
<event>
11    7  0.1497947E-008  0.2587181E+04  0.7818608E-02  0.8372569E-01
         -1   -1    0    0    0  501 -0.00000000000E+00  0.00000000000E+00  0.14445057495E+04  0.14445057495E+04  0.00000000000E+00 0.  1.
          2   -1    0    0  501    0  0.00000000000E+00 -0.00000000000E+00 -0.11584418943E+04  0.11584418943E+04  0.00000000000E+00 0. -1.
         24    2    1    2    0    0  0.80308416402E+03 -0.63216084839E+03  0.61700492425E+03  0.11965564674E+04  0.80503355673E+02 0.  0.
        254    2    1    2    0    0 -0.80308416402E+03  0.63216084839E+03 -0.33094106903E+03  0.14063911765E+04  0.90765777547E+03 0.  0.
         23    2    4    4    0    0  0.16280213524E+03  0.16840452427E+03  0.23120018938E+02  0.25225061769E+03  0.90726070202E+02 0.  0.
          2    1    3    3  502    0  0.46892231710E+03 -0.39959030808E+03  0.33473110056E+03  0.70114582182E+03  0.00000000000E+00 0. -1.
         -1    1    3    3    0  502  0.33416184693E+03 -0.23257054031E+03  0.28227382369E+03  0.49541064553E+03  0.00000000000E+00 0.  1.
         13    1    5    5    0    0  0.54341638874E+02  0.47927493814E+01 -0.36484670241E+00  0.54553801658E+02  0.00000000000E+00 0. -1.
        -13    1    5    5    0    0  0.10846049637E+03  0.16361177489E+03  0.23484865640E+02  0.19769681603E+03  0.00000000000E+00 0.  1.
          3    1    4    4  503    0 -0.26834848997E+02 -0.27653876171E+02 -0.15280607033E+02  0.41452900252E+02  0.00000000000E+00 0. -1.
         -3    1    4    4    0  503 -0.93905145027E+03  0.49141020029E+03 -0.33878048093E+03  0.11126876585E+04  0.00000000000E+00 0.  1.
<mgrwt>
<rscale>  0 0.25871807E+04</rscale>
<asrwt>0</asrwt>
<pdfrwt beam="1">  1        2 0.17822183E+00 0.25871807E+04</pdfrwt>
<pdfrwt beam="2">  1       -1 0.22223165E+00 0.25871807E+04</pdfrwt>
<totfact> 0.21529823E+00</totfact>
</mgrwt>
</event>
<event>
12    7  0.1497947E-008  0.1870795E+04  0.7818608E-02  0.8669531E-01
         -1   -1    0    0    0  501 -0.00000000000E+00  0.00000000000E+00  0.61584687437E+03  0.61584687437E+03  0.00000000000E+00 0.  1.
          2   -1    0    0  501    0  0.00000000000E+00 -0.00000000000E+00 -0.14207571217E+04  0.14207571217E+04  0.00000000000E+00 0. -1.
         24    2    1    2    0    0  0.39778402878E+03 -0.17034323184E+03  0.30432879212E+03  0.53492016028E+03  0.79212460992E+02 0.  0.
        254    2    1    2    0    0 -0.39778402878E+03  0.17034323184E+03 -0.11092390395E+04  0.15016838358E+04  0.91509242477E+03 0.  0.
         23    2    4    4    0    0 -0.39776437800E+03 -0.18619212099E+03 -0.14595269641E+03  0.47172781455E+03  0.91328720068E+02 0.  0.
         23    2    4    4    0    0 -0.19650779691E-01  0.35653535282E+03 -0.96328634309E+03  0.10299560213E+04  0.75969525395E+02 0.  0.
          2    1    3    3  502    0  0.21891922288E+03 -0.51418980792E+02  0.14673832266E+03  0.26851754704E+03  0.00000000000E+00 0. -1.
         -1    1    3    3    0  502  0.17886480590E+03 -0.11892425104E+03  0.15759046946E+03  0.26640261324E+03  0.00000000000E+00 0.  1.
         13    1    5    5    0    0 -0.38842188849E+03 -0.19273318875E+03 -0.13108770132E+03  0.45299186631E+03  0.00000000000E+00 0.  1.
        -13    1    5    5    0    0 -0.93424895080E+01  0.65410677622E+01 -0.14864995081E+02  0.18735948240E+02  0.00000000000E+00 0. -1.
          1    1    6    6  503    0  0.35263805171E+02  0.16937066658E+03 -0.49811934722E+03  0.52730716165E+03  0.00000000000E+00 0. -1.
         -1    1    6    6    0  503 -0.35283455950E+02  0.18716468625E+03 -0.46516699587E+03  0.50264885963E+03  0.00000000000E+00 0.  1.
<mgrwt>
<rscale>  0 0.18707954E+04</rscale>
<asrwt>0</asrwt>
<pdfrwt beam="1">  1        2 0.21857802E+00 0.18707954E+04</pdfrwt>
<pdfrwt beam="2">  1       -1 0.94745673E-01 0.18707954E+04</pdfrwt>
<totfact> 0.16227377E+01</totfact>
</mgrwt>
</event>
<event>
12    7  0.1497947E-008  0.1558965E+04  0.7818608E-02  0.8846162E-01
          2   -1    0    0  501    0  0.00000000000E+00  0.00000000000E+00  0.16950812787E+04  0.16950812787E+04  0.00000000000E+00 0. -1.
         -1   -1    0    0    0  501 -0.00000000000E+00 -0.00000000000E+00 -0.35844468132E+03  0.35844468132E+03  0.00000000000E+00 0.  1.
         24    2    1    2    0    0 -0.18957732194E+03  0.42351648303E+03  0.75015910833E+03  0.88559768524E+03  0.78986074066E+02 0.  0.
        254    2    1    2    0    0  0.18957732194E+03 -0.42351648303E+03  0.58647748906E+03  0.11679282748E+04  0.89710358236E+03 0.  0.
         23    2    4    4    0    0  0.31145899336E+03 -0.65880146912E+03  0.40792011246E+03  0.84029359379E+03  0.93104378843E+02 0.  0.
         23    2    4    4    0    0 -0.12188167142E+03  0.23528498609E+03  0.17855737660E+03  0.32763468100E+03  0.72440188751E+02 0.  0.
          2    1    3    3  502    0 -0.17465125654E+03  0.37974818242E+03  0.71208175210E+03  0.82569495889E+03  0.00000000000E+00 0. -1.
         -1    1    3    3    0  502 -0.14926065399E+02  0.43768300612E+02  0.38077356237E+02  0.59902726355E+02  0.00000000000E+00 0.  1.
         13    1    5    5    0    0  0.66248349229E+02 -0.11027047059E+03  0.11183691699E+03  0.17045796098E+03  0.00000000000E+00 0. -1.
        -13    1    5    5    0    0  0.24521064413E+03 -0.54853099853E+03  0.29608319547E+03  0.66983563281E+03  0.00000000000E+00 0.  1.
          2    1    6    6  503    0 -0.94053584219E+02  0.11129470827E+03  0.76033334103E+02  0.16435831798E+03  0.00000000000E+00 0. -1.
         -2    1    6    6    0  503 -0.27828087203E+02  0.12399027782E+03  0.10252404250E+03  0.16327636302E+03  0.00000000000E+00 0.  1.
<mgrwt>
<rscale>  0 0.15589649E+04</rscale>
<asrwt>0</asrwt>
<pdfrwt beam="1">  1        2 0.26078173E+00 0.15589649E+04</pdfrwt>
<pdfrwt beam="2">  1       -1 0.55145336E-01 0.15589649E+04</pdfrwt>
<totfact> 0.35947189E+01</totfact>
</mgrwt>
</event>
<event>
12    7  0.1497947E-008  0.1053577E+04  0.7818608E-02  0.9251659E-01
          2   -1    0    0  501    0  0.00000000000E+00  0.00000000000E+00  0.92054279413E+03  0.92054279413E+03  0.00000000000E+00 0. -1.
         -1   -1    0    0    0  501 -0.00000000000E+00 -0.00000000000E+00 -0.30145934536E+03  0.30145934536E+03  0.00000000000E+00 0.  1.
         24    2    1    2    0    0  0.93875015914E+02  0.17109264520E+02  0.15245367995E+02  0.12754069498E+03  0.83240387345E+02 0.  0.
        254    2    1    2    0    0 -0.93875015914E+02 -0.17109264520E+02  0.60383808078E+03  0.10944614445E+04  0.90781065215E+03 0.  0.
         23    2    4    4    0    0  0.27693804984E+03 -0.30597018192E+03  0.21390058920E+03  0.47419214736E+03  0.93767237823E+02 0.  0.
         23    2    4    4    0    0 -0.37081306575E+03  0.28886091739E+03  0.38993749157E+03  0.62026929714E+03  0.10835033140E+03 0.  0.
          2    1    3    3  502    0  0.84148494195E+01 -0.27210168661E+02  0.12839759686E+02  0.31241997345E+02  0.00000000000E+00 0. -1.
         -1    1    3    3    0  502  0.85460166494E+02  0.44319433182E+02  0.24056083093E+01  0.96298697634E+02  0.00000000000E+00 0.  1.
         13    1    5    5    0    0  0.21734526757E+03 -0.18609059473E+03  0.17231348676E+03  0.33400690487E+03  0.00000000000E+00 0. -1.
        -13    1    5    5    0    0  0.59592782265E+02 -0.11987958719E+03  0.41587102441E+02  0.14018524249E+03  0.00000000000E+00 0.  1.
          2    1    6    6  503    0 -0.44767738274E+02  0.37106219937E+01  0.14919300712E+02  0.47333969192E+02  0.00000000000E+00 0.  1.
         -2    1    6    6    0  503 -0.32604532748E+03  0.28515029540E+03  0.37501819086E+03  0.57293532795E+03  0.00000000000E+00 0. -1.
<mgrwt>
<rscale>  0 0.10535772E+04</rscale>
<asrwt>0</asrwt>
<pdfrwt beam="1">  1        2 0.14162197E+00 0.10535772E+04</pdfrwt>
<pdfrwt beam="2">  1       -1 0.46378361E-01 0.10535772E+04</pdfrwt>
<totfact> 0.14918884E+02</totfact>
</mgrwt>
</event>
<event>
11    7  0.1497947E-008  0.1449813E+04  0.7818608E-02  0.8918530E-01
         -1   -1    0    0    0  501 -0.00000000000E+00  0.00000000000E+00  0.44456980144E+03  0.44456980144E+03  0.00000000000E+00 0.  1.
          2   -1    0    0  501    0  0.00000000000E+00 -0.00000000000E+00 -0.11820174600E+04  0.11820174600E+04  0.00000000000E+00 0. -1.
         24    2    1    2    0    0  0.17510119943E+03 -0.42466283791E+02  0.21292018211E+03  0.28971178542E+03  0.78320491315E+02 0.  0.
        254    2    1    2    0    0 -0.17510119943E+03  0.42466283791E+02 -0.95036784068E+03  0.13368754760E+04  0.92280723368E+03 0.  0.
         23    2    4    4    0    0  0.12220760727E+03  0.61556424643E+02 -0.77212411177E+02  0.18260158531E+03  0.93046707785E+02 0.  0.
          4    1    3    3  502    0 -0.25992008584E+01  0.10623778113E+02  0.10210602885E+02  0.14962517093E+02  0.00000000000E+00 0. -1.
         -3    1    3    3    0  502  0.17770040029E+03 -0.53090061904E+02  0.20270957922E+03  0.27474926832E+03  0.00000000000E+00 0.  1.
         13    1    5    5    0    0 -0.15106065870E+02  0.49255165876E+01 -0.14000805086E+02  0.21177263345E+02  0.00000000000E+00 0. -1.
        -13    1    5    5    0    0  0.13731367314E+03  0.56630908055E+02 -0.63211606091E+02  0.16142432197E+03  0.00000000000E+00 0.  1.
          1    1    4    4  503    0  0.17771618969E+03 -0.13534194812E+03 -0.47034725342E+03  0.52069859401E+03  0.00000000000E+00 0. -1.
         -1    1    4    4    0  503 -0.47502499639E+03  0.11625180727E+03 -0.40280817608E+03  0.63357529672E+03  0.00000000000E+00 0.  1.
<mgrwt>
<rscale>  0 0.14498128E+04</rscale>
<asrwt>0</asrwt>
<pdfrwt beam="1">  1        2 0.18184884E+00 0.14498128E+04</pdfrwt>
<pdfrwt beam="2">  1       -1 0.68395354E-01 0.14498128E+04</pdfrwt>
<totfact> 0.46464571E+01</totfact>
</mgrwt>
</event>
<event>
12    7  0.1497947E-008  0.1674036E+04  0.7818608E-02  0.8776313E-01
          2   -1    0    0  501    0  0.00000000000E+00  0.00000000000E+00  0.22599824614E+04  0.22599824614E+04  0.00000000000E+00 0. -1.
         -1   -1    0    0    0  501 -0.00000000000E+00 -0.00000000000E+00 -0.31000189435E+03  0.31000189435E+03  0.00000000000E+00 0.  1.
         24    2    1    2    0    0 -0.57702084051E+03 -0.30500929176E+03  0.89791860067E+03  0.11132769338E+04  0.84522183258E+02 0.  0.
        254    2    1    2    0    0  0.57702084051E+03  0.30500929176E+03  0.10520619663E+04  0.14567074219E+04  0.76757958125E+03 0.  0.
         23    2    4    4    0    0  0.43193266499E+03  0.95841877768E+02  0.96595137603E+02  0.46208837533E+03  0.91888809918E+02 0.  0.
         23    2    4    4    0    0  0.14508817553E+03  0.20916741400E+03  0.95546682874E+03  0.99461904657E+03  0.10746441842E+03 0.  0.
          4    1    3    3  502    0 -0.54649663806E+03 -0.27442757161E+03  0.80622626704E+03  0.10119139594E+04  0.00000000000E+00 0. -1.
         -3    1    3    3    0  502 -0.30524202455E+02 -0.30581720151E+02  0.91692333629E+02  0.10136297445E+03  0.00000000000E+00 0.  1.
         13    1    5    5    0    0  0.38638393768E+03  0.10379045292E+03  0.10812667094E+03  0.41443501587E+03  0.00000000000E+00 0.  1.
        -13    1    5    5    0    0  0.45548727310E+02 -0.79485751503E+01 -0.11531533336E+02  0.47653359457E+02  0.00000000000E+00 0. -1.
          4    1    6    6  503    0  0.40685964717E+02  0.13743674141E+03  0.40037554548E+03  0.42525848967E+03  0.00000000000E+00 0. -1.
         -4    1    6    6    0  503  0.10440221081E+03  0.71730672591E+02  0.55509128325E+03  0.56936055690E+03  0.00000000000E+00 0.  1.
<mgrwt>
<rscale>  0 0.16740357E+04</rscale>
<asrwt>0</asrwt>
<pdfrwt beam="1">  1        2 0.34768960E+00 0.16740357E+04</pdfrwt>
<pdfrwt beam="2">  1       -1 0.47692601E-01 0.16740357E+04</pdfrwt>
<totfact> 0.22789845E+01</totfact>
</mgrwt>
</event>
<event>
11    7  0.1497947E-008  0.1798619E+04  0.7818608E-02  0.8707034E-01
          2   -1    0    0  501    0  0.00000000000E+00  0.00000000000E+00  0.12100366910E+04  0.12100366910E+04  0.00000000000E+00 0. -1.
         -1   -1    0    0    0  501 -0.00000000000E+00 -0.00000000000E+00 -0.66837410443E+03  0.66837410443E+03  0.00000000000E+00 0.  1.
         24    2    1    2    0    0  0.63187800376E+03 -0.16688522480E+03  0.51257263079E+03  0.83453549659E+03  0.81229941150E+02 0.  0.
        254    2    1    2    0    0 -0.63187800376E+03  0.16688522480E+03  0.29089955795E+02  0.10438752989E+04  0.81345493062E+03 0.  0.
         23    2    4    4    0    0  0.15234990219E+03 -0.76025793316E+02 -0.43784326809E+02  0.19861761530E+03  0.92420105419E+02 0.  0.
          4    1    3    3  502    0  0.39156171238E+03 -0.13744310118E+03  0.29645920050E+03  0.50999925316E+03  0.00000000000E+00 0. -1.
         -3    1    3    3    0  502  0.24031629138E+03 -0.29442123615E+02  0.21611343029E+03  0.32453624343E+03  0.00000000000E+00 0.  1.
         13    1    5    5    0    0  0.10755548548E+03 -0.61512769291E+02 -0.72411926454E+02  0.14351128992E+03  0.00000000000E+00 0. -1.
        -13    1    5    5    0    0  0.44794416713E+02 -0.14513024025E+02  0.28627599645E+02  0.55106325376E+02  0.00000000000E+00 0.  1.
          2    1    4    4  503    0 -0.12085810035E+03  0.15315467971E+02  0.76628794057E+02  0.14392086735E+03  0.00000000000E+00 0.  1.
         -2    1    4    4    0  503 -0.66336980560E+03  0.22759555014E+03 -0.37545114534E+01  0.70133681622E+03  0.00000000000E+00 0. -1.
<mgrwt>
<rscale>  0 0.17986186E+04</rscale>
<asrwt>0</asrwt>
<pdfrwt beam="1">  1        2 0.18615949E+00 0.17986186E+04</pdfrwt>
<pdfrwt beam="2">  1       -1 0.10282679E+00 0.17986186E+04</pdfrwt>
<totfact> 0.17977080E+01</totfact>
</mgrwt>
</event>
<event>
11    7  0.1497947E-008  0.1185062E+04  0.7818608E-02  0.9126033E-01
          2   -1    0    0  501    0  0.00000000000E+00  0.00000000000E+00  0.11664839993E+04  0.11664839993E+04  0.00000000000E+00 0. -1.
         -1   -1    0    0    0  501 -0.00000000000E+00 -0.00000000000E+00 -0.30098412301E+03  0.30098412301E+03  0.00000000000E+00 0.  1.
         24    2    1    2    0    0  0.11537597786E+03  0.80776265694E+02 -0.56673659284E+02  0.17211897795E+03  0.81096347310E+02 0.  0.
        254    2    1    2    0    0 -0.11537597786E+03 -0.80776265694E+02  0.92217353561E+03  0.12953491444E+04  0.89871516887E+03 0.  0.
         23    2    4    4    0    0 -0.13601263967E+03 -0.29424994967E+03  0.14042725771E+03  0.36473892158E+03  0.90731445383E+02 0.  0.
          4    1    3    3  502    0  0.48512111253E+02  0.34728632482E+02  0.17475001968E+02  0.62168147359E+02  0.00000000000E+00 0. -1.
         -3    1    3    3    0  502  0.66863866611E+02  0.46047633213E+02 -0.74148661252E+02  0.10995083059E+03  0.00000000000E+00 0.  1.
         13    1    5    5    0    0 -0.50428510975E+02 -0.21202573460E+03  0.90899878889E+02  0.23613711024E+03  0.00000000000E+00 0. -1.
        -13    1    5    5    0    0 -0.85584128691E+02 -0.82224215071E+02  0.49527378818E+02  0.12860181134E+03  0.00000000000E+00 0.  1.
          2    1    4    4  503    0  0.12783158644E+03 -0.10672373762E+03  0.28151021038E+03  0.32707624373E+03  0.00000000000E+00 0. -1.
         -2    1    4    4    0  503 -0.10719492464E+03  0.32019742160E+03  0.50023606753E+03  0.60353397909E+03  0.00000000000E+00 0.  1.
<mgrwt>
<rscale>  0 0.11850623E+04</rscale>
<asrwt>0</asrwt>
<pdfrwt beam="1">  1        2 0.17945907E+00 0.11850623E+04</pdfrwt>
<pdfrwt beam="2">  1       -1 0.46305250E-01 0.11850623E+04</pdfrwt>
<totfact> 0.10365875E+02</totfact>
</mgrwt>
</event>
<event>
12    7  0.1497947E-008  0.1459119E+04  0.7818608E-02  0.8912103E-01
          2   -1    0    0  501    0  0.00000000000E+00  0.00000000000E+00  0.98708107283E+03  0.98708107283E+03  0.00000000000E+00 0. -1.
         -1   -1    0    0    0  501 -0.00000000000E+00 -0.00000000000E+00 -0.53922290564E+03  0.53922290564E+03  0.00000000000E+00 0.  1.
         24    2    1    2    0    0 -0.42854362796E+03 -0.46271650437E+02 -0.11235507021E+02  0.43882005798E+03  0.81523616041E+02 0.  0.
        254    2    1    2    0    0  0.42854362796E+03  0.46271650437E+02  0.45909367421E+03  0.10874839205E+04  0.88660226083E+03 0.  0.
         23    2    4    4    0    0 -0.11738589550E+03  0.32737743392E+03  0.15816058713E+03  0.39279334062E+03  0.91194322260E+02 0.  0.
         23    2    4    4    0    0  0.54592952346E+03 -0.28110578348E+03  0.30093308708E+03  0.69469057987E+03  0.12237145403E+03 0.  0.
          2    1    3    3  502    0 -0.25789058614E+03 -0.58823110363E+02  0.18422533885E+02  0.26515486510E+03  0.00000000000E+00 0. -1.
         -1    1    3    3    0  502 -0.17065304182E+03  0.12551459926E+02 -0.29658040906E+02  0.17366519288E+03  0.00000000000E+00 0.  1.
         13    1    5    5    0    0 -0.11740388206E+03  0.21060730234E+03  0.12395640956E+03  0.27111676228E+03  0.00000000000E+00 0.  1.
        -13    1    5    5    0    0  0.17986552283E-01  0.11677013158E+03  0.34204177571E+02  0.12167657834E+03  0.00000000000E+00 0. -1.
          1    1    6    6  503    0  0.91982032887E+02 -0.71590622381E+02  0.11832097913E+02  0.11715762941E+03  0.00000000000E+00 0. -1.
         -1    1    6    6    0  503  0.45394749057E+03 -0.20951516110E+03  0.28910098917E+03  0.57753295046E+03  0.00000000000E+00 0.  1.
<mgrwt>
<rscale>  0 0.14591185E+04</rscale>
<asrwt>0</asrwt>
<pdfrwt beam="1">  1        2 0.15185863E+00 0.14591185E+04</pdfrwt>
<pdfrwt beam="2">  1       -1 0.82957370E-01 0.14591185E+04</pdfrwt>
<totfact> 0.40982149E+01</totfact>
</mgrwt>
</event>
<event>
11    7  0.1497947E-008  0.2648880E+04  0.7818608E-02  0.8351785E-01
          2   -1    0    0  501    0  0.00000000000E+00  0.00000000000E+00  0.33962630727E+04  0.33962630727E+04  0.00000000000E+00 0. -1.
         -1   -1    0    0    0  501 -0.00000000000E+00 -0.00000000000E+00 -0.51649150888E+03  0.51649150888E+03  0.00000000000E+00 0.  1.
         24    2    1    2    0    0  0.10927356896E+04 -0.28645961565E+03  0.17554346786E+04  0.20890713945E+04  0.80857787455E+02 0.  0.
        254    2    1    2    0    0 -0.10927356896E+04  0.28645961565E+03  0.11243368852E+04  0.18236831871E+04  0.88631627354E+03 0.  0.
         23    2    4    4    0    0 -0.10149466541E+03  0.28998004106E+03  0.51291587346E+03  0.60573339801E+03  0.97163084018E+02 0.  0.
          2    1    3    3  502    0  0.60152523548E+03 -0.14399206640E+03  0.89040202251E+03  0.10841503981E+04  0.00000000000E+00 0. -1.
         -1    1    3    3    0  502  0.49121045408E+03 -0.14246754925E+03  0.86503265611E+03  0.10049209964E+04  0.00000000000E+00 0.  1.
         13    1    5    5    0    0 -0.10070697224E+03  0.29313804251E+03  0.51554681377E+03  0.60154827189E+03  0.00000000000E+00 0.  1.
        -13    1    5    5    0    0 -0.78769316551E+00 -0.31580014503E+01 -0.26309403125E+01  0.41851261165E+01  0.00000000000E+00 0. -1.
          4    1    4    4  503    0 -0.33233656726E+03  0.81677333077E+02  0.38716011694E+03  0.51673178423E+03  0.00000000000E+00 0. -1.
         -4    1    4    4    0  503 -0.65890445689E+03 -0.85197758489E+02  0.22426089478E+03  0.70121800482E+03  0.00000000000E+00 0.  1.
<mgrwt>
<rscale>  0 0.26488798E+04</rscale>
<asrwt>0</asrwt>
<pdfrwt beam="1">  1        2 0.52250200E+00 0.26488798E+04</pdfrwt>
<pdfrwt beam="2">  1       -1 0.79460234E-01 0.26488798E+04</pdfrwt>
<totfact> 0.15205042E+00</totfact>
</mgrwt>
</event>
<event>
12    7  0.1497947E-008  0.2007644E+04  0.7818608E-02  0.8603055E-01
          2   -1    0    0  501    0  0.00000000000E+00  0.00000000000E+00  0.20290982836E+04  0.20290982836E+04  0.00000000000E+00 0. -1.
         -1   -1    0    0    0  501 -0.00000000000E+00 -0.00000000000E+00 -0.49660425839E+03  0.49660425839E+03  0.00000000000E+00 0.  1.
         24    2    1    2    0    0 -0.20088853293E+03  0.26401763680E+03  0.15268374755E+04  0.15646061034E+04  0.81841718392E+02 0.  0.
        254    2    1    2    0    0  0.20088853293E+03 -0.26401763680E+03  0.56565496288E+01  0.96109643855E+03  0.90200490710E+03 0.  0.
         23    2    4    4    0    0  0.39695476254E+03 -0.49609463794E+03  0.58681546706E+02  0.64431283464E+03  0.89512745823E+02 0.  0.
         23    2    4    4    0    0 -0.19606622961E+03  0.23207700114E+03 -0.53024997078E+02  0.31678360391E+03  0.72377486424E+02 0.  0.
          4    1    3    3  502    0 -0.14187790556E+03  0.16743947596E+03  0.82455585283E+03  0.85326295632E+03  0.00000000000E+00 0. -1.
         -3    1    3    3    0  502 -0.59010627368E+02  0.96578160841E+02  0.70228162271E+03  0.71134314707E+03  0.00000000000E+00 0.  1.
         13    1    5    5    0    0  0.29891109964E+03 -0.35711665472E+03  0.81259305733E+02  0.47274012452E+03  0.00000000000E+00 0. -1.
        -13    1    5    5    0    0  0.98043662898E+02 -0.13897798322E+03 -0.22577759026E+02  0.17157271012E+03  0.00000000000E+00 0.  1.
          1    1    6    6  503    0 -0.19637918517E+03  0.20061208470E+03 -0.50272444884E+02  0.28519696985E+03  0.00000000000E+00 0. -1.
         -1    1    6    6    0  503  0.31295556288E+00  0.31464916445E+02 -0.27525521937E+01  0.31586634066E+02  0.00000000000E+00 0.  1.
<mgrwt>
<rscale>  0 0.20076442E+04</rscale>
<asrwt>0</asrwt>
<pdfrwt beam="1">  1        2 0.31216896E+00 0.20076442E+04</pdfrwt>
<pdfrwt beam="2">  1       -1 0.76400656E-01 0.20076442E+04</pdfrwt>
<totfact> 0.11700778E+01</totfact>
</mgrwt>
</event>
<event>
12    7  0.1497947E-008  0.4258875E+04  0.7818608E-02  0.7954267E-01
          2   -1    0    0  501    0  0.00000000000E+00  0.00000000000E+00  0.26300575393E+04  0.26300575393E+04  0.00000000000E+00 0. -1.
         -3   -1    0    0    0  501 -0.00000000000E+00 -0.00000000000E+00 -0.17241083889E+04  0.17241083889E+04  0.00000000000E+00 0.  1.
         24    2    1    2    0    0  0.18210429310E+04 -0.82607104692E+03  0.59901123578E+02  0.20021488821E+04  0.80132828688E+02 0.  0.
        254    2    1    2    0    0 -0.18210429310E+04  0.82607104692E+03  0.84604802689E+03  0.23520170461E+04  0.90421025782E+03 0.  0.
         23    2    4    4    0    0 -0.73046104987E+03  0.33668887305E+01 -0.88689321086E+01  0.73643953753E+03  0.93165729527E+02 0.  0.
         23    2    4    4    0    0 -0.10905818811E+04  0.82270415819E+03  0.85491695900E+03  0.16155775086E+04  0.11400310590E+03 0.  0.
          4    1    3    3  502    0  0.15899650743E+03 -0.47948561388E+02  0.35154946847E+01  0.16610632925E+03  0.00000000000E+00 0. -1.
         -3    1    3    3    0  502  0.16620464236E+04 -0.77812248553E+03  0.56385628893E+02  0.18360425528E+04  0.00000000000E+00 0.  1.
         13    1    5    5    0    0 -0.27964995667E+03 -0.20678441488E+00  0.41873478182E+02  0.28276762403E+03  0.00000000000E+00 0. -1.
        -13    1    5    5    0    0 -0.45081109320E+03  0.35736731453E+01 -0.50742410291E+02  0.45367191349E+03  0.00000000000E+00 0.  1.
          2    1    6    6  503    0 -0.55993925814E+03  0.49199450119E+03  0.47872783626E+03  0.88587296111E+03  0.00000000000E+00 0. -1.
         -2    1    6    6    0  503 -0.53064262299E+03  0.33070965700E+03  0.37618912274E+03  0.72970454749E+03  0.00000000000E+00 0.  1.
<mgrwt>
<rscale>  0 0.42588751E+04</rscale>
<asrwt>0</asrwt>
<pdfrwt beam="1">  1        2 0.40462423E+00 0.42588751E+04</pdfrwt>
<pdfrwt beam="2">  1       -3 0.26524745E+00 0.42588751E+04</pdfrwt>
<totfact> 0.85064512E-02</totfact>
</mgrwt>
</event>
<event>
11    7  0.1497947E-008  0.1884578E+04  0.7818608E-02  0.8662571E-01
         -3   -1    0    0    0  501 -0.00000000000E+00  0.00000000000E+00  0.64073239814E+03  0.64073239814E+03  0.00000000000E+00 0.  1.
          4   -1    0    0  501    0  0.00000000000E+00 -0.00000000000E+00 -0.13857718240E+04  0.13857718240E+04  0.00000000000E+00 0. -1.
         24    2    1    2    0    0  0.14116599881E+03 -0.42358585892E+03  0.32630873347E+03  0.55880383276E+03  0.80196726021E+02 0.  0.
        254    2    1    2    0    0 -0.14116599881E+03  0.42358585892E+03 -0.10713481593E+04  0.14677003894E+04  0.89833442293E+03 0.  0.
         23    2    4    4    0    0 -0.37364398996E+03 -0.46631710408E+02 -0.18814853935E+03  0.43058982538E+03  0.90682838535E+02 0.  0.
          4    1    3    3  502    0 -0.88019170470E+01 -0.28946043687E+02  0.32822956550E+02  0.44639597506E+02  0.00000000000E+00 0. -1.
         -3    1    3    3    0  502  0.14996791585E+03 -0.39463981523E+03  0.29348577692E+03  0.51416423525E+03  0.00000000000E+00 0.  1.
         13    1    5    5    0    0 -0.30052548443E+03 -0.66378035606E+02 -0.12578622191E+03  0.33248125364E+03  0.00000000000E+00 0. -1.
        -13    1    5    5    0    0 -0.73118505535E+02  0.19746325198E+02 -0.62362317442E+02  0.98108571732E+02  0.00000000000E+00 0.  1.
          2    1    4    4  503    0  0.24186319722E+03  0.40422015774E+03 -0.81757094672E+03  0.94356451555E+03  0.00000000000E+00 0. -1.
         -2    1    4    4    0  503 -0.93852060596E+01  0.65997411593E+02 -0.65628673263E+02  0.93546048468E+02  0.00000000000E+00 0.  1.
<mgrwt>
<rscale>  0 0.18845784E+04</rscale>
<asrwt>0</asrwt>
<pdfrwt beam="1">  1        4 0.21319567E+00 0.18845784E+04</pdfrwt>
<pdfrwt beam="2">  1       -3 0.98574215E-01 0.18845784E+04</pdfrwt>
<totfact> 0.20877166E-01</totfact>
</mgrwt>
</event>
<event>
12    7  0.1497947E-008  0.3725836E+04  0.7818608E-02  0.8062260E-01
         -1   -1    0    0    0  501 -0.00000000000E+00  0.00000000000E+00  0.16676005857E+04  0.16676005857E+04  0.00000000000E+00 0.  1.
          2   -1    0    0  501    0  0.00000000000E+00 -0.00000000000E+00 -0.20811114996E+04  0.20811114996E+04  0.00000000000E+00 0. -1.
         24    2    1    2    0    0 -0.29519063791E+03 -0.11165449034E+04 -0.15505713280E+04  0.19350385695E+04  0.79327096469E+02 0.  0.
        254    2    1    2    0    0  0.29519063791E+03  0.11165449034E+04  0.11370604141E+04  0.18136735158E+04  0.81406093298E+03 0.  0.
         23    2    4    4    0    0  0.52878092967E+03  0.84252559693E+03  0.62551150679E+03  0.11785213041E+04  0.90494010949E+02 0.  0.
         23    2    4    4    0    0 -0.23359029176E+03  0.27401930647E+03  0.51154890732E+03  0.63515221172E+03  0.10993199144E+03 0.  0.
          2    1    3    3  502    0 -0.25122816564E+03 -0.94412497268E+03 -0.13570667698E+04  0.16721596135E+04  0.00000000000E+00 0. -1.
         -1    1    3    3    0  502 -0.43962472268E+02 -0.17241993072E+03 -0.19350455820E+03  0.26287895603E+03  0.00000000000E+00 0.  1.
         13    1    5    5    0    0  0.48301079569E+03  0.77830470269E+03  0.54525021426E+03  0.10659997351E+04  0.00000000000E+00 0.  1.
        -13    1    5    5    0    0  0.45770133982E+02  0.64220894240E+02  0.80261292527E+02  0.11252156904E+03  0.00000000000E+00 0. -1.
          1    1    6    6  503    0 -0.14500549016E+03  0.24094618651E+03  0.36546080447E+03  0.46113258025E+03  0.00000000000E+00 0. -1.
         -1    1    6    6    0  503 -0.88584801608E+02  0.33073119965E+02  0.14608810285E+03  0.17401963147E+03  0.00000000000E+00 0.  1.
<mgrwt>
<rscale>  0 0.37258356E+04</rscale>
<asrwt>0</asrwt>
<pdfrwt beam="1">  1        2 0.32017100E+00 0.37258356E+04</pdfrwt>
<pdfrwt beam="2">  1       -1 0.25655394E+00 0.37258356E+04</pdfrwt>
<totfact> 0.34901255E-01</totfact>
</mgrwt>
</event>
<event>
12    7  0.1497947E-008  0.1924140E+04  0.7818608E-02  0.8642933E-01
         -1   -1    0    0    0  501 -0.00000000000E+00  0.00000000000E+00  0.28575939343E+03  0.28575939343E+03  0.00000000000E+00 0.  1.
          2   -1    0    0  501    0  0.00000000000E+00 -0.00000000000E+00 -0.32390145413E+04  0.32390145413E+04  0.00000000000E+00 0. -1.
         24    2    1    2    0    0  0.62537613395E+03  0.35491195480E+02 -0.40619226543E+03  0.75072914747E+03  0.79038993528E+02 0.  0.
        254    2    1    2    0    0 -0.62537613395E+03 -0.35491195480E+02 -0.25470628825E+04  0.27740447873E+04  0.90301728704E+03 0.  0.
         23    2    4    4    0    0 -0.10060554186E+03 -0.38635942487E+03 -0.61736774363E+03  0.74105864145E+03  0.92897249448E+02 0.  0.
         23    2    4    4    0    0 -0.52477059209E+03  0.35086822939E+03 -0.19296951388E+04  0.20329861458E+04  0.10400313244E+03 0.  0.
          2    1    3    3  502    0  0.45137906329E+03  0.11151103646E+02 -0.32985349504E+03  0.55916968272E+03  0.00000000000E+00 0. -1.
         -1    1    3    3    0  502  0.17399707066E+03  0.24340091834E+02 -0.76338770385E+02  0.19155946475E+03  0.00000000000E+00 0.  1.
         13    1    5    5    0    0 -0.71785795742E+02 -0.12255333541E+03 -0.17737620579E+03  0.22723300568E+03  0.00000000000E+00 0.  1.
        -13    1    5    5    0    0 -0.28819746117E+02 -0.26380608946E+03 -0.43999153785E+03  0.51382563578E+03  0.00000000000E+00 0. -1.
          1    1    6    6  503    0 -0.11201057392E+03  0.34324610951E+02 -0.29027326230E+03  0.31302254615E+03  0.00000000000E+00 0. -1.
         -1    1    6    6    0  503 -0.41276001817E+03  0.31654361843E+03 -0.16394218765E+04  0.17199635997E+04  0.00000000000E+00 0.  1.
<mgrwt>
<rscale>  0 0.19241402E+04</rscale>
<asrwt>0</asrwt>
<pdfrwt beam="1">  1        2 0.49830992E+00 0.19241402E+04</pdfrwt>
<pdfrwt beam="2">  1       -1 0.43962984E-01 0.19241402E+04</pdfrwt>
<totfact> 0.66837792E+00</totfact>
</mgrwt>
</event>
<event>
12    7  0.1497947E-008  0.1462855E+04  0.7818608E-02  0.8909537E-01
          2   -1    0    0  501    0  0.00000000000E+00  0.00000000000E+00  0.89165848449E+03  0.89165848449E+03  0.00000000000E+00 0. -1.
         -1   -1    0    0    0  501 -0.00000000000E+00 -0.00000000000E+00 -0.59999000322E+03  0.59999000322E+03  0.00000000000E+00 0.  1.
         24    2    1    2    0    0  0.13908709469E+03  0.13562025654E+03  0.51602757976E+03  0.55716149371E+03  0.80039946958E+02 0.  0.
        254    2    1    2    0    0 -0.13908709469E+03 -0.13562025654E+03 -0.22435909849E+03  0.93448699400E+03  0.88610996100E+03 0.  0.
         23    2    4    4    0    0  0.24461831220E+03  0.24020516885E+03 -0.44300180461E+02  0.35790905019E+03  0.92734785335E+02 0.  0.
         23    2    4    4    0    0 -0.38370540689E+03 -0.37582542539E+03 -0.18005891803E+03  0.57657794381E+03  0.10745381186E+03 0.  0.
          2    1    3    3  502    0  0.68295356863E+02  0.11915862959E+03  0.32995815607E+03  0.35740092268E+03  0.00000000000E+00 0. -1.
         -1    1    3    3    0  502  0.70791737830E+02  0.16461626945E+02  0.18606942368E+03  0.19976057102E+03  0.00000000000E+00 0.  1.
         13    1    5    5    0    0  0.19963206078E+03  0.13825393275E+03 -0.42087959532E+02  0.24645183292E+03  0.00000000000E+00 0. -1.
        -13    1    5    5    0    0  0.44986251419E+02  0.10195123610E+03 -0.22122209290E+01  0.11145721727E+03  0.00000000000E+00 0.  1.
          1    1    6    6  503    0 -0.53529027643E+02 -0.99120761320E+01 -0.11065589290E+02  0.55552257559E+02  0.00000000000E+00 0. -1.
         -1    1    6    6    0  503 -0.33017637925E+03 -0.36591334926E+03 -0.16899332874E+03  0.52102568625E+03  0.00000000000E+00 0.  1.
<mgrwt>
<rscale>  0 0.14628550E+04</rscale>
<asrwt>0</asrwt>
<pdfrwt beam="1">  1        2 0.13717823E+00 0.14628550E+04</pdfrwt>
<pdfrwt beam="2">  1       -1 0.92306154E-01 0.14628550E+04</pdfrwt>
<totfact> 0.37525981E+01</totfact>
</mgrwt>
</event>
<event>
12    7  0.1497947E-008  0.3342839E+04  0.7818608E-02  0.8152080E-01
          2   -1    0    0  501    0  0.00000000000E+00  0.00000000000E+00  0.21615491503E+04  0.21615491503E+04  0.00000000000E+00 0. -1.
         -1   -1    0    0    0  501 -0.00000000000E+00 -0.00000000000E+00 -0.12924266918E+04  0.12924266918E+04  0.00000000000E+00 0.  1.
         24    2    1    2    0    0  0.81217459140E+03  0.12496580722E+04 -0.29831977048E+02  0.14927840955E+04  0.79003447162E+02 0.  0.
        254    2    1    2    0    0 -0.81217459140E+03 -0.12496580722E+04  0.89895443555E+03  0.19611917465E+04  0.90381476266E+03 0.  0.
         23    2    4    4    0    0 -0.47901385067E+03 -0.56363119646E+03 -0.39720861889E+02  0.74677813280E+03  0.94685996929E+02 0.  0.
         23    2    4    4    0    0 -0.33316074073E+03 -0.68602687574E+03  0.93867529744E+03  0.12144136137E+04  0.10981874982E+03 0.  0.
          2    1    3    3  502    0  0.65925670644E+03  0.10066905093E+04  0.68444977096E+01  0.12033669572E+04  0.00000000000E+00 0. -1.
         -1    1    3    3    0  502  0.15291788496E+03  0.24296756294E+03 -0.36676474758E+02  0.28941713837E+03  0.00000000000E+00 0.  1.
         13    1    5    5    0    0 -0.39952534667E+03 -0.45854544015E+03  0.32357870353E+01  0.60818984999E+03  0.00000000000E+00 0. -1.
        -13    1    5    5    0    0 -0.79488504000E+02 -0.10508575631E+03 -0.42956648924E+02  0.13858828282E+03  0.00000000000E+00 0.  1.
          2    1    6    6  503    0 -0.25742046384E+03 -0.59070321285E+03  0.83349251265E+03  0.10535204552E+04  0.00000000000E+00 0. -1.
         -2    1    6    6    0  503 -0.75740276887E+02 -0.95323662883E+02  0.10518278479E+03  0.16089315854E+03  0.00000000000E+00 0.  1.
<mgrwt>
<rscale>  0 0.33428394E+04</rscale>
<asrwt>0</asrwt>
<pdfrwt beam="1">  1        2 0.33254602E+00 0.33428394E+04</pdfrwt>
<pdfrwt beam="2">  1       -1 0.19883487E+00 0.33428394E+04</pdfrwt>
<totfact> 0.78752216E-01</totfact>
</mgrwt>
</event>
<event>
12    7  0.1497947E-008  0.1788384E+04  0.7818608E-02  0.8712501E-01
          4   -1    0    0  501    0  0.00000000000E+00  0.00000000000E+00  0.10835609669E+04  0.10835609669E+04  0.00000000000E+00 0. -1.
         -3   -1    0    0    0  501 -0.00000000000E+00 -0.00000000000E+00 -0.73791799577E+03  0.73791799577E+03  0.00000000000E+00 0.  1.
         24    2    1    2    0    0  0.29458382245E+03 -0.25319810547E+03 -0.42977151487E+03  0.58502525099E+03  0.81621567236E+02 0.  0.
        254    2    1    2    0    0 -0.29458382245E+03  0.25319810547E+03  0.77541448600E+03  0.12364537117E+04  0.88128386289E+03 0.  0.
         23    2    4    4    0    0 -0.37394398817E+03 -0.13554581163E+02  0.85577176180E+03  0.93899281398E+03  0.96666247717E+02 0.  0.
         23    2    4    4    0    0  0.79360165723E+02  0.26675268663E+03 -0.80357275795E+02  0.29746089771E+03  0.67606672498E+02 0.  0.
          2    1    3    3  502    0  0.64278556400E+02 -0.10381404004E+03 -0.12170921966E+03  0.17240133953E+03  0.00000000000E+00 0. -1.
         -1    1    3    3    0  502  0.23030526605E+03 -0.14938406542E+03 -0.30806229521E+03  0.41262391146E+03  0.00000000000E+00 0.  1.
         13    1    5    5    0    0 -0.21972540128E+03 -0.55437915144E+02  0.49382380334E+03  0.54333651005E+03  0.00000000000E+00 0.  1.
        -13    1    5    5    0    0 -0.15421858690E+03  0.41883333981E+02  0.36194795846E+03  0.39565630393E+03  0.00000000000E+00 0. -1.
          1    1    6    6  503    0  0.90713410937E+01  0.16747312154E+02 -0.25841863461E+02  0.32102392446E+02  0.00000000000E+00 0. -1.
         -1    1    6    6    0  503  0.70288824629E+02  0.25000537448E+03 -0.54515412334E+02  0.26535850527E+03  0.00000000000E+00 0.  1.
<mgrwt>
<rscale>  0 0.17883838E+04</rscale>
<asrwt>0</asrwt>
<pdfrwt beam="1">  1        4 0.16670169E+00 0.17883838E+04</pdfrwt>
<pdfrwt beam="2">  1       -3 0.11352585E+00 0.17883838E+04</pdfrwt>
<totfact> 0.31192976E-01</totfact>
</mgrwt>
</event>
<event>
12    7  0.1497947E-008  0.1286425E+04  0.7818608E-02  0.9040400E-01
          4   -1    0    0  501    0  0.00000000000E+00  0.00000000000E+00  0.86281415954E+03  0.86281415954E+03  0.00000000000E+00 0. -1.
         -3   -1    0    0    0  501 -0.00000000000E+00 -0.00000000000E+00 -0.47950365995E+03  0.47950365995E+03  0.00000000000E+00 0.  1.
         24    2    1    2    0    0  0.59183284001E+02 -0.19171617746E+03 -0.15401442306E+03  0.26939592659E+03  0.92714448426E+02 0.  0.
        254    2    1    2    0    0 -0.59183284001E+02  0.19171617746E+03  0.53732492265E+03  0.10729218929E+04  0.90674448547E+03 0.  0.
         23    2    4    4    0    0 -0.52542807180E+02  0.51932185014E+03  0.48833263344E+03  0.72054549676E+03  0.90890711290E+02 0.  0.
         23    2    4    4    0    0 -0.66404768210E+01 -0.32760567268E+03  0.48992289216E+02  0.35237639613E+03  0.11999711431E+03 0.  0.
          2    1    3    3  502    0 -0.12834759301E+02  0.24085052703E+01 -0.38256813249E+01  0.13607636883E+02  0.00000000000E+00 0. -1.
         -1    1    3    3    0  502  0.72018043302E+02 -0.19412468273E+03 -0.15018874174E+03  0.25578828971E+03  0.00000000000E+00 0.  1.
         13    1    5    5    0    0 -0.53863517552E+02  0.37678876392E+03  0.30159773201E+03  0.48562562030E+03  0.00000000000E+00 0. -1.
        -13    1    5    5    0    0  0.13207103713E+01  0.14253308622E+03  0.18673490143E+03  0.23491987646E+03  0.00000000000E+00 0.  1.
          1    1    6    6  503    0  0.43406218562E+02 -0.25809079242E+03  0.22329129277E+02  0.26266622728E+03  0.00000000000E+00 0. -1.
         -1    1    6    6    0  503 -0.50046695383E+02 -0.69514880264E+02  0.26663159939E+02  0.89710168848E+02  0.00000000000E+00 0.  1.
<mgrwt>
<rscale>  0 0.12864254E+04</rscale>
<asrwt>0</asrwt>
<pdfrwt beam="1">  1        4 0.13274064E+00 0.12864254E+04</pdfrwt>
<pdfrwt beam="2">  1       -3 0.73769794E-01 0.12864254E+04</pdfrwt>
<totfact> 0.16000361E+00</totfact>
</mgrwt>
</event>
<event>
12    7  0.1497947E-008  0.1518358E+04  0.7818608E-02  0.8872336E-01
         -1   -1    0    0    0  501 -0.00000000000E+00  0.00000000000E+00  0.11606502420E+04  0.11606502420E+04  0.00000000000E+00 0.  1.
          2   -1    0    0  501    0  0.00000000000E+00 -0.00000000000E+00 -0.49657724069E+03  0.49657724069E+03  0.00000000000E+00 0. -1.
         24    2    1    2    0    0  0.38716492696E+03  0.22785804514E+03 -0.24452124814E+01  0.45630501606E+03  0.79951980699E+02 0.  0.
        254    2    1    2    0    0 -0.38716492696E+03 -0.22785804514E+03  0.66651821381E+03  0.12009224666E+04  0.89227365317E+03 0.  0.
         23    2    4    4    0    0 -0.43766080636E+03 -0.45661310758E+03  0.20206050342E+03  0.66967217701E+03  0.87119838064E+02 0.  0.
         23    2    4    4    0    0  0.50495879400E+02  0.22875506244E+03  0.46445771040E+03  0.53125028963E+03  0.10782946287E+03 0.  0.
          2    1    3    3  502    0  0.33243155761E+03  0.21295680539E+03 -0.24240831183E+02  0.39553629335E+03  0.00000000000E+00 0. -1.
         -1    1    3    3    0  502  0.54733369346E+02  0.14901239757E+02  0.21795618701E+02  0.60768722719E+02  0.00000000000E+00 0.  1.
         13    1    5    5    0    0 -0.39473593214E+03 -0.44304086682E+03  0.19014510168E+03  0.62310258023E+03  0.00000000000E+00 0. -1.
        -13    1    5    5    0    0 -0.42924874213E+02 -0.13572240760E+02  0.11915401734E+02  0.46569596777E+02  0.00000000000E+00 0.  1.
          4    1    6    6  503    0  0.29614012313E+02  0.14321870214E+03  0.17172018495E+03  0.22555799318E+03  0.00000000000E+00 0.  1.
         -4    1    6    6    0  503  0.20881867086E+02  0.85536360294E+02  0.29273752545E+03  0.30569229646E+03  0.00000000000E+00 0. -1.
<mgrwt>
<rscale>  0 0.15183577E+04</rscale>
<asrwt>0</asrwt>
<pdfrwt beam="1">  1        2 0.76396498E-01 0.15183577E+04</pdfrwt>
<pdfrwt beam="2">  1       -1 0.17856158E+00 0.15183577E+04</pdfrwt>
<totfact> 0.14592306E+01</totfact>
</mgrwt>
</event>
<event>
12    7  0.1497947E-008  0.1947690E+04  0.7818608E-02  0.8631475E-01
          2   -1    0    0  501    0  0.00000000000E+00  0.00000000000E+00  0.20582276081E+04  0.20582276081E+04  0.00000000000E+00 0. -1.
         -1   -1    0    0    0  501 -0.00000000000E+00 -0.00000000000E+00 -0.46077230647E+03  0.46077230647E+03  0.00000000000E+00 0.  1.
         24    2    1    2    0    0 -0.37765208615E+03 -0.60731843577E+03  0.27924027277E+03  0.77186135605E+03  0.79611823422E+02 0.  0.
        254    2    1    2    0    0  0.37765208615E+03  0.60731843577E+03  0.13182150289E+04  0.17471385585E+04  0.89629543109E+03 0.  0.
         23    2    4    4    0    0  0.91559095769E+02 -0.16712009995E+03  0.30545685254E+02  0.21274795336E+03  0.89534668968E+02 0.  0.
         23    2    4    4    0    0  0.28609299038E+03  0.77443853571E+03  0.12876693436E+04  0.15343906052E+04  0.12107000464E+03 0.  0.
          2    1    3    3  502    0 -0.12901557640E+02 -0.81579276677E+01 -0.33453255673E+01  0.15626681558E+02  0.00000000000E+00 0. -1.
         -1    1    3    3    0  502 -0.36475052851E+03 -0.59916050810E+03  0.28258559834E+03  0.75623467449E+03  0.00000000000E+00 0.  1.
         13    1    5    5    0    0  0.76500521351E+01 -0.64702862565E+02  0.45553540209E+02  0.79499111614E+02  0.00000000000E+00 0.  1.
        -13    1    5    5    0    0  0.83909043634E+02 -0.10241723738E+03 -0.15007854956E+02  0.13324884175E+03  0.00000000000E+00 0. -1.
          4    1    6    6  503    0  0.21120336988E+03  0.51385765989E+03  0.95919332543E+03  0.11084711966E+04  0.00000000000E+00 0. -1.
         -4    1    6    6    0  503  0.74889620498E+02  0.26058087583E+03  0.32847601818E+03  0.42591940860E+03  0.00000000000E+00 0.  1.
<mgrwt>
<rscale>  0 0.19476902E+04</rscale>
<asrwt>0</asrwt>
<pdfrwt beam="1">  1        2 0.31665040E+00 0.19476902E+04</pdfrwt>
<pdfrwt beam="2">  1       -1 0.70888048E-01 0.19476902E+04</pdfrwt>
<totfact> 0.13240681E+01</totfact>
</mgrwt>
</event>
<event>
12    7  0.1497947E-008  0.1030398E+04  0.7818608E-02  0.9275819E-01
         -1   -1    0    0    0  501 -0.00000000000E+00  0.00000000000E+00  0.18791714617E+03  0.18791714617E+03  0.00000000000E+00 0.  1.
          2   -1    0    0  501    0  0.00000000000E+00 -0.00000000000E+00 -0.14124842616E+04  0.14124842616E+04  0.00000000000E+00 0. -1.
         24    2    1    2    0    0  0.50413103840E+02 -0.55471962383E+02 -0.42010488649E+02  0.11707883663E+03  0.79523287032E+02 0.  0.
        254    2    1    2    0    0 -0.50413103840E+02  0.55471962383E+02 -0.11825566268E+04  0.14833225712E+04  0.89229314403E+03 0.  0.
         23    2    4    4    0    0  0.29585846460E+03 -0.14403650350E+03 -0.14875880174E+03  0.37232958855E+03  0.90671914057E+02 0.  0.
         23    2    4    4    0    0 -0.34627156844E+03  0.19950846589E+03 -0.10337978251E+04  0.11109929826E+04  0.76549573776E+02 0.  0.
          2    1    3    3  502    0 -0.16359844008E+02 -0.26897173922E+01  0.79469623376E+01  0.18385681549E+02  0.00000000000E+00 0. -1.
         -1    1    3    3    0  502  0.66772947848E+02 -0.52782244991E+02 -0.49957450987E+02  0.98693155080E+02  0.00000000000E+00 0.  1.
         13    1    5    5    0    0  0.98624785361E+02 -0.29517454124E+01 -0.48099446026E+02  0.10976847360E+03  0.00000000000E+00 0. -1.
        -13    1    5    5    0    0  0.19723367924E+03 -0.14108475809E+03 -0.10065935571E+03  0.26256111495E+03  0.00000000000E+00 0.  1.
          3    1    6    6  503    0 -0.15552410269E+03  0.12740088822E+03 -0.56735405566E+03  0.60192138798E+03  0.00000000000E+00 0. -1.
         -3    1    6    6    0  503 -0.19074746575E+03  0.72107577671E+02 -0.46644376939E+03  0.50907159462E+03  0.00000000000E+00 0.  1.
<mgrwt>
<rscale>  0 0.10303980E+04</rscale>
<asrwt>0</asrwt>
<pdfrwt beam="1">  1        2 0.21730527E+00 0.10303980E+04</pdfrwt>
<pdfrwt beam="2">  1       -1 0.28910330E-01 0.10303980E+04</pdfrwt>
<totfact> 0.17583765E+02</totfact>
</mgrwt>
</event>
<event>
12    7  0.1497947E-008  0.1100879E+04  0.7818608E-02  0.9204335E-01
          2   -1    0    0  501    0  0.00000000000E+00  0.00000000000E+00  0.25219827031E+04  0.25219827031E+04  0.00000000000E+00 0. -1.
         -1   -1    0    0    0  501 -0.00000000000E+00 -0.00000000000E+00 -0.12013714363E+03  0.12013714363E+03  0.00000000000E+00 0.  1.
         24    2    1    2    0    0  0.61862446500E+02 -0.15257586154E+03  0.47923771091E+03  0.51294462743E+03  0.79605599296E+02 0.  0.
        254    2    1    2    0    0 -0.61862446500E+02  0.15257586154E+03  0.19226078485E+04  0.21291752193E+04  0.89992211847E+03 0.  0.
         23    2    4    4    0    0 -0.28368369012E+03  0.87384521631E+02  0.18331423873E+04  0.18595341120E+04  0.96662355839E+02 0.  0.
         23    2    4    4    0    0  0.22182124362E+03  0.65191339913E+02  0.89465461264E+02  0.26964110727E+03  0.10605509442E+03 0.  0.
          2    1    3    3  502    0 -0.88711322923E+01 -0.42715552688E+02  0.19923851027E+03  0.20395906306E+03  0.00000000000E+00 0. -1.
         -1    1    3    3    0  502  0.70733578793E+02 -0.10986030886E+03  0.27999920064E+03  0.30898556437E+03  0.00000000000E+00 0.  1.
         13    1    5    5    0    0 -0.68248581486E+02  0.59165468241E+01  0.23174499055E+03  0.24165805397E+03  0.00000000000E+00 0.  1.
        -13    1    5    5    0    0 -0.21543510863E+03  0.81467974807E+02  0.16013973967E+04  0.16178760580E+04  0.00000000000E+00 0. -1.
          4    1    6    6  503    0  0.17984762175E+03  0.60264842176E+02  0.23260303733E+02  0.19109699103E+03  0.00000000000E+00 0. -1.
         -4    1    6    6    0  503  0.41973621872E+02  0.49264977373E+01  0.66205157531E+02  0.78544116245E+02  0.00000000000E+00 0.  1.
<mgrwt>
<rscale>  0 0.11008793E+04</rscale>
<asrwt>0</asrwt>
<pdfrwt beam="1">  1        2 0.38799730E+00 0.11008793E+04</pdfrwt>
<pdfrwt beam="2">  1       -1 0.18482639E-01 0.11008793E+04</pdfrwt>
<totfact> 0.90020582E+01</totfact>
</mgrwt>
</event>
<event>
12    7  0.1497947E-008  0.1702710E+04  0.7818608E-02  0.8759820E-01
          2   -1    0    0  501    0  0.00000000000E+00  0.00000000000E+00  0.12459595714E+04  0.12459595714E+04  0.00000000000E+00 0. -1.
         -1   -1    0    0    0  501 -0.00000000000E+00 -0.00000000000E+00 -0.58172488600E+03  0.58172488600E+03  0.00000000000E+00 0.  1.
         24    2    1    2    0    0  0.38490109834E+03 -0.41921987778E+03  0.45828932203E+03  0.73502049981E+03  0.79573054614E+02 0.  0.
        254    2    1    2    0    0 -0.38490109834E+03  0.41921987778E+03  0.20594536339E+03  0.10926639576E+04  0.90972900918E+03 0.  0.
         23    2    4    4    0    0 -0.63511230373E+02 -0.25615741009E+03 -0.67456295009E+02  0.28738731312E+03  0.91601424012E+02 0.  0.
         23    2    4    4    0    0 -0.32138986797E+03  0.67537728787E+03  0.27340165840E+03  0.80527664449E+03  0.11956621239E+03 0.  0.
          4    1    3    3  502    0  0.24005420095E+03 -0.27618810444E+03  0.34042869207E+03  0.49979754182E+03  0.00000000000E+00 0. -1.
         -3    1    3    3    0  502  0.14484689739E+03 -0.14303177334E+03  0.11786062997E+03  0.23522295799E+03  0.00000000000E+00 0.  1.
         13    1    5    5    0    0 -0.98354998517E+01 -0.23597599680E+02 -0.39542134150E+02  0.47086772464E+02  0.00000000000E+00 0.  1.
        -13    1    5    5    0    0 -0.53675730521E+02 -0.23255981041E+03 -0.27914160859E+02  0.24030054066E+03  0.00000000000E+00 0. -1.
          4    1    6    6  503    0 -0.17971696250E+03  0.29254184315E+03  0.17506055243E+03  0.38538956086E+03  0.00000000000E+00 0. -1.
         -4    1    6    6    0  503 -0.14167290547E+03  0.38283544471E+03  0.98341105973E+02  0.41988708363E+03  0.00000000000E+00 0.  1.
<mgrwt>
<rscale>  0 0.17027104E+04</rscale>
<asrwt>0</asrwt>
<pdfrwt beam="1">  1        2 0.19168609E+00 0.17027104E+04</pdfrwt>
<pdfrwt beam="2">  1       -1 0.89496137E-01 0.17027104E+04</pdfrwt>
<totfact> 0.23595605E+01</totfact>
</mgrwt>
</event>
<event>
11    7  0.1497947E-008  0.2480226E+04  0.7818608E-02  0.8410064E-01
          2   -1    0    0  501    0  0.00000000000E+00  0.00000000000E+00  0.13918529070E+04  0.13918529070E+04  0.00000000000E+00 0. -1.
         -1   -1    0    0    0  501 -0.00000000000E+00 -0.00000000000E+00 -0.11049161790E+04  0.11049161790E+04  0.00000000000E+00 0.  1.
         24    2    1    2    0    0  0.77319984351E+03  0.34074143102E+03 -0.54496680672E+03  0.10086007148E+04  0.79648355762E+02 0.  0.
        254    2    1    2    0    0 -0.77319984351E+03 -0.34074143102E+03  0.83190353470E+03  0.14881683713E+04  0.89924350958E+03 0.  0.
         23    2    4    4    0    0 -0.50930308224E+03 -0.28681591405E+03 -0.12450433951E+01  0.59159397642E+03  0.91262723342E+02 0.  0.
          4    1    3    3  502    0  0.10094474581E+03  0.39427646697E+02 -0.10294817499E+03  0.14947477300E+03  0.00000000000E+00 0. -1.
         -3    1    3    3    0  502  0.67225509770E+03  0.30131378432E+03 -0.44201863173E+03  0.85912594176E+03  0.00000000000E+00 0.  1.
         13    1    5    5    0    0 -0.16636796739E+03 -0.69135385793E+02 -0.36698997298E+02  0.18386086736E+03  0.00000000000E+00 0. -1.
        -13    1    5    5    0    0 -0.34293511484E+03 -0.21768052825E+03  0.35453953903E+02  0.40773310906E+03  0.00000000000E+00 0.  1.
          3    1    4    4  503    0 -0.40471087237E+02 -0.10416350545E+02  0.10602164293E+02  0.43113978574E+02  0.00000000000E+00 0. -1.
         -3    1    4    4    0  503 -0.22342567403E+03 -0.43509166431E+02  0.82254641380E+03  0.85346041633E+03  0.00000000000E+00 0.  1.
<mgrwt>
<rscale>  0 0.24802264E+04</rscale>
<asrwt>0</asrwt>
<pdfrwt beam="1">  1        2 0.21413122E+00 0.24802264E+04</pdfrwt>
<pdfrwt beam="2">  1       -1 0.16998711E+00 0.24802264E+04</pdfrwt>
<totfact> 0.36640356E+00</totfact>
</mgrwt>
</event>
<event>
12    7  0.1592736E-008  0.2092428E+04  0.7818608E-02  0.8564586E-01
         -3   -1    0    0    0  501 -0.00000000000E+00  0.00000000000E+00  0.47696275590E+03  0.47696275590E+03  0.00000000000E+00 0.  1.
          2   -1    0    0  501    0  0.00000000000E+00 -0.00000000000E+00 -0.22948620635E+04  0.22948620635E+04  0.00000000000E+00 0. -1.
         24    2    1    2    0    0 -0.45078087898E+02 -0.32127299614E+03  0.29738974302E+03  0.44753230013E+03  0.81216552207E+02 0.  0.
        254    2    1    2    0    0  0.45078087898E+02  0.32127299614E+03 -0.21152890506E+04  0.23242925192E+04  0.90699480450E+03 0.  0.
         23    2    4    4    0    0  0.46043958814E+03  0.17733148817E+03 -0.12770076265E+04  0.13720700929E+04  0.91524809017E+02 0.  0.
         23    2    4    4    0    0 -0.41536150024E+03  0.14394150797E+03 -0.83828142405E+03  0.95222242631E+03  0.10376641872E+03 0.  0.
          2    1    3    3  502    0  0.15684408844E+02 -0.15395746660E+03  0.11612717506E+03  0.19347977411E+03  0.00000000000E+00 0. -1.
         -1    1    3    3    0  502 -0.60762496742E+02 -0.16731552955E+03  0.18126256796E+03  0.25405252602E+03  0.00000000000E+00 0.  1.
         13    1    5    5    0    0  0.38658456863E+03  0.17427844885E+03 -0.11413713839E+04  0.12175997875E+04  0.00000000000E+00 0.  1.
        -13    1    5    5    0    0  0.73855019510E+02  0.30530393146E+01 -0.13563624262E+03  0.15447030546E+03  0.00000000000E+00 0. -1.
          4    1    6    6  503    0 -0.63237535633E+01 -0.39277098845E+01 -0.61595183957E+02  0.62043399736E+02  0.00000000000E+00 0. -1.
         -4    1    6    6    0  503 -0.40903774668E+03  0.14786921786E+03 -0.77668624009E+03  0.89017902657E+03  0.00000000000E+00 0.  1.
<mgrwt>
<rscale>  0 0.20924280E+04</rscale>
<asrwt>0</asrwt>
<pdfrwt beam="1">  1        2 0.35305569E+00 0.20924280E+04</pdfrwt>
<pdfrwt beam="2">  1       -3 0.73378887E-01 0.20924280E+04</pdfrwt>
<totfact> 0.47477253E+00</totfact>
</mgrwt>
</event>
<event>
11    7  0.1497947E-008  0.1231522E+04  0.7818608E-02  0.9085704E-01
          2   -1    0    0  501    0  0.00000000000E+00  0.00000000000E+00  0.35410933652E+04  0.35410933652E+04  0.00000000000E+00 0. -1.
         -1   -1    0    0    0  501 -0.00000000000E+00 -0.00000000000E+00 -0.10707471292E+03  0.10707471292E+03  0.00000000000E+00 0.  1.
         24    2    1    2    0    0  0.28270704956E+02  0.24335944594E+03  0.42983235583E+03  0.50135391380E+03  0.81097719335E+02 0.  0.
        254    2    1    2    0    0 -0.28270704956E+02 -0.24335944594E+03  0.30041862965E+04  0.31468141644E+04  0.90403596629E+03 0.  0.
         23    2    4    4    0    0  0.29286551561E+03 -0.32330483044E+02  0.36873906591E+03  0.48027805085E+03  0.88786468721E+02 0.  0.
          2    1    3    3  502    0  0.36819210267E+02  0.13300473540E+03  0.30342658008E+03  0.33333707172E+03  0.00000000000E+00 0. -1.
         -1    1    3    3    0  502 -0.85485053106E+01  0.11035471054E+03  0.12640577575E+03  0.16801684209E+03  0.00000000000E+00 0.  1.
         13    1    5    5    0    0  0.55710607198E+02  0.61346596603E+01  0.26165885086E+02  0.61854339750E+02  0.00000000000E+00 0.  1.
        -13    1    5    5    0    0  0.23715490842E+03 -0.38465142705E+02  0.34257318083E+03  0.41842371110E+03  0.00000000000E+00 0. -1.
          2    1    4    4  503    0 -0.28330066556E+03 -0.21193420901E+03  0.25275872901E+04  0.25522290032E+04  0.00000000000E+00 0. -1.
         -2    1    4    4    0  503 -0.37835555013E+02  0.90524611212E+00  0.10785994052E+03  0.11430711029E+03  0.00000000000E+00 0.  1.
<mgrwt>
<rscale>  0 0.12315219E+04</rscale>
<asrwt>0</asrwt>
<pdfrwt beam="1">  1        2 0.54478351E+00 0.12315219E+04</pdfrwt>
<pdfrwt beam="2">  1       -1 0.16473035E-01 0.12315219E+04</pdfrwt>
<totfact> 0.24687446E+01</totfact>
</mgrwt>
</event>
<event>
11    7  0.1497947E-008  0.1492356E+04  0.7818608E-02  0.8889552E-01
         -1   -1    0    0    0  501 -0.00000000000E+00  0.00000000000E+00  0.33744360570E+03  0.33744360570E+03  0.00000000000E+00 0.  1.
          2   -1    0    0  501    0  0.00000000000E+00 -0.00000000000E+00 -0.16499983626E+04  0.16499983626E+04  0.00000000000E+00 0. -1.
         24    2    1    2    0    0  0.21816452924E+03  0.39172333932E+03 -0.60817249006E+03  0.75998803499E+03  0.81640059302E+02 0.  0.
        254    2    1    2    0    0 -0.21816452924E+03 -0.39172333932E+03 -0.70438226687E+03  0.12274539333E+04  0.89969208297E+03 0.  0.
         23    2    4    4    0    0 -0.35026515882E+03 -0.57210127205E+03 -0.67760055151E+03  0.95798362657E+03  0.92760845226E+02 0.  0.
          2    1    3    3  502    0  0.71052959221E+02  0.16737170309E+03 -0.30562271119E+03  0.35562206287E+03  0.00000000000E+00 0. -1.
         -1    1    3    3    0  502  0.14711157002E+03  0.22435163623E+03 -0.30254977887E+03  0.40436597212E+03  0.00000000000E+00 0.  1.
         13    1    5    5    0    0 -0.91104895452E+01 -0.24870013703E+02 -0.65006707757E+01  0.27272281200E+02  0.00000000000E+00 0. -1.
        -13    1    5    5    0    0 -0.34115466927E+03 -0.54723125835E+03 -0.67109988073E+03  0.93071134537E+03  0.00000000000E+00 0.  1.
          1    1    4    4  503    0  0.61602783361E+02  0.11129761871E+03  0.57575129310E+02  0.13963150921E+03  0.00000000000E+00 0. -1.
         -1    1    4    4    0  503  0.70497846216E+02  0.69080314021E+02 -0.84356844666E+02  0.12983879755E+03  0.00000000000E+00 0.  1.
<mgrwt>
<rscale>  0 0.14923557E+04</rscale>
<asrwt>0</asrwt>
<pdfrwt beam="1">  1        2 0.25384590E+00 0.14923557E+04</pdfrwt>
<pdfrwt beam="2">  1       -1 0.51914402E-01 0.14923557E+04</pdfrwt>
<totfact> 0.43018695E+01</totfact>
</mgrwt>
</event>
<event>
11    7  0.1497947E-008  0.2250271E+04  0.7818608E-02  0.8497791E-01
          2   -1    0    0  501    0  0.00000000000E+00  0.00000000000E+00  0.70212705853E+03  0.70212705853E+03  0.00000000000E+00 0. -1.
         -1   -1    0    0    0  501 -0.00000000000E+00 -0.00000000000E+00 -0.18029930315E+04  0.18029930315E+04  0.00000000000E+00 0.  1.
         24    2    1    2    0    0  0.94154295933E+03 -0.41650925696E+02 -0.50954038692E+03  0.10742946418E+04  0.78991313566E+02 0.  0.
        254    2    1    2    0    0 -0.94154295933E+03  0.41650925696E+02 -0.59132558602E+03  0.14308254482E+04  0.89964302403E+03 0.  0.
         23    2    4    4    0    0 -0.52122338854E+03  0.29949211102E+03  0.13162007147E+02  0.60949851760E+03  0.99728928647E+02 0.  0.
          4    1    3    3  502    0  0.12478283683E+03 -0.22035247400E+02 -0.45010630707E+02  0.13447031409E+03  0.00000000000E+00 0. -1.
         -3    1    3    3    0  502  0.81676012250E+03 -0.19615678296E+02 -0.46452975621E+03  0.93982432771E+03  0.00000000000E+00 0.  1.
         13    1    5    5    0    0 -0.28500034129E+03  0.12677690361E+03  0.44950334814E+02  0.31514775967E+03  0.00000000000E+00 0.  1.
        -13    1    5    5    0    0 -0.23622304724E+03  0.17271520741E+03 -0.31788327667E+02  0.29435075793E+03  0.00000000000E+00 0. -1.
          1    1    4    4  503    0 -0.25633092498E+03 -0.77357931965E+02 -0.15349343364E+03  0.30862603083E+03  0.00000000000E+00 0. -1.
         -1    1    4    4    0  503 -0.16398864581E+03 -0.18048325336E+03 -0.45099415953E+03  0.51270089977E+03  0.00000000000E+00 0.  1.
<mgrwt>
<rscale>  0 0.22502713E+04</rscale>
<asrwt>0</asrwt>
<pdfrwt beam="1">  1        2 0.10801955E+00 0.22502713E+04</pdfrwt>
<pdfrwt beam="2">  1       -1 0.27738354E+00 0.22502713E+04</pdfrwt>
<totfact> 0.19623291E+00</totfact>
</mgrwt>
</event>
<event>
12    7  0.1497947E-008  0.1518609E+04  0.7818608E-02  0.8872172E-01
         -1   -1    0    0    0  501 -0.00000000000E+00  0.00000000000E+00  0.33139675951E+03  0.33139675951E+03  0.00000000000E+00 0.  1.
          2   -1    0    0  501    0  0.00000000000E+00 -0.00000000000E+00 -0.17397373756E+04  0.17397373756E+04  0.00000000000E+00 0. -1.
         24    2    1    2    0    0 -0.30380525434E+03  0.36923609985E+03 -0.44814761733E+03  0.65925523557E+03  0.71751297532E+02 0.  0.
        254    2    1    2    0    0  0.30380525434E+03 -0.36923609985E+03 -0.96019299880E+03  0.14118788996E+04  0.91804057761E+03 0.  0.
         23    2    4    4    0    0 -0.68074535605E+02  0.22963089333E+02 -0.84584049377E+03  0.85388245941E+03  0.92237019184E+02 0.  0.
         23    2    4    4    0    0  0.37187978995E+03 -0.39219918919E+03 -0.11435250503E+03  0.55799644017E+03  0.78541388274E+02 0.  0.
          2    1    3    3  502    0 -0.14751697763E+03  0.16236653535E+03 -0.25226216626E+03  0.33430577472E+03  0.00000000000E+00 0. -1.
         -1    1    3    3    0  502 -0.15628827671E+03  0.20686956451E+03 -0.19588545108E+03  0.32494946084E+03  0.00000000000E+00 0.  1.
         13    1    5    5    0    0 -0.54676340430E+02 -0.15634630245E+02 -0.23917323063E+03  0.24584096102E+03  0.00000000000E+00 0. -1.
        -13    1    5    5    0    0 -0.13398195175E+02  0.38597719578E+02 -0.60666726315E+03  0.60804149839E+03  0.00000000000E+00 0.  1.
          3    1    6    6  503    0  0.10661994236E+03 -0.16319808509E+03 -0.55204298458E+02  0.20260538407E+03  0.00000000000E+00 0. -1.
         -3    1    6    6    0  503  0.26525984758E+03 -0.22900110410E+03 -0.59148206567E+02  0.35539105610E+03  0.00000000000E+00 0.  1.
<mgrwt>
<rscale>  0 0.15186090E+04</rscale>
<asrwt>0</asrwt>
<pdfrwt beam="1">  1        2 0.26765191E+00 0.15186090E+04</pdfrwt>
<pdfrwt beam="2">  1       -1 0.50984117E-01 0.15186090E+04</pdfrwt>
<totfact> 0.39615849E+01</totfact>
</mgrwt>
</event>
<event>
11    7  0.1497947E-008  0.1291933E+04  0.7818608E-02  0.9035987E-01
         -1   -1    0    0    0  501 -0.00000000000E+00  0.00000000000E+00  0.50078880609E+03  0.50078880609E+03  0.00000000000E+00 0.  1.
          2   -1    0    0  501    0  0.00000000000E+00 -0.00000000000E+00 -0.83323091418E+03  0.83323091418E+03  0.00000000000E+00 0. -1.
         24    2    1    2    0    0 -0.10255369643E+01  0.26218443489E+02 -0.42925904657E+03  0.43855390814E+03  0.85893787779E+02 0.  0.
        254    2    1    2    0    0  0.10255369643E+01 -0.26218443489E+02  0.96816938482E+02  0.89546581213E+03  0.88982978294E+03 0.  0.
         23    2    4    4    0    0 -0.34873110565E+03  0.54341123032E+02  0.13124829775E+03  0.38776499153E+03  0.92570142560E+02 0.  0.
          2    1    3    3  502    0  0.28773365237E+02  0.22001970560E+02 -0.77910992250E+02  0.85919240971E+02  0.00000000000E+00 0. -1.
         -1    1    3    3    0  502 -0.29798902201E+02  0.42164729288E+01 -0.35134805432E+03  0.35263466717E+03  0.00000000000E+00 0.  1.
         13    1    5    5    0    0 -0.13674416061E+03  0.13351030889E+02  0.46488267872E+01  0.13747300490E+03  0.00000000000E+00 0. -1.
        -13    1    5    5    0    0 -0.21198694504E+03  0.40990092143E+02  0.12659947096E+03  0.25029198663E+03  0.00000000000E+00 0.  1.
          4    1    4    4  503    0  0.31918119707E+03 -0.36506432942E+02  0.12098912031E+03  0.34328956210E+03  0.00000000000E+00 0. -1.
         -4    1    4    4    0  503  0.30575445543E+02 -0.44053133579E+02 -0.15542047958E+03  0.16441125850E+03  0.00000000000E+00 0.  1.
<mgrwt>
<rscale>  0 0.12919330E+04</rscale>
<asrwt>0</asrwt>
<pdfrwt beam="1">  1        2 0.12818937E+00 0.12919330E+04</pdfrwt>
<pdfrwt beam="2">  1       -1 0.77044432E-01 0.12919330E+04</pdfrwt>
<totfact> 0.61709012E+01</totfact>
</mgrwt>
</event>
<event>
12    7  0.1497947E-008  0.1879776E+04  0.7818608E-02  0.8664989E-01
         -1   -1    0    0    0  501 -0.00000000000E+00  0.00000000000E+00  0.10712869284E+04  0.10712869284E+04  0.00000000000E+00 0.  1.
          2   -1    0    0  501    0  0.00000000000E+00 -0.00000000000E+00 -0.82460620494E+03  0.82460620494E+03  0.00000000000E+00 0. -1.
         24    2    1    2    0    0 -0.41895910435E+03  0.76140075958E+02 -0.49809614152E+03  0.66012806509E+03  0.79657101643E+02 0.  0.
        254    2    1    2    0    0  0.41895910435E+03 -0.76140075958E+02  0.74477686498E+03  0.12357650683E+04  0.88943728448E+03 0.  0.
         23    2    4    4    0    0  0.21664786026E+02  0.36844148716E+03  0.27096580293E+03  0.46674808341E+03  0.90624580513E+02 0.  0.
         23    2    4    4    0    0  0.39729431832E+03 -0.44458156312E+03  0.47381106205E+03  0.76901698485E+03  0.10674576729E+03 0.  0.
          2    1    3    3  502    0 -0.35001126823E+03  0.69258805981E+02 -0.36703856386E+03  0.51188082349E+03  0.00000000000E+00 0. -1.
         -1    1    3    3    0  502 -0.68947836123E+02  0.68812699771E+01 -0.13105757765E+03  0.14824724160E+03  0.00000000000E+00 0.  1.
         13    1    5    5    0    0  0.49060845897E+02  0.23057146752E+03  0.13744633491E+03  0.27287664469E+03  0.00000000000E+00 0.  1.
        -13    1    5    5    0    0 -0.27396059871E+02  0.13787001964E+03  0.13351946802E+03  0.19387143872E+03  0.00000000000E+00 0. -1.
          2    1    6    6  503    0  0.20500463909E+03 -0.22383205787E+03  0.17346489900E+03  0.34959657230E+03  0.00000000000E+00 0. -1.
         -2    1    6    6    0  503  0.19228967924E+03 -0.22074950524E+03  0.30034616305E+03  0.41942041255E+03  0.00000000000E+00 0.  1.
<mgrwt>
<rscale>  0 0.18797764E+04</rscale>
<asrwt>0</asrwt>
<pdfrwt beam="1">  1        2 0.12686249E+00 0.18797764E+04</pdfrwt>
<pdfrwt beam="2">  1       -1 0.16481337E+00 0.18797764E+04</pdfrwt>
<totfact> 0.95201813E+00</totfact>
</mgrwt>
</event>
<event>
12    7  0.1497947E-008  0.1396806E+04  0.7818608E-02  0.8956134E-01
          2   -1    0    0  501    0  0.00000000000E+00  0.00000000000E+00  0.11035208905E+04  0.11035208905E+04  0.00000000000E+00 0. -1.
         -1   -1    0    0    0  501 -0.00000000000E+00 -0.00000000000E+00 -0.44200957323E+03  0.44200957323E+03  0.00000000000E+00 0.  1.
         24    2    1    2    0    0  0.46633355927E+02 -0.38718016945E+03  0.28374081793E+03  0.48814790900E+03  0.75474338705E+02 0.  0.
        254    2    1    2    0    0 -0.46633355927E+02  0.38718016945E+03  0.37777049938E+03  0.10573825548E+04  0.90733905648E+03 0.  0.
         23    2    4    4    0    0 -0.21167808937E+03 -0.14665150562E+03 -0.12286852669E+03  0.29979769998E+03  0.92020152377E+02 0.  0.
         23    2    4    4    0    0  0.16504473345E+03  0.53383167507E+03  0.50063902607E+03  0.75758485478E+03  0.10525852185E+03 0.  0.
          4    1    3    3  502    0  0.17340101623E+02 -0.19271734010E+03  0.94943427370E+02  0.21553400358E+03  0.00000000000E+00 0. -1.
         -3    1    3    3    0  502  0.29293254303E+02 -0.19446282936E+03  0.18879739056E+03  0.27261390542E+03  0.00000000000E+00 0.  1.
         13    1    5    5    0    0 -0.12353588987E+03 -0.85284481998E+02 -0.20649533936E+02  0.15152875043E+03  0.00000000000E+00 0. -1.
        -13    1    5    5    0    0 -0.88142199507E+02 -0.61367023617E+02 -0.10221899276E+03  0.14826894955E+03  0.00000000000E+00 0.  1.
          1    1    6    6  503    0  0.16862287302E+03  0.40044243726E+03  0.39814133666E+03  0.58932532851E+03  0.00000000000E+00 0. -1.
         -1    1    6    6    0  503 -0.35781395773E+01  0.13338923781E+03  0.10249768941E+03  0.16825952627E+03  0.00000000000E+00 0.  1.
<mgrwt>
<rscale>  0 0.13968061E+04</rscale>
<asrwt>0</asrwt>
<pdfrwt beam="1">  1        2 0.16977244E+00 0.13968061E+04</pdfrwt>
<pdfrwt beam="2">  1       -1 0.68001473E-01 0.13968061E+04</pdfrwt>
<totfact> 0.52703033E+01</totfact>
</mgrwt>
</event>
<event>
12    7  0.1497947E-008  0.2044533E+04  0.7818608E-02  0.8586078E-01
          2   -1    0    0  501    0  0.00000000000E+00  0.00000000000E+00  0.38377793064E+03  0.38377793064E+03  0.00000000000E+00 0. -1.
         -1   -1    0    0    0  501 -0.00000000000E+00 -0.00000000000E+00 -0.27230048344E+04  0.27230048344E+04  0.00000000000E+00 0.  1.
         24    2    1    2    0    0 -0.48373115639E+03  0.65910911119E+03 -0.10673809624E+04  0.13471328026E+04  0.83928640853E+02 0.  0.
        254    2    1    2    0    0  0.48373115639E+03 -0.65910911119E+03 -0.12718459413E+04  0.17596499624E+04  0.90019733375E+03 0.  0.
         23    2    4    4    0    0  0.41712032633E+03 -0.86995862006E+02 -0.96005571709E+02  0.44606742327E+03  0.90561745010E+02 0.  0.
         23    2    4    4    0    0  0.66610830055E+02 -0.57211324919E+03 -0.11758403696E+04  0.13135825391E+04  0.10558380461E+03 0.  0.
          2    1    3    3  502    0 -0.18765583671E+03  0.22860150749E+03 -0.32644009113E+03  0.44049573820E+03  0.00000000000E+00 0. -1.
         -1    1    3    3    0  502 -0.29607531968E+03  0.43050760370E+03 -0.74094087132E+03  0.90663706441E+03  0.00000000000E+00 0.  1.
         13    1    5    5    0    0  0.39586792442E+02 -0.13904215088E+02  0.16988141240E+02  0.45266303978E+02  0.00000000000E+00 0. -1.
        -13    1    5    5    0    0  0.37753353389E+03 -0.73091646918E+02 -0.11299371295E+03  0.40080111929E+03  0.00000000000E+00 0.  1.
          3    1    6    6  503    0 -0.18268927767E+02 -0.46809252087E+02 -0.67752035718E+02  0.84351633930E+02  0.00000000000E+00 0. -1.
         -3    1    6    6    0  503  0.84879757823E+02 -0.52530399710E+03 -0.11080883339E+04  0.12292309052E+04  0.00000000000E+00 0.  1.
<mgrwt>
<rscale>  0 0.20445334E+04</rscale>
<asrwt>0</asrwt>
<pdfrwt beam="1">  1        2 0.59042759E-01 0.20445334E+04</pdfrwt>
<pdfrwt beam="2">  1       -1 0.41892382E+00 0.20445334E+04</pdfrwt>
<totfact> 0.46819484E-01</totfact>
</mgrwt>
</event>
<event>
12    7  0.1497947E-008  0.2453329E+04  0.7818608E-02  0.8419804E-01
          2   -1    0    0  501    0  0.00000000000E+00  0.00000000000E+00  0.11493496300E+04  0.11493496300E+04  0.00000000000E+00 0. -1.
         -1   -1    0    0    0  501 -0.00000000000E+00 -0.00000000000E+00 -0.13091801524E+04  0.13091801524E+04  0.00000000000E+00 0.  1.
         24    2    1    2    0    0 -0.22285811438E+03  0.85065972752E+03  0.52151533201E+03  0.10254384440E+04  0.79107836691E+02 0.  0.
        254    2    1    2    0    0  0.22285811438E+03 -0.85065972752E+03 -0.68134585446E+03  0.14330913383E+04  0.90345497920E+03 0.  0.
         23    2    4    4    0    0 -0.71539940280E+02 -0.30761345535E+03  0.17346577530E+03  0.37252283834E+03  0.94545697486E+02 0.  0.
         23    2    4    4    0    0  0.29439805466E+03 -0.54304627217E+03 -0.85481162976E+03  0.10605685000E+04  0.11195156322E+03 0.  0.
          2    1    3    3  502    0 -0.13399225007E+03  0.38411089970E+03  0.26698577272E+03  0.48659686516E+03  0.00000000000E+00 0. -1.
         -1    1    3    3    0  502 -0.88865864305E+02  0.46654882782E+03  0.25452955929E+03  0.53884157888E+03  0.00000000000E+00 0.  1.
         13    1    5    5    0    0 -0.83587753488E+02 -0.15107237213E+03  0.92424110011E+02  0.19583664179E+03  0.00000000000E+00 0. -1.
        -13    1    5    5    0    0  0.12047813208E+02 -0.15654108322E+03  0.81041665291E+02  0.17668619655E+03  0.00000000000E+00 0.  1.
          1    1    6    6  503    0  0.28893329042E+03 -0.50438296774E+03 -0.83323736826E+03  0.10159572512E+04  0.00000000000E+00 0. -1.
         -1    1    6    6    0  503  0.54647642350E+01 -0.38663304423E+02 -0.21574261505E+02  0.44611248767E+02  0.00000000000E+00 0.  1.
<mgrwt>
<rscale>  0 0.24533289E+04</rscale>
<asrwt>0</asrwt>
<pdfrwt beam="1">  1        2 0.17682302E+00 0.24533289E+04</pdfrwt>
<pdfrwt beam="2">  1       -1 0.20141233E+00 0.24533289E+04</pdfrwt>
<totfact> 0.30518820E+00</totfact>
</mgrwt>
</event>
<event>
12    7  0.1497947E-008  0.1448949E+04  0.7818608E-02  0.8919129E-01
         -1   -1    0    0    0  501 -0.00000000000E+00  0.00000000000E+00  0.64284936983E+03  0.64284936983E+03  0.00000000000E+00 0.  1.
          2   -1    0    0  501    0  0.00000000000E+00 -0.00000000000E+00 -0.81646382672E+03  0.81646382672E+03  0.00000000000E+00 0. -1.
         24    2    1    2    0    0 -0.11694186238E+02 -0.22807096536E+03 -0.41229958916E+03  0.47835893826E+03  0.81750861532E+02 0.  0.
        254    2    1    2    0    0  0.11694186238E+02  0.22807096536E+03  0.23868513226E+03  0.98095425829E+03  0.92365986448E+03 0.  0.
         23    2    4    4    0    0  0.93766002055E+02  0.21044561996E+03 -0.32463661033E+03  0.40749310223E+03  0.87076274031E+02 0.  0.
         23    2    4    4    0    0 -0.82071815817E+02  0.17625345403E+02  0.56332174260E+03  0.57346115605E+03  0.66931876294E+02 0.  0.
          4    1    3    3  502    0 -0.30200818245E+02 -0.20592989619E+03 -0.32067773053E+03  0.38230016797E+03  0.00000000000E+00 0. -1.
         -3    1    3    3    0  502  0.18506632006E+02 -0.22141069167E+02 -0.91621858622E+02  0.96058770289E+02  0.00000000000E+00 0.  1.
         13    1    5    5    0    0  0.22488562120E+02  0.11249907724E+02 -0.74549774841E+01  0.26227324288E+02  0.00000000000E+00 0.  1.
        -13    1    5    5    0    0  0.71277439935E+02  0.19919571223E+03 -0.31718163285E+03  0.38126577795E+03  0.00000000000E+00 0. -1.
          4    1    6    6  503    0 -0.90450786193E+02  0.98159386884E+01  0.53840128301E+03  0.54603446679E+03  0.00000000000E+00 0. -1.
         -4    1    6    6    0  503  0.83789703758E+01  0.78094067147E+01  0.24920459586E+02  0.27426689260E+02  0.00000000000E+00 0.  1.
<mgrwt>
<rscale>  0 0.14489489E+04</rscale>
<asrwt>0</asrwt>
<pdfrwt beam="1">  1        2 0.12560982E+00 0.14489489E+04</pdfrwt>
<pdfrwt beam="2">  1       -1 0.98899903E-01 0.14489489E+04</pdfrwt>
<totfact> 0.36293141E+01</totfact>
</mgrwt>
</event>
<event>
11    7  0.1497947E-008  0.2031093E+04  0.7818608E-02  0.8592220E-01
          2   -1    0    0  501    0  0.00000000000E+00  0.00000000000E+00  0.19032915400E+04  0.19032915400E+04  0.00000000000E+00 0. -1.
         -1   -1    0    0    0  501 -0.00000000000E+00 -0.00000000000E+00 -0.54186889095E+03  0.54186889095E+03  0.00000000000E+00 0.  1.
         24    2    1    2    0    0  0.56507951016E+03  0.41098629642E+03  0.96924129102E+03  0.11976441083E+04  0.81842173673E+02 0.  0.
        254    2    1    2    0    0 -0.56507951016E+03 -0.41098629642E+03  0.39218135805E+03  0.12475163226E+04  0.95617266692E+03 0.  0.
         23    2    4    4    0    0  0.21304630209E+03 -0.25592025984E+03 -0.11048842090E+02  0.34516356999E+03  0.90177086357E+02 0.  0.
          2    1    3    3  502    0  0.47142553974E+03  0.35303975928E+03  0.86145831256E+03  0.10435466139E+04  0.00000000000E+00 0. -1.
         -1    1    3    3    0  502  0.93653970417E+02  0.57946537138E+02  0.10778297846E+03  0.15409749442E+03  0.00000000000E+00 0.  1.
         13    1    5    5    0    0  0.11465922196E+03 -0.88952581329E+02  0.27148135661E+02  0.14763576862E+03  0.00000000000E+00 0.  1.
        -13    1    5    5    0    0  0.98387080123E+02 -0.16696767851E+03 -0.38196977751E+02  0.19752780136E+03  0.00000000000E+00 0. -1.
          1    1    4    4  503    0 -0.58852386561E+01  0.10068427822E+02 -0.57834352708E+01  0.13017580281E+02  0.00000000000E+00 0. -1.
         -1    1    4    4    0  503 -0.77224057359E+03 -0.16513446440E+03  0.40901363542E+03  0.88933517235E+03  0.00000000000E+00 0.  1.
<mgrwt>
<rscale>  0 0.20310928E+04</rscale>
<asrwt>0</asrwt>
<pdfrwt beam="1">  1        2 0.29281408E+00 0.20310928E+04</pdfrwt>
<pdfrwt beam="2">  1       -1 0.83364446E-01 0.20310928E+04</pdfrwt>
<totfact> 0.11392486E+01</totfact>
</mgrwt>
</event>
<event>
11    7  0.1497947E-008  0.1248434E+04  0.7818608E-02  0.9071488E-01
          2   -1    0    0  501    0  0.00000000000E+00  0.00000000000E+00  0.30656915271E+04  0.30656915271E+04  0.00000000000E+00 0. -1.
         -1   -1    0    0    0  501 -0.00000000000E+00 -0.00000000000E+00 -0.12709917643E+03  0.12709917643E+03  0.00000000000E+00 0.  1.
         24    2    1    2    0    0  0.21444805284E+03  0.11087676350E+03  0.11283792802E+04  0.11567113498E+04  0.80372401177E+02 0.  0.
        254    2    1    2    0    0 -0.21444805284E+03 -0.11087676350E+03  0.18102130705E+04  0.20360793537E+04  0.90025893492E+03 0.  0.
         23    2    4    4    0    0  0.18694401706E+03  0.28145822045E+03  0.69999677059E+03  0.78314528355E+03  0.95677901968E+02 0.  0.
          4    1    3    3  502    0  0.20578321293E+03  0.84486990727E+02  0.92119391122E+03  0.94767241407E+03  0.00000000000E+00 0. -1.
         -3    1    3    3    0  502  0.86648399053E+01  0.26389772771E+02  0.20718536895E+03  0.20903893576E+03  0.00000000000E+00 0.  1.
         13    1    5    5    0    0  0.11399449327E+03  0.23437360346E+03  0.57077941989E+03  0.62746703233E+03  0.00000000000E+00 0. -1.
        -13    1    5    5    0    0  0.72949523786E+02  0.47084616993E+02  0.12921735071E+03  0.15567825122E+03  0.00000000000E+00 0.  1.
          3    1    4    4  503    0 -0.36560207629E+03 -0.40068807663E+03  0.10144621308E+04  0.11503691702E+04  0.00000000000E+00 0. -1.
         -3    1    4    4    0  503 -0.35789993604E+02  0.83530926846E+01  0.95754169033E+02  0.10256489988E+03  0.00000000000E+00 0.  1.
<mgrwt>
<rscale>  0 0.12484340E+04</rscale>
<asrwt>0</asrwt>
<pdfrwt beam="1">  1        2 0.47164480E+00 0.12484340E+04</pdfrwt>
<pdfrwt beam="2">  1       -1 0.19553722E-01 0.12484340E+04</pdfrwt>
<totfact> 0.38194448E+01</totfact>
</mgrwt>
</event>
<event>
11    7  0.1497947E-008  0.1336720E+04  0.7818608E-02  0.9000942E-01
          2   -1    0    0  501    0  0.00000000000E+00  0.00000000000E+00  0.56842870788E+03  0.56842870788E+03  0.00000000000E+00 0. -1.
         -1   -1    0    0    0  501 -0.00000000000E+00 -0.00000000000E+00 -0.78585937037E+03  0.78585937037E+03  0.00000000000E+00 0.  1.
         24    2    1    2    0    0  0.29437377093E+03  0.13153574634E+03 -0.20782321530E+03  0.39230787145E+03  0.82203452531E+02 0.  0.
        254    2    1    2    0    0 -0.29437377093E+03 -0.13153574634E+03 -0.96074471893E+01  0.96198020680E+03  0.90628695548E+03 0.  0.
         23    2    4    4    0    0 -0.32557460700E+03  0.33354043561E+03 -0.11206234573E+02  0.47432375622E+03  0.87231869822E+02 0.  0.
          4    1    3    3  502    0  0.11494924839E+03  0.86651204298E+02 -0.61786845770E+02  0.15665048746E+03  0.00000000000E+00 0. -1.
         -3    1    3    3    0  502  0.17942452254E+03  0.44884542037E+02 -0.14603636953E+03  0.23565738399E+03  0.00000000000E+00 0.  1.
         13    1    5    5    0    0 -0.26591791402E+03  0.26878586558E+03 -0.43391016743E+02  0.38057976676E+03  0.00000000000E+00 0. -1.
        -13    1    5    5    0    0 -0.59656692984E+02  0.64754570029E+02  0.32184782170E+02  0.93743989465E+02  0.00000000000E+00 0.  1.
          1    1    4    4  503    0  0.72099295034E+02 -0.28466393855E+03 -0.44510191449E+02  0.29700677332E+03  0.00000000000E+00 0. -1.
         -1    1    4    4    0  503 -0.40898458964E+02 -0.18041224339E+03  0.46108978832E+02  0.19064967726E+03  0.00000000000E+00 0.  1.
<mgrwt>
<rscale>  0 0.13367199E+04</rscale>
<asrwt>0</asrwt>
<pdfrwt beam="1">  1        2 0.87450570E-01 0.13367199E+04</pdfrwt>
<pdfrwt beam="2">  1       -1 0.12090144E+00 0.13367199E+04</pdfrwt>
<totfact> 0.35965441E+01</totfact>
</mgrwt>
</event>
<event>
12    7  0.1497947E-008  0.2442415E+04  0.7818608E-02  0.8423793E-01
         -1   -1    0    0    0  501 -0.00000000000E+00  0.00000000000E+00  0.14400551292E+04  0.14400551292E+04  0.00000000000E+00 0.  1.
          2   -1    0    0  501    0  0.00000000000E+00 -0.00000000000E+00 -0.10356185895E+04  0.10356185895E+04  0.00000000000E+00 0. -1.
         24    2    1    2    0    0 -0.85158956899E+03 -0.42378689586E+03  0.63593170171E+03  0.11474866218E+04  0.86696545061E+02 0.  0.
        254    2    1    2    0    0  0.85158956899E+03  0.42378689586E+03 -0.23149516205E+03  0.13281870969E+04  0.89760282269E+03 0.  0.
         23    2    4    4    0    0  0.36111223223E+03  0.59578682700E+03  0.86330324808E+02  0.70799766442E+03  0.91890044881E+02 0.  0.
         23    2    4    4    0    0  0.49047733676E+03 -0.17199993114E+03 -0.31782548685E+03  0.62018943251E+03  0.11605988937E+03 0.  0.
          2    1    3    3  502    0 -0.13720771362E+03 -0.10335898856E+03  0.10156270359E+03  0.19955956492E+03  0.00000000000E+00 0. -1.
         -1    1    3    3    0  502 -0.71438185537E+03 -0.32042790730E+03  0.53436899812E+03  0.94792705690E+03  0.00000000000E+00 0.  1.
         13    1    5    5    0    0  0.14618917085E+03  0.20478464688E+03 -0.89083794299E+01  0.25176851371E+03  0.00000000000E+00 0.  1.
        -13    1    5    5    0    0  0.21492306137E+03  0.39100218012E+03  0.95238704238E+02  0.45622915071E+03  0.00000000000E+00 0. -1.
          1    1    6    6  503    0  0.47263097339E+03 -0.15450331783E+03 -0.26900842269E+03  0.56534665800E+03  0.00000000000E+00 0. -1.
         -1    1    6    6    0  503  0.17846363366E+02 -0.17496613315E+02 -0.48817064167E+02  0.54842774518E+02  0.00000000000E+00 0.  1.
<mgrwt>
<rscale>  0 0.24424151E+04</rscale>
<asrwt>0</asrwt>
<pdfrwt beam="1">  1        2 0.15932594E+00 0.24424151E+04</pdfrwt>
<pdfrwt beam="2">  1       -1 0.22154694E+00 0.24424151E+04</pdfrwt>
<totfact> 0.26240539E+00</totfact>
</mgrwt>
</event>
<event>
11    7  0.1497947E-008  0.1838099E+04  0.7818608E-02  0.8686297E-01
          2   -1    0    0  501    0  0.00000000000E+00  0.00000000000E+00  0.20597959290E+04  0.20597959290E+04  0.00000000000E+00 0. -1.
         -1   -1    0    0    0  501 -0.00000000000E+00 -0.00000000000E+00 -0.41006597441E+03  0.41006597441E+03  0.00000000000E+00 0.  1.
         24    2    1    2    0    0 -0.53767140165E+03 -0.13277674246E+03  0.11846017165E+04  0.13100222486E+04  0.78465695929E+02 0.  0.
        254    2    1    2    0    0  0.53767140165E+03  0.13277674246E+03  0.46512823802E+03  0.11598396548E+04  0.90673234616E+03 0.  0.
         23    2    4    4    0    0  0.52532250593E+02 -0.78298091530E+01 -0.21651895587E+03  0.24114958652E+03  0.91933245145E+02 0.  0.
          2    1    3    3  502    0 -0.51889189888E+03 -0.13228427378E+03  0.11682016727E+04  0.12850848532E+04  0.00000000000E+00 0. -1.
         -1    1    3    3    0  502 -0.18779502768E+02 -0.49246867444E+00  0.16400043790E+02  0.24937395331E+02  0.00000000000E+00 0.  1.
         13    1    5    5    0    0  0.22199072294E+02  0.14601295491E+02 -0.19679110505E+03  0.19857677525E+03  0.00000000000E+00 0.  1.
        -13    1    5    5    0    0  0.30333178300E+02 -0.22431104644E+02 -0.19727850814E+02  0.42572811265E+02  0.00000000000E+00 0. -1.
          3    1    4    4  503    0  0.20306802278E+03  0.13940680576E+03  0.88222658976E+02  0.26163737678E+03  0.00000000000E+00 0. -1.
         -3    1    4    4    0  503  0.28207112828E+03  0.11997458494E+01  0.59342453491E+03  0.65705269152E+03  0.00000000000E+00 0.  1.
<mgrwt>
<rscale>  0 0.18380993E+04</rscale>
<asrwt>0</asrwt>
<pdfrwt beam="1">  1        2 0.31689167E+00 0.18380993E+04</pdfrwt>
<pdfrwt beam="2">  1       -1 0.63087074E-01 0.18380993E+04</pdfrwt>
<totfact> 0.16901352E+01</totfact>
</mgrwt>
</event>
<event>
12    7  0.1497947E-008  0.1377314E+04  0.7818608E-02  0.8970406E-01
         -1   -1    0    0    0  501 -0.00000000000E+00  0.00000000000E+00  0.26758868714E+03  0.26758868714E+03  0.00000000000E+00 0.  1.
          2   -1    0    0  501    0  0.00000000000E+00 -0.00000000000E+00 -0.17723029760E+04  0.17723029760E+04  0.00000000000E+00 0. -1.
         24    2    1    2    0    0 -0.17971128654E+03  0.25100272978E+03 -0.87278005690E+02  0.33062740383E+03  0.79990705828E+02 0.  0.
        254    2    1    2    0    0  0.17971128654E+03 -0.25100272978E+03 -0.14174362832E+04  0.17092642594E+04  0.90396912254E+03 0.  0.
         23    2    4    4    0    0 -0.30641042081E+01 -0.23770522212E+03 -0.14701683446E+04  0.14920449308E+04  0.91049177260E+02 0.  0.
         23    2    4    4    0    0  0.18277539075E+03 -0.13297507661E+02  0.52732061403E+02  0.21721932856E+03  0.10401874459E+03 0.  0.
          2    1    3    3  502    0 -0.22665131116E+01  0.19720836235E+02  0.11372677557E+02  0.22877636642E+02  0.00000000000E+00 0. -1.
         -1    1    3    3    0  502 -0.17744477343E+03  0.23128189354E+03 -0.98650683247E+02  0.30774976719E+03  0.00000000000E+00 0.  1.
         13    1    5    5    0    0  0.10666458963E+02 -0.11549668695E+03 -0.45910230738E+03  0.47352738746E+03  0.00000000000E+00 0.  1.
        -13    1    5    5    0    0 -0.13730563171E+02 -0.12220853517E+03 -0.10110660372E+04  0.10185175433E+04  0.00000000000E+00 0. -1.
          3    1    6    6  503    0  0.17047530527E+03  0.23347517394E+02  0.42851817132E+02  0.17732234633E+03  0.00000000000E+00 0. -1.
         -3    1    6    6    0  503  0.12300085475E+02 -0.36645025055E+02  0.98802442704E+01  0.39896982227E+02  0.00000000000E+00 0.  1.
<mgrwt>
<rscale>  0 0.13773137E+04</rscale>
<asrwt>0</asrwt>
<pdfrwt beam="1">  1        2 0.27266200E+00 0.13773137E+04</pdfrwt>
<pdfrwt beam="2">  1       -1 0.41167489E-01 0.13773137E+04</pdfrwt>
<totfact> 0.57363579E+01</totfact>
</mgrwt>
</event>
<event>
11    7  0.1497947E-008  0.1334837E+04  0.7818608E-02  0.9002386E-01
         -1   -1    0    0    0  501 -0.00000000000E+00  0.00000000000E+00  0.29891334286E+03  0.29891334286E+03  0.00000000000E+00 0.  1.
          2   -1    0    0  501    0  0.00000000000E+00 -0.00000000000E+00 -0.14902228044E+04  0.14902228044E+04  0.00000000000E+00 0. -1.
         24    2    1    2    0    0 -0.84125589030E+02 -0.92956396247E+01  0.13695156598E+03  0.17976913894E+03  0.79985550229E+02 0.  0.
        254    2    1    2    0    0  0.84125589030E+02  0.92956396247E+01 -0.13282610275E+04  0.16093670083E+04  0.90477692643E+03 0.  0.
         23    2    4    4    0    0  0.44334769221E+03 -0.11804242144E+03 -0.77919642265E+03  0.90884111080E+03  0.91399727297E+02 0.  0.
          2    1    3    3  502    0 -0.18837824311E+02  0.30535622385E+02  0.67585785480E+02  0.76518796764E+02  0.00000000000E+00 0. -1.
         -1    1    3    3    0  502 -0.65287764719E+02 -0.39831262010E+02  0.69365780501E+02  0.10325034218E+03  0.00000000000E+00 0.  1.
         13    1    5    5    0    0  0.63976378972E+02  0.15129600904E+02 -0.10872453345E+03  0.12705473649E+03  0.00000000000E+00 0. -1.
        -13    1    5    5    0    0  0.37937131324E+03 -0.13317202235E+03 -0.67047188920E+03  0.78178637431E+03  0.00000000000E+00 0.  1.
          1    1    4    4  503    0 -0.15801117103E+03 -0.51137095244E+02 -0.20781055451E+03  0.26602210293E+03  0.00000000000E+00 0. -1.
         -1    1    4    4    0  503 -0.20121093215E+03  0.17847515631E+03 -0.34125405037E+03  0.43450379460E+03  0.00000000000E+00 0.  1.
<mgrwt>
<rscale>  0 0.13348370E+04</rscale>
<asrwt>0</asrwt>
<pdfrwt beam="1">  1        2 0.22926505E+00 0.13348370E+04</pdfrwt>
<pdfrwt beam="2">  1       -1 0.45986668E-01 0.13348370E+04</pdfrwt>
<totfact> 0.67345451E+01</totfact>
</mgrwt>
</event>
<event>
12    7  0.1497947E-008  0.1370129E+04  0.7818608E-02  0.8975729E-01
         -1   -1    0    0    0  501 -0.00000000000E+00  0.00000000000E+00  0.48179771563E+03  0.48179771563E+03  0.00000000000E+00 0.  1.
          2   -1    0    0  501    0  0.00000000000E+00 -0.00000000000E+00 -0.97408783431E+03  0.97408783431E+03  0.00000000000E+00 0. -1.
         24    2    1    2    0    0 -0.19466216525E+03  0.19523991003E+02 -0.38796973062E+03  0.44166913551E+03  0.79224797719E+02 0.  0.
        254    2    1    2    0    0  0.19466216525E+03 -0.19523991003E+02 -0.10432038806E+03  0.10142164144E+04  0.98968563045E+03 0.  0.
         23    2    4    4    0    0 -0.18757316152E+03 -0.36182169304E+03  0.14343887658E+03  0.44169857076E+03  0.91783918120E+02 0.  0.
         23    2    4    4    0    0  0.38223532677E+03  0.34229770204E+03 -0.24775926463E+03  0.57251784367E+03  0.55861133663E+02 0.  0.
          4    1    3    3  502    0 -0.14123063299E+03  0.29901575791E+02 -0.33897914695E+03  0.36843867603E+03  0.00000000000E+00 0. -1.
         -1    1    3    3    0  502 -0.53431532267E+02 -0.10377584788E+02 -0.48990583674E+02  0.73230459477E+02  0.00000000000E+00 0.  1.
         13    1    5    5    0    0 -0.11974376677E+03 -0.28538957061E+03  0.13937656390E+03  0.33942834776E+03  0.00000000000E+00 0. -1.
        -13    1    5    5    0    0 -0.67829394745E+02 -0.76432122424E+02  0.40623126816E+01  0.10227022301E+03  0.00000000000E+00 0.  1.
          3    1    6    6  503    0  0.37312723512E+03  0.33497818155E+03 -0.25049156274E+03  0.56051792006E+03  0.00000000000E+00 0. -1.
         -3    1    6    6    0  503  0.91080916471E+01  0.73195204823E+01  0.27322981065E+01  0.11999923603E+02  0.00000000000E+00 0.  1.
<mgrwt>
<rscale>  0 0.13701289E+04</rscale>
<asrwt>0</asrwt>
<pdfrwt beam="1">  1        2 0.14985966E+00 0.13701289E+04</pdfrwt>
<pdfrwt beam="2">  1       -1 0.74122727E-01 0.13701289E+04</pdfrwt>
<totfact> 0.53402958E+01</totfact>
</mgrwt>
</event>
<event>
11    7  0.1497947E-008  0.2145221E+04  0.7818608E-02  0.8541581E-01
         -1   -1    0    0    0  501 -0.00000000000E+00  0.00000000000E+00  0.16919775642E+04  0.16919775642E+04  0.00000000000E+00 0.  1.
          2   -1    0    0  501    0  0.00000000000E+00 -0.00000000000E+00 -0.67996963543E+03  0.67996963543E+03  0.00000000000E+00 0. -1.
         24    2    1    2    0    0 -0.32791452810E+03  0.77954292361E+03  0.69047014717E+03  0.10947822241E+04  0.81141768648E+02 0.  0.
        254    2    1    2    0    0  0.32791452810E+03 -0.77954292361E+03  0.32153778158E+03  0.12771649755E+04  0.90141484466E+03 0.  0.
         23    2    4    4    0    0  0.39466284452E+02 -0.62140207256E+03  0.55609415073E+03  0.83983995732E+03  0.91609639542E+02 0.  0.
          4    1    3    3  502    0 -0.18891604525E+03  0.46721265661E+03  0.46132804718E+03  0.68322800423E+03  0.00000000000E+00 0. -1.
         -3    1    3    3    0  502 -0.13899848286E+03  0.31233026700E+03  0.22914210000E+03  0.41155421989E+03  0.00000000000E+00 0.  1.
         13    1    5    5    0    0 -0.38137734232E+01 -0.20156322227E+03  0.23431579865E+03  0.30910543660E+03  0.00000000000E+00 0. -1.
        -13    1    5    5    0    0  0.43280057875E+02 -0.41983885029E+03  0.32177835208E+03  0.53073452073E+03  0.00000000000E+00 0.  1.
          1    1    4    4  503    0  0.44880414437E+00 -0.64038459520E+02 -0.24120847510E+02  0.68432017415E+02  0.00000000000E+00 0. -1.
         -1    1    4    4    0  503  0.28799943951E+03 -0.94102391530E+02 -0.21043552163E+03  0.36889300076E+03  0.00000000000E+00 0.  1.
<mgrwt>
<rscale>  0 0.21452211E+04</rscale>
<asrwt>0</asrwt>
<pdfrwt beam="1">  1        2 0.10461071E+00 0.21452211E+04</pdfrwt>
<pdfrwt beam="2">  1       -1 0.26030424E+00 0.21452211E+04</pdfrwt>
<totfact> 0.26605545E+00</totfact>
</mgrwt>
</event>
<event>
12    7  0.1497947E-008  0.1975242E+04  0.7818608E-02  0.8618284E-01
          2   -1    0    0  501    0  0.00000000000E+00  0.00000000000E+00  0.63425166197E+03  0.63425166197E+03  0.00000000000E+00 0. -1.
         -1   -1    0    0    0  501 -0.00000000000E+00 -0.00000000000E+00 -0.15378679972E+04  0.15378679972E+04  0.00000000000E+00 0.  1.
         24    2    1    2    0    0 -0.59739462005E+03 -0.28953016631E+03 -0.79794366965E+03  0.10437008743E+04  0.10903836814E+03 0.  0.
        254    2    1    2    0    0  0.59739462005E+03  0.28953016631E+03 -0.10567266555E+03  0.11284187849E+04  0.90634110166E+03 0.  0.
         23    2    4    4    0    0  0.63278054827E+03 -0.14761443111E+03 -0.17422359882E+03  0.67889184795E+03  0.91318323943E+02 0.  0.
         23    2    4    4    0    0 -0.35385928219E+02  0.43714459742E+03  0.68550933273E+02  0.44952693693E+03  0.70906090033E+02 0.  0.
          2    1    3    3  502    0 -0.31389346338E+03 -0.12471900812E+03 -0.48016239204E+03  0.58706035471E+03  0.00000000000E+00 0. -1.
         -1    1    3    3    0  502 -0.28350115667E+03 -0.16481115819E+03 -0.31778127761E+03  0.45664051955E+03  0.00000000000E+00 0.  1.
         13    1    5    5    0    0  0.38728233207E+03 -0.13191379391E+03 -0.90373278721E+02  0.41899425206E+03  0.00000000000E+00 0. -1.
        -13    1    5    5    0    0  0.24549821620E+03 -0.15700637197E+02 -0.83850320101E+02  0.25989759588E+03  0.00000000000E+00 0.  1.
          1    1    6    6  503    0  0.31589221994E+01  0.18809643385E+02 -0.10907516894E+02  0.21971695395E+02  0.00000000000E+00 0. -1.
         -1    1    6    6    0  503 -0.38544850418E+02  0.41833495404E+03  0.79458450167E+02  0.42755524154E+03  0.00000000000E+00 0.  1.
<mgrwt>
<rscale>  0 0.19752421E+04</rscale>
<asrwt>0</asrwt>
<pdfrwt beam="1">  1        2 0.97577180E-01 0.19752421E+04</pdfrwt>
<pdfrwt beam="2">  1       -1 0.23659507E+00 0.19752421E+04</pdfrwt>
<totfact> 0.42052890E+00</totfact>
</mgrwt>
</event>
<event>
11    7  0.1497947E-008  0.2097855E+04  0.7818608E-02  0.8562189E-01
         -1   -1    0    0    0  501 -0.00000000000E+00  0.00000000000E+00  0.10414760178E+04  0.10414760178E+04  0.00000000000E+00 0.  1.
          2   -1    0    0  501    0  0.00000000000E+00 -0.00000000000E+00 -0.10564319911E+04  0.10564319911E+04  0.00000000000E+00 0. -1.
         24    2    1    2    0    0  0.49041778889E+03 -0.30161626926E+02 -0.70268480709E+03  0.86198848674E+03  0.88537459640E+02 0.  0.
        254    2    1    2    0    0 -0.49041778889E+03  0.30161626926E+02  0.68772883374E+03  0.12359195222E+04  0.90172433993E+03 0.  0.
         23    2    4    4    0    0 -0.55048957019E+03  0.28715594725E+03  0.19685186640E+03  0.65760330706E+03  0.90521528984E+02 0.  0.
          2    1    3    3  502    0  0.29001063807E+03 -0.38253632913E+02 -0.48161742540E+03  0.56349343835E+03  0.00000000000E+00 0. -1.
         -1    1    3    3    0  502  0.20040715082E+03  0.80920059865E+01 -0.22106738169E+03  0.29849504838E+03  0.00000000000E+00 0.  1.
         13    1    5    5    0    0 -0.29774963359E+03  0.16988449289E+03  0.63194140166E+02  0.34858153218E+03  0.00000000000E+00 0. -1.
        -13    1    5    5    0    0 -0.25273993661E+03  0.11727145436E+03  0.13365772624E+03  0.30902177488E+03  0.00000000000E+00 0.  1.
          2    1    4    4  503    0  0.92089043877E+02 -0.24549530494E+03  0.47059487503E+03  0.53870945152E+03  0.00000000000E+00 0. -1.
         -2    1    4    4    0  503 -0.32017262574E+02 -0.11499015388E+02  0.20282092312E+02  0.39606763642E+02  0.00000000000E+00 0.  1.
<mgrwt>
<rscale>  0 0.20978547E+04</rscale>
<asrwt>0</asrwt>
<pdfrwt beam="1">  1        2 0.16252800E+00 0.20978547E+04</pdfrwt>
<pdfrwt beam="2">  1       -1 0.16022708E+00 0.20978547E+04</pdfrwt>
<totfact> 0.70962954E+00</totfact>
</mgrwt>
</event>
<event>
12    7  0.1497947E-008  0.2003678E+04  0.7818608E-02  0.8604903E-01
         -1   -1    0    0    0  501 -0.00000000000E+00  0.00000000000E+00  0.16880539419E+04  0.16880539419E+04  0.00000000000E+00 0.  1.
          2   -1    0    0  501    0  0.00000000000E+00 -0.00000000000E+00 -0.59457884223E+03  0.59457884223E+03  0.00000000000E+00 0. -1.
         24    2    1    2    0    0 -0.47680146304E+03  0.23215367259E+03 -0.23158432770E+03  0.58421329405E+03  0.80242814281E+02 0.  0.
        254    2    1    2    0    0  0.47680146304E+03 -0.23215367259E+03  0.13250594273E+04  0.16984194901E+04  0.92065808820E+03 0.  0.
         23    2    4    4    0    0  0.56620811595E+03 -0.50525101095E+03  0.98160290766E+03  0.12439822150E+04  0.89873624513E+02 0.  0.
         23    2    4    4    0    0 -0.89406652904E+02  0.27309733835E+03  0.34345651968E+03  0.45443727502E+03  0.77299095841E+02 0.  0.
          4    1    3    3  502    0 -0.40481141322E+03  0.22651266602E+03 -0.20659483713E+03  0.50780084174E+03  0.00000000000E+00 0. -1.
         -3    1    3    3    0  502 -0.71990049822E+02  0.56410065728E+01 -0.24989490575E+02  0.76412452308E+02  0.00000000000E+00 0.  1.
         13    1    5    5    0    0  0.30729906616E+02 -0.31261624175E+02  0.97213274294E+02  0.10663975340E+03  0.00000000000E+00 0. -1.
        -13    1    5    5    0    0  0.53547820933E+03 -0.47398938677E+03  0.88438963337E+03  0.11373424616E+04  0.00000000000E+00 0.  1.
          1    1    6    6  503    0 -0.37927970657E+02  0.11880982101E+03  0.92064217286E+02  0.15501653019E+03  0.00000000000E+00 0. -1.
         -1    1    6    6    0  503 -0.51478682247E+02  0.15428751734E+03  0.25139230239E+03  0.29942074483E+03  0.00000000000E+00 0.  1.
<mgrwt>
<rscale>  0 0.20036778E+04</rscale>
<asrwt>0</asrwt>
<pdfrwt beam="1">  1        2 0.91473669E-01 0.20036778E+04</pdfrwt>
<pdfrwt beam="2">  1       -1 0.25970060E+00 0.20036778E+04</pdfrwt>
<totfact> 0.32058147E+00</totfact>
</mgrwt>
</event>
<event>
12    7  0.1497947E-008  0.1313600E+04  0.7818608E-02  0.9018849E-01
          2   -1    0    0  501    0  0.00000000000E+00  0.00000000000E+00  0.16357609340E+04  0.16357609340E+04  0.00000000000E+00 0. -1.
         -1   -1    0    0    0  501 -0.00000000000E+00 -0.00000000000E+00 -0.26372208302E+03  0.26372208302E+03  0.00000000000E+00 0.  1.
         24    2    1    2    0    0 -0.81998062965E+02 -0.80360979950E+02  0.84038295068E+03  0.85202027959E+03  0.80706155943E+02 0.  0.
        254    2    1    2    0    0  0.81998062965E+02  0.80360979950E+02  0.53165590028E+03  0.10474627374E+04  0.89517518985E+03 0.  0.
         23    2    4    4    0    0  0.16148205928E+03  0.37557922111E+03  0.58354465926E+03  0.71971949152E+03  0.10166400700E+03 0.  0.
         23    2    4    4    0    0 -0.79483996319E+02 -0.29521824116E+03 -0.51888758980E+02  0.32774324589E+03  0.10607391918E+03 0.  0.
          4    1    3    3  502    0 -0.83783130285E+02 -0.94172897691E+02  0.77346840308E+03  0.78367181788E+03  0.00000000000E+00 0. -1.
         -3    1    3    3    0  502  0.17850673204E+01  0.13811917741E+02  0.66914547605E+02  0.68348461711E+02  0.00000000000E+00 0.  1.
         13    1    5    5    0    0  0.21148316050E+02  0.14810767343E+03  0.26086408109E+03  0.30072113827E+03  0.00000000000E+00 0.  1.
        -13    1    5    5    0    0  0.14033374323E+03  0.22747154768E+03  0.32268057817E+03  0.41899835324E+03  0.00000000000E+00 0. -1.
          4    1    6    6  503    0 -0.94602761466E+02 -0.22668402369E+03 -0.96312591149E+01  0.24582125666E+03  0.00000000000E+00 0. -1.
         -4    1    6    6    0  503  0.15118765147E+02 -0.68534217472E+02 -0.42257499865E+02  0.81921989227E+02  0.00000000000E+00 0.  1.
<mgrwt>
<rscale>  0 0.13136001E+04</rscale>
<asrwt>0</asrwt>
<pdfrwt beam="1">  1        2 0.25165552E+00 0.13136001E+04</pdfrwt>
<pdfrwt beam="2">  1       -1 0.40572629E-01 0.13136001E+04</pdfrwt>
<totfact> 0.70496709E+01</totfact>
</mgrwt>
</event>
<event>
11    7  0.1497947E-008  0.1852601E+04  0.7818608E-02  0.8678816E-01
         -1   -1    0    0    0  501 -0.00000000000E+00  0.00000000000E+00  0.61241120545E+03  0.61241120545E+03  0.00000000000E+00 0.  1.
          2   -1    0    0  501    0  0.00000000000E+00 -0.00000000000E+00 -0.14010728046E+04  0.14010728046E+04  0.00000000000E+00 0. -1.
         24    2    1    2    0    0  0.60493689176E+02 -0.40612350004E+03 -0.91370841277E+03  0.10051175578E+04  0.82477013771E+02 0.  0.
        254    2    1    2    0    0 -0.60493689176E+02  0.40612350004E+03  0.12504681359E+03  0.10083664522E+04  0.91245296464E+03 0.  0.
         23    2    4    4    0    0 -0.20380272219E+02  0.33132690521E+03  0.48797587919E+03  0.59733091647E+03  0.92146033483E+02 0.  0.
          2    1    3    3  502    0  0.16441662054E+02 -0.33309835873E+03 -0.72381138768E+03  0.79694903838E+03  0.00000000000E+00 0. -1.
         -1    1    3    3    0  502  0.44052027122E+02 -0.73025141310E+02 -0.18989702509E+03  0.20816851946E+03  0.00000000000E+00 0.  1.
         13    1    5    5    0    0  0.33811879824E+02  0.17293618713E+03  0.27165079935E+03  0.32379673381E+03  0.00000000000E+00 0.  1.
        -13    1    5    5    0    0 -0.54192152043E+02  0.15839071808E+03  0.21632507983E+03  0.27353418266E+03  0.00000000000E+00 0. -1.
          2    1    4    4  503    0 -0.17471977628E+02 -0.39178480640E+02 -0.17056037189E+02  0.46164182567E+02  0.00000000000E+00 0. -1.
         -2    1    4    4    0  503 -0.22641439329E+02  0.11397507547E+03 -0.34587302841E+03  0.36487135320E+03  0.00000000000E+00 0.  1.
<mgrwt>
<rscale>  0 0.18526011E+04</rscale>
<asrwt>0</asrwt>
<pdfrwt beam="1">  1        2 0.21554966E+00 0.18526011E+04</pdfrwt>
<pdfrwt beam="2">  1       -1 0.94217110E-01 0.18526011E+04</pdfrwt>
<totfact> 0.16889512E+01</totfact>
</mgrwt>
</event>
<event>
12    7  0.1497947E-008  0.2129537E+04  0.7818608E-02  0.8548343E-01
         -1   -1    0    0    0  501 -0.00000000000E+00  0.00000000000E+00  0.15648056745E+04  0.15648056745E+04  0.00000000000E+00 0.  1.
          2   -1    0    0  501    0  0.00000000000E+00 -0.00000000000E+00 -0.72451936860E+03  0.72451936860E+03  0.00000000000E+00 0. -1.
         24    2    1    2    0    0  0.47955451505E+03 -0.71291535232E+03  0.19329199742E+03  0.88428424708E+03  0.79849864713E+02 0.  0.
        254    2    1    2    0    0 -0.47955451505E+03  0.71291535232E+03  0.64699430847E+03  0.14050407960E+04  0.90405595557E+03 0.  0.
         23    2    4    4    0    0  0.12402879289E+03  0.17104835503E+02  0.42437986418E+03  0.45173113762E+03  0.91033151669E+02 0.  0.
         23    2    4    4    0    0 -0.60358330794E+03  0.69581051681E+03  0.22261444429E+03  0.95330965840E+03  0.10381247062E+03 0.  0.
          2    1    3    3  502    0  0.44462788396E+03 -0.69087768355E+03  0.18293389688E+03  0.84170703897E+03  0.00000000000E+00 0. -1.
         -1    1    3    3    0  502  0.34926631086E+02 -0.22037668770E+02  0.10358100544E+02  0.42577208113E+02  0.00000000000E+00 0.  1.
         13    1    5    5    0    0  0.88933714606E+02 -0.29596058932E+01  0.15014152444E+03  0.17452920163E+03  0.00000000000E+00 0.  1.
        -13    1    5    5    0    0  0.35095078286E+02  0.20064441396E+02  0.27423833974E+03  0.27720193598E+03  0.00000000000E+00 0. -1.
          4    1    6    6  503    0 -0.73549549774E+02  0.50916807102E+02  0.43848276454E+02  0.99622933431E+02  0.00000000000E+00 0. -1.
         -4    1    6    6    0  503 -0.53003375817E+03  0.64489370971E+03  0.17876616783E+03  0.85368672497E+03  0.00000000000E+00 0.  1.
<mgrwt>
<rscale>  0 0.21295371E+04</rscale>
<asrwt>0</asrwt>
<pdfrwt beam="1">  1        2 0.11146452E+00 0.21295371E+04</pdfrwt>
<pdfrwt beam="2">  1       -1 0.24073933E+00 0.21295371E+04</pdfrwt>
<totfact> 0.32982217E+00</totfact>
</mgrwt>
</event>
<event>
12    7  0.1497947E-008  0.1629917E+04  0.7818608E-02  0.8802376E-01
         -1   -1    0    0    0  501 -0.00000000000E+00  0.00000000000E+00  0.63437528851E+03  0.63437528851E+03  0.00000000000E+00 0.  1.
          2   -1    0    0  501    0  0.00000000000E+00 -0.00000000000E+00 -0.10469476975E+04  0.10469476975E+04  0.00000000000E+00 0. -1.
         24    2    1    2    0    0  0.36067797142E+03 -0.30038554752E+03  0.17379389857E+03  0.50708983504E+03  0.81336986623E+02 0.  0.
        254    2    1    2    0    0 -0.36067797142E+03  0.30038554752E+03 -0.58636630759E+03  0.11742331510E+04  0.90259513073E+03 0.  0.
         23    2    4    4    0    0  0.14979896906E+03 -0.54532375369E+02 -0.50378540236E+03  0.53600991949E+03  0.89963276192E+02 0.  0.
         23    2    4    4    0    0 -0.51047694048E+03  0.35491792288E+03 -0.82580905234E+02  0.63822323152E+03  0.11813487459E+03 0.  0.
          4    1    3    3  502    0 -0.19023875256E+01 -0.13952512537E+02  0.25591856978E+01  0.14312271512E+02  0.00000000000E+00 0. -1.
         -3    1    3    3    0  502  0.36258035895E+03 -0.28643303498E+03  0.17123471287E+03  0.49277756353E+03  0.00000000000E+00 0.  1.
         13    1    5    5    0    0  0.10592419143E+01 -0.23915830896E+02 -0.13626087996E+03  0.13834780941E+03  0.00000000000E+00 0.  1.
        -13    1    5    5    0    0  0.14873972714E+03 -0.30616544473E+02 -0.36752452240E+03  0.39766211008E+03  0.00000000000E+00 0. -1.
          3    1    6    6  503    0 -0.35088868775E+03  0.23139742142E+03 -0.11022881524E+03  0.43453196607E+03  0.00000000000E+00 0. -1.
         -3    1    6    6    0  503 -0.15958825273E+03  0.12352050147E+03  0.27647910003E+02  0.20369126545E+03  0.00000000000E+00 0.  1.
<mgrwt>
<rscale>  0 0.16299175E+04</rscale>
<asrwt>0</asrwt>
<pdfrwt beam="1">  1        2 0.16106887E+00 0.16299175E+04</pdfrwt>
<pdfrwt beam="2">  1       -1 0.97596200E-01 0.16299175E+04</pdfrwt>
<totfact> 0.25858524E+01</totfact>
</mgrwt>
</event>
<event>
11    7  0.1497947E-008  0.1470422E+04  0.7818608E-02  0.8904364E-01
          2   -1    0    0  501    0  0.00000000000E+00  0.00000000000E+00  0.15455224737E+04  0.15455224737E+04  0.00000000000E+00 0. -1.
         -1   -1    0    0    0  501 -0.00000000000E+00 -0.00000000000E+00 -0.34974273806E+03  0.34974273806E+03  0.00000000000E+00 0.  1.
         24    2    1    2    0    0 -0.30549012661E+03 -0.45569234340E+01 -0.53306104119E+02  0.32014883135E+03  0.79427642982E+02 0.  0.
        254    2    1    2    0    0  0.30549012661E+03  0.45569234340E+01  0.12490858398E+04  0.15751163804E+04  0.90963244982E+03 0.  0.
         23    2    4    4    0    0 -0.15607118211E+03 -0.27235499349E+03  0.22616902943E+03  0.39604685489E+03  0.84647652247E+02 0.  0.
          4    1    3    3  502    0 -0.65855198447E+02 -0.31458577650E+01  0.21099756151E+02  0.69224296987E+02  0.00000000000E+00 0. -1.
         -3    1    3    3    0  502 -0.23963492816E+03 -0.14110656689E+01 -0.74405860271E+02  0.25092453436E+03  0.00000000000E+00 0.  1.
         13    1    5    5    0    0 -0.18305700030E+00 -0.14463448482E+02  0.38288493479E+02  0.40929617451E+02  0.00000000000E+00 0. -1.
        -13    1    5    5    0    0 -0.15588812511E+03 -0.25789154501E+03  0.18788053595E+03  0.35511723744E+03  0.00000000000E+00 0.  1.
          3    1    4    4  503    0  0.43073345689E+02  0.72048044114E+02  0.35434931935E+03  0.36415611198E+03  0.00000000000E+00 0. -1.
         -3    1    4    4    0  503  0.41848796303E+03  0.20486387281E+03  0.66856749100E+03  0.81491341356E+03  0.00000000000E+00 0.  1.
<mgrwt>
<rscale>  0 0.14704221E+04</rscale>
<asrwt>0</asrwt>
<pdfrwt beam="1">  1        2 0.23777268E+00 0.14704221E+04</pdfrwt>
<pdfrwt beam="2">  1       -1 0.53806576E-01 0.14704221E+04</pdfrwt>
<totfact> 0.46020988E+01</totfact>
</mgrwt>
</event>
<event>
11    7  0.1497947E-008  0.1891408E+04  0.7818608E-02  0.8659145E-01
         -1   -1    0    0    0  501 -0.00000000000E+00  0.00000000000E+00  0.25354370340E+03  0.25354370340E+03  0.00000000000E+00 0.  1.
          2   -1    0    0  501    0  0.00000000000E+00 -0.00000000000E+00 -0.35274226790E+04  0.35274226790E+04  0.00000000000E+00 0. -1.
         24    2    1    2    0    0 -0.18323250327E+03  0.47674018212E+03 -0.23098131191E+04  0.23669449662E+04  0.79601987462E+02 0.  0.
        254    2    1    2    0    0  0.18323250327E+03 -0.47674018212E+03 -0.96406585644E+03  0.14140214161E+04  0.89954334984E+03 0.  0.
         23    2    4    4    0    0 -0.25196184837E+03 -0.48796488152E+00 -0.59603216165E+03  0.65402995156E+03  0.94951717589E+02 0.  0.
          4    1    3    3  502    0 -0.10029565885E+03  0.29057329010E+03 -0.12120119895E+04  0.12503859879E+04  0.00000000000E+00 0. -1.
         -3    1    3    3    0  502 -0.82936844426E+02  0.18616689203E+03 -0.10978011296E+04  0.11165589783E+04  0.00000000000E+00 0.  1.
         13    1    5    5    0    0 -0.19083628476E+03 -0.28135351220E+02 -0.50769244058E+03  0.54310376522E+03  0.00000000000E+00 0.  1.
        -13    1    5    5    0    0 -0.61125563613E+02  0.27647386338E+02 -0.88339721063E+02  0.11092618634E+03  0.00000000000E+00 0. -1.
          1    1    4    4  503    0  0.21171340973E+02 -0.71758818979E+02 -0.92410318168E+02  0.11890004493E+03  0.00000000000E+00 0. -1.
         -1    1    4    4    0  503  0.41402301068E+03 -0.40449339826E+03 -0.27562337663E+03  0.64109141965E+03  0.00000000000E+00 0.  1.
<mgrwt>
<rscale>  0 0.18914077E+04</rscale>
<asrwt>0</asrwt>
<pdfrwt beam="1">  1        2 0.54268039E+00 0.18914077E+04</pdfrwt>
<pdfrwt beam="2">  1       -1 0.39006725E-01 0.18914077E+04</pdfrwt>
<totfact> 0.53295871E+00</totfact>
</mgrwt>
</event>
<event>
11    7  0.1497947E-008  0.1794045E+04  0.7818608E-02  0.8709473E-01
          2   -1    0    0  501    0  0.00000000000E+00  0.00000000000E+00  0.39119699987E+04  0.39119699987E+04  0.00000000000E+00 0. -1.
         -1   -1    0    0    0  501 -0.00000000000E+00 -0.00000000000E+00 -0.20568898404E+03  0.20568898404E+03  0.00000000000E+00 0.  1.
         24    2    1    2    0    0 -0.66491929439E+03 -0.35551209722E+02  0.12961257078E+04  0.14592205699E+04  0.77467828153E+02 0.  0.
        254    2    1    2    0    0  0.66491929439E+03  0.35551209722E+02  0.24101553068E+04  0.26584384128E+04  0.90280930188E+03 0.  0.
         23    2    4    4    0    0 -0.65272817569E+02  0.10443985953E+03  0.99298779430E+03  0.10047896497E+04  0.91701993103E+02 0.  0.
          4    1    3    3  502    0 -0.15504171709E+03 -0.19348408654E+02  0.37540577366E+03  0.40662241681E+03  0.00000000000E+00 0. -1.
         -3    1    3    3    0  502 -0.50987757730E+03 -0.16202801068E+02  0.92071993417E+03  0.10525981530E+04  0.00000000000E+00 0.  1.
         13    1    5    5    0    0 -0.43320546047E+01  0.87596825692E+02  0.66552613769E+03  0.67128012821E+03  0.00000000000E+00 0. -1.
        -13    1    5    5    0    0 -0.60940762964E+02  0.16843033839E+02  0.32746165661E+03  0.33350952149E+03  0.00000000000E+00 0.  1.
          4    1    4    4  503    0  0.63750787422E+03 -0.15247082233E+03  0.85258953097E+03  0.10754406305E+04  0.00000000000E+00 0. -1.
         -4    1    4    4    0  503  0.92684237738E+02  0.83582172525E+02  0.56457798150E+03  0.57820813267E+03  0.00000000000E+00 0.  1.
<mgrwt>
<rscale>  0 0.17940447E+04</rscale>
<asrwt>0</asrwt>
<pdfrwt beam="1">  1        2 0.60184148E+00 0.17940447E+04</pdfrwt>
<pdfrwt beam="2">  1       -1 0.31644462E-01 0.17940447E+04</pdfrwt>
<totfact> 0.40716428E+00</totfact>
</mgrwt>
</event>
<event>
11    7  0.1497947E-008  0.1549322E+04  0.7818608E-02  0.8852301E-01
          2   -1    0    0  501    0  0.00000000000E+00  0.00000000000E+00  0.77032482560E+03  0.77032482560E+03  0.00000000000E+00 0. -1.
         -1   -1    0    0    0  501 -0.00000000000E+00 -0.00000000000E+00 -0.77902198707E+03  0.77902198707E+03  0.00000000000E+00 0.  1.
         24    2    1    2    0    0 -0.55807280458E+02  0.11106613821E+03  0.49403627690E+03  0.51566369228E+03  0.79919090551E+02 0.  0.
        254    2    1    2    0    0  0.55807280458E+02 -0.11106613821E+03 -0.50273343837E+03  0.10336831204E+04  0.89460032624E+03 0.  0.
         23    2    4    4    0    0  0.27746523478E+02 -0.98593209779E+02 -0.74204239457E+03  0.75457863251E+03  0.90947824157E+02 0.  0.
          2    1    3    3  502    0 -0.72015735547E+02  0.70135871979E+02  0.28989450786E+03  0.30682915832E+03  0.00000000000E+00 0. -1.
         -1    1    3    3    0  502  0.16208455089E+02  0.40930266232E+02  0.20414176904E+03  0.20883453397E+03  0.00000000000E+00 0.  1.
         13    1    5    5    0    0  0.28401132532E+02 -0.98922282255E+01 -0.63488715289E+02  0.70251672417E+02  0.00000000000E+00 0. -1.
        -13    1    5    5    0    0 -0.65460905366E+00 -0.88700981554E+02 -0.67855367928E+03  0.68432696009E+03  0.00000000000E+00 0.  1.
          1    1    4    4  503    0 -0.75208958805E+01 -0.13309304774E+02 -0.15530198887E+02  0.21791937635E+02  0.00000000000E+00 0. -1.
         -1    1    4    4    0  503  0.35581652860E+02  0.83637634198E+00  0.25483915509E+03  0.25731255024E+03  0.00000000000E+00 0.  1.
<mgrwt>
<rscale>  0 0.15493224E+04</rscale>
<asrwt>0</asrwt>
<pdfrwt beam="1">  1        2 0.11851151E+00 0.15493224E+04</pdfrwt>
<pdfrwt beam="2">  1       -1 0.11984954E+00 0.15493224E+04</pdfrwt>
<totfact> 0.24724009E+01</totfact>
</mgrwt>
</event>
<event>
12    7  0.1497947E-008  0.2726837E+04  0.7818608E-02  0.8326349E-01
          2   -1    0    0  501    0  0.00000000000E+00  0.00000000000E+00  0.11055703770E+04  0.11055703770E+04  0.00000000000E+00 0. -1.
         -3   -1    0    0    0  501 -0.00000000000E+00 -0.00000000000E+00 -0.16814038318E+04  0.16814038318E+04  0.00000000000E+00 0.  1.
         24    2    1    2    0    0  0.91948491980E+03  0.96572317409E+02  0.54557016091E+03  0.10764650359E+04  0.79695939785E+02 0.  0.
        254    2    1    2    0    0 -0.91948491980E+03 -0.96572317409E+02 -0.11214036157E+04  0.17105091728E+04  0.90195167875E+03 0.  0.
         23    2    4    4    0    0  0.12135321818E+03  0.13597039474E+03 -0.87593851997E+02  0.22134364361E+03  0.90032071236E+02 0.  0.
         23    2    4    4    0    0 -0.10408381380E+04 -0.23254271215E+03 -0.10338097637E+04  0.14891655292E+04  0.10691680616E+03 0.  0.
          2    1    3    3  502    0  0.89336768179E+03  0.10560485888E+03  0.52150248814E+03  0.10398187564E+04  0.00000000000E+00 0. -1.
         -1    1    3    3    0  502  0.26117238010E+02 -0.90325414740E+01  0.24067672768E+02  0.36646279473E+02  0.00000000000E+00 0.  1.
         13    1    5    5    0    0  0.15070605153E+02  0.76042589249E+02 -0.55003234934E+02  0.95052376996E+02  0.00000000000E+00 0.  1.
        -13    1    5    5    0    0  0.10628261303E+03  0.59927805490E+02 -0.32590617063E+02  0.12629126661E+03  0.00000000000E+00 0. -1.
          3    1    6    6  503    0 -0.96365425549E+03 -0.18580585819E+03 -0.93841037813E+03  0.13578539608E+04  0.00000000000E+00 0. -1.
         -3    1    6    6    0  503 -0.77183882487E+02 -0.46736853961E+02 -0.95399385597E+02  0.13131156844E+03  0.00000000000E+00 0.  1.
<mgrwt>
<rscale>  0 0.27268372E+04</rscale>
<asrwt>0</asrwt>
<pdfrwt beam="1">  1        2 0.17008775E+00 0.27268372E+04</pdfrwt>
<pdfrwt beam="2">  1       -3 0.25867751E+00 0.27268372E+04</pdfrwt>
<totfact> 0.77375767E-01</totfact>
</mgrwt>
</event>
<event>
11    7  0.1497947E-008  0.3099676E+04  0.7818608E-02  0.8215827E-01
         -1   -1    0    0    0  501 -0.00000000000E+00  0.00000000000E+00  0.18579225259E+04  0.18579225259E+04  0.00000000000E+00 0.  1.
          2   -1    0    0  501    0  0.00000000000E+00 -0.00000000000E+00 -0.12928406912E+04  0.12928406912E+04  0.00000000000E+00 0. -1.
         24    2    1    2    0    0 -0.10596366799E+04  0.93954209389E+03  0.32640313148E+03  0.14554776232E+04  0.79415790866E+02 0.  0.
        254    2    1    2    0    0  0.10596366799E+04 -0.93954209389E+03  0.23867870330E+03  0.16952855939E+04  0.90080879312E+03 0.  0.
         23    2    4    4    0    0  0.75086947239E+03 -0.66033970164E+03 -0.23081025787E+03  0.10299749428E+04  0.87872188046E+02 0.  0.
          2    1    3    3  502    0 -0.54371350333E+03  0.51223141580E+03  0.13859935340E+03  0.75974678532E+03  0.00000000000E+00 0. -1.
         -1    1    3    3    0  502 -0.51592317658E+03  0.42731067809E+03  0.18780377808E+03  0.69573083790E+03  0.00000000000E+00 0.  1.
         13    1    5    5    0    0  0.70619614944E+03 -0.62974567359E+03 -0.19809321290E+03  0.96671274735E+03  0.00000000000E+00 0.  1.
        -13    1    5    5    0    0  0.44673322951E+02 -0.30594028048E+02 -0.32717044972E+02  0.63262195405E+02  0.00000000000E+00 0. -1.
          1    1    4    4  503    0 -0.18937578411E+02  0.14765706484E+02  0.57719949362E+02  0.62516002098E+02  0.00000000000E+00 0. -1.
         -1    1    4    4    0  503  0.32770478593E+03 -0.29396809874E+03  0.41176901181E+03  0.60279464902E+03  0.00000000000E+00 0.  1.
<mgrwt>
<rscale>  0 0.30996760E+04</rscale>
<asrwt>0</asrwt>
<pdfrwt beam="1">  1        2 0.19889857E+00 0.30996760E+04</pdfrwt>
<pdfrwt beam="2">  1       -1 0.28583424E+00 0.30996760E+04</pdfrwt>
<totfact> 0.65851166E-01</totfact>
</mgrwt>
</event>
<event>
12    7  0.1497947E-008  0.1443798E+04  0.7818608E-02  0.8922712E-01
          2   -1    0    0  501    0  0.00000000000E+00  0.00000000000E+00  0.11812042479E+04  0.11812042479E+04  0.00000000000E+00 0. -1.
         -1   -1    0    0    0  501 -0.00000000000E+00 -0.00000000000E+00 -0.44119223655E+03  0.44119223655E+03  0.00000000000E+00 0.  1.
         24    2    1    2    0    0 -0.41221023318E+03  0.78240543332E+02  0.12349997106E+03  0.44738133614E+03  0.94122038393E+02 0.  0.
        254    2    1    2    0    0  0.41221023318E+03 -0.78240543332E+02  0.61651204029E+03  0.11750151483E+04  0.90803890004E+03 0.  0.
         23    2    4    4    0    0 -0.93412361700E+02  0.16335335379E+03  0.56068222440E+03  0.59862475203E+03  0.92611281554E+02 0.  0.
         23    2    4    4    0    0  0.50562259488E+03 -0.24159389712E+03  0.55829815893E+02  0.57639039629E+03  0.12282956081E+03 0.  0.
          2    1    3    3  502    0 -0.18906613091E+02  0.10594662916E+02  0.30828482350E+02  0.37684243722E+02  0.00000000000E+00 0. -1.
         -1    1    3    3    0  502 -0.39330362009E+03  0.67645880416E+02  0.92671488707E+02  0.40969709241E+03  0.00000000000E+00 0.  1.
         13    1    5    5    0    0 -0.55505799422E-01 -0.11013002750E+02  0.18974075132E+02  0.21938660797E+02  0.00000000000E+00 0.  1.
        -13    1    5    5    0    0 -0.93356855901E+02  0.17436635654E+03  0.54170814927E+03  0.57668609123E+03  0.00000000000E+00 0. -1.
          3    1    6    6  503    0  0.46516220238E+03 -0.25115341249E+03  0.68198960883E+02  0.53301501798E+03  0.00000000000E+00 0. -1.
         -3    1    6    6    0  503  0.40460392500E+02  0.95595153679E+01 -0.12369144990E+02  0.43375378305E+02  0.00000000000E+00 0.  1.
<mgrwt>
<rscale>  0 0.14437980E+04</rscale>
<asrwt>0</asrwt>
<pdfrwt beam="1">  1        2 0.18172373E+00 0.14437980E+04</pdfrwt>
<pdfrwt beam="2">  1       -1 0.67875729E-01 0.14437980E+04</pdfrwt>
<totfact> 0.47268194E+01</totfact>
</mgrwt>
</event>
<event>
11    7  0.1497947E-008  0.1413296E+04  0.7818608E-02  0.8944250E-01
         -1   -1    0    0    0  501 -0.00000000000E+00  0.00000000000E+00  0.95318340351E+03  0.95318340351E+03  0.00000000000E+00 0.  1.
          2   -1    0    0  501    0  0.00000000000E+00 -0.00000000000E+00 -0.52387754769E+03  0.52387754769E+03  0.00000000000E+00 0. -1.
         24    2    1    2    0    0  0.11863339760E+03  0.15361245212E+03  0.50924010750E+03  0.55076380500E+03  0.79653081189E+02 0.  0.
        254    2    1    2    0    0 -0.11863339760E+03 -0.15361245212E+03 -0.79934251674E+02  0.92629714619E+03  0.90220078141E+03 0.  0.
         23    2    4    4    0    0 -0.45841834721E+03 -0.33767529627E+02 -0.19688142022E+03  0.50824888900E+03  0.90923112688E+02 0.  0.
          4    1    3    3  502    0  0.71586042681E+02  0.74641931658E+02  0.16731887073E+03  0.19670176402E+03  0.00000000000E+00 0. -1.
         -3    1    3    3    0  502  0.47047354919E+02  0.78970520459E+02  0.34192123677E+03  0.35406204098E+03  0.00000000000E+00 0.  1.
         13    1    5    5    0    0 -0.35565339498E+03 -0.59184562081E+02 -0.17216189966E+03  0.39953957181E+03  0.00000000000E+00 0.  1.
        -13    1    5    5    0    0 -0.10276495223E+03  0.25417032455E+02 -0.24719520563E+02  0.10870931719E+03  0.00000000000E+00 0. -1.
          1    1    4    4  503    0  0.17701310270E+02  0.27524324327E+02  0.46584114114E+02  0.56929820856E+02  0.00000000000E+00 0. -1.
         -1    1    4    4    0  503  0.32208363934E+03 -0.14736924682E+03  0.70363054437E+02  0.36111843634E+03  0.00000000000E+00 0.  1.
<mgrwt>
<rscale>  0 0.14132960E+04</rscale>
<asrwt>0</asrwt>
<pdfrwt beam="1">  1        2 0.80596546E-01 0.14132960E+04</pdfrwt>
<pdfrwt beam="2">  1       -1 0.14664360E+00 0.14132960E+04</pdfrwt>
<totfact> 0.24035627E+01</totfact>
</mgrwt>
</event>
<event>
12    7  0.1497947E-008  0.1361775E+04  0.7818608E-02  0.8981962E-01
         -1   -1    0    0    0  501 -0.00000000000E+00  0.00000000000E+00  0.24498823621E+03  0.24498823621E+03  0.00000000000E+00 0.  1.
          2   -1    0    0  501    0  0.00000000000E+00 -0.00000000000E+00 -0.18923666518E+04  0.18923666518E+04  0.00000000000E+00 0. -1.
         24    2    1    2    0    0 -0.16292689954E+03  0.34371313483E+03 -0.51968874885E+03  0.64905174087E+03  0.80671388943E+02 0.  0.
        254    2    1    2    0    0  0.16292689954E+03 -0.34371313483E+03 -0.11276896668E+04  0.14883031471E+04  0.89368807738E+03 0.  0.
         23    2    4    4    0    0 -0.52388914843E+02 -0.11498773903E+03 -0.11535069168E+04  0.11639461751E+04  0.90695716260E+02 0.  0.
         23    2    4    4    0    0  0.21531581438E+03 -0.22872539580E+03  0.25817250030E+02  0.32435697204E+03  0.76581383549E+02 0.  0.
          4    1    3    3  502    0 -0.76591263916E+02  0.15119604022E+03 -0.29923845017E+03  0.34390422264E+03  0.00000000000E+00 0. -1.
         -3    1    3    3    0  502 -0.86335635622E+02  0.19251709461E+03 -0.22045029868E+03  0.30514751823E+03  0.00000000000E+00 0.  1.
         13    1    5    5    0    0  0.19912307510E+02 -0.39317018489E+02 -0.20507590147E+03  0.20975808279E+03  0.00000000000E+00 0.  1.
        -13    1    5    5    0    0 -0.72301222354E+02 -0.75670720543E+02 -0.94843101531E+03  0.95418809231E+03  0.00000000000E+00 0. -1.
          1    1    6    6  503    0  0.10295551631E+03 -0.97262348516E+02 -0.25621813759E+02  0.14393151190E+03  0.00000000000E+00 0. -1.
         -1    1    6    6    0  503  0.11236029808E+03 -0.13146304729E+03  0.51439063789E+02  0.18042546015E+03  0.00000000000E+00 0.  1.
<mgrwt>
<rscale>  0 0.13617747E+04</rscale>
<asrwt>0</asrwt>
<pdfrwt beam="1">  1        2 0.29113334E+00 0.13617747E+04</pdfrwt>
<pdfrwt beam="2">  1       -1 0.37690497E-01 0.13617747E+04</pdfrwt>
<totfact> 0.57894388E+01</totfact>
</mgrwt>
</event>
<event>
11    7  0.1497947E-008  0.1358039E+04  0.7818608E-02  0.8984765E-01
          2   -1    0    0  501    0  0.00000000000E+00  0.00000000000E+00  0.24576795831E+04  0.24576795831E+04  0.00000000000E+00 0. -1.
         -1   -1    0    0    0  501 -0.00000000000E+00 -0.00000000000E+00 -0.18760270273E+03  0.18760270273E+03  0.00000000000E+00 0.  1.
         24    2    1    2    0    0  0.18405149264E+03 -0.32365947712E+03  0.72116476644E+03  0.81554521715E+03  0.80031067732E+02 0.  0.
        254    2    1    2    0    0 -0.18405149264E+03  0.32365947712E+03  0.15489121140E+04  0.18297370687E+04  0.90009921385E+03 0.  0.
         23    2    4    4    0    0  0.12499580795E+03 -0.89486942214E+02  0.11241048795E+04  0.11382080412E+04  0.90960980962E+02 0.  0.
          4    1    3    3  502    0  0.46696421597E+02 -0.27637071440E+02  0.11318739525E+03  0.12552191024E+03  0.00000000000E+00 0. -1.
         -3    1    3    3    0  502  0.13735507104E+03 -0.29602240568E+03  0.60797737119E+03  0.69002330691E+03  0.00000000000E+00 0.  1.
         13    1    5    5    0    0  0.16573781306E+02 -0.53054488184E+02  0.55130426776E+03  0.55409914690E+03  0.00000000000E+00 0.  1.
        -13    1    5    5    0    0  0.10842202665E+03 -0.36432454030E+02  0.57280061178E+03  0.58410889432E+03  0.00000000000E+00 0. -1.
          1    1    4    4  503    0 -0.22176543791E+03  0.25721191044E+03  0.37519006415E+03  0.50606863226E+03  0.00000000000E+00 0. -1.
         -1    1    4    4    0  503 -0.87281862674E+02  0.15593450889E+03  0.49617170282E+02  0.18546039524E+03  0.00000000000E+00 0.  1.
<mgrwt>
<rscale>  0 0.13580388E+04</rscale>
<asrwt>0</asrwt>
<pdfrwt beam="1">  1        2 0.37810453E+00 0.13580388E+04</pdfrwt>
<pdfrwt beam="2">  1       -1 0.28861956E-01 0.13580388E+04</pdfrwt>
<totfact> 0.44883938E+01</totfact>
</mgrwt>
</event>
<event>
12    7  0.1497947E-008  0.2944860E+04  0.7818608E-02  0.8259654E-01
          2   -1    0    0  501    0  0.00000000000E+00  0.00000000000E+00  0.32145238616E+04  0.32145238616E+04  0.00000000000E+00 0. -1.
         -1   -1    0    0    0  501 -0.00000000000E+00 -0.00000000000E+00 -0.67445431306E+03  0.67445431306E+03  0.00000000000E+00 0.  1.
         24    2    1    2    0    0  0.17894151889E+03 -0.10712472495E+04  0.13040246001E+03  0.10968175302E+04  0.80082183734E+02 0.  0.
        254    2    1    2    0    0 -0.17894151889E+03  0.10712472495E+04  0.24096670885E+04  0.27921606444E+04  0.90004158241E+03 0.  0.
         23    2    4    4    0    0 -0.21975939575E+03  0.11202532477E+04  0.24057548269E+04  0.26644112514E+04  0.90385279513E+02 0.  0.
         23    2    4    4    0    0  0.40817876864E+02 -0.49005998150E+02  0.39122616229E+01  0.12774939299E+03  0.11062058892E+03 0.  0.
          2    1    3    3  502    0  0.11383047879E+03 -0.56726807187E+03  0.10491071623E+03  0.58801080062E+03  0.00000000000E+00 0. -1.
         -1    1    3    3    0  502  0.65111040101E+02 -0.50397917767E+03  0.25491743781E+02  0.50880672959E+03  0.00000000000E+00 0.  1.
         13    1    5    5    0    0 -0.15525033268E+03  0.88430223266E+03  0.19630118604E+04  0.21585895090E+04  0.00000000000E+00 0. -1.
        -13    1    5    5    0    0 -0.64509063076E+02  0.23595101503E+03  0.44274296652E+03  0.50582174243E+03  0.00000000000E+00 0.  1.
          2    1    6    6  503    0  0.33287782188E+02  0.29627373306E+02 -0.14077620930E+02  0.46733682746E+02  0.00000000000E+00 0. -1.
         -2    1    6    6    0  503  0.75300946761E+01 -0.78633371456E+02  0.17989882553E+02  0.81015710246E+02  0.00000000000E+00 0.  1.
<mgrwt>
<rscale>  0 0.29448596E+04</rscale>
<asrwt>0</asrwt>
<pdfrwt beam="1">  1        2 0.49454212E+00 0.29448596E+04</pdfrwt>
<pdfrwt beam="2">  1       -1 0.10376220E+00 0.29448596E+04</pdfrwt>
<totfact> 0.10841472E+00</totfact>
</mgrwt>
</event>
<event>
12    7  0.1595261E-008  0.2661065E+04  0.7818608E-02  0.8347750E-01
          2   -1    0    0  501    0  0.00000000000E+00  0.00000000000E+00  0.16207122302E+04  0.16207122302E+04  0.00000000000E+00 0. -1.
         -1   -1    0    0    0  501 -0.00000000000E+00 -0.00000000000E+00 -0.10923075565E+04  0.10923075565E+04  0.00000000000E+00 0.  1.
         24    2    1    2    0    0 -0.93941429434E+02  0.83023414554E+03 -0.60315347185E+03  0.10323984837E+04  0.62759780020E+02 0.  0.
        254    2    1    2    0    0  0.93941429434E+02 -0.83023414554E+03  0.11315581456E+04  0.16806213029E+04  0.91975561889E+03 0.  0.
         23    2    4    4    0    0  0.42679569884E+03 -0.43824787487E+03  0.27798497973E+03  0.67818754105E+03  0.91907146104E+02 0.  0.
         23    2    4    4    0    0 -0.33285426941E+03 -0.39198627067E+03  0.85357316586E+03  0.10024337619E+04  0.10881680230E+03 0.  0.
          2    1    3    3  502    0 -0.44334790756E+02  0.48199179869E+03 -0.38514245678E+03  0.61855992409E+03  0.00000000000E+00 0. -1.
         -1    1    3    3    0  502 -0.49606638679E+02  0.34824234685E+03 -0.21801101506E+03  0.41383855962E+03  0.00000000000E+00 0.  1.
         13    1    5    5    0    0  0.82336334251E+02 -0.12768442529E+03  0.41035298864E+02  0.15737369587E+03  0.00000000000E+00 0. -1.
        -13    1    5    5    0    0  0.34445936459E+03 -0.31056344958E+03  0.23694968087E+03  0.52081384518E+03  0.00000000000E+00 0.  1.
          1    1    6    6  503    0  0.99700755340E-01  0.59002195525E+01  0.17489526323E+02  0.18458224779E+02  0.00000000000E+00 0. -1.
         -1    1    6    6    0  503 -0.33295397016E+03 -0.39788649022E+03  0.83608363953E+03  0.98397553712E+03  0.00000000000E+00 0.  1.
<mgrwt>
<rscale>  0 0.26610646E+04</rscale>
<asrwt>0</asrwt>
<pdfrwt beam="1">  1        2 0.24934034E+00 0.26610646E+04</pdfrwt>
<pdfrwt beam="2">  1       -1 0.16804732E+00 0.26610646E+04</pdfrwt>
<totfact> 0.27678258E+00</totfact>
</mgrwt>
</event>
<event>
12    7  0.1497947E-008  0.2976622E+04  0.7818608E-02  0.8250438E-01
         -1   -1    0    0    0  501 -0.00000000000E+00  0.00000000000E+00  0.73506875400E+03  0.73506875400E+03  0.00000000000E+00 0.  1.
          2   -1    0    0  501    0  0.00000000000E+00 -0.00000000000E+00 -0.30134182913E+04  0.30134182913E+04  0.00000000000E+00 0. -1.
         24    2    1    2    0    0  0.81299355399E+03 -0.28633566441E+03  0.27265339858E+03  0.90754289358E+03  0.79671804222E+02 0.  0.
        254    2    1    2    0    0 -0.81299355399E+03  0.28633566441E+03 -0.25510029359E+04  0.28409441518E+04  0.90575993664E+03 0.  0.
         23    2    4    4    0    0 -0.19652668453E+03  0.44718378486E+03 -0.17247033984E+04  0.17948908201E+04  0.91843172927E+02 0.  0.
         23    2    4    4    0    0 -0.61646686946E+03 -0.16084812045E+03 -0.82629953753E+03  0.10460533317E+04  0.74519313036E+02 0.  0.
          4    1    3    3  502    0  0.27057920932E+03 -0.55947364640E+02  0.87267128034E+02  0.28975639382E+03  0.00000000000E+00 0. -1.
         -3    1    3    3    0  502  0.54241434467E+03 -0.23038829977E+03  0.18538627055E+03  0.61778649976E+03  0.00000000000E+00 0.  1.
         13    1    5    5    0    0 -0.13906683246E+02  0.60824803098E+02 -0.13451235428E+03  0.14827887902E+03  0.00000000000E+00 0. -1.
        -13    1    5    5    0    0 -0.18262000129E+03  0.38635898176E+03 -0.15901910441E+04  0.16466119411E+04  0.00000000000E+00 0.  1.
          2    1    6    6  503    0 -0.32859952545E+03 -0.12237132623E+03 -0.46973458984E+03  0.58617657280E+03  0.00000000000E+00 0. -1.
         -2    1    6    6    0  503 -0.28786734401E+03 -0.38476794217E+02 -0.35656494770E+03  0.45987675889E+03  0.00000000000E+00 0.  1.
<mgrwt>
<rscale>  0 0.29766220E+04</rscale>
<asrwt>0</asrwt>
<pdfrwt beam="1">  1        2 0.46360281E+00 0.29766220E+04</pdfrwt>
<pdfrwt beam="2">  1       -1 0.11308750E+00 0.29766220E+04</pdfrwt>
<totfact> 0.11883796E+00</totfact>
</mgrwt>
</event>
<event>
12    7  0.1497947E-008  0.1040697E+04  0.7818608E-02  0.9265002E-01
         -1   -1    0    0    0  501 -0.00000000000E+00  0.00000000000E+00  0.65893478938E+03  0.65893478938E+03  0.00000000000E+00 0.  1.
          2   -1    0    0  501    0  0.00000000000E+00 -0.00000000000E+00 -0.41090927388E+03  0.41090927388E+03  0.00000000000E+00 0. -1.
         24    2    1    2    0    0 -0.36054554259E+02  0.30181265032E+02  0.70780785438E+01  0.92340900039E+02  0.79157456897E+02 0.  0.
        254    2    1    2    0    0  0.36054554259E+02 -0.30181265032E+02  0.24094743696E+03  0.97750316322E+03  0.94617436400E+03 0.  0.
         23    2    4    4    0    0 -0.12346691502E+02 -0.14851507661E+03  0.57392630871E+03  0.59971460885E+03  0.89760990829E+02 0.  0.
         23    2    4    4    0    0  0.48401245761E+02  0.11833381157E+03 -0.33297887175E+03  0.37778855437E+03  0.12451381941E+03 0.  0.
          4    1    3    3  502    0  0.17280146085E+02 -0.90873699140E+01 -0.12613549254E+02  0.23244039353E+02  0.00000000000E+00 0. -1.
         -3    1    3    3    0  502 -0.53334700344E+02  0.39268634946E+02  0.19691627797E+02  0.69096860686E+02  0.00000000000E+00 0.  1.
         13    1    5    5    0    0  0.13863039526E+02 -0.73255641539E+02  0.14083289485E+03  0.15935017149E+03  0.00000000000E+00 0.  1.
        -13    1    5    5    0    0 -0.26209731028E+02 -0.75259435068E+02  0.43309341385E+03  0.44036443736E+03  0.00000000000E+00 0. -1.
          1    1    6    6  503    0  0.63802925591E+02  0.13884652074E+03 -0.28384391380E+03  0.32236088013E+03  0.00000000000E+00 0. -1.
         -1    1    6    6    0  503 -0.15401679830E+02 -0.20512709162E+02 -0.49134957951E+02  0.55427674239E+02  0.00000000000E+00 0.  1.
<mgrwt>
<rscale>  0 0.10406967E+04</rscale>
<asrwt>0</asrwt>
<pdfrwt beam="1">  1        2 0.63216812E-01 0.10406967E+04</pdfrwt>
<pdfrwt beam="2">  1       -1 0.10137458E+00 0.10406967E+04</pdfrwt>
<totfact> 0.81280287E+01</totfact>
</mgrwt>
</event>
<event>
12    7  0.1497947E-008  0.1631582E+04  0.7818608E-02  0.8801377E-01
          2   -1    0    0  501    0  0.00000000000E+00  0.00000000000E+00  0.23696760952E+04  0.23696760952E+04  0.00000000000E+00 0. -1.
         -1   -1    0    0    0  501 -0.00000000000E+00 -0.00000000000E+00 -0.28084652340E+03  0.28084652340E+03  0.00000000000E+00 0.  1.
         24    2    1    2    0    0  0.30382401182E+03  0.83853271670E+02 -0.29051304130E+02  0.32647281821E+03  0.80000758916E+02 0.  0.
        254    2    1    2    0    0 -0.30382401182E+03 -0.83853271670E+02  0.21178808759E+04  0.23240498004E+04  0.90357493808E+03 0.  0.
         23    2    4    4    0    0 -0.29070489946E+02  0.13617039861E+02  0.19973001688E+04  0.19996579974E+04  0.91616729045E+02 0.  0.
         23    2    4    4    0    0 -0.27475352188E+03 -0.97470311531E+02  0.12058070706E+03  0.32439180294E+03  0.75500831039E+02 0.  0.
          2    1    3    3  502    0  0.20209983502E+01 -0.91268670508E+01 -0.11380913835E+00  0.93486410250E+01  0.00000000000E+00 0. -1.
         -1    1    3    3    0  502  0.30180301347E+03  0.92980138721E+02 -0.28937494992E+02  0.31712417718E+03  0.00000000000E+00 0.  1.
         13    1    5    5    0    0 -0.42659165829E+02  0.13900260830E+02  0.43672251935E+03  0.43902116189E+03  0.00000000000E+00 0. -1.
        -13    1    5    5    0    0  0.13588675883E+02 -0.28322096899E+00  0.15605776495E+04  0.15606368355E+04  0.00000000000E+00 0.  1.
          1    1    6    6  503    0 -0.15257434080E+03 -0.69252265306E+02  0.10571736983E+03  0.19811857057E+03  0.00000000000E+00 0. -1.
         -1    1    6    6    0  503 -0.12217918107E+03 -0.28218046225E+02  0.14863337238E+02  0.12627323237E+03  0.00000000000E+00 0.  1.
<mgrwt>
<rscale>  0 0.16315824E+04</rscale>
<asrwt>0</asrwt>
<pdfrwt beam="1">  1        2 0.36456554E+00 0.16315824E+04</pdfrwt>
<pdfrwt beam="2">  1       -1 0.43207159E-01 0.16315824E+04</pdfrwt>
<totfact> 0.23845142E+01</totfact>
</mgrwt>
</event>
<event>
11    7  0.1497947E-008  0.1138953E+04  0.7818608E-02  0.9168036E-01
         -1   -1    0    0    0  501 -0.00000000000E+00  0.00000000000E+00  0.13277405669E+04  0.13277405669E+04  0.00000000000E+00 0.  1.
          2   -1    0    0  501    0  0.00000000000E+00 -0.00000000000E+00 -0.24425224578E+03  0.24425224578E+03  0.00000000000E+00 0. -1.
         24    2    1    2    0    0  0.58542882971E+02 -0.19547824239E+03  0.21137497917E+03  0.30378910218E+03  0.77262050116E+02 0.  0.
        254    2    1    2    0    0 -0.58542882971E+02  0.19547824239E+03  0.87211334200E+03  0.12682037106E+04  0.89784183338E+03 0.  0.
         23    2    4    4    0    0 -0.77974742071E+02 -0.28482282257E+03  0.33774790486E+03  0.45750531988E+03  0.89629067973E+02 0.  0.
          2    1    3    3  502    0  0.18993065971E+02 -0.11240254010E+03  0.65941368748E+02  0.13169408373E+03  0.00000000000E+00 0. -1.
         -3    1    3    3    0  502  0.39549817001E+02 -0.83075702293E+02  0.14543361042E+03  0.17209501845E+03  0.00000000000E+00 0.  1.
         13    1    5    5    0    0 -0.43191959964E+02 -0.23455630826E+03  0.21828605712E+03  0.32331255757E+03  0.00000000000E+00 0. -1.
        -13    1    5    5    0    0 -0.34782782108E+02 -0.50266514314E+02  0.11946184773E+03  0.13419276231E+03  0.00000000000E+00 0.  1.
          3    1    4    4  503    0 -0.58305498013E+02  0.14061353782E+03  0.41551236177E+03  0.44251804585E+03  0.00000000000E+00 0. -1.
         -3    1    4    4    0  503  0.77737357112E+02  0.33968752715E+03  0.11885307537E+03  0.36818034482E+03  0.00000000000E+00 0.  1.
<mgrwt>
<rscale>  0 0.11389532E+04</rscale>
<asrwt>0</asrwt>
<pdfrwt beam="1">  1        2 0.37577269E-01 0.11389532E+04</pdfrwt>
<pdfrwt beam="2">  1       -1 0.20426778E+00 0.11389532E+04</pdfrwt>
<totfact> 0.22091441E+01</totfact>
</mgrwt>
</event>
<event>
11    7  0.1497947E-008  0.1561688E+04  0.7818608E-02  0.8844436E-01
         -1   -1    0    0    0  501 -0.00000000000E+00  0.00000000000E+00  0.21871663269E+03  0.21871663269E+03  0.00000000000E+00 0.  1.
          2   -1    0    0  501    0  0.00000000000E+00 -0.00000000000E+00 -0.27877059835E+04  0.27877059835E+04  0.00000000000E+00 0. -1.
         24    2    1    2    0    0  0.16726202519E+03  0.12944920551E+03  0.71232020561E+02  0.23691883694E+03  0.79516367283E+02 0.  0.
        254    2    1    2    0    0 -0.16726202519E+03 -0.12944920551E+03 -0.26402213714E+04  0.27695037793E+04  0.80910358521E+03 0.  0.
         23    2    4    4    0    0  0.21986403504E+02  0.31481967944E+03 -0.10210219469E+04  0.10729020756E+04  0.95069529149E+02 0.  0.
          2    1    3    3  502    0  0.79161620596E+02  0.10819226426E+03  0.54722660927E+02  0.14479881851E+03  0.00000000000E+00 0. -1.
         -1    1    3    3    0  502  0.88100404589E+02  0.21256941244E+02  0.16509359634E+02  0.92120018429E+02  0.00000000000E+00 0.  1.
         13    1    5    5    0    0  0.99870024010E+01  0.23069008166E+03 -0.86441287221E+03  0.89472189402E+03  0.00000000000E+00 0. -1.
        -13    1    5    5    0    0  0.11999401103E+02  0.84129597779E+02 -0.15660907468E+03  0.17818018162E+03  0.00000000000E+00 0.  1.
          1    1    4    4  503    0 -0.19709083357E+03 -0.42504043614E+03 -0.13977526531E+04  0.14741833836E+04  0.00000000000E+00 0. -1.
         -1    1    4    4    0  503  0.78424048790E+01 -0.19228448806E+02 -0.22144677136E+03  0.22241832008E+03  0.00000000000E+00 0.  1.
<mgrwt>
<rscale>  0 0.15616884E+04</rscale>
<asrwt>0</asrwt>
<pdfrwt beam="1">  1        2 0.42887780E+00 0.15616884E+04</pdfrwt>
<pdfrwt beam="2">  1       -1 0.33648716E-01 0.15616884E+04</pdfrwt>
<totfact> 0.21546997E+01</totfact>
</mgrwt>
</event>
<event>
12    7  0.1497947E-008  0.2162663E+04  0.7818608E-02  0.8534131E-01
          2   -1    0    0  501    0  0.00000000000E+00  0.00000000000E+00  0.13615130407E+04  0.13615130407E+04  0.00000000000E+00 0. -1.
         -1   -1    0    0    0  501 -0.00000000000E+00 -0.00000000000E+00 -0.85880795516E+03  0.85880795516E+03  0.00000000000E+00 0.  1.
         24    2    1    2    0    0 -0.39822340461E+02  0.42728345003E+03 -0.59389569798E+03  0.73763620823E+03  0.85077083489E+02 0.  0.
        254    2    1    2    0    0  0.39822340461E+02 -0.42728345003E+03  0.10966007835E+04  0.14826847876E+04  0.90092393442E+03 0.  0.
         23    2    4    4    0    0 -0.16373238029E+03 -0.29244934433E+03 -0.58100942646E+01  0.34755568211E+03  0.91794790786E+02 0.  0.
         23    2    4    4    0    0  0.20355472075E+03 -0.13483410570E+03  0.11024108778E+04  0.11351291055E+04  0.11659151928E+03 0.  0.
          2    1    3    3  502    0  0.52998002418E+01  0.79018609897E+01 -0.40462567234E+00  0.95231828523E+01  0.00000000000E+00 0. -1.
         -1    1    3    3    0  502 -0.45122140703E+02  0.41938158904E+03 -0.59349107231E+03  0.72811302537E+03  0.00000000000E+00 0.  1.
         13    1    5    5    0    0 -0.30492595081E+02 -0.10160909516E+02  0.13376519752E+02  0.34813412899E+02  0.00000000000E+00 0.  1.
        -13    1    5    5    0    0 -0.13323978520E+03 -0.28228843482E+03 -0.19186614017E+02  0.31274226921E+03  0.00000000000E+00 0. -1.
          4    1    6    6  503    0  0.14326297255E+03 -0.84968551518E+02  0.94248009762E+03  0.95708550739E+03  0.00000000000E+00 0. -1.
         -4    1    6    6    0  503  0.60291748193E+02 -0.49865554184E+02  0.15993078017E+03  0.17804359814E+03  0.00000000000E+00 0.  1.
<mgrwt>
<rscale>  0 0.21626634E+04</rscale>
<asrwt>0</asrwt>
<pdfrwt beam="1">  1        2 0.20946354E+00 0.21626634E+04</pdfrwt>
<pdfrwt beam="2">  1       -1 0.13212430E+00 0.21626634E+04</pdfrwt>
<totfact> 0.77438700E+00</totfact>
</mgrwt>
</event>
<event>
11    7  0.1497947E-008  0.1184378E+04  0.7818608E-02  0.9126641E-01
          2   -1    0    0  501    0  0.00000000000E+00  0.00000000000E+00  0.19730931205E+04  0.19730931205E+04  0.00000000000E+00 0. -1.
         -3   -1    0    0    0  501 -0.00000000000E+00 -0.00000000000E+00 -0.17773508324E+03  0.17773508324E+03  0.00000000000E+00 0.  1.
         24    2    1    2    0    0  0.22629780639E+03 -0.38246890029E+02  0.28555903624E+03  0.37727291525E+03  0.90096435165E+02 0.  0.
        254    2    1    2    0    0 -0.22629780639E+03  0.38246890029E+02  0.15097990010E+04  0.17735552885E+04  0.90184910937E+03 0.  0.
         23    2    4    4    0    0 -0.34975328460E+03 -0.10675231612E+03  0.20200302965E+03  0.42730508851E+03  0.89783058500E+02 0.  0.
          4    1    3    3  502    0  0.47633561535E+02  0.17267490098E+02  0.10820526945E+03  0.11948013532E+03  0.00000000000E+00 0. -1.
         -3    1    3    3    0  502  0.17866424485E+03 -0.55514380127E+02  0.17735376679E+03  0.25779277993E+03  0.00000000000E+00 0.  1.
         13    1    5    5    0    0 -0.13755235190E+03 -0.45329981180E+02  0.13093903378E+03  0.19524468565E+03  0.00000000000E+00 0. -1.
        -13    1    5    5    0    0 -0.21220093270E+03 -0.61422334935E+02  0.71063995873E+02  0.23206040286E+03  0.00000000000E+00 0.  1.
          3    1    4    4  503    0 -0.14282268002E+02 -0.64778404901E+01 -0.58554476822E+01  0.16740127367E+02  0.00000000000E+00 0. -1.
         -3    1    4    4    0  503  0.13773774622E+03  0.15147704663E+03  0.13136514191E+04  0.13295100726E+04  0.00000000000E+00 0.  1.
<mgrwt>
<rscale>  0 0.11843781E+04</rscale>
<asrwt>0</asrwt>
<pdfrwt beam="1">  1        2 0.30355277E+00 0.11843781E+04</pdfrwt>
<pdfrwt beam="2">  1       -3 0.27343860E-01 0.11843781E+04</pdfrwt>
<totfact> 0.57198539E+01</totfact>
</mgrwt>
</event>
<event>
12    7  0.1497947E-008  0.1610199E+04  0.7818608E-02  0.8814307E-01
         -3   -1    0    0    0  501 -0.00000000000E+00  0.00000000000E+00  0.22288520931E+03  0.22288520931E+03  0.00000000000E+00 0.  1.
          2   -1    0    0  501    0  0.00000000000E+00 -0.00000000000E+00 -0.29081584034E+04  0.29081584034E+04  0.00000000000E+00 0. -1.
         24    2    1    2    0    0 -0.23011338428E+03 -0.49454147794E+03 -0.80420496657E+03  0.97506428287E+03  0.80506424846E+02 0.  0.
        254    2    1    2    0    0  0.23011338428E+03  0.49454147794E+03 -0.18810682275E+04  0.21559793298E+04  0.90128006250E+03 0.  0.
         23    2    4    4    0    0  0.53824327674E+03  0.11331548897E+03 -0.93914652957E+03  0.10921737896E+04  0.91110689010E+02 0.  0.
         23    2    4    4    0    0 -0.30812989246E+03  0.38122598897E+03 -0.94192169791E+03  0.10638055402E+04  0.64718290345E+02 0.  0.
          2    1    3    3  502    0 -0.15114785905E+02 -0.63978579715E+02 -0.14173563471E+03  0.15623925743E+03  0.00000000000E+00 0. -1.
         -1    1    3    3    0  502 -0.21499859837E+03 -0.43056289823E+03 -0.66246933187E+03  0.81882502544E+03  0.00000000000E+00 0.  1.
         13    1    5    5    0    0  0.39182495251E+03  0.42157509677E+02 -0.68825716031E+03  0.79309644291E+03  0.00000000000E+00 0.  1.
        -13    1    5    5    0    0  0.14641832423E+03  0.71157979296E+02 -0.25088936925E+03  0.29907734667E+03  0.00000000000E+00 0. -1.
          3    1    6    6  503    0 -0.18380659618E+03  0.22953852832E+03 -0.63162903476E+03  0.69672665970E+03  0.00000000000E+00 0. -1.
         -3    1    6    6    0  503 -0.12432329628E+03  0.15168746065E+03 -0.31029266315E+03  0.36707888052E+03  0.00000000000E+00 0.  1.
<mgrwt>
<rscale>  0 0.16101994E+04</rscale>
<asrwt>0</asrwt>
<pdfrwt beam="1">  1        2 0.44740895E+00 0.16101994E+04</pdfrwt>
<pdfrwt beam="2">  1       -3 0.34290035E-01 0.16101994E+04</pdfrwt>
<totfact> 0.10412618E+01</totfact>
</mgrwt>
</event>
<event>
12    7  0.1497947E-008  0.2317361E+04  0.7818608E-02  0.8471107E-01
         -1   -1    0    0    0  501 -0.00000000000E+00  0.00000000000E+00  0.25403640837E+04  0.25403640837E+04  0.00000000000E+00 0.  1.
          2   -1    0    0  501    0  0.00000000000E+00 -0.00000000000E+00 -0.52848345938E+03  0.52848345938E+03  0.00000000000E+00 0. -1.
         24    2    1    2    0    0  0.81082503508E+02  0.10116500378E+02  0.21516008027E+04  0.21546710641E+04  0.80899100943E+02 0.  0.
        254    2    1    2    0    0 -0.81082503508E+02 -0.10116500378E+02 -0.13972017838E+03  0.91417647893E+03  0.89973339964E+03 0.  0.
         23    2    4    4    0    0  0.26168551113E+02  0.29540518040E+03 -0.38505262084E+03  0.49481123695E+03  0.92863478923E+02 0.  0.
         23    2    4    4    0    0 -0.10725105462E+03 -0.30552168078E+03  0.24533244246E+03  0.41936524198E+03  0.10408127934E+03 0.  0.
          2    1    3    3  502    0  0.76296448015E+02  0.49409352717E+01  0.95693239923E+03  0.95998186312E+03  0.00000000000E+00 0. -1.
         -3    1    3    3    0  502  0.47860554937E+01  0.51755651066E+01  0.11946684034E+04  0.11946892010E+04  0.00000000000E+00 0.  1.
         13    1    5    5    0    0 -0.22028875267E+02  0.12975458965E+03 -0.11733213939E+03  0.17631890373E+03  0.00000000000E+00 0.  1.
        -13    1    5    5    0    0  0.48197426379E+02  0.16565059075E+03 -0.26772048146E+03  0.31849233322E+03  0.00000000000E+00 0. -1.
          2    1    6    6  503    0 -0.37419776159E+02 -0.21164578555E+03  0.11333961712E+03  0.24298157749E+03  0.00000000000E+00 0.  1.
         -2    1    6    6    0  503 -0.69831278462E+02 -0.93875895234E+02  0.13199282534E+03  0.17638366449E+03  0.00000000000E+00 0. -1.
<mgrwt>
<rscale>  0 0.23173609E+04</rscale>
<asrwt>0</asrwt>
<pdfrwt beam="1">  1        2 0.81305149E-01 0.23173609E+04</pdfrwt>
<pdfrwt beam="2">  1       -1 0.39082524E+00 0.23173609E+04</pdfrwt>
<totfact> 0.49312441E-01</totfact>
</mgrwt>
</event>
<event>
12    7  0.1497947E-008  0.2255262E+04  0.7818608E-02  0.8495772E-01
         -1   -1    0    0    0  501 -0.00000000000E+00  0.00000000000E+00  0.15460639640E+04  0.15460639640E+04  0.00000000000E+00 0.  1.
          2   -1    0    0  501    0  0.00000000000E+00 -0.00000000000E+00 -0.82244459791E+03  0.82244459791E+03  0.00000000000E+00 0. -1.
         24    2    1    2    0    0  0.62405121524E+02 -0.38205950950E+03 -0.60010679644E+03  0.71826783121E+03  0.76919712868E+02 0.  0.
        254    2    1    2    0    0 -0.62405121524E+02  0.38205950950E+03  0.13237261625E+04  0.16502407307E+04  0.90618963132E+03 0.  0.
         23    2    4    4    0    0 -0.37524281089E+03  0.36486673261E+03  0.11858671172E+04  0.12994776554E+04  0.91795738234E+02 0.  0.
         23    2    4    4    0    0  0.31283768936E+03  0.17192776887E+02  0.13785904531E+03  0.35076307528E+03  0.76593780033E+02 0.  0.
          2    1    3    3  502    0  0.46388598563E+02 -0.37270835221E+03 -0.57924749338E+03  0.69035576080E+03  0.00000000000E+00 0. -1.
         -1    1    3    3    0  502  0.16016522961E+02 -0.93511572872E+01 -0.20859303061E+02  0.27912070410E+02  0.00000000000E+00 0.  1.
         13    1    5    5    0    0 -0.12421281272E+03  0.15186436002E+03  0.35218195591E+03  0.40314232816E+03  0.00000000000E+00 0.  1.
        -13    1    5    5    0    0 -0.25102999817E+03  0.21300237259E+03  0.83368516132E+03  0.89633532727E+03  0.00000000000E+00 0. -1.
          3    1    6    6  503    0  0.11767968690E+03 -0.26691638070E+02  0.33952326247E+02  0.12535434859E+03  0.00000000000E+00 0.  1.
         -3    1    6    6    0  503  0.19515800246E+03  0.43884414957E+02  0.10390671906E+03  0.22540872669E+03  0.00000000000E+00 0. -1.
<mgrwt>
<rscale>  0 0.22552623E+04</rscale>
<asrwt>0</asrwt>
<pdfrwt beam="1">  1        2 0.12652994E+00 0.22552623E+04</pdfrwt>
<pdfrwt beam="2">  1       -1 0.23785599E+00 0.22552623E+04</pdfrwt>
<totfact> 0.28854600E+00</totfact>
</mgrwt>
</event>
<event>
12    7  0.1497947E-008  0.2150918E+04  0.7818608E-02  0.8539139E-01
         -1   -1    0    0    0  501 -0.00000000000E+00  0.00000000000E+00  0.75324709536E+03  0.75324709536E+03  0.00000000000E+00 0.  1.
          2   -1    0    0  501    0  0.00000000000E+00 -0.00000000000E+00 -0.15355016604E+04  0.15355016604E+04  0.00000000000E+00 0. -1.
         24    2    1    2    0    0  0.74110252300E+02  0.55223469177E+03  0.40771395905E+03  0.69501813852E+03  0.79775034771E+02 0.  0.
        254    2    1    2    0    0 -0.74110252300E+02 -0.55223469177E+03 -0.11899685241E+04  0.15937306172E+04  0.90194052338E+03 0.  0.
         23    2    4    4    0    0 -0.40140418063E+03 -0.11512014696E+03 -0.23336611747E+03  0.48694042471E+03  0.90957506404E+02 0.  0.
         23    2    4    4    0    0  0.32729392833E+03 -0.43711454482E+03 -0.95660240662E+03  0.11067901925E+04  0.10819392365E+03 0.  0.
          4    1    3    3  502    0 -0.15248173803E+02  0.13559017653E+03  0.10877838388E+03  0.17449911053E+03  0.00000000000E+00 0. -1.
         -3    1    3    3    0  502  0.89358426103E+02  0.41664451525E+03  0.29893557517E+03  0.52051902799E+03  0.00000000000E+00 0.  1.
         13    1    5    5    0    0 -0.24888853872E+03 -0.99266767415E+02 -0.10808905795E+03  0.28893362606E+03  0.00000000000E+00 0. -1.
        -13    1    5    5    0    0 -0.15251564191E+03 -0.15853379542E+02 -0.12527705952E+03  0.19800679865E+03  0.00000000000E+00 0.  1.
          3    1    6    6  503    0  0.25520575596E+03 -0.29733743905E+03 -0.75958875315E+03  0.85470147095E+03  0.00000000000E+00 0. -1.
         -3    1    6    6    0  503  0.72088172373E+02 -0.13977710577E+03 -0.19701365347E+03  0.25208872158E+03  0.00000000000E+00 0.  1.
<mgrwt>
<rscale>  0 0.21509181E+04</rscale>
<asrwt>0</asrwt>
<pdfrwt beam="1">  1        2 0.23623102E+00 0.21509181E+04</pdfrwt>
<pdfrwt beam="2">  1       -1 0.11588417E+00 0.21509181E+04</pdfrwt>
<totfact> 0.85399083E+00</totfact>
</mgrwt>
</event>
<event>
12    7  0.1497947E-008  0.1878109E+04  0.7818608E-02  0.8665830E-01
         -1   -1    0    0    0  501 -0.00000000000E+00  0.00000000000E+00  0.67957004994E+03  0.67957004994E+03  0.00000000000E+00 0.  1.
          2   -1    0    0  501    0  0.00000000000E+00 -0.00000000000E+00 -0.12976192211E+04  0.12976192211E+04  0.00000000000E+00 0. -1.
         24    2    1    2    0    0  0.64637586082E+03 -0.65192664809E+01 -0.52708400647E+03  0.83795804554E+03  0.80696232315E+02 0.  0.
        254    2    1    2    0    0 -0.64637586082E+03  0.65192664809E+01 -0.90965164662E+02  0.11392312255E+04  0.93366421675E+03 0.  0.
         23    2    4    4    0    0 -0.59865371367E+03 -0.37468956792E+03 -0.19031452285E+03  0.73703779307E+03  0.90700328594E+02 0.  0.
         23    2    4    4    0    0 -0.47722147156E+02  0.38120883440E+03  0.99349358185E+02  0.40219343241E+03  0.65510940691E+02 0.  0.
          2    1    3    3  502    0  0.43727928696E+03 -0.16225344663E+02 -0.40141415341E+03  0.59380953105E+03  0.00000000000E+00 0. -1.
         -1    1    3    3    0  502  0.20909657386E+03  0.97060781820E+01 -0.12566985306E+03  0.24414851448E+03  0.00000000000E+00 0.  1.
         13    1    5    5    0    0 -0.51958991882E+03 -0.29194836089E+03 -0.14113814411E+03  0.61247653415E+03  0.00000000000E+00 0.  1.
        -13    1    5    5    0    0 -0.79063794846E+02 -0.82741207025E+02 -0.49176378742E+02  0.12456125891E+03  0.00000000000E+00 0. -1.
          1    1    6    6  503    0 -0.35505098102E+02  0.12859006261E+03  0.59854879610E+02  0.14621430438E+03  0.00000000000E+00 0. -1.
         -1    1    6    6    0  503 -0.12217049053E+02  0.25261877179E+03  0.39494478575E+02  0.25597912803E+03  0.00000000000E+00 0.  1.
<mgrwt>
<rscale>  0 0.18781088E+04</rscale>
<asrwt>0</asrwt>
<pdfrwt beam="1">  1        2 0.19963372E+00 0.18781088E+04</pdfrwt>
<pdfrwt beam="2">  1       -1 0.10454924E+00 0.18781088E+04</pdfrwt>
<totfact> 0.15254040E+01</totfact>
</mgrwt>
</event>
<event>
11    7  0.1497947E-008  0.1822949E+04  0.7818608E-02  0.8694190E-01
          2   -1    0    0  501    0  0.00000000000E+00  0.00000000000E+00  0.27639176933E+04  0.27639176933E+04  0.00000000000E+00 0. -1.
         -1   -1    0    0    0  501 -0.00000000000E+00 -0.00000000000E+00 -0.30058277186E+03  0.30058277186E+03  0.00000000000E+00 0.  1.
         24    2    1    2    0    0  0.27733255867E+03  0.53715996774E+03  0.14792016422E+04  0.15998162208E+04  0.76943245160E+02 0.  0.
        254    2    1    2    0    0 -0.27733255867E+03 -0.53715996774E+03  0.98413327927E+03  0.14646842444E+04  0.90073716774E+03 0.  0.
         23    2    4    4    0    0 -0.16816666895E+03 -0.25149262167E+03 -0.96350030416E+02  0.32931538353E+03  0.87388364039E+02 0.  0.
          2    1    3    3  502    0  0.25191969412E+03  0.49151587581E+03  0.12841283604E+04  0.13978687473E+04  0.00000000000E+00 0. -1.
         -1    1    3    3    0  502  0.25412864558E+02  0.45644091935E+02  0.19507328172E+03  0.20194747351E+03  0.00000000000E+00 0.  1.
         13    1    5    5    0    0 -0.55874942298E+01 -0.58652282907E+02  0.10677418031E+01  0.58927501682E+02  0.00000000000E+00 0.  1.
        -13    1    5    5    0    0 -0.16257917472E+03 -0.19284033876E+03 -0.97417772219E+02  0.27038788185E+03  0.00000000000E+00 0. -1.
          2    1    4    4  503    0 -0.77102984223E+02 -0.29527882891E+03  0.10339467177E+04  0.10780446521E+04  0.00000000000E+00 0. -1.
         -2    1    4    4    0  503 -0.32062905501E+02  0.96114828388E+01  0.46536592021E+02  0.57324208747E+02  0.00000000000E+00 0.  1.
<mgrwt>
<rscale>  0 0.18229493E+04</rscale>
<asrwt>0</asrwt>
<pdfrwt beam="1">  1        2 0.42521809E+00 0.18229493E+04</pdfrwt>
<pdfrwt beam="2">  1       -1 0.46243505E-01 0.18229493E+04</pdfrwt>
<totfact> 0.12165923E+01</totfact>
</mgrwt>
</event>
<event>
11    7  0.1497947E-008  0.1890362E+04  0.7818608E-02  0.8659669E-01
          2   -1    0    0  501    0  0.00000000000E+00  0.00000000000E+00  0.14567468133E+04  0.14567468133E+04  0.00000000000E+00 0. -1.
         -1   -1    0    0    0  501 -0.00000000000E+00 -0.00000000000E+00 -0.61326183928E+03  0.61326183928E+03  0.00000000000E+00 0.  1.
         24    2    1    2    0    0 -0.23092539528E+03  0.63000376187E+03  0.10938656023E+02  0.67561613076E+03  0.78142330354E+02 0.  0.
        254    2    1    2    0    0  0.23092539528E+03 -0.63000376187E+03  0.83254631801E+03  0.13943925218E+04  0.89496695760E+03 0.  0.
         23    2    4    4    0    0  0.14481679846E+03 -0.53326297610E+03  0.24007112696E+03  0.60890710966E+03  0.88274658877E+02 0.  0.
          4    1    3    3  502    0 -0.18537810460E+03  0.56689624885E+03  0.22894674049E+02  0.59687566940E+03  0.00000000000E+00 0. -1.
         -3    1    3    3    0  502 -0.45547290679E+02  0.63107513018E+02 -0.11956018025E+02  0.78740461355E+02  0.00000000000E+00 0.  1.
         13    1    5    5    0    0  0.10595585107E+03 -0.29320357297E+03  0.17344604735E+03  0.35676113706E+03  0.00000000000E+00 0. -1.
        -13    1    5    5    0    0  0.38860947398E+02 -0.24005940313E+03  0.66625079609E+02  0.25214597260E+03  0.00000000000E+00 0.  1.
          1    1    4    4  503    0  0.27812280950E+03  0.31764779636E+02  0.37691712242E+03  0.46949740741E+03  0.00000000000E+00 0.  1.
         -1    1    4    4    0  503 -0.19201421268E+03 -0.12850556540E+03  0.21555806863E+03  0.31598800477E+03  0.00000000000E+00 0. -1.
<mgrwt>
<rscale>  0 0.18903621E+04</rscale>
<asrwt>0</asrwt>
<pdfrwt beam="1">  1        2 0.22411489E+00 0.18903621E+04</pdfrwt>
<pdfrwt beam="2">  1       -1 0.94347976E-01 0.18903621E+04</pdfrwt>
<totfact> 0.15600071E+01</totfact>
</mgrwt>
</event>
<event>
12    7  0.1497947E-008  0.1889703E+04  0.7818608E-02  0.8659999E-01
          2   -1    0    0  501    0  0.00000000000E+00  0.00000000000E+00  0.16397925139E+04  0.16397925139E+04  0.00000000000E+00 0. -1.
         -1   -1    0    0    0  501 -0.00000000000E+00 -0.00000000000E+00 -0.54442503879E+03  0.54442503879E+03  0.00000000000E+00 0.  1.
         24    2    1    2    0    0  0.46988826754E+03  0.55309382736E+03  0.30550963728E+03  0.79151620353E+03  0.80336767114E+02 0.  0.
        254    2    1    2    0    0 -0.46988826754E+03 -0.55309382736E+03  0.78985783788E+03  0.13927013492E+04  0.88827578948E+03 0.  0.
         23    2    4    4    0    0 -0.32502495407E+03 -0.67040882600E+03  0.20984628756E+03  0.77845081851E+03  0.82831139587E+02 0.  0.
         23    2    4    4    0    0 -0.14486331348E+03  0.11731499864E+03  0.58001155031E+03  0.61425053070E+03  0.78371726193E+02 0.  0.
          2    1    3    3  502    0  0.66179255147E+02  0.96724190532E+02  0.79621433807E+02  0.14168569288E+03  0.00000000000E+00 0. -1.
         -1    1    3    3    0  502  0.40370901240E+03  0.45636963682E+03  0.22588820347E+03  0.64983051065E+03  0.00000000000E+00 0.  1.
         13    1    5    5    0    0 -0.93172040117E+02 -0.27382994074E+03  0.61513591158E+02  0.29571572058E+03  0.00000000000E+00 0. -1.
        -13    1    5    5    0    0 -0.23185291395E+03 -0.39657888526E+03  0.14833269641E+03  0.48273509792E+03  0.00000000000E+00 0.  1.
          1    1    6    6  503    0 -0.57947606689E+02  0.25542904122E+02  0.10418135814E+03  0.12191849924E+03  0.00000000000E+00 0. -1.
         -1    1    6    6    0  503 -0.86915706788E+02  0.91772094523E+02  0.47583019217E+03  0.49233203146E+03  0.00000000000E+00 0.  1.
<mgrwt>
<rscale>  0 0.18897027E+04</rscale>
<asrwt>0</asrwt>
<pdfrwt beam="1">  1        2 0.25227577E+00 0.18897027E+04</pdfrwt>
<pdfrwt beam="2">  1       -1 0.83757699E-01 0.18897027E+04</pdfrwt>
<totfact> 0.15989910E+01</totfact>
</mgrwt>
</event>
<event>
12    7  0.1497947E-008  0.2134604E+04  0.7818608E-02  0.8546152E-01
         -1   -1    0    0    0  501 -0.00000000000E+00  0.00000000000E+00  0.27198984130E+03  0.27198984130E+03  0.00000000000E+00 0.  1.
          2   -1    0    0  501    0  0.00000000000E+00 -0.00000000000E+00 -0.41881457582E+04  0.41881457582E+04  0.00000000000E+00 0. -1.
         24    2    1    2    0    0  0.45712403617E+03 -0.74605031675E+03 -0.16848619800E+04  0.19001678095E+04  0.79525799415E+02 0.  0.
        254    2    1    2    0    0 -0.45712403617E+03  0.74605031675E+03 -0.22312939369E+04  0.25599677901E+04  0.89956044478E+03 0.  0.
         23    2    4    4    0    0 -0.41106709800E+03  0.58357125847E+03 -0.22461677550E+04  0.23586552160E+04  0.91941674933E+02 0.  0.
         23    2    4    4    0    0 -0.46056938172E+02  0.16247905828E+03  0.14873818090E+02  0.20131257409E+03  0.10855798490E+03 0.  0.
          2    1    3    3  502    0  0.14811210371E+03 -0.30201143182E+03 -0.69501283640E+03  0.77213401879E+03  0.00000000000E+00 0. -1.
         -1    1    3    3    0  502  0.30901193246E+03 -0.44403888494E+03 -0.98984914363E+03  0.11280337907E+04  0.00000000000E+00 0.  1.
         13    1    5    5    0    0 -0.30935006981E+02  0.12226878775E+02 -0.11613405426E+03  0.12080393114E+03  0.00000000000E+00 0. -1.
        -13    1    5    5    0    0 -0.38013209102E+03  0.57134437970E+03 -0.21300337007E+04  0.22378512848E+04  0.00000000000E+00 0.  1.
          3    1    6    6  503    0  0.25070935035E+02  0.11799042932E+02 -0.15787614943E+02  0.31890719390E+02  0.00000000000E+00 0. -1.
         -3    1    6    6    0  503 -0.71127873207E+02  0.15068001535E+03  0.30661433033E+02  0.16942185470E+03  0.00000000000E+00 0.  1.
<mgrwt>
<rscale>  0 0.21346036E+04</rscale>
<asrwt>0</asrwt>
<pdfrwt beam="1">  1        2 0.64433012E+00 0.21346036E+04</pdfrwt>
<pdfrwt beam="2">  1       -1 0.41844591E-01 0.21346036E+04</pdfrwt>
<totfact> 0.14098596E+00</totfact>
</mgrwt>
</event>
<event>
12    7  0.1497947E-008  0.2401303E+04  0.7818608E-02  0.8439016E-01
          2   -1    0    0  501    0  0.00000000000E+00  0.00000000000E+00  0.24975401265E+04  0.24975401265E+04  0.00000000000E+00 0. -1.
         -1   -1    0    0    0  501 -0.00000000000E+00 -0.00000000000E+00 -0.57719350241E+03  0.57719350241E+03  0.00000000000E+00 0.  1.
         24    2    1    2    0    0  0.10028585316E+04  0.12136869917E+03  0.52171986229E+03  0.11398598952E+04  0.81445505961E+02 0.  0.
        254    2    1    2    0    0 -0.10028585316E+04 -0.12136869917E+03  0.13986267618E+04  0.19348737337E+04  0.87585612455E+03 0.  0.
         23    2    4    4    0    0 -0.51766420530E+03 -0.48110203664E+03  0.62642412109E+03  0.94867132448E+03  0.90192590019E+02 0.  0.
         23    2    4    4    0    0 -0.48519432632E+03  0.35973333748E+03  0.77220264070E+03  0.98620240920E+03  0.10712919875E+03 0.  0.
          4    1    3    3  502    0  0.31199935704E+03  0.30320525094E+02  0.12091391707E+03  0.33598081549E+03  0.00000000000E+00 0. -1.
         -3    1    3    3    0  502  0.69085917458E+03  0.91048174072E+02  0.40080594523E+03  0.80387907973E+03  0.00000000000E+00 0.  1.
         13    1    5    5    0    0 -0.31253671161E+03 -0.23308325296E+03  0.32210579014E+03  0.50572634789E+03  0.00000000000E+00 0. -1.
        -13    1    5    5    0    0 -0.20512749369E+03 -0.24801878368E+03  0.30431833095E+03  0.44294497658E+03  0.00000000000E+00 0.  1.
          2    1    6    6  503    0 -0.25061892186E+03  0.24810406465E+03  0.41671689700E+03  0.54591065491E+03  0.00000000000E+00 0. -1.
         -2    1    6    6    0  503 -0.23457540446E+03  0.11162927282E+03  0.35548574370E+03  0.44029175430E+03  0.00000000000E+00 0.  1.
<mgrwt>
<rscale>  0 0.24013029E+04</rscale>
<asrwt>0</asrwt>
<pdfrwt beam="1">  1        2 0.38423694E+00 0.24013029E+04</pdfrwt>
<pdfrwt beam="2">  1       -1 0.88799001E-01 0.24013029E+04</pdfrwt>
<totfact> 0.44444149E+00</totfact>
</mgrwt>
</event>
<event>
12    7  0.1497947E-008  0.1750083E+04  0.7818608E-02  0.8733305E-01
          2   -1    0    0  501    0  0.00000000000E+00  0.00000000000E+00  0.14954537479E+04  0.14954537479E+04  0.00000000000E+00 0. -1.
         -1   -1    0    0    0  501 -0.00000000000E+00 -0.00000000000E+00 -0.51201667803E+03  0.51201667803E+03  0.00000000000E+00 0.  1.
         24    2    1    2    0    0 -0.29415334413E+03  0.42084821226E+03 -0.73193777251E+02  0.52447197206E+03  0.77936594874E+02 0.  0.
        254    2    1    2    0    0  0.29415334413E+03 -0.42084821226E+03  0.10566308471E+04  0.14829984539E+04  0.90508356491E+03 0.  0.
         23    2    4    4    0    0 -0.59137169336E+02  0.24382793249E+03  0.40150032811E+03  0.48231895782E+03  0.92085819428E+02 0.  0.
         23    2    4    4    0    0  0.35329051346E+03 -0.66467614475E+03  0.65513051903E+03  0.10006794961E+04  0.74531151676E+02 0.  0.
          2    1    3    3  502    0 -0.16482856949E+02  0.34295472498E+01 -0.88561671525E+01  0.19023092918E+02  0.00000000000E+00 0. -1.
         -1    1    3    3    0  502 -0.27767048718E+03  0.41741866501E+03 -0.64337610098E+02  0.50544887914E+03  0.00000000000E+00 0.  1.
         13    1    5    5    0    0 -0.58417860535E+02  0.24264800688E+03  0.40657028857E+03  0.47706404310E+03  0.00000000000E+00 0. -1.
        -13    1    5    5    0    0 -0.71930880079E+00  0.11799256174E+01 -0.50699604625E+01  0.52549147191E+01  0.00000000000E+00 0.  1.
          4    1    6    6  503    0  0.14498576671E+03 -0.28509798478E+03  0.32694647336E+03  0.45737919708E+03  0.00000000000E+00 0.  1.
         -4    1    6    6    0  503  0.20830474676E+03 -0.37957815997E+03  0.32818404566E+03  0.54330029898E+03  0.00000000000E+00 0. -1.
<mgrwt>
<rscale>  0 0.17500826E+04</rscale>
<asrwt>0</asrwt>
<pdfrwt beam="1">  1        2 0.23006981E+00 0.17500826E+04</pdfrwt>
<pdfrwt beam="2">  1       -1 0.78771797E-01 0.17500826E+04</pdfrwt>
<totfact> 0.22232822E+01</totfact>
</mgrwt>
</event>
<event>
12    7  0.1497947E-008  0.2363878E+04  0.7818608E-02  0.8453152E-01
          2   -1    0    0  501    0  0.00000000000E+00  0.00000000000E+00  0.25511683538E+04  0.25511683538E+04  0.00000000000E+00 0. -1.
         -1   -1    0    0    0  501 -0.00000000000E+00 -0.00000000000E+00 -0.54758449479E+03  0.54758449479E+03  0.00000000000E+00 0.  1.
         24    2    1    2    0    0 -0.23558557315E+03  0.36517983951E+02  0.21392281031E+04  0.21539943568E+04  0.80998064307E+02 0.  0.
        254    2    1    2    0    0  0.23558557315E+03 -0.36517983951E+02 -0.13564424405E+03  0.94475849186E+03  0.90406588343E+03 0.  0.
         23    2    4    4    0    0  0.48147120274E+03 -0.26894174930E+03 -0.17254409475E+03  0.58529100333E+03  0.93004894280E+02 0.  0.
         23    2    4    4    0    0 -0.24588562959E+03  0.23242376535E+03  0.36899850699E+02  0.35946748853E+03  0.11564915388E+03 0.  0.
          2    1    3    3  502    0 -0.23028309472E+03  0.17061847966E+02  0.19183930578E+04  0.19322404960E+04  0.00000000000E+00 0. -1.
         -1    1    3    3    0  502 -0.53024784335E+01  0.19456135985E+02  0.22083504534E+03  0.22175386074E+03  0.00000000000E+00 0.  1.
         13    1    5    5    0    0  0.97601894261E+02 -0.96835772939E+02 -0.26815301765E+02  0.14007982400E+03  0.00000000000E+00 0.  1.
        -13    1    5    5    0    0  0.38386930848E+03 -0.17210597636E+03 -0.14572879299E+03  0.44521117933E+03  0.00000000000E+00 0. -1.
          3    1    6    6  503    0 -0.74557197566E+01 -0.13083342242E+02 -0.12786191415E+01  0.15112791543E+02  0.00000000000E+00 0. -1.
         -3    1    6    6    0  503 -0.23842990983E+03  0.24550710759E+03  0.38178469840E+02  0.34435469699E+03  0.00000000000E+00 0.  1.
<mgrwt>
<rscale>  0 0.23638784E+04</rscale>
<asrwt>0</asrwt>
<pdfrwt beam="1">  1        2 0.39248743E+00 0.23638784E+04</pdfrwt>
<pdfrwt beam="2">  1       -1 0.84243770E-01 0.23638784E+04</pdfrwt>
<totfact> 0.46550193E+00</totfact>
</mgrwt>
</event>
<event>
11    7  0.1497947E-008  0.2136260E+04  0.7818608E-02  0.8545437E-01
         -1   -1    0    0    0  501 -0.00000000000E+00  0.00000000000E+00  0.99740963805E+03  0.99740963805E+03  0.00000000000E+00 0.  1.
          2   -1    0    0  501    0  0.00000000000E+00 -0.00000000000E+00 -0.11438642335E+04  0.11438642335E+04  0.00000000000E+00 0. -1.
         24    2    1    2    0    0  0.36037090439E+03  0.77960499948E+03  0.11096028139E+03  0.86980064914E+03  0.81177837174E+02 0.  0.
        254    2    1    2    0    0 -0.36037090439E+03 -0.77960499948E+03 -0.25741487681E+03  0.12714732224E+04  0.90151571948E+03 0.  0.
         23    2    4    4    0    0 -0.35155799664E+03 -0.55168198628E+03  0.17289850685E+03  0.68288672788E+03  0.92164800504E+02 0.  0.
          2    1    3    3  502    0  0.21629850328E+02  0.27629776556E+02  0.19100415220E+02  0.39950980455E+02  0.00000000000E+00 0. -1.
         -1    1    3    3    0  502  0.33874105406E+03  0.75197522293E+03  0.91859866168E+02  0.82984966869E+03  0.00000000000E+00 0.  1.
         13    1    5    5    0    0 -0.89052211019E+02 -0.10470215106E+03  0.33230816779E+01  0.13749138008E+03  0.00000000000E+00 0.  1.
        -13    1    5    5    0    0 -0.26250578562E+03 -0.44697983522E+03  0.16957542517E+03  0.54539534780E+03  0.00000000000E+00 0. -1.
          2    1    4    4  503    0 -0.69493880517E+02  0.48370528228E+02 -0.14849549555E+02  0.85962878921E+02  0.00000000000E+00 0.  1.
         -2    1    4    4    0  503  0.60680972763E+02 -0.27629354143E+03 -0.41546383410E+03  0.50262361558E+03  0.00000000000E+00 0. -1.
<mgrwt>
<rscale>  0 0.21362595E+04</rscale>
<asrwt>0</asrwt>
<pdfrwt beam="1">  1        2 0.17597911E+00 0.21362595E+04</pdfrwt>
<pdfrwt beam="2">  1       -1 0.15344764E+00 0.21362595E+04</pdfrwt>
<totfact> 0.70377238E+00</totfact>
</mgrwt>
</event>
<event>
12    7  0.1497947E-008  0.2177006E+04  0.7818608E-02  0.8528060E-01
         -1   -1    0    0    0  501 -0.00000000000E+00  0.00000000000E+00  0.63790211779E+03  0.63790211779E+03  0.00000000000E+00 0.  1.
          2   -1    0    0  501    0  0.00000000000E+00 -0.00000000000E+00 -0.18573987059E+04  0.18573987059E+04  0.00000000000E+00 0. -1.
         24    2    1    2    0    0  0.19047858725E+03 -0.22225285600E+03  0.47003426692E+03  0.55957321517E+03  0.80694156279E+02 0.  0.
        254    2    1    2    0    0 -0.19047858725E+03  0.22225285600E+03 -0.16895308550E+04  0.19357276085E+04  0.89824742699E+03 0.  0.
         23    2    4    4    0    0  0.13123174148E+03  0.37959291961E+02  0.39482210365E+02  0.16416225051E+03  0.82022690396E+02 0.  0.
         23    2    4    4    0    0 -0.32171032873E+03  0.18429356404E+03 -0.17290130654E+04  0.17715653580E+04  0.10721932675E+03 0.  0.
          2    1    3    3  502    0  0.11109067287E+03 -0.83234214465E+02  0.26785389382E+03  0.30168656001E+03  0.00000000000E+00 0. -1.
         -1    1    3    3    0  502  0.79387914387E+02 -0.13901864153E+03  0.20218037310E+03  0.25788665516E+03  0.00000000000E+00 0.  1.
         13    1    5    5    0    0  0.19314345867E+02  0.37372859437E+02 -0.75885789897E+01  0.42747644495E+02  0.00000000000E+00 0.  1.
        -13    1    5    5    0    0  0.11191739561E+03  0.58643252432E+00  0.47070789355E+02  0.12141460602E+03  0.00000000000E+00 0. -1.
          2    1    6    6  503    0 -0.28106225200E+03  0.12630951424E+03 -0.12540510044E+04  0.12913535552E+04  0.00000000000E+00 0. -1.
         -2    1    6    6    0  503 -0.40648076735E+02  0.57984049796E+02 -0.47496206103E+03  0.48021180285E+03  0.00000000000E+00 0.  1.
<mgrwt>
<rscale>  0 0.21770058E+04</rscale>
<asrwt>0</asrwt>
<pdfrwt beam="1">  1        2 0.28575364E+00 0.21770058E+04</pdfrwt>
<pdfrwt beam="2">  1       -1 0.98138789E-01 0.21770058E+04</pdfrwt>
<totfact> 0.83165773E+00</totfact>
</mgrwt>
</event>
<event>
12    7  0.1497947E-008  0.2807534E+04  0.7818608E-02  0.8300933E-01
         -1   -1    0    0    0  501 -0.00000000000E+00  0.00000000000E+00  0.79265085711E+03  0.79265085711E+03  0.00000000000E+00 0.  1.
          2   -1    0    0  501    0  0.00000000000E+00 -0.00000000000E+00 -0.24860402461E+04  0.24860402461E+04  0.00000000000E+00 0. -1.
         24    2    1    2    0    0  0.48248057039E+03  0.32539469941E+03 -0.20622717188E+04  0.21442964278E+04  0.79833055491E+02 0.  0.
        254    2    1    2    0    0 -0.48248057039E+03 -0.32539469941E+03  0.36888232987E+03  0.11343946754E+04  0.90117029192E+03 0.  0.
         23    2    4    4    0    0  0.93386873823E+02  0.11016284690E+03  0.36614248403E+03  0.40393170971E+03  0.90793978097E+02 0.  0.
         23    2    4    4    0    0 -0.57586744421E+03 -0.43555754631E+03  0.27398458413E+01  0.73046296567E+03  0.11061169924E+03 0.  0.
          4    1    3    3  502    0  0.37614243106E+03  0.28037306212E+03 -0.17323094646E+04  0.17947111922E+04  0.00000000000E+00 0. -1.
         -3    1    3    3    0  502  0.10633813933E+03  0.45021637296E+02 -0.32996225425E+03  0.34958523558E+03  0.00000000000E+00 0.  1.
         13    1    5    5    0    0  0.10981448451E+03  0.10487055971E+03  0.30991488222E+03  0.34511489322E+03  0.00000000000E+00 0. -1.
        -13    1    5    5    0    0 -0.16427610688E+02  0.52922871932E+01  0.56227601808E+02  0.58816816487E+02  0.00000000000E+00 0.  1.
          1    1    6    6  503    0 -0.12947599567E+03 -0.11922312724E+03  0.45160863936E+02  0.18170770802E+03  0.00000000000E+00 0. -1.
         -1    1    6    6    0  503 -0.44639144854E+03 -0.31633441908E+03 -0.42421018095E+02  0.54875525765E+03  0.00000000000E+00 0.  1.
<mgrwt>
<rscale>  0 0.28075341E+04</rscale>
<asrwt>0</asrwt>
<pdfrwt beam="1">  1        2 0.38246773E+00 0.28075341E+04</pdfrwt>
<pdfrwt beam="2">  1       -1 0.12194629E+00 0.28075341E+04</pdfrwt>
<totfact> 0.20858989E+00</totfact>
</mgrwt>
</event>
<event>
12    7  0.1497947E-008  0.1278567E+04  0.7818608E-02  0.9046736E-01
          2   -1    0    0  501    0  0.00000000000E+00  0.00000000000E+00  0.20344718194E+04  0.20344718194E+04  0.00000000000E+00 0. -1.
         -1   -1    0    0    0  501 -0.00000000000E+00 -0.00000000000E+00 -0.20087939584E+03  0.20087939584E+03  0.00000000000E+00 0.  1.
         24    2    1    2    0    0  0.19309299873E+03 -0.23427579172E+03  0.37415907081E+03  0.49031679036E+03  0.90804690926E+02 0.  0.
        254    2    1    2    0    0 -0.19309299873E+03  0.23427579172E+03  0.14594333527E+04  0.17450344248E+04  0.90720966712E+03 0.  0.
         23    2    4    4    0    0 -0.99448495167E+02  0.72551959517E+02  0.15135904118E+04  0.15213535478E+04  0.91689109537E+02 0.  0.
         23    2    4    4    0    0 -0.93644503561E+02  0.16172383221E+03 -0.54157059094E+02  0.22368087699E+03  0.11034607711E+03 0.  0.
          2    1    3    3  502    0  0.48423714696E+02 -0.42364265483E+02  0.14323755982E+03  0.15702415635E+03  0.00000000000E+00 0. -1.
         -1    1    3    3    0  502  0.14466928403E+03 -0.19191152624E+03  0.23092151099E+03  0.33329263401E+03  0.00000000000E+00 0.  1.
         13    1    5    5    0    0 -0.96943359362E+02  0.89983012216E+02  0.14179206690E+04  0.14240765362E+04  0.00000000000E+00 0. -1.
        -13    1    5    5    0    0 -0.25051358054E+01 -0.17431052698E+02  0.95669742776E+02  0.97277011603E+02  0.00000000000E+00 0.  1.
          2    1    6    6  503    0 -0.97595300056E+02  0.11882986205E+03 -0.80114422777E+02  0.17338886771E+03  0.00000000000E+00 0. -1.
         -2    1    6    6    0  503  0.39507964946E+01  0.42893970158E+02  0.25957363684E+02  0.50292009288E+02  0.00000000000E+00 0.  1.
<mgrwt>
<rscale>  0 0.12785671E+04</rscale>
<asrwt>0</asrwt>
<pdfrwt beam="1">  1        2 0.31299565E+00 0.12785671E+04</pdfrwt>
<pdfrwt beam="2">  1       -1 0.30904524E-01 0.12785671E+04</pdfrwt>
<totfact> 0.69295483E+01</totfact>
</mgrwt>
</event>
<event>
11    7  0.1497947E-008  0.1295388E+04  0.7818608E-02  0.9033230E-01
         -1   -1    0    0    0  501 -0.00000000000E+00  0.00000000000E+00  0.28281689522E+03  0.28281689522E+03  0.00000000000E+00 0.  1.
          2   -1    0    0  501    0  0.00000000000E+00 -0.00000000000E+00 -0.14833192996E+04  0.14833192996E+04  0.00000000000E+00 0. -1.
         24    2    1    2    0    0  0.13539855583E+03  0.20692292793E+03 -0.14534720436E+02  0.26008311050E+03  0.79259694943E+02 0.  0.
        254    2    1    2    0    0 -0.13539855583E+03 -0.20692292793E+03 -0.11859676840E+04  0.15060530844E+04  0.89472156477E+03 0.  0.
         23    2    4    4    0    0 -0.60653505642E+02 -0.43830122248E+03 -0.22865645238E+03  0.50648520577E+03  0.91960214577E+02 0.  0.
          2    1    3    3  502    0  0.14302291101E+02  0.35162444027E+02  0.26056031549E+02  0.46042043621E+02  0.00000000000E+00 0. -1.
         -3    1    3    3    0  502  0.12109626473E+03  0.17176048390E+03 -0.40590751984E+02  0.21404106688E+03  0.00000000000E+00 0.  1.
         13    1    5    5    0    0 -0.82753559097E+02 -0.29705473339E+03 -0.14395517056E+03  0.34031273456E+03  0.00000000000E+00 0. -1.
        -13    1    5    5    0    0  0.22100053455E+02 -0.14124648910E+03 -0.84701281823E+02  0.16617247121E+03  0.00000000000E+00 0.  1.
          3    1    4    4  503    0  0.15768257528E+02  0.10411293972E+03 -0.60639546817E+03  0.61547023160E+03  0.00000000000E+00 0. -1.
         -3    1    4    4    0  503 -0.90513307717E+02  0.12726535484E+03 -0.35091576343E+03  0.38409764701E+03  0.00000000000E+00 0.  1.
<mgrwt>
<rscale>  0 0.12953884E+04</rscale>
<asrwt>0</asrwt>
<pdfrwt beam="1">  1        2 0.22820297E+00 0.12953884E+04</pdfrwt>
<pdfrwt beam="2">  1       -1 0.43510291E-01 0.12953884E+04</pdfrwt>
<totfact> 0.75558470E+01</totfact>
</mgrwt>
</event>
<event>
11    7  0.1497947E-008  0.2325308E+04  0.7818608E-02  0.8468009E-01
         -1   -1    0    0    0  501 -0.00000000000E+00  0.00000000000E+00  0.68237804916E+03  0.68237804916E+03  0.00000000000E+00 0.  1.
          2   -1    0    0  501    0  0.00000000000E+00 -0.00000000000E+00 -0.19809618602E+04  0.19809618602E+04  0.00000000000E+00 0. -1.
         24    2    1    2    0    0 -0.95387044428E+03  0.13079166561E+03 -0.79789904056E+03  0.12530379827E+04  0.80535848933E+02 0.  0.
        254    2    1    2    0    0  0.95387044428E+03 -0.13079166561E+03 -0.50068477048E+03  0.14103019266E+04  0.90071693702E+03 0.  0.
         23    2    4    4    0    0  0.30352308680E+03 -0.13051904930E+03  0.23088616248E+03  0.41356085515E+03  0.92534720182E+02 0.  0.
          4    1    3    3  502    0 -0.16943678568E+03  0.30709885033E+02 -0.18329805661E+03  0.25149572349E+03  0.00000000000E+00 0. -1.
         -3    1    3    3    0  502 -0.78443365860E+03  0.10008178058E+03 -0.61460098395E+03  0.10015422592E+04  0.00000000000E+00 0.  1.
         13    1    5    5    0    0  0.24617351525E+03 -0.72774601355E+02  0.20386330544E+03  0.32780754952E+03  0.00000000000E+00 0.  1.
        -13    1    5    5    0    0  0.57349571546E+02 -0.57744447945E+02  0.27022857041E+02  0.85753305637E+02  0.00000000000E+00 0. -1.
          1    1    4    4  503    0  0.58258884648E+02  0.53784287063E+02 -0.57592390908E+02  0.97998625836E+02  0.00000000000E+00 0. -1.
         -1    1    4    4    0  503  0.59208847283E+03 -0.54056903377E+02 -0.67397854205E+03  0.89874244565E+03  0.00000000000E+00 0.  1.
<mgrwt>
<rscale>  0 0.23253085E+04</rscale>
<asrwt>0</asrwt>
<pdfrwt beam="1">  1        2 0.30476336E+00 0.23253085E+04</pdfrwt>
<pdfrwt beam="2">  1       -1 0.10498124E+00 0.23253085E+04</pdfrwt>
<totfact> 0.60037676E+00</totfact>
</mgrwt>
</event>
<event>
11    7  0.1497947E-008  0.3191283E+04  0.7818608E-02  0.8191123E-01
         -1   -1    0    0    0  501 -0.00000000000E+00  0.00000000000E+00  0.17156101289E+04  0.17156101289E+04  0.00000000000E+00 0.  1.
          2   -1    0    0  501    0  0.00000000000E+00 -0.00000000000E+00 -0.14840621253E+04  0.14840621253E+04  0.00000000000E+00 0. -1.
         24    2    1    2    0    0 -0.14815528692E+03 -0.13953491214E+04 -0.32798329842E+03  0.14431715824E+04  0.78879733542E+02 0.  0.
        254    2    1    2    0    0  0.14815528692E+03  0.13953491214E+04  0.55953130197E+03  0.17565006718E+04  0.89625340866E+03 0.  0.
         23    2    4    4    0    0 -0.20697533008E+03  0.14400642908E+03 -0.75268703982E+02  0.27886784430E+03  0.92332323208E+02 0.  0.
          4    1    3    3  502    0 -0.37864585504E+01 -0.99968178402E+02 -0.40578499746E+01  0.10012212596E+03  0.00000000000E+00 0. -1.
         -3    1    3    3    0  502 -0.14436882837E+03 -0.12953809430E+04 -0.32392544844E+03  0.13430494564E+04  0.00000000000E+00 0.  1.
         13    1    5    5    0    0 -0.53871543547E+02  0.90015401167E+02 -0.42847965373E+02  0.11331753522E+03  0.00000000000E+00 0. -1.
        -13    1    5    5    0    0 -0.15310378653E+03  0.53991027912E+02 -0.32420738609E+02  0.16555030909E+03  0.00000000000E+00 0.  1.
          1    1    4    4  503    0  0.10766188262E+03  0.17853439255E+03  0.21458214828E+03  0.29918407152E+03  0.00000000000E+00 0. -1.
         -1    1    4    4    0  503  0.24746873438E+03  0.10728082998E+04  0.42021785768E+03  0.11784487560E+04  0.00000000000E+00 0.  1.
<mgrwt>
<rscale>  0 0.31912831E+04</rscale>
<asrwt>0</asrwt>
<pdfrwt beam="1">  1        2 0.22831725E+00 0.31912831E+04</pdfrwt>
<pdfrwt beam="2">  1       -1 0.26394002E+00 0.31912831E+04</pdfrwt>
<totfact> 0.70336522E-01</totfact>
</mgrwt>
</event>
<event>
12    7  0.1497947E-008  0.1491826E+04  0.7818608E-02  0.8889906E-01
          2   -1    0    0  501    0  0.00000000000E+00  0.00000000000E+00  0.42718422995E+04  0.42718422995E+04  0.00000000000E+00 0. -1.
         -1   -1    0    0    0  501 -0.00000000000E+00 -0.00000000000E+00 -0.13024510533E+03  0.13024510533E+03  0.00000000000E+00 0.  1.
         24    2    1    2    0    0  0.56261323729E+02 -0.13514390101E+03  0.35034012246E+01  0.16723978813E+03  0.80793950182E+02 0.  0.
        254    2    1    2    0    0 -0.56261323729E+02  0.13514390101E+03  0.41380937930E+04  0.42348476167E+04  0.88807932464E+03 0.  0.
         23    2    4    4    0    0 -0.31037775835E+03 -0.50220252762E+02  0.34955628620E+04  0.35108431300E+04  0.90572262271E+02 0.  0.
         23    2    4    4    0    0  0.25411643463E+03  0.18536415377E+03  0.64253093099E+03  0.72400448673E+03  0.11136187708E+03 0.  0.
          4    1    3    3  502    0  0.47190949065E+02 -0.47440963169E+02 -0.29454178086E+02  0.73110732911E+02  0.00000000000E+00 0. -1.
         -3    1    3    3    0  502  0.90703746636E+01 -0.87702937842E+02  0.32957579311E+02  0.94129055221E+02  0.00000000000E+00 0.  1.
         13    1    5    5    0    0 -0.56517944518E+02 -0.30292240208E+02  0.10783091408E+04  0.10802140996E+04  0.00000000000E+00 0.  1.
        -13    1    5    5    0    0 -0.25385981384E+03 -0.19928012554E+02  0.24172537211E+04  0.24306290303E+04  0.00000000000E+00 0. -1.
          1    1    6    6  503    0  0.21926505060E+03  0.10211145590E+03  0.49754479832E+03  0.55322214179E+03  0.00000000000E+00 0. -1.
         -1    1    6    6    0  503  0.34851384027E+02  0.83252697877E+02  0.14498613268E+03  0.17078234493E+03  0.00000000000E+00 0.  1.
<mgrwt>
<rscale>  0 0.14918265E+04</rscale>
<asrwt>0</asrwt>
<pdfrwt beam="1">  1        2 0.65720640E+00 0.14918265E+04</pdfrwt>
<pdfrwt beam="2">  1       -1 0.20037712E-01 0.14918265E+04</pdfrwt>
<totfact> 0.46515954E+00</totfact>
</mgrwt>
</event>
<event>
11    7  0.1497947E-008  0.2954958E+04  0.7818608E-02  0.8256711E-01
         -1   -1    0    0    0  501 -0.00000000000E+00  0.00000000000E+00  0.76140509333E+03  0.76140509333E+03  0.00000000000E+00 0.  1.
          2   -1    0    0  501    0  0.00000000000E+00 -0.00000000000E+00 -0.28669942602E+04  0.28669942602E+04  0.00000000000E+00 0. -1.
         24    2    1    2    0    0  0.84529935498E+03  0.60845173426E+03 -0.19946707945E+04  0.22516756710E+04  0.81161792340E+02 0.  0.
        254    2    1    2    0    0 -0.84529935498E+03 -0.60845173426E+03 -0.11091837241E+03  0.13767236826E+04  0.89348794078E+03 0.  0.
         23    2    4    4    0    0 -0.87467229128E+03 -0.60866526226E+03  0.14008907969E+03  0.10786416057E+04  0.91201670248E+02 0.  0.
          2    1    3    3  502    0  0.72570833010E+03  0.53878256200E+03 -0.17784923776E+04  0.19949873099E+04  0.00000000000E+00 0. -1.
         -1    1    3    3    0  502  0.11959102488E+03  0.69669172262E+02 -0.21617841691E+03  0.25668836111E+03  0.00000000000E+00 0.  1.
         13    1    5    5    0    0 -0.77286239327E+03 -0.52578993649E+03  0.15115316641E+03  0.94689947511E+03  0.00000000000E+00 0. -1.
        -13    1    5    5    0    0 -0.10180989801E+03 -0.82875325767E+02 -0.11064086723E+02  0.13174213058E+03  0.00000000000E+00 0.  1.
          1    1    4    4  503    0  0.58170230997E+02 -0.56588233371E+02 -0.73480188116E+02  0.10947758664E+03  0.00000000000E+00 0. -1.
         -1    1    4    4    0  503 -0.28797294688E+02  0.56801761369E+02 -0.17752726398E+03  0.18860449023E+03  0.00000000000E+00 0.  1.
<mgrwt>
<rscale>  0 0.29549579E+04</rscale>
<asrwt>0</asrwt>
<pdfrwt beam="1">  1        2 0.44107604E+00 0.29549579E+04</pdfrwt>
<pdfrwt beam="2">  1       -1 0.11713925E+00 0.29549579E+04</pdfrwt>
<totfact> 0.13487588E+00</totfact>
</mgrwt>
</event>
<event>
12    7  0.1497947E-008  0.2454710E+04  0.7818608E-02  0.8419300E-01
          2   -1    0    0  501    0  0.00000000000E+00  0.00000000000E+00  0.14762755917E+04  0.14762755917E+04  0.00000000000E+00 0. -1.
         -1   -1    0    0    0  501 -0.00000000000E+00 -0.00000000000E+00 -0.10204055828E+04  0.10204055828E+04  0.00000000000E+00 0.  1.
         24    2    1    2    0    0 -0.10976467472E+03 -0.67239807956E+03 -0.63141411082E+03  0.93233686723E+03  0.80004958928E+02 0.  0.
        254    2    1    2    0    0  0.10976467472E+03  0.67239807956E+03  0.10872841197E+04  0.15643443073E+04  0.89488484926E+03 0.  0.
         23    2    4    4    0    0  0.47191800692E+02  0.34345553358E+03 -0.57404907045E+02  0.36497756722E+03  0.98613039835E+02 0.  0.
         23    2    4    4    0    0  0.62572874025E+02  0.32894254598E+03  0.11446890268E+04  0.11993667400E+04  0.12668482929E+03 0.  0.
          2    1    3    3  502    0 -0.73743557569E+02 -0.31954884345E+03 -0.34943630704E+03  0.47922365166E+03  0.00000000000E+00 0. -1.
         -1    1    3    3    0  502 -0.36021117148E+02 -0.35284923611E+03 -0.28197780378E+03  0.45311321557E+03  0.00000000000E+00 0.  1.
         13    1    5    5    0    0  0.60929811482E+02  0.23454240190E+03 -0.75289712026E+02  0.25375405604E+03  0.00000000000E+00 0. -1.
        -13    1    5    5    0    0 -0.13738010790E+02  0.10891313167E+03  0.17884804981E+02  0.11122351119E+03  0.00000000000E+00 0.  1.
          2    1    6    6  503    0  0.45480357201E+02  0.23347679927E+02  0.19397053760E+03  0.20059448274E+03  0.00000000000E+00 0. -1.
         -2    1    6    6    0  503  0.17092516823E+02  0.30559486605E+03  0.95071848917E+03  0.99877225730E+03  0.00000000000E+00 0.  1.
<mgrwt>
<rscale>  0 0.24547096E+04</rscale>
<asrwt>0</asrwt>
<pdfrwt beam="1">  1        2 0.22711932E+00 0.24547096E+04</pdfrwt>
<pdfrwt beam="2">  1       -1 0.15698547E+00 0.24547096E+04</pdfrwt>
<totfact> 0.41137106E+00</totfact>
</mgrwt>
</event>
<event>
12    7  0.1497947E-008  0.1601265E+04  0.7818608E-02  0.8819772E-01
         -1   -1    0    0    0  501 -0.00000000000E+00  0.00000000000E+00  0.14511342012E+04  0.14511342012E+04  0.00000000000E+00 0.  1.
          2   -1    0    0  501    0  0.00000000000E+00 -0.00000000000E+00 -0.44173172081E+03  0.44173172081E+03  0.00000000000E+00 0. -1.
         24    2    1    2    0    0 -0.40758942807E+03  0.38141306613E+03  0.22487211765E+03  0.60682304809E+03  0.77856749934E+02 0.  0.
        254    2    1    2    0    0  0.40758942807E+03 -0.38141306613E+03  0.78453036271E+03  0.12860428739E+04  0.85253346829E+03 0.  0.
         23    2    4    4    0    0  0.16336372891E+03 -0.42929512773E+03  0.88214852578E+03  0.99884280136E+03  0.92297918021E+02 0.  0.
         23    2    4    4    0    0  0.24422569917E+03  0.47882061602E+02 -0.97618163071E+02  0.28720007252E+03  0.10495566654E+03 0.  0.
          4    1    3    3  502    0 -0.28085434858E+03  0.25931395335E+03  0.11428681256E+03  0.39897915615E+03  0.00000000000E+00 0. -1.
         -3    1    3    3    0  502 -0.12673507950E+03  0.12209911278E+03  0.11058530509E+03  0.20784389195E+03  0.00000000000E+00 0.  1.
         13    1    5    5    0    0  0.75887581798E+02 -0.30113952369E+03  0.53514442619E+03  0.61872731852E+03  0.00000000000E+00 0. -1.
        -13    1    5    5    0    0  0.87476147110E+02 -0.12815560403E+03  0.34700409959E+03  0.38011548284E+03  0.00000000000E+00 0.  1.
          1    1    6    6  503    0  0.20430704290E+03  0.65744820230E+02 -0.45914066145E+02  0.21948086622E+03  0.00000000000E+00 0. -1.
         -1    1    6    6    0  503  0.39918656268E+02 -0.17862758628E+02 -0.51704096926E+02  0.67719206308E+02  0.00000000000E+00 0.  1.
<mgrwt>
<rscale>  0 0.16012645E+04</rscale>
<asrwt>0</asrwt>
<pdfrwt beam="1">  1        2 0.67958727E-01 0.16012645E+04</pdfrwt>
<pdfrwt beam="2">  1       -1 0.22325141E+00 0.16012645E+04</pdfrwt>
<totfact> 0.81528106E+00</totfact>
</mgrwt>
</event>
<event>
12    7  0.1497947E-008  0.1693156E+04  0.7818608E-02  0.8765277E-01
         -1   -1    0    0    0  501 -0.00000000000E+00  0.00000000000E+00  0.14484777532E+04  0.14484777532E+04  0.00000000000E+00 0.  1.
          2   -1    0    0  501    0  0.00000000000E+00 -0.00000000000E+00 -0.49479149488E+03  0.49479149488E+03  0.00000000000E+00 0. -1.
         24    2    1    2    0    0 -0.11206330706E+03 -0.16617336657E+03 -0.31462865588E+03  0.38107366279E+03  0.77808565252E+02 0.  0.
        254    2    1    2    0    0  0.11206330706E+03  0.16617336657E+03  0.12683149142E+04  0.15621955853E+04  0.88975308516E+03 0.  0.
         23    2    4    4    0    0  0.89385113957E+02  0.52434382602E+03  0.82534420963E+03  0.98703994338E+03  0.10064113956E+03 0.  0.
         23    2    4    4    0    0  0.22678193099E+02 -0.35817045945E+03  0.44297070455E+03  0.57515564189E+03  0.76030183784E+02 0.  0.
          2    1    3    3  502    0 -0.10679131648E+03 -0.10705988669E+03 -0.18832307510E+03  0.24151974087E+03  0.00000000000E+00 0. -1.
         -1    1    3    3    0  502 -0.52719905783E+01 -0.59113479880E+02 -0.12630558078E+03  0.13955392193E+03  0.00000000000E+00 0.  1.
         13    1    5    5    0    0  0.33371631857E+01  0.59212361848E+02  0.44698503831E+02  0.74264370316E+02  0.00000000000E+00 0. -1.
        -13    1    5    5    0    0  0.86047950771E+02  0.46513146417E+03  0.78064570580E+03  0.91277557306E+03  0.00000000000E+00 0.  1.
          1    1    6    6  503    0  0.73591585370E+01 -0.27237366311E+03  0.28214975135E+03  0.39223723913E+03  0.00000000000E+00 0.  1.
         -1    1    6    6    0  503  0.15319034563E+02 -0.85796796331E+02  0.16082095319E+03  0.18291840276E+03  0.00000000000E+00 0. -1.
<mgrwt>
<rscale>  0 0.16931562E+04</rscale>
<asrwt>0</asrwt>
<pdfrwt beam="1">  1        2 0.76121769E-01 0.16931562E+04</pdfrwt>
<pdfrwt beam="2">  1       -1 0.22284273E+00 0.16931562E+04</pdfrwt>
<totfact> 0.71443516E+00</totfact>
</mgrwt>
</event>
<event>
12    7  0.1497947E-008  0.1606441E+04  0.7818608E-02  0.8816601E-01
          2   -1    0    0  501    0  0.00000000000E+00  0.00000000000E+00  0.39660605376E+04  0.39660605376E+04  0.00000000000E+00 0. -1.
         -3   -1    0    0    0  501 -0.00000000000E+00 -0.00000000000E+00 -0.16267101956E+03  0.16267101956E+03  0.00000000000E+00 0.  1.
         24    2    1    2    0    0  0.27486591382E+03  0.31661496737E+03  0.40714650975E+03  0.58997565927E+03  0.80664056288E+02 0.  0.
        254    2    1    2    0    0 -0.27486591382E+03 -0.31661496737E+03  0.33962430083E+04  0.35387558979E+04  0.90140469568E+03 0.  0.
         23    2    4    4    0    0  0.21891088575E+03 -0.19521463711E+02  0.27857154292E+03  0.36652411822E+03  0.91840956378E+02 0.  0.
         23    2    4    4    0    0 -0.49377679957E+03 -0.29709350366E+03  0.31176714653E+04  0.31722317797E+04  0.10535188794E+03 0.  0.
          2    1    3    3  502    0  0.70074915505E+02  0.72400421811E+02  0.14879569372E+03  0.17970106659E+03  0.00000000000E+00 0. -1.
         -1    1    3    3    0  502  0.20479099832E+03  0.24421454556E+03  0.25835081603E+03  0.41027459268E+03  0.00000000000E+00 0.  1.
         13    1    5    5    0    0  0.41196534621E+02  0.25362662683E+02  0.27447538002E+02  0.55621816453E+02  0.00000000000E+00 0.  1.
        -13    1    5    5    0    0  0.17771435113E+03 -0.44884126394E+02  0.25112400491E+03  0.31090230176E+03  0.00000000000E+00 0. -1.
          4    1    6    6  503    0 -0.26787451974E+03 -0.10837109834E+03  0.16905947217E+04  0.17151126978E+04  0.00000000000E+00 0. -1.
         -4    1    6    6    0  503 -0.22590227983E+03 -0.18872240532E+03  0.14270767437E+04  0.14571190818E+04  0.00000000000E+00 0.  1.
<mgrwt>
<rscale>  0 0.16064409E+04</rscale>
<asrwt>0</asrwt>
<pdfrwt beam="1">  1        2 0.61016309E+00 0.16064409E+04</pdfrwt>
<pdfrwt beam="2">  1       -3 0.25026314E-01 0.16064409E+04</pdfrwt>
<totfact> 0.35451131E+00</totfact>
</mgrwt>
</event>
<event>
11    7  0.1497947E-008  0.1881602E+04  0.7818608E-02  0.8664069E-01
          2   -1    0    0  501    0  0.00000000000E+00  0.00000000000E+00  0.11862998163E+04  0.11862998163E+04  0.00000000000E+00 0. -1.
         -3   -1    0    0    0  501 -0.00000000000E+00 -0.00000000000E+00 -0.74610688994E+03  0.74610688994E+03  0.00000000000E+00 0.  1.
         24    2    1    2    0    0  0.45708153723E+03 -0.75751825026E+02  0.73645595331E+03  0.87380972541E+03  0.80710559315E+02 0.  0.
        254    2    1    2    0    0 -0.45708153723E+03  0.75751825026E+02 -0.29626302696E+03  0.10585969808E+04  0.90454072103E+03 0.  0.
         23    2    4    4    0    0 -0.58504731412E+03 -0.15283361122E+03 -0.39303509455E+03  0.72693298820E+03  0.91194908310E+02 0.  0.
          4    1    3    3  502    0  0.39600477068E+03 -0.91667541058E+02  0.65296640290E+03  0.76914747598E+03  0.00000000000E+00 0. -1.
         -3    1    3    3    0  502  0.61076766548E+02  0.15915716032E+02  0.83489550415E+02  0.10466224944E+03  0.00000000000E+00 0.  1.
         13    1    5    5    0    0 -0.19518801522E+03 -0.93867357320E+02 -0.15536766021E+03  0.26654934233E+03  0.00000000000E+00 0.  1.
        -13    1    5    5    0    0 -0.38985929890E+03 -0.58966253898E+02 -0.23766743434E+03  0.46038364587E+03  0.00000000000E+00 0. -1.
          3    1    4    4  503    0  0.71653584722E+02  0.99355928701E+01  0.76003243492E+02  0.10492590352E+03  0.00000000000E+00 0. -1.
         -3    1    4    4    0  503  0.56312192169E+02  0.21864984337E+03  0.20768824104E+02  0.22673808910E+03  0.00000000000E+00 0.  1.
<mgrwt>
<rscale>  0 0.18816019E+04</rscale>
<asrwt>0</asrwt>
<pdfrwt beam="1">  1        2 0.18250766E+00 0.18816019E+04</pdfrwt>
<pdfrwt beam="2">  1       -3 0.11478568E+00 0.18816019E+04</pdfrwt>
<totfact> 0.72289392E+00</totfact>
</mgrwt>
</event>
<event>
12    7  0.1497947E-008  0.1438840E+04  0.7818608E-02  0.8926174E-01
          2   -1    0    0  501    0  0.00000000000E+00  0.00000000000E+00  0.78461449313E+03  0.78461449313E+03  0.00000000000E+00 0. -1.
         -1   -1    0    0    0  501 -0.00000000000E+00 -0.00000000000E+00 -0.65964227824E+03  0.65964227824E+03  0.00000000000E+00 0.  1.
         24    2    1    2    0    0 -0.82500217475E+02 -0.10781327285E+03 -0.37498279781E+03  0.40641635961E+03  0.78308179755E+02 0.  0.
        254    2    1    2    0    0  0.82500217475E+02  0.10781327285E+03  0.49995501270E+03  0.10378404118E+04  0.89929289883E+03 0.  0.
         23    2    4    4    0    0 -0.10452440410E+03  0.23737621890E+03 -0.16694877241E+03  0.32171044021E+03  0.91394170393E+02 0.  0.
         23    2    4    4    0    0  0.18702462158E+03 -0.12956294605E+03  0.66690378511E+03  0.71612997155E+03  0.12773688387E+03 0.  0.
          4    1    3    3  502    0  0.12900928896E+02 -0.13010964598E+02 -0.82236625242E+02  0.84253081233E+02  0.00000000000E+00 0. -1.
         -3    1    3    3    0  502 -0.95401146371E+02 -0.94802308255E+02 -0.29274617257E+03  0.32216327837E+03  0.00000000000E+00 0.  1.
         13    1    5    5    0    0 -0.11580561894E+03  0.22212397477E+03 -0.16966002595E+03  0.30254673350E+03  0.00000000000E+00 0. -1.
        -13    1    5    5    0    0  0.11281214835E+02  0.15252244134E+02  0.27112535469E+01  0.19163706715E+02  0.00000000000E+00 0.  1.
          2    1    6    6  503    0  0.16512398313E+03 -0.59635054248E+02  0.35902905453E+03  0.39965501561E+03  0.00000000000E+00 0.  1.
         -2    1    6    6    0  503  0.21900638448E+02 -0.69927891800E+02  0.30787473057E+03  0.31647495595E+03  0.00000000000E+00 0. -1.
<mgrwt>
<rscale>  0 0.14388397E+04</rscale>
<asrwt>0</asrwt>
<pdfrwt beam="1">  1        2 0.12070992E+00 0.14388397E+04</pdfrwt>
<pdfrwt beam="2">  1       -1 0.10148343E+00 0.14388397E+04</pdfrwt>
<totfact> 0.36104484E+01</totfact>
</mgrwt>
</event>
<event>
11    7  0.1497947E-008  0.1919864E+04  0.7818608E-02  0.8645031E-01
          2   -1    0    0  501    0  0.00000000000E+00  0.00000000000E+00  0.16353639598E+04  0.16353639598E+04  0.00000000000E+00 0. -1.
         -1   -1    0    0    0  501 -0.00000000000E+00 -0.00000000000E+00 -0.56346466012E+03  0.56346466012E+03  0.00000000000E+00 0.  1.
         24    2    1    2    0    0 -0.66119282613E+03  0.33563283419E+03  0.53016567642E+03  0.91513225855E+03  0.81031188355E+02 0.  0.
        254    2    1    2    0    0  0.66119282613E+03 -0.33563283419E+03  0.54173362324E+03  0.12836963614E+04  0.89698142506E+03 0.  0.
         23    2    4    4    0    0 -0.16516420463E+03 -0.19100037616E+03  0.20769783825E+03  0.33929178281E+03  0.90665118352E+02 0.  0.
          2    1    3    3  502    0 -0.65752102533E+03  0.33585865234E+03  0.53289138400E+03  0.91055376571E+03  0.00000000000E+00 0. -1.
         -1    1    3    3    0  502 -0.36718007967E+01 -0.22581815031E+00 -0.27257075813E+01  0.45784928466E+01  0.00000000000E+00 0.  1.
         13    1    5    5    0    0 -0.14498366580E+02 -0.20100821013E+00 -0.59188746500E+01  0.15661293526E+02  0.00000000000E+00 0. -1.
        -13    1    5    5    0    0 -0.15066583805E+03 -0.19079936795E+03  0.21361671290E+03  0.32363048929E+03  0.00000000000E+00 0.  1.
          4    1    4    4  503    0  0.10490396439E+03  0.70852905216E+02  0.80040186139E+02  0.14977118321E+03  0.00000000000E+00 0. -1.
         -4    1    4    4    0  503  0.72145306637E+03 -0.21548536324E+03  0.25399559885E+03  0.79463339533E+03  0.00000000000E+00 0.  1.
<mgrwt>
<rscale>  0 0.19198644E+04</rscale>
<asrwt>0</asrwt>
<pdfrwt beam="1">  1        2 0.25159445E+00 0.19198644E+04</pdfrwt>
<pdfrwt beam="2">  1       -1 0.86686872E-01 0.19198644E+04</pdfrwt>
<totfact> 0.14887516E+01</totfact>
</mgrwt>
</event>
<event>
12    7  0.1497947E-008  0.1146833E+04  0.7818608E-02  0.9160710E-01
         -1   -1    0    0    0  501 -0.00000000000E+00  0.00000000000E+00  0.21659908078E+03  0.21659908078E+03  0.00000000000E+00 0.  1.
          2   -1    0    0  501    0  0.00000000000E+00 -0.00000000000E+00 -0.15180416955E+04  0.15180416955E+04  0.00000000000E+00 0. -1.
         24    2    1    2    0    0 -0.17340137208E+03 -0.50548085146E+02 -0.91677998223E+02  0.21961099404E+03  0.84858638873E+02 0.  0.
        254    2    1    2    0    0  0.17340137208E+03  0.50548085146E+02 -0.12097646165E+04  0.15150297822E+04  0.89395842687E+03 0.  0.
         23    2    4    4    0    0  0.16209898833E+03 -0.37593603916E+03 -0.84415944615E+03  0.94262165098E+03  0.91249212635E+02 0.  0.
         23    2    4    4    0    0  0.11302383752E+02  0.42648412430E+03 -0.36560517030E+03  0.57240813122E+03  0.10939595960E+03 0.  0.
          4    1    3    3  502    0 -0.87910955822E+02 -0.12714458603E+02 -0.89502215216E+02  0.12609774042E+03  0.00000000000E+00 0. -1.
         -3    1    3    3    0  502 -0.85490416259E+02 -0.37833626542E+02 -0.21757830074E+01  0.93513253613E+02  0.00000000000E+00 0.  1.
         13    1    5    5    0    0  0.10177399242E+03 -0.31057672882E+03 -0.60812603811E+03  0.69038621673E+03  0.00000000000E+00 0.  1.
        -13    1    5    5    0    0  0.60324995910E+02 -0.65359310336E+02 -0.23603340805E+03  0.25223543425E+03  0.00000000000E+00 0. -1.
          1    1    6    6  503    0 -0.24693623902E+02  0.33079547614E+03 -0.23487989377E+03  0.40645293281E+03  0.00000000000E+00 0. -1.
         -1    1    6    6    0  503  0.35996007655E+02  0.95688648169E+02 -0.13072527653E+03  0.16595519841E+03  0.00000000000E+00 0.  1.
<mgrwt>
<rscale>  0 0.11468329E+04</rscale>
<asrwt>0</asrwt>
<pdfrwt beam="1">  1        2 0.23354487E+00 0.11468329E+04</pdfrwt>
<pdfrwt beam="2">  1       -1 0.33322937E-01 0.11468329E+04</pdfrwt>
<totfact> 0.11843729E+02</totfact>
</mgrwt>
</event>
<event>
11    7  0.1497947E-008  0.1749046E+04  0.7818608E-02  0.8733876E-01
          2   -1    0    0  501    0  0.00000000000E+00  0.00000000000E+00  0.61745123254E+03  0.61745123254E+03  0.00000000000E+00 0. -1.
         -1   -1    0    0    0  501 -0.00000000000E+00 -0.00000000000E+00 -0.12386245095E+04  0.12386245095E+04  0.00000000000E+00 0.  1.
         24    2    1    2    0    0 -0.19883493229E+03 -0.37368686857E+03 -0.73828158055E+03  0.85434584472E+03  0.75298898906E+02 0.  0.
        254    2    1    2    0    0  0.19883493229E+03  0.37368686857E+03  0.11710830363E+03  0.10017298973E+04  0.90031729200E+03 0.  0.
         23    2    4    4    0    0  0.14730923589E+03  0.56477798437E+03  0.31984235152E+03  0.67160109010E+03  0.89859400130E+02 0.  0.
          4    1    3    3  502    0 -0.37835760313E+02 -0.24175895105E+02 -0.85980241103E+02  0.96998043912E+02  0.00000000000E+00 0. -1.
         -3    1    3    3    0  502 -0.16099917198E+03 -0.34951097346E+03 -0.65230133944E+03  0.75734780081E+03  0.00000000000E+00 0.  1.
         13    1    5    5    0    0  0.28823676907E+02  0.21734920100E+03  0.81377182137E+02  0.23386689655E+03  0.00000000000E+00 0.  1.
        -13    1    5    5    0    0  0.11848555898E+03  0.34742878337E+03  0.23846516938E+03  0.43773419356E+03  0.00000000000E+00 0. -1.
          4    1    4    4  503    0 -0.44598338584E+02 -0.32418359293E+02 -0.10928098387E+03  0.12240218650E+03  0.00000000000E+00 0. -1.
         -4    1    4    4    0  503  0.96124034986E+02 -0.15867275651E+03 -0.93453064010E+02  0.20772662067E+03  0.00000000000E+00 0.  1.
<mgrwt>
<rscale>  0 0.17490457E+04</rscale>
<asrwt>0</asrwt>
<pdfrwt beam="1">  1        2 0.94992498E-01 0.17490457E+04</pdfrwt>
<pdfrwt beam="2">  1       -1 0.19055762E+00 0.17490457E+04</pdfrwt>
<totfact> 0.90797582E+00</totfact>
</mgrwt>
</event>
<event>
12    7  0.1497947E-008  0.2362622E+04  0.7818608E-02  0.8453631E-01
          2   -1    0    0  501    0  0.00000000000E+00  0.00000000000E+00  0.25534174812E+04  0.25534174812E+04  0.00000000000E+00 0. -1.
         -1   -1    0    0    0  501 -0.00000000000E+00 -0.00000000000E+00 -0.54652060010E+03  0.54652060010E+03  0.00000000000E+00 0.  1.
         24    2    1    2    0    0 -0.20989998220E+03  0.98424155683E+03  0.90787786560E+03  0.13577056591E+04  0.79580105067E+02 0.  0.
        254    2    1    2    0    0  0.20989998220E+03 -0.98424155683E+03  0.10990190155E+04  0.17422324222E+04  0.90263036283E+03 0.  0.
         23    2    4    4    0    0 -0.35175618629E+01 -0.40726733284E+03 -0.64094995578E+02  0.42212192130E+03  0.90552163667E+02 0.  0.
         23    2    4    4    0    0  0.21341754406E+03 -0.57697422399E+03  0.11631140111E+04  0.13201105009E+04  0.10682335253E+03 0.  0.
          2    1    3    3  502    0 -0.11967372057E+03  0.52475247151E+03  0.53770291917E+03  0.76079654641E+03  0.00000000000E+00 0. -1.
         -1    1    3    3    0  502 -0.90226261633E+02  0.45948908531E+03  0.37017494643E+03  0.59690911266E+03  0.00000000000E+00 0.  1.
         13    1    5    5    0    0  0.13351166725E+02 -0.17679699308E+02  0.11420041774E+02  0.24924742219E+02  0.00000000000E+00 0.  1.
        -13    1    5    5    0    0 -0.16868728588E+02 -0.38958763353E+03 -0.75515037352E+02  0.39719717908E+03  0.00000000000E+00 0. -1.
          4    1    6    6  503    0  0.88051702276E+01 -0.83628510599E+01  0.37581407603E+01  0.12711881157E+02  0.00000000000E+00 0.  1.
         -4    1    6    6    0  503  0.20461237383E+03 -0.56861137293E+03  0.11593558703E+04  0.13073986198E+04  0.00000000000E+00 0. -1.
<mgrwt>
<rscale>  0 0.23626216E+04</rscale>
<asrwt>0</asrwt>
<pdfrwt beam="1">  1        2 0.39283345E+00 0.23626216E+04</pdfrwt>
<pdfrwt beam="2">  1       -1 0.84080094E-01 0.23626216E+04</pdfrwt>
<totfact> 0.46610471E+00</totfact>
</mgrwt>
</event>
<event>
12    7  0.1497947E-008  0.1106939E+04  0.7818608E-02  0.9198455E-01
         -1   -1    0    0    0  501 -0.00000000000E+00  0.00000000000E+00  0.34486162634E+03  0.34486162634E+03  0.00000000000E+00 0.  1.
          2   -1    0    0  501    0  0.00000000000E+00 -0.00000000000E+00 -0.88826488405E+03  0.88826488405E+03  0.00000000000E+00 0. -1.
         24    2    1    2    0    0 -0.17063044007E+03  0.18121592885E+02 -0.22993589233E+03  0.29715041018E+03  0.77360923492E+02 0.  0.
        254    2    1    2    0    0  0.17063044007E+03 -0.18121592885E+02 -0.31346736538E+03  0.93597610021E+03  0.86507013114E+03 0.  0.
         23    2    4    4    0    0  0.29683838294E+03 -0.84790179596E+02  0.20943605277E+03  0.38406699454E+03  0.91332337941E+02 0.  0.
         23    2    4    4    0    0 -0.12620794287E+03  0.66668586711E+02 -0.52290341815E+03  0.55190910566E+03  0.10393522454E+03 0.  0.
          4    1    3    3  502    0 -0.97132631508E+02  0.42627414018E+02 -0.16452060193E+03  0.19575207020E+03  0.00000000000E+00 0. -1.
         -3    1    3    3    0  502 -0.73497808558E+02 -0.24505821133E+02 -0.65415290403E+02  0.10139833998E+03  0.00000000000E+00 0.  1.
         13    1    5    5    0    0  0.16493618505E+03 -0.71517145689E+02  0.16564747177E+03  0.24445394694E+03  0.00000000000E+00 0.  1.
        -13    1    5    5    0    0  0.13190219789E+03 -0.13273033907E+02  0.43788581001E+02  0.13961304761E+03  0.00000000000E+00 0. -1.
          1    1    6    6  503    0 -0.90003257278E+02 -0.10957389611E+02 -0.25434679208E+03  0.27002396440E+03  0.00000000000E+00 0. -1.
         -1    1    6    6    0  503 -0.36204685595E+02  0.77625976322E+02 -0.26855662607E+03  0.28188514127E+03  0.00000000000E+00 0.  1.
<mgrwt>
<rscale>  0 0.11069390E+04</rscale>
<asrwt>0</asrwt>
<pdfrwt beam="1">  1        2 0.13665614E+00 0.11069390E+04</pdfrwt>
<pdfrwt beam="2">  1       -1 0.53055635E-01 0.11069390E+04</pdfrwt>
<totfact> 0.12112805E+02</totfact>
</mgrwt>
</event>
<event>
11    7  0.1497947E-008  0.1869141E+04  0.7818608E-02  0.8670371E-01
         -3   -1    0    0    0  501 -0.00000000000E+00  0.00000000000E+00  0.22508780748E+03  0.22508780748E+03  0.00000000000E+00 0.  1.
          2   -1    0    0  501    0  0.00000000000E+00 -0.00000000000E+00 -0.38803605934E+04  0.38803605934E+04  0.00000000000E+00 0. -1.
         24    2    1    2    0    0  0.18764352763E+03  0.64230856191E+03 -0.85561848933E+03  0.10895977138E+04  0.85847518446E+02 0.  0.
        254    2    1    2    0    0 -0.18764352763E+03 -0.64230856191E+03 -0.27996542966E+04  0.30158506871E+04  0.89973374080E+03 0.  0.
         23    2    4    4    0    0 -0.66470239141E+02 -0.44160725594E+03 -0.59485474332E+03  0.74870647493E+03  0.85287506485E+02 0.  0.
          4    1    3    3  502    0  0.80199419565E+02  0.33938450533E+03 -0.50774771744E+03  0.61597202365E+03  0.00000000000E+00 0. -1.
         -3    1    3    3    0  502  0.10744410806E+03  0.30292405658E+03 -0.34787077190E+03  0.47362569013E+03  0.00000000000E+00 0.  1.
         13    1    5    5    0    0 -0.87036397473E+02 -0.37277474518E+03 -0.50290707112E+03  0.63202204654E+03  0.00000000000E+00 0. -1.
        -13    1    5    5    0    0  0.20566158332E+02 -0.68832510757E+02 -0.91947672195E+02  0.11668442839E+03  0.00000000000E+00 0.  1.
          2    1    4    4  503    0 -0.13804200201E+03 -0.81740951335E+02 -0.21045726999E+04  0.21106784280E+04  0.00000000000E+00 0. -1.
         -2    1    4    4    0  503  0.16868713522E+02 -0.11896035463E+03 -0.10022685340E+03  0.15646578416E+03  0.00000000000E+00 0.  1.
<mgrwt>
<rscale>  0 0.18691408E+04</rscale>
<asrwt>0</asrwt>
<pdfrwt beam="1">  1        2 0.59697852E+00 0.18691408E+04</pdfrwt>
<pdfrwt beam="2">  1       -3 0.34628895E-01 0.18691408E+04</pdfrwt>
<totfact> 0.21673159E+00</totfact>
</mgrwt>
</event>
<event>
12    7  0.1497947E-008  0.1702400E+04  0.7818608E-02  0.8759997E-01
          2   -1    0    0  501    0  0.00000000000E+00  0.00000000000E+00  0.12139962623E+04  0.12139962623E+04  0.00000000000E+00 0. -1.
         -1   -1    0    0    0  501 -0.00000000000E+00 -0.00000000000E+00 -0.59682324336E+03  0.59682324336E+03  0.00000000000E+00 0.  1.
         24    2    1    2    0    0 -0.34305452619E+03  0.37264427724E+03  0.53932748326E+03  0.74413558065E+03  0.79457302301E+02 0.  0.
        254    2    1    2    0    0  0.34305452619E+03 -0.37264427724E+03  0.77845535681E+02  0.10666839250E+04  0.93552365184E+03 0.  0.
         23    2    4    4    0    0  0.61816662609E+03 -0.54457368627E+02  0.83011654749E+02  0.63329052343E+03  0.95238488217E+02 0.  0.
         23    2    4    4    0    0 -0.27511209990E+03 -0.31818690862E+03 -0.51661190675E+01  0.43339340158E+03  0.10427643750E+03 0.  0.
          4    1    3    3  502    0 -0.26248182312E+03  0.32613814865E+03  0.45876535430E+03  0.62107040646E+03  0.00000000000E+00 0. -1.
         -3    1    3    3    0  502 -0.80572703062E+02  0.46506128593E+02  0.80562128966E+02  0.12306517419E+03  0.00000000000E+00 0.  1.
         13    1    5    5    0    0  0.57334193706E+03 -0.27411348296E+02  0.63829722113E+02  0.57753492729E+03  0.00000000000E+00 0.  1.
        -13    1    5    5    0    0  0.44824689024E+02 -0.27046020330E+02  0.19181932636E+02  0.55755596145E+02  0.00000000000E+00 0. -1.
          3    1    6    6  503    0 -0.17149307907E+03 -0.12594112720E+03  0.19255933391E+02  0.21363949696E+03  0.00000000000E+00 0. -1.
         -3    1    6    6    0  503 -0.10361902083E+03 -0.19224578141E+03 -0.24422052459E+02  0.21975390462E+03  0.00000000000E+00 0.  1.
<mgrwt>
<rscale>  0 0.17023997E+04</rscale>
<asrwt>0</asrwt>
<pdfrwt beam="1">  1        2 0.18676866E+00 0.17023997E+04</pdfrwt>
<pdfrwt beam="2">  1       -1 0.91818961E-01 0.17023997E+04</pdfrwt>
<totfact> 0.23292088E+01</totfact>
</mgrwt>
</event>
<event>
12    7  0.1497947E-008  0.1542345E+04  0.7818608E-02  0.8856772E-01
          2   -1    0    0  501    0  0.00000000000E+00  0.00000000000E+00  0.10822888060E+04  0.10822888060E+04  0.00000000000E+00 0. -1.
         -1   -1    0    0    0  501 -0.00000000000E+00 -0.00000000000E+00 -0.54949018456E+03  0.54949018456E+03  0.00000000000E+00 0.  1.
         24    2    1    2    0    0 -0.47345792827E+03  0.78104923514E+02  0.33976581897E+03  0.59336658341E+03  0.79876790432E+02 0.  0.
        254    2    1    2    0    0  0.47345792827E+03 -0.78104923514E+02  0.19303280243E+03  0.10384124071E+04  0.90043093878E+03 0.  0.
         23    2    4    4    0    0  0.58877169579E+03 -0.28165708519E+03  0.35166851654E+03  0.74700304918E+03  0.91432962117E+02 0.  0.
         23    2    4    4    0    0 -0.11531376752E+03  0.20355216168E+03 -0.15863571411E+03  0.29140935793E+03  0.70875782832E+02 0.  0.
          2    1    3    3  502    0 -0.32350246940E+03  0.37676852933E+02  0.18719302530E+03  0.37565226164E+03  0.00000000000E+00 0. -1.
         -1    1    3    3    0  502 -0.14995545887E+03  0.40428070581E+02  0.15257279367E+03  0.21771432177E+03  0.00000000000E+00 0.  1.
         13    1    5    5    0    0  0.15035057475E+03 -0.77142235164E+02  0.13785803853E+03  0.21808498014E+03  0.00000000000E+00 0. -1.
        -13    1    5    5    0    0  0.43842112104E+03 -0.20451485003E+03  0.21381047800E+03  0.52891806904E+03  0.00000000000E+00 0.  1.
          4    1    6    6  503    0 -0.26201644884E+02  0.58253422082E+02 -0.83514214971E+02  0.10514091250E+03  0.00000000000E+00 0. -1.
         -4    1    6    6    0  503 -0.89112122638E+02  0.14529873960E+03 -0.75121499140E+02  0.18626844543E+03  0.00000000000E+00 0.  1.
<mgrwt>
<rscale>  0 0.15423451E+04</rscale>
<asrwt>0</asrwt>
<pdfrwt beam="1">  1        2 0.16650597E+00 0.15423451E+04</pdfrwt>
<pdfrwt beam="2">  1       -1 0.84536952E-01 0.15423451E+04</pdfrwt>
<totfact> 0.34013792E+01</totfact>
</mgrwt>
</event>
<event>
11    7  0.1497947E-008  0.1954066E+04  0.7818608E-02  0.8628402E-01
         -1   -1    0    0    0  501 -0.00000000000E+00  0.00000000000E+00  0.26370250283E+03  0.26370250283E+03  0.00000000000E+00 0.  1.
          2   -1    0    0  501    0  0.00000000000E+00 -0.00000000000E+00 -0.36199651729E+04  0.36199651729E+04  0.00000000000E+00 0. -1.
         24    2    1    2    0    0 -0.58764295904E+03  0.46556714829E+03 -0.16608538385E+04  0.18246856208E+04  0.94684344595E+02 0.  0.
        254    2    1    2    0    0  0.58764295904E+03 -0.46556714829E+03 -0.16954088316E+04  0.20589820549E+04  0.89605746431E+03 0.  0.
         23    2    4    4    0    0  0.77099491957E+03 -0.45920182994E+03 -0.13608740564E+04  0.16326708789E+04  0.91304517392E+02 0.  0.
          2    1    3    3  502    0 -0.56702569506E+03  0.46550704619E+03 -0.16310449204E+04  0.17884413553E+04  0.00000000000E+00 0. -1.
         -1    1    3    3    0  502 -0.20617263979E+02  0.60102094461E-01 -0.29808918050E+02  0.36244265499E+02  0.00000000000E+00 0.  1.
         13    1    5    5    0    0  0.40643985102E+03 -0.20011720594E+03 -0.73549866529E+03  0.86382783890E+03  0.00000000000E+00 0.  1.
        -13    1    5    5    0    0  0.36455506855E+03 -0.25908462400E+03 -0.62537539110E+03  0.76884304002E+03  0.00000000000E+00 0. -1.
          4    1    4    4  503    0 -0.21115126532E+03  0.30774481136E+02 -0.24090437528E+03  0.32181802865E+03  0.00000000000E+00 0. -1.
         -4    1    4    4    0  503  0.27799304784E+02 -0.37139799485E+02 -0.93630399899E+02  0.10449314732E+03  0.00000000000E+00 0.  1.
<mgrwt>
<rscale>  0 0.19540664E+04</rscale>
<asrwt>0</asrwt>
<pdfrwt beam="1">  1        2 0.55691765E+00 0.19540664E+04</pdfrwt>
<pdfrwt beam="2">  1       -1 0.40569621E-01 0.19540664E+04</pdfrwt>
<totfact> 0.42379685E+00</totfact>
</mgrwt>
</event>
<event>
11    7  0.1497947E-008  0.2175845E+04  0.7818608E-02  0.8528550E-01
         -1   -1    0    0    0  501 -0.00000000000E+00  0.00000000000E+00  0.81946840079E+03  0.81946840079E+03  0.00000000000E+00 0.  1.
          2   -1    0    0  501    0  0.00000000000E+00 -0.00000000000E+00 -0.14443206708E+04  0.14443206708E+04  0.00000000000E+00 0. -1.
         24    2    1    2    0    0  0.72906704684E+03  0.10881237335E+03  0.29426137280E+03  0.79777094457E+03  0.80435272730E+02 0.  0.
        254    2    1    2    0    0 -0.72906704684E+03 -0.10881237335E+03 -0.91911364285E+03  0.14660181271E+04  0.87238774006E+03 0.  0.
         23    2    4    4    0    0 -0.57891276973E+03  0.25230055394E+03 -0.75338764274E+03  0.98706362123E+03  0.88916183283E+02 0.  0.
          4    1    3    3  502    0  0.99139705537E+00 -0.16846091060E+01 -0.30364297483E+01  0.36111883886E+01  0.00000000000E+00 0. -1.
         -3    1    3    3    0  502  0.72807564978E+03  0.11049698246E+03  0.29729780255E+03  0.79415975618E+03  0.00000000000E+00 0.  1.
         13    1    5    5    0    0 -0.46379600848E+03  0.23631538741E+03 -0.63629541409E+03  0.82208488235E+03  0.00000000000E+00 0.  1.
        -13    1    5    5    0    0 -0.11511676126E+03  0.15985166526E+02 -0.11709222866E+03  0.16497873888E+03  0.00000000000E+00 0. -1.
          3    1    4    4  503    0 -0.18459903645E+03 -0.19310239723E+03 -0.15088441509E+03  0.30680848553E+03  0.00000000000E+00 0. -1.
         -3    1    4    4    0  503  0.34444759349E+02 -0.16801053006E+03 -0.14841585020E+02  0.17214602030E+03  0.00000000000E+00 0.  1.
<mgrwt>
<rscale>  0 0.21758448E+04</rscale>
<asrwt>0</asrwt>
<pdfrwt beam="1">  1        2 0.22220318E+00 0.21758448E+04</pdfrwt>
<pdfrwt beam="2">  1       -1 0.12607206E+00 0.21758448E+04</pdfrwt>
<totfact> 0.78042448E+00</totfact>
</mgrwt>
</event>
<event>
11    7  0.1497947E-008  0.2291397E+04  0.7818608E-02  0.8481321E-01
         -3   -1    0    0    0  501 -0.00000000000E+00  0.00000000000E+00  0.83521601405E+03  0.83521601405E+03  0.00000000000E+00 0.  1.
          2   -1    0    0  501    0  0.00000000000E+00 -0.00000000000E+00 -0.15715992376E+04  0.15715992376E+04  0.00000000000E+00 0. -1.
         24    2    1    2    0    0  0.40821676454E+03  0.65905273420E+03  0.29570265758E+03  0.83350208548E+03  0.79336192872E+02 0.  0.
        254    2    1    2    0    0 -0.40821676454E+03 -0.65905273420E+03 -0.10320858811E+04  0.15733131662E+04  0.89951187846E+03 0.  0.
         23    2    4    4    0    0 -0.48615971402E+02 -0.24734120872E+03  0.83465526712E+02  0.28098983032E+03  0.91910850230E+02 0.  0.
          4    1    3    3  502    0  0.44732087934E+02  0.12523962908E+03  0.61643703753E+02  0.14658059420E+03  0.00000000000E+00 0. -1.
         -3    1    3    3    0  502  0.36348467661E+03  0.53381310512E+03  0.23405895383E+03  0.68692149129E+03  0.00000000000E+00 0.  1.
         13    1    5    5    0    0 -0.48891002715E+02 -0.10535481545E+03  0.76010384758E+02  0.13880758580E+03  0.00000000000E+00 0.  1.
        -13    1    5    5    0    0  0.27503131289E+00 -0.14198639327E+03  0.74551419539E+01  0.14218224452E+03  0.00000000000E+00 0. -1.
          2    1    4    4  503    0 -0.37236664341E+03 -0.46402943070E+03 -0.97997404187E+03  0.11464420406E+04  0.00000000000E+00 0. -1.
         -2    1    4    4    0  503  0.12765850276E+02  0.52317905225E+02 -0.13557736597E+03  0.14588129525E+03  0.00000000000E+00 0.  1.
<mgrwt>
<rscale>  0 0.22913968E+04</rscale>
<asrwt>0</asrwt>
<pdfrwt beam="1">  1        2 0.24178450E+00 0.22913968E+04</pdfrwt>
<pdfrwt beam="2">  1       -3 0.12849477E+00 0.22913968E+04</pdfrwt>
<totfact> 0.31834021E+00</totfact>
</mgrwt>
</event>
<event>
12    7  0.1497947E-008  0.1542008E+04  0.7818608E-02  0.8856989E-01
          2   -1    0    0  501    0  0.00000000000E+00  0.00000000000E+00  0.77351016819E+03  0.77351016819E+03  0.00000000000E+00 0. -1.
         -1   -1    0    0    0  501 -0.00000000000E+00 -0.00000000000E+00 -0.76850621040E+03  0.76850621040E+03  0.00000000000E+00 0.  1.
         24    2    1    2    0    0 -0.15119145231E+03 -0.17139830681E+03  0.45689221069E+03  0.51713548023E+03  0.80264424861E+02 0.  0.
        254    2    1    2    0    0  0.15119145231E+03  0.17139830681E+03 -0.45188825289E+03  0.10248808984E+04  0.89103402174E+03 0.  0.
         23    2    4    4    0    0  0.45694801122E+03  0.27423565995E+03 -0.12972704601E+03  0.55609836974E+03  0.91703916074E+02 0.  0.
         23    2    4    4    0    0 -0.30575655891E+03 -0.10283735314E+03 -0.32216120688E+03  0.46878252862E+03  0.10911746606E+03 0.  0.
          2    1    3    3  502    0 -0.14248351053E+03 -0.14832658781E+03  0.44396421867E+03  0.48929189129E+03  0.00000000000E+00 0. -1.
         -1    1    3    3    0  502 -0.87079417721E+01 -0.23071718991E+02  0.12927992016E+02  0.27843588933E+02  0.00000000000E+00 0.  1.
         13    1    5    5    0    0  0.16836817757E+03  0.15137994660E+03 -0.40481314969E+02  0.23000536583E+03  0.00000000000E+00 0. -1.
        -13    1    5    5    0    0  0.28857983365E+03  0.12285571335E+03 -0.89245731038E+02  0.32609300391E+03  0.00000000000E+00 0.  1.
          2    1    6    6  503    0 -0.12632048325E+03 -0.89562523701E+02 -0.10658359403E+03  0.18798503307E+03  0.00000000000E+00 0. -1.
         -2    1    6    6    0  503 -0.17943607566E+03 -0.13274829444E+02 -0.21557761285E+03  0.28079749555E+03  0.00000000000E+00 0.  1.
<mgrwt>
<rscale>  0 0.15420083E+04</rscale>
<asrwt>0</asrwt>
<pdfrwt beam="1">  1        2 0.11900156E+00 0.15420083E+04</pdfrwt>
<pdfrwt beam="2">  1       -1 0.11823173E+00 0.15420083E+04</pdfrwt>
<totfact> 0.25435284E+01</totfact>
</mgrwt>
</event>
<event>
12    7  0.1497947E-008  0.1441587E+04  0.7818608E-02  0.8924254E-01
         -1   -1    0    0    0  501 -0.00000000000E+00  0.00000000000E+00  0.14575164873E+03  0.14575164873E+03  0.00000000000E+00 0.  1.
          2   -1    0    0  501    0  0.00000000000E+00 -0.00000000000E+00 -0.35645808431E+04  0.35645808431E+04  0.00000000000E+00 0. -1.
         24    2    1    2    0    0  0.97794853014E+02  0.11171036422E+03 -0.21210908152E+04  0.21278238906E+04  0.81026071957E+02 0.  0.
        254    2    1    2    0    0 -0.97794853014E+02 -0.11171036422E+03 -0.12977383792E+04  0.15825086013E+04  0.89340110446E+03 0.  0.
         23    2    4    4    0    0  0.24167316141E+03 -0.10274462353E+03 -0.46456894753E+02  0.28148997518E+03  0.90088780925E+02 0.  0.
         23    2    4    4    0    0 -0.33946801442E+03 -0.89657406907E+01 -0.12512814845E+04  0.13010186261E+04  0.10782019634E+03 0.  0.
          4    1    3    3  502    0  0.53664468357E+02  0.30688749174E+02 -0.45498516509E+03  0.45916573799E+03  0.00000000000E+00 0. -1.
         -3    1    3    3    0  502  0.44130384657E+02  0.81021615047E+02 -0.16661056501E+04  0.16686581526E+04  0.00000000000E+00 0.  1.
         13    1    5    5    0    0  0.18682111818E+03 -0.11047668849E+03 -0.58529608455E+02  0.22479533795E+03  0.00000000000E+00 0.  1.
        -13    1    5    5    0    0  0.54852043226E+02  0.77320649605E+01  0.12072713701E+02  0.56694637230E+02  0.00000000000E+00 0. -1.
          1    1    6    6  503    0 -0.36901735793E+02  0.13636189867E+02 -0.29882322846E+03  0.30140173465E+03  0.00000000000E+00 0. -1.
         -1    1    6    6    0  503 -0.30256627863E+03 -0.22601930558E+02 -0.95245825601E+03  0.99961689145E+03  0.00000000000E+00 0.  1.
<mgrwt>
<rscale>  0 0.14415874E+04</rscale>
<asrwt>0</asrwt>
<pdfrwt beam="1">  1        2 0.54839700E+00 0.14415874E+04</pdfrwt>
<pdfrwt beam="2">  1       -1 0.22423333E-01 0.14415874E+04</pdfrwt>
<totfact> 0.13875821E+01</totfact>
</mgrwt>
</event>
<event>
12    7  0.1497947E-008  0.1658910E+04  0.7818608E-02  0.8785153E-01
         -1   -1    0    0    0  501 -0.00000000000E+00  0.00000000000E+00  0.19023276950E+03  0.19023276950E+03  0.00000000000E+00 0.  1.
          2   -1    0    0  501    0  0.00000000000E+00 -0.00000000000E+00 -0.36165998560E+04  0.36165998560E+04  0.00000000000E+00 0. -1.
         24    2    1    2    0    0  0.30959055298E+03  0.47774071698E+03 -0.93811325487E+03  0.10998355886E+04  0.74157534307E+02 0.  0.
        254    2    1    2    0    0 -0.30959055298E+03 -0.47774071698E+03 -0.24882538316E+04  0.27069970369E+04  0.90130090639E+03 0.  0.
         23    2    4    4    0    0 -0.33383614586E+03  0.15306532900E+03 -0.56498900055E+03  0.68007383590E+03  0.91718505834E+02 0.  0.
         23    2    4    4    0    0  0.24245592882E+02 -0.63080604598E+03 -0.19232648311E+04  0.20269232010E+04  0.10471836382E+03 0.  0.
          4    1    3    3  502    0  0.75159502338E+02  0.64814042646E+02 -0.16499281459E+03  0.19254204679E+03  0.00000000000E+00 0. -1.
         -3    1    3    3    0  502  0.23443105064E+03  0.41292667433E+03 -0.77312044028E+03  0.90729354184E+03  0.00000000000E+00 0.  1.
         13    1    5    5    0    0 -0.27950929184E+03  0.87109942348E+02 -0.44870886686E+03  0.53577349083E+03  0.00000000000E+00 0. -1.
        -13    1    5    5    0    0 -0.54326854025E+02  0.65955386656E+02 -0.11628013369E+03  0.14430034507E+03  0.00000000000E+00 0.  1.
          4    1    6    6  503    0  0.41535410761E+02 -0.24625905256E+03 -0.88645530018E+03  0.92096238280E+03  0.00000000000E+00 0. -1.
         -4    1    6    6    0  503 -0.17289817880E+02 -0.38454699342E+03 -0.10368095309E+04  0.11059608182E+04  0.00000000000E+00 0.  1.
<mgrwt>
<rscale>  0 0.16589103E+04</rscale>
<asrwt>0</asrwt>
<pdfrwt beam="1">  1        2 0.55639997E+00 0.16589103E+04</pdfrwt>
<pdfrwt beam="2">  1       -1 0.29266580E-01 0.16589103E+04</pdfrwt>
<totfact> 0.78756685E+00</totfact>
</mgrwt>
</event>
<event>
11    7  0.1497947E-008  0.2128757E+04  0.7818608E-02  0.8548680E-01
         -1   -1    0    0    0  501 -0.00000000000E+00  0.00000000000E+00  0.10490852338E+04  0.10490852338E+04  0.00000000000E+00 0.  1.
          2   -1    0    0  501    0  0.00000000000E+00 -0.00000000000E+00 -0.10798952064E+04  0.10798952064E+04  0.00000000000E+00 0. -1.
         24    2    1    2    0    0 -0.67488719097E+03 -0.51285471218E+03 -0.19381914094E+03  0.87320238157E+03  0.80149007789E+02 0.  0.
        254    2    1    2    0    0  0.67488719097E+03  0.51285471218E+03  0.16300916836E+03  0.12557780586E+04  0.91209312412E+03 0.  0.
         23    2    4    4    0    0  0.40445169234E+03  0.45203662380E+03  0.49618629977E+03  0.78875001932E+03  0.89484457850E+02 0.  0.
          2    1    3    3  502    0 -0.34013798948E+03 -0.24950937322E+03 -0.13688914050E+03  0.44349455014E+03  0.00000000000E+00 0. -1.
         -1    1    3    3    0  502 -0.33474920148E+03 -0.26334533896E+03 -0.56930000442E+02  0.42970783143E+03  0.00000000000E+00 0.  1.
         13    1    5    5    0    0  0.39348707286E+03  0.45514211045E+03  0.48861263045E+03  0.77506691314E+03  0.00000000000E+00 0.  1.
        -13    1    5    5    0    0  0.10964619482E+02 -0.31054866448E+01  0.75736693265E+01  0.13683106181E+02  0.00000000000E+00 0. -1.
          4    1    4    4  503    0 -0.19967112080E+02  0.26361057418E+02 -0.20507331256E+02  0.38911971786E+02  0.00000000000E+00 0. -1.
         -4    1    4    4    0  503  0.29040261071E+03  0.34457030960E+02 -0.31266980015E+03  0.42811606746E+03  0.00000000000E+00 0.  1.
<mgrwt>
<rscale>  0 0.21287575E+04</rscale>
<asrwt>0</asrwt>
<pdfrwt beam="1">  1        2 0.16613772E+00 0.21287575E+04</pdfrwt>
<pdfrwt beam="2">  1       -1 0.16139773E+00 0.21287575E+04</pdfrwt>
<totfact> 0.67045837E+00</totfact>
</mgrwt>
</event>
<event>
11    7  0.1497947E-008  0.2625364E+04  0.7818608E-02  0.8359636E-01
          2   -1    0    0  501    0  0.00000000000E+00  0.00000000000E+00  0.21194910136E+04  0.21194910136E+04  0.00000000000E+00 0. -1.
         -1   -1    0    0    0  501 -0.00000000000E+00 -0.00000000000E+00 -0.81299413675E+03  0.81299413675E+03  0.00000000000E+00 0.  1.
         24    2    1    2    0    0  0.50976717792E+02 -0.98836340318E+03 -0.90806046733E+02  0.99705481769E+03  0.80073271757E+02 0.  0.
        254    2    1    2    0    0 -0.50976717792E+02  0.98836340318E+03  0.13973029236E+04  0.19354303327E+04  0.90220522601E+03 0.  0.
         23    2    4    4    0    0 -0.17552548932E+03  0.32628040898E+03  0.90488197991E+03  0.98221466165E+03  0.93092111886E+02 0.  0.
          2    1    3    3  502    0  0.24094994477E+02 -0.26751796298E+03 -0.59017789706E+02  0.27500823402E+03  0.00000000000E+00 0. -1.
         -1    1    3    3    0  502  0.26881723315E+02 -0.72084544020E+03 -0.31788257027E+02  0.72204658367E+03  0.00000000000E+00 0.  1.
         13    1    5    5    0    0  0.52558422181E+01  0.20956537568E+02  0.10443266729E+03  0.10664418569E+03  0.00000000000E+00 0.  1.
        -13    1    5    5    0    0 -0.18078133153E+03  0.30532387141E+03  0.80044931263E+03  0.87557047596E+03  0.00000000000E+00 0. -1.
          1    1    4    4  503    0  0.90023650772E+02  0.71616161091E+03  0.36115512387E+03  0.80710887378E+03  0.00000000000E+00 0. -1.
         -1    1    4    4    0  503  0.34525120753E+02 -0.54078616709E+02  0.13126581984E+03  0.14610679726E+03  0.00000000000E+00 0.  1.
<mgrwt>
<rscale>  0 0.26253638E+04</rscale>
<asrwt>0</asrwt>
<pdfrwt beam="1">  1        2 0.32607554E+00 0.26253638E+04</pdfrwt>
<pdfrwt beam="2">  1       -1 0.12507602E+00 0.26253638E+04</pdfrwt>
<totfact> 0.32148338E+00</totfact>
</mgrwt>
</event>
<event>
12    7  0.1497947E-008  0.1528926E+04  0.7818608E-02  0.8865442E-01
          2   -1    0    0  501    0  0.00000000000E+00  0.00000000000E+00  0.12197459703E+04  0.12197459703E+04  0.00000000000E+00 0. -1.
         -1   -1    0    0    0  501 -0.00000000000E+00 -0.00000000000E+00 -0.47911901535E+03  0.47911901535E+03  0.00000000000E+00 0.  1.
         24    2    1    2    0    0  0.18946080439E+03 -0.44706376207E+03  0.12724231286E+03  0.50822677930E+03  0.79639495606E+02 0.  0.
        254    2    1    2    0    0 -0.18946080439E+03  0.44706376207E+03  0.61338464213E+03  0.11906382064E+04  0.89756181712E+03 0.  0.
         23    2    4    4    0    0 -0.42984440206E+03  0.56878938522E+03  0.50601845465E+03  0.87889237402E+03  0.90053061853E+02 0.  0.
         23    2    4    4    0    0  0.24038359767E+03 -0.12172562315E+03  0.10736618748E+03  0.31174583236E+03  0.11426532467E+03 0.  0.
          4    1    3    3  502    0  0.37100830881E+02 -0.68966710098E+02 -0.80402968105E+01  0.78724361710E+02  0.00000000000E+00 0. -1.
         -3    1    3    3    0  502  0.15235997351E+03 -0.37809705197E+03  0.13528260967E+03  0.42950241759E+03  0.00000000000E+00 0.  1.
         13    1    5    5    0    0 -0.23901008554E+03  0.28511750639E+03  0.31355453180E+03  0.48655344809E+03  0.00000000000E+00 0.  1.
        -13    1    5    5    0    0 -0.19083431652E+03  0.28367187883E+03  0.19246392285E+03  0.39233892593E+03  0.00000000000E+00 0. -1.
          3    1    6    6  503    0  0.24423114619E+03 -0.92860110406E+02  0.10772107172E+03  0.28262286207E+03  0.00000000000E+00 0. -1.
         -3    1    6    6    0  503 -0.38475485205E+01 -0.28865512746E+02 -0.35488423865E+00  0.29122970290E+02  0.00000000000E+00 0.  1.
<mgrwt>
<rscale>  0 0.15289258E+04</rscale>
<asrwt>0</asrwt>
<pdfrwt beam="1">  1        2 0.18765322E+00 0.15289258E+04</pdfrwt>
<pdfrwt beam="2">  1       -1 0.73710618E-01 0.15289258E+04</pdfrwt>
<totfact> 0.37569523E+01</totfact>
</mgrwt>
</event>
<event>
12    7  0.1497947E-008  0.1868651E+04  0.7818608E-02  0.8670620E-01
          2   -1    0    0  501    0  0.00000000000E+00  0.00000000000E+00  0.75826843420E+03  0.75826843420E+03  0.00000000000E+00 0. -1.
         -1   -1    0    0    0  501 -0.00000000000E+00 -0.00000000000E+00 -0.11512606283E+04  0.11512606283E+04  0.00000000000E+00 0.  1.
         24    2    1    2    0    0  0.57852889996E+03  0.25596698331E+03  0.18761438170E+03  0.66911105651E+03  0.11088582010E+03 0.  0.
        254    2    1    2    0    0 -0.57852889996E+03 -0.25596698331E+03 -0.58060657580E+03  0.12404180060E+04  0.89516369961E+03 0.  0.
         23    2    4    4    0    0 -0.70665566707E+03 -0.44442348707E+03 -0.49839785451E+03  0.97637032432E+03  0.89577459079E+02 0.  0.
         23    2    4    4    0    0  0.12812676711E+03  0.18845650376E+03 -0.82208721295E+02  0.26404768167E+03  0.10502657797E+03 0.  0.
          2    1    3    3  502    0  0.32550744355E+03  0.13104164170E+03  0.15978081237E+03  0.38556052140E+03  0.00000000000E+00 0. -1.
         -1    1    3    3    0  502  0.25302145641E+03  0.12492534161E+03  0.27833569335E+02  0.28355053511E+03  0.00000000000E+00 0.  1.
         13    1    5    5    0    0 -0.65386214908E+03 -0.43600247569E+03 -0.46101748425E+03  0.91113719581E+03  0.00000000000E+00 0. -1.
        -13    1    5    5    0    0 -0.52793517989E+02 -0.84210113775E+01 -0.37380370255E+02  0.65233128506E+02  0.00000000000E+00 0.  1.
          1    1    6    6  503    0  0.59952805237E+02  0.15258717686E+03 -0.20250475942E+02  0.16518858064E+03  0.00000000000E+00 0. -1.
         -1    1    6    6    0  503  0.68173961873E+02  0.35869326898E+02 -0.61958245353E+02  0.98859101031E+02  0.00000000000E+00 0.  1.
<mgrwt>
<rscale>  0 0.18686515E+04</rscale>
<asrwt>0</asrwt>
<pdfrwt beam="1">  1        2 0.11665668E+00 0.18686515E+04</pdfrwt>
<pdfrwt beam="2">  1       -1 0.17711702E+00 0.18686515E+04</pdfrwt>
<totfact> 0.86500670E+00</totfact>
</mgrwt>
</event>
<event>
12    7  0.1497947E-008  0.2553381E+04  0.7818608E-02  0.8384211E-01
         -1   -1    0    0    0  501 -0.00000000000E+00  0.00000000000E+00  0.10065922948E+04  0.10065922948E+04  0.00000000000E+00 0.  1.
          2   -1    0    0  501    0  0.00000000000E+00 -0.00000000000E+00 -0.16192635463E+04  0.16192635463E+04  0.00000000000E+00 0. -1.
         24    2    1    2    0    0 -0.46750194076E+03 -0.59646580935E+03  0.57753143137E+03  0.95600378825E+03  0.77917665474E+02 0.  0.
        254    2    1    2    0    0  0.46750194076E+03  0.59646580935E+03 -0.11902026829E+04  0.16698520529E+04  0.89302515405E+03 0.  0.
         23    2    4    4    0    0  0.35239787201E+03  0.75427820820E+03 -0.11799798424E+04  0.14471902620E+04  0.94272745453E+02 0.  0.
         23    2    4    4    0    0  0.11510406876E+03 -0.15781239885E+03 -0.10222840519E+02  0.22266179084E+03  0.10639580234E+03 0.  0.
          2    1    3    3  502    0 -0.90814506884E+02 -0.14668446110E+03  0.98979333039E+02  0.19889825077E+03  0.00000000000E+00 0. -1.
         -1    1    3    3    0  502 -0.37668743388E+03 -0.44978134824E+03  0.47855209833E+03  0.75710553748E+03  0.00000000000E+00 0.  1.
         13    1    5    5    0    0  0.41325870689E+02  0.14720974506E+03 -0.26466091524E+03  0.30565329490E+03  0.00000000000E+00 0.  1.
        -13    1    5    5    0    0  0.31107200132E+03  0.60706846314E+03 -0.91531892714E+03  0.11415369671E+04  0.00000000000E+00 0. -1.
          1    1    6    6  503    0  0.33097780731E+02 -0.11923989136E+03 -0.35201477869E+02  0.12865752533E+03  0.00000000000E+00 0. -1.
         -1    1    6    6    0  503  0.82006288026E+02 -0.38572507497E+02  0.24978637350E+02  0.94004265511E+02  0.00000000000E+00 0.  1.
<mgrwt>
<rscale>  0 0.25533807E+04</rscale>
<asrwt>0</asrwt>
<pdfrwt beam="1">  1        2 0.24911747E+00 0.25533807E+04</pdfrwt>
<pdfrwt beam="2">  1       -1 0.15486035E+00 0.25533807E+04</pdfrwt>
<totfact> 0.35189727E+00</totfact>
</mgrwt>
</event>
<event>
11    7  0.1497947E-008  0.2700736E+04  0.7818608E-02  0.8334766E-01
          2   -1    0    0  501    0  0.00000000000E+00  0.00000000000E+00  0.22499781700E+04  0.22499781700E+04  0.00000000000E+00 0. -1.
         -1   -1    0    0    0  501 -0.00000000000E+00 -0.00000000000E+00 -0.81044969627E+03  0.81044969627E+03  0.00000000000E+00 0.  1.
         24    2    1    2    0    0  0.31511529479E+03  0.43005423654E+02 -0.66833976906E+03  0.74416217479E+03  0.77150372697E+02 0.  0.
        254    2    1    2    0    0 -0.31511529479E+03 -0.43005423654E+02  0.21078682428E+04  0.23162656914E+04  0.90599730079E+03 0.  0.
         23    2    4    4    0    0 -0.13490619140E+03 -0.19345286447E+03  0.72015729189E+02  0.26285845669E+03  0.91019842641E+02 0.  0.
          4    1    3    3  502    0  0.58441711283E+01  0.58018006840E+01 -0.18052276719E+01  0.84305441284E+01  0.00000000000E+00 0. -1.
         -3    1    3    3    0  502  0.30927112367E+03  0.37203622970E+02 -0.66653454139E+03  0.73573163066E+03  0.00000000000E+00 0.  1.
         13    1    5    5    0    0 -0.13073509908E+03 -0.12049719401E+03  0.65565439661E+02  0.18949951656E+03  0.00000000000E+00 0.  1.
        -13    1    5    5    0    0 -0.41710923172E+01 -0.72955670456E+02  0.64502895278E+01  0.73358940136E+02  0.00000000000E+00 0. -1.
          1    1    4    4  503    0 -0.15633536611E+03  0.11292221209E+03  0.19140064894E+04  0.19236977450E+04  0.00000000000E+00 0.  1.
         -1    1    4    4    0  503 -0.23873737290E+02  0.37525228729E+02  0.12184602418E+03  0.12970948975E+03  0.00000000000E+00 0. -1.
<mgrwt>
<rscale>  0 0.27007363E+04</rscale>
<asrwt>0</asrwt>
<pdfrwt beam="1">  1        2 0.34615049E+00 0.27007363E+04</pdfrwt>
<pdfrwt beam="2">  1       -1 0.12468457E+00 0.27007363E+04</pdfrwt>
<totfact> 0.27185507E+00</totfact>
</mgrwt>
</event>
<event>
11    7  0.1497947E-008  0.1325307E+04  0.7818608E-02  0.9009734E-01
          2   -1    0    0  501    0  0.00000000000E+00  0.00000000000E+00  0.18286031532E+04  0.18286031532E+04  0.00000000000E+00 0. -1.
         -1   -1    0    0    0  501 -0.00000000000E+00 -0.00000000000E+00 -0.24013380221E+03  0.24013380221E+03  0.00000000000E+00 0.  1.
         24    2    1    2    0    0 -0.21493616770E+03  0.27525067371E+03  0.37683650425E+03  0.51868571707E+03  0.71194329759E+02 0.  0.
        254    2    1    2    0    0  0.21493616770E+03 -0.27525067371E+03  0.12116328468E+04  0.15500512384E+04  0.90146780123E+03 0.  0.
         23    2    4    4    0    0 -0.30565958764E+03  0.67517129724E+02  0.47423383536E+03  0.57583432743E+03  0.93279664015E+02 0.  0.
          4    1    3    3  502    0 -0.16337535564E+03  0.17263749939E+03  0.28850331297E+03  0.37380392537E+03  0.00000000000E+00 0. -1.
         -3    1    3    3    0  502 -0.51560812062E+02  0.10261317432E+03  0.88333191282E+02  0.14488179170E+03  0.00000000000E+00 0.  1.
         13    1    5    5    0    0 -0.10750600673E+03  0.22575154607E+01  0.23486921513E+03  0.25831412287E+03  0.00000000000E+00 0. -1.
        -13    1    5    5    0    0 -0.19815358092E+03  0.65259614264E+02  0.23936462023E+03  0.31752020456E+03  0.00000000000E+00 0.  1.
          3    1    4    4  503    0  0.46944356836E+03 -0.28535409189E+03  0.57906469974E+03  0.79819806321E+03  0.00000000000E+00 0. -1.
         -3    1    4    4    0  503  0.51152186982E+02 -0.57413711548E+02  0.15833431165E+03  0.17601884772E+03  0.00000000000E+00 0.  1.
<mgrwt>
<rscale>  0 0.13253066E+04</rscale>
<asrwt>0</asrwt>
<pdfrwt beam="1">  1        2 0.28132355E+00 0.13253066E+04</pdfrwt>
<pdfrwt beam="2">  1       -1 0.36943663E-01 0.13253066E+04</pdfrwt>
<totfact> 0.65289711E+01</totfact>
</mgrwt>
</event>
<event>
12    7  0.1497947E-008  0.1929690E+04  0.7818608E-02  0.8640217E-01
         -1   -1    0    0    0  501 -0.00000000000E+00  0.00000000000E+00  0.52017787202E+03  0.52017787202E+03  0.00000000000E+00 0.  1.
          2   -1    0    0  501    0  0.00000000000E+00 -0.00000000000E+00 -0.17896299902E+04  0.17896299902E+04  0.00000000000E+00 0. -1.
         24    2    1    2    0    0 -0.70844716961E+03  0.23559779652E+03 -0.37562968353E+03  0.83943647613E+03  0.78436117022E+02 0.  0.
        254    2    1    2    0    0  0.70844716961E+03 -0.23559779652E+03 -0.89382243466E+03  0.14703713861E+04  0.89759108425E+03 0.  0.
         23    2    4    4    0    0  0.36991624660E+03 -0.27202062352E+03  0.38954728872E+02  0.47139479463E+03  0.99309276453E+02 0.  0.
         23    2    4    4    0    0  0.33853092301E+03  0.36422826995E+02 -0.93277716353E+03  0.99897659147E+03  0.10932147706E+03 0.  0.
          4    1    3    3  502    0 -0.64877493697E+03  0.22463839015E+03 -0.32142913268E+03  0.75808179803E+03  0.00000000000E+00 0. -1.
         -3    1    3    3    0  502 -0.59672232635E+02  0.10959406375E+02 -0.54200550847E+02  0.81354678095E+02  0.00000000000E+00 0.  1.
         13    1    5    5    0    0  0.32852817261E+03 -0.19816737285E+03  0.17540242658E+02  0.38406865008E+03  0.00000000000E+00 0. -1.
        -13    1    5    5    0    0  0.41388073983E+02 -0.73853250668E+02  0.21414486214E+02  0.87326144551E+02  0.00000000000E+00 0.  1.
          4    1    6    6  503    0  0.31217323450E+03  0.64327234305E+02 -0.81532875690E+03  0.87541481781E+03  0.00000000000E+00 0. -1.
         -4    1    6    6    0  503  0.26357688513E+02 -0.27904407310E+02 -0.11744840664E+03  0.12356177367E+03  0.00000000000E+00 0.  1.
<mgrwt>
<rscale>  0 0.19296900E+04</rscale>
<asrwt>0</asrwt>
<pdfrwt beam="1">  1        2 0.27532769E+00 0.19296900E+04</pdfrwt>
<pdfrwt beam="2">  1       -1 0.80027365E-01 0.19296900E+04</pdfrwt>
<totfact> 0.14502525E+01</totfact>
</mgrwt>
</event>
<event>
11    7  0.1497947E-008  0.1258561E+04  0.7818608E-02  0.9063088E-01
         -1   -1    0    0    0  501 -0.00000000000E+00  0.00000000000E+00  0.50956808319E+03  0.50956808319E+03  0.00000000000E+00 0.  1.
          2   -1    0    0  501    0  0.00000000000E+00 -0.00000000000E+00 -0.77711722080E+03  0.77711722080E+03  0.00000000000E+00 0. -1.
         24    2    1    2    0    0  0.84244514253E+02 -0.68526463578E+02  0.21491242206E+03  0.25434464544E+03  0.81919686968E+02 0.  0.
        254    2    1    2    0    0 -0.84244514253E+02  0.68526463578E+02 -0.48246155968E+03  0.10323406586E+04  0.90618158465E+03 0.  0.
         23    2    4    4    0    0  0.37329631381E+01  0.29038169443E+03  0.11934119784E+03  0.32712955514E+03  0.91847487006E+02 0.  0.
          4    1    3    3  502    0  0.90766909591E+02 -0.28106068423E+02  0.14649724585E+03  0.17461393415E+03  0.00000000000E+00 0. -1.
         -3    1    3    3    0  502 -0.65223953372E+01 -0.40420395156E+02  0.68415176217E+02  0.79730711286E+02  0.00000000000E+00 0.  1.
         13    1    5    5    0    0 -0.38738691830E+02  0.20490066381E+03  0.72230036079E+02  0.22068562795E+03  0.00000000000E+00 0. -1.
        -13    1    5    5    0    0  0.42471654968E+02  0.85481030624E+02  0.47111161760E+02  0.10644392719E+03  0.00000000000E+00 0.  1.
          2    1    4    4  503    0  0.88875174509E+02 -0.26646817263E+02 -0.88272350744E+02  0.12806583237E+03  0.00000000000E+00 0.  1.
         -2    1    4    4    0  503 -0.17685265190E+03 -0.19520841359E+03 -0.51353040677E+03  0.57714527105E+03  0.00000000000E+00 0. -1.
<mgrwt>
<rscale>  0 0.12585613E+04</rscale>
<asrwt>0</asrwt>
<pdfrwt beam="1">  1        2 0.11955650E+00 0.12585613E+04</pdfrwt>
<pdfrwt beam="2">  1       -1 0.78395090E-01 0.12585613E+04</pdfrwt>
<totfact> 0.65456695E+01</totfact>
</mgrwt>
</event>
<event>
11    7  0.1497947E-008  0.2630044E+04  0.7818608E-02  0.8358067E-01
          2   -1    0    0  501    0  0.00000000000E+00  0.00000000000E+00  0.19850312699E+04  0.19850312699E+04  0.00000000000E+00 0. -1.
         -1   -1    0    0    0  501 -0.00000000000E+00 -0.00000000000E+00 -0.87116139777E+03  0.87116139777E+03  0.00000000000E+00 0.  1.
         24    2    1    2    0    0 -0.28847802316E+03  0.72261395830E+03  0.14346458393E+04  0.16340414341E+04  0.80574324359E+02 0.  0.
        254    2    1    2    0    0  0.28847802316E+03 -0.72261395830E+03 -0.32077596718E+03  0.12221512335E+04  0.88620873042E+03 0.  0.
         23    2    4    4    0    0 -0.17328154443E+03 -0.23847520380E+02 -0.21567453165E+03  0.29266194079E+03  0.92413798303E+02 0.  0.
          4    1    3    3  502    0 -0.14421472029E+03  0.30833979727E+03  0.70030806922E+03  0.77865442139E+03  0.00000000000E+00 0. -1.
         -3    1    3    3    0  502 -0.14426330287E+03  0.41427416103E+03  0.73433777006E+03  0.85538701275E+03  0.00000000000E+00 0.  1.
         13    1    5    5    0    0 -0.12568398816E+03 -0.41610138428E+02 -0.98711668403E+02  0.16514194494E+03  0.00000000000E+00 0. -1.
        -13    1    5    5    0    0 -0.47597556272E+02  0.17762618048E+02 -0.11696286325E+03  0.12751999585E+03  0.00000000000E+00 0.  1.
          3    1    4    4  503    0  0.22527507139E+03 -0.22966290683E+03 -0.22254862892E+03  0.39118001074E+03  0.00000000000E+00 0. -1.
         -3    1    4    4    0  503  0.23648449621E+03 -0.46910353109E+03  0.11744719340E+03  0.53830928198E+03  0.00000000000E+00 0.  1.
<mgrwt>
<rscale>  0 0.26300438E+04</rscale>
<asrwt>0</asrwt>
<pdfrwt beam="1">  1        2 0.30538943E+00 0.26300438E+04</pdfrwt>
<pdfrwt beam="2">  1       -1 0.13402483E+00 0.26300438E+04</pdfrwt>
<totfact> 0.32086146E+00</totfact>
</mgrwt>
</event>
<event>
12    7  0.1497947E-008  0.2307565E+04  0.7818608E-02  0.8474944E-01
          2   -1    0    0  501    0  0.00000000000E+00  0.00000000000E+00  0.17335724666E+04  0.17335724666E+04  0.00000000000E+00 0. -1.
         -1   -1    0    0    0  501 -0.00000000000E+00 -0.00000000000E+00 -0.76790238458E+03  0.76790238458E+03  0.00000000000E+00 0.  1.
         24    2    1    2    0    0 -0.78290486334E+03 -0.41389708549E+03  0.84827825478E+03  0.12287003804E+04  0.76666843446E+02 0.  0.
        254    2    1    2    0    0  0.78290486334E+03  0.41389708549E+03  0.11739182724E+03  0.12727744708E+04  0.90659979588E+03 0.  0.
         23    2    4    4    0    0  0.35101937439E+03 -0.12511993279E+02  0.44539736532E+03  0.57453214305E+03  0.91308374205E+02 0.  0.
         23    2    4    4    0    0  0.43188548895E+03  0.42640907877E+03 -0.32800553808E+03  0.69824232770E+03  0.10772621389E+03 0.  0.
          2    1    3    3  502    0 -0.61077578837E+03 -0.29126528919E+03  0.66918518742E+03  0.95167817428E+03  0.00000000000E+00 0. -1.
         -1    1    3    3    0  502 -0.17212907496E+03 -0.12263179631E+03  0.17909306737E+03  0.27702220613E+03  0.00000000000E+00 0.  1.
         13    1    5    5    0    0  0.46972414301E+02 -0.21536705309E+02  0.11127044305E+03  0.12268393895E+03  0.00000000000E+00 0.  1.
        -13    1    5    5    0    0  0.30404696009E+03  0.90247120302E+01  0.33412692227E+03  0.45184820410E+03  0.00000000000E+00 0. -1.
          4    1    6    6  503    0  0.31930698388E+03  0.27460546922E+03 -0.27113454799E+03  0.50087828541E+03  0.00000000000E+00 0. -1.
         -4    1    6    6    0  503  0.11257850507E+03  0.15180360956E+03 -0.56870990092E+02  0.19736404230E+03  0.00000000000E+00 0.  1.
<mgrwt>
<rscale>  0 0.23075653E+04</rscale>
<asrwt>0</asrwt>
<pdfrwt beam="1">  1        2 0.26670345E+00 0.23075653E+04</pdfrwt>
<pdfrwt beam="2">  1       -1 0.11813883E+00 0.23075653E+04</pdfrwt>
<totfact> 0.62333497E+00</totfact>
</mgrwt>
</event>
<event>
12    7  0.1497947E-008  0.1222671E+04  0.7818608E-02  0.9093241E-01
         -3   -1    0    0    0  501 -0.00000000000E+00  0.00000000000E+00  0.12184595607E+03  0.12184595607E+03  0.00000000000E+00 0.  1.
          2   -1    0    0  501    0  0.00000000000E+00 -0.00000000000E+00 -0.30672415896E+04  0.30672415896E+04  0.00000000000E+00 0. -1.
         24    2    1    2    0    0 -0.17868603156E+03  0.59360349034E+02 -0.16983278840E+03  0.26551138331E+03  0.78744966436E+02 0.  0.
        254    2    1    2    0    0  0.17868603156E+03 -0.59360349034E+02 -0.27755628452E+04  0.29235761624E+04  0.89894166718E+03 0.  0.
         23    2    4    4    0    0 -0.16787616628E+03 -0.36646229288E+03 -0.16611696371E+04  0.17119813593E+04  0.94438298585E+02 0.  0.
         23    2    4    4    0    0  0.34656219784E+03  0.30710194385E+03 -0.11143932081E+04  0.12115948031E+04  0.10804065769E+03 0.  0.
          2    1    3    3  502    0 -0.10388956527E+03  0.44179586319E+02 -0.14797391531E+03  0.18612135083E+03  0.00000000000E+00 0. -1.
         -1    1    3    3    0  502 -0.74796466285E+02  0.15180762715E+02 -0.21858873092E+02  0.79390032486E+02  0.00000000000E+00 0.  1.
         13    1    5    5    0    0 -0.13388285365E+02 -0.13528339260E+03 -0.55054796619E+03  0.56708368481E+03  0.00000000000E+00 0.  1.
        -13    1    5    5    0    0 -0.15448788092E+03 -0.23117890028E+03 -0.11106216709E+04  0.11448976745E+04  0.00000000000E+00 0. -1.
          2    1    6    6  503    0  0.28358448255E+03  0.20542407535E+03 -0.74222733064E+03  0.82068302031E+03  0.00000000000E+00 0. -1.
         -2    1    6    6    0  503  0.62977715289E+02  0.10167786849E+03 -0.37216587746E+03  0.39091178277E+03  0.00000000000E+00 0.  1.
<mgrwt>
<rscale>  0 0.12226708E+04</rscale>
<asrwt>0</asrwt>
<pdfrwt beam="1">  1        2 0.47188331E+00 0.12226708E+04</pdfrwt>
<pdfrwt beam="2">  1       -3 0.18745532E-01 0.12226708E+04</pdfrwt>
<totfact> 0.26630272E+01</totfact>
</mgrwt>
</event>
<event>
12    7  0.1497947E-008  0.1851621E+04  0.7818608E-02  0.8679320E-01
         -1   -1    0    0    0  501 -0.00000000000E+00  0.00000000000E+00  0.71686296165E+03  0.71686296165E+03  0.00000000000E+00 0.  1.
          2   -1    0    0  501    0  0.00000000000E+00 -0.00000000000E+00 -0.11956611829E+04  0.11956611829E+04  0.00000000000E+00 0. -1.
         24    2    1    2    0    0 -0.32769935810E+03 -0.60722756285E+03 -0.31064705170E+03  0.76086415220E+03  0.79375594417E+02 0.  0.
        254    2    1    2    0    0  0.32769935810E+03  0.60722756285E+03 -0.16815116953E+03  0.11516599923E+04  0.90660561423E+03 0.  0.
         23    2    4    4    0    0  0.18160253422E+03 -0.88256686475E+02  0.23849399001E+03  0.32601703065E+03  0.92946209516E+02 0.  0.
         23    2    4    4    0    0  0.14609682388E+03  0.69548424932E+03 -0.40664515954E+03  0.82564296169E+03  0.10622330912E+03 0.  0.
          4    1    3    3  502    0 -0.22415359605E+02 -0.17722103895E+02 -0.25696274796E+02  0.38429413879E+02  0.00000000000E+00 0. -1.
         -3    1    3    3    0  502 -0.30528399849E+03 -0.58950545895E+03 -0.28495077691E+03  0.72243473832E+03  0.00000000000E+00 0.  1.
         13    1    5    5    0    0  0.10628144480E+03 -0.99658874551E+02  0.14716455074E+03  0.20708703914E+03  0.00000000000E+00 0. -1.
        -13    1    5    5    0    0  0.75321089410E+02  0.11402188076E+02  0.91329439274E+02  0.11892999151E+03  0.00000000000E+00 0.  1.
          3    1    6    6  503    0  0.10246645705E+03  0.40764449977E+03 -0.29648573200E+03  0.51437068569E+03  0.00000000000E+00 0. -1.
         -3    1    6    6    0  503  0.43630366836E+02  0.28783974955E+03 -0.11015942755E+03  0.31127227600E+03  0.00000000000E+00 0.  1.
<mgrwt>
<rscale>  0 0.18516211E+04</rscale>
<asrwt>0</asrwt>
<pdfrwt beam="1">  1        2 0.18394787E+00 0.18516211E+04</pdfrwt>
<pdfrwt beam="2">  1       -1 0.11028661E+00 0.18516211E+04</pdfrwt>
<totfact> 0.15495488E+01</totfact>
</mgrwt>
</event>
<event>
11    7  0.1497947E-008  0.1623907E+04  0.7818608E-02  0.8805994E-01
          2   -1    0    0  501    0  0.00000000000E+00  0.00000000000E+00  0.14699881092E+04  0.14699881092E+04  0.00000000000E+00 0. -1.
         -1   -1    0    0    0  501 -0.00000000000E+00 -0.00000000000E+00 -0.44848548131E+03  0.44848548131E+03  0.00000000000E+00 0.  1.
         24    2    1    2    0    0 -0.10721899088E+03  0.41328572464E+03 -0.77768961492E+02  0.44117072799E+03  0.79262839158E+02 0.  0.
        254    2    1    2    0    0  0.10721899088E+03 -0.41328572464E+03  0.10992715894E+04  0.14773028626E+04  0.88978914257E+03 0.  0.
         23    2    4    4    0    0  0.34140548983E+03  0.54743584359E+02  0.33676456047E+03  0.49129070091E+03  0.91660324563E+02 0.  0.
          4    1    3    3  502    0 -0.23677907084E+01  0.91285170906E+02  0.85079991064E+01  0.91711367392E+02  0.00000000000E+00 0. -1.
         -3    1    3    3    0  502 -0.10485120017E+03  0.32200055373E+03 -0.86276960598E+02  0.34945936060E+03  0.00000000000E+00 0.  1.
         13    1    5    5    0    0  0.34592808947E+03  0.57296336638E+02  0.33666089158E+03  0.48609635793E+03  0.00000000000E+00 0. -1.
        -13    1    5    5    0    0 -0.45225996424E+01 -0.25527522791E+01  0.10366889062E+00  0.51943429770E+01  0.00000000000E+00 0.  1.
          4    1    4    4  503    0 -0.28325553545E+03 -0.47103760383E+03  0.75846478988E+03  0.93668509120E+03  0.00000000000E+00 0. -1.
         -4    1    4    4    0  503  0.49069036509E+02  0.30082948365E+01  0.40422390553E+01  0.49327070441E+02  0.00000000000E+00 0.  1.
<mgrwt>
<rscale>  0 0.16239068E+04</rscale>
<asrwt>0</asrwt>
<pdfrwt beam="1">  1        2 0.22615201E+00 0.16239068E+04</pdfrwt>
<pdfrwt beam="2">  1       -1 0.68997767E-01 0.16239068E+04</pdfrwt>
<totfact> 0.30600398E+01</totfact>
</mgrwt>
</event>
<event>
12    7  0.1497947E-008  0.1721233E+04  0.7818608E-02  0.8749346E-01
         -1   -1    0    0    0  501 -0.00000000000E+00  0.00000000000E+00  0.10914360159E+04  0.10914360159E+04  0.00000000000E+00 0.  1.
          2   -1    0    0  501    0  0.00000000000E+00 -0.00000000000E+00 -0.67861098579E+03  0.67861098579E+03  0.00000000000E+00 0. -1.
         24    2    1    2    0    0 -0.30155368143E+03  0.39580282878E+03  0.53020680894E+03  0.73100552538E+03  0.75201834038E+02 0.  0.
        254    2    1    2    0    0  0.30155368143E+03 -0.39580282878E+03 -0.11738177886E+03  0.10390414763E+04  0.90456299138E+03 0.  0.
         23    2    4    4    0    0  0.28895041935E+03 -0.18567575862E+03  0.35791473883E+03  0.50405497990E+03  0.89446242587E+02 0.  0.
         23    2    4    4    0    0  0.12603262078E+02 -0.21012707015E+03 -0.47529651769E+03  0.53498649638E+03  0.12645767573E+03 0.  0.
          2    1    3    3  502    0 -0.12502929654E+03  0.11192207248E+03  0.15435385334E+03  0.22799997224E+03  0.00000000000E+00 0. -1.
         -1    1    3    3    0  502 -0.17652438488E+03  0.28388075630E+03  0.37585295560E+03  0.50300555314E+03  0.00000000000E+00 0.  1.
         13    1    5    5    0    0  0.62645630427E+02 -0.20300785628E+02  0.11789359528E+03  0.13503887113E+03  0.00000000000E+00 0.  1.
        -13    1    5    5    0    0  0.22630478892E+03 -0.16537497299E+03  0.24002114355E+03  0.36901610877E+03  0.00000000000E+00 0. -1.
          4    1    6    6  503    0  0.68073646956E+02 -0.10973923057E+03 -0.21983255156E+03  0.25495699806E+03  0.00000000000E+00 0.  1.
         -4    1    6    6    0  503 -0.55470384878E+02 -0.10038783958E+03 -0.25546396613E+03  0.28002949831E+03  0.00000000000E+00 0. -1.
<mgrwt>
<rscale>  0 0.17212327E+04</rscale>
<asrwt>0</asrwt>
<pdfrwt beam="1">  1        2 0.10440169E+00 0.17212327E+04</pdfrwt>
<pdfrwt beam="2">  1       -1 0.16791323E+00 0.17212327E+04</pdfrwt>
<totfact> 0.11785027E+01</totfact>
</mgrwt>
</event>
<event>
12    7  0.1497947E-008  0.1960427E+04  0.7818608E-02  0.8625349E-01
         -1   -1    0    0    0  501 -0.00000000000E+00  0.00000000000E+00  0.73451248931E+03  0.73451248931E+03  0.00000000000E+00 0.  1.
          2   -1    0    0  501    0  0.00000000000E+00 -0.00000000000E+00 -0.13081038605E+04  0.13081038605E+04  0.00000000000E+00 0. -1.
         24    2    1    2    0    0 -0.46853410827E+03 -0.58592783011E+02 -0.86530035674E+03  0.98902085085E+03  0.80375439126E+02 0.  0.
        254    2    1    2    0    0  0.46853410827E+03  0.58592783011E+02  0.29170898555E+03  0.10535954990E+04  0.89555123714E+03 0.  0.
         23    2    4    4    0    0  0.19082219605E+03 -0.39656316404E+03  0.22979828844E+03  0.50478180165E+03  0.91224779161E+02 0.  0.
         23    2    4    4    0    0  0.27771191222E+03  0.45515594705E+03  0.61910697117E+02  0.54881369731E+03  0.11433589817E+03 0.  0.
          2    1    3    3  502    0 -0.22290981775E+03 -0.17784947189E+02 -0.49028059449E+03  0.53886932788E+03  0.00000000000E+00 0. -1.
         -1    1    3    3    0  502 -0.24562429051E+03 -0.40807835822E+02 -0.37501976225E+03  0.45015152297E+03  0.00000000000E+00 0.  1.
         13    1    5    5    0    0  0.16769084826E+03 -0.34081842043E+03  0.15906621484E+03  0.41180028776E+03  0.00000000000E+00 0.  1.
        -13    1    5    5    0    0  0.23131347785E+02 -0.55744743605E+02  0.70732073593E+02  0.92981513887E+02  0.00000000000E+00 0. -1.
          1    1    6    6  503    0  0.49661072481E+02  0.25889706300E+02  0.25000712090E+02  0.61331351015E+02  0.00000000000E+00 0. -1.
         -1    1    6    6    0  503  0.22805083974E+03  0.42926624075E+03  0.36909985027E+02  0.48748234629E+03  0.00000000000E+00 0.  1.
<mgrwt>
<rscale>  0 0.19604271E+04</rscale>
<asrwt>0</asrwt>
<pdfrwt beam="1">  1        2 0.20124675E+00 0.19604271E+04</pdfrwt>
<pdfrwt beam="2">  1       -1 0.11300192E+00 0.19604271E+04</pdfrwt>
<totfact> 0.12437168E+01</totfact>
</mgrwt>
</event>
<event>
12    7  0.1497947E-008  0.1517457E+04  0.7818608E-02  0.8872927E-01
         -1   -1    0    0    0  501 -0.00000000000E+00  0.00000000000E+00  0.47582071042E+03  0.47582071042E+03  0.00000000000E+00 0.  1.
          2   -1    0    0  501    0  0.00000000000E+00 -0.00000000000E+00 -0.12098438334E+04  0.12098438334E+04  0.00000000000E+00 0. -1.
         24    2    1    2    0    0 -0.33637757006E+03  0.35256653295E+03 -0.18070796491E+03  0.52573868971E+03  0.79326990844E+02 0.  0.
        254    2    1    2    0    0  0.33637757006E+03 -0.35256653295E+03 -0.55331515805E+03  0.11599258541E+04  0.89544251243E+03 0.  0.
         23    2    4    4    0    0  0.80766825674E+02  0.42399650233E+02 -0.65483786431E+03  0.66739178126E+03  0.90984343119E+02 0.  0.
         23    2    4    4    0    0  0.25561074439E+03 -0.39496618318E+03  0.10152270626E+03  0.49253407283E+03  0.10463180448E+03 0.  0.
          4    1    3    3  502    0 -0.23900325760E+02  0.53907426558E+02 -0.39637241713E+02  0.71051721585E+02  0.00000000000E+00 0. -1.
         -3    1    3    3    0  502 -0.31247724430E+03  0.29865910639E+03 -0.14107072320E+03  0.45468696812E+03  0.00000000000E+00 0.  1.
         13    1    5    5    0    0  0.24424282168E+02  0.22265584215E+02 -0.52146669660E+02  0.61737970136E+02  0.00000000000E+00 0. -1.
        -13    1    5    5    0    0  0.56342543506E+02  0.20134066018E+02 -0.60269119465E+03  0.60565381112E+03  0.00000000000E+00 0.  1.
          2    1    6    6  503    0  0.63795288322E+01 -0.65777895504E+02 -0.45187553333E+01  0.66240841441E+02  0.00000000000E+00 0. -1.
         -2    1    6    6    0  503  0.24923121556E+03 -0.32918828768E+03  0.10604146159E+03  0.42629323139E+03  0.00000000000E+00 0.  1.
<mgrwt>
<rscale>  0 0.15174568E+04</rscale>
<asrwt>0</asrwt>
<pdfrwt beam="1">  1        2 0.18612982E+00 0.15174568E+04</pdfrwt>
<pdfrwt beam="2">  1       -1 0.73203188E-01 0.15174568E+04</pdfrwt>
<totfact> 0.38670067E+01</totfact>
</mgrwt>
</event>
<event>
12    7  0.1497947E-008  0.2137004E+04  0.7818608E-02  0.8545116E-01
         -1   -1    0    0    0  501 -0.00000000000E+00  0.00000000000E+00  0.18471761603E+04  0.18471761603E+04  0.00000000000E+00 0.  1.
          2   -1    0    0  501    0  0.00000000000E+00 -0.00000000000E+00 -0.61807640316E+03  0.61807640316E+03  0.00000000000E+00 0. -1.
         24    2    1    2    0    0  0.67556778091E+03  0.89976748137E+02 -0.12889750012E+03  0.69824488626E+03  0.80272746543E+02 0.  0.
        254    2    1    2    0    0 -0.67556778091E+03 -0.89976748137E+02  0.13579972573E+04  0.17670076772E+04  0.90203765929E+03 0.  0.
         23    2    4    4    0    0 -0.54968320938E+03 -0.58802854808E+01  0.14526663406E+04  0.15559409161E+04  0.92338663552E+02 0.  0.
         23    2    4    4    0    0 -0.12588457153E+03 -0.84096462656E+02 -0.94669083366E+02  0.21106676110E+03  0.11255133014E+03 0.  0.
          4    1    3    3  502    0  0.46162355572E+03  0.45363208596E+02 -0.52863036118E+02  0.46684968510E+03  0.00000000000E+00 0. -1.
         -3    1    3    3    0  502  0.21394422519E+03  0.44613539541E+02 -0.76034464002E+02  0.23139520116E+03  0.00000000000E+00 0.  1.
         13    1    5    5    0    0 -0.91011973360E+02  0.93200779592E+01  0.16111245422E+03  0.18527618857E+03  0.00000000000E+00 0. -1.
        -13    1    5    5    0    0 -0.45867123602E+03 -0.15200363440E+02  0.12915538864E+04  0.13706647275E+04  0.00000000000E+00 0.  1.
          1    1    6    6  503    0 -0.10152254760E+03 -0.84999161529E+02 -0.11797441633E+03  0.17734048618E+03  0.00000000000E+00 0.  1.
         -1    1    6    6    0  503 -0.24362023932E+02  0.90269887330E+00  0.23305332963E+02  0.33726274918E+02  0.00000000000E+00 0. -1.
<mgrwt>
<rscale>  0 0.21370035E+04</rscale>
<asrwt>0</asrwt>
<pdfrwt beam="1">  1        2 0.95088678E-01 0.21370035E+04</pdfrwt>
<pdfrwt beam="2">  1       -1 0.28418095E+00 0.21370035E+04</pdfrwt>
<totfact> 0.20987843E+00</totfact>
</mgrwt>
</event>
<event>
12    7  0.1497947E-008  0.2127155E+04  0.7818608E-02  0.8549375E-01
          2   -1    0    0  501    0  0.00000000000E+00  0.00000000000E+00  0.93914099175E+03  0.93914099175E+03  0.00000000000E+00 0. -1.
         -1   -1    0    0    0  501 -0.00000000000E+00 -0.00000000000E+00 -0.12045021408E+04  0.12045021408E+04  0.00000000000E+00 0.  1.
         24    2    1    2    0    0 -0.64911377878E+03  0.37925705764E+03  0.34400104062E+03  0.83084576060E+03  0.82361085327E+02 0.  0.
        254    2    1    2    0    0  0.64911377878E+03 -0.37925705764E+03 -0.60936218969E+03  0.13127973720E+04  0.88709077781E+03 0.  0.
         23    2    4    4    0    0 -0.59203357120E+02 -0.37430574604E+03 -0.41001080536E+03  0.56586979713E+03  0.92140858344E+02 0.  0.
         23    2    4    4    0    0  0.70831713590E+03 -0.49513116057E+01 -0.19935138433E+03  0.74692757485E+03  0.12814892565E+03 0.  0.
          4    1    3    3  502    0 -0.16530372479E+02  0.19148169393E+02 -0.10160666315E+01  0.25316753283E+02  0.00000000000E+00 0. -1.
         -3    1    3    3    0  502 -0.63258340630E+03  0.36010888825E+03  0.34501710725E+03  0.80552900731E+03  0.00000000000E+00 0.  1.
         13    1    5    5    0    0 -0.65762179882E+02 -0.37541059135E+03 -0.39230583717E+03  0.54695671335E+03  0.00000000000E+00 0. -1.
        -13    1    5    5    0    0  0.65588227626E+01  0.11048453172E+01 -0.17704968189E+02  0.18913083772E+02  0.00000000000E+00 0.  1.
          2    1    6    6  503    0  0.60496780266E+03  0.12591511610E+02 -0.12359765737E+03  0.61759288316E+03  0.00000000000E+00 0. -1.
         -2    1    6    6    0  503  0.10334933324E+03 -0.17542823216E+02 -0.75753726959E+02  0.12933469169E+03  0.00000000000E+00 0.  1.
<mgrwt>
<rscale>  0 0.21271552E+04</rscale>
<asrwt>0</asrwt>
<pdfrwt beam="1">  1        2 0.14448323E+00 0.21271552E+04</pdfrwt>
<pdfrwt beam="2">  1       -1 0.18530802E+00 0.21271552E+04</pdfrwt>
<totfact> 0.55212624E+00</totfact>
</mgrwt>
</event>
<event>
12    7  0.1497947E-008  0.2531745E+04  0.7818608E-02  0.8391763E-01
         -1   -1    0    0    0  501 -0.00000000000E+00  0.00000000000E+00  0.16755923801E+04  0.16755923801E+04  0.00000000000E+00 0.  1.
          2   -1    0    0  501    0  0.00000000000E+00 -0.00000000000E+00 -0.95633830715E+03  0.95633830715E+03  0.00000000000E+00 0. -1.
         24    2    1    2    0    0 -0.13987555588E+03 -0.99028858880E+03  0.78357258795E+03  0.12733057459E+04  0.84171620964E+02 0.  0.
        254    2    1    2    0    0  0.13987555588E+03  0.99028858880E+03 -0.64318515038E+02  0.13586249413E+04  0.91732665910E+03 0.  0.
         23    2    4    4    0    0  0.40831782089E+03  0.21291020110E+03 -0.21948266082E+03  0.51865025694E+03  0.93654973368E+02 0.  0.
         23    2    4    4    0    0 -0.26844226501E+03  0.77737838770E+03  0.15516414578E+03  0.83997468435E+03  0.71436341669E+02 0.  0.
          2    1    3    3  502    0 -0.56826102458E+02 -0.19380463033E+03  0.13674258807E+03  0.24390157042E+03  0.00000000000E+00 0. -1.
         -1    1    3    3    0  502 -0.83049453424E+02 -0.79648395846E+03  0.64682999988E+03  0.10294041755E+04  0.00000000000E+00 0.  1.
         13    1    5    5    0    0  0.28071826109E+03  0.18484509546E+03 -0.13039708747E+03  0.36051886476E+03  0.00000000000E+00 0.  1.
        -13    1    5    5    0    0  0.12759955980E+03  0.28065105641E+02 -0.89085573345E+02  0.15813139218E+03  0.00000000000E+00 0. -1.
          1    1    6    6  503    0 -0.20526822381E+03  0.67137340518E+03  0.12820285170E+03  0.71366186956E+03  0.00000000000E+00 0. -1.
         -1    1    6    6    0  503 -0.63174041207E+02  0.10600498253E+03  0.26961294073E+02  0.12631281479E+03  0.00000000000E+00 0.  1.
<mgrwt>
<rscale>  0 0.25317450E+04</rscale>
<asrwt>0</asrwt>
<pdfrwt beam="1">  1        2 0.14712897E+00 0.25317450E+04</pdfrwt>
<pdfrwt beam="2">  1       -1 0.25778344E+00 0.25317450E+04</pdfrwt>
<totfact> 0.16916082E+00</totfact>
</mgrwt>
</event>
<event>
11    7  0.1497947E-008  0.2510691E+04  0.7818608E-02  0.8399187E-01
          2   -1    0    0  501    0  0.00000000000E+00  0.00000000000E+00  0.19574774974E+04  0.19574774974E+04  0.00000000000E+00 0. -1.
         -1   -1    0    0    0  501 -0.00000000000E+00 -0.00000000000E+00 -0.80506300572E+03  0.80506300572E+03  0.00000000000E+00 0.  1.
         24    2    1    2    0    0  0.44714729531E+03 -0.60586590261E+02  0.16113107185E+04  0.16758809445E+04  0.92969188838E+02 0.  0.
        254    2    1    2    0    0 -0.44714729531E+03  0.60586590261E+02 -0.45889622681E+03  0.10866595586E+04  0.87557513138E+03 0.  0.
         23    2    4    4    0    0 -0.60687277167E+03  0.23716995828E+03 -0.34990266975E+03  0.74559805714E+03  0.94553870366E+02 0.  0.
          2    1    3    3  502    0  0.32330552499E+03 -0.17908978885E+01  0.11029525023E+04  0.11493623850E+04  0.00000000000E+00 0. -1.
         -1    1    3    3    0  502  0.12384177033E+03 -0.58795692372E+02  0.50835821620E+03  0.52651855950E+03  0.00000000000E+00 0.  1.
         13    1    5    5    0    0 -0.97789237860E+01 -0.40995742637E+01  0.32962256599E+01  0.11104006626E+02  0.00000000000E+00 0. -1.
        -13    1    5    5    0    0 -0.59709384789E+03  0.24126953254E+03 -0.35319889541E+03  0.73449405051E+03  0.00000000000E+00 0.  1.
          4    1    4    4  503    0  0.17631968018E+03 -0.37405981488E+02 -0.39090214051E+02  0.18443394997E+03  0.00000000000E+00 0.  1.
         -4    1    4    4    0  503 -0.16594203817E+02 -0.13917738653E+03 -0.69903343002E+02  0.15662755149E+03  0.00000000000E+00 0. -1.
<mgrwt>
<rscale>  0 0.25106913E+04</rscale>
<asrwt>0</asrwt>
<pdfrwt beam="1">  1        2 0.30115038E+00 0.25106913E+04</pdfrwt>
<pdfrwt beam="2">  1       -1 0.12385585E+00 0.25106913E+04</pdfrwt>
<totfact> 0.40961376E+00</totfact>
</mgrwt>
</event>
<event>
12    7  0.1497947E-008  0.1403271E+04  0.7818608E-02  0.8951455E-01
         -1   -1    0    0    0  501 -0.00000000000E+00  0.00000000000E+00  0.43123903035E+03  0.43123903035E+03  0.00000000000E+00 0.  1.
          2   -1    0    0  501    0  0.00000000000E+00 -0.00000000000E+00 -0.11415758919E+04  0.11415758919E+04  0.00000000000E+00 0. -1.
         24    2    1    2    0    0 -0.18927973077E+02  0.34665423825E+03 -0.45336858829E+03  0.57618965522E+03  0.76967609209E+02 0.  0.
        254    2    1    2    0    0  0.18927973077E+02 -0.34665423825E+03 -0.25696827327E+03  0.99662526704E+03  0.89816579782E+03 0.  0.
         23    2    4    4    0    0  0.37583185047E+03 -0.34799651800E+03  0.48012400358E+02  0.52236479912E+03  0.90601525409E+02 0.  0.
         23    2    4    4    0    0 -0.35690387739E+03  0.13422797526E+01 -0.30498067362E+03  0.47426046791E+03  0.67287448538E+02 0.  0.
          4    1    3    3  502    0 -0.19901642255E+01  0.23368282805E+03 -0.24511949755E+03  0.33866678751E+03  0.00000000000E+00 0. -1.
         -3    1    3    3    0  502 -0.16937808852E+02  0.11297141020E+03 -0.20824909074E+03  0.23752286771E+03  0.00000000000E+00 0.  1.
         13    1    5    5    0    0  0.26590438497E+03 -0.19122740442E+03  0.47086053766E+02  0.33089297152E+03  0.00000000000E+00 0. -1.
        -13    1    5    5    0    0  0.10992746550E+03 -0.15676911359E+03  0.92634659207E+00  0.19147182760E+03  0.00000000000E+00 0.  1.
          1    1    6    6  503    0 -0.14663924516E+03 -0.32238151248E+02 -0.13222660720E+03  0.20006559491E+03  0.00000000000E+00 0. -1.
         -1    1    6    6    0  503 -0.21026463223E+03  0.33580431000E+02 -0.17275406643E+03  0.27419487300E+03  0.00000000000E+00 0.  1.
<mgrwt>
<rscale>  0 0.14032706E+04</rscale>
<asrwt>0</asrwt>
<pdfrwt beam="1">  1        2 0.17562706E+00 0.14032706E+04</pdfrwt>
<pdfrwt beam="2">  1       -1 0.66344467E-01 0.14032706E+04</pdfrwt>
<totfact> 0.52487261E+01</totfact>
</mgrwt>
</event>
<event>
12    7  0.1497947E-008  0.3957584E+04  0.7818608E-02  0.8013158E-01
          2   -1    0    0  501    0  0.00000000000E+00  0.00000000000E+00  0.17983534316E+04  0.17983534316E+04  0.00000000000E+00 0. -1.
         -1   -1    0    0    0  501 -0.00000000000E+00 -0.00000000000E+00 -0.21773354767E+04  0.21773354767E+04  0.00000000000E+00 0.  1.
         24    2    1    2    0    0  0.46983221035E+03 -0.14781304709E+04 -0.12443049681E+04  0.19900511664E+04  0.79979972642E+02 0.  0.
        254    2    1    2    0    0 -0.46983221035E+03  0.14781304709E+04  0.86532292303E+03  0.19856377420E+04  0.88789722725E+03 0.  0.
         23    2    4    4    0    0 -0.13463853697E+02  0.58523981028E+03  0.77590729320E+03  0.97627494110E+03  0.91617258645E+02 0.  0.
         23    2    4    4    0    0 -0.45636835665E+03  0.89289066066E+03  0.89415629826E+02  0.10093628009E+04  0.72748196159E+02 0.  0.
          4    1    3    3  502    0  0.15537997447E+01 -0.71651028009E+00  0.90931820099E+00  0.19376635979E+01  0.00000000000E+00 0. -1.
         -3    1    3    3    0  502  0.46827841060E+03 -0.14774139607E+04 -0.12452142863E+04  0.19881135028E+04  0.00000000000E+00 0.  1.
         13    1    5    5    0    0 -0.20798993413E+02  0.20694401969E+03  0.34483573001E+03  0.40270349651E+03  0.00000000000E+00 0.  1.
        -13    1    5    5    0    0  0.73351397157E+01  0.37829579059E+03  0.43107156320E+03  0.57357144459E+03  0.00000000000E+00 0. -1.
          3    1    6    6  503    0 -0.14361650688E+03  0.25168004085E+03  0.56196572341E+02  0.29517215105E+03  0.00000000000E+00 0. -1.
         -3    1    6    6    0  503 -0.31275184977E+03  0.64121061980E+03  0.33219057485E+02  0.71419064980E+03  0.00000000000E+00 0.  1.
<mgrwt>
<rscale>  0 0.39575845E+04</rscale>
<asrwt>0</asrwt>
<pdfrwt beam="1">  1        2 0.27666976E+00 0.39575845E+04</pdfrwt>
<pdfrwt beam="2">  1       -1 0.33497469E+00 0.39575845E+04</pdfrwt>
<totfact> 0.15208450E-01</totfact>
</mgrwt>
</event>
<event>
11    7  0.1497947E-008  0.2669548E+04  0.7818608E-02  0.8344954E-01
          2   -1    0    0  501    0  0.00000000000E+00  0.00000000000E+00  0.18853760390E+04  0.18853760390E+04  0.00000000000E+00 0. -1.
         -1   -1    0    0    0  501 -0.00000000000E+00 -0.00000000000E+00 -0.94496860609E+03  0.94496860609E+03  0.00000000000E+00 0.  1.
         24    2    1    2    0    0  0.34015407526E+03 -0.98655699839E+03  0.10120232242E+04  0.14558530952E+04  0.79484102632E+02 0.  0.
        254    2    1    2    0    0 -0.34015407526E+03  0.98655699839E+03 -0.71615791266E+02  0.13744915499E+04  0.89168306767E+03 0.  0.
         23    2    4    4    0    0 -0.37618474948E+02  0.62294007439E+03 -0.43027250724E+03  0.76341349174E+03  0.90533104153E+02 0.  0.
          2    1    3    3  502    0  0.13791244687E+02 -0.70360668205E+02  0.46915952960E+02  0.85685055304E+02  0.00000000000E+00 0. -1.
         -1    1    3    3    0  502  0.32636283057E+03 -0.91619633019E+03  0.96510727125E+03  0.13701680399E+04  0.00000000000E+00 0.  1.
         13    1    5    5    0    0  0.11470666601E+02  0.44578182624E+03 -0.32239331057E+03  0.55026399073E+03  0.00000000000E+00 0. -1.
        -13    1    5    5    0    0 -0.49089141549E+02  0.17715824815E+03 -0.10787919667E+03  0.21314950101E+03  0.00000000000E+00 0.  1.
          1    1    4    4  503    0 -0.16419488334E+03  0.17756451854E+03  0.94619101994E+02  0.25969576897E+03  0.00000000000E+00 0. -1.
         -1    1    4    4    0  503 -0.13834071697E+03  0.18605240546E+03  0.26403761398E+03  0.35138228918E+03  0.00000000000E+00 0.  1.
<mgrwt>
<rscale>  0 0.26695477E+04</rscale>
<asrwt>0</asrwt>
<pdfrwt beam="1">  1        2 0.29005785E+00 0.26695477E+04</pdfrwt>
<pdfrwt beam="2">  1       -1 0.14537979E+00 0.26695477E+04</pdfrwt>
<totfact> 0.29379939E+00</totfact>
</mgrwt>
</event>
<event>
12    7  0.1497947E-008  0.1703841E+04  0.7818608E-02  0.8759177E-01
         -1   -1    0    0    0  501 -0.00000000000E+00  0.00000000000E+00  0.45184268330E+03  0.45184268330E+03  0.00000000000E+00 0.  1.
          2   -1    0    0  501    0  0.00000000000E+00 -0.00000000000E+00 -0.16062423731E+04  0.16062423731E+04  0.00000000000E+00 0. -1.
         24    2    1    2    0    0 -0.42369187499E+03  0.73344434724E+02  0.97427891567E+02  0.44813722777E+03  0.80253160857E+02 0.  0.
        254    2    1    2    0    0  0.42369187499E+03 -0.73344434724E+02 -0.12518275814E+04  0.16099478287E+04  0.91649632101E+03 0.  0.
         23    2    4    4    0    0 -0.21451848462E+02 -0.13864486619E+03 -0.11224227140E+04  0.11352562277E+04  0.96391767858E+02 0.  0.
         23    2    4    4    0    0  0.44514372345E+03  0.65300431462E+02 -0.12940486744E+03  0.47469160100E+03  0.78545626691E+02 0.  0.
          4    1    3    3  502    0 -0.21322944820E+03  0.74267325567E+02  0.66720782885E+02  0.23544446499E+03  0.00000000000E+00 0. -1.
         -1    1    3    3    0  502 -0.21046242679E+03 -0.92289084277E+00  0.30707108682E+02  0.21269276278E+03  0.00000000000E+00 0.  1.
         13    1    5    5    0    0 -0.26700351078E+02 -0.13387721393E+03 -0.11191526545E+04  0.11274478618E+04  0.00000000000E+00 0.  1.
        -13    1    5    5    0    0  0.52485026168E+01 -0.47676522601E+01 -0.32700594916E+01  0.78083658258E+01  0.00000000000E+00 0. -1.
          3    1    6    6  503    0  0.67582652701E+02  0.28022228324E+02 -0.45407584680E+02  0.86107543066E+02  0.00000000000E+00 0. -1.
         -3    1    6    6    0  503  0.37756107075E+03  0.37278203138E+02 -0.83997282761E+02  0.38858405794E+03  0.00000000000E+00 0.  1.
<mgrwt>
<rscale>  0 0.17038414E+04</rscale>
<asrwt>0</asrwt>
<pdfrwt beam="1">  1        2 0.24711421E+00 0.17038414E+04</pdfrwt>
<pdfrwt beam="2">  1       -1 0.69514258E-01 0.17038414E+04</pdfrwt>
<totfact> 0.25092491E+01</totfact>
</mgrwt>
</event>
<event>
12    7  0.1497947E-008  0.1549935E+04  0.7818608E-02  0.8851909E-01
         -1   -1    0    0    0  501 -0.00000000000E+00  0.00000000000E+00  0.70368471889E+03  0.70368471889E+03  0.00000000000E+00 0.  1.
          2   -1    0    0  501    0  0.00000000000E+00 -0.00000000000E+00 -0.85347119003E+03  0.85347119003E+03  0.00000000000E+00 0. -1.
         24    2    1    2    0    0 -0.41197385219E+03 -0.18357733953E+03  0.20071004151E+03  0.49992830890E+03  0.78871406709E+02 0.  0.
        254    2    1    2    0    0  0.41197385219E+03  0.18357733953E+03 -0.35049651264E+03  0.10572276000E+04  0.88963998247E+03 0.  0.
         23    2    4    4    0    0  0.33557167870E+03  0.31619125355E+03 -0.58756966775E+03  0.75274346198E+03  0.93804822542E+02 0.  0.
         23    2    4    4    0    0  0.76402173495E+02 -0.13261391403E+03  0.23707315510E+03  0.30448413804E+03  0.11438167310E+03 0.  0.
          4    1    3    3  502    0 -0.85863219702E+02 -0.25358900535E+02  0.73344490561E+02  0.11573668662E+03  0.00000000000E+00 0. -1.
         -1    1    3    3    0  502 -0.32611063249E+03 -0.15821843899E+03  0.12736555095E+03  0.38419162228E+03  0.00000000000E+00 0.  1.
         13    1    5    5    0    0  0.26191021638E+03  0.29285022410E+03 -0.47978676498E+03  0.62012382235E+03  0.00000000000E+00 0. -1.
        -13    1    5    5    0    0  0.73661462320E+02  0.23341029458E+02 -0.10778290276E+03  0.13261963963E+03  0.00000000000E+00 0.  1.
          2    1    6    6  503    0  0.17046572848E+02 -0.11938385863E+03  0.10835229062E+03  0.16212128247E+03  0.00000000000E+00 0. -1.
         -2    1    6    6    0  503  0.59355600647E+02 -0.13230055396E+02  0.12872086448E+03  0.14236285557E+03  0.00000000000E+00 0.  1.
<mgrwt>
<rscale>  0 0.15499350E+04</rscale>
<asrwt>0</asrwt>
<pdfrwt beam="1">  1        2 0.13130326E+00 0.15499350E+04</pdfrwt>
<pdfrwt beam="2">  1       -1 0.10825919E+00 0.15499350E+04</pdfrwt>
<totfact> 0.27490940E+01</totfact>
</mgrwt>
</event>
<event>
11    7  0.1497947E-008  0.1560684E+04  0.7818608E-02  0.8845072E-01
         -1   -1    0    0    0  501 -0.00000000000E+00  0.00000000000E+00  0.88060166687E+03  0.88060166687E+03  0.00000000000E+00 0.  1.
          2   -1    0    0  501    0  0.00000000000E+00 -0.00000000000E+00 -0.69149698994E+03  0.69149698994E+03  0.00000000000E+00 0. -1.
         24    2    1    2    0    0  0.43387836327E+03 -0.17065790473E+03 -0.57344072987E+02  0.47657125782E+03  0.80357118662E+02 0.  0.
        254    2    1    2    0    0 -0.43387836327E+03  0.17065790473E+03  0.24644874991E+03  0.10955273990E+04  0.96024410493E+03 0.  0.
         23    2    4    4    0    0 -0.13588266482E+02  0.40347083912E+03 -0.11540370234E+03  0.42953135644E+03  0.90585940684E+02 0.  0.
          2    1    3    3  502    0  0.33432422233E+03 -0.12738435737E+03 -0.77741449582E+02  0.36611909691E+03  0.00000000000E+00 0. -1.
         -1    1    3    3    0  502  0.99554140933E+02 -0.43273547354E+02  0.20397376594E+02  0.11045216091E+03  0.00000000000E+00 0.  1.
         13    1    5    5    0    0  0.29242697714E+02  0.52150093734E+02 -0.14966806903E+02  0.61634186576E+02  0.00000000000E+00 0. -1.
        -13    1    5    5    0    0 -0.42830964196E+02  0.35132074539E+03 -0.10043689544E+03  0.36789716987E+03  0.00000000000E+00 0.  1.
          1    1    4    4  503    0  0.80352062082E+01 -0.68909671577E+02 -0.16666498156E+02  0.71350399694E+02  0.00000000000E+00 0. -1.
         -1    1    4    4    0  503 -0.42832530299E+03 -0.16390326281E+03  0.37851895041E+03  0.59464564285E+03  0.00000000000E+00 0.  1.
<mgrwt>
<rscale>  0 0.15606837E+04</rscale>
<asrwt>0</asrwt>
<pdfrwt beam="1">  1        2 0.10638415E+00 0.15606837E+04</pdfrwt>
<pdfrwt beam="2">  1       -1 0.13547718E+00 0.15606837E+04</pdfrwt>
<totfact> 0.20870456E+01</totfact>
</mgrwt>
</event>
<event>
11    7  0.1497947E-008  0.1490866E+04  0.7818608E-02  0.8890550E-01
         -1   -1    0    0    0  501 -0.00000000000E+00  0.00000000000E+00  0.32748033089E+03  0.32748033089E+03  0.00000000000E+00 0.  1.
          2   -1    0    0  501    0  0.00000000000E+00 -0.00000000000E+00 -0.16968046880E+04  0.16968046880E+04  0.00000000000E+00 0. -1.
         24    2    1    2    0    0  0.29816322589E+03  0.22012697144E+03 -0.38787547572E+02  0.38018821787E+03  0.75375157255E+02 0.  0.
        254    2    1    2    0    0 -0.29816322589E+03 -0.22012697144E+03 -0.13305368096E+04  0.16440968011E+04  0.89183456806E+03 0.  0.
         23    2    4    4    0    0 -0.14845855662E+03  0.27659994348E+03 -0.19446051113E+03  0.38039595103E+03  0.91316577950E+02 0.  0.
          2    1    3    3  502    0  0.16313588306E+02  0.21655998309E+02 -0.22251140824E+02  0.35074616094E+02  0.00000000000E+00 0. -1.
         -1    1    3    3    0  502  0.28184963759E+03  0.19847097313E+03 -0.16536406748E+02  0.34511360177E+03  0.00000000000E+00 0.  1.
         13    1    5    5    0    0 -0.60503387175E+02  0.17726032619E+03 -0.15159236268E+03  0.24096084230E+03  0.00000000000E+00 0. -1.
        -13    1    5    5    0    0 -0.87955169442E+02  0.99339617289E+02 -0.42868148445E+02  0.13943510873E+03  0.00000000000E+00 0.  1.
          3    1    4    4  503    0 -0.40528138759E+02 -0.15579798409E+02 -0.30589356281E+02  0.53112793821E+02  0.00000000000E+00 0. -1.
         -3    1    4    4    0  503 -0.10917653052E+03 -0.48114711650E+03 -0.11054869422E+04  0.12105880562E+04  0.00000000000E+00 0.  1.
<mgrwt>
<rscale>  0 0.14908657E+04</rscale>
<asrwt>0</asrwt>
<pdfrwt beam="1">  1        2 0.26104688E+00 0.14908657E+04</pdfrwt>
<pdfrwt beam="2">  1       -1 0.50381589E-01 0.14908657E+04</pdfrwt>
<totfact> 0.42907728E+01</totfact>
</mgrwt>
</event>
<event>
12    7  0.1497947E-008  0.1527403E+04  0.7818608E-02  0.8866432E-01
          2   -1    0    0  501    0  0.00000000000E+00  0.00000000000E+00  0.12130458481E+04  0.12130458481E+04  0.00000000000E+00 0. -1.
         -1   -1    0    0    0  501 -0.00000000000E+00 -0.00000000000E+00 -0.48080640414E+03  0.48080640414E+03  0.00000000000E+00 0.  1.
         24    2    1    2    0    0 -0.20095915045E+03 -0.13478628790E+03  0.71931139057E+03  0.76305603954E+03  0.79332964919E+02 0.  0.
        254    2    1    2    0    0  0.20095915045E+03  0.13478628790E+03  0.12928053419E+02  0.93079621273E+03  0.89870046819E+03 0.  0.
         23    2    4    4    0    0  0.49524697818E+03  0.23108364093E+03 -0.13087652844E+03  0.56925143895E+03  0.90825748265E+02 0.  0.
         23    2    4    4    0    0 -0.29428782774E+03 -0.96297353032E+02  0.14380458186E+03  0.36154477378E+03  0.11898050231E+03 0.  0.
          4    1    3    3  502    0 -0.18484568895E+03 -0.91000444536E+02  0.61986562272E+03  0.65320930785E+03  0.00000000000E+00 0. -1.
         -3    1    3    3    0  502 -0.16113461495E+02 -0.43785843361E+02  0.99445767844E+02  0.10984673169E+03  0.00000000000E+00 0.  1.
         13    1    5    5    0    0  0.42270089778E+03  0.23043799016E+03 -0.11537967896E+03  0.49506584069E+03  0.00000000000E+00 0. -1.
        -13    1    5    5    0    0  0.72546080397E+02  0.64565076551E+00 -0.15496849481E+02  0.74185598264E+02  0.00000000000E+00 0.  1.
          1    1    6    6  503    0 -0.25973966914E+03 -0.38562307909E+02  0.98606554425E+02  0.28049064136E+03  0.00000000000E+00 0. -1.
         -1    1    6    6    0  503 -0.34548158593E+02 -0.57735045124E+02  0.45198027438E+02  0.81054132417E+02  0.00000000000E+00 0.  1.
<mgrwt>
<rscale>  0 0.15274033E+04</rscale>
<asrwt>0</asrwt>
<pdfrwt beam="1">  1        2 0.18662244E+00 0.15274033E+04</pdfrwt>
<pdfrwt beam="2">  1       -1 0.73970217E-01 0.15274033E+04</pdfrwt>
<totfact> 0.37644486E+01</totfact>
</mgrwt>
</event>
<event>
12    7  0.1497947E-008  0.2637989E+04  0.7818608E-02  0.8355410E-01
         -1   -1    0    0    0  501 -0.00000000000E+00  0.00000000000E+00  0.14995422585E+04  0.14995422585E+04  0.00000000000E+00 0.  1.
          2   -1    0    0  501    0  0.00000000000E+00 -0.00000000000E+00 -0.11601853599E+04  0.11601853599E+04  0.00000000000E+00 0. -1.
         24    2    1    2    0    0 -0.21980205667E+03 -0.38034385080E+02  0.13041307143E+04  0.13254500613E+04  0.79381272527E+02 0.  0.
        254    2    1    2    0    0  0.21980205667E+03  0.38034385080E+02 -0.96477381575E+03  0.13342775572E+04  0.89428660138E+03 0.  0.
         23    2    4    4    0    0 -0.70178034970E+02 -0.34777879841E+03 -0.18357492085E+03  0.40965735589E+03  0.90798394559E+02 0.  0.
         23    2    4    4    0    0  0.28998009164E+03  0.38581318349E+03 -0.78119889490E+03  0.92462020126E+03  0.10821523498E+03 0.  0.
          4    1    3    3  502    0 -0.51290453760E+02 -0.30759092494E+02  0.51719585936E+03  0.52064228541E+03  0.00000000000E+00 0. -1.
         -3    1    3    3    0  502 -0.16851160291E+03 -0.72752925868E+01  0.78693485496E+03  0.80480777590E+03  0.00000000000E+00 0.  1.
         13    1    5    5    0    0 -0.50075728250E+02 -0.28626626518E+03 -0.10768683366E+03  0.30992322804E+03  0.00000000000E+00 0. -1.
        -13    1    5    5    0    0 -0.20102306720E+02 -0.61512533239E+02 -0.75888087187E+02  0.99734127849E+02  0.00000000000E+00 0.  1.
          1    1    6    6  503    0  0.70029493498E+02  0.13816175240E+03 -0.17400841202E+03  0.23296293104E+03  0.00000000000E+00 0. -1.
         -1    1    6    6    0  503  0.21995059814E+03  0.24765143109E+03 -0.60719048289E+03  0.69165727022E+03  0.00000000000E+00 0.  1.
<mgrwt>
<rscale>  0 0.26379894E+04</rscale>
<asrwt>0</asrwt>
<pdfrwt beam="1">  1        2 0.17849006E+00 0.26379894E+04</pdfrwt>
<pdfrwt beam="2">  1       -1 0.23069881E+00 0.26379894E+04</pdfrwt>
<totfact> 0.18784040E+00</totfact>
</mgrwt>
</event>
<event>
12    7  0.1497947E-008  0.2406049E+04  0.7818608E-02  0.8437242E-01
         -1   -1    0    0    0  501 -0.00000000000E+00  0.00000000000E+00  0.14620427681E+04  0.14620427681E+04  0.00000000000E+00 0.  1.
          2   -1    0    0  501    0  0.00000000000E+00 -0.00000000000E+00 -0.98989431422E+03  0.98989431422E+03  0.00000000000E+00 0. -1.
         24    2    1    2    0    0  0.69995127020E+02  0.65831694251E+03 -0.59455745267E+03  0.89311376026E+03  0.76636216245E+02 0.  0.
        254    2    1    2    0    0 -0.69995127020E+02 -0.65831694251E+03  0.10667059065E+04  0.15588233221E+04  0.92400657127E+03 0.  0.
         23    2    4    4    0    0  0.32099819715E+03 -0.18898972734E+01  0.16553543748E+03  0.37200169238E+03  0.89105913310E+02 0.  0.
         23    2    4    4    0    0 -0.39099332417E+03 -0.65642704523E+03  0.90117046906E+03  0.11868216297E+04  0.11253942030E+03 0.  0.
          2    1    3    3  502    0  0.71629369356E+02  0.49890289971E+03 -0.48656805174E+03  0.70055930432E+03  0.00000000000E+00 0. -1.
         -1    1    3    3    0  502 -0.16342423363E+01  0.15941404280E+03 -0.10798940092E+03  0.19255445594E+03  0.00000000000E+00 0.  1.
         13    1    5    5    0    0  0.21135609682E+03  0.39256849954E+02  0.92819114248E+02  0.23415355624E+03  0.00000000000E+00 0. -1.
        -13    1    5    5    0    0  0.10964210033E+03 -0.41146747228E+02  0.72716323229E+02  0.13784813613E+03  0.00000000000E+00 0.  1.
          3    1    6    6  503    0 -0.36030824863E+03 -0.64221047976E+03  0.87751083018E+03  0.11455485985E+04  0.00000000000E+00 0. -1.
         -3    1    6    6    0  503 -0.30685075541E+02 -0.14216565475E+02  0.23659638883E+02  0.41273031230E+02  0.00000000000E+00 0.  1.
<mgrwt>
<rscale>  0 0.24060489E+04</rscale>
<asrwt>0</asrwt>
<pdfrwt beam="1">  1        2 0.15229143E+00 0.24060489E+04</pdfrwt>
<pdfrwt beam="2">  1       -1 0.22492966E+00 0.24060489E+04</pdfrwt>
<totfact> 0.26729669E+00</totfact>
</mgrwt>
</event>
<event>
11    7  0.1497947E-008  0.2521616E+04  0.7818608E-02  0.8395325E-01
         -1   -1    0    0    0  501 -0.00000000000E+00  0.00000000000E+00  0.70350393941E+03  0.70350393941E+03  0.00000000000E+00 0.  1.
          2   -1    0    0  501    0  0.00000000000E+00 -0.00000000000E+00 -0.22595985359E+04  0.22595985359E+04  0.00000000000E+00 0. -1.
         24    2    1    2    0    0 -0.78671462210E+03 -0.65642966193E+03 -0.11353365530E+04  0.15314534645E+04  0.80875383034E+02 0.  0.
        254    2    1    2    0    0  0.78671462210E+03  0.65642966193E+03 -0.42075804348E+03  0.14316490108E+04  0.90706215961E+03 0.  0.
         23    2    4    4    0    0  0.39566570456E+03  0.40833958505E+03  0.16917137777E+03  0.59986336888E+03  0.89019884223E+02 0.  0.
          2    1    3    3  502    0 -0.32612861038E+03 -0.28894968324E+03 -0.53950272423E+03  0.69348033815E+03  0.00000000000E+00 0. -1.
         -1    1    3    3    0  502 -0.46058601173E+03 -0.36747997868E+03 -0.59583382882E+03  0.83797312636E+03  0.00000000000E+00 0.  1.
         13    1    5    5    0    0  0.24191844672E+01  0.27793154549E+02  0.35608837597E+01  0.28124576200E+02  0.00000000000E+00 0.  1.
        -13    1    5    5    0    0  0.39324652009E+03  0.38054643050E+03  0.16561049401E+03  0.57173879268E+03  0.00000000000E+00 0. -1.
          3    1    4    4  503    0  0.17791147996E+03  0.30473551436E+03 -0.27527114187E+03  0.44753818827E+03  0.00000000000E+00 0. -1.
         -3    1    4    4    0  503  0.21313743758E+03 -0.56645437483E+02 -0.31465827938E+03  0.38424745369E+03  0.00000000000E+00 0.  1.
<mgrwt>
<rscale>  0 0.25216157E+04</rscale>
<asrwt>0</asrwt>
<pdfrwt beam="1">  1        2 0.34763055E+00 0.25216157E+04</pdfrwt>
<pdfrwt beam="2">  1       -1 0.10823137E+00 0.25216157E+04</pdfrwt>
<totfact> 0.38371814E+00</totfact>
</mgrwt>
</event>
<event>
12    7  0.1497947E-008  0.1141337E+04  0.7818608E-02  0.9165813E-01
          2   -1    0    0  501    0  0.00000000000E+00  0.00000000000E+00  0.15920058224E+04  0.15920058224E+04  0.00000000000E+00 0. -1.
         -1   -1    0    0    0  501 -0.00000000000E+00 -0.00000000000E+00 -0.20456103865E+03  0.20456103865E+03  0.00000000000E+00 0.  1.
         24    2    1    2    0    0 -0.58437602952E+02  0.19135782615E+03  0.33362558311E+03  0.39744585438E+03  0.81390456408E+02 0.  0.
        254    2    1    2    0    0  0.58437602952E+02 -0.19135782615E+03  0.10538192006E+04  0.13991210066E+04  0.89831615401E+03 0.  0.
         23    2    4    4    0    0  0.17816521347E+03 -0.42690578042E+03  0.22447581170E+03  0.52206934339E+03  0.90419138611E+02 0.  0.
         23    2    4    4    0    0 -0.11972761052E+03  0.23554795427E+03  0.82934338890E+03  0.87705166323E+03  0.10766440351E+03 0.  0.
          4    1    3    3  502    0 -0.71384930255E+02  0.17880176958E+03  0.27204331871E+03  0.33327683437E+03  0.00000000000E+00 0. -1.
         -3    1    3    3    0  502  0.12947327303E+02  0.12556056566E+02  0.61582264401E+02  0.64169020014E+02  0.00000000000E+00 0.  1.
         13    1    5    5    0    0  0.66696502391E+02 -0.71872088809E+02  0.32160887896E+02  0.10319081011E+03  0.00000000000E+00 0. -1.
        -13    1    5    5    0    0  0.11146871108E+03 -0.35503369161E+03  0.19231492381E+03  0.41887853328E+03  0.00000000000E+00 0.  1.
          4    1    6    6  503    0  0.15969791459E+02  0.54967449269E+02  0.12762763287E+03  0.13987589996E+03  0.00000000000E+00 0. -1.
         -4    1    6    6    0  503 -0.13569740198E+03  0.18058050500E+03  0.70171575603E+03  0.73717576327E+03  0.00000000000E+00 0.  1.
<mgrwt>
<rscale>  0 0.11413367E+04</rscale>
<asrwt>0</asrwt>
<pdfrwt beam="1">  1        2 0.24492396E+00 0.11413367E+04</pdfrwt>
<pdfrwt beam="2">  1       -1 0.31470930E-01 0.11413367E+04</pdfrwt>
<totfact> 0.11918026E+02</totfact>
</mgrwt>
</event>
<event>
12    7  0.1497947E-008  0.2337984E+04  0.7818608E-02  0.8463093E-01
         -1   -1    0    0    0  501 -0.00000000000E+00  0.00000000000E+00  0.73211196657E+03  0.73211196657E+03  0.00000000000E+00 0.  1.
          2   -1    0    0  501    0  0.00000000000E+00 -0.00000000000E+00 -0.18665757836E+04  0.18665757836E+04  0.00000000000E+00 0. -1.
         24    2    1    2    0    0  0.93475946478E+03 -0.10737849785E+03 -0.84578099578E+03  0.12684011800E+04  0.90502275186E+02 0.  0.
        254    2    1    2    0    0 -0.93475946478E+03  0.10737849785E+03 -0.28868282123E+03  0.13302865701E+04  0.89499675342E+03 0.  0.
         23    2    4    4    0    0 -0.31533583020E+03  0.26717471290E+02  0.31443549693E+03  0.45517555319E+03  0.90358139697E+02 0.  0.
         23    2    4    4    0    0 -0.61942363458E+03  0.80661026556E+02 -0.60311831816E+03  0.87511101695E+03  0.10897589645E+03 0.  0.
          4    1    3    3  502    0  0.80676271211E+03 -0.10356214691E+03 -0.68906669803E+03  0.10660225637E+04  0.00000000000E+00 0. -1.
         -3    1    3    3    0  502  0.12799675267E+03 -0.38163509317E+01 -0.15671429775E+03  0.20237861633E+03  0.00000000000E+00 0.  1.
         13    1    5    5    0    0 -0.29933164685E+03  0.42191831586E+02  0.30897065967E+03  0.43225276633E+03  0.00000000000E+00 0. -1.
        -13    1    5    5    0    0 -0.16004183357E+02 -0.15474360296E+02  0.54648372609E+01  0.22922786868E+02  0.00000000000E+00 0.  1.
          4    1    6    6  503    0 -0.46840202457E+03  0.30240163867E+02 -0.49791946457E+03  0.68427970694E+03  0.00000000000E+00 0. -1.
         -4    1    6    6    0  503 -0.15102161001E+03  0.50420862688E+02 -0.10519885360E+03  0.19083131001E+03  0.00000000000E+00 0.  1.
<mgrwt>
<rscale>  0 0.23379841E+04</rscale>
<asrwt>0</asrwt>
<pdfrwt beam="1">  1        2 0.28716550E+00 0.23379841E+04</pdfrwt>
<pdfrwt beam="2">  1       -1 0.11263261E+00 0.23379841E+04</pdfrwt>
<totfact> 0.58818988E+00</totfact>
</mgrwt>
</event>
<event>
11    7  0.1497947E-008  0.2231290E+04  0.7818608E-02  0.8505516E-01
         -1   -1    0    0    0  501 -0.00000000000E+00  0.00000000000E+00  0.12929939452E+04  0.12929939452E+04  0.00000000000E+00 0.  1.
          2   -1    0    0  501    0  0.00000000000E+00 -0.00000000000E+00 -0.96262129529E+03  0.96262129529E+03  0.00000000000E+00 0. -1.
         24    2    1    2    0    0 -0.58504146294E+03  0.63525699936E+03  0.26532213717E+03  0.90671011981E+03  0.76827314758E+02 0.  0.
        254    2    1    2    0    0  0.58504146294E+03 -0.63525699936E+03  0.65050512781E+02  0.13489051207E+04  0.10341607645E+04 0.  0.
         23    2    4    4    0    0 -0.85972482538E+02 -0.43481255558E+03  0.35258052160E+03  0.57373919118E+03  0.91708282328E+02 0.  0.
          2    1    3    3  502    0 -0.26053131319E+03  0.27212093401E+03  0.76744112965E+02  0.38446849904E+03  0.00000000000E+00 0. -1.
         -1    1    3    3    0  502 -0.32451014975E+03  0.36313606534E+03  0.18857802420E+03  0.52224162076E+03  0.00000000000E+00 0.  1.
         13    1    5    5    0    0 -0.46783414851E+02 -0.75902764190E+02  0.47307718742E+02  0.10093531478E+03  0.00000000000E+00 0.  1.
        -13    1    5    5    0    0 -0.39189067687E+02 -0.35890979139E+03  0.30527280285E+03  0.47280387641E+03  0.00000000000E+00 0. -1.
          2    1    4    4  503    0  0.66499420613E+03 -0.20078593166E+03 -0.25171281867E+03  0.73884479264E+03  0.00000000000E+00 0. -1.
         -2    1    4    4    0  503  0.60197393539E+01  0.34148788494E+00 -0.35817190149E+02  0.36321136904E+02  0.00000000000E+00 0.  1.
<mgrwt>
<rscale>  0 0.22312898E+04</rscale>
<asrwt>0</asrwt>
<pdfrwt beam="1">  1        2 0.14809558E+00 0.22312898E+04</pdfrwt>
<pdfrwt beam="2">  1       -1 0.19892215E+00 0.22312898E+04</pdfrwt>
<totfact> 0.42403664E+00</totfact>
</mgrwt>
</event>
<event>
11    7  0.1497947E-008  0.2334209E+04  0.7818608E-02  0.8464554E-01
         -1   -1    0    0    0  501 -0.00000000000E+00  0.00000000000E+00  0.12997913916E+04  0.12997913916E+04  0.00000000000E+00 0.  1.
          2   -1    0    0  501    0  0.00000000000E+00 -0.00000000000E+00 -0.10479630424E+04  0.10479630424E+04  0.00000000000E+00 0. -1.
         24    2    1    2    0    0  0.65547742769E+02  0.89000067465E+03 -0.32391162495E+03  0.95292442990E+03  0.82149381425E+02 0.  0.
        254    2    1    2    0    0 -0.65547742769E+02 -0.89000067465E+03  0.57573997417E+03  0.13948300042E+04  0.90425467387E+03 0.  0.
         23    2    4    4    0    0 -0.11096321146E+03 -0.60354169161E+03  0.19586165704E+03  0.65072130884E+03  0.92201004732E+02 0.  0.
          4    1    3    3  502    0  0.59368669897E+01  0.57765439610E+03 -0.19339437915E+03  0.60919720420E+03  0.00000000000E+00 0. -1.
         -3    1    3    3    0  502  0.59610875780E+02  0.31234627855E+03 -0.13051724580E+03  0.34372722570E+03  0.00000000000E+00 0.  1.
         13    1    5    5    0    0 -0.42990063832E+02 -0.19334514432E+03  0.19329876370E+02  0.19900787557E+03  0.00000000000E+00 0.  1.
        -13    1    5    5    0    0 -0.67973147624E+02 -0.41019654729E+03  0.17653178067E+03  0.45171343327E+03  0.00000000000E+00 0. -1.
          1    1    4    4  503    0  0.19646501057E+03 -0.22641942041E+03  0.47059417275E+03  0.55796337670E+03  0.00000000000E+00 0. -1.
         -1    1    4    4    0  503 -0.15104954188E+03 -0.60039562628E+02 -0.90715855627E+02  0.18614531862E+03  0.00000000000E+00 0.  1.
<mgrwt>
<rscale>  0 0.23342094E+04</rscale>
<asrwt>0</asrwt>
<pdfrwt beam="1">  1        2 0.16122508E+00 0.23342094E+04</pdfrwt>
<pdfrwt beam="2">  1       -1 0.19996791E+00 0.23342094E+04</pdfrwt>
<totfact> 0.36442096E+00</totfact>
</mgrwt>
</event>
<event>
11    7  0.1497947E-008  0.1605584E+04  0.7818608E-02  0.8817125E-01
          2   -1    0    0  501    0  0.00000000000E+00  0.00000000000E+00  0.31296732837E+04  0.31296732837E+04  0.00000000000E+00 0. -1.
         -1   -1    0    0    0  501 -0.00000000000E+00 -0.00000000000E+00 -0.20592395148E+03  0.20592395148E+03  0.00000000000E+00 0.  1.
         24    2    1    2    0    0  0.15640146177E+03  0.43486181218E+03  0.15913514709E+04  0.16589483087E+04  0.78382230064E+02 0.  0.
        254    2    1    2    0    0 -0.15640146177E+03 -0.43486181218E+03  0.13323978613E+04  0.16766489265E+04  0.90680833089E+03 0.  0.
         23    2    4    4    0    0  0.14809987628E+03 -0.22785602223E+03 -0.92797435690E+00  0.28721869730E+03  0.92961167827E+02 0.  0.
          4    1    3    3  502    0  0.14855480341E+03  0.34145531633E+03  0.13365131147E+04  0.13874175898E+04  0.00000000000E+00 0. -1.
         -3    1    3    3    0  502  0.78466583651E+01  0.93406495852E+02  0.25483835624E+03  0.27153071894E+03  0.00000000000E+00 0.  1.
         13    1    5    5    0    0  0.12447753516E+03 -0.22260733164E+03  0.19165308157E+02  0.25576549786E+03  0.00000000000E+00 0.  1.
        -13    1    5    5    0    0  0.23622341118E+02 -0.52486905870E+01 -0.20093282514E+02  0.31453199439E+02  0.00000000000E+00 0. -1.
          4    1    4    4  503    0 -0.12737200532E+03 -0.14996470519E+03  0.54470224677E+03  0.57914901207E+03  0.00000000000E+00 0. -1.
         -4    1    4    4    0  503 -0.17712933273E+03 -0.57041084763E+02  0.78862358891E+03  0.81028121714E+03  0.00000000000E+00 0.  1.
<mgrwt>
<rscale>  0 0.16055836E+04</rscale>
<asrwt>0</asrwt>
<pdfrwt beam="1">  1        2 0.48148816E+00 0.16055836E+04</pdfrwt>
<pdfrwt beam="2">  1       -1 0.31680610E-01 0.16055836E+04</pdfrwt>
<totfact> 0.14675233E+01</totfact>
</mgrwt>
</event>
<event>
11    7  0.1497947E-008  0.1795763E+04  0.7818608E-02  0.8708556E-01
          2   -1    0    0  501    0  0.00000000000E+00  0.00000000000E+00  0.65652419043E+03  0.65652419043E+03  0.00000000000E+00 0. -1.
         -1   -1    0    0    0  501 -0.00000000000E+00 -0.00000000000E+00 -0.12279690295E+04  0.12279690295E+04  0.00000000000E+00 0.  1.
         24    2    1    2    0    0 -0.51746689795E+03 -0.28631566631E+03  0.11371615300E+03  0.60730042611E+03  0.78318534590E+02 0.  0.
        254    2    1    2    0    0  0.51746689795E+03  0.28631566631E+03 -0.68516099208E+03  0.12771927938E+04  0.90112551638E+03 0.  0.
         23    2    4    4    0    0  0.72618473972E+03  0.34745709142E+03 -0.57494569634E+03  0.99367870880E+03  0.93616857448E+02 0.  0.
          2    1    3    3  502    0 -0.50438497631E+03 -0.28140934321E+03  0.97253017031E+02  0.58570775314E+03  0.00000000000E+00 0. -1.
         -1    1    3    3    0  502 -0.13081921637E+02 -0.49063231055E+01  0.16463135969E+02  0.21592672972E+02  0.00000000000E+00 0.  1.
         13    1    5    5    0    0  0.55471317998E+03  0.30354074046E+03 -0.42720041672E+03  0.76311459769E+03  0.00000000000E+00 0. -1.
        -13    1    5    5    0    0  0.17147155974E+03  0.43916350965E+02 -0.14774527962E+03  0.23056411111E+03  0.00000000000E+00 0.  1.
          1    1    4    4  503    0 -0.20785766016E+03 -0.39150855527E+02 -0.13456745165E+03  0.25069103578E+03  0.00000000000E+00 0. -1.
         -1    1    4    4    0  503 -0.86018161885E+00 -0.21990569585E+02  0.24352155920E+02  0.32823049235E+02  0.00000000000E+00 0.  1.
<mgrwt>
<rscale>  0 0.17957632E+04</rscale>
<asrwt>0</asrwt>
<pdfrwt beam="1">  1        2 0.10100372E+00 0.17957632E+04</pdfrwt>
<pdfrwt beam="2">  1       -1 0.18891831E+00 0.17957632E+04</pdfrwt>
<totfact> 0.86114161E+00</totfact>
</mgrwt>
</event>
<event>
12    7  0.1497947E-008  0.2093331E+04  0.7818608E-02  0.8564187E-01
          2   -1    0    0  501    0  0.00000000000E+00  0.00000000000E+00  0.10489792647E+04  0.10489792647E+04  0.00000000000E+00 0. -1.
         -1   -1    0    0    0  501 -0.00000000000E+00 -0.00000000000E+00 -0.10443571216E+04  0.10443571216E+04  0.00000000000E+00 0.  1.
         24    2    1    2    0    0 -0.32472220780E+03  0.38394754636E+03  0.68901342578E+03  0.85662320729E+03  0.78762857816E+02 0.  0.
        254    2    1    2    0    0  0.32472220780E+03 -0.38394754636E+03 -0.68439128267E+03  0.12367131791E+04  0.89900379806E+03 0.  0.
         23    2    4    4    0    0 -0.17088585448E+03  0.58609550905E+02  0.79846116361E+02  0.21870858542E+03  0.93920116711E+02 0.  0.
         23    2    4    4    0    0  0.49560806227E+03 -0.44255709726E+03 -0.76423739903E+03  0.10180045937E+04  0.10387692192E+03 0.  0.
          2    1    3    3  502    0 -0.20842456056E+03  0.21450959991E+03  0.46243093269E+03  0.55072455312E+03  0.00000000000E+00 0. -1.
         -1    1    3    3    0  502 -0.11629764723E+03  0.16943794645E+03  0.22658249309E+03  0.30589865417E+03  0.00000000000E+00 0.  1.
         13    1    5    5    0    0 -0.19127085720E+01 -0.14037688773E+02  0.21499661283E+02  0.25747827005E+02  0.00000000000E+00 0. -1.
        -13    1    5    5    0    0 -0.16897314590E+03  0.72647239678E+02  0.58346455078E+02  0.19296075842E+03  0.00000000000E+00 0.  1.
          1    1    6    6  503    0  0.15362163062E+03 -0.96703968606E+02 -0.26308940856E+03  0.31963619920E+03  0.00000000000E+00 0. -1.
         -1    1    6    6    0  503  0.34198643165E+03 -0.34585312866E+03 -0.50114799047E+03  0.69836839446E+03  0.00000000000E+00 0.  1.
<mgrwt>
<rscale>  0 0.20933313E+04</rscale>
<asrwt>0</asrwt>
<pdfrwt beam="1">  1        2 0.16138143E+00 0.20933313E+04</pdfrwt>
<pdfrwt beam="2">  1       -1 0.16067033E+00 0.20933313E+04</pdfrwt>
<totfact> 0.71208622E+00</totfact>
</mgrwt>
</event>
<event>
12    7  0.1497947E-008  0.2345256E+04  0.7818608E-02  0.8460288E-01
         -1   -1    0    0    0  501 -0.00000000000E+00  0.00000000000E+00  0.61387903067E+03  0.61387903067E+03  0.00000000000E+00 0.  1.
          2   -1    0    0  501    0  0.00000000000E+00 -0.00000000000E+00 -0.22399476541E+04  0.22399476541E+04  0.00000000000E+00 0. -1.
         24    2    1    2    0    0 -0.73633307301E+02 -0.88058201592E+03 -0.12389794572E+04  0.15239136890E+04  0.79976780543E+02 0.  0.
        254    2    1    2    0    0  0.73633307301E+02  0.88058201592E+03 -0.38708916614E+03  0.13299129957E+04  0.91541466171E+03 0.  0.
         23    2    4    4    0    0  0.23663910961E+03  0.33577579456E+03 -0.58700148270E+03  0.72209574248E+03  0.90044812207E+02 0.  0.
         23    2    4    4    0    0 -0.16300580231E+03  0.54480622136E+03  0.19991231657E+03  0.60781725322E+03  0.78052345104E+02 0.  0.
          4    1    3    3  502    0 -0.35217602381E+02 -0.48689468944E+03 -0.75154696700E+03  0.89617496156E+03  0.00000000000E+00 0. -1.
         -1    1    3    3    0  502 -0.38415704921E+02 -0.39368732648E+03 -0.48743249025E+03  0.62773872747E+03  0.00000000000E+00 0.  1.
         13    1    5    5    0    0  0.14521747265E+02 -0.32556754104E+01 -0.15823200117E+02  0.21722205872E+02  0.00000000000E+00 0. -1.
        -13    1    5    5    0    0  0.22211736234E+03  0.33903146997E+03 -0.57117828259E+03  0.70037353661E+03  0.00000000000E+00 0.  1.
          1    1    6    6  503    0 -0.92088567224E+02  0.22748524246E+03  0.53282779337E+02  0.25113521124E+03  0.00000000000E+00 0. -1.
         -1    1    6    6    0  503 -0.70917235084E+02  0.31732097890E+03  0.14662953723E+03  0.35668204198E+03  0.00000000000E+00 0.  1.
<mgrwt>
<rscale>  0 0.23452564E+04</rscale>
<asrwt>0</asrwt>
<pdfrwt beam="1">  1        2 0.34460733E+00 0.23452564E+04</pdfrwt>
<pdfrwt beam="2">  1       -1 0.94442930E-01 0.23452564E+04</pdfrwt>
<totfact> 0.54664944E+00</totfact>
</mgrwt>
</event>
<event>
11    7  0.1497947E-008  0.1978820E+04  0.7818608E-02  0.8616587E-01
         -1   -1    0    0    0  501 -0.00000000000E+00  0.00000000000E+00  0.14371617251E+04  0.14371617251E+04  0.00000000000E+00 0.  1.
          2   -1    0    0  501    0  0.00000000000E+00 -0.00000000000E+00 -0.68115689829E+03  0.68115689829E+03  0.00000000000E+00 0. -1.
         24    2    1    2    0    0  0.11078635132E+02  0.71066847046E+02  0.11370946388E+04  0.11422301376E+04  0.80822252970E+02 0.  0.
        254    2    1    2    0    0 -0.11078635132E+02 -0.71066847046E+02 -0.38108981202E+03  0.97608848583E+03  0.89573771520E+03 0.  0.
         23    2    4    4    0    0 -0.24425689271E+03 -0.32071678052E+03 -0.42291767879E+03  0.59131310202E+03  0.90945800614E+02 0.  0.
          4    1    3    3  502    0  0.20255567470E+02 -0.10523072236E+02  0.38285332156E+03  0.38353316531E+03  0.00000000000E+00 0. -1.
         -3    1    3    3    0  502 -0.91769323385E+01  0.81589919282E+02  0.75424131727E+03  0.75869697224E+03  0.00000000000E+00 0.  1.
         13    1    5    5    0    0 -0.17691090411E+03 -0.28872374966E+03 -0.34159449145E+03  0.48098406231E+03  0.00000000000E+00 0.  1.
        -13    1    5    5    0    0 -0.67345988600E+02 -0.31993030856E+02 -0.81323187342E+02  0.11032903971E+03  0.00000000000E+00 0. -1.
          4    1    4    4  503    0  0.12147966018E+03  0.72513181488E+02 -0.57853373671E+02  0.15284790535E+03  0.00000000000E+00 0. -1.
         -4    1    4    4    0  503  0.11169859740E+03  0.17713675199E+03  0.99681240435E+02  0.23192747845E+03  0.00000000000E+00 0.  1.
<mgrwt>
<rscale>  0 0.19788205E+04</rscale>
<asrwt>0</asrwt>
<pdfrwt beam="1">  1        2 0.10479337E+00 0.19788205E+04</pdfrwt>
<pdfrwt beam="2">  1       -1 0.22110180E+00 0.19788205E+04</pdfrwt>
<totfact> 0.48746907E+00</totfact>
</mgrwt>
</event>
<event>
12    7  0.1497947E-008  0.1460437E+04  0.7818608E-02  0.8911197E-01
         -1   -1    0    0    0  501 -0.00000000000E+00  0.00000000000E+00  0.24042202727E+03  0.24042202727E+03  0.00000000000E+00 0.  1.
          2   -1    0    0  501    0  0.00000000000E+00 -0.00000000000E+00 -0.22178459071E+04  0.22178459071E+04  0.00000000000E+00 0. -1.
         24    2    1    2    0    0  0.14250912871E+03  0.17399557172E+03  0.39813239400E+02  0.24165982472E+03  0.78937102223E+02 0.  0.
        254    2    1    2    0    0 -0.14250912871E+03 -0.17399557172E+03 -0.20172371192E+04  0.22166081097E+04  0.89079885826E+03 0.  0.
         23    2    4    4    0    0 -0.21770063023E+03 -0.39471698127E+03 -0.18598616328E+04  0.19159495597E+04  0.92641040455E+02 0.  0.
         23    2    4    4    0    0  0.75191501521E+02  0.22072140955E+03 -0.15737548646E+03  0.30065855000E+03  0.10609814994E+03 0.  0.
          2    1    3    3  502    0  0.36703273610E+02  0.41964822475E+01 -0.29988598294E+01  0.37063916647E+02  0.00000000000E+00 0. -1.
         -1    1    3    3    0  502  0.10580585510E+03  0.16979908947E+03  0.42812099229E+02  0.20459590807E+03  0.00000000000E+00 0.  1.
         13    1    5    5    0    0 -0.16778840534E+03 -0.36594545322E+03 -0.16295926822E+04  0.16785831328E+04  0.00000000000E+00 0.  1.
        -13    1    5    5    0    0 -0.49912224896E+02 -0.28771528050E+02 -0.23026895053E+03  0.23736642685E+03  0.00000000000E+00 0. -1.
          3    1    6    6  503    0  0.43683919037E+02  0.84892846366E+02 -0.72179771674E+01  0.95745388092E+02  0.00000000000E+00 0. -1.
         -3    1    6    6    0  503  0.31507582484E+02  0.13582856318E+03 -0.15015750929E+03  0.20491316191E+03  0.00000000000E+00 0.  1.
<mgrwt>
<rscale>  0 0.14604369E+04</rscale>
<asrwt>0</asrwt>
<pdfrwt beam="1">  1        2 0.34120706E+00 0.14604369E+04</pdfrwt>
<pdfrwt beam="2">  1       -1 0.36988005E-01 0.14604369E+04</pdfrwt>
<totfact> 0.39170551E+01</totfact>
</mgrwt>
</event>
<event>
11    7  0.1497947E-008  0.3897689E+04  0.7818608E-02  0.8025510E-01
         -1   -1    0    0    0  501 -0.00000000000E+00  0.00000000000E+00  0.19366459026E+04  0.19366459026E+04  0.00000000000E+00 0.  1.
          2   -1    0    0  501    0  0.00000000000E+00 -0.00000000000E+00 -0.19611203767E+04  0.19611203767E+04  0.00000000000E+00 0. -1.
         24    2    1    2    0    0  0.17061339008E+04 -0.13132397809E+03 -0.69653080637E+03  0.18491852595E+04  0.78689801388E+02 0.  0.
        254    2    1    2    0    0 -0.17061339008E+04  0.13132397809E+03  0.67205633222E+03  0.20485810198E+04  0.90381724157E+03 0.  0.
         23    2    4    4    0    0 -0.37874870700E+03  0.16377817967E+03  0.55528929911E+03  0.69780029551E+03  0.91132713826E+02 0.  0.
          2    1    3    3  502    0  0.13122870701E+04 -0.13278971784E+03 -0.52600852970E+03  0.14200054355E+04  0.00000000000E+00 0. -1.
         -1    1    3    3    0  502  0.39384683077E+03  0.14657397494E+01 -0.17052227667E+03  0.42917982402E+03  0.00000000000E+00 0.  1.
         13    1    5    5    0    0 -0.26205393228E+03  0.15678887516E+03  0.38951417937E+03  0.49495081648E+03  0.00000000000E+00 0. -1.
        -13    1    5    5    0    0 -0.11669477472E+03  0.69893045117E+01  0.16577511973E+03  0.20284947904E+03  0.00000000000E+00 0.  1.
          1    1    4    4  503    0 -0.13316973903E+04 -0.19864417686E+02  0.11162890428E+03  0.13365154495E+04  0.00000000000E+00 0. -1.
         -1    1    4    4    0  503  0.43121964746E+01 -0.12589783889E+02  0.51381288295E+01  0.14265274785E+02  0.00000000000E+00 0.  1.
<mgrwt>
<rscale>  0 0.38976894E+04</rscale>
<asrwt>0</asrwt>
<pdfrwt beam="1">  1        2 0.30171083E+00 0.38976894E+04</pdfrwt>
<pdfrwt beam="2">  1       -1 0.29794552E+00 0.38976894E+04</pdfrwt>
<totfact> 0.21640961E-01</totfact>
</mgrwt>
</event>
<event>
12    7  0.1497947E-008  0.1523960E+04  0.7818608E-02  0.8868674E-01
         -1   -1    0    0    0  501 -0.00000000000E+00  0.00000000000E+00  0.48296160548E+03  0.48296160548E+03  0.00000000000E+00 0.  1.
          2   -1    0    0  501    0  0.00000000000E+00 -0.00000000000E+00 -0.12021935466E+04  0.12021935466E+04  0.00000000000E+00 0. -1.
         24    2    1    2    0    0 -0.46583221197E+03  0.53579220917E+02 -0.37818942872E+03  0.60728994010E+03  0.76833877490E+02 0.  0.
        254    2    1    2    0    0  0.46583221197E+03 -0.53579220917E+02 -0.34104251237E+03  0.10778652120E+04  0.90863250947E+03 0.  0.
         23    2    4    4    0    0  0.48317443233E+03 -0.40774650503E+03 -0.28766064096E+03  0.69978209307E+03  0.85038749947E+02 0.  0.
         23    2    4    4    0    0 -0.17342220363E+02  0.35416728411E+03 -0.53381871416E+02  0.37808311889E+03  0.11984157396E+03 0.  0.
          4    1    3    3  502    0 -0.25871843562E+03  0.36901860815E+02 -0.25807214355E+03  0.36728491330E+03  0.00000000000E+00 0. -1.
         -3    1    3    3    0  502 -0.20711377635E+03  0.16677360102E+02 -0.12011728517E+03  0.24000502680E+03  0.00000000000E+00 0.  1.
         13    1    5    5    0    0  0.34785106196E+03 -0.26694775692E+03 -0.16141889054E+03  0.46724460880E+03  0.00000000000E+00 0.  1.
        -13    1    5    5    0    0  0.13532337038E+03 -0.14079874811E+03 -0.12624175042E+03  0.23253748426E+03  0.00000000000E+00 0. -1.
          1    1    6    6  503    0  0.25951094478E+02  0.29883081186E+03 -0.64871064516E+02  0.30689015695E+03  0.00000000000E+00 0. -1.
         -1    1    6    6    0  503 -0.43293314841E+02  0.55336472257E+02  0.11489193100E+02  0.71192961940E+02  0.00000000000E+00 0.  1.
<mgrwt>
<rscale>  0 0.15239597E+04</rscale>
<asrwt>0</asrwt>
<pdfrwt beam="1">  1        2 0.18495285E+00 0.15239597E+04</pdfrwt>
<pdfrwt beam="2">  1       -1 0.74301787E-01 0.15239597E+04</pdfrwt>
<totfact> 0.37866418E+01</totfact>
</mgrwt>
</event>
<event>
12    7  0.1497947E-008  0.1751677E+04  0.7818608E-02  0.8732428E-01
          2   -1    0    0  501    0  0.00000000000E+00  0.00000000000E+00  0.56497683715E+03  0.56497683715E+03  0.00000000000E+00 0. -1.
         -1   -1    0    0    0  501 -0.00000000000E+00 -0.00000000000E+00 -0.13577427837E+04  0.13577427837E+04  0.00000000000E+00 0.  1.
         24    2    1    2    0    0 -0.15643710897E+03 -0.57460656718E+03 -0.54337902736E+03  0.81014876118E+03  0.80218275764E+02 0.  0.
        254    2    1    2    0    0  0.15643710897E+03  0.57460656718E+03 -0.24938691915E+03  0.11125708596E+04  0.90607660060E+03 0.  0.
         23    2    4    4    0    0 -0.26235685498E+03 -0.26651748799E+02  0.94090575612E+02  0.29613529417E+03  0.96445015243E+02 0.  0.
         23    2    4    4    0    0  0.41879396395E+03  0.60125831597E+03 -0.34347749476E+03  0.81643556546E+03  0.10812167394E+03 0.  0.
          2    1    3    3  502    0 -0.66688694598E+02 -0.19793418613E+03 -0.14282121186E+03  0.25302810631E+03  0.00000000000E+00 0. -1.
         -1    1    3    3    0  502 -0.89748414369E+02 -0.37667238104E+03 -0.40055781551E+03  0.55712065487E+03  0.00000000000E+00 0.  1.
         13    1    5    5    0    0 -0.14291419982E+03 -0.37231046945E+02  0.96117670696E+02  0.17620790558E+03  0.00000000000E+00 0. -1.
        -13    1    5    5    0    0 -0.11944265516E+03  0.10579298146E+02 -0.20270950843E+01  0.11992738860E+03  0.00000000000E+00 0.  1.
          1    1    6    6  503    0  0.20294899555E+03  0.38413884449E+03 -0.20662814499E+03  0.48108849180E+03  0.00000000000E+00 0. -1.
         -1    1    6    6    0  503  0.21584496840E+03  0.21711947149E+03 -0.13684934977E+03  0.33534707367E+03  0.00000000000E+00 0.  1.
<mgrwt>
<rscale>  0 0.17516772E+04</rscale>
<asrwt>0</asrwt>
<pdfrwt beam="1">  1        2 0.86919513E-01 0.17516772E+04</pdfrwt>
<pdfrwt beam="2">  1       -1 0.20888350E+00 0.17516772E+04</pdfrwt>
<totfact> 0.75512511E+00</totfact>
</mgrwt>
</event>
<event>
12    7  0.1497947E-008  0.3864065E+04  0.7818608E-02  0.8032545E-01
          2   -1    0    0  501    0  0.00000000000E+00  0.00000000000E+00  0.17932915916E+04  0.17932915916E+04  0.00000000000E+00 0. -1.
         -1   -1    0    0    0  501 -0.00000000000E+00 -0.00000000000E+00 -0.20815072340E+04  0.20815072340E+04  0.00000000000E+00 0.  1.
         24    2    1    2    0    0  0.87617513530E+03 -0.81594661441E+02 -0.17405918437E+04  0.19520013207E+04  0.79426905374E+02 0.  0.
        254    2    1    2    0    0 -0.87617513530E+03  0.81594661441E+02  0.14523762013E+04  0.19227975048E+04  0.90189415012E+03 0.  0.
         23    2    4    4    0    0 -0.31791963563E+03 -0.36249335104E+03  0.33977204521E+03  0.59682274664E+03  0.90983646495E+02 0.  0.
         23    2    4    4    0    0 -0.55825549967E+03  0.44408801248E+03  0.11126041561E+04  0.13259747582E+04  0.10704057882E+03 0.  0.
          4    1    3    3  502    0  0.63709250960E+03 -0.23786027518E+02 -0.12637528008E+04  0.14154588593E+04  0.00000000000E+00 0. -1.
         -3    1    3    3    0  502  0.23908262570E+03 -0.57808633923E+02 -0.47683904291E+03  0.53654246143E+03  0.00000000000E+00 0.  1.
         13    1    5    5    0    0 -0.23202285642E+03 -0.28231785634E+03  0.20882620136E+03  0.42088758628E+03  0.00000000000E+00 0. -1.
        -13    1    5    5    0    0 -0.85896779213E+02 -0.80175494703E+02  0.13094584385E+03  0.17593516036E+03  0.00000000000E+00 0.  1.
          4    1    6    6  503    0 -0.11366101754E+03  0.64572077085E+02  0.27591657796E+03  0.30531678309E+03  0.00000000000E+00 0. -1.
         -4    1    6    6    0  503 -0.44459448213E+03  0.37951593540E+03  0.83668757812E+03  0.10206579751E+04  0.00000000000E+00 0.  1.
<mgrwt>
<rscale>  0 0.38640649E+04</rscale>
<asrwt>0</asrwt>
<pdfrwt beam="1">  1        2 0.27589102E+00 0.38640649E+04</pdfrwt>
<pdfrwt beam="2">  1       -1 0.32023188E+00 0.38640649E+04</pdfrwt>
<totfact> 0.19266369E-01</totfact>
</mgrwt>
</event>
<event>
12    7  0.1497947E-008  0.2390309E+04  0.7818608E-02  0.8443140E-01
         -1   -1    0    0    0  501 -0.00000000000E+00  0.00000000000E+00  0.39430069283E+03  0.39430069283E+03  0.00000000000E+00 0.  1.
          2   -1    0    0  501    0  0.00000000000E+00 -0.00000000000E+00 -0.36226026346E+04  0.36226026346E+04  0.00000000000E+00 0. -1.
         24    2    1    2    0    0  0.16570130628E+03 -0.17529137808E+03 -0.30680580093E+04  0.30786117859E+04  0.81771571528E+02 0.  0.
        254    2    1    2    0    0 -0.16570130628E+03  0.17529137808E+03 -0.16024393248E+03  0.93829154151E+03  0.89248468269E+03 0.  0.
         23    2    4    4    0    0  0.22507714788E+03  0.38668586023E+03 -0.13598387105E+03  0.47650214973E+03  0.91525999085E+02 0.  0.
         23    2    4    4    0    0 -0.39077845416E+03 -0.21139448215E+03 -0.24260061433E+02  0.46178939178E+03  0.12355348826E+03 0.  0.
          4    1    3    3  502    0  0.42220293456E+02 -0.10230960573E+03 -0.14403349226E+04  0.14445810804E+04  0.00000000000E+00 0. -1.
         -3    1    3    3    0  502  0.12348101283E+03 -0.72981772350E+02 -0.16277230867E+04  0.16340307055E+04  0.00000000000E+00 0.  1.
         13    1    5    5    0    0  0.18201553294E+03  0.22785886052E+03 -0.76254257944E+02  0.30143660428E+03  0.00000000000E+00 0.  1.
        -13    1    5    5    0    0  0.43061614939E+02  0.15882699972E+03 -0.59729613102E+02  0.17506554544E+03  0.00000000000E+00 0. -1.
          4    1    6    6  503    0 -0.18531231869E+03 -0.13773852981E+03 -0.64736668244E+02  0.23979865359E+03  0.00000000000E+00 0. -1.
         -4    1    6    6    0  503 -0.20546613547E+03 -0.73655952345E+02  0.40476606811E+02  0.22199073819E+03  0.00000000000E+00 0.  1.
<mgrwt>
<rscale>  0 0.23903094E+04</rscale>
<asrwt>0</asrwt>
<pdfrwt beam="1">  1        2 0.55732346E+00 0.23903094E+04</pdfrwt>
<pdfrwt beam="2">  1       -1 0.60661647E-01 0.23903094E+04</pdfrwt>
<totfact> 0.18807514E+00</totfact>
</mgrwt>
</event>
<event>
11    7  0.1497947E-008  0.1275886E+04  0.7818608E-02  0.9048909E-01
         -1   -1    0    0    0  501 -0.00000000000E+00  0.00000000000E+00  0.45334458351E+03  0.45334458351E+03  0.00000000000E+00 0.  1.
          2   -1    0    0  501    0  0.00000000000E+00 -0.00000000000E+00 -0.89770859561E+03  0.89770859561E+03  0.00000000000E+00 0. -1.
         24    2    1    2    0    0  0.11561594615E+03  0.36782396965E+02 -0.41933090585E+03  0.44375064640E+03  0.79726004840E+02 0.  0.
        254    2    1    2    0    0 -0.11561594615E+03 -0.36782396965E+02 -0.25033106239E+02  0.90730253272E+03  0.89880545044E+03 0.  0.
         23    2    4    4    0    0  0.15912451679E+03 -0.31197942715E+03  0.21291960768E+03  0.41998698983E+03  0.91665355965E+02 0.  0.
          2    1    3    3  502    0  0.10368432131E+03  0.56366180423E+02 -0.38315929942E+03  0.40092222876E+03  0.00000000000E+00 0. -1.
         -1    1    3    3    0  502  0.11931624842E+02 -0.19583783458E+02 -0.36171606435E+02  0.42828417645E+02  0.00000000000E+00 0.  1.
         13    1    5    5    0    0  0.55877344971E+02 -0.12964212910E+03  0.35854439270E+02  0.14565335607E+03  0.00000000000E+00 0. -1.
        -13    1    5    5    0    0  0.10324717182E+03 -0.18233729804E+03  0.17706516841E+03  0.27433363376E+03  0.00000000000E+00 0.  1.
          3    1    4    4  503    0 -0.64747695377E+02 -0.10622009285E+01 -0.88081757983E+02  0.10932423527E+03  0.00000000000E+00 0. -1.
         -3    1    4    4    0  503 -0.20999276756E+03  0.27625923111E+03 -0.14987095594E+03  0.37799130762E+03  0.00000000000E+00 0.  1.
<mgrwt>
<rscale>  0 0.12758861E+04</rscale>
<asrwt>0</asrwt>
<pdfrwt beam="1">  1        2 0.13810901E+00 0.12758861E+04</pdfrwt>
<pdfrwt beam="2">  1       -1 0.69745322E-01 0.12758861E+04</pdfrwt>
<totfact> 0.68554406E+01</totfact>
</mgrwt>
</event>
<event>
11    7  0.1497947E-008  0.1126771E+04  0.7818608E-02  0.9179484E-01
         -1   -1    0    0    0  501 -0.00000000000E+00  0.00000000000E+00  0.14386938472E+04  0.14386938472E+04  0.00000000000E+00 0.  1.
          2   -1    0    0  501    0  0.00000000000E+00 -0.00000000000E+00 -0.22061916728E+03  0.22061916728E+03  0.00000000000E+00 0. -1.
         24    2    1    2    0    0  0.94905833569E+02 -0.38913704779E+02 -0.90211632542E+01  0.12939620704E+03  0.78362001924E+02 0.  0.
        254    2    1    2    0    0 -0.94905833569E+02  0.38913704779E+02  0.12270958432E+04  0.15299168075E+04  0.90794263900E+03 0.  0.
         23    2    4    4    0    0 -0.38708260984E+03 -0.13528254188E+03  0.10372772140E+04  0.11190788740E+04  0.90880110939E+02 0.  0.
          4    1    3    3  502    0  0.78472009222E+02 -0.63753339495E+00 -0.28398174308E+02  0.83454891913E+02  0.00000000000E+00 0. -1.
         -3    1    3    3    0  502  0.16433824347E+02 -0.38276171384E+02  0.19377011053E+02  0.45941315130E+02  0.00000000000E+00 0.  1.
         13    1    5    5    0    0 -0.25491053608E+03 -0.73656456936E+02  0.77247174339E+03  0.81677245876E+03  0.00000000000E+00 0.  1.
        -13    1    5    5    0    0 -0.13217207376E+03 -0.61626084946E+02  0.26480547060E+03  0.30230641523E+03  0.00000000000E+00 0. -1.
          4    1    4    4  503    0  0.25552122202E+03  0.18492729059E+03  0.19712561375E+03  0.37195121361E+03  0.00000000000E+00 0. -1.
         -4    1    4    4    0  503  0.36655554255E+02 -0.10731043927E+02 -0.73069845136E+01  0.38886719895E+02  0.00000000000E+00 0.  1.
<mgrwt>
<rscale>  0 0.11267714E+04</rscale>
<asrwt>0</asrwt>
<pdfrwt beam="1">  1        2 0.33941411E-01 0.11267714E+04</pdfrwt>
<pdfrwt beam="2">  1       -1 0.22133751E+00 0.11267714E+04</pdfrwt>
<totfact> 0.19018951E+01</totfact>
</mgrwt>
</event>
<event>
12    7  0.1497947E-008  0.1985835E+04  0.7818608E-02  0.8613272E-01
          2   -1    0    0  501    0  0.00000000000E+00  0.00000000000E+00  0.14317805171E+04  0.14317805171E+04  0.00000000000E+00 0. -1.
         -1   -1    0    0    0  501 -0.00000000000E+00 -0.00000000000E+00 -0.68857310315E+03  0.68857310315E+03  0.00000000000E+00 0.  1.
         24    2    1    2    0    0 -0.82474628282E+02  0.75063476300E+03  0.53511459503E+03  0.92942927134E+03  0.85067789814E+02 0.  0.
        254    2    1    2    0    0  0.82474628282E+02 -0.75063476300E+03  0.20809281888E+03  0.11909243489E+04  0.89707500898E+03 0.  0.
         23    2    4    4    0    0  0.12375167260E+03 -0.60197417091E+02  0.42723645767E+03  0.45765554999E+03  0.89327521990E+02 0.  0.
         23    2    4    4    0    0 -0.41277044321E+02 -0.69043734591E+03 -0.21914363879E+03  0.73326879888E+03  0.10607390808E+03 0.  0.
          4    1    3    3  502    0 -0.95951241026E+01  0.28144622867E+03  0.15673836466E+03  0.32229018135E+03  0.00000000000E+00 0. -1.
         -3    1    3    3    0  502 -0.72879504179E+02  0.46918853434E+03  0.37837623037E+03  0.60713908999E+03  0.00000000000E+00 0.  1.
         13    1    5    5    0    0  0.39087206377E+02 -0.68298428628E+02  0.21968229779E+03  0.23335123102E+03  0.00000000000E+00 0.  1.
        -13    1    5    5    0    0  0.84664466226E+02  0.81010115378E+01  0.20755415987E+03  0.22430431897E+03  0.00000000000E+00 0. -1.
          1    1    6    6  503    0  0.20548789123E+02 -0.47901688879E+03 -0.14732446308E+03  0.50158142899E+03  0.00000000000E+00 0. -1.
         -1    1    6    6    0  503 -0.61825833443E+02 -0.21142045712E+03 -0.71819175702E+02  0.23168736989E+03  0.00000000000E+00 0.  1.
<mgrwt>
<rscale>  0 0.19858354E+04</rscale>
<asrwt>0</asrwt>
<pdfrwt beam="1">  1        2 0.22027392E+00 0.19858354E+04</pdfrwt>
<pdfrwt beam="2">  1       -1 0.10593432E+00 0.19858354E+04</pdfrwt>
<totfact> 0.12266896E+01</totfact>
</mgrwt>
</event>
<event>
11    7  0.1497947E-008  0.1138437E+04  0.7818608E-02  0.9168518E-01
         -1   -1    0    0    0  501 -0.00000000000E+00  0.00000000000E+00  0.12715692422E+03  0.12715692422E+03  0.00000000000E+00 0.  1.
          2   -1    0    0  501    0  0.00000000000E+00 -0.00000000000E+00 -0.25481075315E+04  0.25481075315E+04  0.00000000000E+00 0. -1.
         24    2    1    2    0    0  0.10103806971E+03 -0.16117544159E+03 -0.42369902046E+03  0.47225856049E+03  0.85563272037E+02 0.  0.
        254    2    1    2    0    0 -0.10103806971E+03  0.16117544159E+03 -0.19972515868E+04  0.22030058952E+04  0.90996420743E+03 0.  0.
         23    2    4    4    0    0  0.23627841387E+03  0.33876880359E+03 -0.53519560647E+03  0.68258958448E+03  0.94352596769E+02 0.  0.
          4    1    3    3  502    0  0.80947653105E+02 -0.75929662213E+02 -0.30631870517E+03  0.32580513391E+03  0.00000000000E+00 0. -1.
         -3    1    3    3    0  502  0.20090416608E+02 -0.85245779373E+02 -0.11738031529E+03  0.14645342658E+03  0.00000000000E+00 0.  1.
         13    1    5    5    0    0  0.23515384607E+03  0.32994369732E+03 -0.53777966172E+03  0.67332543342E+03  0.00000000000E+00 0. -1.
        -13    1    5    5    0    0  0.11245677979E+01  0.88251062737E+01  0.25840552546E+01  0.92641510692E+01  0.00000000000E+00 0.  1.
          4    1    4    4  503    0 -0.33913929379E+03 -0.19870177947E+03 -0.14189521727E+04  0.14723868806E+04  0.00000000000E+00 0. -1.
         -4    1    4    4    0  503  0.18228102154E+01  0.21108417461E+02 -0.43103807670E+02  0.48029430149E+02  0.00000000000E+00 0.  1.
<mgrwt>
<rscale>  0 0.11384367E+04</rscale>
<asrwt>0</asrwt>
<pdfrwt beam="1">  1        2 0.39201655E+00 0.11384367E+04</pdfrwt>
<pdfrwt beam="2">  1       -1 0.19562603E-01 0.11384367E+04</pdfrwt>
<totfact> 0.78837413E+01</totfact>
</mgrwt>
</event>
<event>
11    7  0.1497947E-008  0.1945063E+04  0.7818608E-02  0.8632745E-01
         -1   -1    0    0    0  501 -0.00000000000E+00  0.00000000000E+00  0.10216846089E+04  0.10216846089E+04  0.00000000000E+00 0.  1.
          2   -1    0    0  501    0  0.00000000000E+00 -0.00000000000E+00 -0.92574271722E+03  0.92574271722E+03  0.00000000000E+00 0. -1.
         24    2    1    2    0    0  0.53751409545E+03 -0.41937229002E+03 -0.11254874493E+03  0.69972838334E+03  0.11026363873E+03 0.  0.
        254    2    1    2    0    0 -0.53751409545E+03  0.41937229002E+03  0.20849063663E+03  0.12476989428E+04  0.10239579024E+04 0.  0.
         23    2    4    4    0    0  0.42453849401E+02  0.39821583786E+03 -0.25036072072E+03  0.48087773701E+03  0.90469467916E+02 0.  0.
          4    1    3    3  502    0  0.25211025209E+03 -0.15837947737E+03 -0.29225100257E+01  0.29774515802E+03  0.00000000000E+00 0. -1.
         -3    1    3    3    0  502  0.28540384336E+03 -0.26099281265E+03 -0.10962623490E+03  0.40198322532E+03  0.00000000000E+00 0.  1.
         13    1    5    5    0    0  0.68760965780E+02  0.33232630895E+03 -0.20060139923E+03  0.39422045534E+03  0.00000000000E+00 0. -1.
        -13    1    5    5    0    0 -0.26307116379E+02  0.65889528914E+02 -0.49759321484E+02  0.86657281675E+02  0.00000000000E+00 0.  1.
          1    1    4    4  503    0 -0.38405984423E+03 -0.81297544306E+02  0.27538371761E+03  0.47952835847E+03  0.00000000000E+00 0. -1.
         -1    1    4    4    0  503 -0.19590810062E+03  0.10245399647E+03  0.18346763974E+03  0.28729284731E+03  0.00000000000E+00 0.  1.
<mgrwt>
<rscale>  0 0.19450626E+04</rscale>
<asrwt>0</asrwt>
<pdfrwt beam="1">  1        2 0.14242196E+00 0.19450626E+04</pdfrwt>
<pdfrwt beam="2">  1       -1 0.15718225E+00 0.19450626E+04</pdfrwt>
<totfact> 0.92114326E+00</totfact>
</mgrwt>
</event>
<event>
12    7  0.1497947E-008  0.1658592E+04  0.7818608E-02  0.8785340E-01
          2   -1    0    0  501    0  0.00000000000E+00  0.00000000000E+00  0.11537151370E+04  0.11537151370E+04  0.00000000000E+00 0. -1.
         -1   -1    0    0    0  501 -0.00000000000E+00 -0.00000000000E+00 -0.59610180921E+03  0.59610180921E+03  0.00000000000E+00 0.  1.
         24    2    1    2    0    0  0.80444024687E+02 -0.20078644122E+02  0.80549501201E+03  0.81380152460E+03  0.81094475790E+02 0.  0.
        254    2    1    2    0    0 -0.80444024687E+02  0.20078644122E+02 -0.24788168424E+03  0.93601542160E+03  0.89877981009E+03 0.  0.
         23    2    4    4    0    0  0.18566947575E+03  0.16644795872E+03  0.23507103629E+03  0.35467335570E+03  0.91415096963E+02 0.  0.
         23    2    4    4    0    0 -0.26611350043E+03 -0.14636931460E+03 -0.48295272054E+03  0.58134206589E+03  0.11169107364E+03 0.  0.
          4    1    3    3  502    0  0.65409219050E+02 -0.32633911898E+02  0.76825034122E+03  0.77172010789E+03  0.00000000000E+00 0. -1.
         -3    1    3    3    0  502  0.15034805637E+02  0.12555267776E+02  0.37244670798E+02  0.42081416710E+02  0.00000000000E+00 0.  1.
         13    1    5    5    0    0  0.10561214513E+03  0.13901324333E+03  0.19272822762E+03  0.26004379774E+03  0.00000000000E+00 0.  1.
        -13    1    5    5    0    0  0.80057330615E+02  0.27434715393E+02  0.42342808675E+02  0.94629557964E+02  0.00000000000E+00 0. -1.
          2    1    6    6  503    0 -0.69443417941E+02  0.52663052261E+00 -0.57536680834E+02  0.90183896991E+02  0.00000000000E+00 0. -1.
         -2    1    6    6    0  503 -0.19667008249E+03 -0.14689594512E+03 -0.42541603970E+03  0.49115816890E+03  0.00000000000E+00 0.  1.
<mgrwt>
<rscale>  0 0.16585918E+04</rscale>
<asrwt>0</asrwt>
<pdfrwt beam="1">  1        2 0.17749464E+00 0.16585918E+04</pdfrwt>
<pdfrwt beam="2">  1       -1 0.91707971E-01 0.16585918E+04</pdfrwt>
<totfact> 0.25479738E+01</totfact>
</mgrwt>
</event>
<event>
12    7  0.1497947E-008  0.1835737E+04  0.7818608E-02  0.8687522E-01
          2   -1    0    0  501    0  0.00000000000E+00  0.00000000000E+00  0.98201963225E+03  0.98201963225E+03  0.00000000000E+00 0. -1.
         -1   -1    0    0    0  501 -0.00000000000E+00 -0.00000000000E+00 -0.85790825125E+03  0.85790825125E+03  0.00000000000E+00 0.  1.
         24    2    1    2    0    0  0.51003391790E+03  0.89732436197E+02 -0.41568372184E+03  0.66898939582E+03  0.81039173223E+02 0.  0.
        254    2    1    2    0    0 -0.51003391790E+03 -0.89732436197E+02  0.53979510284E+03  0.11709384877E+04  0.90085053221E+03 0.  0.
         23    2    4    4    0    0 -0.65256476514E+02  0.26421827244E+03  0.51777327846E+03  0.59198604491E+03  0.91041783080E+02 0.  0.
         23    2    4    4    0    0 -0.44477744139E+03 -0.35395070864E+03  0.22021824381E+02  0.57895244277E+03  0.10767030105E+03 0.  0.
          2    1    3    3  502    0  0.14674960894E+01 -0.22442379279E+01  0.28812102858E+01  0.39359270014E+01  0.00000000000E+00 0. -1.
         -1    1    3    3    0  502  0.50856642181E+03  0.91976674125E+02 -0.41856493212E+03  0.66505346881E+03  0.00000000000E+00 0.  1.
         13    1    5    5    0    0 -0.44626842257E+02  0.61258034757E+02  0.20500498866E+03  0.21856611642E+03  0.00000000000E+00 0.  1.
        -13    1    5    5    0    0 -0.20629634257E+02  0.20296023769E+03  0.31276828980E+03  0.37341992849E+03  0.00000000000E+00 0. -1.
          2    1    6    6  503    0 -0.25713062524E+03 -0.19964102624E+03  0.65734839178E+02  0.33210505398E+03  0.00000000000E+00 0. -1.
         -2    1    6    6    0  503 -0.18764681614E+03 -0.15430968240E+03 -0.43713014797E+02  0.24684738880E+03  0.00000000000E+00 0.  1.
<mgrwt>
<rscale>  0 0.18357372E+04</rscale>
<asrwt>0</asrwt>
<pdfrwt beam="1">  1        2 0.15107994E+00 0.18357372E+04</pdfrwt>
<pdfrwt beam="2">  1       -1 0.13198589E+00 0.18357372E+04</pdfrwt>
<totfact> 0.13561428E+01</totfact>
</mgrwt>
</event>
<event>
11    7  0.1497947E-008  0.2146980E+04  0.7818608E-02  0.8540826E-01
          2   -1    0    0  501    0  0.00000000000E+00  0.00000000000E+00  0.24125100145E+04  0.24125100145E+04  0.00000000000E+00 0. -1.
         -1   -1    0    0    0  501 -0.00000000000E+00 -0.00000000000E+00 -0.47766898063E+03  0.47766898063E+03  0.00000000000E+00 0.  1.
         24    2    1    2    0    0 -0.51686588071E+03 -0.28276060561E+03  0.16894262603E+04  0.17923302205E+04  0.10574796231E+03 0.  0.
        254    2    1    2    0    0  0.51686588071E+03  0.28276060561E+03  0.24541477359E+03  0.10978487747E+04  0.89327466225E+03 0.  0.
         23    2    4    4    0    0  0.31085876467E+03  0.58592422844E+03  0.17353071797E+03  0.69172151772E+03  0.91789841249E+02 0.  0.
          2    1    3    3  502    0 -0.48162613579E+03 -0.23031282792E+03  0.15467070033E+04  0.16362488465E+04  0.00000000000E+00 0. -1.
         -1    1    3    3    0  502 -0.35239744916E+02 -0.52447777699E+02  0.14271925696E+03  0.15608137402E+03  0.00000000000E+00 0.  1.
         13    1    5    5    0    0  0.27536173044E+03  0.48113497007E+03  0.11354770572E+03  0.56586926360E+03  0.00000000000E+00 0. -1.
        -13    1    5    5    0    0  0.35497034231E+02  0.10478925837E+03  0.59983012250E+02  0.12585225412E+03  0.00000000000E+00 0.  1.
          2    1    4    4  503    0  0.20029890635E+03 -0.18739055792E+03  0.94133704096E+01  0.27445124272E+03  0.00000000000E+00 0. -1.
         -2    1    4    4    0  503  0.57082096871E+01 -0.11577306490E+03  0.62470685207E+02  0.13167601423E+03  0.00000000000E+00 0.  1.
<mgrwt>
<rscale>  0 0.21469804E+04</rscale>
<asrwt>0</asrwt>
<pdfrwt beam="1">  1        2 0.37115538E+00 0.21469804E+04</pdfrwt>
<pdfrwt beam="2">  1       -1 0.73487537E-01 0.21469804E+04</pdfrwt>
<totfact> 0.76227606E+00</totfact>
</mgrwt>
</event>
<event>
11    7  0.1497947E-008  0.2104554E+04  0.7818608E-02  0.8559240E-01
          2   -1    0    0  501    0  0.00000000000E+00  0.00000000000E+00  0.21504436456E+04  0.21504436456E+04  0.00000000000E+00 0. -1.
         -1   -1    0    0    0  501 -0.00000000000E+00 -0.00000000000E+00 -0.51491083949E+03  0.51491083949E+03  0.00000000000E+00 0.  1.
         24    2    1    2    0    0  0.14518796271E+03  0.22051201934E+03 -0.36200215547E+03  0.45494788206E+03  0.78910833478E+02 0.  0.
        254    2    1    2    0    0 -0.14518796271E+03 -0.22051201934E+03  0.19975349615E+04  0.22104066030E+04  0.90887091095E+03 0.  0.
         23    2    4    4    0    0  0.82598173010E+02  0.29722463379E+03  0.89983519795E+03  0.95544358007E+03  0.89465692378E+02 0.  0.
          2    1    3    3  502    0  0.28268400547E+02  0.68484495655E+02 -0.52368024582E+02  0.90728378213E+02  0.00000000000E+00 0. -1.
         -1    1    3    3    0  502  0.11691956216E+03  0.15202752368E+03 -0.30963413089E+03  0.36421950385E+03  0.00000000000E+00 0.  1.
         13    1    5    5    0    0  0.59802480791E+02  0.24220428592E+03  0.81090076386E+03  0.84840986655E+03  0.00000000000E+00 0. -1.
        -13    1    5    5    0    0  0.22795692218E+02  0.55020347873E+02  0.88934434087E+02  0.10703371352E+03  0.00000000000E+00 0.  1.
          4    1    4    4  503    0 -0.26224114246E+03 -0.50873504152E+03  0.10422891637E+04  0.11890956480E+04  0.00000000000E+00 0. -1.
         -4    1    4    4    0  503  0.34455006744E+02 -0.90016116107E+01  0.55410599853E+02  0.65867374909E+02  0.00000000000E+00 0.  1.
<mgrwt>
<rscale>  0 0.21045539E+04</rscale>
<asrwt>0</asrwt>
<pdfrwt beam="1">  1        2 0.33083748E+00 0.21045539E+04</pdfrwt>
<pdfrwt beam="2">  1       -1 0.79217053E-01 0.21045539E+04</pdfrwt>
<totfact> 0.91960134E+00</totfact>
</mgrwt>
</event>
<event>
12    7  0.1497947E-008  0.2352531E+04  0.7818608E-02  0.8457492E-01
         -1   -1    0    0    0  501 -0.00000000000E+00  0.00000000000E+00  0.15638899324E+04  0.15638899324E+04  0.00000000000E+00 0.  1.
          2   -1    0    0  501    0  0.00000000000E+00 -0.00000000000E+00 -0.88471703398E+03  0.88471703398E+03  0.00000000000E+00 0. -1.
         24    2    1    2    0    0 -0.93808954602E+03  0.22504980286E+03  0.56116257013E+03  0.11189178178E+04  0.80088967754E+02 0.  0.
        254    2    1    2    0    0  0.93808954602E+03 -0.22504980286E+03  0.11801032828E+03  0.13296891486E+04  0.90746205657E+03 0.  0.
         23    2    4    4    0    0 -0.10943459296E+03  0.38764782198E+01  0.20290095764E+03  0.24729498094E+03  0.89415053364E+02 0.  0.
         23    2    4    4    0    0  0.10475241390E+04 -0.22892628108E+03 -0.84890629354E+02  0.10823941676E+04  0.12106465729E+03 0.  0.
          4    1    3    3  502    0 -0.15636669136E+03  0.10561787166E+02  0.75633032692E+02  0.17401853105E+03  0.00000000000E+00 0. -1.
         -3    1    3    3    0  502 -0.78172285466E+03  0.21448801569E+03  0.48552953743E+03  0.94489928675E+03  0.00000000000E+00 0.  1.
         13    1    5    5    0    0 -0.10838640800E+03 -0.44162184344E+01  0.20997800550E+03  0.23634271560E+03  0.00000000000E+00 0. -1.
        -13    1    5    5    0    0 -0.10481849607E+01  0.82926966542E+01 -0.70770478648E+01  0.10952265336E+02  0.00000000000E+00 0.  1.
          4    1    6    6  503    0  0.81931312053E+03 -0.15761693531E+03 -0.11179376827E+03  0.84179269087E+03  0.00000000000E+00 0. -1.
         -4    1    6    6    0  503  0.22821101845E+03 -0.71309345770E+02  0.26903138918E+02  0.24060147676E+03  0.00000000000E+00 0.  1.
<mgrwt>
<rscale>  0 0.23525306E+04</rscale>
<asrwt>0</asrwt>
<pdfrwt beam="1">  1        2 0.13611031E+00 0.23525306E+04</pdfrwt>
<pdfrwt beam="2">  1       -1 0.24059845E+00 0.23525306E+04</pdfrwt>
<totfact> 0.24841904E+00</totfact>
</mgrwt>
</event>
<event>
11    7  0.1497947E-008  0.1762279E+04  0.7818608E-02  0.8726620E-01
          2   -1    0    0  501    0  0.00000000000E+00  0.00000000000E+00  0.20735679286E+04  0.20735679286E+04  0.00000000000E+00 0. -1.
         -1   -1    0    0    0  501 -0.00000000000E+00 -0.00000000000E+00 -0.37443046279E+03  0.37443046279E+03  0.00000000000E+00 0.  1.
         24    2    1    2    0    0 -0.10975126445E+03 -0.13446994468E+02 -0.25500302651E+03  0.28914860005E+03  0.79713284170E+02 0.  0.
        254    2    1    2    0    0  0.10975126445E+03  0.13446994468E+02  0.19541404924E+04  0.21588497914E+04  0.91090130977E+03 0.  0.
         23    2    4    4    0    0 -0.96606755726E+02 -0.23204478316E+03  0.12243755759E+03  0.29434921789E+03  0.92048139163E+02 0.  0.
          4    1    3    3  502    0 -0.84165477309E+00 -0.83287483208E+01  0.31275809242E+01  0.89363411857E+01  0.00000000000E+00 0. -1.
         -3    1    3    3    0  502 -0.10890960968E+03 -0.51182461473E+01 -0.25813060744E+03  0.28021225887E+03  0.00000000000E+00 0.  1.
         13    1    5    5    0    0 -0.54474129426E+02 -0.21380013005E+03  0.90764417349E+02  0.23857096605E+03  0.00000000000E+00 0.  1.
        -13    1    5    5    0    0 -0.42132626300E+02 -0.18244653109E+02  0.31673140236E+02  0.55778251841E+02  0.00000000000E+00 0. -1.
          3    1    4    4  503    0  0.75208974897E+02  0.72780211867E+02  0.30464851091E+03  0.32212429952E+03  0.00000000000E+00 0. -1.
         -3    1    4    4    0  503  0.13114904528E+03  0.17271156576E+03  0.15270544239E+04  0.15423762740E+04  0.00000000000E+00 0.  1.
<mgrwt>
<rscale>  0 0.17622792E+04</rscale>
<asrwt>0</asrwt>
<pdfrwt beam="1">  1        2 0.31901045E+00 0.17622792E+04</pdfrwt>
<pdfrwt beam="2">  1       -1 0.57604688E-01 0.17622792E+04</pdfrwt>
<totfact> 0.20012633E+01</totfact>
</mgrwt>
</event>
