<event>
12    1  0.1504874E-007  0.1502449E+04  0.7818608E-02  0.8882826E-01
          1   -1    0    0  501    0  0.00000000000E+00  0.00000000000E+00  0.52359709283E+03  0.52359709283E+03  0.00000000000E+00 0. -1.
         -1   -1    0    0    0  501 -0.00000000000E+00 -0.00000000000E+00 -0.10778105115E+04  0.10778105115E+04  0.00000000000E+00 0.  1.
         23    2    1    2    0    0 -0.12339321142E+03 -0.16969105265E+03  0.27358399685E+03  0.35663412989E+03  0.91207243645E+02 0.  0.
        254    2    1    2    0    0  0.12339321142E+03  0.16969105265E+03 -0.82779741557E+03  0.12447734745E+04  0.90564424782E+03 0.  0.
        -24    2    4    4    0    0 -0.20244712110E+03 -0.14341486770E+03  0.39801959437E+02  0.26350021940E+03  0.79344240675E+02 0.  0.
         24    2    4    4    0    0  0.32584033251E+03  0.31310592035E+03 -0.86759937501E+03  0.98127325510E+03  0.77209364736E+02 0.  0.
         11    1    3    3    0    0 -0.12801544102E+03 -0.17514837146E+03  0.27398058040E+03  0.34947140599E+03  0.00000000000E+00 0. -1.
        -11    1    3    3    0    0  0.46222296071E+01  0.54573188087E+01 -0.39658355252E+00  0.71627238977E+01  0.00000000000E+00 0.  1.
          4    1    6    6  502    0  0.20660869715E+03  0.23990073093E+03 -0.55886314979E+03  0.64231420242E+03  0.00000000000E+00 0. -1.
          3    1    5    5  503    0 -0.78547229795E+02 -0.10160391117E+03  0.66418248656E+01  0.12859679588E+03  0.00000000000E+00 0. -1.
         -4    1    5    5    0  503 -0.12389989130E+03 -0.41810956529E+02  0.33160134572E+02  0.13490342351E+03  0.00000000000E+00 0.  1.
         -3    1    6    6    0  502  0.11923163536E+03  0.73205189426E+02 -0.30873622521E+03  0.33895905267E+03  0.00000000000E+00 0.  1.
<mgrwt>
<rscale>  0 0.15024493E+04</rscale>
<asrwt>0</asrwt>
<pdfrwt beam="1">  1        1 0.80553400E-01 0.15024493E+04</pdfrwt>
<pdfrwt beam="2">  1       -1 0.16581700E+00 0.15024493E+04</pdfrwt>
<totfact> 0.10623416E+01</totfact>
</mgrwt>
</event>
<event>
12    1  0.1504874E-007  0.2065865E+04  0.7818608E-02  0.8576431E-01
         -1   -1    0    0    0  501 -0.00000000000E+00  0.00000000000E+00  0.74118399997E+03  0.74118399997E+03  0.00000000000E+00 0.  1.
          1   -1    0    0  501    0  0.00000000000E+00 -0.00000000000E+00 -0.14395206423E+04  0.14395206423E+04  0.00000000000E+00 0. -1.
         23    2    1    2    0    0  0.10757661246E+03  0.52497648491E+03  0.39218129397E+03  0.66995021274E+03  0.88623264190E+02 0.  0.
        254    2    1    2    0    0 -0.10757661246E+03 -0.52497648491E+03 -0.10905179363E+04  0.15107544295E+04  0.89776196161E+03 0.  0.
        -24    2    4    4    0    0 -0.25013309221E+03 -0.62002416831E+02  0.42909522401E+02  0.27570224968E+03  0.88088817988E+02 0.  0.
         24    2    4    4    0    0  0.14255647975E+03 -0.46297406808E+03 -0.11334274587E+04  0.12350521798E+04  0.77644994665E+02 0.  0.
         11    1    3    3    0    0  0.53729717251E+02  0.10665374744E+03  0.11099186806E+03  0.16303710968E+03  0.00000000000E+00 0. -1.
        -11    1    3    3    0    0  0.53846895212E+02  0.41832273747E+03  0.28118942591E+03  0.50691310306E+03  0.00000000000E+00 0.  1.
          4    1    6    6  502    0  0.13291988591E+03 -0.40749685708E+03 -0.10527926792E+04  0.11367030439E+04  0.00000000000E+00 0. -1.
          1    1    5    5  503    0 -0.15965741497E+03 -0.16376420946E+02 -0.11099099649E+02  0.16087842406E+03  0.00000000000E+00 0. -1.
         -2    1    5    5    0  503 -0.90475677248E+02 -0.45625995885E+02  0.54008622050E+02  0.11482382562E+03  0.00000000000E+00 0.  1.
         -3    1    6    6    0  502  0.96365938445E+01 -0.55477210995E+02 -0.80634779493E+02  0.98349135963E+02  0.00000000000E+00 0.  1.
<mgrwt>
<rscale>  0 0.20658651E+04</rscale>
<asrwt>0</asrwt>
<pdfrwt beam="1">  1        1 0.22146471E+00 0.20658651E+04</pdfrwt>
<pdfrwt beam="2">  1       -1 0.11402831E+00 0.20658651E+04</pdfrwt>
<totfact> 0.46575188E+00</totfact>
</mgrwt>
</event>
<event>
12    1  0.1504874E-007  0.1541221E+04  0.7818608E-02  0.8857495E-01
         -1   -1    0    0    0  501 -0.00000000000E+00  0.00000000000E+00  0.26810070808E+03  0.26810070808E+03  0.00000000000E+00 0.  1.
          1   -1    0    0  501    0  0.00000000000E+00 -0.00000000000E+00 -0.22149917570E+04  0.22149917570E+04  0.00000000000E+00 0. -1.
         23    2    1    2    0    0  0.96515694318E+02 -0.34957980841E+03 -0.11950644302E+04  0.12524542379E+04  0.94558468904E+02 0.  0.
        254    2    1    2    0    0 -0.96515694318E+02  0.34957980841E+03 -0.75182661871E+03  0.12306382272E+04  0.90427089958E+03 0.  0.
        -24    2    4    4    0    0  0.12289625303E+03 -0.26589876200E+03 -0.14780421311E+03  0.33713494603E+03  0.77512874951E+02 0.  0.
         24    2    4    4    0    0 -0.21941194734E+03  0.61547857041E+03 -0.60402240561E+03  0.89350328112E+03  0.80929436114E+02 0.  0.
         13    1    3    3    0    0  0.13339675174E+02 -0.12318473885E+03 -0.54973023385E+03  0.56352085750E+03  0.00000000000E+00 0.  1.
        -13    1    3    3    0    0  0.83176019144E+02 -0.22639506956E+03 -0.64533419635E+03  0.68893338042E+03  0.00000000000E+00 0. -1.
          4    1    6    6  502    0 -0.25697025697E+02  0.48746358471E+02 -0.83228499482E+02  0.99817472017E+02  0.00000000000E+00 0. -1.
          3    1    5    5  503    0  0.49302195510E+02 -0.85861569159E+02 -0.11597620495E+02  0.99686610644E+02  0.00000000000E+00 0. -1.
         -2    1    5    5    0  503  0.73594057516E+02 -0.18003719284E+03 -0.13620659261E+03  0.23744833539E+03  0.00000000000E+00 0.  1.
         -3    1    6    6    0  502 -0.19371492165E+03  0.56673221194E+03 -0.52079390612E+03  0.79368580911E+03  0.00000000000E+00 0.  1.
<mgrwt>
<rscale>  0 0.15412214E+04</rscale>
<asrwt>0</asrwt>
<pdfrwt beam="1">  1        1 0.34076795E+00 0.15412214E+04</pdfrwt>
<pdfrwt beam="2">  1       -1 0.41246264E-01 0.15412214E+04</pdfrwt>
<totfact> 0.11823883E+01</totfact>
</mgrwt>
</event>
<event>
12    1  0.1504874E-007  0.2640405E+04  0.7818608E-02  0.8354605E-01
         -2   -1    0    0    0  501 -0.00000000000E+00  0.00000000000E+00  0.16098975841E+04  0.16098975841E+04  0.00000000000E+00 0.  1.
          2   -1    0    0  501    0  0.00000000000E+00 -0.00000000000E+00 -0.10826369580E+04  0.10826369580E+04  0.00000000000E+00 0. -1.
         23    2    1    2    0    0 -0.31418510696E+03 -0.80476257501E+03 -0.56651120323E+03  0.10370908316E+04  0.90925056808E+02 0.  0.
        254    2    1    2    0    0  0.31418510696E+03  0.80476257501E+03  0.10937718294E+04  0.16554437105E+04  0.89319761554E+03 0.  0.
        -24    2    4    4    0    0  0.30274152137E+03  0.93818468888E+03  0.64738669286E+03  0.11821141306E+04  0.80258011462E+02 0.  0.
         24    2    4    4    0    0  0.11443585590E+02 -0.13342211387E+03  0.44638513650E+03  0.47332957994E+03  0.82757386617E+02 0.  0.
         13    1    3    3    0    0 -0.12907558684E+03 -0.22172202069E+03 -0.15290489050E+03  0.29866547694E+03  0.00000000000E+00 0.  1.
        -13    1    3    3    0    0 -0.18510952012E+03 -0.58304055432E+03 -0.41360631272E+03  0.73842535462E+03  0.00000000000E+00 0. -1.
          2    1    6    6  502    0  0.16279118396E+02  0.64128660375E+01  0.48418216273E+02  0.51482601077E+02  0.00000000000E+00 0. -1.
          3    1    5    5  503    0  0.11627155969E+03  0.31689954986E+03  0.26481613078E+03  0.42903610969E+03  0.00000000000E+00 0. -1.
         -4    1    5    5    0  503  0.18646996168E+03  0.62128513901E+03  0.38257056209E+03  0.75307802089E+03  0.00000000000E+00 0.  1.
         -3    1    6    6    0  502 -0.48355328061E+01 -0.13983497991E+03  0.39796692023E+03  0.42184697886E+03  0.00000000000E+00 0.  1.
<mgrwt>
<rscale>  0 0.26404050E+04</rscale>
<asrwt>0</asrwt>
<pdfrwt beam="1">  1        2 0.16655953E+00 0.26404050E+04</pdfrwt>
<pdfrwt beam="2">  1       -2 0.24767655E+00 0.26404050E+04</pdfrwt>
<totfact> 0.13075533E+00</totfact>
</mgrwt>
</event>
<event>
12    1  0.1504874E-007  0.1420285E+04  0.7818608E-02  0.8939265E-01
         -1   -1    0    0    0  501 -0.00000000000E+00  0.00000000000E+00  0.66900823418E+03  0.66900823418E+03  0.00000000000E+00 0.  1.
          1   -1    0    0  501    0  0.00000000000E+00 -0.00000000000E+00 -0.75380543161E+03  0.75380543161E+03  0.00000000000E+00 0. -1.
         23    2    1    2    0    0  0.25153918036E+03 -0.26717717244E+03 -0.23235047076E+03  0.44464465008E+03  0.95218290519E+02 0.  0.
        254    2    1    2    0    0 -0.25153918036E+03  0.26717717244E+03  0.14755327334E+03  0.97816901571E+03  0.89464353465E+03 0.  0.
        -24    2    4    4    0    0 -0.49532064453E+03  0.70153938645E+02 -0.16099910126E+03  0.53117007079E+03  0.77180421715E+02 0.  0.
         24    2    4    4    0    0  0.24378146417E+03  0.19702323380E+03  0.30855237460E+03  0.44699894492E+03  0.79724098972E+02 0.  0.
         11    1    3    3    0    0  0.10061284579E+03 -0.87632023035E+02 -0.13762897786E+03  0.19168738025E+03  0.00000000000E+00 0. -1.
        -11    1    3    3    0    0  0.15092633456E+03 -0.17954514941E+03 -0.94721492898E+02  0.25295726983E+03  0.00000000000E+00 0.  1.
          4    1    6    6  502    0  0.10983593076E+03  0.10393907779E+03  0.96177166655E+02  0.17921303235E+03  0.00000000000E+00 0. -1.
          3    1    5    5  503    0 -0.15426298838E+03 -0.76284522637E+01 -0.28248585938E+02  0.15701352004E+03  0.00000000000E+00 0. -1.
         -4    1    5    5    0  503 -0.34105765615E+03  0.77782390909E+02 -0.13275051532E+03  0.37415655075E+03  0.00000000000E+00 0.  1.
         -3    1    6    6    0  502  0.13394553341E+03  0.93084156004E+02  0.21237520794E+03  0.26778591256E+03  0.00000000000E+00 0.  1.
<mgrwt>
<rscale>  0 0.14202845E+04</rscale>
<asrwt>0</asrwt>
<pdfrwt beam="1">  1        1 0.11597007E+00 0.14202845E+04</pdfrwt>
<pdfrwt beam="2">  1       -1 0.10292434E+00 0.14202845E+04</pdfrwt>
<totfact> 0.21105381E+01</totfact>
</mgrwt>
</event>
<event>
12    1  0.1504874E-007  0.2399929E+04  0.7818608E-02  0.8439530E-01
         -1   -1    0    0    0  501 -0.00000000000E+00  0.00000000000E+00  0.56326645486E+03  0.56326645486E+03  0.00000000000E+00 0.  1.
          1   -1    0    0  501    0  0.00000000000E+00 -0.00000000000E+00 -0.25563644544E+04  0.25563644544E+04  0.00000000000E+00 0. -1.
         23    2    1    2    0    0 -0.22609601462E+03  0.68299751537E+03  0.97057153457E+02  0.73176532477E+03  0.91953171017E+02 0.  0.
        254    2    1    2    0    0  0.22609601462E+03 -0.68299751537E+03 -0.20901551530E+04  0.23878655845E+04  0.90307722382E+03 0.  0.
        -24    2    4    4    0    0 -0.19175592456E+02 -0.44442365275E+03 -0.19626018756E+04  0.20141545881E+04  0.84454106396E+02 0.  0.
         24    2    4    4    0    0  0.24527160708E+03 -0.23857386262E+03 -0.12755327744E+03  0.37371099646E+03  0.79463331937E+02 0.  0.
         11    1    3    3    0    0 -0.10427267903E+03  0.23276673956E+03 -0.14316845444E+01  0.25505920167E+03  0.00000000000E+00 0. -1.
        -11    1    3    3    0    0 -0.12182333559E+03  0.45023077582E+03  0.98488838002E+02  0.47670612310E+03  0.00000000000E+00 0.  1.
          2    1    6    6  502    0  0.17584681605E+03 -0.21531075507E+03 -0.10366718798E+03  0.29669464071E+03  0.00000000000E+00 0. -1.
          3    1    5    5  503    0 -0.28017294979E+02 -0.34879779877E+03 -0.16675131996E+04  0.17038324871E+04  0.00000000000E+00 0. -1.
         -4    1    5    5    0  503  0.88417025227E+01 -0.95625853982E+02 -0.29508867602E+03  0.31032210100E+03  0.00000000000E+00 0.  1.
         -1    1    6    6    0  502  0.69424791031E+02 -0.23263107549E+02 -0.23886089461E+02  0.77016355745E+02  0.00000000000E+00 0.  1.
<mgrwt>
<rscale>  0 0.23999286E+04</rscale>
<asrwt>0</asrwt>
<pdfrwt beam="1">  1        1 0.39328683E+00 0.23999286E+04</pdfrwt>
<pdfrwt beam="2">  1       -1 0.86656379E-01 0.23999286E+04</pdfrwt>
<totfact> 0.14557695E+00</totfact>
</mgrwt>
</event>
<event>
12    1  0.1504874E-007  0.1399253E+04  0.7818608E-02  0.8954359E-01
          2   -1    0    0  501    0  0.00000000000E+00  0.00000000000E+00  0.28704817601E+04  0.28704817601E+04  0.00000000000E+00 0. -1.
         -2   -1    0    0    0  501 -0.00000000000E+00 -0.00000000000E+00 -0.17052099230E+03  0.17052099230E+03  0.00000000000E+00 0.  1.
         23    2    1    2    0    0 -0.31184350654E+03  0.13496098577E+02  0.24639127081E+03  0.40822110644E+03  0.92235005115E+02 0.  0.
        254    2    1    2    0    0  0.31184350654E+03 -0.13496098577E+02  0.24535694970E+04  0.26327816460E+04  0.90227900419E+03 0.  0.
        -24    2    4    4    0    0 -0.27518286448E+03  0.12334059405E+03  0.51812147254E+03  0.60405212284E+03  0.74098554365E+02 0.  0.
         24    2    4    4    0    0  0.58702637102E+03 -0.13683669263E+03  0.19354480245E+04  0.20287295231E+04  0.80375256395E+02 0.  0.
         13    1    3    3    0    0 -0.27434286912E+03 -0.10231616059E+02  0.17970799601E+03  0.32812140990E+03  0.00000000000E+00 0.  1.
        -13    1    3    3    0    0 -0.37500637419E+02  0.23727714636E+02  0.66683274799E+02  0.80099696545E+02  0.00000000000E+00 0. -1.
          4    1    6    6  502    0  0.97171577614E+02 -0.29056199181E+02  0.43503226095E+03  0.44669860787E+03  0.00000000000E+00 0. -1.
          3    1    5    5  503    0 -0.64808657517E+02  0.48657873935E+01  0.73553939099E+02  0.98153043423E+02  0.00000000000E+00 0. -1.
         -4    1    5    5    0  503 -0.21037420696E+03  0.11847480666E+03  0.44456753344E+03  0.50589907942E+03  0.00000000000E+00 0.  1.
         -3    1    6    6    0  502  0.48985479340E+03 -0.10778049344E+03  0.15004157635E+04  0.15820309152E+04  0.00000000000E+00 0.  1.
<mgrwt>
<rscale>  0 0.13992532E+04</rscale>
<asrwt>0</asrwt>
<pdfrwt beam="1">  1        2 0.44161254E+00 0.13992532E+04</pdfrwt>
<pdfrwt beam="2">  1       -2 0.26234001E-01 0.13992532E+04</pdfrwt>
<totfact> 0.26994104E+01</totfact>
</mgrwt>
</event>
<event>
12    1  0.1504874E-007  0.1208724E+04  0.7818608E-02  0.9105255E-01
         -2   -1    0    0    0  501 -0.00000000000E+00  0.00000000000E+00  0.55384421453E+03  0.55384421453E+03  0.00000000000E+00 0.  1.
          2   -1    0    0  501    0  0.00000000000E+00 -0.00000000000E+00 -0.65948734232E+03  0.65948734232E+03  0.00000000000E+00 0. -1.
         23    2    1    2    0    0  0.25432310741E+02  0.13635098305E+03  0.19688423368E+03  0.25760730870E+03  0.91431564665E+02 0.  0.
        254    2    1    2    0    0 -0.25432310741E+02 -0.13635098305E+03 -0.30252736148E+03  0.95572424815E+03  0.89590604477E+03 0.  0.
        -24    2    4    4    0    0  0.10987871455E+03 -0.12814234531E+03  0.28872473302E+03  0.34381133245E+03  0.79689825525E+02 0.  0.
         24    2    4    4    0    0 -0.13531102529E+03 -0.82086377334E+01 -0.59125209450E+03  0.61191291570E+03  0.80510383551E+02 0.  0.
         11    1    3    3    0    0  0.13330464054E+02  0.66051699678E+02  0.16734085601E+03  0.18039814410E+03  0.00000000000E+00 0.  1.
        -11    1    3    3    0    0  0.12101846687E+02  0.70299283368E+02  0.29543377673E+02  0.77209164609E+02  0.00000000000E+00 0. -1.
          2    1    6    6  502    0  0.62369260045E+01  0.10831992427E+02 -0.84475946539E+02  0.85395648892E+02  0.00000000000E+00 0. -1.
          1    1    5    5  503    0 -0.11620470817E+02 -0.58544903664E+01  0.11524949468E+02  0.17382026916E+02  0.00000000000E+00 0. -1.
         -2    1    5    5    0  503  0.12149918536E+03 -0.12228785495E+03  0.27719978355E+03  0.32642930553E+03  0.00000000000E+00 0.  1.
         -1    1    6    6    0  502 -0.14154795129E+03 -0.19040630160E+02 -0.50677614796E+03  0.52651726681E+03  0.00000000000E+00 0.  1.
<mgrwt>
<rscale>  0 0.12087237E+04</rscale>
<asrwt>0</asrwt>
<pdfrwt beam="1">  1        2 0.10145959E+00 0.12087237E+04</pdfrwt>
<pdfrwt beam="2">  1       -2 0.85206802E-01 0.12087237E+04</pdfrwt>
<totfact> 0.52209324E+01</totfact>
</mgrwt>
</event>
<event>
12    1  0.1504874E-007  0.1346571E+04  0.7818608E-02  0.8993428E-01
          1   -1    0    0  501    0  0.00000000000E+00  0.00000000000E+00  0.54556875360E+03  0.54556875360E+03  0.00000000000E+00 0. -1.
         -1   -1    0    0    0  501 -0.00000000000E+00 -0.00000000000E+00 -0.83090043206E+03  0.83090043206E+03  0.00000000000E+00 0.  1.
         23    2    1    2    0    0 -0.24983868434E+03 -0.17390530428E+03 -0.27281864856E+03  0.41853761745E+03  0.89896046468E+02 0.  0.
        254    2    1    2    0    0  0.24983868434E+03  0.17390530428E+03 -0.12513029898E+02  0.95793156821E+03  0.90819265049E+03 0.  0.
        -24    2    4    4    0    0  0.24192443733E+03  0.27011200653E+02 -0.43423868329E+03  0.50426193581E+03  0.80373052065E+02 0.  0.
         24    2    4    4    0    0  0.79142470124E+01  0.14689410363E+03  0.42172565339E+03  0.45366963240E+03  0.79517895122E+02 0.  0.
         11    1    3    3    0    0 -0.15784743774E+03 -0.13280429382E+03 -0.23030079059E+03  0.30917834369E+03  0.00000000000E+00 0.  1.
        -11    1    3    3    0    0 -0.91991246600E+02 -0.41101010461E+02 -0.42517857965E+02  0.10935927376E+03  0.00000000000E+00 0. -1.
          2    1    6    6  502    0 -0.23440512740E+02  0.12783487376E+03  0.34353090645E+03  0.36729374658E+03  0.00000000000E+00 0. -1.
          1    1    5    5  503    0  0.19012856331E+03  0.28768046946E+02 -0.39479008891E+03  0.43913060177E+03  0.00000000000E+00 0. -1.
         -2    1    5    5    0  503  0.51795874018E+02 -0.17568462930E+01 -0.39448594380E+02  0.65131334031E+02  0.00000000000E+00 0.  1.
         -1    1    6    6    0  502  0.31354759753E+02  0.19059229866E+02  0.78194746944E+02  0.86375885824E+02  0.00000000000E+00 0.  1.
<mgrwt>
<rscale>  0 0.13465709E+04</rscale>
<asrwt>0</asrwt>
<pdfrwt beam="1">  1        1 0.83933655E-01 0.13465709E+04</pdfrwt>
<pdfrwt beam="2">  1       -1 0.12783084E+00 0.13465709E+04</pdfrwt>
<totfact> 0.20333239E+01</totfact>
</mgrwt>
</event>
<event>
12    1  0.1504874E-007  0.1113659E+04  0.7818608E-02  0.9191980E-01
         -2   -1    0    0    0  501 -0.00000000000E+00  0.00000000000E+00  0.43533399385E+03  0.43533399385E+03  0.00000000000E+00 0.  1.
          2   -1    0    0  501    0  0.00000000000E+00 -0.00000000000E+00 -0.71223238400E+03  0.71223238400E+03  0.00000000000E+00 0. -1.
         23    2    1    2    0    0  0.13114112112E+03 -0.58898052817E+02 -0.15311839390E+03  0.22874384532E+03  0.90617492497E+02 0.  0.
        254    2    1    2    0    0 -0.13114112112E+03  0.58898052817E+02 -0.12377999626E+03  0.91882253253E+03  0.89902524133E+03 0.  0.
        -24    2    4    4    0    0 -0.37773707692E+03  0.78344520648E+02 -0.38445481018E+03  0.55047826477E+03  0.79985346899E+02 0.  0.
         24    2    4    4    0    0  0.24659595580E+03 -0.19446467830E+02  0.26067481392E+03  0.36834426776E+03  0.80860438090E+02 0.  0.
         11    1    3    3    0    0  0.46157686474E+02 -0.68221089089E+02 -0.92982098707E+02  0.12421883793E+03  0.00000000000E+00 0. -1.
        -11    1    3    3    0    0  0.84983434646E+02  0.93230362721E+01 -0.60136295188E+02  0.10452500738E+03  0.00000000000E+00 0.  1.
          2    1    6    6  502    0  0.20712100163E+02  0.98705434538E+01  0.10564888067E+01  0.22968127696E+02  0.00000000000E+00 0. -1.
          1    1    5    5  503    0 -0.86804248224E+01  0.33239163938E+01  0.33698264588E+01  0.98870584935E+01  0.00000000000E+00 0. -1.
         -2    1    5    5    0  503 -0.36905665210E+03  0.75020604254E+02 -0.38782463664E+03  0.54059120628E+03  0.00000000000E+00 0.  1.
         -1    1    6    6    0  502  0.22588385564E+03 -0.29317011284E+02  0.25961832511E+03  0.34537614006E+03  0.00000000000E+00 0.  1.
<mgrwt>
<rscale>  0 0.11136588E+04</rscale>
<asrwt>0</asrwt>
<pdfrwt beam="1">  1        2 0.10957421E+00 0.11136588E+04</pdfrwt>
<pdfrwt beam="2">  1       -2 0.66974461E-01 0.11136588E+04</pdfrwt>
<totfact> 0.81418277E+01</totfact>
</mgrwt>
</event>
<event>
12    1  0.1504874E-007  0.1441465E+04  0.7818608E-02  0.8924339E-01
          2   -1    0    0  501    0  0.00000000000E+00  0.00000000000E+00  0.38015447897E+03  0.38015447897E+03  0.00000000000E+00 0. -1.
         -2   -1    0    0    0  501 -0.00000000000E+00 -0.00000000000E+00 -0.13664331233E+04  0.13664331233E+04  0.00000000000E+00 0.  1.
         23    2    1    2    0    0  0.27045934083E+03  0.14443890511E+03 -0.66144918206E+03  0.73472266112E+03  0.91057761626E+02 0.  0.
        254    2    1    2    0    0 -0.27045934083E+03 -0.14443890511E+03 -0.32482946231E+03  0.10118649412E+04  0.90793481446E+03 0.  0.
        -24    2    4    4    0    0  0.23515575776E+02 -0.45531826528E+03 -0.34293514020E+03  0.57623695750E+03  0.81097569649E+02 0.  0.
         24    2    4    4    0    0 -0.29397491660E+03  0.31087936016E+03  0.18105677891E+02  0.43562798371E+03  0.79854220007E+02 0.  0.
         11    1    3    3    0    0  0.72674246881E+02  0.32256555599E+02 -0.27577014332E+03  0.28700383880E+03  0.00000000000E+00 0. -1.
        -11    1    3    3    0    0  0.19778509395E+03  0.11218234951E+03 -0.38567903875E+03  0.44771882232E+03  0.00000000000E+00 0.  1.
          2    1    6    6  502    0 -0.29590662945E+03  0.29426610277E+03  0.11015765805E+02  0.41746211766E+03  0.00000000000E+00 0. -1.
          3    1    5    5  503    0  0.21830548071E+02 -0.43447880612E+03 -0.29987255821E+03  0.52836725576E+03  0.00000000000E+00 0. -1.
         -4    1    5    5    0  503  0.16850277047E+01 -0.20839459158E+02 -0.43062581993E+02  0.47869701735E+02  0.00000000000E+00 0.  1.
         -1    1    6    6    0  502  0.19317128449E+01  0.16613257395E+02  0.70899120862E+01  0.18165866045E+02  0.00000000000E+00 0.  1.
<mgrwt>
<rscale>  0 0.14414655E+04</rscale>
<asrwt>0</asrwt>
<pdfrwt beam="1">  1        2 0.58485304E-01 0.14414655E+04</pdfrwt>
<pdfrwt beam="2">  1       -2 0.21022048E+00 0.14414655E+04</pdfrwt>
<totfact> 0.93201488E+00</totfact>
</mgrwt>
</event>
<event>
12    1  0.1504874E-007  0.1506259E+04  0.7818608E-02  0.8880301E-01
         -2   -1    0    0    0  501 -0.00000000000E+00  0.00000000000E+00  0.30783770258E+03  0.30783770258E+03  0.00000000000E+00 0.  1.
          2   -1    0    0  501    0  0.00000000000E+00 -0.00000000000E+00 -0.18425423620E+04  0.18425423620E+04  0.00000000000E+00 0. -1.
         23    2    1    2    0    0  0.16268746386E+03  0.44798395076E+03 -0.51545540333E+03  0.70799947446E+03  0.91717784368E+02 0.  0.
        254    2    1    2    0    0 -0.16268746386E+03 -0.44798395076E+03 -0.10192492561E+04  0.14423805901E+04  0.90246101836E+03 0.  0.
        -24    2    4    4    0    0 -0.34188895921E+03 -0.10883827879E+03 -0.19052983644E+02  0.36818702510E+03  0.80404215716E+02 0.  0.
         24    2    4    4    0    0  0.17920149535E+03 -0.33914567197E+03 -0.10001962724E+04  0.10741935650E+04  0.79788902524E+02 0.  0.
         13    1    3    3    0    0  0.32777454321E+02  0.56506506665E+02 -0.11975815144E+03  0.13641613410E+03  0.00000000000E+00 0. -1.
        -13    1    3    3    0    0  0.12991000954E+03  0.39147744410E+03 -0.39569725189E+03  0.57158334035E+03  0.00000000000E+00 0.  1.
          2    1    6    6  502    0  0.12726743830E+03 -0.30056944188E+03 -0.80980266771E+03  0.87310901432E+03  0.00000000000E+00 0. -1.
          3    1    5    5  503    0 -0.28065757524E+03 -0.59925985854E+02  0.21813126208E+01  0.28699225851E+03  0.00000000000E+00 0. -1.
         -4    1    5    5    0  503 -0.61231383970E+02 -0.48912292938E+02 -0.21234296265E+02  0.81194766588E+02  0.00000000000E+00 0.  1.
         -1    1    6    6    0  502  0.51934057051E+02 -0.38576230092E+02 -0.19039360470E+03  0.20108455067E+03  0.00000000000E+00 0.  1.
<mgrwt>
<rscale>  0 0.15062590E+04</rscale>
<asrwt>0</asrwt>
<pdfrwt beam="1">  1        2 0.28346806E+00 0.15062590E+04</pdfrwt>
<pdfrwt beam="2">  1       -2 0.47359647E-01 0.15062590E+04</pdfrwt>
<totfact> 0.33348729E+01</totfact>
</mgrwt>
</event>
<event>
12    1  0.1504874E-007  0.2145534E+04  0.7818608E-02  0.8541446E-01
         -2   -1    0    0    0  501 -0.00000000000E+00  0.00000000000E+00  0.21585396479E+04  0.21585396479E+04  0.00000000000E+00 0.  1.
          2   -1    0    0  501    0  0.00000000000E+00 -0.00000000000E+00 -0.53315179646E+03  0.53315179646E+03  0.00000000000E+00 0. -1.
         23    2    1    2    0    0 -0.29499033687E+02  0.88150055283E+03  0.70447274763E+03  0.11326346136E+04  0.93090805838E+02 0.  0.
        254    2    1    2    0    0  0.29499033687E+02 -0.88150055283E+03  0.92091510381E+03  0.15590568308E+04  0.89702851433E+03 0.  0.
        -24    2    4    4    0    0 -0.20467093845E+03  0.23337273230E+02  0.46641061689E+03  0.51666978407E+03  0.83510363714E+02 0.  0.
         24    2    4    4    0    0  0.23416997214E+03 -0.90483782606E+03  0.45450448692E+03  0.10423870467E+04  0.80183285016E+02 0.  0.
         13    1    3    3    0    0 -0.49363121987E+02  0.83245995414E+03  0.66551986806E+03  0.10669315760E+04  0.00000000000E+00 0. -1.
        -13    1    3    3    0    0  0.19864088300E+02  0.49040598692E+02  0.38952879567E+02  0.65703037606E+02  0.00000000000E+00 0.  1.
          2    1    6    6  502    0  0.15544751648E+03 -0.54387548601E+03  0.31522706338E+03  0.64755893643E+03  0.00000000000E+00 0. -1.
          1    1    5    5  503    0 -0.84760346411E+02  0.34679935488E+02  0.12741582382E+03  0.15691337231E+03  0.00000000000E+00 0. -1.
         -2    1    5    5    0  503 -0.11991059204E+03 -0.11342662259E+02  0.33899479307E+03  0.35975641176E+03  0.00000000000E+00 0.  1.
         -1    1    6    6    0  502  0.78722455659E+02 -0.36096234005E+03  0.13927742354E+03  0.39482811028E+03  0.00000000000E+00 0.  1.
<mgrwt>
<rscale>  0 0.21455342E+04</rscale>
<asrwt>0</asrwt>
<pdfrwt beam="1">  1        2 0.82023355E-01 0.21455342E+04</pdfrwt>
<pdfrwt beam="2">  1       -2 0.33208302E+00 0.21455342E+04</pdfrwt>
<totfact> 0.10579935E+00</totfact>
</mgrwt>
</event>
<event>
12    1  0.1504874E-007  0.1903195E+04  0.7818608E-02  0.8653268E-01
          2   -1    0    0  501    0  0.00000000000E+00  0.00000000000E+00  0.15496969086E+04  0.15496969086E+04  0.00000000000E+00 0. -1.
         -2   -1    0    0    0  501 -0.00000000000E+00 -0.00000000000E+00 -0.58433221404E+03  0.58433221404E+03  0.00000000000E+00 0.  1.
         23    2    1    2    0    0  0.56382807489E+03 -0.16638850701E+03  0.83438565073E+03  0.10249824981E+04  0.93821500783E+02 0.  0.
        254    2    1    2    0    0 -0.56382807489E+03  0.16638850701E+03  0.13097904380E+03  0.11090466245E+04  0.93125811248E+03 0.  0.
        -24    2    4    4    0    0  0.21177782825E+03  0.20163673506E+02 -0.14596473994E+03  0.26880011038E+03  0.75441180833E+02 0.  0.
         24    2    4    4    0    0 -0.77560590314E+03  0.14622483350E+03  0.27694378374E+03  0.84024651410E+03  0.79813070302E+02 0.  0.
         11    1    3    3    0    0  0.30161557107E+03 -0.85182906540E+02  0.52447447970E+03  0.61098409156E+03  0.00000000000E+00 0. -1.
        -11    1    3    3    0    0  0.26221250382E+03 -0.81205600470E+02  0.30991117102E+03  0.41399840656E+03  0.00000000000E+00 0.  1.
          2    1    6    6  502    0 -0.10610446793E+03  0.45864932757E+02  0.53211251788E+02  0.12725245572E+03  0.00000000000E+00 0. -1.
          3    1    5    5  503    0  0.18840869016E+03  0.71181627927E+01 -0.15101275490E+03  0.24156439082E+03  0.00000000000E+00 0. -1.
         -4    1    5    5    0  503  0.23369138090E+02  0.13045510713E+02  0.50480149592E+01  0.27235719558E+02  0.00000000000E+00 0.  1.
         -1    1    6    6    0  502 -0.66950143521E+03  0.10035990075E+03  0.22373253196E+03  0.71299405838E+03  0.00000000000E+00 0.  1.
<mgrwt>
<rscale>  0 0.19031950E+04</rscale>
<asrwt>0</asrwt>
<pdfrwt beam="1">  1        2 0.23841491E+00 0.19031950E+04</pdfrwt>
<pdfrwt beam="2">  1       -2 0.89897264E-01 0.19031950E+04</pdfrwt>
<totfact> 0.11807535E+01</totfact>
</mgrwt>
</event>
<event>
12    1  0.1504874E-007  0.1281153E+04  0.7818608E-02  0.9044646E-01
          1   -1    0    0  501    0  0.00000000000E+00  0.00000000000E+00  0.87952479698E+03  0.87952479698E+03  0.00000000000E+00 0. -1.
         -1   -1    0    0    0  501 -0.00000000000E+00 -0.00000000000E+00 -0.46654525219E+03  0.46654525219E+03  0.00000000000E+00 0.  1.
         23    2    1    2    0    0 -0.22349670708E+02  0.29662286754E+03  0.22331626763E+03  0.38318897032E+03  0.92081476214E+02 0.  0.
        254    2    1    2    0    0  0.22349670708E+02 -0.29662286754E+03  0.18966327716E+03  0.96288107885E+03  0.89592587862E+03 0.  0.
        -24    2    4    4    0    0  0.41902468358E+03 -0.10690894446E+03  0.25747928450E+03  0.51074052536E+03  0.86885524893E+02 0.  0.
         24    2    4    4    0    0 -0.39667501288E+03 -0.18971392307E+03 -0.67816007337E+02  0.45214055349E+03  0.80558244853E+02 0.  0.
         11    1    3    3    0    0 -0.37199360948E+02  0.45668252379E+02  0.55494642359E+02  0.80926121004E+02  0.00000000000E+00 0.  1.
        -11    1    3    3    0    0  0.14849690240E+02  0.25095461516E+03  0.16782162527E+03  0.30226284932E+03  0.00000000000E+00 0. -1.
          4    1    6    6  502    0 -0.74369685158E+02 -0.67749272153E+02  0.15702911436E+01  0.10061451069E+03  0.00000000000E+00 0. -1.
          3    1    5    5  503    0  0.74946138106E+02  0.34945528095E+01  0.74358210384E+02  0.10563275518E+03  0.00000000000E+00 0. -1.
         -4    1    5    5    0  503  0.34407854548E+03 -0.11040349727E+03  0.18312107412E+03  0.40510777017E+03  0.00000000000E+00 0.  1.
         -3    1    6    6    0  502 -0.32230532772E+03 -0.12196465092E+03 -0.69386298480E+02  0.35152604280E+03  0.00000000000E+00 0.  1.
<mgrwt>
<rscale>  0 0.12811528E+04</rscale>
<asrwt>0</asrwt>
<pdfrwt beam="1">  1        1 0.13531151E+00 0.12811528E+04</pdfrwt>
<pdfrwt beam="2">  1       -1 0.71776193E-01 0.12811528E+04</pdfrwt>
<totfact> 0.36480266E+01</totfact>
</mgrwt>
</event>
<event>
12    1  0.1504874E-007  0.1022098E+04  0.7818608E-02  0.9284635E-01
          2   -1    0    0  501    0  0.00000000000E+00  0.00000000000E+00  0.21810316643E+04  0.21810316643E+04  0.00000000000E+00 0. -1.
         -2   -1    0    0    0  501 -0.00000000000E+00 -0.00000000000E+00 -0.11974654750E+03  0.11974654750E+03  0.00000000000E+00 0.  1.
         23    2    1    2    0    0 -0.51281191359E+02 -0.50046942404E+02  0.31397462301E+03  0.33446998276E+03  0.90308628831E+02 0.  0.
        254    2    1    2    0    0  0.51281191359E+02  0.50046942404E+02  0.17473104938E+04  0.19663082290E+04  0.89896586856E+03 0.  0.
        -24    2    4    4    0    0  0.38571742838E+03  0.20106908486E+02  0.14739621177E+04  0.15259759929E+04  0.82802077437E+02 0.  0.
         24    2    4    4    0    0 -0.33443623702E+03  0.29940033917E+02  0.27334837608E+03  0.44033223617E+03  0.80181925910E+02 0.  0.
         11    1    3    3    0    0  0.12938696098E+01  0.24155678090E+02  0.59210899345E+02  0.63961718894E+02  0.00000000000E+00 0.  1.
        -11    1    3    3    0    0 -0.52575060969E+02 -0.74202620493E+02  0.25476372366E+03  0.27050826386E+03  0.00000000000E+00 0. -1.
          2    1    6    6  502    0  0.34615430189E+01  0.92022055853E-01 -0.14730672011E+01  0.37630672476E+01  0.00000000000E+00 0. -1.
          1    1    5    5  503    0  0.81343002556E+02 -0.75079014058E+01  0.20380675401E+03  0.21956831654E+03  0.00000000000E+00 0. -1.
         -2    1    5    5    0  503  0.30437442582E+03  0.27614809892E+02  0.12701553637E+04  0.13064076763E+04  0.00000000000E+00 0.  1.
         -1    1    6    6    0  502 -0.33789778004E+03  0.29848011861E+02  0.27482144328E+03  0.43656916893E+03  0.00000000000E+00 0.  1.
<mgrwt>
<rscale>  0 0.10220979E+04</rscale>
<asrwt>0</asrwt>
<pdfrwt beam="1">  1        2 0.33554330E+00 0.10220979E+04</pdfrwt>
<pdfrwt beam="2">  1       -2 0.18422547E-01 0.10220979E+04</pdfrwt>
<totfact> 0.13099760E+02</totfact>
</mgrwt>
</event>
<event>
12    1  0.1504874E-007  0.1239126E+04  0.7818608E-02  0.9079283E-01
         -3   -1    0    0    0  501 -0.00000000000E+00  0.00000000000E+00  0.12376989705E+04  0.12376989705E+04  0.00000000000E+00 0.  1.
          3   -1    0    0  501    0  0.00000000000E+00 -0.00000000000E+00 -0.31013848059E+03  0.31013848059E+03  0.00000000000E+00 0. -1.
         23    2    1    2    0    0  0.26483603159E+03  0.16051741048E+03  0.23409506348E+03  0.39871242082E+03  0.90923776153E+02 0.  0.
        254    2    1    2    0    0 -0.26483603159E+03 -0.16051741048E+03  0.69346542643E+03  0.11491250303E+04  0.86237467197E+03 0.  0.
        -24    2    4    4    0    0 -0.21582330210E+03 -0.92978458915E+02 -0.15541460426E+03  0.29219639463E+03  0.77461876211E+02 0.  0.
         24    2    4    4    0    0 -0.49012729491E+02 -0.67538951570E+02  0.84888003069E+03  0.85692863565E+03  0.82253403975E+02 0.  0.
         11    1    3    3    0    0  0.98790762242E+02  0.73052569761E+02  0.41214442069E+02  0.12959522710E+03  0.00000000000E+00 0.  1.
        -11    1    3    3    0    0  0.16604526935E+03  0.87464840724E+02  0.19288062141E+03  0.26911719371E+03  0.00000000000E+00 0. -1.
          2    1    6    6  502    0 -0.65617475373E+02 -0.47230218657E+02  0.75914090048E+03  0.76343385660E+03  0.00000000000E+00 0. -1.
          3    1    5    5  503    0 -0.99945942670E+02 -0.84341964457E+02 -0.91172475997E+02  0.15942138754E+03  0.00000000000E+00 0. -1.
         -2    1    5    5    0  503 -0.11587735943E+03 -0.86364944579E+01 -0.64242128260E+02  0.13277500709E+03  0.00000000000E+00 0.  1.
         -1    1    6    6    0  502  0.16604745882E+02 -0.20308732913E+02  0.89739130213E+02  0.93494779051E+02  0.00000000000E+00 0.  1.
<mgrwt>
<rscale>  0 0.12391256E+04</rscale>
<asrwt>0</asrwt>
<pdfrwt beam="1">  1        3 0.47713613E-01 0.12391256E+04</pdfrwt>
<pdfrwt beam="2">  1       -3 0.19041522E+00 0.12391256E+04</pdfrwt>
<totfact> 0.19009464E+00</totfact>
</mgrwt>
</event>
<event>
12    1  0.1504874E-007  0.1506520E+04  0.7818608E-02  0.8880129E-01
         -1   -1    0    0    0  501 -0.00000000000E+00  0.00000000000E+00  0.51102851914E+03  0.51102851914E+03  0.00000000000E+00 0.  1.
          1   -1    0    0  501    0  0.00000000000E+00 -0.00000000000E+00 -0.11103110927E+04  0.11103110927E+04  0.00000000000E+00 0. -1.
         23    2    1    2    0    0 -0.84266341248E+02  0.24234786445E+03  0.24166538780E+03  0.36448746890E+03  0.92820534684E+02 0.  0.
        254    2    1    2    0    0  0.84266341248E+02 -0.24234786445E+03 -0.84094796131E+03  0.12568521429E+04  0.89813725667E+03 0.  0.
        -24    2    4    4    0    0 -0.19152585237E+03  0.24901147462E+03 -0.49259387129E+03  0.58968719269E+03  0.79958717939E+02 0.  0.
         24    2    4    4    0    0  0.27579219362E+03 -0.49135933907E+03 -0.34835409002E+03  0.66716495021E+03  0.79140157949E+02 0.  0.
         11    1    3    3    0    0 -0.41039958647E+02  0.28157031156E+02  0.21246968375E+02  0.54115896688E+02  0.00000000000E+00 0. -1.
        -11    1    3    3    0    0 -0.43226382601E+02  0.21419083329E+03  0.22041841942E+03  0.31037157221E+03  0.00000000000E+00 0.  1.
          4    1    6    6  502    0  0.13284116082E+03 -0.18220014193E+03 -0.17207677014E+03  0.28364428524E+03  0.00000000000E+00 0. -1.
          3    1    5    5  503    0 -0.12567929714E+03  0.13035198092E+03 -0.21801006130E+03  0.28339956155E+03  0.00000000000E+00 0. -1.
         -4    1    5    5    0  503 -0.65846555229E+02  0.11865949370E+03 -0.27458381000E+03  0.30628763115E+03  0.00000000000E+00 0.  1.
         -3    1    6    6    0  502  0.14295103280E+03 -0.30915919714E+03 -0.17627731988E+03  0.38352066497E+03  0.00000000000E+00 0.  1.
<mgrwt>
<rscale>  0 0.15065200E+04</rscale>
<asrwt>0</asrwt>
<pdfrwt beam="1">  1        1 0.17081709E+00 0.15065200E+04</pdfrwt>
<pdfrwt beam="2">  1       -1 0.78619773E-01 0.15065200E+04</pdfrwt>
<totfact> 0.19494388E+01</totfact>
</mgrwt>
</event>
<event>
12    1  0.1504874E-007  0.1038788E+04  0.7818608E-02  0.9266997E-01
         -2   -1    0    0    0  501 -0.00000000000E+00  0.00000000000E+00  0.13145193282E+03  0.13145193282E+03  0.00000000000E+00 0. -1.
          2   -1    0    0  501    0  0.00000000000E+00 -0.00000000000E+00 -0.20522329851E+04  0.20522329851E+04  0.00000000000E+00 0.  1.
         23    2    1    2    0    0  0.82924049295E+02 -0.43775254867E+02 -0.19569264844E+03  0.23479341145E+03  0.89664165179E+02 0.  0.
        254    2    1    2    0    0 -0.82924049295E+02  0.43775254867E+02 -0.17250884039E+04  0.19488915065E+04  0.90191764150E+03 0.  0.
        -24    2    4    4    0    0  0.15528457106E+03 -0.10411978737E+03 -0.16299452339E+04  0.16422991209E+04  0.73964240123E+02 0.  0.
         24    2    4    4    0    0 -0.23820862036E+03  0.14789504224E+03 -0.95143169933E+02  0.30659238558E+03  0.79563671225E+02 0.  0.
         11    1    3    3    0    0 -0.15043397163E+02 -0.46247228912E+01 -0.64762490588E+02  0.66647370895E+02  0.00000000000E+00 0.  1.
        -11    1    3    3    0    0  0.97967446459E+02 -0.39150531975E+02 -0.13093015786E+03  0.16814604056E+03  0.00000000000E+00 0. -1.
          4    1    6    6  502    0 -0.11149164049E+03  0.25166422762E+02 -0.26706436851E+02  0.11737533175E+03  0.00000000000E+00 0. -1.
          1    1    5    5  503    0  0.11179143884E+03 -0.35321360408E+02 -0.83333791074E+03  0.84154441225E+03  0.00000000000E+00 0. -1.
         -2    1    5    5    0  503  0.43493132220E+02 -0.68798426962E+02 -0.79660732318E+03  0.80075470867E+03  0.00000000000E+00 0.  1.
         -3    1    6    6    0  502 -0.12671697987E+03  0.12272861947E+03 -0.68436733083E+02  0.18921705383E+03  0.00000000000E+00 0.  1.
<mgrwt>
<rscale>  0 0.10387877E+04</rscale>
<asrwt>0</asrwt>
<pdfrwt beam="1">  1        2 0.31572813E+00 0.10387877E+04</pdfrwt>
<pdfrwt beam="2">  1       -2 0.20223375E-01 0.10387877E+04</pdfrwt>
<totfact> 0.13095961E+02</totfact>
</mgrwt>
</event>
<event>
12    1  0.1504874E-007  0.1906378E+04  0.7818608E-02  0.8651688E-01
          2   -1    0    0  501    0  0.00000000000E+00  0.00000000000E+00  0.32499187622E+04  0.32499187622E+04  0.00000000000E+00 0. -1.
         -2   -1    0    0    0  501 -0.00000000000E+00 -0.00000000000E+00 -0.27956675747E+03  0.27956675747E+03  0.00000000000E+00 0.  1.
         23    2    1    2    0    0  0.31240636050E+01  0.22562027563E+03 -0.14049654113E+03  0.28110206477E+03  0.91459412865E+02 0.  0.
        254    2    1    2    0    0 -0.31240636050E+01 -0.22562027563E+03  0.31108485458E+04  0.32483834549E+04  0.90758036907E+03 0.  0.
        -24    2    4    4    0    0  0.21645613218E+03  0.26364311511E+03  0.77772220285E+03  0.85293791125E+03  0.79311451456E+02 0.  0.
         24    2    4    4    0    0 -0.21958019579E+03 -0.48926339074E+03  0.23331263430E+04  0.23954455436E+04  0.84182494157E+02 0.  0.
         13    1    3    3    0    0  0.28915539711E+00  0.22365005942E+03 -0.10789073399E+03  0.24831400115E+03  0.00000000000E+00 0.  1.
        -13    1    3    3    0    0  0.28349082079E+01  0.19702162070E+01 -0.32605807137E+02  0.32788063613E+02  0.00000000000E+00 0. -1.
          4    1    6    6  502    0 -0.79761369792E+02 -0.27931109287E+03  0.12235507005E+04  0.12575583006E+04  0.00000000000E+00 0. -1.
          3    1    5    5  503    0  0.57192799247E+02  0.38151487155E+02  0.10208269659E+03  0.12307489265E+03  0.00000000000E+00 0. -1.
         -4    1    5    5    0  503  0.15926333294E+03  0.22549162796E+03  0.67563950626E+03  0.72986301860E+03  0.00000000000E+00 0.  1.
         -3    1    6    6    0  502 -0.13981882600E+03 -0.20995229787E+03  0.11095756424E+04  0.11378872430E+04  0.00000000000E+00 0.  1.
<mgrwt>
<rscale>  0 0.19063780E+04</rscale>
<asrwt>0</asrwt>
<pdfrwt beam="1">  1        2 0.49998748E+00 0.19063780E+04</pdfrwt>
<pdfrwt beam="2">  1       -2 0.43010273E-01 0.19063780E+04</pdfrwt>
<totfact> 0.57962331E+00</totfact>
</mgrwt>
</event>
<event>
12    1  0.1504874E-007  0.1876970E+04  0.7818608E-02  0.8666405E-01
          2   -1    0    0  501    0  0.00000000000E+00  0.00000000000E+00  0.21957896978E+04  0.21957896978E+04  0.00000000000E+00 0. -1.
         -2   -1    0    0    0  501 -0.00000000000E+00 -0.00000000000E+00 -0.40111045272E+03  0.40111045272E+03  0.00000000000E+00 0.  1.
         23    2    1    2    0    0 -0.70369011820E+03 -0.89924876761E+02  0.82542950672E+03  0.10918627820E+04  0.86972399346E+02 0.  0.
        254    2    1    2    0    0  0.70369011820E+03  0.89924876761E+02  0.96924973839E+03  0.15050373685E+04  0.90687714683E+03 0.  0.
        -24    2    4    4    0    0 -0.13038303447E+03  0.21194770421E+03  0.42601220347E+03  0.49896501803E+03  0.74552845076E+02 0.  0.
         24    2    4    4    0    0  0.83407315267E+03 -0.12202282745E+03  0.54323753492E+03  0.10060723505E+04  0.80665734503E+02 0.  0.
         13    1    3    3    0    0 -0.30636722196E+03 -0.36831605744E+02  0.29403943064E+03  0.42623541458E+03  0.00000000000E+00 0.  1.
        -13    1    3    3    0    0 -0.39732289624E+03 -0.53093271016E+02  0.53139007608E+03  0.66562736742E+03  0.00000000000E+00 0. -1.
          4    1    6    6  502    0  0.57727618590E+03 -0.63816867735E+02  0.41033123143E+03  0.71112031817E+03  0.00000000000E+00 0. -1.
          3    1    5    5  503    0 -0.13044302972E+03  0.17132580220E+03  0.38568563147E+03  0.44172539074E+03  0.00000000000E+00 0. -1.
         -4    1    5    5    0  503  0.59995252449E-01  0.40621902010E+02  0.40326572004E+02  0.57239627287E+02  0.00000000000E+00 0.  1.
         -3    1    6    6    0  502  0.25679696676E+03 -0.58205959718E+02  0.13290630349E+03  0.29495203236E+03  0.00000000000E+00 0.  1.
<mgrwt>
<rscale>  0 0.18769701E+04</rscale>
<asrwt>0</asrwt>
<pdfrwt beam="1">  1        2 0.33781379E+00 0.18769701E+04</pdfrwt>
<pdfrwt beam="2">  1       -2 0.61709302E-01 0.18769701E+04</pdfrwt>
<totfact> 0.11888666E+01</totfact>
</mgrwt>
</event>
<event>
12    1  0.1504874E-007  0.2574453E+04  0.7818608E-02  0.8376931E-01
          2   -1    0    0  501    0  0.00000000000E+00  0.00000000000E+00  0.10103712573E+04  0.10103712573E+04  0.00000000000E+00 0. -1.
         -2   -1    0    0    0  501 -0.00000000000E+00 -0.00000000000E+00 -0.16399434299E+04  0.16399434299E+04  0.00000000000E+00 0.  1.
         23    2    1    2    0    0  0.33709236116E+03 -0.10937413833E-01  0.84735685101E+03  0.91653556797E+03  0.91610885401E+02 0.  0.
        254    2    1    2    0    0 -0.33709236116E+03  0.10937413833E-01 -0.14769290236E+04  0.17337791192E+04  0.84323154208E+03 0.  0.
        -24    2    4    4    0    0  0.11230802385E+02  0.34150945560E+03 -0.94357821214E+03  0.10066132772E+04  0.78585038172E+02 0.  0.
         24    2    4    4    0    0 -0.34832316354E+03 -0.34149851819E+03 -0.53335081141E+03  0.72716584201E+03  0.79729602889E+02 0.  0.
         13    1    3    3    0    0  0.32774269347E+03 -0.15382305210E+01  0.84560839879E+03  0.90690198114E+03  0.00000000000E+00 0. -1.
        -13    1    3    3    0    0  0.93496676880E+01  0.15272931072E+01  0.17484522175E+01  0.96335868329E+01  0.00000000000E+00 0.  1.
          2    1    6    6  502    0 -0.36324475458E+02 -0.17507501752E+02 -0.21253690789E+02  0.45581789204E+02  0.00000000000E+00 0. -1.
          3    1    5    5  503    0  0.16879187179E+02  0.19646166813E+02 -0.42632858090E+02  0.49884260235E+02  0.00000000000E+00 0. -1.
         -4    1    5    5    0  503 -0.56483847943E+01  0.32186328879E+03 -0.90094535405E+03  0.95672901697E+03  0.00000000000E+00 0.  1.
         -1    1    6    6    0  502 -0.31199868808E+03 -0.32399101644E+03 -0.51209712062E+03  0.68158405281E+03  0.00000000000E+00 0.  1.
<mgrwt>
<rscale>  0 0.25744527E+04</rscale>
<asrwt>0</asrwt>
<pdfrwt beam="1">  1        2 0.15544173E+00 0.25744527E+04</pdfrwt>
<pdfrwt beam="2">  1       -2 0.25229899E+00 0.25744527E+04</pdfrwt>
<totfact> 0.13675892E+00</totfact>
</mgrwt>
</event>
<event>
12    1  0.1504874E-007  0.2077021E+04  0.7818608E-02  0.8571434E-01
          2   -1    0    0  501    0  0.00000000000E+00  0.00000000000E+00  0.30422526994E+04  0.30422526994E+04  0.00000000000E+00 0. -1.
         -2   -1    0    0    0  501 -0.00000000000E+00 -0.00000000000E+00 -0.35450822466E+03  0.35450822466E+03  0.00000000000E+00 0.  1.
         23    2    1    2    0    0 -0.79056291261E+03  0.17282003173E+02  0.15847609963E+04  0.17735556949E+04  0.93509364114E+02 0.  0.
        254    2    1    2    0    0  0.79056291261E+03 -0.17282003173E+02  0.11029834785E+04  0.16232052292E+04  0.89046857091E+03 0.  0.
        -24    2    4    4    0    0  0.50785753816E+03  0.36311935789E+03  0.90724499239E+03  0.11043000785E+04  0.81303382314E+02 0.  0.
         24    2    4    4    0    0  0.28270537445E+03 -0.38040136107E+03  0.19573848607E+03  0.51890515068E+03  0.79507711727E+02 0.  0.
         13    1    3    3    0    0 -0.93726503084E+02 -0.55969079983E+00  0.12840131759E+03  0.15897128355E+03  0.00000000000E+00 0.  1.
        -13    1    3    3    0    0 -0.69683640952E+03  0.17841693973E+02  0.14563596787E+04  0.16145844114E+04  0.00000000000E+00 0. -1.
          2    1    6    6  502    0  0.20990953299E+03 -0.22391882642E+03  0.14172165396E+03  0.33806313029E+03  0.00000000000E+00 0. -1.
          1    1    5    5  503    0  0.15297743084E+03  0.15683519289E+03  0.32038441805E+03  0.38813083799E+03  0.00000000000E+00 0. -1.
         -2    1    5    5    0  503  0.35488010731E+03  0.20628416501E+03  0.58686057434E+03  0.71616924049E+03  0.00000000000E+00 0.  1.
         -1    1    6    6    0  502  0.72795841461E+02 -0.15648253465E+03  0.54016832115E+02  0.18084202038E+03  0.00000000000E+00 0.  1.
<mgrwt>
<rscale>  0 0.20770206E+04</rscale>
<asrwt>0</asrwt>
<pdfrwt beam="1">  1        2 0.46803886E+00 0.20770206E+04</pdfrwt>
<pdfrwt beam="2">  1       -2 0.54539729E-01 0.20770206E+04</pdfrwt>
<totfact> 0.47937940E+00</totfact>
</mgrwt>
</event>
<event>
12    1  0.1504874E-007  0.1182402E+04  0.7818608E-02  0.9128401E-01
          1   -1    0    0  501    0  0.00000000000E+00  0.00000000000E+00  0.43620538728E+03  0.43620538728E+03  0.00000000000E+00 0. -1.
         -1   -1    0    0    0  501 -0.00000000000E+00 -0.00000000000E+00 -0.80127103717E+03  0.80127103717E+03  0.00000000000E+00 0.  1.
         23    2    1    2    0    0  0.18343496785E+03 -0.14567820234E+03 -0.69329509943E+02  0.26091276315E+03  0.91642582665E+02 0.  0.
        254    2    1    2    0    0 -0.18343496785E+03  0.14567820234E+03 -0.29573613995E+03  0.97656366129E+03  0.90074757508E+03 0.  0.
        -24    2    4    4    0    0 -0.42053333287E+02  0.31031385396E+03  0.23314165152E+03  0.39908508743E+03  0.82768995047E+02 0.  0.
         24    2    4    4    0    0 -0.14138163457E+03 -0.16463565162E+03 -0.52887779147E+03  0.57747857386E+03  0.81707530740E+02 0.  0.
         13    1    3    3    0    0  0.18004121674E+03 -0.15449081452E+03 -0.76265187131E+02  0.24919596759E+03  0.00000000000E+00 0.  1.
        -13    1    3    3    0    0  0.33937511120E+01  0.88126121806E+01  0.69356771882E+01  0.11716795557E+02  0.00000000000E+00 0. -1.
          2    1    6    6  502    0 -0.10845914940E+03 -0.92275335766E+02 -0.41375573591E+03  0.43757506063E+03  0.00000000000E+00 0. -1.
          3    1    5    5  503    0 -0.43710683224E+02  0.24984773707E+03  0.22303849458E+03  0.33775832427E+03  0.00000000000E+00 0. -1.
         -4    1    5    5    0  503  0.16573499363E+01  0.60466116890E+02  0.10103156936E+02  0.61326763168E+02  0.00000000000E+00 0.  1.
         -1    1    6    6    0  502 -0.32922485161E+02 -0.72360315851E+02 -0.11512205555E+03  0.13990351323E+03  0.00000000000E+00 0.  1.
<mgrwt>
<rscale>  0 0.11824022E+04</rscale>
<asrwt>0</asrwt>
<pdfrwt beam="1">  1        1 0.67108522E-01 0.11824022E+04</pdfrwt>
<pdfrwt beam="2">  1       -1 0.12327247E+00 0.11824022E+04</pdfrwt>
<totfact> 0.30671713E+01</totfact>
</mgrwt>
</event>
<event>
12    1  0.1504874E-007  0.1753991E+04  0.7818608E-02  0.8731156E-01
          1   -1    0    0  501    0  0.00000000000E+00  0.00000000000E+00  0.14948518552E+04  0.14948518552E+04  0.00000000000E+00 0.  1.
         -1   -1    0    0    0  501 -0.00000000000E+00 -0.00000000000E+00 -0.51451345668E+03  0.51451345668E+03  0.00000000000E+00 0. -1.
         23    2    1    2    0    0  0.43203275494E+02  0.49098837113E+03  0.84451838305E+03  0.98220723242E+03  0.92647960086E+02 0.  0.
        254    2    1    2    0    0 -0.43203275494E+02 -0.49098837113E+03  0.13582001552E+03  0.10271580795E+04  0.89088188896E+03 0.  0.
        -24    2    4    4    0    0  0.14599298637E+03  0.12862025631E+03 -0.20257717862E+03  0.29193489894E+03  0.79569777680E+02 0.  0.
         24    2    4    4    0    0 -0.18919626186E+03 -0.61960862744E+03  0.33839719414E+03  0.73522318056E+03  0.79563732587E+02 0.  0.
         11    1    3    3    0    0 -0.61088009250E+01  0.27446493147E+03  0.39777700624E+03  0.48331652439E+03  0.00000000000E+00 0.  1.
        -11    1    3    3    0    0  0.49312076419E+02  0.21652343966E+03  0.44674137681E+03  0.49889070803E+03  0.00000000000E+00 0. -1.
          4    1    6    6  502    0 -0.10453964003E+03 -0.45927476750E+03  0.23294714644E+03  0.52547713692E+03  0.00000000000E+00 0. -1.
          1    1    5    5  503    0  0.72986820097E+02  0.10876592184E+03 -0.15332956560E+03  0.20166074816E+03  0.00000000000E+00 0. -1.
         -2    1    5    5    0  503  0.73006166268E+02  0.19854334461E+02 -0.49247613023E+02  0.90274150777E+02  0.00000000000E+00 0.  1.
         -3    1    6    6    0  502 -0.84656621828E+02 -0.16033385994E+03  0.10545004770E+03  0.20974604364E+03  0.00000000000E+00 0.  1.
<mgrwt>
<rscale>  0 0.17539913E+04</rscale>
<asrwt>0</asrwt>
<pdfrwt beam="1">  1        1 0.22997721E+00 0.17539913E+04</pdfrwt>
<pdfrwt beam="2">  1       -1 0.79155917E-01 0.17539913E+04</pdfrwt>
<totfact> 0.99687113E+00</totfact>
</mgrwt>
</event>
<event>
12    1  0.1504874E-007  0.1615310E+04  0.7818608E-02  0.8811197E-01
          1   -1    0    0  501    0  0.00000000000E+00  0.00000000000E+00  0.84384470658E+03  0.84384470658E+03  0.00000000000E+00 0. -1.
         -1   -1    0    0    0  501 -0.00000000000E+00 -0.00000000000E+00 -0.77301724625E+03  0.77301724625E+03  0.00000000000E+00 0.  1.
         23    2    1    2    0    0 -0.89748884426E+02  0.53894580092E+03 -0.18243670136E+02  0.55369653138E+03  0.87918023045E+02 0.  0.
        254    2    1    2    0    0  0.89748884426E+02 -0.53894580092E+03  0.89071130460E+02  0.10631654214E+04  0.90767263288E+03 0.  0.
        -24    2    4    4    0    0  0.41965491919E+03 -0.48217744405E+03 -0.12681145791E+03  0.65671549954E+03  0.81171193950E+02 0.  0.
         24    2    4    4    0    0 -0.32990603476E+03 -0.56768356871E+02  0.21588258837E+03  0.40644992191E+03  0.80843113130E+02 0.  0.
         13    1    3    3    0    0 -0.24272344948E+02  0.88827734893E+02 -0.35053744892E+02  0.98530595484E+02  0.00000000000E+00 0.  1.
        -13    1    3    3    0    0 -0.65476539478E+02  0.45011806603E+03  0.16810074756E+02  0.45516593590E+03  0.00000000000E+00 0. -1.
          4    1    6    6  502    0 -0.41080607354E+02  0.19749587059E+02  0.27684341225E+02  0.53329965672E+02  0.00000000000E+00 0. -1.
          1    1    5    5  503    0  0.38156638563E+02 -0.80172346638E+02 -0.29792665481E+01  0.88839238296E+02  0.00000000000E+00 0. -1.
         -2    1    5    5    0  503  0.38149828063E+03 -0.40200509741E+03 -0.12383219136E+03  0.56787626124E+03  0.00000000000E+00 0.  1.
         -3    1    6    6    0  502 -0.28882542741E+03 -0.76517943930E+02  0.18819824714E+03  0.35311995623E+03  0.00000000000E+00 0.  1.
<mgrwt>
<rscale>  0 0.16153099E+04</rscale>
<asrwt>0</asrwt>
<pdfrwt beam="1">  1        1 0.12982226E+00 0.16153099E+04</pdfrwt>
<pdfrwt beam="2">  1       -1 0.11892573E+00 0.16153099E+04</pdfrwt>
<totfact> 0.12296625E+01</totfact>
</mgrwt>
</event>
<event>
12    1  0.1504874E-007  0.3337186E+04  0.7818608E-02  0.8153497E-01
          2   -1    0    0  501    0  0.00000000000E+00  0.00000000000E+00  0.18618686413E+04  0.18618686413E+04  0.00000000000E+00 0. -1.
         -2   -1    0    0    0  501 -0.00000000000E+00 -0.00000000000E+00 -0.14953803822E+04  0.14953803822E+04  0.00000000000E+00 0.  1.
         23    2    1    2    0    0  0.97760453790E+03 -0.47452342432E+03 -0.93892330237E+03  0.14389744928E+04  0.90484862598E+02 0.  0.
        254    2    1    2    0    0 -0.97760453790E+03  0.47452342432E+03  0.13054115615E+04  0.19182745307E+04  0.89151260093E+03 0.  0.
        -24    2    4    4    0    0 -0.17097605501E+03  0.30429245659E+03  0.95338903609E+03  0.10183615890E+04  0.79265132451E+02 0.  0.
         24    2    4    4    0    0 -0.80662848289E+03  0.17023096773E+03  0.35202252543E+03  0.89991294178E+03  0.79343258005E+02 0.  0.
         11    1    3    3    0    0  0.63760764433E+03 -0.27115159406E+03 -0.63206954671E+03  0.93785852182E+03  0.00000000000E+00 0.  1.
        -11    1    3    3    0    0  0.33999689356E+03 -0.20337183026E+03 -0.30685375566E+03  0.50111597095E+03  0.00000000000E+00 0. -1.
          2    1    6    6  502    0 -0.17550121301E+03  0.65843994366E+02  0.60982064975E+02  0.19711651278E+03  0.00000000000E+00 0. -1.
          3    1    5    5  503    0 -0.17200190072E+03  0.29940418472E+03  0.95267021071E+03  0.10133153754E+04  0.00000000000E+00 0. -1.
         -4    1    5    5    0  503  0.10258457138E+01  0.48882718663E+01  0.71882538053E+00  0.50462135503E+01  0.00000000000E+00 0.  1.
         -1    1    6    6    0  502 -0.63112726988E+03  0.10438697337E+03  0.29104046046E+03  0.70279642900E+03  0.00000000000E+00 0.  1.
<mgrwt>
<rscale>  0 0.33371855E+04</rscale>
<asrwt>0</asrwt>
<pdfrwt beam="1">  1        2 0.28644133E+00 0.33371855E+04</pdfrwt>
<pdfrwt beam="2">  1       -2 0.23005852E+00 0.33371855E+04</pdfrwt>
<totfact> 0.56716960E-01</totfact>
</mgrwt>
</event>
<event>
12    1  0.1504874E-007  0.1202769E+04  0.7818608E-02  0.9110436E-01
         -2   -1    0    0    0  501 -0.00000000000E+00  0.00000000000E+00  0.13017517971E+03  0.13017517971E+03  0.00000000000E+00 0.  1.
          2   -1    0    0  501    0  0.00000000000E+00 -0.00000000000E+00 -0.27782824093E+04  0.27782824093E+04  0.00000000000E+00 0. -1.
         23    2    1    2    0    0 -0.14993912621E+03  0.14554883005E+03 -0.99086837873E+03  0.10167463417E+04  0.91031730327E+02 0.  0.
        254    2    1    2    0    0  0.14993912621E+03 -0.14554883005E+03 -0.16572388508E+04  0.18917112473E+04  0.88795530904E+03 0.  0.
        -24    2    4    4    0    0 -0.94078378452E+02  0.21274651392E+03 -0.13020609769E+04  0.13250750901E+04  0.79683036484E+02 0.  0.
         24    2    4    4    0    0  0.24401750466E+03 -0.35829534397E+03 -0.35517787389E+03  0.56663615715E+03  0.83696573413E+02 0.  0.
         13    1    3    3    0    0 -0.10246931225E+03  0.14794520088E+03 -0.75717461927E+03  0.77826804283E+03  0.00000000000E+00 0. -1.
        -13    1    3    3    0    0 -0.47469813961E+02 -0.23963708318E+01 -0.23369375946E+03  0.23847829889E+03  0.00000000000E+00 0.  1.
          4    1    6    6  502    0  0.87815171678E+02 -0.11887360728E+03 -0.72543334419E+02  0.16463588386E+03  0.00000000000E+00 0. -1.
          3    1    5    5  503    0 -0.24808900153E+01  0.92324701959E+02 -0.58284342249E+03  0.59011563320E+03  0.00000000000E+00 0. -1.
         -4    1    5    5    0  503 -0.91597488437E+02  0.12042181196E+03 -0.71921755444E+03  0.73495945691E+03  0.00000000000E+00 0.  1.
         -3    1    6    6    0  502  0.15620233298E+03 -0.23942173669E+03 -0.28263453947E+03  0.40200027329E+03  0.00000000000E+00 0.  1.
<mgrwt>
<rscale>  0 0.12027692E+04</rscale>
<asrwt>0</asrwt>
<pdfrwt beam="1">  1        2 0.42742803E+00 0.12027692E+04</pdfrwt>
<pdfrwt beam="2">  1       -2 0.20026952E-01 0.12027692E+04</pdfrwt>
<totfact> 0.50670164E+01</totfact>
</mgrwt>
</event>
<event>
12    1  0.1504874E-007  0.2520153E+04  0.7818608E-02  0.8395841E-01
          1   -1    0    0  501    0  0.00000000000E+00  0.00000000000E+00  0.24564004452E+04  0.24564004452E+04  0.00000000000E+00 0. -1.
         -1   -1    0    0    0  501 -0.00000000000E+00 -0.00000000000E+00 -0.64639023961E+03  0.64639023961E+03  0.00000000000E+00 0.  1.
         23    2    1    2    0    0  0.93861433619E+03 -0.51642952770E+03  0.10854914423E+04  0.15278430689E+04  0.91194531272E+02 0.  0.
        254    2    1    2    0    0 -0.93861433619E+03  0.51642952770E+03  0.72451876324E+03  0.15749476159E+04  0.89879709913E+03 0.  0.
        -24    2    4    4    0    0 -0.98779749670E+03  0.65952911888E+03  0.49403775319E+03  0.12889722574E+04  0.81569758628E+02 0.  0.
         24    2    4    4    0    0  0.49183160507E+02 -0.14309959118E+03  0.23048101006E+03  0.28597535856E+03  0.75920573184E+02 0.  0.
         11    1    3    3    0    0  0.13743079962E+03 -0.81023134887E+02  0.21011499919E+03  0.26381866112E+03  0.00000000000E+00 0. -1.
        -11    1    3    3    0    0  0.80118353657E+03 -0.43540639281E+03  0.87537644311E+03  0.12640244077E+04  0.00000000000E+00 0.  1.
          2    1    6    6  502    0  0.28227596304E+01 -0.11490117388E+03  0.16099769377E+03  0.19781431983E+03  0.00000000000E+00 0. -1.
          1    1    5    5  503    0 -0.29994651509E+03  0.15731139418E+03  0.15009284915E+03  0.37046275119E+03  0.00000000000E+00 0. -1.
         -2    1    5    5    0  503 -0.68785098161E+03  0.50221772470E+03  0.34394490403E+03  0.91850950616E+03  0.00000000000E+00 0.  1.
         -1    1    6    6    0  502  0.46360400876E+02 -0.28198417309E+02  0.69483316283E+02  0.88161038729E+02  0.00000000000E+00 0.  1.
<mgrwt>
<rscale>  0 0.25201534E+04</rscale>
<asrwt>0</asrwt>
<pdfrwt beam="1">  1        1 0.37790776E+00 0.25201534E+04</pdfrwt>
<pdfrwt beam="2">  1       -1 0.99444654E-01 0.25201534E+04</pdfrwt>
<totfact> 0.12430008E+00</totfact>
</mgrwt>
</event>
<event>
12    1  0.1504874E-007  0.1625618E+04  0.7818608E-02  0.8804963E-01
          2   -1    0    0  501    0  0.00000000000E+00  0.00000000000E+00  0.23729854622E+04  0.23729854622E+04  0.00000000000E+00 0.  1.
         -2   -1    0    0    0  501 -0.00000000000E+00 -0.00000000000E+00 -0.27840797355E+03  0.27840797355E+03  0.00000000000E+00 0. -1.
         23    2    1    2    0    0  0.22247453486E+03 -0.52606027277E+03  0.57056986913E+03  0.81254785351E+03  0.91922301051E+02 0.  0.
        254    2    1    2    0    0 -0.22247453486E+03  0.52606027277E+03  0.15240076195E+04  0.18388455822E+04  0.85587354309E+03 0.  0.
        -24    2    4    4    0    0 -0.14107678107E+03  0.14177519214E+03 -0.44736612479E+02  0.21969681585E+03  0.79135726034E+02 0.  0.
         24    2    4    4    0    0 -0.81397753790E+02  0.38428508063E+03  0.15687442320E+04  0.16191487664E+04  0.79897714591E+02 0.  0.
         11    1    3    3    0    0  0.30978902181E+02 -0.11303454498E+03  0.72741609604E+02  0.13794144594E+03  0.00000000000E+00 0.  1.
        -11    1    3    3    0    0  0.19149563268E+03 -0.41302572779E+03  0.49782825953E+03  0.67460640757E+03  0.00000000000E+00 0. -1.
          2    1    6    6  502    0 -0.41797200641E+02  0.81250201307E+02  0.27432746346E+03  0.28914383687E+03  0.00000000000E+00 0. -1.
          1    1    5    5  503    0  0.41542820602E+01  0.32338674314E+02 -0.78660470105E+00  0.32613902906E+02  0.00000000000E+00 0. -1.
         -4    1    5    5    0  503 -0.14523106313E+03  0.10943651783E+03 -0.43950007778E+02  0.18708291295E+03  0.00000000000E+00 0.  1.
         -1    1    6    6    0  502 -0.39600553149E+02  0.30303487932E+03  0.12944167685E+04  0.13300049295E+04  0.00000000000E+00 0.  1.
<mgrwt>
<rscale>  0 0.16256175E+04</rscale>
<asrwt>0</asrwt>
<pdfrwt beam="1">  1        2 0.36507467E+00 0.16256175E+04</pdfrwt>
<pdfrwt beam="2">  1       -2 0.42831998E-01 0.16256175E+04</pdfrwt>
<totfact> 0.20402896E+01</totfact>
</mgrwt>
</event>
<event>
12    1  0.1504874E-007  0.2554793E+04  0.7818608E-02  0.8383721E-01
          1   -1    0    0  501    0  0.00000000000E+00  0.00000000000E+00  0.29126324772E+04  0.29126324772E+04  0.00000000000E+00 0. -1.
         -1   -1    0    0    0  501 -0.00000000000E+00 -0.00000000000E+00 -0.56022942228E+03  0.56022942228E+03  0.00000000000E+00 0.  1.
         23    2    1    2    0    0 -0.90235602946E+03 -0.63047753818E+03  0.76445240597E+03  0.13431002491E+04  0.88218298447E+02 0.  0.
        254    2    1    2    0    0  0.90235602946E+03  0.63047753818E+03  0.15879506490E+04  0.21297616504E+04  0.89585104443E+03 0.  0.
        -24    2    4    4    0    0  0.49120597162E+03 -0.16112517096E+03  0.55447208634E+03  0.76225397832E+03  0.79669352177E+02 0.  0.
         24    2    4    4    0    0  0.41115005784E+03  0.79160270913E+03  0.10334785626E+04  0.13675076721E+04  0.79498896400E+02 0.  0.
         11    1    3    3    0    0 -0.84167864012E+03 -0.56054040609E+03  0.68903635541E+03  0.12236827935E+04  0.00000000000E+00 0. -1.
        -11    1    3    3    0    0 -0.60677389335E+02 -0.69937132084E+02  0.75416050563E+02  0.11941745561E+03  0.00000000000E+00 0.  1.
          2    1    6    6  502    0  0.32887834276E+03  0.69298404096E+03  0.89026576843E+03  0.11751429631E+04  0.00000000000E+00 0. -1.
          3    1    5    5  503    0  0.47692060154E+03 -0.14191174287E+03  0.51517964673E+03  0.71624176878E+03  0.00000000000E+00 0. -1.
         -4    1    5    5    0  503  0.14285370078E+02 -0.19213428089E+02  0.39292439605E+02  0.46012209546E+02  0.00000000000E+00 0.  1.
         -1    1    6    6    0  502  0.82271715076E+02  0.98618668179E+02  0.14321279422E+03  0.19236470893E+03  0.00000000000E+00 0.  1.
<mgrwt>
<rscale>  0 0.25547935E+04</rscale>
<asrwt>0</asrwt>
<pdfrwt beam="1">  1        1 0.44809730E+00 0.25547935E+04</pdfrwt>
<pdfrwt beam="2">  1       -1 0.86189143E-01 0.25547935E+04</pdfrwt>
<totfact> 0.81232944E-01</totfact>
</mgrwt>
</event>
<event>
12    1  0.1504874E-007  0.1262621E+04  0.7818608E-02  0.9059744E-01
          2   -1    0    0  501    0  0.00000000000E+00  0.00000000000E+00  0.96017310896E+03  0.96017310896E+03  0.00000000000E+00 0. -1.
         -2   -1    0    0    0  501 -0.00000000000E+00 -0.00000000000E+00 -0.41508465491E+03  0.41508465491E+03  0.00000000000E+00 0.  1.
         23    2    1    2    0    0  0.11051625695E+03 -0.25476797403E+03  0.29788839728E+03  0.41599784585E+03  0.84830105937E+02 0.  0.
        254    2    1    2    0    0 -0.11051625695E+03  0.25476797403E+03  0.24720005676E+03  0.95925991802E+03  0.88428002273E+03 0.  0.
        -24    2    4    4    0    0 -0.43030920815E+03  0.35976935910E+03  0.70847656548E+02  0.57107870484E+03  0.80693805928E+02 0.  0.
         24    2    4    4    0    0  0.31979295119E+03 -0.10500138507E+03  0.17635240022E+03  0.38818121318E+03  0.79320001907E+02 0.  0.
         13    1    3    3    0    0  0.84053871510E+02 -0.15510708817E+03  0.23962194241E+03  0.29755997278E+03  0.00000000000E+00 0.  1.
        -13    1    3    3    0    0  0.26462385443E+02 -0.99660885862E+02  0.58266454874E+02  0.11843787307E+03  0.00000000000E+00 0. -1.
          2    1    6    6  502    0  0.80127457162E+02 -0.29104882418E+02  0.85862703053E+02  0.12099548482E+03  0.00000000000E+00 0. -1.
          3    1    5    5  503    0 -0.10871005336E+03  0.13891026211E+03  0.16160416502E+02  0.17713016593E+03  0.00000000000E+00 0. -1.
         -2    1    5    5    0  503 -0.32159915478E+03  0.22085909700E+03  0.54687240046E+02  0.39394853891E+03  0.00000000000E+00 0.  1.
         -1    1    6    6    0  502  0.23966549403E+03 -0.75896502650E+02  0.90489697163E+02  0.26718572836E+03  0.00000000000E+00 0.  1.
<mgrwt>
<rscale>  0 0.12626213E+04</rscale>
<asrwt>0</asrwt>
<pdfrwt beam="1">  1        2 0.14771894E+00 0.12626213E+04</pdfrwt>
<pdfrwt beam="2">  1       -2 0.63859178E-01 0.12626213E+04</pdfrwt>
<totfact> 0.59591542E+01</totfact>
</mgrwt>
</event>
<event>
12    1  0.1504874E-007  0.2345632E+04  0.7818608E-02  0.8460143E-01
         -2   -1    0    0    0  501 -0.00000000000E+00  0.00000000000E+00  0.49223586343E+03  0.49223586343E+03  0.00000000000E+00 0. -1.
          2   -1    0    0  501    0  0.00000000000E+00 -0.00000000000E+00 -0.27943878741E+04  0.27943878741E+04  0.00000000000E+00 0.  1.
         23    2    1    2    0    0  0.40056083491E+03  0.91574253185E+03 -0.95355524308E+03  0.13844449029E+04  0.91579039649E+02 0.  0.
        254    2    1    2    0    0 -0.40056083491E+03 -0.91574253185E+03 -0.13485967676E+04  0.19021788346E+04  0.89472772962E+03 0.  0.
        -24    2    4    4    0    0 -0.54551374286E+03 -0.20708520895E+03 -0.78544651733E+03  0.98166492046E+03  0.79184954781E+02 0.  0.
         24    2    4    4    0    0  0.14495290795E+03 -0.70865732290E+03 -0.56315025024E+03  0.92051391412E+03  0.83672665380E+02 0.  0.
         13    1    3    3    0    0  0.31967287008E+03  0.70236771584E+03 -0.68326224671E+03  0.10307077422E+04  0.00000000000E+00 0. -1.
        -13    1    3    3    0    0  0.80887964822E+02  0.21337481601E+03 -0.27029299637E+03  0.35373716068E+03  0.00000000000E+00 0.  1.
          4    1    6    6  502    0  0.36106255606E+02 -0.31148216012E+03 -0.28343633017E+03  0.42268303849E+03  0.00000000000E+00 0. -1.
          1    1    5    5  503    0 -0.13436452222E+03 -0.88666202972E+02 -0.21506353607E+03  0.26864073579E+03  0.00000000000E+00 0. -1.
         -2    1    5    5    0  503 -0.41114922064E+03 -0.11841900598E+03 -0.57038298126E+03  0.71302418467E+03  0.00000000000E+00 0.  1.
         -3    1    6    6    0  502  0.10884665235E+03 -0.39717516278E+03 -0.27971392007E+03  0.49783087563E+03  0.00000000000E+00 0.  1.
<mgrwt>
<rscale>  0 0.23456325E+04</rscale>
<asrwt>0</asrwt>
<pdfrwt beam="1">  1        2 0.42990583E+00 0.23456325E+04</pdfrwt>
<pdfrwt beam="2">  1       -2 0.75728594E-01 0.23456325E+04</pdfrwt>
<totfact> 0.32907708E+00</totfact>
</mgrwt>
</event>
<event>
12    1  0.1504874E-007  0.1736454E+04  0.7818608E-02  0.8740842E-01
         -3   -1    0    0    0  501 -0.00000000000E+00  0.00000000000E+00  0.91414470197E+03  0.91414470197E+03  0.00000000000E+00 0.  1.
          3   -1    0    0  501    0  0.00000000000E+00 -0.00000000000E+00 -0.82461609457E+03  0.82461609457E+03  0.00000000000E+00 0. -1.
         23    2    1    2    0    0 -0.11302068583E+03 -0.45890120168E+03  0.44611899537E+03  0.65627609002E+03  0.91171047898E+02 0.  0.
        254    2    1    2    0    0  0.11302068583E+03  0.45890120168E+03 -0.35659038797E+03  0.10824847065E+04  0.90622979799E+03 0.  0.
        -24    2    4    4    0    0 -0.16188649148E+03  0.49390273486E+03 -0.52954495562E+03  0.74622024632E+03  0.79244232401E+02 0.  0.
         24    2    4    4    0    0  0.27490717732E+03 -0.35001533188E+02  0.17295456765E+03  0.33626446021E+03  0.79758643812E+02 0.  0.
         11    1    3    3    0    0 -0.50652002560E+02 -0.29216645440E+03  0.22399197375E+03  0.37161709695E+03  0.00000000000E+00 0. -1.
        -11    1    3    3    0    0 -0.62368683272E+02 -0.16673474728E+03  0.22212702162E+03  0.28465899307E+03  0.00000000000E+00 0.  1.
          2    1    6    6  502    0  0.17178832427E+03 -0.60495998143E+02  0.11128250747E+03  0.21343568262E+03  0.00000000000E+00 0. -1.
          3    1    5    5  503    0 -0.32431029412E+02  0.16618166050E+03 -0.12979991935E+03  0.21334510779E+03  0.00000000000E+00 0. -1.
         -4    1    5    5    0  503 -0.12945546207E+03  0.32772107437E+03 -0.39974503627E+03  0.53287513854E+03  0.00000000000E+00 0.  1.
         -1    1    6    6    0  502  0.10311885304E+03  0.25494464956E+02  0.61672060185E+02  0.12282877759E+03  0.00000000000E+00 0.  1.
<mgrwt>
<rscale>  0 0.17364544E+04</rscale>
<asrwt>0</asrwt>
<pdfrwt beam="1">  1        3 0.12686402E+00 0.17364544E+04</pdfrwt>
<pdfrwt beam="2">  1       -3 0.14063765E+00 0.17364544E+04</pdfrwt>
<totfact> 0.46705706E-01</totfact>
</mgrwt>
</event>
<event>
12    1  0.1504874E-007  0.2493870E+04  0.7818608E-02  0.8405173E-01
          1   -1    0    0  501    0  0.00000000000E+00  0.00000000000E+00  0.65144467798E+03  0.65144467798E+03  0.00000000000E+00 0. -1.
         -1   -1    0    0    0  501 -0.00000000000E+00 -0.00000000000E+00 -0.23867671229E+04  0.23867671229E+04  0.00000000000E+00 0.  1.
         23    2    1    2    0    0  0.38991356994E+03 -0.74252948493E+03 -0.15623818582E+04  0.17759737087E+04  0.98300126555E+02 0.  0.
        254    2    1    2    0    0 -0.38991356994E+03  0.74252948493E+03 -0.17294058666E+03  0.12622380922E+04  0.92733700826E+03 0.  0.
        -24    2    4    4    0    0 -0.47437695253E+03  0.65596317349E+02  0.14306382641E+03  0.50616104421E+03  0.79971084226E+02 0.  0.
         24    2    4    4    0    0  0.84463382591E+02  0.67693316758E+03 -0.31600441307E+03  0.75607704799E+03  0.80131997688E+02 0.  0.
         13    1    3    3    0    0  0.38930299465E+03 -0.70552497148E+03 -0.14684302214E+04  0.16749954096E+04  0.00000000000E+00 0.  1.
        -13    1    3    3    0    0  0.61057528238E+00 -0.37004513448E+02 -0.93951636845E+02  0.10097829907E+03  0.00000000000E+00 0. -1.
          2    1    6    6  502    0  0.43036654382E+02  0.15516286937E+03 -0.47895308341E+02  0.16799294691E+03  0.00000000000E+00 0. -1.
          3    1    5    5  503    0 -0.23150087308E+03  0.60253457316E+01  0.36970215779E+02  0.23451173933E+03  0.00000000000E+00 0. -1.
         -4    1    5    5    0  503 -0.24287607944E+03  0.59570971617E+02  0.10609361063E+03  0.27164930488E+03  0.00000000000E+00 0.  1.
         -1    1    6    6    0  502  0.41426728209E+02  0.52177029821E+03 -0.26810910473E+03  0.58808410108E+03  0.00000000000E+00 0.  1.
<mgrwt>
<rscale>  0 0.24938699E+04</rscale>
<asrwt>0</asrwt>
<pdfrwt beam="1">  1        1 0.10022226E+00 0.24938699E+04</pdfrwt>
<pdfrwt beam="2">  1       -1 0.36719494E+00 0.24938699E+04</pdfrwt>
<totfact> 0.32205744E-01</totfact>
</mgrwt>
</event>
<event>
12    1  0.1504874E-007  0.1542818E+04  0.7818608E-02  0.8856468E-01
          2   -1    0    0  501    0  0.00000000000E+00  0.00000000000E+00  0.31456948977E+04  0.31456948977E+04  0.00000000000E+00 0.  1.
         -2   -1    0    0    0  501 -0.00000000000E+00 -0.00000000000E+00 -0.18917017855E+03  0.18917017855E+03  0.00000000000E+00 0. -1.
         23    2    1    2    0    0 -0.19612735415E+03 -0.25405541122E+03  0.87098360222E+02  0.34465152632E+03  0.90490105655E+02 0.  0.
        254    2    1    2    0    0  0.19612735415E+03  0.25405541122E+03  0.28694263589E+04  0.29902135499E+04  0.77766275075E+03 0.  0.
        -24    2    4    4    0    0  0.28417715002E+03  0.41393071989E+03  0.11255611189E+04  0.12350751923E+04  0.80172344155E+02 0.  0.
         24    2    4    4    0    0 -0.88049795870E+02 -0.15987530867E+03  0.17438652400E+04  0.17551383576E+04  0.78305799456E+02 0.  0.
         11    1    3    3    0    0 -0.69865006722E+02 -0.12716706506E+03 -0.10962572426E+01  0.14509921909E+03  0.00000000000E+00 0. -1.
        -11    1    3    3    0    0 -0.12626234743E+03 -0.12688834616E+03  0.88194617465E+02  0.19955230723E+03  0.00000000000E+00 0.  1.
          4    1    6    6  502    0  0.86887579527E+01 -0.53642174207E+02  0.54103380389E+03  0.54375596945E+03  0.00000000000E+00 0. -1.
          3    1    5    5  503    0  0.19322901114E+03  0.21471794525E+03  0.66968221207E+03  0.72932538138E+03  0.00000000000E+00 0. -1.
         -4    1    5    5    0  503  0.90948138884E+02  0.19921277464E+03  0.45587890683E+03  0.50574981092E+03  0.00000000000E+00 0.  1.
         -3    1    6    6    0  502 -0.96738553823E+02 -0.10623313446E+03  0.12028314361E+04  0.12113823882E+04  0.00000000000E+00 0.  1.
<mgrwt>
<rscale>  0 0.15428178E+04</rscale>
<asrwt>0</asrwt>
<pdfrwt beam="1">  1        2 0.48395302E+00 0.15428178E+04</pdfrwt>
<pdfrwt beam="2">  1       -2 0.29103107E-01 0.15428178E+04</pdfrwt>
<totfact> 0.14821576E+01</totfact>
</mgrwt>
</event>
<event>
12    1  0.1504874E-007  0.1437786E+04  0.7818608E-02  0.8926912E-01
         -4   -1    0    0    0  501 -0.00000000000E+00  0.00000000000E+00  0.18493821721E+04  0.18493821721E+04  0.00000000000E+00 0.  1.
          4   -1    0    0  501    0  0.00000000000E+00 -0.00000000000E+00 -0.27944872064E+03  0.27944872064E+03  0.00000000000E+00 0. -1.
         23    2    1    2    0    0  0.37025380786E+03  0.16745277761E+02  0.11234470143E+03  0.39851026643E+03  0.93919188368E+02 0.  0.
        254    2    1    2    0    0 -0.37025380786E+03 -0.16745277761E+02  0.14575887500E+04  0.17303206263E+04  0.85561452713E+03 0.  0.
        -24    2    4    4    0    0 -0.45861708818E+03 -0.32303657467E+03  0.11418821354E+04  0.12747995410E+04  0.80850456726E+02 0.  0.
         24    2    4    4    0    0  0.88363280320E+02  0.30629129691E+03  0.31570661460E+03  0.45552108531E+03  0.78780484821E+02 0.  0.
         11    1    3    3    0    0  0.35266587161E+03 -0.60047725980E+01  0.96506834427E+02  0.36568134131E+03  0.00000000000E+00 0. -1.
        -11    1    3    3    0    0  0.17587936251E+02  0.22750050359E+02  0.15837866999E+02  0.32828925112E+02  0.00000000000E+00 0.  1.
          2    1    6    6  502    0  0.33886687695E+02  0.79069086195E+02  0.13524522383E+03  0.16028567798E+03  0.00000000000E+00 0. -1.
          1    1    5    5  503    0 -0.13040638354E+03 -0.96855485913E+02  0.25330252123E+03  0.30091357111E+03  0.00000000000E+00 0. -1.
         -2    1    5    5    0  503 -0.32821070464E+03 -0.22618108876E+03  0.88857961419E+03  0.97388596987E+03  0.00000000000E+00 0.  1.
         -1    1    6    6    0  502  0.54476592625E+02  0.22722221072E+03  0.18046139077E+03  0.29523540734E+03  0.00000000000E+00 0.  1.
<mgrwt>
<rscale>  0 0.14377865E+04</rscale>
<asrwt>0</asrwt>
<pdfrwt beam="1">  1        4 0.42992112E-01 0.14377865E+04</pdfrwt>
<pdfrwt beam="2">  1       -4 0.28452033E+00 0.14377865E+04</pdfrwt>
<totfact> 0.39672649E-01</totfact>
</mgrwt>
</event>
<event>
12    1  0.1504874E-007  0.1177020E+04  0.7818608E-02  0.9133213E-01
         -3   -1    0    0    0  501 -0.00000000000E+00  0.00000000000E+00  0.21179352508E+03  0.21179352508E+03  0.00000000000E+00 0.  1.
          3   -1    0    0  501    0  0.00000000000E+00 -0.00000000000E+00 -0.16352895310E+04  0.16352895310E+04  0.00000000000E+00 0. -1.
         23    2    1    2    0    0  0.21467606498E+03  0.87846633664E+02 -0.39277024246E+03  0.46534242317E+03  0.92044899498E+02 0.  0.
        254    2    1    2    0    0 -0.21467606498E+03 -0.87846633664E+02 -0.10307257634E+04  0.13817406329E+04  0.89051037794E+03 0.  0.
        -24    2    4    4    0    0  0.73166657279E+02  0.31629229722E+03 -0.14671319077E+03  0.36497307290E+03  0.79286862580E+02 0.  0.
         24    2    4    4    0    0 -0.28784272226E+03 -0.40413893089E+03 -0.88401257268E+03  0.10167675600E+04  0.78462310518E+02 0.  0.
         11    1    3    3    0    0  0.49971148070E+02  0.24015410819E+02 -0.18243468282E+03  0.19067319972E+03  0.00000000000E+00 0. -1.
        -11    1    3    3    0    0  0.16470491691E+03  0.63831222845E+02 -0.21033555964E+03  0.27466922345E+03  0.00000000000E+00 0.  1.
          2    1    6    6  502    0 -0.67866105725E+02 -0.14827217560E+03 -0.24838572185E+03  0.29712945526E+03  0.00000000000E+00 0. -1.
          3    1    5    5  503    0  0.48804120832E+02  0.23889372282E+03 -0.14526000782E+03  0.28381776351E+03  0.00000000000E+00 0. -1.
         -4    1    5    5    0  503  0.24362536447E+02  0.77398574398E+02 -0.14531829513E+01  0.81155309387E+02  0.00000000000E+00 0.  1.
         -1    1    6    6    0  502 -0.21997661653E+03 -0.25586675529E+03 -0.63562685083E+03  0.71963810473E+03  0.00000000000E+00 0.  1.
<mgrwt>
<rscale>  0 0.11770195E+04</rscale>
<asrwt>0</asrwt>
<pdfrwt beam="1">  1        3 0.25158300E+00 0.11770195E+04</pdfrwt>
<pdfrwt beam="2">  1       -3 0.32583620E-01 0.11770195E+04</pdfrwt>
<totfact> 0.17461303E+00</totfact>
</mgrwt>
</event>
<event>
12    1  0.1504874E-007  0.1851584E+04  0.7818608E-02  0.8679339E-01
          2   -1    0    0  501    0  0.00000000000E+00  0.00000000000E+00  0.45231152218E+04  0.45231152218E+04  0.00000000000E+00 0. -1.
         -2   -1    0    0    0  501 -0.00000000000E+00 -0.00000000000E+00 -0.18949131022E+03  0.18949131022E+03  0.00000000000E+00 0.  1.
         23    2    1    2    0    0  0.11475612089E+03  0.29975293548E+03  0.32343939627E+04  0.32515416817E+04  0.90543982278E+02 0.  0.
        254    2    1    2    0    0 -0.11475612089E+03 -0.29975293548E+03  0.10992299489E+04  0.14610648503E+04  0.90740466527E+03 0.  0.
        -24    2    4    4    0    0  0.22473693525E+03  0.18430258085E+03  0.64218270347E+03  0.70949457390E+03  0.80683296840E+02 0.  0.
         24    2    4    4    0    0 -0.33949305614E+03 -0.48405551632E+03  0.45704724548E+03  0.75157027641E+03  0.80002610784E+02 0.  0.
         11    1    3    3    0    0  0.25929151784E+02  0.17158044246E+03  0.14500325503E+04  0.14603789119E+04  0.00000000000E+00 0. -1.
        -11    1    3    3    0    0  0.88826969105E+02  0.12817249301E+03  0.17843614123E+04  0.17911627699E+04  0.00000000000E+00 0.  1.
          4    1    6    6  502    0 -0.25347199198E+03 -0.37438750319E+03  0.38914675230E+03  0.59653101185E+03  0.00000000000E+00 0. -1.
          1    1    5    5  503    0  0.12843438681E+02  0.18605428114E+02  0.11991090310E+03  0.12202352459E+03  0.00000000000E+00 0. -1.
         -2    1    5    5    0  503  0.21189349657E+03  0.16569715273E+03  0.52227180037E+03  0.58747104931E+03  0.00000000000E+00 0.  1.
         -3    1    6    6    0  502 -0.86021064164E+02 -0.10966801313E+03  0.67900493181E+02  0.15503926457E+03  0.00000000000E+00 0.  1.
<mgrwt>
<rscale>  0 0.18515842E+04</rscale>
<asrwt>0</asrwt>
<pdfrwt beam="1">  1        2 0.69586380E+00 0.18515842E+04</pdfrwt>
<pdfrwt beam="2">  1       -2 0.29152513E-01 0.18515842E+04</pdfrwt>
<totfact> 0.12133493E+00</totfact>
</mgrwt>
</event>
<event>
12    1  0.1504874E-007  0.1822085E+04  0.7818608E-02  0.8694642E-01
         -1   -1    0    0    0  501 -0.00000000000E+00  0.00000000000E+00  0.99544048540E+03  0.99544048540E+03  0.00000000000E+00 0.  1.
          1   -1    0    0  501    0  0.00000000000E+00 -0.00000000000E+00 -0.83380036841E+03  0.83380036841E+03  0.00000000000E+00 0. -1.
         23    2    1    2    0    0 -0.32453657785E+01  0.55418216472E+03  0.46611569989E+03  0.73002539817E+03  0.92438261523E+02 0.  0.
        254    2    1    2    0    0  0.32453657785E+01 -0.55418216472E+03 -0.30447558291E+03  0.10992154556E+04  0.89913337900E+03 0.  0.
        -24    2    4    4    0    0  0.53726528383E+02 -0.77617057628E+03 -0.11121462047E+03  0.79004356809E+03  0.80453988946E+02 0.  0.
         24    2    4    4    0    0 -0.50481162604E+02  0.22198841156E+03 -0.19326096243E+03  0.30917188755E+03  0.80064060639E+02 0.  0.
         13    1    3    3    0    0  0.15627703858E+02  0.28840484103E+02  0.48982299861E+02  0.58951372765E+02  0.00000000000E+00 0. -1.
        -13    1    3    3    0    0 -0.18873069637E+02  0.52534168062E+03  0.41713340003E+03  0.67107402540E+03  0.00000000000E+00 0.  1.
          2    1    6    6  502    0 -0.44540442751E+02  0.72779219181E+02 -0.10651302691E+03  0.13647597109E+03  0.00000000000E+00 0. -1.
          1    1    5    5  503    0  0.41988336729E+01 -0.15108395423E+03  0.96721608926E+01  0.15145145138E+03  0.00000000000E+00 0. -1.
         -2    1    5    5    0  503  0.49527694710E+02 -0.62508662205E+03 -0.12088678137E+03  0.63859211671E+03  0.00000000000E+00 0.  1.
         -1    1    6    6    0  502 -0.59407198528E+01  0.14920919238E+03 -0.86747935526E+02  0.17269591646E+03  0.00000000000E+00 0.  1.
<mgrwt>
<rscale>  0 0.18220852E+04</rscale>
<asrwt>0</asrwt>
<pdfrwt beam="1">  1        1 0.12827698E+00 0.18220852E+04</pdfrwt>
<pdfrwt beam="2">  1       -1 0.15314469E+00 0.18220852E+04</pdfrwt>
<totfact> 0.64217656E+00</totfact>
</mgrwt>
</event>
<event>
12    1  0.1504874E-007  0.1430158E+04  0.7818608E-02  0.8932273E-01
          1   -1    0    0  501    0  0.00000000000E+00  0.00000000000E+00  0.96106848639E+03  0.96106848639E+03  0.00000000000E+00 0. -1.
         -1   -1    0    0    0  501 -0.00000000000E+00 -0.00000000000E+00 -0.53205166681E+03  0.53205166681E+03  0.00000000000E+00 0.  1.
         23    2    1    2    0    0 -0.37928004061E+03  0.26551463096E+02 -0.62759441152E+02  0.39587676276E+03  0.90671574606E+02 0.  0.
        254    2    1    2    0    0  0.37928004061E+03 -0.26551463096E+02  0.49177626073E+03  0.10972433904E+04  0.90417964911E+03 0.  0.
        -24    2    4    4    0    0  0.27347919450E+03 -0.43925922992E+03  0.14824795657E+03  0.54422347512E+03  0.80387768630E+02 0.  0.
         24    2    4    4    0    0  0.10580084610E+03  0.41270776683E+03  0.34352830416E+03  0.55301991533E+03  0.79358749706E+02 0.  0.
         13    1    3    3    0    0 -0.11341294987E+03  0.23079092331E+02 -0.59118508131E+02  0.12996207026E+03  0.00000000000E+00 0.  1.
        -13    1    3    3    0    0 -0.26586709074E+03  0.34723707648E+01 -0.36409330213E+01  0.26591469250E+03  0.00000000000E+00 0. -1.
          2    1    6    6  502    0  0.11342674974E+03  0.33555494183E+03  0.29953255956E+03  0.46387767868E+03  0.00000000000E+00 0. -1.
          3    1    5    5  503    0  0.20176628389E+03 -0.37855315441E+03  0.11052406354E+03  0.44297595042E+03  0.00000000000E+00 0. -1.
         -4    1    5    5    0  503  0.71712910610E+02 -0.60706075516E+02  0.37723893034E+02  0.10124752470E+03  0.00000000000E+00 0.  1.
         -1    1    6    6    0  502 -0.76259036320E+01  0.77152825001E+02  0.43995744593E+02  0.89142236645E+02  0.00000000000E+00 0.  1.
<mgrwt>
<rscale>  0 0.14301582E+04</rscale>
<asrwt>0</asrwt>
<pdfrwt beam="1">  1        1 0.14785669E+00 0.14301582E+04</pdfrwt>
<pdfrwt beam="2">  1       -1 0.81854103E-01 0.14301582E+04</pdfrwt>
<totfact> 0.23470987E+01</totfact>
</mgrwt>
</event>
<event>
12    1  0.1504874E-007  0.1884406E+04  0.7818608E-02  0.8662657E-01
         -2   -1    0    0    0  501 -0.00000000000E+00  0.00000000000E+00  0.15839592894E+04  0.15839592894E+04  0.00000000000E+00 0.  1.
          2   -1    0    0  501    0  0.00000000000E+00 -0.00000000000E+00 -0.56046065688E+03  0.56046065688E+03  0.00000000000E+00 0. -1.
         23    2    1    2    0    0  0.55692433461E+03 -0.24899341060E+03 -0.37045449771E+02  0.61795912063E+03  0.91316353539E+02 0.  0.
        254    2    1    2    0    0 -0.55692433461E+03  0.24899341060E+03  0.10605440823E+04  0.15264608257E+04  0.91277952912E+03 0.  0.
        -24    2    4    4    0    0 -0.44582450204E+03 -0.22910797780E+02  0.33496691818E+02  0.45514390559E+03  0.82155676386E+02 0.  0.
         24    2    4    4    0    0 -0.11109983257E+03  0.27190420838E+03  0.10270473905E+04  0.10713169201E+04  0.81354345907E+02 0.  0.
         13    1    3    3    0    0  0.28717839685E+03 -0.94718387300E+02  0.15539043594E+02  0.30279442925E+03  0.00000000000E+00 0.  1.
        -13    1    3    3    0    0  0.26974593776E+03 -0.15427502330E+03 -0.52584493365E+02  0.31516469139E+03  0.00000000000E+00 0. -1.
          2    1    6    6  502    0 -0.81642915328E+02  0.25106474145E+03  0.95381238437E+03  0.98967526725E+03  0.00000000000E+00 0. -1.
          1    1    5    5  503    0 -0.29119906824E+03  0.23305868752E+02  0.30655268089E+02  0.29373424438E+03  0.00000000000E+00 0. -1.
         -4    1    5    5    0  503 -0.15462543380E+03 -0.46216666532E+02  0.28414237298E+01  0.16140966121E+03  0.00000000000E+00 0.  1.
         -1    1    6    6    0  502 -0.29456917242E+02  0.20839466934E+02  0.73235006120E+02  0.81641652830E+02  0.00000000000E+00 0.  1.
<mgrwt>
<rscale>  0 0.18844064E+04</rscale>
<asrwt>0</asrwt>
<pdfrwt beam="1">  1        2 0.86224717E-01 0.18844064E+04</pdfrwt>
<pdfrwt beam="2">  1       -2 0.24368604E+00 0.18844064E+04</pdfrwt>
<totfact> 0.35470660E+00</totfact>
</mgrwt>
</event>
<event>
12    1  0.1504874E-007  0.2663994E+04  0.7818608E-02  0.8346783E-01
          2   -1    0    0  501    0  0.00000000000E+00  0.00000000000E+00  0.29711834977E+04  0.29711834977E+04  0.00000000000E+00 0. -1.
         -2   -1    0    0    0  501 -0.00000000000E+00 -0.00000000000E+00 -0.59714125350E+03  0.59714125350E+03  0.00000000000E+00 0.  1.
         23    2    1    2    0    0  0.77346688438E+03 -0.79341088054E+03  0.16501057096E+04  0.19898767772E+04  0.94915167300E+02 0.  0.
        254    2    1    2    0    0 -0.77346688438E+03  0.79341088054E+03  0.72393653457E+03  0.15784479740E+04  0.86003607707E+03 0.  0.
        -24    2    4    4    0    0 -0.65677599256E+03  0.34193181727E+03  0.80726378121E+03  0.10981060570E+04  0.76746516535E+02 0.  0.
         24    2    4    4    0    0 -0.11669089182E+03  0.45147906327E+03 -0.83327246644E+02  0.48034191701E+03  0.79591572439E+02 0.  0.
         13    1    3    3    0    0  0.74206725907E+03 -0.77718996314E+03  0.15722940546E+04  0.19044150414E+04  0.00000000000E+00 0. -1.
        -13    1    3    3    0    0  0.31399625318E+02 -0.16220917405E+02  0.77811655040E+02  0.85461735833E+02  0.00000000000E+00 0.  1.
          2    1    6    6  502    0 -0.77021607889E+02  0.16045632670E+03 -0.13851978599E+02  0.17852293458E+03  0.00000000000E+00 0. -1.
          3    1    5    5  503    0 -0.11884999308E+03  0.96189362748E+02  0.15784232621E+03  0.21975421339E+03  0.00000000000E+00 0. -1.
         -4    1    5    5    0  503 -0.53792599948E+03  0.24574245452E+03  0.64942145501E+03  0.87835184357E+03  0.00000000000E+00 0.  1.
         -1    1    6    6    0  502 -0.39669283931E+02  0.29102273657E+03 -0.69475268046E+02  0.30181898243E+03  0.00000000000E+00 0.  1.
<mgrwt>
<rscale>  0 0.26639942E+04</rscale>
<asrwt>0</asrwt>
<pdfrwt beam="1">  1        2 0.45710515E+00 0.26639942E+04</pdfrwt>
<pdfrwt beam="2">  1       -2 0.91867886E-01 0.26639942E+04</pdfrwt>
<totfact> 0.16089310E+00</totfact>
</mgrwt>
</event>
<event>
12    1  0.1550511E-007  0.2639113E+04  0.7818608E-02  0.8355036E-01
         -2   -1    0    0    0  501 -0.00000000000E+00  0.00000000000E+00  0.10602628795E+04  0.10602628795E+04  0.00000000000E+00 0.  1.
          2   -1    0    0  501    0  0.00000000000E+00 -0.00000000000E+00 -0.16422618836E+04  0.16422618836E+04  0.00000000000E+00 0. -1.
         23    2    1    2    0    0  0.14053776534E+03  0.51432832201E+03  0.80523059881E+03  0.97018868838E+03  0.92656826498E+02 0.  0.
        254    2    1    2    0    0 -0.14053776534E+03 -0.51432832201E+03 -0.13872296029E+04  0.17323360747E+04  0.89011112675E+03 0.  0.
        -24    2    4    4    0    0 -0.50306310564E+03 -0.36642942249E+03 -0.96272555033E+03  0.11492997064E+04  0.81892123272E+02 0.  0.
         24    2    4    4    0    0  0.36252534030E+03 -0.14789889951E+03 -0.42450405262E+03  0.58303636830E+03  0.80181102692E+02 0.  0.
         13    1    3    3    0    0  0.36897348677E+02  0.26077934763E+03  0.33682558872E+03  0.42757310452E+03  0.00000000000E+00 0. -1.
        -13    1    3    3    0    0  0.10364041666E+03  0.25354897438E+03  0.46840501010E+03  0.54261558387E+03  0.00000000000E+00 0.  1.
          2    1    6    6  502    0  0.41752681572E+02 -0.47008587678E+02 -0.78104002851E+02  0.10026629042E+03  0.00000000000E+00 0. -1.
          3    1    5    5  503    0 -0.54552137543E+02 -0.11466286002E+02 -0.87304547162E+02  0.10358327751E+03  0.00000000000E+00 0. -1.
         -4    1    5    5    0  503 -0.44851096810E+03 -0.35496313649E+03 -0.87542100316E+03  0.10457164288E+04  0.00000000000E+00 0.  1.
         -1    1    6    6    0  502  0.32077265873E+03 -0.10089031184E+03 -0.34640004977E+03  0.48277007788E+03  0.00000000000E+00 0.  1.
<mgrwt>
<rscale>  0 0.26391130E+04</rscale>
<asrwt>0</asrwt>
<pdfrwt beam="1">  1        2 0.25265567E+00 0.26391130E+04</pdfrwt>
<pdfrwt beam="2">  1       -2 0.16311737E+00 0.26391130E+04</pdfrwt>
<totfact> 0.22254099E+00</totfact>
</mgrwt>
</event>
<event>
12    1  0.1504874E-007  0.1227209E+04  0.7818608E-02  0.9089368E-01
          1   -1    0    0  501    0  0.00000000000E+00  0.00000000000E+00  0.24318695731E+04  0.24318695731E+04  0.00000000000E+00 0. -1.
         -1   -1    0    0    0  501 -0.00000000000E+00 -0.00000000000E+00 -0.15482347063E+03  0.15482347063E+03  0.00000000000E+00 0.  1.
         23    2    1    2    0    0  0.24988994887E+03 -0.57307570919E+02  0.49660443157E+03  0.56627124332E+03  0.91203154154E+02 0.  0.
        254    2    1    2    0    0 -0.24988994887E+03  0.57307570919E+02  0.17804416709E+04  0.20204218005E+04  0.92000139340E+03 0.  0.
        -24    2    4    4    0    0  0.15829784991E+03 -0.27000978366E+03  0.27474647649E+03  0.42441978088E+03  0.81749810382E+02 0.  0.
         24    2    4    4    0    0 -0.40818779878E+03  0.32731735458E+03  0.15056951945E+04  0.15960020196E+04  0.79690013086E+02 0.  0.
         13    1    3    3    0    0  0.14166480344E+03  0.61903013024E+01  0.31599028175E+03  0.34634822726E+03  0.00000000000E+00 0. -1.
        -13    1    3    3    0    0  0.10822514543E+03 -0.63497872221E+02  0.18061414982E+03  0.21992301606E+03  0.00000000000E+00 0.  1.
          2    1    6    6  502    0 -0.18802524904E+03  0.18870024123E+03  0.84211145508E+03  0.88324004557E+03  0.00000000000E+00 0. -1.
          3    1    5    5  503    0  0.95356761421E+02 -0.22542804905E+03  0.19021549036E+03  0.30998814496E+03  0.00000000000E+00 0. -1.
         -4    1    5    5    0  503  0.62941088491E+02 -0.44581734614E+02  0.84530986130E+02  0.11443163591E+03  0.00000000000E+00 0.  1.
         -1    1    6    6    0  502 -0.22016254974E+03  0.13861711335E+03  0.66358373938E+03  0.71276197401E+03  0.00000000000E+00 0.  1.
<mgrwt>
<rscale>  0 0.12272090E+04</rscale>
<asrwt>0</asrwt>
<pdfrwt beam="1">  1        1 0.37413375E+00 0.12272090E+04</pdfrwt>
<pdfrwt beam="2">  1       -1 0.23818997E-01 0.12272090E+04</pdfrwt>
<totfact> 0.22818911E+01</totfact>
</mgrwt>
</event>
<event>
12    1  0.1504874E-007  0.2642505E+04  0.7818608E-02  0.8353905E-01
          2   -1    0    0  501    0  0.00000000000E+00  0.00000000000E+00  0.16172783287E+04  0.16172783287E+04  0.00000000000E+00 0. -1.
         -2   -1    0    0    0  501 -0.00000000000E+00 -0.00000000000E+00 -0.10794107780E+04  0.10794107780E+04  0.00000000000E+00 0.  1.
         23    2    1    2    0    0 -0.70496990338E+03 -0.12048478408E+03 -0.69553365245E+03  0.10017670663E+04  0.90945288673E+02 0.  0.
        254    2    1    2    0    0  0.70496990338E+03  0.12048478408E+03  0.12334012031E+04  0.16949220405E+04  0.91650589062E+03 0.  0.
        -24    2    4    4    0    0  0.72968839605E+03 -0.10534339426E+03  0.43049731828E+03  0.85669503129E+03  0.71105903673E+02 0.  0.
         24    2    4    4    0    0 -0.24718492675E+02  0.22582817835E+03  0.80290388485E+03  0.83822700918E+03  0.79752746694E+02 0.  0.
         11    1    3    3    0    0 -0.68981236223E+03 -0.13037066533E+03 -0.66969133224E+03  0.97021857637E+03  0.00000000000E+00 0.  1.
        -11    1    3    3    0    0 -0.15157541152E+02  0.98858812463E+01 -0.25842320210E+02  0.31548489911E+02  0.00000000000E+00 0. -1.
          4    1    6    6  502    0  0.15854160693E+01  0.20197044684E+03  0.72504638904E+03  0.75265320115E+03  0.00000000000E+00 0. -1.
          3    1    5    5  503    0  0.47642125577E+03 -0.34764784889E+02  0.27206677023E+03  0.54973278116E+03  0.00000000000E+00 0. -1.
         -2    1    5    5    0  503  0.25326714028E+03 -0.70578609373E+02  0.15843054805E+03  0.30696225013E+03  0.00000000000E+00 0.  1.
         -3    1    6    6    0  502 -0.26303908745E+02  0.23857731510E+02  0.77857495805E+02  0.85573808032E+02  0.00000000000E+00 0.  1.
<mgrwt>
<rscale>  0 0.26425046E+04</rscale>
<asrwt>0</asrwt>
<pdfrwt beam="1">  1        2 0.24881205E+00 0.26425046E+04</pdfrwt>
<pdfrwt beam="2">  1       -2 0.16606320E+00 0.26425046E+04</pdfrwt>
<totfact> 0.21869725E+00</totfact>
</mgrwt>
</event>
<event>
12    1  0.1504874E-007  0.1303119E+04  0.7818608E-02  0.9027096E-01
          1   -1    0    0  501    0  0.00000000000E+00  0.00000000000E+00  0.94652688543E+03  0.94652688543E+03  0.00000000000E+00 0. -1.
         -1   -1    0    0    0  501 -0.00000000000E+00 -0.00000000000E+00 -0.44851296827E+03  0.44851296827E+03  0.00000000000E+00 0.  1.
         23    2    1    2    0    0 -0.18479054811E+02  0.33068311786E+03  0.16729370720E+03  0.38177807731E+03  0.89858310355E+02 0.  0.
        254    2    1    2    0    0  0.18479054811E+02 -0.33068311786E+03  0.33072020997E+03  0.10132617764E+04  0.89868279738E+03 0.  0.
        -24    2    4    4    0    0 -0.23885848145E+03 -0.69236301978E+02  0.52882391910E+03  0.58975227933E+03  0.79410162446E+02 0.  0.
         24    2    4    4    0    0  0.25733753626E+03 -0.26144681588E+03 -0.19810370913E+03  0.42350949706E+03  0.74418878165E+02 0.  0.
         13    1    3    3    0    0 -0.16890064243E+02  0.33626892856E+03  0.16730765987E+03  0.37597063666E+03  0.00000000000E+00 0.  1.
        -13    1    3    3    0    0 -0.15889905677E+01 -0.55858106954E+01 -0.13952672432E-01  0.58074406433E+01  0.00000000000E+00 0. -1.
          2    1    6    6  502    0  0.13330566788E+03 -0.84406609069E+02 -0.92965092994E+02  0.18313215245E+03  0.00000000000E+00 0. -1.
          1    1    5    5  503    0 -0.17153110988E+02  0.68069886752E+01  0.93866711270E+02  0.95663597026E+02  0.00000000000E+00 0. -1.
         -2    1    5    5    0  503 -0.22170537046E+03 -0.76043290653E+02  0.43495720783E+03  0.49408868231E+03  0.00000000000E+00 0.  1.
         -1    1    6    6    0  502  0.12403186838E+03 -0.17704020681E+03 -0.10513861613E+03  0.24037734461E+03  0.00000000000E+00 0.  1.
<mgrwt>
<rscale>  0 0.13031187E+04</rscale>
<asrwt>0</asrwt>
<pdfrwt beam="1">  1        1 0.14561952E+00 0.13031187E+04</pdfrwt>
<pdfrwt beam="2">  1       -1 0.69001995E-01 0.13031187E+04</pdfrwt>
<totfact> 0.34826764E+01</totfact>
</mgrwt>
</event>
<event>
12    1  0.1504874E-007  0.2250140E+04  0.7818608E-02  0.8497844E-01
         -2   -1    0    0    0  501 -0.00000000000E+00  0.00000000000E+00  0.79627567015E+03  0.79627567015E+03  0.00000000000E+00 0.  1.
          2   -1    0    0  501    0  0.00000000000E+00 -0.00000000000E+00 -0.15896278141E+04  0.15896278141E+04  0.00000000000E+00 0. -1.
         23    2    1    2    0    0 -0.57610061912E+03  0.64758929484E+02 -0.10814026883E+04  0.12302131526E+04  0.88921225428E+02 0.  0.
        254    2    1    2    0    0  0.57610061912E+03 -0.64758929484E+02  0.28805054437E+03  0.11556903316E+04  0.95737212420E+03 0.  0.
        -24    2    4    4    0    0  0.19207576450E+02 -0.18697847124E+03  0.50193637473E+03  0.54200794577E+03  0.80638758050E+02 0.  0.
         24    2    4    4    0    0  0.55689304267E+03  0.12221954176E+03 -0.21388583037E+03  0.61368238584E+03  0.76101543389E+02 0.  0.
         11    1    3    3    0    0 -0.46424790641E+03  0.16116962471E+02 -0.85363115184E+03  0.97183950243E+03  0.00000000000E+00 0. -1.
        -11    1    3    3    0    0 -0.11185271270E+03  0.48641967014E+02 -0.22777153643E+03  0.25837365017E+03  0.00000000000E+00 0.  1.
          4    1    6    6  502    0  0.51266362474E+03  0.11295206856E+03 -0.21774812695E+03  0.56832773002E+03  0.00000000000E+00 0. -1.
          1    1    5    5  503    0 -0.24947588895E+02 -0.69926314199E+02  0.24886057510E+03  0.25969916721E+03  0.00000000000E+00 0. -1.
         -2    1    5    5    0  503  0.44155165345E+02 -0.11705215704E+03  0.25307579963E+03  0.28230877856E+03  0.00000000000E+00 0.  1.
         -3    1    6    6    0  502  0.44229417931E+02  0.92674731997E+01  0.38622965858E+01  0.45354655824E+02  0.00000000000E+00 0.  1.
<mgrwt>
<rscale>  0 0.22501395E+04</rscale>
<asrwt>0</asrwt>
<pdfrwt beam="1">  1        2 0.24455812E+00 0.22501395E+04</pdfrwt>
<pdfrwt beam="2">  1       -2 0.12250395E+00 0.22501395E+04</pdfrwt>
<totfact> 0.51896487E+00</totfact>
</mgrwt>
</event>
<event>
12    1  0.1710641E-007  0.2791553E+04  0.7818608E-02  0.8305896E-01
         -1   -1    0    0    0  501 -0.00000000000E+00  0.00000000000E+00  0.96434750219E+03  0.96434750219E+03  0.00000000000E+00 0.  1.
          1   -1    0    0  501    0  0.00000000000E+00 -0.00000000000E+00 -0.20202181107E+04  0.20202181107E+04  0.00000000000E+00 0. -1.
         23    2    1    2    0    0 -0.17928039098E+03 -0.11078003029E+03  0.84187438660E+03  0.87250941125E+03  0.90036193934E+02 0.  0.
        254    2    1    2    0    0  0.17928039098E+03  0.11078003029E+03 -0.18977449951E+04  0.21120562016E+04  0.90273565271E+03 0.  0.
        -24    2    4    4    0    0 -0.93056421593E+02 -0.16041619125E+03 -0.16162280811E+04  0.16288022483E+04  0.80066857538E+02 0.  0.
         24    2    4    4    0    0  0.27233681257E+03  0.27119622154E+03 -0.28151691394E+03  0.48325395333E+03  0.81042461209E+02 0.  0.
         11    1    3    3    0    0 -0.13865763191E+03 -0.88190778193E+02  0.47329345581E+03  0.50100922902E+03  0.00000000000E+00 0. -1.
        -11    1    3    3    0    0 -0.40622759072E+02 -0.22589252098E+02  0.36858093078E+03  0.37150018224E+03  0.00000000000E+00 0.  1.
          4    1    6    6  502    0  0.24026355211E+03  0.21401511076E+03 -0.20083925685E+03  0.37929599154E+03  0.00000000000E+00 0. -1.
          3    1    5    5  503    0 -0.86953813042E+02 -0.14566153658E+03 -0.15815824361E+04  0.15906543468E+04  0.00000000000E+00 0. -1.
         -4    1    5    5    0  503 -0.61026085512E+01 -0.14754654664E+02 -0.34645645052E+02  0.38147901468E+02  0.00000000000E+00 0.  1.
         -3    1    6    6    0  502  0.32073260462E+02  0.57181110782E+02 -0.80677657091E+02  0.10395796179E+03  0.00000000000E+00 0.  1.
<mgrwt>
<rscale>  0 0.27915532E+04</rscale>
<asrwt>0</asrwt>
<pdfrwt beam="1">  1        1 0.31080279E+00 0.27915532E+04</pdfrwt>
<pdfrwt beam="2">  1       -1 0.14836115E+00 0.27915532E+04</pdfrwt>
<totfact> 0.89884661E-01</totfact>
</mgrwt>
</event>
<event>
12    1  0.1504874E-007  0.2020411E+04  0.7818608E-02  0.8597137E-01
          2   -1    0    0  501    0  0.00000000000E+00  0.00000000000E+00  0.29291652108E+04  0.29291652108E+04  0.00000000000E+00 0. -1.
         -2   -1    0    0    0  501 -0.00000000000E+00 -0.00000000000E+00 -0.34839786275E+03  0.34839786275E+03  0.00000000000E+00 0.  1.
         23    2    1    2    0    0  0.75854279800E+03 -0.82224568455E+02  0.14696354764E+04  0.16584034453E+04  0.91244165189E+02 0.  0.
        254    2    1    2    0    0 -0.75854279800E+03  0.82224568455E+02  0.11111318717E+04  0.16191596283E+04  0.89717100358E+03 0.  0.
        -24    2    4    4    0    0 -0.39864213588E+03 -0.35351224645E+03  0.81352050914E+03  0.97518555960E+03  0.72696602162E+02 0.  0.
         24    2    4    4    0    0 -0.35990066211E+03  0.43573681491E+03  0.29761136251E+03  0.64397406870E+03  0.82067165205E+02 0.  0.
         11    1    3    3    0    0  0.54311047939E+03 -0.47399131745E+02  0.95979820715E+03  0.11038243832E+04  0.00000000000E+00 0.  1.
        -11    1    3    3    0    0  0.21543231860E+03 -0.34825436709E+02  0.50983726927E+03  0.55457906206E+03  0.00000000000E+00 0. -1.
          2    1    6    6  502    0 -0.78457248289E+02  0.12848246157E+03  0.11300804355E+03  0.18823947686E+03  0.00000000000E+00 0. -1.
          3    1    5    5  503    0 -0.12419396680E+03 -0.14948518340E+03  0.26128947939E+03  0.32564114219E+03  0.00000000000E+00 0. -1.
         -4    1    5    5    0  503 -0.27444816908E+03 -0.20402706305E+03  0.55223102974E+03  0.64954441741E+03  0.00000000000E+00 0.  1.
         -1    1    6    6    0  502 -0.28144341382E+03  0.30725435334E+03  0.18460331896E+03  0.45573459184E+03  0.00000000000E+00 0.  1.
<mgrwt>
<rscale>  0 0.20204107E+04</rscale>
<asrwt>0</asrwt>
<pdfrwt beam="1">  1        2 0.45064079E+00 0.20204107E+04</pdfrwt>
<pdfrwt beam="2">  1       -2 0.53599673E-01 0.20204107E+04</pdfrwt>
<totfact> 0.58752312E+00</totfact>
</mgrwt>
</event>
<event>
12    1  0.1504874E-007  0.2581533E+04  0.7818608E-02  0.8374501E-01
         -2   -1    0    0    0  501 -0.00000000000E+00  0.00000000000E+00  0.15641082420E+04  0.15641082420E+04  0.00000000000E+00 0.  1.
          2   -1    0    0  501    0  0.00000000000E+00 -0.00000000000E+00 -0.10651937483E+04  0.10651937483E+04  0.00000000000E+00 0. -1.
         23    2    1    2    0    0 -0.44190024896E+03  0.55791044884E+03 -0.67266442395E+03  0.98356478506E+03  0.91555230367E+02 0.  0.
        254    2    1    2    0    0  0.44190024896E+03 -0.55791044884E+03  0.11715789177E+04  0.16457372052E+04  0.91066672786E+03 0.  0.
        -24    2    4    4    0    0  0.36293469906E+03 -0.58869039057E+03  0.12983878697E+04  0.14731587314E+04  0.78151237430E+02 0.  0.
         24    2    4    4    0    0  0.78965549909E+02  0.30779941733E+02 -0.12680895201E+03  0.17257847382E+03  0.80745627936E+02 0.  0.
         13    1    3    3    0    0 -0.38271069463E+03  0.50887038084E+03 -0.62968220431E+03  0.89549774913E+03  0.00000000000E+00 0. -1.
        -13    1    3    3    0    0 -0.59189554336E+02  0.49040068000E+02 -0.42982219636E+02  0.88067035926E+02  0.00000000000E+00 0.  1.
          4    1    6    6  502    0 -0.37107377520E+01 -0.55718102390E+01 -0.59664098992E+02  0.60038482263E+02  0.00000000000E+00 0. -1.
          1    1    5    5  503    0  0.63194724225E+02 -0.55909390363E+02  0.17181662565E+03  0.19141678596E+03  0.00000000000E+00 0. -1.
         -2    1    5    5    0  503  0.29973997483E+03 -0.53278100021E+03  0.11265712441E+04  0.12817419454E+04  0.00000000000E+00 0.  1.
         -3    1    6    6    0  502  0.82676287661E+02  0.36351751972E+02 -0.67144853018E+02  0.11253999156E+03  0.00000000000E+00 0.  1.
<mgrwt>
<rscale>  0 0.25815331E+04</rscale>
<asrwt>0</asrwt>
<pdfrwt beam="1">  1        2 0.16387596E+00 0.25815331E+04</pdfrwt>
<pdfrwt beam="2">  1       -2 0.24063204E+00 0.25815331E+04</pdfrwt>
<totfact> 0.14891454E+00</totfact>
</mgrwt>
</event>
<event>
12    1  0.1504874E-007  0.3943561E+04  0.7818608E-02  0.8016030E-01
          2   -1    0    0  501    0  0.00000000000E+00  0.00000000000E+00  0.30570922813E+04  0.30570922813E+04  0.00000000000E+00 0.  1.
         -2   -1    0    0    0  501 -0.00000000000E+00 -0.00000000000E+00 -0.12717698957E+04  0.12717698957E+04  0.00000000000E+00 0. -1.
         23    2    1    2    0    0 -0.12969924517E+04  0.12488803231E+04  0.13768247100E+04  0.22686888456E+04  0.97011931700E+02 0.  0.
        254    2    1    2    0    0  0.12969924517E+04 -0.12488803231E+04  0.40849767559E+03  0.20601733314E+04  0.91408551196E+03 0.  0.
        -24    2    4    4    0    0  0.14065611847E+04 -0.11638402204E+04  0.47129413081E+03  0.18872792880E+04  0.82258910169E+02 0.  0.
         24    2    4    4    0    0 -0.10956873301E+03 -0.85040102716E+02 -0.62796455223E+02  0.17289404337E+03  0.81925753706E+02 0.  0.
         13    1    3    3    0    0 -0.77259188078E+03  0.78702345401E+03  0.88741057670E+03  0.14155570151E+04  0.00000000000E+00 0. -1.
        -13    1    3    3    0    0 -0.52440057095E+03  0.46185686912E+03  0.48941413329E+03  0.85313183051E+03  0.00000000000E+00 0.  1.
          2    1    6    6  502    0 -0.39761362651E+02 -0.71413741440E+02 -0.60572282996E+02  0.10173440860E+03  0.00000000000E+00 0. -1.
          1    1    5    5  503    0  0.65958642551E+02 -0.36530621508E+02  0.28399223564E+02  0.80570123085E+02  0.00000000000E+00 0. -1.
         -2    1    5    5    0  503  0.13406025422E+04 -0.11273095989E+04  0.44289490725E+03  0.18067091650E+04  0.00000000000E+00 0.  1.
         -1    1    6    6    0  502 -0.69807370356E+02 -0.13626361276E+02 -0.22241722262E+01  0.71159634764E+02  0.00000000000E+00 0.  1.
<mgrwt>
<rscale>  0 0.39435608E+04</rscale>
<asrwt>0</asrwt>
<pdfrwt beam="1">  1        2 0.47032189E+00 0.39435608E+04</pdfrwt>
<pdfrwt beam="2">  1       -2 0.19565691E+00 0.39435608E+04</pdfrwt>
<totfact> 0.18031900E-01</totfact>
</mgrwt>
</event>
<event>
12    1  0.1504874E-007  0.1981342E+04  0.7818608E-02  0.8615394E-01
          2   -1    0    0  501    0  0.00000000000E+00  0.00000000000E+00  0.10667612354E+04  0.10667612354E+04  0.00000000000E+00 0. -1.
         -2   -1    0    0    0  501 -0.00000000000E+00 -0.00000000000E+00 -0.92000857598E+03  0.92000857598E+03  0.00000000000E+00 0.  1.
         23    2    1    2    0    0 -0.21358669330E+03 -0.58450408200E+03 -0.41844722967E+03  0.75547888369E+03  0.91574899691E+02 0.  0.
        254    2    1    2    0    0  0.21358669330E+03  0.58450408200E+03  0.56519988909E+03  0.12312909277E+04  0.89964556162E+03 0.  0.
        -24    2    4    4    0    0  0.49641780490E+03  0.51566476714E+03  0.58562976897E+03  0.92906396276E+03  0.88638769729E+02 0.  0.
         24    2    4    4    0    0 -0.28283111159E+03  0.68839314860E+02 -0.20429879883E+02  0.30222696493E+03  0.78685890618E+02 0.  0.
         11    1    3    3    0    0 -0.95957811446E+02 -0.14559195671E+03 -0.12538066583E+03  0.21476785327E+03  0.00000000000E+00 0. -1.
        -11    1    3    3    0    0 -0.11762888186E+03 -0.43891212528E+03 -0.29306656385E+03  0.54071103042E+03  0.00000000000E+00 0.  1.
          4    1    6    6  502    0 -0.26892513419E+03  0.43444818417E+02 -0.15453614093E+02  0.27284976496E+03  0.00000000000E+00 0. -1.
          3    1    5    5  503    0  0.48167461926E+03  0.50271164482E+03  0.54580129730E+03  0.88466292610E+03  0.00000000000E+00 0. -1.
         -4    1    5    5    0  503  0.14743185636E+02  0.12953122315E+02  0.39828471673E+02  0.44401036657E+02  0.00000000000E+00 0.  1.
         -1    1    6    6    0  502 -0.13905977402E+02  0.25394496443E+02 -0.49762657900E+01  0.29377199974E+02  0.00000000000E+00 0.  1.
<mgrwt>
<rscale>  0 0.19813425E+04</rscale>
<asrwt>0</asrwt>
<pdfrwt beam="1">  1        2 0.16411711E+00 0.19813425E+04</pdfrwt>
<pdfrwt beam="2">  1       -2 0.14153978E+00 0.19813425E+04</pdfrwt>
<totfact> 0.74209831E+00</totfact>
</mgrwt>
</event>
<event>
12    1  0.1504874E-007  0.1817800E+04  0.7818608E-02  0.8696890E-01
          1   -1    0    0  501    0  0.00000000000E+00  0.00000000000E+00  0.49947863434E+03  0.49947863434E+03  0.00000000000E+00 0. -1.
         -1   -1    0    0    0  501 -0.00000000000E+00 -0.00000000000E+00 -0.16539231760E+04  0.16539231760E+04  0.00000000000E+00 0.  1.
         23    2    1    2    0    0  0.11700020630E+03  0.36941262812E+03  0.22571150700E+03  0.45777243942E+03  0.91952073467E+02 0.  0.
        254    2    1    2    0    0 -0.11700020630E+03 -0.36941262812E+03 -0.13801560487E+04  0.16956293709E+04  0.90563431183E+03 0.  0.
        -24    2    4    4    0    0  0.35396274618E+03 -0.35237081690E+03 -0.75290293080E+03  0.90700048864E+03  0.79575403804E+02 0.  0.
         24    2    4    4    0    0 -0.47096295248E+03 -0.17041811211E+02 -0.62725311786E+03  0.78862888227E+03  0.79953199783E+02 0.  0.
         11    1    3    3    0    0  0.58000721699E+02  0.88534893133E+02  0.95696697912E+02  0.14268976491E+03  0.00000000000E+00 0.  1.
        -11    1    3    3    0    0  0.58999484596E+02  0.28087773498E+03  0.13001480909E+03  0.31508267451E+03  0.00000000000E+00 0. -1.
          2    1    6    6  502    0 -0.44334607859E+03  0.51032702717E+00 -0.56380142502E+03  0.71723639944E+03  0.00000000000E+00 0. -1.
          1    1    5    5  503    0  0.32770061581E+03 -0.33414724242E+03 -0.66271880797E+03  0.81131885943E+03  0.00000000000E+00 0. -1.
         -2    1    5    5    0  503  0.26262130371E+02 -0.18223574489E+02 -0.90184122825E+02  0.95681629212E+02  0.00000000000E+00 0.  1.
         -1    1    6    6    0  502 -0.27616873888E+02 -0.17552138238E+02 -0.63451692845E+02  0.71392482833E+02  0.00000000000E+00 0.  1.
<mgrwt>
<rscale>  0 0.18178001E+04</rscale>
<asrwt>0</asrwt>
<pdfrwt beam="1">  1        1 0.76842868E-01 0.18178001E+04</pdfrwt>
<pdfrwt beam="2">  1       -1 0.25444972E+00 0.18178001E+04</pdfrwt>
<totfact> 0.27274149E+00</totfact>
</mgrwt>
</event>
<event>
12    1  0.1504874E-007  0.2519486E+04  0.7818608E-02  0.8396076E-01
          2   -1    0    0  501    0  0.00000000000E+00  0.00000000000E+00  0.20008254670E+04  0.20008254670E+04  0.00000000000E+00 0. -1.
         -2   -1    0    0    0  501 -0.00000000000E+00 -0.00000000000E+00 -0.79314872613E+03  0.79314872613E+03  0.00000000000E+00 0.  1.
         23    2    1    2    0    0 -0.28298521166E+03 -0.52664722039E+03  0.14393238291E+04  0.15612788502E+04  0.92198907045E+02 0.  0.
        254    2    1    2    0    0  0.28298521166E+03  0.52664722039E+03 -0.23164708822E+03  0.12326953429E+04  0.10528245391E+04 0.  0.
        -24    2    4    4    0    0 -0.21143300517E+03  0.60400940554E+02 -0.45642561268E+03  0.51281720234E+03  0.79403739253E+02 0.  0.
         24    2    4    4    0    0  0.49441821683E+03  0.46624627983E+03  0.22477852446E+03  0.71987814056E+03  0.76577970714E+02 0.  0.
         11    1    3    3    0    0 -0.22136005407E+03 -0.33193062476E+03  0.89495508580E+03  0.97985857081E+03  0.00000000000E+00 0. -1.
        -11    1    3    3    0    0 -0.61625157590E+02 -0.19471659563E+03  0.54436874329E+03  0.58142027943E+03  0.00000000000E+00 0.  1.
          2    1    6    6  502    0  0.43967819044E+03  0.43052780300E+03  0.22289913742E+03  0.65448844586E+03  0.00000000000E+00 0. -1.
          3    1    5    5  503    0 -0.16627476690E+03  0.30403293736E+02 -0.26891848507E+03  0.31762998912E+03  0.00000000000E+00 0. -1.
         -4    1    5    5    0  503 -0.45158238275E+02  0.29997646818E+02 -0.18750712761E+03  0.19518721322E+03  0.00000000000E+00 0.  1.
         -1    1    6    6    0  502  0.54740026392E+02  0.35718476829E+02  0.18793870453E+01  0.65389694692E+02  0.00000000000E+00 0.  1.
<mgrwt>
<rscale>  0 0.25194858E+04</rscale>
<asrwt>0</asrwt>
<pdfrwt beam="1">  1        2 0.30781930E+00 0.25194858E+04</pdfrwt>
<pdfrwt beam="2">  1       -2 0.12202288E+00 0.25194858E+04</pdfrwt>
<totfact> 0.30269559E+00</totfact>
</mgrwt>
</event>
<event>
12    1  0.1504874E-007  0.1932886E+04  0.7818608E-02  0.8638658E-01
          2   -1    0    0  501    0  0.00000000000E+00  0.00000000000E+00  0.11207093696E+04  0.11207093696E+04  0.00000000000E+00 0. -1.
         -2   -1    0    0    0  501 -0.00000000000E+00 -0.00000000000E+00 -0.83341162457E+03  0.83341162457E+03  0.00000000000E+00 0.  1.
         23    2    1    2    0    0 -0.69009201336E+03  0.20468233786E+03 -0.13257580155E+03  0.73748131349E+03  0.90446106882E+02 0.  0.
        254    2    1    2    0    0  0.69009201336E+03 -0.20468233786E+03  0.41987354661E+03  0.12166396807E+04  0.88645161808E+03 0.  0.
        -24    2    4    4    0    0  0.46355142002E+03 -0.54508060796E+03  0.32266176413E+03  0.78892071995E+03  0.79325280659E+02 0.  0.
         24    2    4    4    0    0  0.22654059334E+03  0.34039827010E+03  0.97211782472E+02  0.42771896076E+03  0.79383600462E+02 0.  0.
         11    1    3    3    0    0 -0.33106172662E+03  0.13832488046E+03 -0.89868345548E+02  0.36988100643E+03  0.00000000000E+00 0.  1.
        -11    1    3    3    0    0 -0.35903028675E+03  0.66357457402E+02 -0.42707456000E+02  0.36760030706E+03  0.00000000000E+00 0. -1.
          2    1    6    6  502    0  0.19316486832E+03  0.23989404616E+03  0.51067944250E+02  0.31220146487E+03  0.00000000000E+00 0. -1.
          1    1    5    5  503    0  0.16441400501E+03 -0.25372338092E+03  0.13411935296E+03  0.33074993561E+03  0.00000000000E+00 0. -1.
         -4    1    5    5    0  503  0.29913741501E+03 -0.29135722704E+03  0.18854241117E+03  0.45817078433E+03  0.00000000000E+00 0.  1.
         -1    1    6    6    0  502  0.33375725017E+02  0.10050422394E+03  0.46143838222E+02  0.11551749589E+03  0.00000000000E+00 0.  1.
<mgrwt>
<rscale>  0 0.19328861E+04</rscale>
<asrwt>0</asrwt>
<pdfrwt beam="1">  1        2 0.17241683E+00 0.19328861E+04</pdfrwt>
<pdfrwt beam="2">  1       -2 0.12821717E+00 0.19328861E+04</pdfrwt>
<totfact> 0.88886205E+00</totfact>
</mgrwt>
</event>
<event>
12    1  0.1504874E-007  0.1905859E+04  0.7818608E-02  0.8651946E-01
          1   -1    0    0  501    0  0.00000000000E+00  0.00000000000E+00  0.11460346111E+04  0.11460346111E+04  0.00000000000E+00 0. -1.
         -1   -1    0    0    0  501 -0.00000000000E+00 -0.00000000000E+00 -0.79236216487E+03  0.79236216487E+03  0.00000000000E+00 0.  1.
         23    2    1    2    0    0  0.26810727525E+03 -0.60549787984E+03 -0.84760386086E+02  0.67485977386E+03  0.98702572367E+02 0.  0.
        254    2    1    2    0    0 -0.26810727525E+03  0.60549787984E+03  0.43843283227E+03  0.12635370021E+04  0.98274778739E+03 0.  0.
        -24    2    4    4    0    0  0.70120537102E+01  0.41269025970E+03 -0.25296660473E+03  0.49057980822E+03  0.79460844301E+02 0.  0.
         24    2    4    4    0    0 -0.27511932896E+03  0.19280762015E+03  0.69139943700E+03  0.77295719384E+03  0.81019864674E+02 0.  0.
         13    1    3    3    0    0  0.61669427633E+02 -0.21198761470E+03 -0.64589506390E+02  0.23002971857E+03  0.00000000000E+00 0. -1.
        -13    1    3    3    0    0  0.20643784762E+03 -0.39351026515E+03 -0.20170879696E+02  0.44483005529E+03  0.00000000000E+00 0.  1.
          4    1    6    6  502    0 -0.10327047131E+03  0.67297737208E+02  0.17158320109E+03  0.21126895317E+03  0.00000000000E+00 0. -1.
          1    1    5    5  503    0  0.20649236805E+02  0.57579766773E+02 -0.62212366017E+02  0.87247916924E+02  0.00000000000E+00 0. -1.
         -2    1    5    5    0  503 -0.13637183095E+02  0.35511049292E+03 -0.19075423871E+03  0.40333189129E+03  0.00000000000E+00 0.  1.
         -3    1    6    6    0  502 -0.17184885765E+03  0.12550988294E+03  0.51981623591E+03  0.56168824067E+03  0.00000000000E+00 0.  1.
<mgrwt>
<rscale>  0 0.19058588E+04</rscale>
<asrwt>0</asrwt>
<pdfrwt beam="1">  1        1 0.17631302E+00 0.19058588E+04</pdfrwt>
<pdfrwt beam="2">  1       -1 0.12190187E+00 0.19058588E+04</pdfrwt>
<totfact> 0.65235318E+00</totfact>
</mgrwt>
</event>
<event>
12    1  0.1504874E-007  0.1859545E+04  0.7818608E-02  0.8675259E-01
         -2   -1    0    0    0  501 -0.00000000000E+00  0.00000000000E+00  0.17362382777E+04  0.17362382777E+04  0.00000000000E+00 0.  1.
          2   -1    0    0  501    0  0.00000000000E+00 -0.00000000000E+00 -0.49790237100E+03  0.49790237100E+03  0.00000000000E+00 0. -1.
         23    2    1    2    0    0 -0.25715576228E+03  0.59834035191E+03  0.79902137287E+03  0.10365616154E+04  0.10901635385E+03 0.  0.
        254    2    1    2    0    0  0.25715576228E+03 -0.59834035191E+03  0.43931453387E+03  0.11975790334E+04  0.90391261671E+03 0.  0.
        -24    2    4    4    0    0  0.11633843683E+02 -0.91137981370E+02  0.59608263748E+03  0.60715013293E+03  0.69823314451E+02 0.  0.
         24    2    4    4    0    0  0.24552191860E+03 -0.50720237054E+03 -0.15676810361E+03  0.59042890042E+03  0.80590265831E+02 0.  0.
         11    1    3    3    0    0 -0.41488804380E+02  0.14530922428E+03  0.12394191166E+03  0.19544229076E+03  0.00000000000E+00 0. -1.
        -11    1    3    3    0    0 -0.21566695790E+03  0.45303112763E+03  0.67507946121E+03  0.84111932464E+03  0.00000000000E+00 0.  1.
          4    1    6    6  502    0  0.22669843686E+02 -0.10340227732E+03 -0.49733048502E+02  0.11695866313E+03  0.00000000000E+00 0. -1.
          1    1    5    5  503    0  0.34991657163E+02 -0.31663194993E+02  0.17517604476E+03  0.18142111412E+03  0.00000000000E+00 0. -1.
         -2    1    5    5    0  503 -0.23357813481E+02 -0.59474786377E+02  0.42090659272E+03  0.42572901881E+03  0.00000000000E+00 0.  1.
         -3    1    6    6    0  502  0.22285207491E+03 -0.40380009323E+03 -0.10703505511E+03  0.47347023730E+03  0.00000000000E+00 0.  1.
<mgrwt>
<rscale>  0 0.18595453E+04</rscale>
<asrwt>0</asrwt>
<pdfrwt beam="1">  1        2 0.76600365E-01 0.18595453E+04</pdfrwt>
<pdfrwt beam="2">  1       -2 0.26711358E+00 0.18595453E+04</pdfrwt>
<totfact> 0.29358593E+00</totfact>
</mgrwt>
</event>
<event>
12    1  0.1504874E-007  0.1990368E+04  0.7818608E-02  0.8611137E-01
         -1   -1    0    0    0  501 -0.00000000000E+00  0.00000000000E+00  0.34927476729E+03  0.34927476729E+03  0.00000000000E+00 0.  1.
          1   -1    0    0  501    0  0.00000000000E+00 -0.00000000000E+00 -0.28355650680E+04  0.28355650680E+04  0.00000000000E+00 0. -1.
         23    2    1    2    0    0 -0.30901986469E+03  0.42117176863E+03 -0.46898078710E+02  0.53230802496E+03  0.90958607046E+02 0.  0.
        254    2    1    2    0    0  0.30901986469E+03 -0.42117176863E+03 -0.24393922220E+04  0.26525318103E+04  0.90133881343E+03 0.  0.
        -24    2    4    4    0    0 -0.67889749567E+00 -0.46574790659E+03 -0.22012032055E+04  0.22513266725E+04  0.79086414583E+02 0.  0.
         24    2    4    4    0    0  0.30969876218E+03  0.44576137966E+02 -0.23818901646E+03  0.40120513780E+03  0.79568835991E+02 0.  0.
         13    1    3    3    0    0 -0.12196208673E+03  0.23483111381E+03 -0.44079321066E+02  0.26825992835E+03  0.00000000000E+00 0. -1.
        -13    1    3    3    0    0 -0.18705777796E+03  0.18634065482E+03 -0.28187576442E+01  0.26404809662E+03  0.00000000000E+00 0.  1.
          2    1    6    6  502    0  0.24497311865E+02  0.25437942588E+02 -0.40093689388E+02  0.53429496914E+02  0.00000000000E+00 0. -1.
          1    1    5    5  503    0  0.37826018660E+02 -0.19051562706E+03 -0.94309374135E+03  0.96288774881E+03  0.00000000000E+00 0. -1.
         -2    1    5    5    0  503 -0.38504916156E+02 -0.27523227953E+03 -0.12581094642E+04  0.12884389237E+04  0.00000000000E+00 0.  1.
         -3    1    6    6    0  502  0.28520145032E+03  0.19138195378E+02 -0.19809532707E+03  0.34777564088E+03  0.00000000000E+00 0.  1.
<mgrwt>
<rscale>  0 0.19903681E+04</rscale>
<asrwt>0</asrwt>
<pdfrwt beam="1">  1        1 0.43624077E+00 0.19903681E+04</pdfrwt>
<pdfrwt beam="2">  1       -1 0.53734580E-01 0.19903681E+04</pdfrwt>
<totfact> 0.25541546E+00</totfact>
</mgrwt>
</event>
<event>
12    1  0.1504874E-007  0.1955828E+04  0.7818608E-02  0.8627556E-01
         -2   -1    0    0    0  501 -0.00000000000E+00  0.00000000000E+00  0.57937222774E+03  0.57937222774E+03  0.00000000000E+00 0.  1.
          2   -1    0    0  501    0  0.00000000000E+00 -0.00000000000E+00 -0.16506067842E+04  0.16506067842E+04  0.00000000000E+00 0. -1.
         23    2    1    2    0    0  0.55196835551E+03  0.12047733163E+03 -0.97968780319E+03  0.11345906695E+04  0.91235643859E+02 0.  0.
        254    2    1    2    0    0 -0.55196835551E+03 -0.12047733163E+03 -0.91546753241E+02  0.10953883424E+04  0.93397588819E+03 0.  0.
        -24    2    4    4    0    0  0.19375878156E+03  0.10512022258E+03  0.14576675658E+03  0.27656175983E+03  0.81521365627E+02 0.  0.
         24    2    4    4    0    0 -0.74572713706E+03 -0.22559755421E+03 -0.23731350982E+03  0.81882658257E+03  0.84593445138E+02 0.  0.
         11    1    3    3    0    0  0.19031215343E+03  0.82332619558E+02 -0.32011968975E+03  0.38141052916E+03  0.00000000000E+00 0.  1.
        -11    1    3    3    0    0  0.36165620207E+03  0.38144712067E+02 -0.65956811344E+03  0.75318014035E+03  0.00000000000E+00 0. -1.
          4    1    6    6  502    0 -0.17988831876E+03 -0.45320062428E+02 -0.20567885223E+02  0.18664606395E+03  0.00000000000E+00 0. -1.
          1    1    5    5  503    0  0.33675635909E+02  0.28696594882E+02 -0.39718786921E+01  0.44422053443E+02  0.00000000000E+00 0. -1.
         -2    1    5    5    0  503  0.16008314565E+03  0.76423627698E+02  0.14973863527E+03  0.23213970639E+03  0.00000000000E+00 0.  1.
         -3    1    6    6    0  502 -0.56583881830E+03 -0.18027749178E+03 -0.21674562460E+03  0.63218051862E+03  0.00000000000E+00 0.  1.
<mgrwt>
<rscale>  0 0.19558279E+04</rscale>
<asrwt>0</asrwt>
<pdfrwt beam="1">  1        2 0.25393950E+00 0.19558279E+04</pdfrwt>
<pdfrwt beam="2">  1       -2 0.89134190E-01 0.19558279E+04</pdfrwt>
<totfact> 0.10527764E+01</totfact>
</mgrwt>
</event>
<event>
12    1  0.1504874E-007  0.1353939E+04  0.7818608E-02  0.8987851E-01
         -1   -1    0    0    0  501 -0.00000000000E+00  0.00000000000E+00  0.24156472451E+03  0.24156472451E+03  0.00000000000E+00 0.  1.
          1   -1    0    0  501    0  0.00000000000E+00 -0.00000000000E+00 -0.18971644449E+04  0.18971644449E+04  0.00000000000E+00 0. -1.
         23    2    1    2    0    0  0.17100918839E+03  0.30364364030E+03 -0.26635809683E+03  0.44863462003E+03  0.94248521128E+02 0.  0.
        254    2    1    2    0    0 -0.17100918839E+03 -0.30364364030E+03 -0.13892416236E+04  0.16900945494E+04  0.89720883544E+03 0.  0.
        -24    2    4    4    0    0  0.32423691637E+03 -0.15124699961E+03 -0.90456743791E+03  0.97603670145E+03  0.80001000088E+02 0.  0.
         24    2    4    4    0    0 -0.49524610476E+03 -0.15239664069E+03 -0.48467418569E+03  0.71405784797E+03  0.80474241772E+02 0.  0.
         13    1    3    3    0    0  0.97620601208E+02  0.20371210895E+03 -0.22263392443E+03  0.31716599663E+03  0.00000000000E+00 0.  1.
        -13    1    3    3    0    0  0.73388587179E+02  0.99931531345E+02 -0.43724172401E+02  0.13146862340E+03  0.00000000000E+00 0. -1.
          2    1    6    6  502    0 -0.44481572093E+03 -0.14274045929E+03 -0.39988851223E+03  0.61493632721E+03  0.00000000000E+00 0. -1.
          1    1    5    5  503    0  0.23371796444E+03 -0.14002611909E+03 -0.62040013444E+03  0.67758964554E+03  0.00000000000E+00 0. -1.
         -2    1    5    5    0  503  0.90518951933E+02 -0.11220880523E+02 -0.28416730347E+03  0.29844705591E+03  0.00000000000E+00 0.  1.
         -1    1    6    6    0  502 -0.50430383829E+02 -0.96561813938E+01 -0.84785673465E+02  0.99121520757E+02  0.00000000000E+00 0.  1.
<mgrwt>
<rscale>  0 0.13539394E+04</rscale>
<asrwt>0</asrwt>
<pdfrwt beam="1">  1        1 0.29187145E+00 0.13539394E+04</pdfrwt>
<pdfrwt beam="2">  1       -1 0.37163804E-01 0.13539394E+04</pdfrwt>
<totfact> 0.23865245E+01</totfact>
</mgrwt>
</event>
<event>
12    1  0.1504874E-007  0.2433518E+04  0.7818608E-02  0.8427061E-01
          1   -1    0    0  501    0  0.00000000000E+00  0.00000000000E+00  0.84265478898E+03  0.84265478898E+03  0.00000000000E+00 0. -1.
         -1   -1    0    0    0  501 -0.00000000000E+00 -0.00000000000E+00 -0.17569498255E+04  0.17569498255E+04  0.00000000000E+00 0.  1.
         23    2    1    2    0    0 -0.78063336155E+03  0.30328856126E+03 -0.10581113204E+04  0.13524760665E+04  0.90661720128E+02 0.  0.
        254    2    1    2    0    0  0.78063336155E+03 -0.30328856126E+03  0.14381628383E+03  0.12471285480E+04  0.91283848257E+03 0.  0.
        -24    2    4    4    0    0 -0.19508033321E+03  0.13915326213E+02  0.23775217865E+02  0.21109099358E+03  0.75790328394E+02 0.  0.
         24    2    4    4    0    0  0.97571369477E+03 -0.31720388747E+03  0.12004106597E+03  0.10360375544E+04  0.79551469647E+02 0.  0.
         13    1    3    3    0    0 -0.14553621935E+03  0.26794232683E+02 -0.22057063004E+03  0.26561273479E+03  0.00000000000E+00 0.  1.
        -13    1    3    3    0    0 -0.63509714221E+03  0.27649432857E+03 -0.83754069035E+03  0.10868633317E+04  0.00000000000E+00 0. -1.
          2    1    6    6  502    0  0.95312596048E+03 -0.31845489047E+03  0.10884611411E+03  0.10107967602E+04  0.00000000000E+00 0. -1.
          1    1    5    5  503    0 -0.10547203844E+03  0.43189747216E+02  0.25567562078E+02  0.11680498871E+03  0.00000000000E+00 0. -1.
         -2    1    5    5    0  503 -0.89608294773E+02 -0.29274421003E+02 -0.17923442126E+01  0.94286004873E+02  0.00000000000E+00 0.  1.
         -1    1    6    6    0  502  0.22587734284E+02  0.12510030027E+01  0.11194951860E+02  0.25240794277E+02  0.00000000000E+00 0.  1.
<mgrwt>
<rscale>  0 0.24335178E+04</rscale>
<asrwt>0</asrwt>
<pdfrwt beam="1">  1        1 0.12963920E+00 0.24335178E+04</pdfrwt>
<pdfrwt beam="2">  1       -1 0.27029997E+00 0.24335178E+04</pdfrwt>
<totfact> 0.93378384E-01</totfact>
</mgrwt>
</event>
<event>
12    1  0.1504874E-007  0.2150261E+04  0.7818608E-02  0.8539421E-01
          1   -1    0    0  501    0  0.00000000000E+00  0.00000000000E+00  0.15870675125E+04  0.15870675125E+04  0.00000000000E+00 0.  1.
         -1   -1    0    0    0  501 -0.00000000000E+00 -0.00000000000E+00 -0.72832784790E+03  0.72832784790E+03  0.00000000000E+00 0. -1.
         23    2    1    2    0    0  0.50908329409E+03 -0.34315049814E+03 -0.32972982040E+03  0.70301026995E+03  0.92647830522E+02 0.  0.
        254    2    1    2    0    0 -0.50908329409E+03  0.34315049814E+03  0.11884694850E+04  0.16123850904E+04  0.90022658170E+03 0.  0.
        -24    2    4    4    0    0 -0.93143040743E+02  0.97756291528E+02  0.11054972577E+04  0.11164772609E+04  0.78519862110E+02 0.  0.
         24    2    4    4    0    0 -0.41594025335E+03  0.24539420661E+03  0.82972227254E+02  0.49590782951E+03  0.76259910045E+02 0.  0.
         13    1    3    3    0    0  0.25890886913E+03 -0.12283813408E+03 -0.17197457788E+03  0.33421290390E+03  0.00000000000E+00 0.  1.
        -13    1    3    3    0    0  0.25017442496E+03 -0.22031236406E+03 -0.15775524252E+03  0.36879736605E+03  0.00000000000E+00 0. -1.
          4    1    6    6  502    0 -0.34207203154E+03  0.23318090118E+03  0.73000018846E+02  0.42037555850E+03  0.00000000000E+00 0. -1.
          1    1    5    5  503    0 -0.54519473915E+02  0.10366118644E+03  0.82931465044E+03  0.83754450869E+03  0.00000000000E+00 0. -1.
         -2    1    5    5    0  503 -0.38623566828E+02 -0.59048949101E+01  0.27618260727E+03  0.27893275222E+03  0.00000000000E+00 0.  1.
         -3    1    6    6    0  502 -0.73868221807E+02  0.12213305431E+02  0.99722084078E+01  0.75532271004E+02  0.00000000000E+00 0.  1.
<mgrwt>
<rscale>  0 0.21502609E+04</rscale>
<asrwt>0</asrwt>
<pdfrwt beam="1">  1        1 0.24416423E+00 0.21502609E+04</pdfrwt>
<pdfrwt beam="2">  1       -1 0.11205044E+00 0.21502609E+04</pdfrwt>
<totfact> 0.38091994E+00</totfact>
</mgrwt>
</event>
<event>
12    1  0.1504874E-007  0.1165452E+04  0.7818608E-02  0.9143646E-01
          1   -1    0    0  501    0  0.00000000000E+00  0.00000000000E+00  0.46542357378E+03  0.46542357378E+03  0.00000000000E+00 0. -1.
         -1   -1    0    0    0  501 -0.00000000000E+00 -0.00000000000E+00 -0.72959261787E+03  0.72959261787E+03  0.00000000000E+00 0.  1.
         23    2    1    2    0    0  0.21664887449E+03  0.82733125616E+01 -0.79351584599E+02  0.24796472308E+03  0.90469041084E+02 0.  0.
        254    2    1    2    0    0 -0.21664887449E+03 -0.82733125616E+01 -0.18481745949E+03  0.94705146857E+03  0.90318536761E+03 0.  0.
        -24    2    4    4    0    0  0.88388902317E+02 -0.39645661865E+03 -0.57780689109E+00  0.41411053684E+03  0.80602446203E+02 0.  0.
         24    2    4    4    0    0 -0.30503777681E+03  0.38818330609E+03 -0.18423965260E+03  0.53294093173E+03  0.79670965322E+02 0.  0.
         11    1    3    3    0    0  0.11647070749E+03  0.49537597477E+02 -0.41429901505E+02  0.13317595881E+03  0.00000000000E+00 0. -1.
        -11    1    3    3    0    0  0.10017816700E+03 -0.41264284915E+02 -0.37921683094E+02  0.11478876427E+03  0.00000000000E+00 0.  1.
          2    1    6    6  502    0 -0.15317794404E+02  0.60934598303E+02 -0.18434717699E+02  0.65478995964E+02  0.00000000000E+00 0. -1.
          1    1    5    5  503    0 -0.22764759041E+01 -0.16731977023E+03 -0.86199709405E+01  0.16755712982E+03  0.00000000000E+00 0. -1.
         -2    1    5    5    0  503  0.90665378221E+02 -0.22913684842E+03  0.80421640494E+01  0.24655340702E+03  0.00000000000E+00 0.  1.
         -1    1    6    6    0  502 -0.28971998240E+03  0.32724870779E+03 -0.16580493490E+03  0.46746193577E+03  0.00000000000E+00 0.  1.
<mgrwt>
<rscale>  0 0.11654520E+04</rscale>
<asrwt>0</asrwt>
<pdfrwt beam="1">  1        1 0.71603626E-01 0.11654520E+04</pdfrwt>
<pdfrwt beam="2">  1       -1 0.11224502E+00 0.11654520E+04</pdfrwt>
<totfact> 0.35313194E+01</totfact>
</mgrwt>
</event>
<event>
12    1  0.1504874E-007  0.1426991E+04  0.7818608E-02  0.8934509E-01
         -2   -1    0    0    0  501 -0.00000000000E+00  0.00000000000E+00  0.15840379868E+04  0.15840379868E+04  0.00000000000E+00 0.  1.
          2   -1    0    0  501    0  0.00000000000E+00 -0.00000000000E+00 -0.32137860528E+03  0.32137860528E+03  0.00000000000E+00 0. -1.
         23    2    1    2    0    0 -0.54792108405E+02 -0.38806047317E+03  0.60808549911E+03  0.72931666400E+03  0.92421405438E+02 0.  0.
        254    2    1    2    0    0  0.54792108405E+02  0.38806047317E+03  0.65457388239E+03  0.11760999281E+04  0.89507037002E+03 0.  0.
        -24    2    4    4    0    0  0.20637919899E+03 -0.13943849644E+03  0.55361016615E+03  0.61240332662E+03  0.80735062549E+02 0.  0.
         24    2    4    4    0    0 -0.15158709058E+03  0.52749896961E+03  0.10096371625E+03  0.56369660144E+03  0.79538528466E+02 0.  0.
         13    1    3    3    0    0 -0.79512919095E+02 -0.24872643859E+03  0.39064016025E+03  0.46987964455E+03  0.00000000000E+00 0. -1.
        -13    1    3    3    0    0  0.24720810690E+02 -0.13933403458E+03  0.21744533886E+03  0.25943701945E+03  0.00000000000E+00 0.  1.
          4    1    6    6  502    0 -0.15205789390E+03  0.51478435889E+03  0.11020834532E+03  0.54796935921E+03  0.00000000000E+00 0. -1.
          1    1    5    5  503    0  0.19833305362E+03 -0.10859510290E+03  0.44413785568E+03  0.49838472226E+03  0.00000000000E+00 0. -1.
         -2    1    5    5    0  503  0.80461453621E+01 -0.30843393544E+02  0.10947231047E+03  0.11401860436E+03  0.00000000000E+00 0.  1.
         -3    1    6    6    0  502  0.47080331730E+00  0.12714610717E+02 -0.92446290754E+01  0.15727242231E+02  0.00000000000E+00 0.  1.
<mgrwt>
<rscale>  0 0.14269911E+04</rscale>
<asrwt>0</asrwt>
<pdfrwt beam="1">  1        2 0.49442863E-01 0.14269911E+04</pdfrwt>
<pdfrwt beam="2">  1       -2 0.24369815E+00 0.14269911E+04</pdfrwt>
<totfact> 0.69446595E+00</totfact>
</mgrwt>
</event>
<event>
12    1  0.1595696E-007  0.2030599E+04  0.7818608E-02  0.8592447E-01
         -1   -1    0    0    0  501 -0.00000000000E+00  0.00000000000E+00  0.53050503409E+03  0.53050503409E+03  0.00000000000E+00 0.  1.
          1   -1    0    0  501    0  0.00000000000E+00 -0.00000000000E+00 -0.19431172691E+04  0.19431172691E+04  0.00000000000E+00 0. -1.
         23    2    1    2    0    0  0.73451678879E+03  0.36143713035E+03 -0.52360290275E+03  0.97658201844E+03  0.96957345047E+02 0.  0.
        254    2    1    2    0    0 -0.73451678879E+03 -0.36143713035E+03 -0.88900933230E+03  0.14970402848E+04  0.88353851594E+03 0.  0.
        -24    2    4    4    0    0 -0.45905352126E+02 -0.23120819749E+03  0.11193559482E+03  0.27254199702E+03  0.78644966835E+02 0.  0.
         24    2    4    4    0    0 -0.68861143667E+03 -0.13022893286E+03 -0.10009449271E+04  0.12244982878E+04  0.79749758409E+02 0.  0.
         11    1    3    3    0    0  0.22672549048E+01  0.39605261810E+01  0.38069832476E+01  0.59430071413E+01  0.00000000000E+00 0. -1.
        -11    1    3    3    0    0  0.73224953389E+03  0.35747660417E+03 -0.52740988600E+03  0.97063901130E+03  0.00000000000E+00 0.  1.
          2    1    6    6  502    0 -0.48700252950E+03 -0.11132143058E+03 -0.65676002649E+03  0.82516523014E+03  0.00000000000E+00 0. -1.
          1    1    5    5  503    0 -0.30682890352E+02 -0.21591858567E+03  0.12069302905E+03  0.24925706140E+03  0.00000000000E+00 0. -1.
         -2    1    5    5    0  503 -0.15222461774E+02 -0.15289611823E+02 -0.87574342320E+01  0.23284935612E+02  0.00000000000E+00 0.  1.
         -1    1    6    6    0  502 -0.20160890717E+03 -0.18907502283E+02 -0.34418490063E+03  0.39933305763E+03  0.00000000000E+00 0.  1.
<mgrwt>
<rscale>  0 0.20305994E+04</rscale>
<asrwt>0</asrwt>
<pdfrwt beam="1">  1        1 0.29894112E+00 0.20305994E+04</pdfrwt>
<pdfrwt beam="2">  1       -1 0.81616160E-01 0.20305994E+04</pdfrwt>
<totfact> 0.45033393E+00</totfact>
</mgrwt>
</event>
<event>
12    1  0.1504874E-007  0.1397863E+04  0.7818608E-02  0.8955367E-01
          1   -1    0    0  501    0  0.00000000000E+00  0.00000000000E+00  0.10468434999E+04  0.10468434999E+04  0.00000000000E+00 0. -1.
         -1   -1    0    0    0  501 -0.00000000000E+00 -0.00000000000E+00 -0.46664562657E+03  0.46664562657E+03  0.00000000000E+00 0.  1.
         23    2    1    2    0    0 -0.38877108374E+03 -0.55773482202E+02  0.93642706345E+02  0.41492673849E+03  0.95611740862E+02 0.  0.
        254    2    1    2    0    0  0.38877108374E+03  0.55773482202E+02  0.48655516694E+03  0.10985623879E+04  0.90324401623E+03 0.  0.
        -24    2    4    4    0    0  0.18700217695E+03  0.47181546093E+03  0.28478117127E+03  0.58776237933E+03  0.82369021458E+02 0.  0.
         24    2    4    4    0    0  0.20176890679E+03 -0.41604197872E+03  0.20177399567E+03  0.51080000861E+03  0.80014271595E+02 0.  0.
         13    1    3    3    0    0 -0.10011664433E+03 -0.18957181352E+02 -0.17582891288E+02  0.10340152447E+03  0.00000000000E+00 0.  1.
        -13    1    3    3    0    0 -0.28865443941E+03 -0.36816300850E+02  0.11122559763E+03  0.31152521402E+03  0.00000000000E+00 0. -1.
          2    1    6    6  502    0  0.15292326303E+03 -0.35569581051E+03  0.14044425669E+03  0.41186116984E+03  0.00000000000E+00 0. -1.
          3    1    5    5  503    0  0.19471458901E+03  0.46213930253E+03  0.27463844429E+03  0.57176287148E+03  0.00000000000E+00 0. -1.
         -4    1    5    5    0  503 -0.77124120602E+01  0.96761583981E+01  0.10142726977E+02  0.15999507857E+02  0.00000000000E+00 0.  1.
         -1    1    6    6    0  502  0.48845643761E+02 -0.60346168217E+02  0.61329738981E+02  0.98938838766E+02  0.00000000000E+00 0.  1.
<mgrwt>
<rscale>  0 0.13978626E+04</rscale>
<asrwt>0</asrwt>
<pdfrwt beam="1">  1        1 0.16105285E+00 0.13978626E+04</pdfrwt>
<pdfrwt beam="2">  1       -1 0.71791635E-01 0.13978626E+04</pdfrwt>
<totfact> 0.26582713E+01</totfact>
</mgrwt>
</event>
<event>
12    1  0.1504874E-007  0.1708268E+04  0.7818608E-02  0.8756663E-01
         -2   -1    0    0    0  501 -0.00000000000E+00  0.00000000000E+00  0.45478807905E+03  0.45478807905E+03  0.00000000000E+00 0.  1.
          2   -1    0    0  501    0  0.00000000000E+00 -0.00000000000E+00 -0.16041422449E+04  0.16041422449E+04  0.00000000000E+00 0. -1.
         23    2    1    2    0    0  0.39837769660E+03 -0.47519387650E+03 -0.50880245586E+03  0.80732311525E+03  0.91524116564E+02 0.  0.
        254    2    1    2    0    0 -0.39837769660E+03  0.47519387650E+03 -0.64055170997E+03  0.12516072087E+04  0.87846462780E+03 0.  0.
        -24    2    4    4    0    0  0.88942383943E+01  0.31522292108E+03 -0.72804168949E+03  0.79794115374E+03  0.84975206622E+02 0.  0.
         24    2    4    4    0    0 -0.40727193499E+03  0.15997095543E+03  0.87489979520E+02  0.45366605496E+03  0.81836772227E+02 0.  0.
         11    1    3    3    0    0  0.94708228129E+02 -0.12656366832E+03 -0.18245032387E+03  0.24140449725E+03  0.00000000000E+00 0. -1.
        -11    1    3    3    0    0  0.30366946847E+03 -0.34863020819E+03 -0.32635213199E+03  0.56591861800E+03  0.00000000000E+00 0.  1.
          2    1    6    6  502    0 -0.76641421330E+02  0.56995013308E+02  0.42211675312E+02  0.10442300770E+03  0.00000000000E+00 0. -1.
          1    1    5    5  503    0 -0.14724308530E+02  0.15563619277E+03 -0.45130876373E+03  0.47761807963E+03  0.00000000000E+00 0. -1.
         -2    1    5    5    0  503  0.23618546924E+02  0.15958672830E+03 -0.27673292576E+03  0.32032307411E+03  0.00000000000E+00 0.  1.
         -1    1    6    6    0  502 -0.33063051366E+03  0.10297594212E+03  0.45278304208E+02  0.34924304725E+03  0.00000000000E+00 0.  1.
<mgrwt>
<rscale>  0 0.17082679E+04</rscale>
<asrwt>0</asrwt>
<pdfrwt beam="1">  1        2 0.24679112E+00 0.17082679E+04</pdfrwt>
<pdfrwt beam="2">  1       -2 0.69967396E-01 0.17082679E+04</pdfrwt>
<totfact> 0.19626545E+01</totfact>
</mgrwt>
</event>
<event>
12    1  0.1504874E-007  0.2203834E+04  0.7818608E-02  0.8516834E-01
         -2   -1    0    0    0  501 -0.00000000000E+00  0.00000000000E+00  0.31193680334E+03  0.31193680334E+03  0.00000000000E+00 0.  1.
          2   -1    0    0  501    0  0.00000000000E+00 -0.00000000000E+00 -0.38925231436E+04  0.38925231436E+04  0.00000000000E+00 0. -1.
         23    2    1    2    0    0  0.87161972088E+03 -0.64589436428E+02 -0.20256494548E+04  0.22079771102E+04  0.89523584671E+02 0.  0.
        254    2    1    2    0    0 -0.87161972088E+03  0.64589436428E+02 -0.15549368855E+04  0.19964828368E+04  0.89678440363E+03 0.  0.
        -24    2    4    4    0    0 -0.10478882034E+04  0.57772654296E+02 -0.13843446873E+04  0.17390521125E+04  0.80527451037E+02 0.  0.
         24    2    4    4    0    0  0.17626848251E+03  0.68167821314E+01 -0.17059219823E+03  0.25743072431E+03  0.77793529787E+02 0.  0.
         11    1    3    3    0    0  0.67607213838E+03 -0.83117738679E+02 -0.16148422057E+04  0.17526258711E+04  0.00000000000E+00 0. -1.
        -11    1    3    3    0    0  0.19554758250E+03  0.18528302251E+02 -0.41080724906E+03  0.45535123903E+03  0.00000000000E+00 0.  1.
          4    1    6    6  502    0  0.26735558305E+01 -0.18536144918E+01  0.77468504989E+01  0.84022306631E+01  0.00000000000E+00 0. -1.
          3    1    5    5  503    0 -0.16367127708E+03  0.37690093262E+02 -0.23234611437E+03  0.28669416969E+03  0.00000000000E+00 0. -1.
         -4    1    5    5    0  503 -0.88421692632E+03  0.20082561034E+02 -0.11519985729E+04  0.14523579428E+04  0.00000000000E+00 0.  1.
         -3    1    6    6    0  502  0.17359492668E+03  0.86703966231E+01 -0.17833904872E+03  0.24902849364E+03  0.00000000000E+00 0.  1.
<mgrwt>
<rscale>  0 0.22038341E+04</rscale>
<asrwt>0</asrwt>
<pdfrwt beam="1">  1        2 0.59884970E+00 0.22038341E+04</pdfrwt>
<pdfrwt beam="2">  1       -2 0.47990279E-01 0.22038341E+04</pdfrwt>
<totfact> 0.15759690E+00</totfact>
</mgrwt>
</event>
<event>
12    1  0.1504874E-007  0.1552995E+04  0.7818608E-02  0.8849957E-01
         -1   -1    0    0    0  501 -0.00000000000E+00  0.00000000000E+00  0.37381761074E+03  0.37381761074E+03  0.00000000000E+00 0.  1.
          1   -1    0    0  501    0  0.00000000000E+00 -0.00000000000E+00 -0.16129476115E+04  0.16129476115E+04  0.00000000000E+00 0. -1.
         23    2    1    2    0    0 -0.25243630231E+02 -0.31887753615E+03 -0.92049294494E+03  0.97867731176E+03  0.90453827663E+02 0.  0.
        254    2    1    2    0    0  0.25243630231E+02  0.31887753615E+03 -0.31863705580E+03  0.10080879105E+04  0.90132765295E+03 0.  0.
        -24    2    4    4    0    0 -0.17541769876E+03  0.56854894929E+03 -0.31342398820E+03  0.67801731756E+03  0.86334290709E+02 0.  0.
         24    2    4    4    0    0  0.20066132900E+03 -0.24967141314E+03 -0.52130676027E+01  0.33007059291E+03  0.79489853012E+02 0.  0.
         13    1    3    3    0    0 -0.28846196445E+02 -0.90188243357E+02 -0.17614797253E+03  0.19998532575E+03  0.00000000000E+00 0.  1.
        -13    1    3    3    0    0  0.36025662144E+01 -0.22868929279E+03 -0.74434497241E+03  0.77869198601E+03  0.00000000000E+00 0. -1.
          2    1    6    6  502    0  0.95748028634E+02 -0.76872026190E+02 -0.30005714610E+02  0.12640148855E+03  0.00000000000E+00 0. -1.
          3    1    5    5  503    0 -0.11195951400E+03  0.22088915828E+03 -0.12099846807E+03  0.27562217309E+03  0.00000000000E+00 0. -1.
         -4    1    5    5    0  503 -0.63458184763E+02  0.34765979101E+03 -0.19242552013E+03  0.40239514447E+03  0.00000000000E+00 0.  1.
         -1    1    6    6    0  502  0.10491330036E+03 -0.17279938695E+03  0.24792647007E+02  0.20366910436E+03  0.00000000000E+00 0.  1.
<mgrwt>
<rscale>  0 0.15529948E+04</rscale>
<asrwt>0</asrwt>
<pdfrwt beam="1">  1        1 0.24814579E+00 0.15529948E+04</pdfrwt>
<pdfrwt beam="2">  1       -1 0.57510401E-01 0.15529948E+04</pdfrwt>
<totfact> 0.16124720E+01</totfact>
</mgrwt>
</event>
<event>
12    1  0.1504874E-007  0.1342057E+04  0.7818608E-02  0.8996863E-01
         -2   -1    0    0    0  501 -0.00000000000E+00  0.00000000000E+00  0.37940668561E+03  0.37940668561E+03  0.00000000000E+00 0.  1.
          2   -1    0    0  501    0  0.00000000000E+00 -0.00000000000E+00 -0.11867975243E+04  0.11867975243E+04  0.00000000000E+00 0. -1.
         23    2    1    2    0    0  0.16979945808E+03 -0.10812259211E+03 -0.62092574835E+03  0.65703449739E+03  0.74987965072E+02 0.  0.
        254    2    1    2    0    0 -0.16979945808E+03  0.10812259211E+03 -0.18646509034E+03  0.90916971252E+03  0.86677447203E+03 0.  0.
        -24    2    4    4    0    0 -0.18324403786E+03 -0.36089182245E+03 -0.62976081820E+02  0.41734358820E+03  0.79927459656E+02 0.  0.
         24    2    4    4    0    0  0.13444579778E+02  0.46901441456E+03 -0.12348900852E+03  0.49182612432E+03  0.80548889148E+02 0.  0.
         11    1    3    3    0    0  0.12086506772E+02 -0.35666181540E+02 -0.70980548842E+02  0.80351717253E+02  0.00000000000E+00 0.  1.
        -11    1    3    3    0    0  0.15771295131E+03 -0.72456410568E+02 -0.54994519951E+03  0.57668278013E+03  0.00000000000E+00 0. -1.
          4    1    6    6  502    0  0.20690131298E+02  0.34662678795E+03 -0.12544628396E+03  0.36920858849E+03  0.00000000000E+00 0. -1.
          3    1    5    5  503    0 -0.18618716191E+03 -0.35657851702E+03 -0.70290996032E+02  0.40835612176E+03  0.00000000000E+00 0. -1.
         -4    1    5    5    0  503  0.29431240584E+01 -0.43133054376E+01  0.73149142117E+01  0.89874664364E+01  0.00000000000E+00 0.  1.
         -3    1    6    6    0  502 -0.72455515203E+01  0.12238762661E+03  0.19572754377E+01  0.12261753583E+03  0.00000000000E+00 0.  1.
<mgrwt>
<rscale>  0 0.13420565E+04</rscale>
<asrwt>0</asrwt>
<pdfrwt beam="1">  1        2 0.18258423E+00 0.13420565E+04</pdfrwt>
<pdfrwt beam="2">  1       -2 0.58370260E-01 0.13420565E+04</pdfrwt>
<totfact> 0.51746234E+01</totfact>
</mgrwt>
</event>
<event>
12    1  0.1504874E-007  0.2741665E+04  0.7818608E-02  0.8321611E-01
          2   -1    0    0  501    0  0.00000000000E+00  0.00000000000E+00  0.39677690443E+04  0.39677690443E+04  0.00000000000E+00 0. -1.
         -2   -1    0    0    0  501 -0.00000000000E+00 -0.00000000000E+00 -0.47361182900E+03  0.47361182900E+03  0.00000000000E+00 0.  1.
         23    2    1    2    0    0  0.93669487727E+03  0.77823740852E+03  0.16905095718E+04  0.20857124822E+04  0.96556661888E+02 0.  0.
        254    2    1    2    0    0 -0.93669487727E+03 -0.77823740852E+03  0.18036476435E+04  0.23556683911E+04  0.90165292090E+03 0.  0.
        -24    2    4    4    0    0 -0.17531220120E+02 -0.41403208048E+03  0.19262122520E+03  0.46373066779E+03  0.78824415690E+02 0.  0.
         24    2    4    4    0    0 -0.91916365715E+03 -0.36420532804E+03  0.16110264183E+04  0.18919377233E+04  0.80714799097E+02 0.  0.
         11    1    3    3    0    0  0.51984776142E+02  0.18166295295E+02  0.84083869409E+02  0.10051133434E+03  0.00000000000E+00 0. -1.
        -11    1    3    3    0    0  0.88471010112E+03  0.76007111323E+03  0.16064257024E+04  0.19852011479E+04  0.00000000000E+00 0.  1.
          4    1    6    6  502    0 -0.99743475419E+02 -0.18124200990E+02  0.13924418625E+03  0.17223876148E+03  0.00000000000E+00 0. -1.
          3    1    5    5  503    0 -0.35452608819E+02 -0.33051777595E+03  0.17800423054E+03  0.37707345940E+03  0.00000000000E+00 0. -1.
         -4    1    5    5    0  503  0.17921388699E+02 -0.83514304526E+02  0.14616994655E+02  0.86657208391E+02  0.00000000000E+00 0.  1.
         -3    1    6    6    0  502 -0.81942018173E+03 -0.34608112705E+03  0.14717822321E+04  0.17196989618E+04  0.00000000000E+00 0.  1.
<mgrwt>
<rscale>  0 0.27416654E+04</rscale>
<asrwt>0</asrwt>
<pdfrwt beam="1">  1        2 0.61042598E+00 0.27416654E+04</pdfrwt>
<pdfrwt beam="2">  1       -2 0.72863361E-01 0.27416654E+04</pdfrwt>
<totfact> 0.54114309E-01</totfact>
</mgrwt>
</event>
<event>
12    1  0.1504874E-007  0.1218788E+04  0.7818608E-02  0.9096568E-01
          1   -1    0    0  501    0  0.00000000000E+00  0.00000000000E+00  0.22062341284E+04  0.22062341284E+04  0.00000000000E+00 0.  1.
         -1   -1    0    0    0  501 -0.00000000000E+00 -0.00000000000E+00 -0.16832360138E+03  0.16832360138E+03  0.00000000000E+00 0. -1.
         23    2    1    2    0    0  0.18841574679E+03  0.21940418610E+03  0.21731189217E+03  0.37298208617E+03  0.90843203432E+02 0.  0.
        254    2    1    2    0    0 -0.18841574679E+03 -0.21940418610E+03  0.18205986349E+04  0.20015756436E+04  0.77979931867E+03 0.  0.
        -24    2    4    4    0    0 -0.14480401836E+03 -0.48410888819E+03  0.14465223855E+04  0.15343397498E+04  0.80261054003E+02 0.  0.
         24    2    4    4    0    0 -0.43611728426E+02  0.26470470210E+03  0.37407624940E+03  0.46723589384E+03  0.80036104082E+02 0.  0.
         13    1    3    3    0    0  0.14078870603E+03  0.21089018421E+03  0.19404938953E+03  0.31929812890E+03  0.00000000000E+00 0. -1.
        -13    1    3    3    0    0  0.47627040753E+02  0.85140018904E+01  0.23262502645E+02  0.53683957272E+02  0.00000000000E+00 0.  1.
          2    1    6    6  502    0 -0.39004825754E+02  0.42492667842E+02  0.74960434376E+02  0.94583666530E+02  0.00000000000E+00 0. -1.
          3    1    5    5  503    0 -0.51451881642E+02 -0.14867338623E+03  0.34685438296E+03  0.38086616400E+03  0.00000000000E+00 0. -1.
         -4    1    5    5    0  503 -0.93352136717E+02 -0.33543550197E+03  0.10996680025E+04  0.11534735858E+04  0.00000000000E+00 0.  1.
         -1    1    6    6    0  502 -0.46069026724E+01  0.22221203425E+03  0.29911581503E+03  0.37265222731E+03  0.00000000000E+00 0.  1.
<mgrwt>
<rscale>  0 0.12187884E+04</rscale>
<asrwt>0</asrwt>
<pdfrwt beam="1">  1        1 0.33942061E+00 0.12187884E+04</pdfrwt>
<pdfrwt beam="2">  1       -1 0.25895940E-01 0.12187884E+04</pdfrwt>
<totfact> 0.28201136E+01</totfact>
</mgrwt>
</event>
<event>
12    1  0.1504874E-007  0.1761696E+04  0.7818608E-02  0.8726939E-01
         -2   -1    0    0    0  501 -0.00000000000E+00  0.00000000000E+00  0.12719679038E+04  0.12719679038E+04  0.00000000000E+00 0. -1.
          2   -1    0    0  501    0  0.00000000000E+00 -0.00000000000E+00 -0.60999428629E+03  0.60999428629E+03  0.00000000000E+00 0.  1.
         23    2    1    2    0    0  0.17499373022E+03 -0.61696258658E+03  0.17796179180E+03  0.67173630859E+03  0.91069369620E+02 0.  0.
        254    2    1    2    0    0 -0.17499373022E+03  0.61696258658E+03  0.48401182569E+03  0.12102258815E+04  0.90504894779E+03 0.  0.
        -24    2    4    4    0    0 -0.39862529994E+03 -0.18256879167E+02  0.62588718696E+02  0.41175048839E+03  0.79910409825E+02 0.  0.
         24    2    4    4    0    0  0.22363156971E+03  0.63521946575E+03  0.42142310699E+03  0.79847539307E+03  0.80316060585E+02 0.  0.
         13    1    3    3    0    0  0.17355315197E+03 -0.48728385079E+03  0.15535520281E+03  0.54009396112E+03  0.00000000000E+00 0.  1.
        -13    1    3    3    0    0  0.14405782549E+01 -0.12967873579E+03  0.22606588987E+02  0.13164234747E+03  0.00000000000E+00 0. -1.
          2    1    6    6  502    0  0.19674475841E+03  0.50202146838E+03  0.30465976669E+03  0.61931545122E+03  0.00000000000E+00 0. -1.
          3    1    5    5  503    0 -0.25338736916E+03 -0.35267480220E+01  0.77525626216E+02  0.26500531980E+03  0.00000000000E+00 0. -1.
         -4    1    5    5    0  503 -0.14523793078E+03 -0.14730131145E+02 -0.14936907520E+02  0.14674516860E+03  0.00000000000E+00 0.  1.
         -1    1    6    6    0  502  0.26886811299E+02  0.13319799737E+03  0.11676334030E+03  0.17915994185E+03  0.00000000000E+00 0.  1.
<mgrwt>
<rscale>  0 0.17616959E+04</rscale>
<asrwt>0</asrwt>
<pdfrwt beam="1">  1        2 0.93845275E-01 0.17616959E+04</pdfrwt>
<pdfrwt beam="2">  1       -2 0.19568737E+00 0.17616959E+04</pdfrwt>
<totfact> 0.65316495E+00</totfact>
</mgrwt>
</event>
<event>
12    1  0.1504874E-007  0.1113252E+04  0.7818608E-02  0.9192371E-01
          1   -1    0    0  501    0  0.00000000000E+00  0.00000000000E+00  0.10665229211E+04  0.10665229211E+04  0.00000000000E+00 0. -1.
         -1   -1    0    0    0  501 -0.00000000000E+00 -0.00000000000E+00 -0.29050708496E+03  0.29050708496E+03  0.00000000000E+00 0.  1.
         23    2    1    2    0    0  0.34399845530E+02 -0.10959378868E+03  0.28466006994E+03  0.32147178720E+03  0.95491395712E+02 0.  0.
        254    2    1    2    0    0 -0.34399845530E+02  0.10959378868E+03  0.49135576622E+03  0.10355582189E+04  0.90429872710E+03 0.  0.
        -24    2    4    4    0    0  0.41855873421E+02  0.36813838362E+03 -0.90161086385E+02  0.38966965347E+03  0.80222401499E+02 0.  0.
         24    2    4    4    0    0 -0.76255718952E+02 -0.25854459495E+03  0.58151685261E+03  0.64588856542E+03  0.79686553621E+02 0.  0.
         11    1    3    3    0    0  0.14713292742E+02 -0.79541215078E+02  0.27136406609E+03  0.28316380814E+03  0.00000000000E+00 0. -1.
        -11    1    3    3    0    0  0.19686552788E+02 -0.30052573599E+02  0.13296003856E+02  0.38307979053E+02  0.00000000000E+00 0.  1.
          2    1    6    6  502    0 -0.44213625027E+02 -0.23267010963E+03  0.52510000201E+03  0.57603839860E+03  0.00000000000E+00 0. -1.
          1    1    5    5  503    0  0.13818958205E+02  0.18512209046E+03 -0.85700660982E+02  0.20446455750E+03  0.00000000000E+00 0. -1.
         -2    1    5    5    0  503  0.28036915217E+02  0.18301629317E+03 -0.44604254034E+01  0.18520509597E+03  0.00000000000E+00 0.  1.
         -1    1    6    6    0  502 -0.32042093924E+02 -0.25874485313E+02  0.56416850597E+02  0.69850166819E+02  0.00000000000E+00 0.  1.
<mgrwt>
<rscale>  0 0.11132519E+04</rscale>
<asrwt>0</asrwt>
<pdfrwt beam="1">  1        1 0.16408045E+00 0.11132519E+04</pdfrwt>
<pdfrwt beam="2">  1       -1 0.44693398E-01 0.11132519E+04</pdfrwt>
<totfact> 0.66349401E+01</totfact>
</mgrwt>
</event>
<event>
12    1  0.1504874E-007  0.1201954E+04  0.7818608E-02  0.9111148E-01
         -2   -1    0    0    0  501 -0.00000000000E+00  0.00000000000E+00  0.60566187758E+03  0.60566187758E+03  0.00000000000E+00 0.  1.
          2   -1    0    0  501    0  0.00000000000E+00 -0.00000000000E+00 -0.59632838906E+03  0.59632838906E+03  0.00000000000E+00 0. -1.
         23    2    1    2    0    0 -0.11596329678E+03 -0.20278492389E+03 -0.71605530917E+02  0.26033143484E+03  0.89865968804E+02 0.  0.
        254    2    1    2    0    0  0.11596329678E+03  0.20278492389E+03  0.80939019441E+02  0.94165883181E+03  0.90862589612E+03 0.  0.
        -24    2    4    4    0    0 -0.36070225570E+03 -0.27811825069E+02 -0.87003939548E+02  0.38045369261E+03  0.79345521850E+02 0.  0.
         24    2    4    4    0    0  0.47666555248E+03  0.23059674896E+03  0.16794295899E+03  0.56120513920E+03  0.79758769028E+02 0.  0.
         13    1    3    3    0    0 -0.12293271500E+03 -0.15348316260E+03 -0.74908488780E+02  0.21043007226E+03  0.00000000000E+00 0. -1.
        -13    1    3    3    0    0  0.69694182194E+01 -0.49301761290E+02  0.33029578628E+01  0.49901362579E+02  0.00000000000E+00 0.  1.
          4    1    6    6  502    0  0.19226814100E+03  0.50273430404E+02  0.60833422810E+02  0.20783445618E+03  0.00000000000E+00 0. -1.
          1    1    5    5  503    0 -0.29634344843E+02  0.17648888645E+02  0.22503330553E+01  0.34565035274E+02  0.00000000000E+00 0. -1.
         -2    1    5    5    0  503 -0.33106791086E+03 -0.45460713714E+02 -0.89254272603E+02  0.34588865733E+03  0.00000000000E+00 0.  1.
         -3    1    6    6    0  502  0.28439741149E+03  0.18032331855E+03  0.10710953618E+03  0.35337068302E+03  0.00000000000E+00 0.  1.
<mgrwt>
<rscale>  0 0.12019540E+04</rscale>
<asrwt>0</asrwt>
<pdfrwt beam="1">  1        2 0.91742829E-01 0.12019540E+04</pdfrwt>
<pdfrwt beam="2">  1       -2 0.93178750E-01 0.12019540E+04</pdfrwt>
<totfact> 0.48087499E+01</totfact>
</mgrwt>
</event>
<event>
12    1  0.1504874E-007  0.1751073E+04  0.7818608E-02  0.8732760E-01
         -2   -1    0    0    0  501 -0.00000000000E+00  0.00000000000E+00  0.29942602941E+03  0.29942602941E+03  0.00000000000E+00 0.  1.
          2   -1    0    0  501    0  0.00000000000E+00 -0.00000000000E+00 -0.25601109718E+04  0.25601109718E+04  0.00000000000E+00 0. -1.
         23    2    1    2    0    0 -0.16385859362E+03  0.61463985029E+03 -0.90769556788E+03  0.11117811398E+04  0.86684916119E+02 0.  0.
        254    2    1    2    0    0  0.16385859362E+03 -0.61463985029E+03 -0.13529893745E+04  0.17477558613E+04  0.90522843476E+03 0.  0.
        -24    2    4    4    0    0  0.11903573365E+03  0.10937740467E+03  0.31327168173E+02  0.18282378324E+03  0.79436903983E+02 0.  0.
         24    2    4    4    0    0  0.44822859972E+02 -0.72401725497E+03 -0.13843165426E+04  0.15649320781E+04  0.80436586871E+02 0.  0.
         13    1    3    3    0    0 -0.26791204198E+02  0.17445908693E+03 -0.19550367753E+03  0.26339215927E+03  0.00000000000E+00 0.  1.
        -13    1    3    3    0    0 -0.13706738942E+03  0.44018076336E+03 -0.71219189035E+03  0.84838898057E+03  0.00000000000E+00 0. -1.
          4    1    6    6  502    0 -0.10628653206E+02 -0.43476705694E+03 -0.85171399671E+03  0.95632217074E+03  0.00000000000E+00 0. -1.
          1    1    5    5  503    0  0.69606901551E+02  0.17240636499E+02 -0.56190563818E+01  0.71930063847E+02  0.00000000000E+00 0. -1.
         -2    1    5    5    0  503  0.49428832098E+02  0.92136768175E+02  0.36946224555E+02  0.11089371939E+03  0.00000000000E+00 0.  1.
         -3    1    6    6    0  502  0.55451513179E+02 -0.28925019802E+03 -0.53260254594E+03  0.60860990734E+03  0.00000000000E+00 0.  1.
<mgrwt>
<rscale>  0 0.17510727E+04</rscale>
<asrwt>0</asrwt>
<pdfrwt beam="1">  1        2 0.39386323E+00 0.17510727E+04</pdfrwt>
<pdfrwt beam="2">  1       -2 0.46065542E-01 0.17510727E+04</pdfrwt>
<totfact> 0.13622751E+01</totfact>
</mgrwt>
</event>
<event>
12    1  0.1504874E-007  0.2636952E+04  0.7818608E-02  0.8355757E-01
          2   -1    0    0  501    0  0.00000000000E+00  0.00000000000E+00  0.38473605809E+04  0.38473605809E+04  0.00000000000E+00 0. -1.
         -2   -1    0    0    0  501 -0.00000000000E+00 -0.00000000000E+00 -0.45183683715E+03  0.45183683715E+03  0.00000000000E+00 0.  1.
         23    2    1    2    0    0  0.37823579536E+03 -0.98084717879E+03  0.22967658823E+04  0.25275907466E+04  0.91967162771E+02 0.  0.
        254    2    1    2    0    0 -0.37823579536E+03  0.98084717879E+03  0.10987578614E+04  0.17716066715E+04  0.90895426470E+03 0.  0.
        -24    2    4    4    0    0 -0.53483788460E+03  0.10651364169E+04  0.95621791982E+03  0.15301507022E+04  0.80257784027E+02 0.  0.
         24    2    4    4    0    0  0.15660208924E+03 -0.84289238150E+02  0.14253994162E+03  0.24145596923E+03  0.79714867496E+02 0.  0.
         11    1    3    3    0    0  0.10348889860E+03 -0.23453971747E+03  0.65401203613E+03  0.70246037226E+03  0.00000000000E+00 0. -1.
        -11    1    3    3    0    0  0.27474689677E+03 -0.74630746132E+03  0.16427538462E+04  0.18251303743E+04  0.00000000000E+00 0.  1.
          4    1    6    6  502    0  0.13913805194E+03 -0.96283281807E+02  0.14093317525E+03  0.22020905463E+03  0.00000000000E+00 0. -1.
          3    1    5    5  503    0 -0.26352826319E+03  0.52760270005E+03  0.52454466813E+03  0.78927743124E+03  0.00000000000E+00 0. -1.
         -4    1    5    5    0  503 -0.27130962141E+03  0.53753371689E+03  0.43167325168E+03  0.74087327100E+03  0.00000000000E+00 0.  1.
         -3    1    6    6    0  502  0.17464037298E+02  0.11994043657E+02  0.16067663623E+01  0.21246914603E+02  0.00000000000E+00 0.  1.
<mgrwt>
<rscale>  0 0.26369522E+04</rscale>
<asrwt>0</asrwt>
<pdfrwt beam="1">  1        2 0.59190161E+00 0.26369522E+04</pdfrwt>
<pdfrwt beam="2">  1       -2 0.69513362E-01 0.26369522E+04</pdfrwt>
<totfact> 0.75303673E-01</totfact>
</mgrwt>
</event>
<event>
12    1  0.1504874E-007  0.1710409E+04  0.7818608E-02  0.8755450E-01
         -1   -1    0    0    0  501 -0.00000000000E+00  0.00000000000E+00  0.61516176637E+03  0.61516176637E+03  0.00000000000E+00 0.  1.
          1   -1    0    0  501    0  0.00000000000E+00 -0.00000000000E+00 -0.11889139246E+04  0.11889139246E+04  0.00000000000E+00 0. -1.
         23    2    1    2    0    0 -0.31328656844E+03 -0.25698088309E+03  0.28042486905E+03  0.50134040955E+03  0.92284618581E+02 0.  0.
        254    2    1    2    0    0  0.31328656844E+03  0.25698088309E+03 -0.85417702729E+03  0.13027352814E+04  0.89627739640E+03 0.  0.
        -24    2    4    4    0    0  0.20705590285E+03 -0.20172465835E+03 -0.75822042479E+03  0.81539195255E+03  0.80005243768E+02 0.  0.
         24    2    4    4    0    0  0.10623066559E+03  0.45870554143E+03 -0.95956602503E+02  0.48734332888E+03  0.81241138489E+02 0.  0.
         11    1    3    3    0    0 -0.19418345826E+02 -0.43923708283E+02  0.10918436022E+02  0.49250142630E+02  0.00000000000E+00 0. -1.
        -11    1    3    3    0    0 -0.29386822261E+03 -0.21305717480E+03  0.26950643303E+03  0.45209026692E+03  0.00000000000E+00 0.  1.
          2    1    6    6  502    0  0.13130197329E+02  0.73736165027E+02  0.14227560721E+02  0.76235474674E+02  0.00000000000E+00 0. -1.
          1    1    5    5  503    0  0.17324610603E+02 -0.49564301593E+02 -0.88814054417E+02  0.10317314761E+03  0.00000000000E+00 0. -1.
         -2    1    5    5    0  503  0.18973129224E+03 -0.15216035675E+03 -0.66940637037E+03  0.71221880495E+03  0.00000000000E+00 0.  1.
         -1    1    6    6    0  502  0.93100468264E+02  0.38496937641E+03 -0.11018416322E+03  0.41110785420E+03  0.00000000000E+00 0.  1.
<mgrwt>
<rscale>  0 0.17104086E+04</rscale>
<asrwt>0</asrwt>
<pdfrwt beam="1">  1        1 0.18290984E+00 0.17104086E+04</pdfrwt>
<pdfrwt beam="2">  1       -1 0.94640271E-01 0.17104086E+04</pdfrwt>
<totfact> 0.11180436E+01</totfact>
</mgrwt>
</event>
<event>
12    1  0.1504874E-007  0.1424368E+04  0.7818608E-02  0.8936366E-01
          1   -1    0    0  501    0  0.00000000000E+00  0.00000000000E+00  0.18590402444E+04  0.18590402444E+04  0.00000000000E+00 0. -1.
         -1   -1    0    0    0  501 -0.00000000000E+00 -0.00000000000E+00 -0.27283216235E+03  0.27283216235E+03  0.00000000000E+00 0.  1.
         23    2    1    2    0    0 -0.25378754071E+03  0.32177574961E+03  0.32685452734E+03  0.53239071852E+03  0.93049697802E+02 0.  0.
        254    2    1    2    0    0  0.25378754071E+03 -0.32177574961E+03  0.12593535547E+04  0.15994816882E+04  0.89689606218E+03 0.  0.
        -24    2    4    4    0    0 -0.11645303173E+03  0.21213172244E+03  0.11243903022E+03  0.27856658305E+03  0.79972679135E+02 0.  0.
         24    2    4    4    0    0  0.37024057244E+03 -0.53390747206E+03  0.11469145245E+04  0.13209151052E+04  0.85255606278E+02 0.  0.
         11    1    3    3    0    0 -0.19565976957E+03  0.26403044010E+03  0.21115258220E+03  0.39061519645E+03  0.00000000000E+00 0.  1.
        -11    1    3    3    0    0 -0.58127771143E+02  0.57745309516E+02  0.11570194514E+03  0.14177552207E+03  0.00000000000E+00 0. -1.
          2    1    6    6  502    0  0.15234278194E+03 -0.20015773693E+03  0.52646328420E+03  0.58346810750E+03  0.00000000000E+00 0. -1.
          3    1    5    5  503    0 -0.83580147009E+02  0.16968759803E+03  0.12050465151E+03  0.22427860561E+03  0.00000000000E+00 0. -1.
         -4    1    5    5    0  503 -0.32872884724E+02  0.42444124416E+02 -0.80656212925E+01  0.54287977438E+02  0.00000000000E+00 0.  1.
         -1    1    6    6    0  502  0.21789779051E+03 -0.33374973512E+03  0.62045124027E+03  0.73744699766E+03  0.00000000000E+00 0.  1.
<mgrwt>
<rscale>  0 0.14243679E+04</rscale>
<asrwt>0</asrwt>
<pdfrwt beam="1">  1        1 0.28600618E+00 0.14243679E+04</pdfrwt>
<pdfrwt beam="2">  1       -1 0.41974180E-01 0.14243679E+04</pdfrwt>
<totfact> 0.20158758E+01</totfact>
</mgrwt>
</event>
<event>
12    1  0.1504874E-007  0.2993604E+04  0.7818608E-02  0.8245560E-01
          1   -1    0    0  501    0  0.00000000000E+00  0.00000000000E+00  0.16979460318E+04  0.16979460318E+04  0.00000000000E+00 0.  1.
         -1   -1    0    0    0  501 -0.00000000000E+00 -0.00000000000E+00 -0.13194864685E+04  0.13194864685E+04  0.00000000000E+00 0. -1.
         23    2    1    2    0    0 -0.11850106863E+04 -0.36279202840E+03  0.73862856670E+03  0.14457461910E+04  0.93496025246E+02 0.  0.
        254    2    1    2    0    0  0.11850106863E+04  0.36279202840E+03 -0.36016900336E+03  0.15716863093E+04  0.89699930957E+03 0.  0.
        -24    2    4    4    0    0  0.91943730604E+03  0.14606593620E+03 -0.63083458799E+03  0.11275638930E+04  0.82145224914E+02 0.  0.
         24    2    4    4    0    0  0.26557338021E+03  0.21672609221E+03  0.27066558464E+03  0.44412241626E+03  0.80532245679E+02 0.  0.
         13    1    3    3    0    0 -0.11794333663E+04 -0.36470602953E+03  0.74046521507E+03  0.14395701748E+04  0.00000000000E+00 0.  1.
        -13    1    3    3    0    0 -0.55773199821E+01  0.19140011245E+01 -0.18366483635E+01  0.61760161673E+01  0.00000000000E+00 0. -1.
          4    1    6    6  502    0 -0.35729398411E+01  0.89415188342E+01  0.18308425781E+02  0.20686109174E+02  0.00000000000E+00 0. -1.
          1    1    5    5  503    0  0.51553447601E+01 -0.53195523468E+01 -0.84346246873E+01  0.11225778832E+02  0.00000000000E+00 0. -1.
         -2    1    5    5    0  503  0.91428196128E+03  0.15138548854E+03 -0.62239996330E+03  0.11163381142E+04  0.00000000000E+00 0.  1.
         -3    1    6    6    0  502  0.26914632006E+03  0.20778457338E+03  0.25235715885E+03  0.42343630708E+03  0.00000000000E+00 0.  1.
<mgrwt>
<rscale>  0 0.29936044E+04</rscale>
<asrwt>0</asrwt>
<pdfrwt beam="1">  1        1 0.26122247E+00 0.29936044E+04</pdfrwt>
<pdfrwt beam="2">  1       -1 0.20299792E+00 0.29936044E+04</pdfrwt>
<totfact> 0.58436276E-01</totfact>
</mgrwt>
</event>
<event>
12    1  0.1504874E-007  0.1429332E+04  0.7818608E-02  0.8932856E-01
         -1   -1    0    0    0  501 -0.00000000000E+00  0.00000000000E+00  0.68762784094E+03  0.68762784094E+03  0.00000000000E+00 0.  1.
          1   -1    0    0  501    0  0.00000000000E+00 -0.00000000000E+00 -0.74276706925E+03  0.74276706925E+03  0.00000000000E+00 0. -1.
         23    2    1    2    0    0  0.41909258148E+03 -0.17609021280E+02 -0.99925758732E+02  0.44066905224E+03  0.90859159442E+02 0.  0.
        254    2    1    2    0    0 -0.41909258148E+03  0.17609021280E+02  0.44786530420E+02  0.98972585795E+03  0.89532271897E+03 0.  0.
        -24    2    4    4    0    0 -0.43903548724E+03 -0.10358101181E+03  0.39753996416E+03  0.60655095263E+03  0.79905256234E+02 0.  0.
         24    2    4    4    0    0  0.19942905754E+02  0.12119003309E+03 -0.35275343374E+03  0.38317490532E+03  0.85459226804E+02 0.  0.
         11    1    3    3    0    0  0.38026811217E+03  0.87202851188E+01 -0.75530654357E+02  0.38779473985E+03  0.00000000000E+00 0.  1.
        -11    1    3    3    0    0  0.38824469312E+02 -0.26329306399E+02 -0.24395104375E+02  0.52874312386E+02  0.00000000000E+00 0. -1.
          4    1    6    6  502    0  0.42421853033E+02  0.32080258782E+02 -0.17736049644E+03  0.18516344757E+03  0.00000000000E+00 0. -1.
          3    1    5    5  503    0 -0.54566244848E+02 -0.40174470296E+02  0.47484617758E+02  0.82742081579E+02  0.00000000000E+00 0. -1.
         -4    1    5    5    0  503 -0.38446924239E+03 -0.63406541515E+02  0.35005534640E+03  0.52380887105E+03  0.00000000000E+00 0.  1.
         -3    1    6    6    0  502 -0.22478947279E+02  0.89109774309E+02 -0.17539293729E+03  0.19801145775E+03  0.00000000000E+00 0.  1.
<mgrwt>
<rscale>  0 0.14293318E+04</rscale>
<asrwt>0</asrwt>
<pdfrwt beam="1">  1        1 0.11427186E+00 0.14293318E+04</pdfrwt>
<pdfrwt beam="2">  1       -1 0.10578890E+00 0.14293318E+04</pdfrwt>
<totfact> 0.20245797E+01</totfact>
</mgrwt>
</event>
<event>
12    1  0.1504874E-007  0.1975387E+04  0.7818608E-02  0.8618215E-01
         -2   -1    0    0    0  501 -0.00000000000E+00  0.00000000000E+00  0.61677817223E+03  0.61677817223E+03  0.00000000000E+00 0. -1.
          2   -1    0    0  501    0  0.00000000000E+00 -0.00000000000E+00 -0.15816684210E+04  0.15816684210E+04  0.00000000000E+00 0.  1.
         23    2    1    2    0    0  0.30491170072E+03  0.65085918680E+03 -0.74764087649E+02  0.72830490709E+03  0.90826992697E+02 0.  0.
        254    2    1    2    0    0 -0.30491170072E+03 -0.65085918680E+03 -0.89012616115E+03  0.14701416862E+04  0.92325682686E+03 0.  0.
        -24    2    4    4    0    0 -0.56127357462E+03 -0.12627094502E+03 -0.42830036316E+03  0.72142618679E+03  0.77731362932E+02 0.  0.
         24    2    4    4    0    0  0.25636187390E+03 -0.52458824178E+03 -0.46182579799E+03  0.74871549937E+03  0.79859861697E+02 0.  0.
         11    1    3    3    0    0  0.11337924485E+03  0.27612398526E+03 -0.73695214430E+02  0.30745779065E+03  0.00000000000E+00 0.  1.
        -11    1    3    3    0    0  0.19153245587E+03  0.37473520154E+03 -0.10688732193E+01  0.42084711644E+03  0.00000000000E+00 0. -1.
          4    1    6    6  502    0  0.25802505728E+03 -0.51104880670E+03 -0.43638031199E+03  0.71984414265E+03  0.00000000000E+00 0. -1.
          3    1    5    5  503    0 -0.39063370601E+03 -0.53195446838E+02 -0.27494732769E+03  0.48064589964E+03  0.00000000000E+00 0. -1.
         -4    1    5    5    0  503 -0.17063986861E+03 -0.73075498185E+02 -0.15335303547E+03  0.24078028715E+03  0.00000000000E+00 0.  1.
         -3    1    6    6    0  502 -0.16631833832E+01 -0.13539435079E+02 -0.25445486001E+02  0.28871356723E+02  0.00000000000E+00 0.  1.
<mgrwt>
<rscale>  0 0.19753871E+04</rscale>
<asrwt>0</asrwt>
<pdfrwt beam="1">  1        2 0.24333360E+00 0.19753871E+04</pdfrwt>
<pdfrwt beam="2">  1       -2 0.94888951E-01 0.19753871E+04</pdfrwt>
<totfact> 0.99348397E+00</totfact>
</mgrwt>
</event>
<event>
12    1  0.1504874E-007  0.1573986E+04  0.7818608E-02  0.8836691E-01
          1   -1    0    0  501    0  0.00000000000E+00  0.00000000000E+00  0.20439794936E+04  0.20439794936E+04  0.00000000000E+00 0. -1.
         -1   -1    0    0    0  501 -0.00000000000E+00 -0.00000000000E+00 -0.30301566500E+03  0.30301566500E+03  0.00000000000E+00 0.  1.
         23    2    1    2    0    0 -0.26727664703E+03 -0.41345151827E+03  0.29823090684E+03  0.58290147630E+03  0.91942880486E+02 0.  0.
        254    2    1    2    0    0  0.26727664703E+03  0.41345151827E+03  0.14427329218E+04  0.17640936823E+04  0.88778897966E+03 0.  0.
        -24    2    4    4    0    0  0.50114982256E+03  0.29385654538E+03  0.13541287274E+04  0.14756225264E+04  0.79337356365E+02 0.  0.
         24    2    4    4    0    0 -0.23387317553E+03  0.11959497289E+03  0.88604194364E+02  0.28847115591E+03  0.79782734743E+02 0.  0.
         13    1    3    3    0    0 -0.10199381034E+03 -0.13847930435E+03  0.15511700512E+03  0.23160427535E+03  0.00000000000E+00 0. -1.
        -13    1    3    3    0    0 -0.16528283669E+03 -0.27497221393E+03  0.14311390171E+03  0.35129720096E+03  0.00000000000E+00 0.  1.
          2    1    6    6  502    0 -0.21814616925E+03  0.85443437197E+02  0.61800930038E+02  0.24229669224E+03  0.00000000000E+00 0. -1.
          1    1    5    5  503    0  0.29913270074E+03  0.12984671119E+03  0.76074664199E+03  0.82769317646E+03  0.00000000000E+00 0. -1.
         -2    1    5    5    0  503  0.20201712181E+03  0.16400983419E+03  0.59338208540E+03  0.64792934992E+03  0.00000000000E+00 0.  1.
         -1    1    6    6    0  502 -0.15727006278E+02  0.34151535695E+02  0.26803264326E+02  0.46174463671E+02  0.00000000000E+00 0.  1.
<mgrwt>
<rscale>  0 0.15739858E+04</rscale>
<asrwt>0</asrwt>
<pdfrwt beam="1">  1        1 0.31445838E+00 0.15739858E+04</pdfrwt>
<pdfrwt beam="2">  1       -1 0.46617796E-01 0.15739858E+04</pdfrwt>
<totfact> 0.12267922E+01</totfact>
</mgrwt>
</event>
<event>
12    1  0.1504874E-007  0.1595478E+04  0.7818608E-02  0.8823331E-01
          2   -1    0    0  501    0  0.00000000000E+00  0.00000000000E+00  0.74600192255E+03  0.74600192255E+03  0.00000000000E+00 0. -1.
         -2   -1    0    0    0  501 -0.00000000000E+00 -0.00000000000E+00 -0.85306422146E+03  0.85306422146E+03  0.00000000000E+00 0.  1.
         23    2    1    2    0    0  0.34132362287E+03 -0.28833700245E+02 -0.45499470615E+03  0.58109097777E+03  0.11538346511E+03 0.  0.
        254    2    1    2    0    0 -0.34132362287E+03  0.28833700245E+02  0.34793240723E+03  0.10179751662E+04  0.89324312551E+03 0.  0.
        -24    2    4    4    0    0 -0.62572832736E+03  0.66373269026E+02  0.33994960364E+03  0.71973277296E+03  0.80673297617E+02 0.  0.
         24    2    4    4    0    0  0.28440470449E+03 -0.37539568781E+02  0.79828035905E+01  0.29824239328E+03  0.81176011477E+02 0.  0.
         11    1    3    3    0    0  0.18665192267E+03 -0.58850410563E+02 -0.31209863177E+03  0.36838548697E+03  0.00000000000E+00 0.  1.
        -11    1    3    3    0    0  0.15467170020E+03  0.30016710318E+02 -0.14289607438E+03  0.21270549080E+03  0.00000000000E+00 0. -1.
          2    1    6    6  502    0  0.27932735489E+03 -0.50250475551E+02  0.34779336324E+01  0.28383265757E+03  0.00000000000E+00 0. -1.
          1    1    5    5  503    0 -0.60412244305E+03  0.74139305191E+02  0.33913523545E+03  0.69675911956E+03  0.00000000000E+00 0. -1.
         -2    1    5    5    0  503 -0.21605884315E+02 -0.77660361655E+01  0.81436818788E+00  0.22973653395E+02  0.00000000000E+00 0.  1.
         -1    1    6    6    0  502  0.50773495964E+01  0.12710906771E+02  0.45048699581E+01  0.14409735709E+02  0.00000000000E+00 0.  1.
<mgrwt>
<rscale>  0 0.15954780E+04</rscale>
<asrwt>0</asrwt>
<pdfrwt beam="1">  1        2 0.11476953E+00 0.15954780E+04</pdfrwt>
<pdfrwt beam="2">  1       -2 0.13124065E+00 0.15954780E+04</pdfrwt>
<totfact> 0.15353009E+01</totfact>
</mgrwt>
</event>
<event>
12    1  0.1504874E-007  0.2722043E+04  0.7818608E-02  0.8327888E-01
         -1   -1    0    0    0  501 -0.00000000000E+00  0.00000000000E+00  0.17554137290E+04  0.17554137290E+04  0.00000000000E+00 0. -1.
          1   -1    0    0  501    0  0.00000000000E+00 -0.00000000000E+00 -0.10552380259E+04  0.10552380259E+04  0.00000000000E+00 0.  1.
         23    2    1    2    0    0 -0.10925722988E+04 -0.46163263253E+03  0.58620188489E+03  0.13262415973E+04  0.92006570540E+02 0.  0.
        254    2    1    2    0    0  0.10925722988E+04  0.46163263253E+03  0.11397381815E+03  0.14844101576E+04  0.88524830942E+03 0.  0.
        -24    2    4    4    0    0  0.50608978907E+03  0.38499216651E+03  0.46534174971E+03  0.79184070474E+03  0.78249056157E+02 0.  0.
         24    2    4    4    0    0  0.58648250974E+03  0.76640466024E+02 -0.35136793156E+03  0.69256945289E+03  0.79734111261E+02 0.  0.
         13    1    3    3    0    0 -0.48151224464E+01 -0.77820498551E+01 -0.13837617701E+01  0.92552958223E+01  0.00000000000E+00 0.  1.
        -13    1    3    3    0    0 -0.10877571764E+04 -0.45385058268E+03  0.58758564666E+03  0.13169863015E+04  0.00000000000E+00 0. -1.
          4    1    6    6  502    0  0.36330023928E+03  0.16838481410E+02 -0.18647297697E+03  0.40870866086E+03  0.00000000000E+00 0. -1.
          3    1    5    5  503    0  0.29875007272E+03  0.25045640669E+03  0.24294262323E+03  0.45934859941E+03  0.00000000000E+00 0. -1.
         -4    1    5    5    0  503  0.20733971636E+03  0.13453575982E+03  0.22239912648E+03  0.33249210533E+03  0.00000000000E+00 0.  1.
         -3    1    6    6    0  502  0.22318227045E+03  0.59801984614E+02 -0.16489495459E+03  0.28386079204E+03  0.00000000000E+00 0.  1.
<mgrwt>
<rscale>  0 0.27220428E+04</rscale>
<asrwt>0</asrwt>
<pdfrwt beam="1">  1        1 0.16234431E+00 0.27220428E+04</pdfrwt>
<pdfrwt beam="2">  1       -1 0.27006365E+00 0.27220428E+04</pdfrwt>
<totfact> 0.61682084E-01</totfact>
</mgrwt>
</event>
<event>
12    1  0.1504874E-007  0.1726192E+04  0.7818608E-02  0.8746566E-01
         -2   -1    0    0    0  501 -0.00000000000E+00  0.00000000000E+00  0.70992090838E+03  0.70992090838E+03  0.00000000000E+00 0.  1.
          2   -1    0    0  501    0  0.00000000000E+00 -0.00000000000E+00 -0.10493207002E+04  0.10493207002E+04  0.00000000000E+00 0. -1.
         23    2    1    2    0    0 -0.27082531298E+03 -0.18004716954E+02 -0.66934734452E+03  0.72876604169E+03  0.96971933668E+02 0.  0.
        254    2    1    2    0    0  0.27082531298E+03  0.18004716954E+02  0.32994755271E+03  0.10304755669E+04  0.93773343037E+03 0.  0.
        -24    2    4    4    0    0 -0.15183615384E+03  0.19023917525E+03  0.47928287884E+03  0.54349588998E+03  0.80190666935E+02 0.  0.
         24    2    4    4    0    0  0.42266146682E+03 -0.17223445830E+03 -0.14933532613E+03  0.48697967690E+03  0.80874853465E+02 0.  0.
         11    1    3    3    0    0 -0.20779388923E+03  0.21430006294E+02 -0.54783915064E+03  0.58631500113E+03  0.00000000000E+00 0. -1.
        -11    1    3    3    0    0 -0.63031423744E+02 -0.39434723249E+02 -0.12150819388E+03  0.14245104056E+03  0.00000000000E+00 0.  1.
          2    1    6    6  502    0  0.12715375988E+03 -0.22921927878E+02 -0.68187741702E+02  0.14609264714E+03  0.00000000000E+00 0. -1.
          1    1    5    5  503    0 -0.40302985474E+02  0.20379010509E+02  0.14913911412E+03  0.15582718013E+03  0.00000000000E+00 0. -1.
         -2    1    5    5    0  503 -0.11153316837E+03  0.16986016474E+03  0.33014376472E+03  0.38766870985E+03  0.00000000000E+00 0.  1.
         -1    1    6    6    0  502  0.29550770694E+03 -0.14931253042E+03 -0.81147584431E+02  0.34088702977E+03  0.00000000000E+00 0.  1.
<mgrwt>
<rscale>  0 0.17261920E+04</rscale>
<asrwt>0</asrwt>
<pdfrwt beam="1">  1        2 0.16143395E+00 0.17261920E+04</pdfrwt>
<pdfrwt beam="2">  1       -2 0.10921860E+00 0.17261920E+04</pdfrwt>
<totfact> 0.14875851E+01</totfact>
</mgrwt>
</event>
<event>
12    1  0.1504874E-007  0.2263167E+04  0.7818608E-02  0.8492587E-01
         -1   -1    0    0    0  501 -0.00000000000E+00  0.00000000000E+00  0.83156307847E+03  0.83156307847E+03  0.00000000000E+00 0.  1.
          1   -1    0    0  501    0  0.00000000000E+00 -0.00000000000E+00 -0.15398489135E+04  0.15398489135E+04  0.00000000000E+00 0. -1.
         23    2    1    2    0    0 -0.60633505304E+03 -0.51810342969E+03 -0.84585205360E+03  0.11660285064E+04  0.89907845911E+02 0.  0.
        254    2    1    2    0    0  0.60633505304E+03  0.51810342969E+03  0.13756621852E+03  0.12053834856E+04  0.89328132328E+03 0.  0.
        -24    2    4    4    0    0 -0.83368682864E+02  0.80265689081E+02 -0.25759387965E+03  0.29345917851E+03  0.79817068922E+02 0.  0.
         24    2    4    4    0    0  0.68970373590E+03  0.43783774061E+03  0.39516009817E+03  0.91192430711E+03  0.89784788772E+02 0.  0.
         13    1    3    3    0    0 -0.60657614428E+03 -0.51239273788E+03 -0.82763290841E+03  0.11469338114E+04  0.00000000000E+00 0. -1.
        -13    1    3    3    0    0  0.24109123575E+00 -0.57106918141E+01 -0.18219145189E+02  0.19094695006E+02  0.00000000000E+00 0.  1.
          4    1    6    6  502    0  0.49538866359E+03  0.36049794046E+03  0.29880478331E+03  0.68165459848E+03  0.00000000000E+00 0. -1.
          3    1    5    5  503    0 -0.62912647274E+02  0.89496167178E+01 -0.89953275245E+02  0.11013486530E+03  0.00000000000E+00 0. -1.
         -4    1    5    5    0  503 -0.20456035589E+02  0.71316072363E+02 -0.16764060440E+03  0.18332431321E+03  0.00000000000E+00 0.  1.
         -3    1    6    6    0  502  0.19431507231E+03  0.77339800147E+02  0.96355314863E+02  0.23026970864E+03  0.00000000000E+00 0.  1.
<mgrwt>
<rscale>  0 0.22631673E+04</rscale>
<asrwt>0</asrwt>
<pdfrwt beam="1">  1        1 0.23689983E+00 0.22631673E+04</pdfrwt>
<pdfrwt beam="2">  1       -1 0.12793278E+00 0.22631673E+04</pdfrwt>
<totfact> 0.29394872E+00</totfact>
</mgrwt>
</event>
<event>
12    1  0.1504874E-007  0.2358357E+04  0.7818608E-02  0.8455261E-01
         -2   -1    0    0    0  501 -0.00000000000E+00  0.00000000000E+00  0.99747665138E+03  0.99747665138E+03  0.00000000000E+00 0.  1.
          2   -1    0    0  501    0  0.00000000000E+00 -0.00000000000E+00 -0.13939794181E+04  0.13939794181E+04  0.00000000000E+00 0. -1.
         23    2    1    2    0    0  0.24699418610E+03  0.88570411280E+03  0.24721584497E+03  0.95624415354E+03  0.88370265254E+02 0.  0.
        254    2    1    2    0    0 -0.24699418610E+03 -0.88570411280E+03 -0.64371861164E+03  0.14352119159E+04  0.89441695485E+03 0.  0.
        -24    2    4    4    0    0 -0.77184430238E+01 -0.87359468694E+03 -0.16270149444E+03  0.89243788660E+03  0.82136190180E+02 0.  0.
         24    2    4    4    0    0 -0.23927574308E+03 -0.12109425864E+02 -0.48101711720E+03  0.54277402929E+03  0.76332564540E+02 0.  0.
         11    1    3    3    0    0  0.20223017584E+03  0.80474557668E+03  0.23829037419E+03  0.86330457524E+03  0.00000000000E+00 0.  1.
        -11    1    3    3    0    0  0.44764010264E+02  0.80958536125E+02  0.89254707764E+01  0.92939578302E+02  0.00000000000E+00 0. -1.
          4    1    6    6  502    0 -0.13525138536E+03  0.29495567560E+02 -0.24182641808E+03  0.27864483169E+03  0.00000000000E+00 0. -1.
          3    1    5    5  503    0 -0.14207148019E+02 -0.48367046746E+03 -0.13030080212E+03  0.50111601769E+03  0.00000000000E+00 0. -1.
         -4    1    5    5    0  503  0.64887049948E+01 -0.38992421948E+03 -0.32400692321E+02  0.39132186891E+03  0.00000000000E+00 0.  1.
         -3    1    6    6    0  502 -0.10402435772E+03 -0.41604993424E+02 -0.23919069913E+03  0.26412919760E+03  0.00000000000E+00 0.  1.
<mgrwt>
<rscale>  0 0.23583570E+04</rscale>
<asrwt>0</asrwt>
<pdfrwt beam="1">  1        2 0.21445837E+00 0.23583570E+04</pdfrwt>
<pdfrwt beam="2">  1       -2 0.15345795E+00 0.23583570E+04</pdfrwt>
<totfact> 0.37116243E+00</totfact>
</mgrwt>
</event>
<event>
12    1  0.1504874E-007  0.2092511E+04  0.7818608E-02  0.8564549E-01
          1   -1    0    0  501    0  0.00000000000E+00  0.00000000000E+00  0.37783002856E+04  0.37783002856E+04  0.00000000000E+00 0. -1.
         -1   -1    0    0    0  501 -0.00000000000E+00 -0.00000000000E+00 -0.28972039478E+03  0.28972039478E+03  0.00000000000E+00 0.  1.
         23    2    1    2    0    0  0.85040363993E+01 -0.36876575638E+02  0.30744997796E+04  0.30761115358E+04  0.92092808162E+02 0.  0.
        254    2    1    2    0    0 -0.85040363993E+01  0.36876575638E+02  0.41408011121E+03  0.99190914458E+03  0.90054939462E+03 0.  0.
        -24    2    4    4    0    0  0.16838992802E+03 -0.38151252942E+03  0.29194837353E+03  0.51473639718E+03  0.76241247400E+02 0.  0.
         24    2    4    4    0    0 -0.17689396442E+03  0.41838910506E+03  0.12213173767E+03  0.47717274740E+03  0.80229368894E+02 0.  0.
         11    1    3    3    0    0  0.21274376133E+02 -0.64906949685E+02  0.22501948807E+04  0.22512313325E+04  0.00000000000E+00 0. -1.
        -11    1    3    3    0    0 -0.12770339733E+02  0.28030374048E+02  0.82430489887E+03  0.82488020327E+03  0.00000000000E+00 0.  1.
          4    1    6    6  502    0 -0.12590220973E+03  0.33607452061E+03  0.64930135011E+02  0.36470998376E+03  0.00000000000E+00 0. -1.
          3    1    5    5  503    0  0.81455060720E+02 -0.16283999588E+03  0.17259153393E+03  0.25087771675E+03  0.00000000000E+00 0. -1.
         -4    1    5    5    0  503  0.86934867302E+02 -0.21867253355E+03  0.11935683960E+03  0.26385868043E+03  0.00000000000E+00 0.  1.
         -3    1    6    6    0  502 -0.50991754693E+02  0.82314584451E+02  0.57201602661E+02  0.11246276365E+03  0.00000000000E+00 0.  1.
<mgrwt>
<rscale>  0 0.20925111E+04</rscale>
<asrwt>0</asrwt>
<pdfrwt beam="1">  1        1 0.58127693E+00 0.20925111E+04</pdfrwt>
<pdfrwt beam="2">  1       -1 0.44572371E-01 0.20925111E+04</pdfrwt>
<totfact> 0.68548258E-01</totfact>
</mgrwt>
</event>
<event>
12    1  0.1504874E-007  0.1447416E+04  0.7818608E-02  0.8920194E-01
         -1   -1    0    0    0  501 -0.00000000000E+00  0.00000000000E+00  0.24861452315E+03  0.24861452315E+03  0.00000000000E+00 0.  1.
          1   -1    0    0  501    0  0.00000000000E+00 -0.00000000000E+00 -0.21066893094E+04  0.21066893094E+04  0.00000000000E+00 0. -1.
         23    2    1    2    0    0 -0.33174292881E+03  0.55937705911E+02 -0.11717364731E+03  0.36727827588E+03  0.89337956926E+02 0.  0.
        254    2    1    2    0    0  0.33174292881E+03 -0.55937705911E+02 -0.17409011390E+04  0.19880255567E+04  0.89906976406E+03 0.  0.
        -24    2    4    4    0    0  0.20241957923E+03 -0.30064872737E+03 -0.20165723976E+03  0.42202076177E+03  0.77926489038E+02 0.  0.
         24    2    4    4    0    0  0.12932334959E+03  0.24471102145E+03 -0.15392438992E+04  0.15660047949E+04  0.80568130946E+02 0.  0.
         13    1    3    3    0    0 -0.32623283575E+03  0.67834117720E+02 -0.10493528996E+03  0.34934330640E+03  0.00000000000E+00 0.  1.
        -13    1    3    3    0    0 -0.55100930647E+01 -0.11896411809E+02 -0.12238357353E+02  0.17934969479E+02  0.00000000000E+00 0. -1.
          4    1    6    6  502    0  0.10901879676E+03  0.20966563688E+03 -0.14319923435E+04  0.14513603443E+04  0.00000000000E+00 0. -1.
          1    1    5    5  503    0  0.18129638326E+03 -0.29839979894E+03 -0.19404817079E+03  0.39945651976E+03  0.00000000000E+00 0. -1.
         -2    1    5    5    0  503  0.21123195967E+02 -0.22489284278E+01 -0.76090689726E+01  0.22564242011E+02  0.00000000000E+00 0.  1.
         -3    1    6    6    0  502  0.20304552824E+02  0.35045384570E+02 -0.10725155574E+03  0.11464445060E+03  0.00000000000E+00 0.  1.
<mgrwt>
<rscale>  0 0.14474164E+04</rscale>
<asrwt>0</asrwt>
<pdfrwt beam="1">  1        1 0.32410603E+00 0.14474164E+04</pdfrwt>
<pdfrwt beam="2">  1       -1 0.38248390E-01 0.14474164E+04</pdfrwt>
<totfact> 0.16211712E+01</totfact>
</mgrwt>
</event>
<event>
12    1  0.1504874E-007  0.2136661E+04  0.7818608E-02  0.8545264E-01
          2   -1    0    0  501    0  0.00000000000E+00  0.00000000000E+00  0.15046614633E+04  0.15046614633E+04  0.00000000000E+00 0. -1.
         -2   -1    0    0    0  501 -0.00000000000E+00 -0.00000000000E+00 -0.75852954721E+03  0.75852954721E+03  0.00000000000E+00 0.  1.
         23    2    1    2    0    0  0.29899709452E+03  0.58721618457E+02 -0.56277476000E+03  0.64643321491E+03  0.91175544059E+02 0.  0.
        254    2    1    2    0    0 -0.29899709452E+03 -0.58721618457E+02  0.13089066761E+04  0.16167577956E+04  0.89878895850E+03 0.  0.
        -24    2    4    4    0    0  0.18096089344E+03 -0.17031534156E+03  0.50874851588E+02  0.26333933233E+03  0.70747387958E+02 0.  0.
         24    2    4    4    0    0 -0.47995798795E+03  0.11159372311E+03  0.12580318245E+04  0.13534184633E+04  0.79275696259E+02 0.  0.
         13    1    3    3    0    0  0.34977699879E+01  0.12666833335E+02 -0.60528783195E+01  0.14467909233E+02  0.00000000000E+00 0. -1.
        -13    1    3    3    0    0  0.29549932453E+03  0.46054785122E+02 -0.55672188168E+03  0.63196530567E+03  0.00000000000E+00 0.  1.
          4    1    6    6  502    0 -0.41514227183E+03  0.11686459294E+03  0.11365565491E+04  0.12156320283E+04  0.00000000000E+00 0. -1.
          1    1    5    5  503    0  0.18571505273E+03 -0.15881489786E+03  0.41735345321E+02  0.24789935789E+03  0.00000000000E+00 0. -1.
         -2    1    5    5    0  503 -0.47541592927E+01 -0.11500443703E+02  0.91395062671E+01  0.15439974441E+02  0.00000000000E+00 0.  1.
         -3    1    6    6    0  502 -0.64815716121E+02 -0.52708698288E+01  0.12147527539E+03  0.13778643495E+03  0.00000000000E+00 0.  1.
<mgrwt>
<rscale>  0 0.21366611E+04</rscale>
<asrwt>0</asrwt>
<pdfrwt beam="1">  1        2 0.23148638E+00 0.21366611E+04</pdfrwt>
<pdfrwt beam="2">  1       -2 0.11669685E+00 0.21366611E+04</pdfrwt>
<totfact> 0.65958516E+00</totfact>
</mgrwt>
</event>
<event>
12    1  0.1504874E-007  0.1691954E+04  0.7818608E-02  0.8765967E-01
          2   -1    0    0  501    0  0.00000000000E+00  0.00000000000E+00  0.15136364905E+04  0.15136364905E+04  0.00000000000E+00 0. -1.
         -2   -1    0    0    0  501 -0.00000000000E+00 -0.00000000000E+00 -0.47281947546E+03  0.47281947546E+03  0.00000000000E+00 0.  1.
         23    2    1    2    0    0  0.21246271816E+03 -0.47908654076E+02 -0.28380445936E+03  0.36923678838E+03  0.91406722958E+02 0.  0.
        254    2    1    2    0    0 -0.21246271816E+03  0.47908654076E+02  0.13246214744E+04  0.16172191775E+04  0.90185374208E+03 0.  0.
        -24    2    4    4    0    0 -0.21876422487E+03 -0.30548358118E+03  0.19502339988E+03  0.43085928572E+03  0.80172271620E+02 0.  0.
         24    2    4    4    0    0  0.63015067112E+01  0.35339223526E+03  0.11295980745E+04  0.11863598918E+04  0.80822039769E+02 0.  0.
         11    1    3    3    0    0  0.20409507548E+03 -0.18265197180E+02 -0.23826773632E+03  0.31426092890E+03  0.00000000000E+00 0.  1.
        -11    1    3    3    0    0  0.83676426774E+01 -0.29643456896E+02 -0.45536723035E+02  0.54975859479E+02  0.00000000000E+00 0. -1.
          2    1    6    6  502    0 -0.32041260701E+02  0.11085230771E+03  0.31052296969E+03  0.33126936353E+03  0.00000000000E+00 0. -1.
          1    1    5    5  503    0 -0.18844667179E+03 -0.28836785612E+03  0.15481200489E+03  0.37767039255E+03  0.00000000000E+00 0. -1.
         -2    1    5    5    0  503 -0.30317553073E+02 -0.17115725059E+02  0.40211394999E+02  0.53188893168E+02  0.00000000000E+00 0.  1.
         -1    1    6    6    0  502  0.38342767412E+02  0.24253992755E+03  0.81907510480E+03  0.85509052829E+03  0.00000000000E+00 0.  1.
<mgrwt>
<rscale>  0 0.16919537E+04</rscale>
<asrwt>0</asrwt>
<pdfrwt beam="1">  1        2 0.23286715E+00 0.16919537E+04</pdfrwt>
<pdfrwt beam="2">  1       -2 0.72741458E-01 0.16919537E+04</pdfrwt>
<totfact> 0.20286104E+01</totfact>
</mgrwt>
</event>
<event>
12    1  0.1504874E-007  0.2326583E+04  0.7818608E-02  0.8467513E-01
          2   -1    0    0  501    0  0.00000000000E+00  0.00000000000E+00  0.24195593202E+04  0.24195593202E+04  0.00000000000E+00 0. -1.
         -2   -1    0    0    0  501 -0.00000000000E+00 -0.00000000000E+00 -0.55929484636E+03  0.55929484636E+03  0.00000000000E+00 0.  1.
         23    2    1    2    0    0  0.27072392562E+03 -0.27534896280E+03  0.19568936539E+04  0.19969709067E+04  0.96703329513E+02 0.  0.
        254    2    1    2    0    0 -0.27072392562E+03  0.27534896280E+03 -0.96629180141E+02  0.98188325987E+03  0.89757954652E+03 0.  0.
        -24    2    4    4    0    0 -0.25362205210E+03 -0.17333351825E+03 -0.33992549443E+03  0.46484652033E+03  0.78513004245E+02 0.  0.
         24    2    4    4    0    0 -0.17101873526E+02  0.44868248104E+03  0.24329631429E+03  0.51703673954E+03  0.80780261269E+02 0.  0.
         11    1    3    3    0    0  0.25368194130E+02  0.46029216109E+01  0.12041147754E+03  0.12314079781E+03  0.00000000000E+00 0.  1.
        -11    1    3    3    0    0  0.24535573149E+03 -0.27995188441E+03  0.18364821764E+04  0.18738301088E+04  0.00000000000E+00 0. -1.
          2    1    6    6  502    0 -0.37334223645E+02  0.98950640994E+02  0.61880725559E+02  0.12253284378E+03  0.00000000000E+00 0. -1.
          1    1    5    5  503    0 -0.78396220609E+02 -0.14927064588E+02 -0.10285001801E+03  0.13018030138E+03  0.00000000000E+00 0. -1.
         -4    1    5    5    0  503 -0.17522583149E+03 -0.15840645366E+03 -0.23707547643E+03  0.33466621895E+03  0.00000000000E+00 0.  1.
         -1    1    6    6    0  502  0.20232350118E+02  0.34973184005E+03  0.18141558873E+03  0.39450389576E+03  0.00000000000E+00 0.  1.
<mgrwt>
<rscale>  0 0.23265830E+04</rscale>
<asrwt>0</asrwt>
<pdfrwt beam="1">  1        2 0.37223989E+00 0.23265830E+04</pdfrwt>
<pdfrwt beam="2">  1       -2 0.86045362E-01 0.23265830E+04</pdfrwt>
<totfact> 0.41061605E+00</totfact>
</mgrwt>
</event>
<event>
12    1  0.1504874E-007  0.1220474E+04  0.7818608E-02  0.9095122E-01
          2   -1    0    0  501    0  0.00000000000E+00  0.00000000000E+00  0.48625682666E+03  0.48625682666E+03  0.00000000000E+00 0. -1.
         -2   -1    0    0    0  501 -0.00000000000E+00 -0.00000000000E+00 -0.76582771391E+03  0.76582771391E+03  0.00000000000E+00 0.  1.
         23    2    1    2    0    0 -0.14622095352E+03 -0.10971417004E+03 -0.26466315865E+03  0.33419830715E+03  0.90687124749E+02 0.  0.
        254    2    1    2    0    0  0.14622095352E+03  0.10971417004E+03 -0.14907728599E+02  0.91788623342E+03  0.89937485554E+03 0.  0.
        -24    2    4    4    0    0  0.46642026756E+03 -0.15144153898E+03 -0.11852184732E+02  0.49698048219E+03  0.79791726838E+02 0.  0.
         24    2    4    4    0    0 -0.32019931404E+03  0.26115570902E+03 -0.30555438667E+01  0.42090575124E+03  0.80139940143E+02 0.  0.
         11    1    3    3    0    0 -0.60148544549E+02  0.53165543987E+01 -0.80004502032E+02  0.10023389401E+03  0.00000000000E+00 0. -1.
        -11    1    3    3    0    0 -0.86072408968E+02 -0.11503072444E+03 -0.18465865662E+03  0.23396441314E+03  0.00000000000E+00 0.  1.
          4    1    6    6  502    0 -0.47422688039E+02  0.40077441926E+02  0.28610694842E+02  0.68364351467E+02  0.00000000000E+00 0. -1.
          1    1    5    5  503    0  0.66073105039E+02 -0.72313893060E+01  0.22237188086E+02  0.70088806059E+02  0.00000000000E+00 0. -1.
         -2    1    5    5    0  503  0.40034716252E+03 -0.14421014967E+03 -0.34089372818E+02  0.42689167613E+03  0.00000000000E+00 0.  1.
         -3    1    6    6    0  502 -0.27277662601E+03  0.22107826709E+03 -0.31666238709E+02  0.35254139977E+03  0.00000000000E+00 0.  1.
<mgrwt>
<rscale>  0 0.12204736E+04</rscale>
<asrwt>0</asrwt>
<pdfrwt beam="1">  1        2 0.74808742E-01 0.12204736E+04</pdfrwt>
<pdfrwt beam="2">  1       -2 0.11781965E+00 0.12204736E+04</pdfrwt>
<totfact> 0.34820926E+01</totfact>
</mgrwt>
</event>
<event>
12    1  0.1504874E-007  0.1563567E+04  0.7818608E-02  0.8843248E-01
          1   -1    0    0  501    0  0.00000000000E+00  0.00000000000E+00  0.72438052781E+03  0.72438052781E+03  0.00000000000E+00 0. -1.
         -1   -1    0    0    0  501 -0.00000000000E+00 -0.00000000000E+00 -0.84373504049E+03  0.84373504049E+03  0.00000000000E+00 0.  1.
         23    2    1    2    0    0  0.32148221971E+03 -0.23855454464E+03  0.29292035578E+03  0.50447670840E+03  0.91844031592E+02 0.  0.
        254    2    1    2    0    0 -0.32148221971E+03  0.23855454464E+03 -0.41227486846E+03  0.10636388599E+04  0.89504076374E+03 0.  0.
        -24    2    4    4    0    0 -0.23763593149E+03 -0.31696792117E+03 -0.23644564347E+03  0.46894395623E+03  0.84038043646E+02 0.  0.
         24    2    4    4    0    0 -0.83846288213E+02  0.55552246581E+03 -0.17582922500E+03  0.59469490367E+03  0.84324978645E+02 0.  0.
         13    1    3    3    0    0  0.30970868174E+03 -0.22292392570E+03  0.24699458813E+03  0.45455568499E+03  0.00000000000E+00 0. -1.
        -13    1    3    3    0    0  0.11773537970E+02 -0.15630618939E+02  0.45925767646E+02  0.49921023413E+02  0.00000000000E+00 0.  1.
          4    1    6    6  502    0 -0.47887680080E+02  0.17813697000E+03 -0.93326225157E+02  0.20672637540E+03  0.00000000000E+00 0. -1.
          3    1    5    5  503    0 -0.29234553633E+02 -0.87668356879E+01 -0.32821080144E+02  0.44818967368E+02  0.00000000000E+00 0. -1.
         -4    1    5    5    0  503 -0.20840137786E+03 -0.30820108548E+03 -0.20362456332E+03  0.42412498886E+03  0.00000000000E+00 0.  1.
         -3    1    6    6    0  502 -0.35958608133E+02  0.37738549580E+03 -0.82502999839E+02  0.38796852826E+03  0.00000000000E+00 0.  1.
<mgrwt>
<rscale>  0 0.15635667E+04</rscale>
<asrwt>0</asrwt>
<pdfrwt beam="1">  1        1 0.11144316E+00 0.15635667E+04</pdfrwt>
<pdfrwt beam="2">  1       -1 0.12980539E+00 0.15635667E+04</pdfrwt>
<totfact> 0.12667946E+01</totfact>
</mgrwt>
</event>
<event>
12    1  0.1504874E-007  0.2142079E+04  0.7818608E-02  0.8542930E-01
         -2   -1    0    0    0  501 -0.00000000000E+00  0.00000000000E+00  0.64215725584E+03  0.64215725584E+03  0.00000000000E+00 0.  1.
          2   -1    0    0  501    0  0.00000000000E+00 -0.00000000000E+00 -0.17863624470E+04  0.17863624470E+04  0.00000000000E+00 0. -1.
         23    2    1    2    0    0  0.82080206993E+03  0.24400265141E+03 -0.25415469484E+03  0.89831827643E+03  0.95539441950E+02 0.  0.
        254    2    1    2    0    0 -0.82080206993E+03 -0.24400265141E+03 -0.89005049629E+03  0.15302014264E+04  0.90336769227E+03 0.  0.
        -24    2    4    4    0    0 -0.39920120248E+03  0.31153531586E+03 -0.54623862542E+03  0.74858011593E+03  0.74697396029E+02 0.  0.
         24    2    4    4    0    0 -0.42160086745E+03 -0.55553796726E+03 -0.34381187087E+03  0.78162131045E+03  0.79721677667E+02 0.  0.
         11    1    3    3    0    0  0.34006079870E+03  0.10141304296E+03 -0.56514227982E+02  0.35933245061E+03  0.00000000000E+00 0.  1.
        -11    1    3    3    0    0  0.48074127123E+03  0.14258960845E+03 -0.19764046686E+03  0.53898582582E+03  0.00000000000E+00 0. -1.
          4    1    6    6  502    0 -0.84024073228E+02 -0.82770868954E+02 -0.86508540100E+02  0.14626957694E+03  0.00000000000E+00 0. -1.
          3    1    5    5  503    0 -0.81057812649E+02  0.10244686822E+03 -0.12513087877E+03  0.18089628692E+03  0.00000000000E+00 0. -1.
         -4    1    5    5    0  503 -0.31814338983E+03  0.20908844764E+03 -0.42110774665E+03  0.56768382901E+03  0.00000000000E+00 0.  1.
         -3    1    6    6    0  502 -0.33757679422E+03 -0.47276709831E+03 -0.25730333077E+03  0.63535173350E+03  0.00000000000E+00 0.  1.
<mgrwt>
<rscale>  0 0.21420790E+04</rscale>
<asrwt>0</asrwt>
<pdfrwt beam="1">  1        2 0.27482499E+00 0.21420790E+04</pdfrwt>
<pdfrwt beam="2">  1       -2 0.98793426E-01 0.21420790E+04</pdfrwt>
<totfact> 0.68550239E+00</totfact>
</mgrwt>
</event>
<event>
12    1  0.1504874E-007  0.1758360E+04  0.7818608E-02  0.8728762E-01
         -2   -1    0    0    0  501 -0.00000000000E+00  0.00000000000E+00  0.46494658493E+03  0.46494658493E+03  0.00000000000E+00 0.  1.
          2   -1    0    0  501    0  0.00000000000E+00 -0.00000000000E+00 -0.16624649200E+04  0.16624649200E+04  0.00000000000E+00 0. -1.
         23    2    1    2    0    0  0.25050731833E+02  0.60292793698E+03 -0.75585172007E+03  0.97149471077E+03  0.91326414456E+02 0.  0.
        254    2    1    2    0    0 -0.25050731833E+02 -0.60292793698E+03 -0.44166661502E+03  0.11559167942E+04  0.88143326456E+03 0.  0.
        -24    2    4    4    0    0 -0.10462705106E+03  0.18797573007E+03  0.23861124781E+02  0.23119443543E+03  0.81239268758E+02 0.  0.
         24    2    4    4    0    0  0.79576319229E+02 -0.79090366705E+03 -0.46552773980E+03  0.92472235875E+03  0.80835407516E+02 0.  0.
         11    1    3    3    0    0 -0.10873674426E+02  0.70377198710E+02 -0.13586645033E+03  0.15339778101E+03  0.00000000000E+00 0. -1.
        -11    1    3    3    0    0  0.35924406259E+02  0.53255073827E+03 -0.61998526973E+03  0.81809692976E+03  0.00000000000E+00 0.  1.
          2    1    6    6  502    0  0.14770720294E+02 -0.28181193585E+03 -0.20772796868E+03  0.35040983197E+03  0.00000000000E+00 0. -1.
          3    1    5    5  503    0 -0.30851076792E+02  0.23762847125E+02 -0.22926528584E+02  0.45189462883E+02  0.00000000000E+00 0. -1.
         -4    1    5    5    0  503 -0.73775974270E+02  0.16421288295E+03  0.46787653365E+02  0.18600497255E+03  0.00000000000E+00 0.  1.
         -1    1    6    6    0  502  0.64805598935E+02 -0.50909173120E+03 -0.25779977112E+03  0.57431252678E+03  0.00000000000E+00 0.  1.
<mgrwt>
<rscale>  0 0.17583599E+04</rscale>
<asrwt>0</asrwt>
<pdfrwt beam="1">  1        2 0.25576383E+00 0.17583599E+04</pdfrwt>
<pdfrwt beam="2">  1       -2 0.71530244E-01 0.17583599E+04</pdfrwt>
<totfact> 0.17279086E+01</totfact>
</mgrwt>
</event>
<event>
12    1  0.1504874E-007  0.1508457E+04  0.7818608E-02  0.8878848E-01
         -2   -1    0    0    0  501 -0.00000000000E+00  0.00000000000E+00  0.68999979927E+03  0.68999979927E+03  0.00000000000E+00 0.  1.
          2   -1    0    0  501    0  0.00000000000E+00 -0.00000000000E+00 -0.82443647017E+03  0.82443647017E+03  0.00000000000E+00 0. -1.
         23    2    1    2    0    0  0.34774611258E+03 -0.17606351053E+03 -0.32077484784E+03  0.51243490130E+03  0.88132323850E+02 0.  0.
        254    2    1    2    0    0 -0.34774611258E+03  0.17606351053E+03  0.18633817695E+03  0.10020013681E+04  0.90407914864E+03 0.  0.
        -24    2    4    4    0    0 -0.33004547582E+03  0.28587662647E+03 -0.27324944282E+03  0.52096927642E+03  0.78027349724E+02 0.  0.
         24    2    4    4    0    0 -0.17700636765E+02 -0.10981311594E+03  0.45958761977E+03  0.48103209171E+03  0.88311154647E+02 0.  0.
         13    1    3    3    0    0  0.21683766505E+03 -0.67144229225E+02 -0.15568965529E+03  0.27525658805E+03  0.00000000000E+00 0.  1.
        -13    1    3    3    0    0  0.13090844754E+03 -0.10891928130E+03 -0.16508519255E+03  0.23717831325E+03  0.00000000000E+00 0. -1.
          2    1    6    6  502    0 -0.19147906099E+02 -0.45820270336E+02  0.35467265814E+03  0.35813242510E+03  0.00000000000E+00 0. -1.
          1    1    5    5  503    0 -0.26152517537E+03  0.20895665764E+03 -0.24285383843E+03  0.41356533821E+03  0.00000000000E+00 0. -1.
         -2    1    5    5    0  503 -0.68520300446E+02  0.76919968832E+02 -0.30395604389E+02  0.10740393822E+03  0.00000000000E+00 0.  1.
         -1    1    6    6    0  502  0.14472693347E+01 -0.63992845607E+02  0.10491496163E+03  0.12289966660E+03  0.00000000000E+00 0.  1.
<mgrwt>
<rscale>  0 0.15084575E+04</rscale>
<asrwt>0</asrwt>
<pdfrwt beam="1">  1        2 0.12683638E+00 0.15084575E+04</pdfrwt>
<pdfrwt beam="2">  1       -2 0.10615382E+00 0.15084575E+04</pdfrwt>
<totfact> 0.22876255E+01</totfact>
</mgrwt>
</event>
<event>
12    1  0.1504874E-007  0.1525805E+04  0.7818608E-02  0.8867472E-01
         -2   -1    0    0    0  501 -0.00000000000E+00  0.00000000000E+00  0.37459599178E+03  0.37459599178E+03  0.00000000000E+00 0.  1.
          2   -1    0    0  501    0  0.00000000000E+00 -0.00000000000E+00 -0.15537272513E+04  0.15537272513E+04  0.00000000000E+00 0. -1.
         23    2    1    2    0    0  0.40274864502E+02 -0.47859321863E+03 -0.47093785297E+03  0.67930519656E+03  0.94865984901E+02 0.  0.
        254    2    1    2    0    0 -0.40274864502E+02  0.47859321863E+03 -0.70819340653E+03  0.12490180465E+04  0.90985418932E+03 0.  0.
        -24    2    4    4    0    0 -0.32626235257E+03  0.26942272842E+03 -0.76774948735E+03  0.88049797684E+03  0.82472314223E+02 0.  0.
         24    2    4    4    0    0  0.28598748807E+03  0.20917049021E+03  0.59556080817E+02  0.36852006966E+03  0.81969370351E+02 0.  0.
         13    1    3    3    0    0 -0.11995409229E+02 -0.12366012091E+03 -0.75529404249E+02  0.14539740800E+03  0.00000000000E+00 0. -1.
        -13    1    3    3    0    0  0.52270273731E+02 -0.35493309771E+03 -0.39540844872E+03  0.53390778856E+03  0.00000000000E+00 0.  1.
          2    1    6    6  502    0  0.20858450228E+02  0.27168032139E+02  0.30079949733E+02  0.45584869114E+02  0.00000000000E+00 0. -1.
          3    1    5    5  503    0 -0.13812010019E+03  0.83497921327E+02 -0.35923598578E+03  0.39382681272E+03  0.00000000000E+00 0. -1.
         -4    1    5    5    0  503 -0.18814225238E+03  0.18592480709E+03 -0.40851350157E+03  0.48667116412E+03  0.00000000000E+00 0.  1.
         -1    1    6    6    0  502  0.26512903784E+03  0.18200245807E+03  0.29476131085E+02  0.32293520055E+03  0.00000000000E+00 0.  1.
<mgrwt>
<rscale>  0 0.15258047E+04</rscale>
<asrwt>0</asrwt>
<pdfrwt beam="1">  1        2 0.23903496E+00 0.15258047E+04</pdfrwt>
<pdfrwt beam="2">  1       -2 0.57630153E-01 0.15258047E+04</pdfrwt>
<totfact> 0.32185366E+01</totfact>
</mgrwt>
</event>
<event>
12    1  0.1504874E-007  0.1832710E+04  0.7818608E-02  0.8689095E-01
         -2   -1    0    0    0  501 -0.00000000000E+00  0.00000000000E+00  0.48523705422E+03  0.48523705422E+03  0.00000000000E+00 0.  1.
          2   -1    0    0  501    0  0.00000000000E+00 -0.00000000000E+00 -0.17305085998E+04  0.17305085998E+04  0.00000000000E+00 0. -1.
         23    2    1    2    0    0 -0.37048251646E+03  0.10782610108E+03 -0.11705613257E+04  0.12366258811E+04  0.10072730270E+03 0.  0.
        254    2    1    2    0    0  0.37048251646E+03 -0.10782610108E+03 -0.74710219885E+02  0.97911977291E+03  0.89677764785E+03 0.  0.
        -24    2    4    4    0    0  0.45172676658E+03  0.25753625804E+03 -0.21805418087E+03  0.56966978108E+03  0.81203681105E+02 0.  0.
         24    2    4    4    0    0 -0.81244250123E+02 -0.36536235912E+03  0.14334396098E+03  0.40944999184E+03  0.83734837583E+02 0.  0.
         13    1    3    3    0    0 -0.97459786712E+02  0.21235461039E+02 -0.18363276561E+03  0.20897451385E+03  0.00000000000E+00 0.  1.
        -13    1    3    3    0    0 -0.27302272975E+03  0.86590640045E+02 -0.98692856010E+03  0.10276513673E+04  0.00000000000E+00 0. -1.
          2    1    6    6  502    0  0.12573222293E+02 -0.10482423582E+03  0.53272730690E+02  0.11825476806E+03  0.00000000000E+00 0. -1.
          1    1    5    5  503    0  0.35446360725E+03  0.22463160383E+03 -0.20203701452E+03  0.46574967691E+03  0.00000000000E+00 0. -1.
         -2    1    5    5    0  503  0.97263159331E+02  0.32904654201E+02 -0.16017166344E+02  0.10392010416E+03  0.00000000000E+00 0.  1.
         -1    1    6    6    0  502 -0.93817472416E+02 -0.26053812330E+03  0.90071230293E+02  0.29119522378E+03  0.00000000000E+00 0.  1.
<mgrwt>
<rscale>  0 0.18327104E+04</rscale>
<asrwt>0</asrwt>
<pdfrwt beam="1">  1        2 0.26623209E+00 0.18327104E+04</pdfrwt>
<pdfrwt beam="2">  1       -2 0.74651854E-01 0.18327104E+04</pdfrwt>
<totfact> 0.14325806E+01</totfact>
</mgrwt>
</event>
<event>
12    1  0.1504874E-007  0.1986688E+04  0.7818608E-02  0.8612870E-01
         -3   -1    0    0    0  501 -0.00000000000E+00  0.00000000000E+00  0.76467849928E+03  0.76467849928E+03  0.00000000000E+00 0.  1.
          3   -1    0    0  501    0  0.00000000000E+00 -0.00000000000E+00 -0.12903879322E+04  0.12903879322E+04  0.00000000000E+00 0. -1.
         23    2    1    2    0    0  0.16502117613E+03 -0.30878255007E+03  0.51872471344E+03  0.63227553375E+03  0.90102000226E+02 0.  0.
        254    2    1    2    0    0 -0.16502117613E+03  0.30878255007E+03 -0.10444341464E+04  0.14227908977E+04  0.90050685771E+03 0.  0.
        -24    2    4    4    0    0 -0.10276917133E+03  0.62140708892E+03 -0.63574931532E+03  0.89885008812E+03  0.83940551910E+02 0.  0.
         24    2    4    4    0    0 -0.62252004806E+02 -0.31262453885E+03 -0.40868483104E+03  0.52394080961E+03  0.76689415551E+02 0.  0.
         11    1    3    3    0    0  0.11951164196E+03 -0.16698739314E+03  0.23679774417E+03  0.31343419353E+03  0.00000000000E+00 0. -1.
        -11    1    3    3    0    0  0.45509534173E+02 -0.14179515693E+03  0.28192696927E+03  0.31884134022E+03  0.00000000000E+00 0.  1.
          2    1    6    6  502    0  0.73888670261E+01 -0.15871552193E+03 -0.19405270612E+03  0.25080204347E+03  0.00000000000E+00 0. -1.
          1    1    5    5  503    0 -0.85290089131E+02  0.49901213523E+03 -0.55485645512E+03  0.75110132219E+03  0.00000000000E+00 0. -1.
         -2    1    5    5    0  503 -0.17479082195E+02  0.12239495368E+03 -0.80892860199E+02  0.14774876593E+03  0.00000000000E+00 0.  1.
         -3    1    6    6    0  502 -0.69640871832E+02 -0.15390901692E+03 -0.21463212492E+03  0.27313876613E+03  0.00000000000E+00 0.  1.
<mgrwt>
<rscale>  0 0.19866876E+04</rscale>
<asrwt>0</asrwt>
<pdfrwt beam="1">  1        3 0.19852122E+00 0.19866876E+04</pdfrwt>
<pdfrwt beam="2">  1       -3 0.11764285E+00 0.19866876E+04</pdfrwt>
<totfact> 0.21706026E-01</totfact>
</mgrwt>
</event>
<event>
12    1  0.1504874E-007  0.2978290E+04  0.7818608E-02  0.8249958E-01
         -2   -1    0    0    0  501 -0.00000000000E+00  0.00000000000E+00  0.15614419076E+04  0.15614419076E+04  0.00000000000E+00 0. -1.
          2   -1    0    0  501    0  0.00000000000E+00 -0.00000000000E+00 -0.14201955625E+04  0.14201955625E+04  0.00000000000E+00 0.  1.
         23    2    1    2    0    0 -0.60849526755E+03  0.36683586550E+03  0.12168274545E+04  0.14117326054E+04  0.86515040704E+02 0.  0.
        254    2    1    2    0    0  0.60849526755E+03 -0.36683586550E+03 -0.10755811093E+04  0.15699048647E+04  0.89604214111E+03 0.  0.
        -24    2    4    4    0    0  0.71914421354E+02 -0.36204608515E+03 -0.13699009302E+02  0.37755084525E+03  0.78153222083E+02 0.  0.
         24    2    4    4    0    0  0.53658084620E+03 -0.47897803522E+01 -0.10618821000E+04  0.11923540195E+04  0.78565685015E+02 0.  0.
         13    1    3    3    0    0 -0.22356840279E+02  0.33552121963E+02  0.51626796965E+02  0.65504956761E+02  0.00000000000E+00 0.  1.
        -13    1    3    3    0    0 -0.58613842727E+03  0.33328374354E+03  0.11652006575E+04  0.13462276486E+04  0.00000000000E+00 0. -1.
          2    1    6    6  502    0  0.53330497593E+03 -0.98912407473E+01 -0.10587674022E+04  0.11855380407E+04  0.00000000000E+00 0. -1.
          1    1    5    5  503    0  0.60924029449E+02 -0.20762370678E+03  0.25436873382E+02  0.21786779364E+03  0.00000000000E+00 0. -1.
         -2    1    5    5    0  503  0.10990391905E+02 -0.15442237837E+03 -0.39135882683E+02  0.15968305160E+03  0.00000000000E+00 0.  1.
         -1    1    6    6    0  502  0.32758702654E+01  0.51014603952E+01 -0.31146978825E+01  0.68159788042E+01  0.00000000000E+00 0.  1.
<mgrwt>
<rscale>  0 0.29782900E+04</rscale>
<asrwt>0</asrwt>
<pdfrwt beam="1">  1        2 0.21849163E+00 0.29782900E+04</pdfrwt>
<pdfrwt beam="2">  1       -2 0.24022183E+00 0.29782900E+04</pdfrwt>
<totfact> 0.89228179E-01</totfact>
</mgrwt>
</event>
<event>
12    1  0.1504874E-007  0.2169468E+04  0.7818608E-02  0.8531245E-01
          2   -1    0    0  501    0  0.00000000000E+00  0.00000000000E+00  0.12248152456E+04  0.12248152456E+04  0.00000000000E+00 0.  1.
         -2   -1    0    0    0  501 -0.00000000000E+00 -0.00000000000E+00 -0.96067404793E+03  0.96067404793E+03  0.00000000000E+00 0. -1.
         23    2    1    2    0    0 -0.62266479293E+03  0.53973657957E+03  0.46371866877E+03  0.95000291407E+03  0.91888591805E+02 0.  0.
        254    2    1    2    0    0  0.62266479293E+03 -0.53973657957E+03 -0.19957747113E+03  0.12354863794E+04  0.89864809970E+03 0.  0.
        -24    2    4    4    0    0  0.36390712266E+03 -0.61009082127E+03 -0.46203652664E+03  0.85159783252E+03  0.84272844272E+02 0.  0.
         24    2    4    4    0    0  0.25875767027E+03  0.70354241700E+02  0.26245905551E+03  0.38388854691E+03  0.81119722515E+02 0.  0.
         13    1    3    3    0    0 -0.59748882740E+03  0.53140943407E+03  0.43266823598E+03  0.90917032943E+03  0.00000000000E+00 0.  1.
        -13    1    3    3    0    0 -0.25175965528E+02  0.83271455012E+01  0.31050432788E+02  0.40832584645E+02  0.00000000000E+00 0. -1.
          4    1    6    6  502    0  0.24242974099E+03  0.40054368769E+02  0.23160113662E+03  0.33766198817E+03  0.00000000000E+00 0. -1.
          3    1    5    5  503    0  0.34182501821E+03 -0.60034247439E+03 -0.44113565075E+03  0.81966828168E+03  0.00000000000E+00 0. -1.
         -4    1    5    5    0  503  0.22082104449E+02 -0.97483468809E+01 -0.20900875890E+02  0.31929550839E+02  0.00000000000E+00 0.  1.
         -3    1    6    6    0  502  0.16327929276E+02  0.30299872932E+02  0.30857918896E+02  0.46226558738E+02  0.00000000000E+00 0.  1.
<mgrwt>
<rscale>  0 0.21694683E+04</rscale>
<asrwt>0</asrwt>
<pdfrwt beam="1">  1        2 0.18843311E+00 0.21694683E+04</pdfrwt>
<pdfrwt beam="2">  1       -2 0.14779601E+00 0.21694683E+04</pdfrwt>
<totfact> 0.52273941E+00</totfact>
</mgrwt>
</event>
<event>
12    1  0.1504874E-007  0.2129595E+04  0.7818608E-02  0.8548318E-01
         -1   -1    0    0    0  501 -0.00000000000E+00  0.00000000000E+00  0.48905208474E+03  0.48905208474E+03  0.00000000000E+00 0.  1.
          1   -1    0    0  501    0  0.00000000000E+00 -0.00000000000E+00 -0.23183491539E+04  0.23183491539E+04  0.00000000000E+00 0. -1.
         23    2    1    2    0    0 -0.77816568680E+03 -0.40231008671E+03 -0.58127197863E+03  0.10552507342E+04  0.91004159033E+02 0.  0.
        254    2    1    2    0    0  0.77816568680E+03  0.40231008671E+03 -0.12480250905E+04  0.17521505044E+04  0.86317409687E+03 0.  0.
        -24    2    4    4    0    0  0.22136495851E+03  0.57357768116E+03 -0.80353545948E+03  0.10148632492E+04  0.79274073853E+02 0.  0.
         24    2    4    4    0    0  0.55680072829E+03 -0.17126759445E+03 -0.44448963101E+03  0.73728725516E+03  0.81620001258E+02 0.  0.
         11    1    3    3    0    0 -0.73549463258E+03 -0.39015362715E+03 -0.52781409352E+03  0.98577884165E+03  0.00000000000E+00 0. -1.
        -11    1    3    3    0    0 -0.42671054227E+02 -0.12156459560E+02 -0.53457885110E+02  0.69471892578E+02  0.00000000000E+00 0.  1.
          4    1    6    6  502    0  0.22075521003E+03 -0.44478074149E+02 -0.21309743086E+03  0.31003496073E+03  0.00000000000E+00 0. -1.
          3    1    5    5  503    0  0.23190237546E+02  0.13581209110E+03 -0.14991983959E+03  0.20361402090E+03  0.00000000000E+00 0. -1.
         -4    1    5    5    0  503  0.19817472097E+03  0.43776559006E+03 -0.65361561989E+03  0.81124922831E+03  0.00000000000E+00 0.  1.
         -3    1    6    6    0  502  0.33604551826E+03 -0.12678952030E+03 -0.23139220015E+03  0.42725229443E+03  0.00000000000E+00 0.  1.
<mgrwt>
<rscale>  0 0.21295948E+04</rscale>
<asrwt>0</asrwt>
<pdfrwt beam="1">  1        1 0.35666910E+00 0.21295948E+04</pdfrwt>
<pdfrwt beam="2">  1       -1 0.75238782E-01 0.21295948E+04</pdfrwt>
<totfact> 0.29455506E+00</totfact>
</mgrwt>
</event>
<event>
12    1  0.1504874E-007  0.1903075E+04  0.7818608E-02  0.8653327E-01
         -1   -1    0    0    0  501 -0.00000000000E+00  0.00000000000E+00  0.29938894244E+03  0.29938894244E+03  0.00000000000E+00 0.  1.
          1   -1    0    0  501    0  0.00000000000E+00 -0.00000000000E+00 -0.30242379231E+04  0.30242379231E+04  0.00000000000E+00 0. -1.
         23    2    1    2    0    0  0.90221846553E+02  0.50330139806E+03 -0.14174748437E+03  0.53807611689E+03  0.89338006204E+02 0.  0.
        254    2    1    2    0    0 -0.90221846553E+02 -0.50330139806E+03 -0.25831014963E+04  0.27855507486E+04  0.90853032658E+03 0.  0.
        -24    2    4    4    0    0 -0.43321625974E+03 -0.52713166781E+03 -0.17956692609E+04  0.19227126217E+04  0.82774443336E+02 0.  0.
         24    2    4    4    0    0  0.34299441319E+03  0.23830269743E+02 -0.78743223538E+03  0.86283812688E+03  0.78911714198E+02 0.  0.
         11    1    3    3    0    0  0.60911152702E+02  0.12050733006E+03 -0.42156056631E+02  0.14145429732E+03  0.00000000000E+00 0. -1.
        -11    1    3    3    0    0  0.29310693851E+02  0.38279406801E+03 -0.99591427740E+02  0.39662181956E+03  0.00000000000E+00 0.  1.
          4    1    6    6  502    0  0.43904309873E+02  0.18311484096E+02 -0.61983290062E+02  0.78133393131E+02  0.00000000000E+00 0. -1.
          1    1    5    5  503    0 -0.90911452283E+01 -0.36102543923E+02 -0.73975030589E+02  0.82815142033E+02  0.00000000000E+00 0. -1.
         -2    1    5    5    0  503 -0.42412511452E+03 -0.49102912388E+03 -0.17216942303E+04  0.18398974797E+04  0.00000000000E+00 0.  1.
         -3    1    6    6    0  502  0.29909010332E+03  0.55187856472E+01 -0.72544894532E+03  0.78470473375E+03  0.00000000000E+00 0.  1.
<mgrwt>
<rscale>  0 0.19030748E+04</rscale>
<asrwt>0</asrwt>
<pdfrwt beam="1">  1        1 0.46526735E+00 0.19030748E+04</pdfrwt>
<pdfrwt beam="2">  1       -1 0.46059839E-01 0.19030748E+04</pdfrwt>
<totfact> 0.25229019E+00</totfact>
</mgrwt>
</event>
<event>
12    1  0.1504874E-007  0.1368204E+04  0.7818608E-02  0.8977161E-01
         -2   -1    0    0    0  501 -0.00000000000E+00  0.00000000000E+00  0.88687361948E+03  0.88687361948E+03  0.00000000000E+00 0.  1.
          2   -1    0    0  501    0  0.00000000000E+00 -0.00000000000E+00 -0.52769109161E+03  0.52769109161E+03  0.00000000000E+00 0. -1.
         23    2    1    2    0    0 -0.57054685230E+02 -0.28374498603E+03 -0.15277796288E+03  0.33972744654E+03  0.91143720494E+02 0.  0.
        254    2    1    2    0    0  0.57054685230E+02  0.28374498603E+03  0.51196049075E+03  0.10748372645E+04  0.89966946539E+03 0.  0.
        -24    2    4    4    0    0  0.33075977396E+03 -0.39135031825E+02 -0.71190701035E+02  0.34989661238E+03  0.80161990111E+02 0.  0.
         24    2    4    4    0    0 -0.27370508873E+03  0.32288001786E+03  0.58315119178E+03  0.72494065216E+03  0.79420747576E+02 0.  0.
         13    1    3    3    0    0 -0.22980119144E+02 -0.19914749045E+03 -0.59130600226E+02  0.20900774319E+03  0.00000000000E+00 0. -1.
        -13    1    3    3    0    0 -0.34074566086E+02 -0.84597495580E+02 -0.93647362654E+02  0.13071970335E+03  0.00000000000E+00 0.  1.
          4    1    6    6  502    0 -0.96385450575E+02  0.82498181040E+02  0.12566566780E+03  0.17857201634E+03  0.00000000000E+00 0. -1.
          1    1    5    5  503    0  0.87672623014E+02 -0.86845187594E+01  0.16605469277E+02  0.89652949210E+02  0.00000000000E+00 0. -1.
         -2    1    5    5    0  503  0.24308715095E+03 -0.30450513065E+02 -0.87796170312E+02  0.26024366317E+03  0.00000000000E+00 0.  1.
         -3    1    6    6    0  502 -0.17731963815E+03  0.24038183682E+03  0.45748552399E+03  0.54636863582E+03  0.00000000000E+00 0.  1.
<mgrwt>
<rscale>  0 0.13682037E+04</rscale>
<asrwt>0</asrwt>
<pdfrwt beam="1">  1        2 0.81183245E-01 0.13682037E+04</pdfrwt>
<pdfrwt beam="2">  1       -2 0.13644210E+00 0.13682037E+04</pdfrwt>
<totfact> 0.21638688E+01</totfact>
</mgrwt>
</event>
<event>
12    1  0.1504874E-007  0.1434794E+04  0.7818608E-02  0.8929011E-01
         -2   -1    0    0    0  501 -0.00000000000E+00  0.00000000000E+00  0.27529067816E+03  0.27529067816E+03  0.00000000000E+00 0.  1.
          2   -1    0    0  501    0  0.00000000000E+00 -0.00000000000E+00 -0.18695096760E+04  0.18695096760E+04  0.00000000000E+00 0. -1.
         23    2    1    2    0    0 -0.54254049716E+02 -0.43934382053E+03 -0.51396528713E+03  0.68437649994E+03  0.90798583412E+02 0.  0.
        254    2    1    2    0    0  0.54254049716E+02  0.43934382053E+03 -0.10802537107E+04  0.14604238542E+04  0.87745271093E+03 0.  0.
        -24    2    4    4    0    0 -0.23171381363E+03 -0.40753143446E+02 -0.76249148145E+01  0.24861516847E+03  0.79995328238E+02 0.  0.
         24    2    4    4    0    0  0.28596786335E+03  0.48009696398E+03 -0.10726287959E+04  0.12118086857E+04  0.75346157038E+02 0.  0.
         11    1    3    3    0    0 -0.64054050565E+02 -0.28365033059E+03 -0.28382623932E+03  0.40634685377E+03  0.00000000000E+00 0.  1.
        -11    1    3    3    0    0  0.98000008488E+01 -0.15569348993E+03 -0.23013904781E+03  0.27802964617E+03  0.00000000000E+00 0. -1.
          4    1    6    6  502    0  0.37594985116E+02  0.24314149343E+02 -0.88749820884E+02  0.99403679364E+02  0.00000000000E+00 0. -1.
          1    1    5    5  503    0 -0.25486561698E+02  0.89273617788E+01  0.21473460478E+02  0.34501769816E+02  0.00000000000E+00 0. -1.
         -2    1    5    5    0  503 -0.20622725194E+03 -0.49680505225E+02 -0.29098375292E+02  0.21411339866E+03  0.00000000000E+00 0.  1.
         -3    1    6    6    0  502  0.24837287823E+03  0.45578281463E+03 -0.98387897500E+03  0.11124050064E+04  0.00000000000E+00 0.  1.
<mgrwt>
<rscale>  0 0.14347942E+04</rscale>
<asrwt>0</asrwt>
<pdfrwt beam="1">  1        2 0.28761687E+00 0.14347942E+04</pdfrwt>
<pdfrwt beam="2">  1       -2 0.42352413E-01 0.14347942E+04</pdfrwt>
<totfact> 0.40511846E+01</totfact>
</mgrwt>
</event>
<event>
12    1  0.1504874E-007  0.2073039E+04  0.7818608E-02  0.8573214E-01
          1   -1    0    0  501    0  0.00000000000E+00  0.00000000000E+00  0.99613860181E+03  0.99613860181E+03  0.00000000000E+00 0.  1.
         -1   -1    0    0    0  501 -0.00000000000E+00 -0.00000000000E+00 -0.10785375601E+04  0.10785375601E+04  0.00000000000E+00 0. -1.
         23    2    1    2    0    0  0.50563469355E+03 -0.29101780425E+03  0.57347615730E+03  0.82320956669E+03  0.91876449604E+02 0.  0.
        254    2    1    2    0    0 -0.50563469355E+03  0.29101780425E+03 -0.65587511557E+03  0.12514665952E+04  0.89198579919E+03 0.  0.
        -24    2    4    4    0    0  0.63335849491E+02  0.36405405184E+03 -0.23531408534E+01  0.37828608562E+03  0.80919977829E+02 0.  0.
         24    2    4    4    0    0 -0.56897054304E+03 -0.73036247589E+02 -0.65352197472E+03  0.87318050958E+03  0.79318715060E+02 0.  0.
         13    1    3    3    0    0  0.96241544334E+02 -0.25442522565E+02  0.13062074483E+03  0.16423013058E+03  0.00000000000E+00 0. -1.
        -13    1    3    3    0    0  0.40939314921E+03 -0.26557528168E+03  0.44285541247E+03  0.65897943611E+03  0.00000000000E+00 0.  1.
          2    1    6    6  502    0 -0.42013399112E+03 -0.84568000975E+02 -0.50915673757E+03  0.66551100719E+03  0.00000000000E+00 0. -1.
          3    1    5    5  503    0 -0.47584214680E+01  0.17463740994E+03  0.19643588950E+02  0.17580312316E+03  0.00000000000E+00 0. -1.
         -4    1    5    5    0  503  0.68094270959E+02  0.18941664190E+03 -0.21996729804E+02  0.20248296246E+03  0.00000000000E+00 0.  1.
         -1    1    6    6    0  502 -0.14883655192E+03  0.11531753386E+02 -0.14436523714E+03  0.20766950238E+03  0.00000000000E+00 0.  1.
<mgrwt>
<rscale>  0 0.20730392E+04</rscale>
<asrwt>0</asrwt>
<pdfrwt beam="1">  1        1 0.15325209E+00 0.20730392E+04</pdfrwt>
<pdfrwt beam="2">  1       -1 0.16592885E+00 0.20730392E+04</pdfrwt>
<totfact> 0.37046324E+00</totfact>
</mgrwt>
</event>
<event>
12    1  0.1504874E-007  0.1852751E+04  0.7818608E-02  0.8678739E-01
          1   -1    0    0  501    0  0.00000000000E+00  0.00000000000E+00  0.11646059334E+04  0.11646059334E+04  0.00000000000E+00 0. -1.
         -1   -1    0    0    0  501 -0.00000000000E+00 -0.00000000000E+00 -0.73687735456E+03  0.73687735456E+03  0.00000000000E+00 0.  1.
         23    2    1    2    0    0 -0.17004947149E+03  0.36071115163E+03  0.76926914631E+03  0.87117399792E+03  0.90220604778E+02 0.  0.
        254    2    1    2    0    0  0.17004947149E+03 -0.36071115163E+03 -0.34154056749E+03  0.10303092900E+04  0.88648627524E+03 0.  0.
        -24    2    4    4    0    0 -0.11126347001E+03 -0.27599489784E+03 -0.57100661010E+03  0.64882585164E+03  0.79835415633E+02 0.  0.
         24    2    4    4    0    0  0.28131294150E+03 -0.84716253786E+02  0.22946604261E+03  0.38148343837E+03  0.81000829225E+02 0.  0.
         13    1    3    3    0    0 -0.90798996752E+01  0.42576962749E+02  0.38712077985E+02  0.58256907891E+02  0.00000000000E+00 0.  1.
        -13    1    3    3    0    0 -0.16096957181E+03  0.31813418888E+03  0.73055706832E+03  0.81291709003E+03  0.00000000000E+00 0. -1.
          4    1    6    6  502    0  0.20979485676E+03 -0.63137853245E+02  0.12249006917E+03  0.25100615029E+03  0.00000000000E+00 0. -1.
          1    1    5    5  503    0 -0.90884807987E+02 -0.25138952716E+03 -0.54713296181E+03  0.60894270715E+03  0.00000000000E+00 0. -1.
         -2    1    5    5    0  503 -0.20378662023E+02 -0.24605370678E+02 -0.23873648287E+02  0.39883144492E+02  0.00000000000E+00 0.  1.
         -3    1    6    6    0  502  0.71518084733E+02 -0.21578400541E+02  0.10697597344E+03  0.13047728809E+03  0.00000000000E+00 0.  1.
<mgrwt>
<rscale>  0 0.18527512E+04</rscale>
<asrwt>0</asrwt>
<pdfrwt beam="1">  1        1 0.17917014E+00 0.18527512E+04</pdfrwt>
<pdfrwt beam="2">  1       -1 0.11336575E+00 0.18527512E+04</pdfrwt>
<totfact> 0.75720760E+00</totfact>
</mgrwt>
</event>
<event>
12    1  0.1504874E-007  0.1737949E+04  0.7818608E-02  0.8740012E-01
         -2   -1    0    0    0  501 -0.00000000000E+00  0.00000000000E+00  0.15348617816E+04  0.15348617816E+04  0.00000000000E+00 0.  1.
          2   -1    0    0  501    0  0.00000000000E+00 -0.00000000000E+00 -0.49197682108E+03  0.49197682108E+03  0.00000000000E+00 0. -1.
         23    2    1    2    0    0 -0.15839090844E+03 -0.42407214023E+03 -0.20507912714E+03  0.50540317273E+03  0.91924200385E+02 0.  0.
        254    2    1    2    0    0  0.15839090844E+03  0.42407214023E+03  0.12479640876E+04  0.15214354299E+04  0.74325402347E+03 0.  0.
        -24    2    4    4    0    0  0.24449042222E+03 -0.13999225780E+03  0.41755819774E+03  0.51061368818E+03  0.83654594966E+02 0.  0.
         24    2    4    4    0    0 -0.86099513777E+02  0.56406439803E+03  0.83040588987E+03  0.10108217417E+04  0.81270414109E+02 0.  0.
         11    1    3    3    0    0 -0.88593271699E+02 -0.17406027165E+03 -0.44957154601E+02  0.20041679497E+03  0.00000000000E+00 0. -1.
        -11    1    3    3    0    0 -0.69797636743E+02 -0.25001186859E+03 -0.16012197254E+03  0.30498637776E+03  0.00000000000E+00 0.  1.
          4    1    6    6  502    0  0.89024226355E+01  0.60975071596E+02  0.12311427376E+03  0.13767475037E+03  0.00000000000E+00 0. -1.
          3    1    5    5  503    0  0.82280604370E+02 -0.94738084657E+02  0.17675430398E+03  0.21676597176E+03  0.00000000000E+00 0. -1.
         -4    1    5    5    0  503  0.16220981785E+03 -0.45254173140E+02  0.24080389376E+03  0.29384771642E+03  0.00000000000E+00 0.  1.
         -3    1    6    6    0  502 -0.95001936412E+02  0.50308932644E+03  0.70729161611E+03  0.87314699135E+03  0.00000000000E+00 0.  1.
<mgrwt>
<rscale>  0 0.17379487E+04</rscale>
<asrwt>0</asrwt>
<pdfrwt beam="1">  1        2 0.75688742E-01 0.17379487E+04</pdfrwt>
<pdfrwt beam="2">  1       -2 0.23613258E+00 0.17379487E+04</pdfrwt>
<totfact> 0.46587476E+00</totfact>
</mgrwt>
</event>
<event>
12    1  0.1504874E-007  0.2632736E+04  0.7818608E-02  0.8357166E-01
         -2   -1    0    0    0  501 -0.00000000000E+00  0.00000000000E+00  0.67261101832E+03  0.67261101832E+03  0.00000000000E+00 0.  1.
          2   -1    0    0  501    0  0.00000000000E+00 -0.00000000000E+00 -0.25762662944E+04  0.25762662944E+04  0.00000000000E+00 0. -1.
         23    2    1    2    0    0  0.27545737075E+03 -0.88576544713E+03  0.18327224574E+02  0.93190000767E+03  0.87433098385E+02 0.  0.
        254    2    1    2    0    0 -0.27545737075E+03  0.88576544713E+03 -0.19219825006E+04  0.23169773050E+04  0.90216955661E+03 0.  0.
        -24    2    4    4    0    0  0.29072663371E+03  0.93231439855E+02 -0.42300808821E+03  0.52755309341E+03  0.78500616243E+02 0.  0.
         24    2    4    4    0    0 -0.56618400446E+03  0.79253400728E+03 -0.14989744124E+04  0.17894242116E+04  0.80251108723E+02 0.  0.
         11    1    3    3    0    0  0.83581494696E+02 -0.27930560835E+03 -0.34714707066E+02  0.29360279290E+03  0.00000000000E+00 0. -1.
        -11    1    3    3    0    0  0.19187587606E+03 -0.60645983878E+03  0.53041931639E+02  0.63829721477E+03  0.00000000000E+00 0.  1.
          2    1    6    6  502    0 -0.27630585795E+03  0.32171194764E+03 -0.67328300489E+03  0.79570943759E+03  0.00000000000E+00 0. -1.
          3    1    5    5  503    0  0.30330476636E+02  0.35334421137E+02 -0.43877923171E+02  0.63982273107E+02  0.00000000000E+00 0. -1.
         -4    1    5    5    0  503  0.26039615707E+03  0.57897018718E+02 -0.37913016504E+03  0.46357082031E+03  0.00000000000E+00 0.  1.
         -1    1    6    6    0  502 -0.28987814651E+03  0.47082205964E+03 -0.82569140753E+03  0.99371477403E+03  0.00000000000E+00 0.  1.
<mgrwt>
<rscale>  0 0.26327363E+04</rscale>
<asrwt>0</asrwt>
<pdfrwt beam="1">  1        2 0.39634867E+00 0.26327363E+04</pdfrwt>
<pdfrwt beam="2">  1       -2 0.10347862E+00 0.26327363E+04</pdfrwt>
<totfact> 0.21098523E+00</totfact>
</mgrwt>
</event>
<event>
12    1  0.1504874E-007  0.2495648E+04  0.7818608E-02  0.8404538E-01
          1   -1    0    0  501    0  0.00000000000E+00  0.00000000000E+00  0.18153572995E+04  0.18153572995E+04  0.00000000000E+00 0. -1.
         -1   -1    0    0    0  501 -0.00000000000E+00 -0.00000000000E+00 -0.85771807076E+03  0.85771807076E+03  0.00000000000E+00 0.  1.
         23    2    1    2    0    0 -0.10477632079E+04  0.25655691929E+03  0.54094957014E+03  0.12103797390E+04  0.93613473392E+02 0.  0.
        254    2    1    2    0    0  0.10477632079E+04 -0.25655691929E+03  0.41668965863E+03  0.14626956313E+04  0.89566681618E+03 0.  0.
        -24    2    4    4    0    0 -0.12890739592E+03  0.78075671547E+00  0.17549777903E+03  0.23178039250E+03  0.79403737926E+02 0.  0.
         24    2    4    4    0    0  0.11766706038E+04 -0.25733767601E+03  0.24119187960E+03  0.12309152388E+04  0.78755399739E+02 0.  0.
         11    1    3    3    0    0 -0.28080129830E+03  0.26612263145E+02  0.13762339966E+03  0.31384356264E+03  0.00000000000E+00 0. -1.
        -11    1    3    3    0    0 -0.76696190960E+03  0.22994465615E+03  0.40332617048E+03  0.89653617633E+03  0.00000000000E+00 0.  1.
          4    1    6    6  502    0  0.20461737088E+02 -0.15730068412E+02  0.69684516092E+01  0.26733444498E+02  0.00000000000E+00 0. -1.
          3    1    5    5  503    0 -0.69996487556E+01  0.24654527865E+02  0.43743861531E+02  0.50698779557E+02  0.00000000000E+00 0. -1.
         -4    1    5    5    0  503 -0.12190774717E+03 -0.23873771149E+02  0.13175391750E+03  0.18108161294E+03  0.00000000000E+00 0.  1.
         -3    1    6    6    0  502  0.11562088667E+04 -0.24160760760E+03  0.23422342799E+03  0.12041817943E+04  0.00000000000E+00 0.  1.
<mgrwt>
<rscale>  0 0.24956480E+04</rscale>
<asrwt>0</asrwt>
<pdfrwt beam="1">  1        1 0.27928574E+00 0.24956480E+04</pdfrwt>
<pdfrwt beam="2">  1       -1 0.13195663E+00 0.24956480E+04</pdfrwt>
<totfact> 0.17258080E+00</totfact>
</mgrwt>
</event>
<event>
12    1  0.1504874E-007  0.1840360E+04  0.7818608E-02  0.8685126E-01
          1   -1    0    0  501    0  0.00000000000E+00  0.00000000000E+00  0.75759274512E+03  0.75759274512E+03  0.00000000000E+00 0. -1.
         -1   -1    0    0    0  501 -0.00000000000E+00 -0.00000000000E+00 -0.11176603632E+04  0.11176603632E+04  0.00000000000E+00 0.  1.
         23    2    1    2    0    0 -0.19409382239E+03  0.66286766976E+03 -0.21214728897E+03  0.72941487884E+03  0.99868081757E+02 0.  0.
        254    2    1    2    0    0  0.19409382239E+03 -0.66286766976E+03 -0.14792032915E+03  0.11458382295E+04  0.90221885646E+03 0.  0.
        -24    2    4    4    0    0  0.20861101634E+03  0.44658545023E+02  0.24281403611E+03  0.33338323052E+03  0.81687088791E+02 0.  0.
         24    2    4    4    0    0 -0.14517193956E+02 -0.70752621478E+03 -0.39073436527E+03  0.81245499900E+03  0.81275381780E+02 0.  0.
         13    1    3    3    0    0 -0.49649533375E+02  0.84745499050E+02 -0.57378169093E+02  0.11375029698E+03  0.00000000000E+00 0.  1.
        -13    1    3    3    0    0 -0.14444428901E+03  0.57812217071E+03 -0.15476911988E+03  0.61566458186E+03  0.00000000000E+00 0. -1.
          2    1    6    6  502    0  0.74158393017E+01 -0.65865902467E+03 -0.35847923066E+03  0.74992937285E+03  0.00000000000E+00 0. -1.
          1    1    5    5  503    0  0.74969821818E+02  0.55431627895E+02  0.83516726035E+02  0.12517261315E+03  0.00000000000E+00 0. -1.
         -2    1    5    5    0  503  0.13364119452E+03 -0.10773082872E+02  0.15929731008E+03  0.20821061737E+03  0.00000000000E+00 0.  1.
         -1    1    6    6    0  502 -0.21933033257E+02 -0.48867190112E+02 -0.32255134604E+02  0.62525626151E+02  0.00000000000E+00 0.  1.
<mgrwt>
<rscale>  0 0.18403602E+04</rscale>
<asrwt>0</asrwt>
<pdfrwt beam="1">  1        1 0.11655273E+00 0.18403602E+04</pdfrwt>
<pdfrwt beam="2">  1       -1 0.17194775E+00 0.18403602E+04</pdfrwt>
<totfact> 0.53976852E+00</totfact>
</mgrwt>
</event>
<event>
12    1  0.1504874E-007  0.1302820E+04  0.7818608E-02  0.9027332E-01
          2   -1    0    0  501    0  0.00000000000E+00  0.00000000000E+00  0.20369699759E+04  0.20369699759E+04  0.00000000000E+00 0. -1.
         -2   -1    0    0    0  501 -0.00000000000E+00 -0.00000000000E+00 -0.20831661792E+03  0.20831661792E+03  0.00000000000E+00 0.  1.
         23    2    1    2    0    0  0.11861949456E+03  0.46848405629E+02 -0.50205680558E+02  0.16491186845E+03  0.91705814403E+02 0.  0.
        254    2    1    2    0    0 -0.11861949456E+03 -0.46848405629E+02  0.18788590385E+04  0.20803747254E+04  0.88407146412E+03 0.  0.
        -24    2    4    4    0    0  0.16209952738E+02 -0.20008098165E+03  0.18459524421E+04  0.18585274033E+04  0.79300244121E+02 0.  0.
         24    2    4    4    0    0 -0.13482944730E+03  0.15323257602E+03  0.32906596467E+02  0.22184732205E+03  0.80462339005E+02 0.  0.
         11    1    3    3    0    0  0.52008390056E+02  0.68721462509E+02 -0.35876093784E+02  0.93352054882E+02  0.00000000000E+00 0.  1.
        -11    1    3    3    0    0  0.66611104507E+02 -0.21873056879E+02 -0.14329586774E+02  0.71559813569E+02  0.00000000000E+00 0. -1.
          2    1    6    6  502    0 -0.55122782395E+02  0.55904205970E+02  0.52617257337E+02  0.94511254112E+02  0.00000000000E+00 0. -1.
          3    1    5    5  503    0  0.21110287326E+02 -0.82202043000E+02  0.47622978858E+03  0.48373301690E+03  0.00000000000E+00 0. -1.
         -4    1    5    5    0  503 -0.49003345878E+01 -0.11787893865E+03  0.13697226535E+04  0.13747943864E+04  0.00000000000E+00 0.  1.
         -1    1    6    6    0  502 -0.79706664907E+02  0.97328370049E+02 -0.19710660870E+02  0.12733606794E+03  0.00000000000E+00 0.  1.
<mgrwt>
<rscale>  0 0.13028196E+04</rscale>
<asrwt>0</asrwt>
<pdfrwt beam="1">  1        2 0.31337998E+00 0.13028196E+04</pdfrwt>
<pdfrwt beam="2">  1       -2 0.32048712E-01 0.13028196E+04</pdfrwt>
<totfact> 0.56621447E+01</totfact>
</mgrwt>
</event>
<event>
12    1  0.1504874E-007  0.1728845E+04  0.7818608E-02  0.8745082E-01
          2   -1    0    0  501    0  0.00000000000E+00  0.00000000000E+00  0.97700897697E+03  0.97700897697E+03  0.00000000000E+00 0. -1.
         -2   -1    0    0    0  501 -0.00000000000E+00 -0.00000000000E+00 -0.76481027088E+03  0.76481027088E+03  0.00000000000E+00 0.  1.
         23    2    1    2    0    0  0.25740820358E+03 -0.23763888856E+03 -0.49478715031E+03  0.61296363112E+03  0.90437073883E+02 0.  0.
        254    2    1    2    0    0 -0.25740820358E+03  0.23763888856E+03  0.70698585639E+03  0.11288556167E+04  0.80731330824E+03 0.  0.
        -24    2    4    4    0    0 -0.52896719510E+03  0.50641285639E+02  0.38409650079E+03  0.66045644953E+03  0.79383666533E+02 0.  0.
         24    2    4    4    0    0  0.27155899152E+03  0.18699760292E+03  0.32288935560E+03  0.46839916720E+03  0.80173901609E+02 0.  0.
         13    1    3    3    0    0  0.72915325006E+02 -0.80757437785E+02 -0.22812687103E+03  0.25274548001E+03  0.00000000000E+00 0. -1.
        -13    1    3    3    0    0  0.18449287858E+03 -0.15688145078E+03 -0.26666027928E+03  0.36021815111E+03  0.00000000000E+00 0.  1.
          4    1    6    6  502    0  0.96465681947E+01 -0.46502428333E+01  0.16314394105E+00  0.10710165839E+02  0.00000000000E+00 0. -1.
          3    1    5    5  503    0 -0.13798971712E+03  0.41204842014E+02  0.77695224750E+02  0.16363235923E+03  0.00000000000E+00 0. -1.
         -4    1    5    5    0  503 -0.39097747798E+03  0.94364436246E+01  0.30640127604E+03  0.49682409031E+03  0.00000000000E+00 0.  1.
         -3    1    6    6    0  502  0.26191242332E+03  0.19164784576E+03  0.32272621166E+03  0.45768900136E+03  0.00000000000E+00 0.  1.
<mgrwt>
<rscale>  0 0.17288453E+04</rscale>
<asrwt>0</asrwt>
<pdfrwt beam="1">  1        2 0.15030907E+00 0.17288453E+04</pdfrwt>
<pdfrwt beam="2">  1       -2 0.11766312E+00 0.17288453E+04</pdfrwt>
<totfact> 0.13797384E+01</totfact>
</mgrwt>
</event>
<event>
12    1  0.1504874E-007  0.1734384E+04  0.7818608E-02  0.8741993E-01
          1   -1    0    0  501    0  0.00000000000E+00  0.00000000000E+00  0.12238149604E+04  0.12238149604E+04  0.00000000000E+00 0. -1.
         -1   -1    0    0    0  501 -0.00000000000E+00 -0.00000000000E+00 -0.61449027065E+03  0.61449027065E+03  0.00000000000E+00 0.  1.
         23    2    1    2    0    0  0.18292874261E+03 -0.47936429675E+03  0.57717948077E+03  0.77768177391E+03  0.91650065918E+02 0.  0.
        254    2    1    2    0    0 -0.18292874261E+03  0.47936429675E+03  0.32145208992E+02  0.10606234572E+04  0.92770455940E+03 0.  0.
        -24    2    4    4    0    0 -0.28571731823E+03 -0.20196789754E+03 -0.48639657216E+02  0.36223974872E+03  0.80164840970E+02 0.  0.
         24    2    4    4    0    0  0.10278857561E+03  0.68133219428E+03  0.80784866208E+02  0.69838370843E+03  0.80215705155E+02 0.  0.
         13    1    3    3    0    0  0.19091717831E+02 -0.27770533844E+02  0.77602803819E+02  0.84604322586E+02  0.00000000000E+00 0.  1.
        -13    1    3    3    0    0  0.16383702478E+03 -0.45159376290E+03  0.49957667695E+03  0.69307745132E+03  0.00000000000E+00 0. -1.
          2    1    6    6  502    0  0.31556759502E+02  0.13330779286E+03  0.46569829181E+02  0.14469120808E+03  0.00000000000E+00 0. -1.
          1    1    5    5  503    0 -0.19447271660E+02 -0.90458780542E+00 -0.19109360860E+02  0.27279705398E+02  0.00000000000E+00 0. -1.
         -2    1    5    5    0  503 -0.26627004657E+03 -0.20106330973E+03 -0.29530296356E+02  0.33496004332E+03  0.00000000000E+00 0.  1.
         -1    1    6    6    0  502  0.71231816112E+02  0.54802440142E+03  0.34215037027E+02  0.55369250035E+03  0.00000000000E+00 0.  1.
<mgrwt>
<rscale>  0 0.17343845E+04</rscale>
<asrwt>0</asrwt>
<pdfrwt beam="1">  1        1 0.18827922E+00 0.17343845E+04</pdfrwt>
<pdfrwt beam="2">  1       -1 0.94536965E-01 0.17343845E+04</pdfrwt>
<totfact> 0.10546841E+01</totfact>
</mgrwt>
</event>
<event>
12    1  0.1504874E-007  0.2241865E+04  0.7818608E-02  0.8501202E-01
          2   -1    0    0  501    0  0.00000000000E+00  0.00000000000E+00  0.17679484956E+04  0.17679484956E+04  0.00000000000E+00 0. -1.
         -2   -1    0    0    0  501 -0.00000000000E+00 -0.00000000000E+00 -0.71070477682E+03  0.71070477682E+03  0.00000000000E+00 0.  1.
         23    2    1    2    0    0  0.29022125229E+03 -0.62194709943E+03 -0.26072103819E+03  0.73915017962E+03  0.85562599889E+02 0.  0.
        254    2    1    2    0    0 -0.29022125229E+03  0.62194709943E+03  0.13179647570E+04  0.17395030928E+04  0.90431926858E+03 0.  0.
        -24    2    4    4    0    0 -0.57851020672E+03  0.52355584031E+03  0.11179860344E+04  0.13656380501E+04  0.79307840475E+02 0.  0.
         24    2    4    4    0    0  0.28828895444E+03  0.98391259124E+02  0.19997872258E+03  0.37386504272E+03  0.83619492719E+02 0.  0.
         11    1    3    3    0    0  0.10271971157E+03 -0.13398142538E+03 -0.68011913861E+02  0.18201093900E+03  0.00000000000E+00 0. -1.
        -11    1    3    3    0    0  0.18750154072E+03 -0.48796567406E+03 -0.19270912433E+03  0.55713924061E+03  0.00000000000E+00 0.  1.
          4    1    6    6  502    0  0.18537933227E+03  0.99815580155E+02  0.11207245394E+03  0.23851390276E+03  0.00000000000E+00 0. -1.
          3    1    5    5  503    0 -0.13058893142E+03  0.76517154503E+02  0.20818714917E+03  0.25739120618E+03  0.00000000000E+00 0. -1.
         -4    1    5    5    0  503 -0.44792127530E+03  0.44703868580E+03  0.90979888526E+03  0.11082468439E+04  0.00000000000E+00 0.  1.
         -3    1    6    6    0  502  0.10290962216E+03 -0.14243210305E+01  0.87906268634E+02  0.13535113996E+03  0.00000000000E+00 0.  1.
<mgrwt>
<rscale>  0 0.22418648E+04</rscale>
<asrwt>0</asrwt>
<pdfrwt beam="1">  1        2 0.27199208E+00 0.22418648E+04</pdfrwt>
<pdfrwt beam="2">  1       -2 0.10933920E+00 0.22418648E+04</pdfrwt>
<totfact> 0.54596921E+00</totfact>
</mgrwt>
</event>
<event>
12    1  0.1504874E-007  0.1157063E+04  0.7818608E-02  0.9151292E-01
          2   -1    0    0  501    0  0.00000000000E+00  0.00000000000E+00  0.20395788447E+04  0.20395788447E+04  0.00000000000E+00 0. -1.
         -2   -1    0    0    0  501 -0.00000000000E+00 -0.00000000000E+00 -0.16410183745E+03  0.16410183745E+03  0.00000000000E+00 0.  1.
         23    2    1    2    0    0 -0.50438744412E+02 -0.21807911905E+03  0.45500131110E+03  0.51511219185E+03  0.90619026644E+02 0.  0.
        254    2    1    2    0    0  0.50438744412E+02  0.21807911905E+03  0.14204756961E+04  0.16885684903E+04  0.88510438590E+03 0.  0.
        -24    2    4    4    0    0  0.34368398729E+01 -0.97803789039E+02  0.13429911112E+04  0.13495158446E+04  0.89389580045E+02 0.  0.
         24    2    4    4    0    0  0.47001904539E+02  0.31588290809E+03  0.77484584928E+02  0.33905264568E+03  0.83436472763E+02 0.  0.
         11    1    3    3    0    0  0.70610962593E+01 -0.90595436812E+02  0.10895962512E+03  0.14187879390E+03  0.00000000000E+00 0. -1.
        -11    1    3    3    0    0 -0.57499840671E+02 -0.12748368224E+03  0.34604168598E+03  0.37323339795E+03  0.00000000000E+00 0.  1.
          4    1    6    6  502    0  0.23108451229E+02  0.23632935149E+02 -0.72315691488E+01  0.33835066637E+02  0.00000000000E+00 0. -1.
          1    1    5    5  503    0 -0.17721076013E+02 -0.51832955937E+02  0.10973328764E+04  0.10986992917E+04  0.00000000000E+00 0. -1.
         -2    1    5    5    0  503  0.21157915886E+02 -0.45970833102E+02  0.24565823475E+03  0.25081655288E+03  0.00000000000E+00 0.  1.
         -3    1    6    6    0  502  0.23893453309E+02  0.29224997294E+03  0.84716154076E+02  0.30521757904E+03  0.00000000000E+00 0.  1.
<mgrwt>
<rscale>  0 0.11570629E+04</rscale>
<asrwt>0</asrwt>
<pdfrwt beam="1">  1        2 0.31378134E+00 0.11570629E+04</pdfrwt>
<pdfrwt beam="2">  1       -2 0.25246438E-01 0.11570629E+04</pdfrwt>
<totfact> 0.88725956E+01</totfact>
</mgrwt>
</event>
<event>
12    1  0.1504874E-007  0.2404845E+04  0.7818608E-02  0.8437692E-01
          2   -1    0    0  501    0  0.00000000000E+00  0.00000000000E+00  0.11084230635E+04  0.11084230635E+04  0.00000000000E+00 0.  1.
         -2   -1    0    0    0  501 -0.00000000000E+00 -0.00000000000E+00 -0.13043937772E+04  0.13043937772E+04  0.00000000000E+00 0. -1.
         23    2    1    2    0    0  0.57965152605E+03 -0.42199926174E+03 -0.83228959254E+03  0.11023366336E+04  0.91437515776E+02 0.  0.
        254    2    1    2    0    0 -0.57965152605E+03  0.42199926174E+03  0.63631887890E+03  0.13104802071E+04  0.89351966352E+03 0.  0.
        -24    2    4    4    0    0 -0.27610921915E+03 -0.25710569297E+03  0.13121830766E+03  0.40740236795E+03  0.80117456799E+02 0.  0.
         24    2    4    4    0    0 -0.30354230690E+03  0.67910495471E+03  0.50510057124E+03  0.90307783919E+03  0.84270546334E+02 0.  0.
         11    1    3    3    0    0  0.54410812221E+03 -0.40657800808E+03 -0.81189447950E+03  0.10585518273E+04  0.00000000000E+00 0. -1.
        -11    1    3    3    0    0  0.35543403844E+02 -0.15421253655E+02 -0.20395113046E+02  0.43784806237E+02  0.00000000000E+00 0.  1.
          4    1    6    6  502    0 -0.55596638623E+02  0.21662831197E+03  0.14107073317E+03  0.26442345495E+03  0.00000000000E+00 0. -1.
          3    1    5    5  503    0 -0.15578894428E+03 -0.93389176302E+02  0.75691925617E+02  0.19677652557E+03  0.00000000000E+00 0. -1.
         -2    1    5    5    0  503 -0.12032027488E+03 -0.16371651667E+03  0.55526382039E+02  0.21062584238E+03  0.00000000000E+00 0.  1.
         -3    1    6    6    0  502 -0.24794566827E+03  0.46247664274E+03  0.36402983807E+03  0.63865438423E+03  0.00000000000E+00 0.  1.
<mgrwt>
<rscale>  0 0.24048452E+04</rscale>
<asrwt>0</asrwt>
<pdfrwt beam="1">  1        2 0.17052663E+00 0.24048452E+04</pdfrwt>
<pdfrwt beam="2">  1       -2 0.20067596E+00 0.24048452E+04</pdfrwt>
<totfact> 0.25471009E+00</totfact>
</mgrwt>
</event>
<event>
12    1  0.1504874E-007  0.2076743E+04  0.7818608E-02  0.8571558E-01
         -2   -1    0    0    0  501 -0.00000000000E+00  0.00000000000E+00  0.48686328305E+03  0.48686328305E+03  0.00000000000E+00 0.  1.
          2   -1    0    0  501    0  0.00000000000E+00 -0.00000000000E+00 -0.22146170563E+04  0.22146170563E+04  0.00000000000E+00 0. -1.
         23    2    1    2    0    0 -0.36236714358E+03  0.73120952030E+03 -0.43409029894E+03  0.92918333189E+03  0.94709911323E+02 0.  0.
        254    2    1    2    0    0  0.36236714358E+03 -0.73120952030E+03 -0.12936634743E+04  0.17722970074E+04  0.89526207813E+03 0.  0.
        -24    2    4    4    0    0  0.45842711756E+03 -0.52220541253E+03 -0.13516236386E+04  0.15220840222E+04  0.83662388436E+02 0.  0.
         24    2    4    4    0    0 -0.96059973973E+02 -0.20900410777E+03  0.57960164291E+02  0.25021298525E+03  0.79604784284E+02 0.  0.
         13    1    3    3    0    0 -0.16056720053E+03  0.36857486332E+03 -0.16498746295E+03  0.43456888831E+03  0.00000000000E+00 0. -1.
        -13    1    3    3    0    0 -0.20179994306E+03  0.36263465698E+03 -0.26910283599E+03  0.49461444358E+03  0.00000000000E+00 0.  1.
          2    1    6    6  502    0 -0.80761036855E+02 -0.20765295369E+03  0.66657967983E+02  0.23256263445E+03  0.00000000000E+00 0. -1.
          3    1    5    5  503    0  0.22706775043E+03 -0.23508168836E+03 -0.71987698429E+03  0.79059853022E+03  0.00000000000E+00 0. -1.
         -4    1    5    5    0  503  0.23135936713E+03 -0.28712372417E+03 -0.63174665427E+03  0.73148549194E+03  0.00000000000E+00 0.  1.
         -1    1    6    6    0  502 -0.15298937118E+02 -0.13511540833E+01 -0.86978036922E+01  0.17650350800E+02  0.00000000000E+00 0.  1.
<mgrwt>
<rscale>  0 0.20767433E+04</rscale>
<asrwt>0</asrwt>
<pdfrwt beam="1">  1        2 0.34071032E+00 0.20767433E+04</pdfrwt>
<pdfrwt beam="2">  1       -2 0.74902044E-01 0.20767433E+04</pdfrwt>
<totfact> 0.74916566E+00</totfact>
</mgrwt>
</event>
<event>
12    1  0.1504874E-007  0.1416898E+04  0.7818608E-02  0.8941677E-01
          1   -1    0    0  501    0  0.00000000000E+00  0.00000000000E+00  0.91133969184E+03  0.91133969184E+03  0.00000000000E+00 0. -1.
         -1   -1    0    0    0  501 -0.00000000000E+00 -0.00000000000E+00 -0.55072760685E+03  0.55072760685E+03  0.00000000000E+00 0.  1.
         23    2    1    2    0    0  0.10688434964E+03  0.91412263615E+01  0.53152835436E+03  0.54873367185E+03  0.84133375758E+02 0.  0.
        254    2    1    2    0    0 -0.10688434964E+03 -0.91412263615E+01 -0.17091626937E+03  0.91333362684E+03  0.89076266006E+03 0.  0.
        -24    2    4    4    0    0  0.11902294169E+03  0.38683351351E+03  0.18812438928E+02  0.41307140833E+03  0.80420474358E+02 0.  0.
         24    2    4    4    0    0 -0.22590729133E+03 -0.39597473987E+03 -0.18972870830E+03  0.50026221851E+03  0.80219733392E+02 0.  0.
         11    1    3    3    0    0  0.21321396916E+02 -0.34247258103E+02  0.16449178511E+03  0.16936653750E+03  0.00000000000E+00 0.  1.
        -11    1    3    3    0    0  0.85562952722E+02  0.43388484465E+02  0.36703656924E+03  0.37936713435E+03  0.00000000000E+00 0. -1.
          2    1    6    6  502    0 -0.11447714986E+03 -0.15624487178E+03 -0.11615783652E+03  0.22585420249E+03  0.00000000000E+00 0. -1.
          1    1    5    5  503    0  0.45576008642E+02  0.10754552344E+03 -0.29014117114E+02  0.12035377505E+03  0.00000000000E+00 0. -1.
         -4    1    5    5    0  503  0.73446933052E+02  0.27928799007E+03  0.47826556042E+02  0.29271763328E+03  0.00000000000E+00 0.  1.
         -1    1    6    6    0  502 -0.11143014147E+03 -0.23972986808E+03 -0.73570871778E+02  0.27440801602E+03  0.00000000000E+00 0.  1.
<mgrwt>
<rscale>  0 0.14168979E+04</rscale>
<asrwt>0</asrwt>
<pdfrwt beam="1">  1        1 0.14020611E+00 0.14168979E+04</pdfrwt>
<pdfrwt beam="2">  1       -1 0.84727324E-01 0.14168979E+04</pdfrwt>
<totfact> 0.23920014E+01</totfact>
</mgrwt>
</event>
<event>
12    1  0.1504874E-007  0.1708971E+04  0.7818608E-02  0.8756265E-01
         -2   -1    0    0    0  501 -0.00000000000E+00  0.00000000000E+00  0.38839431334E+03  0.38839431334E+03  0.00000000000E+00 0.  1.
          2   -1    0    0  501    0  0.00000000000E+00 -0.00000000000E+00 -0.18799067753E+04  0.18799067753E+04  0.00000000000E+00 0. -1.
         23    2    1    2    0    0 -0.25815813161E+03 -0.16196397815E+03  0.16626175693E+03  0.35892856977E+03  0.91152593181E+02 0.  0.
        254    2    1    2    0    0  0.25815813161E+03  0.16196397815E+03 -0.16577742189E+04  0.19093725189E+04  0.89700061534E+03 0.  0.
        -24    2    4    4    0    0 -0.73085104438E+02  0.47079757049E+03 -0.93883835769E+03  0.10558704367E+04  0.80331390866E+02 0.  0.
         24    2    4    4    0    0  0.33124323605E+03 -0.30883359233E+03 -0.71893586122E+03  0.85350208221E+03  0.80602497447E+02 0.  0.
         13    1    3    3    0    0 -0.11323197981E+03 -0.20473833458E+02  0.69870676603E+02  0.13462009715E+03  0.00000000000E+00 0.  1.
        -13    1    3    3    0    0 -0.14492615180E+03 -0.14149014469E+03  0.96391080322E+02  0.22430847261E+03  0.00000000000E+00 0. -1.
          2    1    6    6  502    0  0.32585396796E+03 -0.29555636802E+03 -0.66239623048E+03  0.79517491237E+03  0.00000000000E+00 0. -1.
          1    1    5    5  503    0 -0.21979654675E+02  0.22028852720E+03 -0.52001329970E+03  0.56517605425E+03  0.00000000000E+00 0. -1.
         -2    1    5    5    0  503 -0.51105449763E+02  0.25050904329E+03 -0.41882505798E+03  0.49069438244E+03  0.00000000000E+00 0.  1.
         -1    1    6    6    0  502  0.53892680851E+01 -0.13277224319E+02 -0.56539630749E+02  0.58327169838E+02  0.00000000000E+00 0.  1.
<mgrwt>
<rscale>  0 0.17089706E+04</rscale>
<asrwt>0</asrwt>
<pdfrwt beam="1">  1        2 0.28921643E+00 0.17089706E+04</pdfrwt>
<pdfrwt beam="2">  1       -2 0.59752972E-01 0.17089706E+04</pdfrwt>
<totfact> 0.19354674E+01</totfact>
</mgrwt>
</event>
<event>
12    1  0.1504874E-007  0.1614509E+04  0.7818608E-02  0.8811684E-01
          3   -1    0    0  501    0  0.00000000000E+00  0.00000000000E+00  0.30814770352E+03  0.30814770352E+03  0.00000000000E+00 0. -1.
         -3   -1    0    0    0  501 -0.00000000000E+00 -0.00000000000E+00 -0.21147655423E+04  0.21147655423E+04  0.00000000000E+00 0.  1.
         23    2    1    2    0    0  0.62746248215E+02  0.50031161425E+03 -0.29012400695E+03  0.58907949825E+03  0.92703359338E+02 0.  0.
        254    2    1    2    0    0 -0.62746248215E+02 -0.50031161425E+03 -0.15164938318E+04  0.18338337475E+04  0.89941306900E+03 0.  0.
        -24    2    4    4    0    0 -0.19065171747E+03  0.15001543950E+03 -0.11228067439E+03  0.27894411286E+03  0.79687883623E+02 0.  0.
         24    2    4    4    0    0  0.12790546926E+03 -0.65032705375E+03 -0.14042131574E+04  0.15548896347E+04  0.81130134048E+02 0.  0.
         13    1    3    3    0    0  0.44633556109E+02  0.92844285750E+02 -0.39298901652E+02  0.11025706054E+03  0.00000000000E+00 0.  1.
        -13    1    3    3    0    0  0.18112692106E+02  0.40746732850E+03 -0.25082510529E+03  0.47882243771E+03  0.00000000000E+00 0. -1.
          2    1    6    6  502    0  0.81423979097E+02 -0.25091130821E+03 -0.61332715276E+03  0.66765001706E+03  0.00000000000E+00 0. -1.
          3    1    5    5  503    0 -0.14120803033E+03  0.85275491844E+02 -0.39308295764E+02  0.16957818095E+03  0.00000000000E+00 0. -1.
         -4    1    5    5    0  503 -0.49443687142E+02  0.64739947659E+02 -0.72972378624E+02  0.10936593191E+03  0.00000000000E+00 0.  1.
         -1    1    6    6    0  502  0.46481490160E+02 -0.39941574554E+03 -0.79088600464E+03  0.88723961760E+03  0.00000000000E+00 0.  1.
<mgrwt>
<rscale>  0 0.16145094E+04</rscale>
<asrwt>0</asrwt>
<pdfrwt beam="1">  1        3 0.47407340E-01 0.16145094E+04</pdfrwt>
<pdfrwt beam="2">  1       -3 0.32534854E+00 0.16145094E+04</pdfrwt>
<totfact> 0.30571306E-01</totfact>
</mgrwt>
</event>
<event>
12    1  0.1504874E-007  0.1711353E+04  0.7818608E-02  0.8754916E-01
          1   -1    0    0  501    0  0.00000000000E+00  0.00000000000E+00  0.49221771261E+03  0.49221771261E+03  0.00000000000E+00 0. -1.
         -1   -1    0    0    0  501 -0.00000000000E+00 -0.00000000000E+00 -0.14875162884E+04  0.14875162884E+04  0.00000000000E+00 0.  1.
         23    2    1    2    0    0 -0.11337908003E+02  0.27541209810E+03  0.27331457599E+03  0.39851658271E+03  0.90190006694E+02 0.  0.
        254    2    1    2    0    0  0.11337908003E+02 -0.27541209810E+03 -0.12686131518E+04  0.15812174183E+04  0.90271192699E+03 0.  0.
        -24    2    4    4    0    0 -0.34141761584E+03  0.13390080144E+03 -0.68873922688E+03  0.78460516290E+03  0.82146977801E+02 0.  0.
         24    2    4    4    0    0  0.35275552385E+03 -0.40931289954E+03 -0.57987392493E+03  0.79661225543E+03  0.79773475262E+02 0.  0.
         13    1    3    3    0    0 -0.45108905648E+02  0.14841755621E+03  0.11695469115E+03  0.19427038926E+03  0.00000000000E+00 0.  1.
        -13    1    3    3    0    0  0.33770997645E+02  0.12699454188E+03  0.15635988484E+03  0.20424619345E+03  0.00000000000E+00 0. -1.
          4    1    6    6  502    0  0.10456719966E+03 -0.10334508019E+03 -0.11113660873E+03  0.18429826544E+03  0.00000000000E+00 0. -1.
          1    1    5    5  503    0 -0.31192130003E+03  0.11239347572E+03 -0.65828131565E+03  0.73706273908E+03  0.00000000000E+00 0. -1.
         -2    1    5    5    0  503 -0.29496315816E+02  0.21507325717E+02 -0.30457911228E+02  0.47542423819E+02  0.00000000000E+00 0.  1.
         -3    1    6    6    0  502  0.24818832419E+03 -0.30596781934E+03 -0.46873731621E+03  0.61231399000E+03  0.00000000000E+00 0.  1.
<mgrwt>
<rscale>  0 0.17113525E+04</rscale>
<asrwt>0</asrwt>
<pdfrwt beam="1">  1        1 0.75725800E-01 0.17113525E+04</pdfrwt>
<pdfrwt beam="2">  1       -1 0.22884867E+00 0.17113525E+04</pdfrwt>
<totfact> 0.41365345E+00</totfact>
</mgrwt>
</event>
<event>
12    1  0.1504874E-007  0.1226919E+04  0.7818608E-02  0.9089615E-01
         -1   -1    0    0    0  501 -0.00000000000E+00  0.00000000000E+00  0.40246427075E+03  0.40246427075E+03  0.00000000000E+00 0.  1.
          1   -1    0    0  501    0  0.00000000000E+00 -0.00000000000E+00 -0.93507076201E+03  0.93507076201E+03  0.00000000000E+00 0. -1.
         23    2    1    2    0    0 -0.10488474933E+02 -0.23894104750E+03 -0.26933403323E+03  0.37088619079E+03  0.88390682646E+02 0.  0.
        254    2    1    2    0    0  0.10488474933E+02  0.23894104750E+03 -0.26327245804E+03  0.96664884198E+03  0.89882966365E+03 0.  0.
        -24    2    4    4    0    0  0.18465099616E+03  0.47590736373E+03 -0.37882474317E+03  0.64051714002E+03  0.78550693142E+02 0.  0.
         24    2    4    4    0    0 -0.17416252123E+03 -0.23696631623E+03  0.11555228514E+03  0.32613170195E+03  0.80770895698E+02 0.  0.
         11    1    3    3    0    0  0.57678269921E+01  0.38259997158E+01  0.12096575419E+01  0.70263342794E+01  0.00000000000E+00 0.  1.
        -11    1    3    3    0    0 -0.16256301925E+02 -0.24276704721E+03 -0.27054369077E+03  0.36385985651E+03  0.00000000000E+00 0. -1.
          4    1    6    6  502    0 -0.34426393536E+02 -0.92838174830E+02  0.10532471837E+02  0.99574274994E+02  0.00000000000E+00 0. -1.
          3    1    5    5  503    0  0.38406951623E+02  0.13599283116E+03 -0.65990485250E+02  0.15596117531E+03  0.00000000000E+00 0. -1.
         -4    1    5    5    0  503  0.14624404454E+03  0.33991453257E+03 -0.31283425792E+03  0.48455596472E+03  0.00000000000E+00 0.  1.
         -3    1    6    6    0  502 -0.13973612769E+03 -0.14412814140E+03  0.10501981330E+03  0.22655742696E+03  0.00000000000E+00 0.  1.
<mgrwt>
<rscale>  0 0.12269190E+04</rscale>
<asrwt>0</asrwt>
<pdfrwt beam="1">  1        1 0.14385704E+00 0.12269190E+04</pdfrwt>
<pdfrwt beam="2">  1       -1 0.61917581E-01 0.12269190E+04</pdfrwt>
<totfact> 0.44533057E+01</totfact>
</mgrwt>
</event>
<event>
12    1  0.1504874E-007  0.1753862E+04  0.7818608E-02  0.8731227E-01
         -2   -1    0    0    0  501 -0.00000000000E+00  0.00000000000E+00  0.78901191431E+03  0.78901191431E+03  0.00000000000E+00 0. -1.
          2   -1    0    0  501    0  0.00000000000E+00 -0.00000000000E+00 -0.97464736061E+03  0.97464736061E+03  0.00000000000E+00 0.  1.
         23    2    1    2    0    0  0.27838016106E+03 -0.30524014964E+03 -0.58781647612E+03  0.72434942531E+03  0.92123923700E+02 0.  0.
        254    2    1    2    0    0 -0.27838016106E+03  0.30524014964E+03  0.40218102982E+03  0.10393098496E+04  0.86472441837E+03 0.  0.
        -24    2    4    4    0    0 -0.12712239593E+03 -0.56008620245E+02 -0.23644331125E+03  0.28573286845E+03  0.80254368054E+02 0.  0.
         24    2    4    4    0    0 -0.15125776513E+03  0.36124876988E+03  0.63862434107E+03  0.75357698115E+03  0.81594315147E+02 0.  0.
         13    1    3    3    0    0  0.25837243113E+03 -0.28918357562E+03 -0.49938929340E+03  0.63227614215E+03  0.00000000000E+00 0.  1.
        -13    1    3    3    0    0  0.20007729932E+02 -0.16056574022E+02 -0.88427182724E+02  0.92073283155E+02  0.00000000000E+00 0. -1.
          2    1    6    6  502    0 -0.30746810974E+02  0.93724576215E+02  0.10149084511E+03  0.14152757403E+03  0.00000000000E+00 0. -1.
          3    1    5    5  503    0 -0.31111926316E+02 -0.26119327346E+01 -0.12654759614E+03  0.13034211997E+03  0.00000000000E+00 0. -1.
         -4    1    5    5    0  503 -0.96010469616E+02 -0.53396687510E+02 -0.10989571511E+03  0.15539074848E+03  0.00000000000E+00 0.  1.
         -1    1    6    6    0  502 -0.12051095416E+03  0.26752419367E+03  0.53713349596E+03  0.61204940712E+03  0.00000000000E+00 0.  1.
<mgrwt>
<rscale>  0 0.17538625E+04</rscale>
<asrwt>0</asrwt>
<pdfrwt beam="1">  1        2 0.14994575E+00 0.17538625E+04</pdfrwt>
<pdfrwt beam="2">  1       -2 0.12138645E+00 0.17538625E+04</pdfrwt>
<totfact> 0.12790660E+01</totfact>
</mgrwt>
</event>
<event>
12    1  0.1504874E-007  0.1774470E+04  0.7818608E-02  0.8719995E-01
         -1   -1    0    0    0  501 -0.00000000000E+00  0.00000000000E+00  0.16807496830E+03  0.16807496830E+03  0.00000000000E+00 0.  1.
          1   -1    0    0  501    0  0.00000000000E+00 -0.00000000000E+00 -0.46835406423E+04  0.46835406423E+04  0.00000000000E+00 0. -1.
         23    2    1    2    0    0  0.45282689491E+03  0.24849832490E+03 -0.58115914238E+03  0.78285176785E+03  0.91144541393E+02 0.  0.
        254    2    1    2    0    0 -0.45282689491E+03 -0.24849832490E+03 -0.39343065316E+04  0.40687638428E+04  0.89959307968E+03 0.  0.
        -24    2    4    4    0    0  0.24720541311E+03  0.30690213248E+02 -0.13671975039E+04  0.13921324419E+04  0.82166389040E+02 0.  0.
         24    2    4    4    0    0 -0.70003230803E+03 -0.27918853815E+03 -0.25671090277E+04  0.26766314009E+04  0.79469641825E+02 0.  0.
         13    1    3    3    0    0  0.57703235380E+02  0.66999902631E+02 -0.78687750077E+02  0.11836558764E+03  0.00000000000E+00 0. -1.
        -13    1    3    3    0    0  0.39512365953E+03  0.18149842227E+03 -0.50247139230E+03  0.66448618021E+03  0.00000000000E+00 0.  1.
          4    1    6    6  502    0 -0.70137695830E+03 -0.27506649527E+03 -0.25554880387E+04  0.26642279051E+04  0.00000000000E+00 0. -1.
          1    1    5    5  503    0  0.14238999692E+03  0.20770753882E+02 -0.56414657432E+03  0.58220932040E+03  0.00000000000E+00 0. -1.
         -2    1    5    5    0  503  0.10481541619E+03  0.99194593663E+01 -0.80305092962E+03  0.80992312148E+03  0.00000000000E+00 0.  1.
         -3    1    6    6    0  502  0.13446502770E+01 -0.41220428804E+01 -0.11620988999E+02  0.12403495765E+02  0.00000000000E+00 0.  1.
<mgrwt>
<rscale>  0 0.17744700E+04</rscale>
<asrwt>0</asrwt>
<pdfrwt beam="1">  1        1 0.72054463E+00 0.17744700E+04</pdfrwt>
<pdfrwt beam="2">  1       -1 0.25857691E-01 0.17744700E+04</pdfrwt>
<totfact> 0.26267520E-01</totfact>
</mgrwt>
</event>
<event>
12    1  0.1504874E-007  0.1801775E+04  0.7818608E-02  0.8705356E-01
          1   -1    0    0  501    0  0.00000000000E+00  0.00000000000E+00  0.25072871971E+04  0.25072871971E+04  0.00000000000E+00 0. -1.
         -1   -1    0    0    0  501 -0.00000000000E+00 -0.00000000000E+00 -0.32369590482E+03  0.32369590482E+03  0.00000000000E+00 0.  1.
         23    2    1    2    0    0  0.61998015131E+03  0.19755542505E+03  0.10936227555E+04  0.12758767553E+04  0.91908810028E+02 0.  0.
        254    2    1    2    0    0 -0.61998015131E+03 -0.19755542505E+03  0.10899685369E+04  0.15551063467E+04  0.89828770682E+03 0.  0.
        -24    2    4    4    0    0 -0.21994198670E+03 -0.52746559691E+03  0.48175654214E+03  0.75183204529E+03  0.81040884727E+02 0.  0.
         24    2    4    4    0    0 -0.40003816461E+03  0.32991017186E+03  0.60821199472E+03  0.80327430141E+03  0.80352461957E+02 0.  0.
         11    1    3    3    0    0  0.44429919688E+03  0.13382174998E+03  0.69560225358E+03  0.83616537377E+03  0.00000000000E+00 0.  1.
        -11    1    3    3    0    0  0.17568095443E+03  0.63733675067E+02  0.39802050189E+03  0.43971138149E+03  0.00000000000E+00 0. -1.
          4    1    6    6  502    0 -0.20031239612E+03  0.11461650751E+03  0.25508503688E+03  0.34399182530E+03  0.00000000000E+00 0. -1.
          3    1    5    5  503    0 -0.21333275586E+03 -0.43908474574E+03  0.39729650436E+03  0.62940510884E+03  0.00000000000E+00 0. -1.
         -4    1    5    5    0  503 -0.66092308377E+01 -0.88380851171E+02  0.84460037779E+02  0.12242693645E+03  0.00000000000E+00 0.  1.
         -3    1    6    6    0  502 -0.19972576849E+03  0.21529366435E+03  0.35312695784E+03  0.45928247611E+03  0.00000000000E+00 0.  1.
<mgrwt>
<rscale>  0 0.18017753E+04</rscale>
<asrwt>0</asrwt>
<pdfrwt beam="1">  1        1 0.38573648E+00 0.18017753E+04</pdfrwt>
<pdfrwt beam="2">  1       -1 0.49799372E-01 0.18017753E+04</pdfrwt>
<totfact> 0.51156034E+00</totfact>
</mgrwt>
</event>
<event>
12    1  0.1504874E-007  0.2074852E+04  0.7818608E-02  0.8572403E-01
          1   -1    0    0  501    0  0.00000000000E+00  0.00000000000E+00  0.98304666383E+03  0.98304666383E+03  0.00000000000E+00 0.  1.
         -1   -1    0    0    0  501 -0.00000000000E+00 -0.00000000000E+00 -0.10948131257E+04  0.10948131257E+04  0.00000000000E+00 0. -1.
         23    2    1    2    0    0  0.37081959119E+03  0.75118800390E+03 -0.82977559618E+02  0.84674720952E+03  0.91131635676E+02 0.  0.
        254    2    1    2    0    0 -0.37081959119E+03 -0.75118800390E+03 -0.28788902244E+02  0.12311125800E+04  0.90167554990E+03 0.  0.
        -24    2    4    4    0    0 -0.44287648309E+03 -0.76125329087E+03  0.26057941519E+03  0.92206777613E+03  0.81616174998E+02 0.  0.
         24    2    4    4    0    0  0.72056891902E+02  0.10065286969E+02 -0.28936831744E+03  0.30904480386E+03  0.80505664274E+02 0.  0.
         11    1    3    3    0    0  0.26364445749E+03  0.51028257926E+03 -0.15480826045E+02  0.57457494432E+03  0.00000000000E+00 0.  1.
        -11    1    3    3    0    0  0.10717513370E+03  0.24090542464E+03 -0.67496733572E+02  0.27217226521E+03  0.00000000000E+00 0. -1.
          4    1    6    6  502    0  0.38516605145E+02  0.31218783465E+02 -0.68014326588E+02  0.84167035911E+02  0.00000000000E+00 0. -1.
          1    1    5    5  503    0 -0.15333313230E+03 -0.24186999919E+03  0.12327593647E+03  0.31178374314E+03  0.00000000000E+00 0. -1.
         -2    1    5    5    0  503 -0.28954335079E+03 -0.51938329168E+03  0.13730347872E+03  0.61028403299E+03  0.00000000000E+00 0.  1.
         -3    1    6    6    0  502  0.33540286757E+02 -0.21153496496E+02 -0.22135399085E+03  0.22487776794E+03  0.00000000000E+00 0.  1.
<mgrwt>
<rscale>  0 0.20748517E+04</rscale>
<asrwt>0</asrwt>
<pdfrwt beam="1">  1        1 0.15123795E+00 0.20748517E+04</pdfrwt>
<pdfrwt beam="2">  1       -1 0.16843279E+00 0.20748517E+04</pdfrwt>
<totfact> 0.36340414E+00</totfact>
</mgrwt>
</event>
<event>
12    1  0.1504874E-007  0.1427723E+04  0.7818608E-02  0.8933992E-01
         -1   -1    0    0    0  501 -0.00000000000E+00  0.00000000000E+00  0.30548627471E+03  0.30548627471E+03  0.00000000000E+00 0.  1.
          1   -1    0    0  501    0  0.00000000000E+00 -0.00000000000E+00 -0.16681543573E+04  0.16681543573E+04  0.00000000000E+00 0. -1.
         23    2    1    2    0    0  0.99854758032E+02 -0.41067006167E+03 -0.36465342367E+03  0.56563654748E+03  0.91387702654E+02 0.  0.
        254    2    1    2    0    0 -0.99854758032E+02  0.41067006167E+03 -0.99801465891E+03  0.14080040845E+04  0.89878883525E+03 0.  0.
        -24    2    4    4    0    0  0.24782458555E+03  0.32232421338E+03 -0.95009531226E+03  0.10371087308E+04  0.87198012548E+02 0.  0.
         24    2    4    4    0    0 -0.34767934358E+03  0.88345848291E+02 -0.47919346647E+02  0.37089535372E+03  0.81124501614E+02 0.  0.
         13    1    3    3    0    0  0.32404002505E+02 -0.22816563263E+03 -0.14535678554E+03  0.27246682439E+03  0.00000000000E+00 0.  1.
        -13    1    3    3    0    0  0.67450755527E+02 -0.18250442904E+03 -0.21929663812E+03  0.29316972308E+03  0.00000000000E+00 0. -1.
          4    1    6    6  502    0 -0.60350872966E+02  0.39932869686E+02 -0.31875739542E+02  0.79075436897E+02  0.00000000000E+00 0. -1.
          3    1    5    5  503    0  0.11850132245E+03  0.90365308052E+02 -0.30404034043E+03  0.33859855423E+03  0.00000000000E+00 0. -1.
         -4    1    5    5    0  503  0.12932326310E+03  0.23195890533E+03 -0.64605497183E+03  0.69851017657E+03  0.00000000000E+00 0.  1.
         -3    1    6    6    0  502 -0.28732847061E+03  0.48412978605E+02 -0.16043607104E+02  0.29181991682E+03  0.00000000000E+00 0.  1.
<mgrwt>
<rscale>  0 0.14277230E+04</rscale>
<asrwt>0</asrwt>
<pdfrwt beam="1">  1        1 0.25663913E+00 0.14277230E+04</pdfrwt>
<pdfrwt beam="2">  1       -1 0.46997888E-01 0.14277230E+04</pdfrwt>
<totfact> 0.22008116E+01</totfact>
</mgrwt>
</event>
<event>
12    1  0.1504874E-007  0.2021766E+04  0.7818608E-02  0.8596511E-01
          1   -1    0    0  501    0  0.00000000000E+00  0.00000000000E+00  0.18047517411E+04  0.18047517411E+04  0.00000000000E+00 0. -1.
         -1   -1    0    0    0  501 -0.00000000000E+00 -0.00000000000E+00 -0.56621894084E+03  0.56621894084E+03  0.00000000000E+00 0.  1.
         23    2    1    2    0    0  0.35734346472E+03  0.69405534505E+03  0.73424703900E+03  0.10754834848E+04  0.90215509129E+02 0.  0.
        254    2    1    2    0    0 -0.35734346472E+03 -0.69405534505E+03  0.50428576126E+03  0.12954871971E+04  0.90253851725E+03 0.  0.
        -24    2    4    4    0    0 -0.65061716118E+03 -0.55635623221E+03  0.35468016493E+03  0.93025049601E+03  0.82054971779E+02 0.  0.
         24    2    4    4    0    0  0.29327369646E+03 -0.13769911284E+03  0.14960559634E+03  0.36523670110E+03  0.77752856317E+02 0.  0.
         11    1    3    3    0    0  0.49513101039E+02  0.75681249361E+02  0.12600020864E+03  0.15509755400E+03  0.00000000000E+00 0.  1.
        -11    1    3    3    0    0  0.30783036368E+03  0.61837409569E+03  0.60824683036E+03  0.92038593083E+03  0.00000000000E+00 0. -1.
          2    1    6    6  502    0  0.23272069035E+03 -0.80456106900E+02  0.87535492855E+02  0.26133229299E+03  0.00000000000E+00 0. -1.
          3    1    5    5  503    0 -0.27817931682E+03 -0.20919496248E+03  0.18089320045E+03  0.39226090119E+03  0.00000000000E+00 0. -1.
         -4    1    5    5    0  503 -0.37243784437E+03 -0.34716126973E+03  0.17378696448E+03  0.53798959483E+03  0.00000000000E+00 0.  1.
         -1    1    6    6    0  502  0.60553006118E+02 -0.57243005937E+02  0.62070103481E+02  0.10390440811E+03  0.00000000000E+00 0.  1.
<mgrwt>
<rscale>  0 0.20217662E+04</rscale>
<asrwt>0</asrwt>
<pdfrwt beam="1">  1        1 0.27765411E+00 0.20217662E+04</pdfrwt>
<pdfrwt beam="2">  1       -1 0.87110607E-01 0.20217662E+04</pdfrwt>
<totfact> 0.48587502E+00</totfact>
</mgrwt>
</event>
<event>
12    1  0.1504874E-007  0.1780181E+04  0.7818608E-02  0.8716911E-01
         -3   -1    0    0    0  501 -0.00000000000E+00  0.00000000000E+00  0.14787071754E+04  0.14787071754E+04  0.00000000000E+00 0.  1.
          3   -1    0    0  501    0  0.00000000000E+00 -0.00000000000E+00 -0.53577961653E+03  0.53577961653E+03  0.00000000000E+00 0. -1.
         23    2    1    2    0    0  0.20094389628E+03 -0.38593872770E+03  0.89438200758E+03  0.99923901981E+03  0.96084817931E+02 0.  0.
        254    2    1    2    0    0 -0.20094389628E+03  0.38593872770E+03  0.48545551280E+02  0.10152477721E+04  0.91599356834E+03 0.  0.
        -24    2    4    4    0    0 -0.51066070927E+03  0.22410329968E+03 -0.17873972694E+03  0.59087330467E+03  0.78655726214E+02 0.  0.
         24    2    4    4    0    0  0.30971681298E+03  0.16183542801E+03  0.22728527822E+03  0.42437446744E+03  0.79497678677E+02 0.  0.
         13    1    3    3    0    0  0.98555365903E+02 -0.14713244384E+03  0.26935211602E+03  0.32235334431E+03  0.00000000000E+00 0. -1.
        -13    1    3    3    0    0  0.10238853038E+03 -0.23880628386E+03  0.62502989156E+03  0.67688567550E+03  0.00000000000E+00 0.  1.
          4    1    6    6  502    0  0.23250220119E+03  0.14401554792E+03  0.20578652941E+03  0.34226575535E+03  0.00000000000E+00 0. -1.
          3    1    5    5  503    0 -0.42373341488E+03  0.17291513343E+03 -0.17484595756E+03  0.48991913530E+03  0.00000000000E+00 0. -1.
         -4    1    5    5    0  503 -0.86927294384E+02  0.51188166250E+02 -0.38937693809E+01  0.10095416937E+03  0.00000000000E+00 0.  1.
         -3    1    6    6    0  502  0.77214611790E+02  0.17819880098E+02  0.21498748817E+02  0.82108712091E+02  0.00000000000E+00 0.  1.
<mgrwt>
<rscale>  0 0.17801811E+04</rscale>
<asrwt>0</asrwt>
<pdfrwt beam="1">  1        3 0.82427634E-01 0.17801811E+04</pdfrwt>
<pdfrwt beam="2">  1       -3 0.22749341E+00 0.17801811E+04</pdfrwt>
<totfact> 0.33412656E-01</totfact>
</mgrwt>
</event>
<event>
12    1  0.1504874E-007  0.1906050E+04  0.7818608E-02  0.8651851E-01
         -2   -1    0    0    0  501 -0.00000000000E+00  0.00000000000E+00  0.64299175096E+03  0.64299175096E+03  0.00000000000E+00 0.  1.
          2   -1    0    0  501    0  0.00000000000E+00 -0.00000000000E+00 -0.14125475472E+04  0.14125475472E+04  0.00000000000E+00 0. -1.
         23    2    1    2    0    0  0.41611880058E+03  0.30591883158E+03  0.26376601742E+03  0.58673207304E+03  0.89111311715E+02 0.  0.
        254    2    1    2    0    0 -0.41611880058E+03 -0.30591883158E+03 -0.10333218137E+04  0.14688072251E+04  0.90713808555E+03 0.  0.
        -24    2    4    4    0    0 -0.25132906410E+03 -0.97233866322E+02  0.10323790371E+03  0.29924985104E+03  0.79193973044E+02 0.  0.
         24    2    4    4    0    0 -0.16478973649E+03 -0.20868496525E+03 -0.11365597174E+04  0.11695573741E+04  0.73426072575E+02 0.  0.
         13    1    3    3    0    0  0.23704681870E+03  0.22768563915E+03  0.16646068543E+03  0.36843059635E+03  0.00000000000E+00 0.  1.
        -13    1    3    3    0    0  0.17907198188E+03  0.78233192428E+02  0.97305331991E+02  0.21830147669E+03  0.00000000000E+00 0. -1.
          4    1    6    6  502    0 -0.34893742833E+02 -0.69920347345E+01 -0.16818222607E+03  0.17190614591E+03  0.00000000000E+00 0. -1.
          3    1    5    5  503    0 -0.13956756561E+02  0.37925970243E+01 -0.99289896646E+01  0.17543080734E+02  0.00000000000E+00 0. -1.
         -4    1    5    5    0  503 -0.23737230754E+03 -0.10102646335E+03  0.11316689337E+03  0.28170677031E+03  0.00000000000E+00 0.  1.
         -3    1    6    6    0  502 -0.12989599365E+03 -0.20169293052E+03 -0.96837749131E+03  0.99765122817E+03  0.00000000000E+00 0.  1.
<mgrwt>
<rscale>  0 0.19060498E+04</rscale>
<asrwt>0</asrwt>
<pdfrwt beam="1">  1        2 0.21731500E+00 0.19060498E+04</pdfrwt>
<pdfrwt beam="2">  1       -2 0.98921810E-01 0.19060498E+04</pdfrwt>
<totfact> 0.11293044E+01</totfact>
</mgrwt>
</event>
<event>
12    1  0.1504874E-007  0.1206996E+04  0.7818608E-02  0.9106755E-01
          1   -1    0    0  501    0  0.00000000000E+00  0.00000000000E+00  0.11933999324E+04  0.11933999324E+04  0.00000000000E+00 0. -1.
         -1   -1    0    0    0  501 -0.00000000000E+00 -0.00000000000E+00 -0.30518666360E+03  0.30518666360E+03  0.00000000000E+00 0.  1.
         23    2    1    2    0    0  0.24744110847E+03  0.52381898938E+02  0.22304642752E+03  0.34971618573E+03  0.92632263455E+02 0.  0.
        254    2    1    2    0    0 -0.24744110847E+03 -0.52381898938E+02  0.66516684127E+03  0.11488704103E+04  0.90193421455E+03 0.  0.
        -24    2    4    4    0    0  0.76465607936E+01 -0.25405452252E+03 -0.12236517954E+03  0.29307525937E+03  0.79483961814E+02 0.  0.
         24    2    4    4    0    0 -0.25508766927E+03  0.20167262358E+03  0.78753202081E+03  0.85579515090E+03  0.80231480049E+02 0.  0.
         13    1    3    3    0    0  0.10471992252E+03  0.38295419747E+02  0.42938218600E+02  0.11948427496E+03  0.00000000000E+00 0.  1.
        -13    1    3    3    0    0  0.14272118595E+03  0.14086479191E+02  0.18010820892E+03  0.23023191077E+03  0.00000000000E+00 0. -1.
          4    1    6    6  502    0 -0.61235571513E+02  0.13291251674E+02  0.11478808809E+03  0.13077751243E+03  0.00000000000E+00 0. -1.
          3    1    5    5  503    0  0.24294276944E-02 -0.10269735456E+03 -0.76078128282E+01  0.10297876216E+03  0.00000000000E+00 0. -1.
         -4    1    5    5    0  503  0.76441313660E+01 -0.15135716796E+03 -0.11475736671E+03  0.19009649721E+03  0.00000000000E+00 0.  1.
         -3    1    6    6    0  502 -0.19385209775E+03  0.18838137191E+03  0.67274393272E+03  0.72501763847E+03  0.00000000000E+00 0.  1.
<mgrwt>
<rscale>  0 0.12069958E+04</rscale>
<asrwt>0</asrwt>
<pdfrwt beam="1">  1        1 0.18359999E+00 0.12069958E+04</pdfrwt>
<pdfrwt beam="2">  1       -1 0.46951795E-01 0.12069958E+04</pdfrwt>
<totfact> 0.48320187E+01</totfact>
</mgrwt>
</event>
<event>
12    1  0.1504874E-007  0.1401231E+04  0.7818608E-02  0.8952928E-01
         -2   -1    0    0    0  501 -0.00000000000E+00  0.00000000000E+00  0.23677349155E+03  0.23677349155E+03  0.00000000000E+00 0.  1.
          2   -1    0    0  501    0  0.00000000000E+00 -0.00000000000E+00 -0.20731282630E+04  0.20731282630E+04  0.00000000000E+00 0. -1.
         23    2    1    2    0    0 -0.19379754378E+02  0.18604067057E+03  0.42473285669E+02  0.21527288201E+03  0.97732940951E+02 0.  0.
        254    2    1    2    0    0  0.19379754378E+02 -0.18604067057E+03 -0.18788280571E+04  0.20946288726E+04  0.90691153897E+03 0.  0.
        -24    2    4    4    0    0  0.29958350376E+03 -0.13613231415E+03 -0.20681032490E+03  0.39671042464E+03  0.79538467749E+02 0.  0.
         24    2    4    4    0    0 -0.28020374938E+03 -0.49908356417E+02 -0.16720177322E+04  0.16979184479E+04  0.79238713332E+02 0.  0.
         11    1    3    3    0    0  0.14651624754E+02  0.12671854280E+03 -0.11598716142E+02  0.12808899021E+03  0.00000000000E+00 0. -1.
        -11    1    3    3    0    0 -0.34031379131E+02  0.59322127763E+02  0.54072001812E+02  0.87183891791E+02  0.00000000000E+00 0.  1.
          2    1    6    6  502    0 -0.90214544047E+02 -0.89276106287E+01 -0.76221302708E+03  0.76758521667E+03  0.00000000000E+00 0. -1.
          3    1    5    5  503    0  0.23129672532E+03 -0.12795948422E+03 -0.13329037234E+03  0.29603737619E+03  0.00000000000E+00 0. -1.
         -4    1    5    5    0  503  0.68286778443E+02 -0.81728299322E+01 -0.73519952567E+02  0.10067304845E+03  0.00000000000E+00 0.  1.
         -1    1    6    6    0  502 -0.18998920534E+03 -0.40980745789E+02 -0.90980470513E+03  0.93033323124E+03  0.00000000000E+00 0.  1.
<mgrwt>
<rscale>  0 0.14012306E+04</rscale>
<asrwt>0</asrwt>
<pdfrwt beam="1">  1        2 0.31894280E+00 0.14012306E+04</pdfrwt>
<pdfrwt beam="2">  1       -2 0.36426693E-01 0.14012306E+04</pdfrwt>
<totfact> 0.42035279E+01</totfact>
</mgrwt>
</event>
<event>
12    1  0.1504874E-007  0.1137805E+04  0.7818608E-02  0.9169109E-01
          2   -1    0    0  501    0  0.00000000000E+00  0.00000000000E+00  0.35192656970E+03  0.35192656970E+03  0.00000000000E+00 0. -1.
         -2   -1    0    0    0  501 -0.00000000000E+00 -0.00000000000E+00 -0.91965161787E+03  0.91965161787E+03  0.00000000000E+00 0.  1.
         23    2    1    2    0    0  0.76130422350E+02  0.12129560475E+03 -0.26483713512E+03  0.31448225352E+03  0.90840050071E+02 0.  0.
        254    2    1    2    0    0 -0.76130422350E+02 -0.12129560475E+03 -0.30288791305E+03  0.95709593406E+03  0.89653949951E+03 0.  0.
        -24    2    4    4    0    0  0.14316725285E+03 -0.37589115681E+03  0.10244725801E+03  0.42471570821E+03  0.89983154377E+02 0.  0.
         24    2    4    4    0    0 -0.21929767520E+03  0.25459555206E+03 -0.40533517105E+03  0.53238022585E+03  0.78877997612E+02 0.  0.
         11    1    3    3    0    0  0.32297521979E+02  0.10664279774E+03 -0.23326126217E+03  0.25850847697E+03  0.00000000000E+00 0.  1.
        -11    1    3    3    0    0  0.43832900371E+02  0.14652807014E+02 -0.31575872955E+02  0.55973776550E+02  0.00000000000E+00 0. -1.
          4    1    6    6  502    0  0.22249498650E+00  0.33809898563E+02 -0.39780002721E+02  0.52207349687E+02  0.00000000000E+00 0. -1.
          1    1    5    5  503    0  0.78378116588E+02 -0.30850201760E+03  0.71398687902E+02  0.32621219575E+03  0.00000000000E+00 0. -1.
         -2    1    5    5    0  503  0.64789136263E+02 -0.67389139207E+02  0.31048570106E+02  0.98503512457E+02  0.00000000000E+00 0.  1.
         -3    1    6    6    0  502 -0.21952017019E+03  0.22078565349E+03 -0.36555516833E+03  0.48017287616E+03  0.00000000000E+00 0.  1.
<mgrwt>
<rscale>  0 0.11378046E+04</rscale>
<asrwt>0</asrwt>
<pdfrwt beam="1">  1        2 0.54142549E-01 0.11378046E+04</pdfrwt>
<pdfrwt beam="2">  1       -2 0.14148487E+00 0.11378046E+04</pdfrwt>
<totfact> 0.31760459E+01</totfact>
</mgrwt>
</event>
<event>
12    1  0.1504874E-007  0.1260650E+04  0.7818608E-02  0.9061365E-01
          2   -1    0    0  501    0  0.00000000000E+00  0.00000000000E+00  0.15089928495E+04  0.15089928495E+04  0.00000000000E+00 0. -1.
         -2   -1    0    0    0  501 -0.00000000000E+00 -0.00000000000E+00 -0.26329473155E+03  0.26329473155E+03  0.00000000000E+00 0.  1.
         23    2    1    2    0    0 -0.10622907179E+03  0.22073839252E+03  0.71396640724E+02  0.27130584493E+03  0.92191797684E+02 0.  0.
        254    2    1    2    0    0  0.10622907179E+03 -0.22073839252E+03  0.11743014773E+04  0.15009817362E+04  0.90219297223E+03 0.  0.
        -24    2    4    4    0    0 -0.66988786101E+02 -0.41478277215E+03  0.16956350806E+03  0.46010804252E+03  0.80096079751E+02 0.  0.
         24    2    4    4    0    0  0.17321785789E+03  0.19404437963E+03  0.10047379692E+04  0.10408736936E+04  0.79132874268E+02 0.  0.
         11    1    3    3    0    0 -0.10169997688E+03  0.22876488113E+03  0.75099490579E+02  0.26137365901E+03  0.00000000000E+00 0. -1.
        -11    1    3    3    0    0 -0.45290949094E+01 -0.80264886127E+01 -0.37028498553E+01  0.99321859225E+01  0.00000000000E+00 0.  1.
          2    1    6    6  502    0  0.53169545411E+02  0.92552793056E+02  0.28914358671E+03  0.30821588830E+03  0.00000000000E+00 0. -1.
          3    1    5    5  503    0 -0.19293794888E+02 -0.25961530276E+03  0.13832112925E+03  0.29479669392E+03  0.00000000000E+00 0. -1.
         -4    1    5    5    0  503 -0.47694991213E+02 -0.15516746939E+03  0.31242378817E+02  0.16531134860E+03  0.00000000000E+00 0.  1.
         -1    1    6    6    0  502  0.12004831248E+03  0.10149158657E+03  0.71559438249E+03  0.73265780534E+03  0.00000000000E+00 0.  1.
<mgrwt>
<rscale>  0 0.12606504E+04</rscale>
<asrwt>0</asrwt>
<pdfrwt beam="1">  1        2 0.23215274E+00 0.12606504E+04</pdfrwt>
<pdfrwt beam="2">  1       -2 0.40506883E-01 0.12606504E+04</pdfrwt>
<totfact> 0.71112701E+01</totfact>
</mgrwt>
</event>
<event>
12    1  0.1504874E-007  0.2324501E+04  0.7818608E-02  0.8468323E-01
         -2   -1    0    0    0  501 -0.00000000000E+00  0.00000000000E+00  0.68679290466E+03  0.68679290466E+03  0.00000000000E+00 0.  1.
          2   -1    0    0  501    0  0.00000000000E+00 -0.00000000000E+00 -0.19668615357E+04  0.19668615357E+04  0.00000000000E+00 0. -1.
         23    2    1    2    0    0 -0.51535457271E+03 -0.63915565787E+03 -0.11709317005E+04  0.14330126210E+04  0.91289836808E+02 0.  0.
        254    2    1    2    0    0  0.51535457271E+03  0.63915565787E+03 -0.10913693061E+03  0.12206418194E+04  0.89662996321E+03 0.  0.
        -24    2    4    4    0    0 -0.11115378936E+03  0.29964870157E+03 -0.33493331383E+03  0.46942297504E+03  0.77673003939E+02 0.  0.
         24    2    4    4    0    0  0.62650836207E+03  0.33950695630E+03  0.22579638322E+03  0.75121884431E+03  0.74619328878E+02 0.  0.
         11    1    3    3    0    0 -0.39350331900E+03 -0.53875114050E+03 -0.97445430177E+03  0.11809567476E+04  0.00000000000E+00 0. -1.
        -11    1    3    3    0    0 -0.12185125372E+03 -0.10040451737E+03 -0.19647739869E+03  0.25205587344E+03  0.00000000000E+00 0.  1.
          4    1    6    6  502    0  0.44044548808E+01  0.44701687142E+01  0.11073232634E+02  0.12727847897E+02  0.00000000000E+00 0. -1.
          3    1    5    5  503    0 -0.25414058338E+01  0.13216362056E+02  0.24908894966E+01  0.13687055932E+02  0.00000000000E+00 0. -1.
         -4    1    5    5    0  503 -0.10861238353E+03  0.28643233952E+03 -0.33742420333E+03  0.45573591911E+03  0.00000000000E+00 0.  1.
         -3    1    6    6    0  502  0.62210390719E+03  0.33503678758E+03  0.21472315059E+03  0.73849099641E+03  0.00000000000E+00 0.  1.
<mgrwt>
<rscale>  0 0.23245013E+04</rscale>
<asrwt>0</asrwt>
<pdfrwt beam="1">  1        2 0.30259408E+00 0.23245013E+04</pdfrwt>
<pdfrwt beam="2">  1       -2 0.10566045E+00 0.23245013E+04</pdfrwt>
<totfact> 0.45668631E+00</totfact>
</mgrwt>
</event>
<event>
12    1  0.1504874E-007  0.2676996E+04  0.7818608E-02  0.8342508E-01
         -2   -1    0    0    0  501 -0.00000000000E+00  0.00000000000E+00  0.74084666339E+03  0.74084666339E+03  0.00000000000E+00 0. -1.
          2   -1    0    0  501    0  0.00000000000E+00 -0.00000000000E+00 -0.24182825680E+04  0.24182825680E+04  0.00000000000E+00 0.  1.
         23    2    1    2    0    0  0.16419682535E+03 -0.11230947042E+04 -0.10999177790E+04  0.15832219656E+04  0.92034557487E+02 0.  0.
        254    2    1    2    0    0 -0.16419682535E+03  0.11230947042E+04 -0.57751812555E+03  0.15759072657E+04  0.92825331281E+03 0.  0.
        -24    2    4    4    0    0  0.99329878236E+02  0.11637822156E+04 -0.55528003253E+03  0.12958460330E+04  0.81397523469E+02 0.  0.
         24    2    4    4    0    0 -0.26352670359E+03 -0.40687511372E+02 -0.22238093015E+02  0.28006123267E+03  0.82691983767E+02 0.  0.
         11    1    3    3    0    0  0.76839491036E+02 -0.25635569299E+03 -0.25647484326E+03  0.37067761456E+03  0.00000000000E+00 0. -1.
        -11    1    3    3    0    0  0.87357334316E+02 -0.86673901121E+03 -0.84344293577E+03  0.12125443511E+04  0.00000000000E+00 0.  1.
          4    1    6    6  502    0 -0.25958951504E+03 -0.53431231828E+02 -0.25719329973E+02  0.26627635416E+03  0.00000000000E+00 0. -1.
          1    1    5    5  503    0  0.92017843838E+02  0.60536383965E+03 -0.29710114592E+03  0.68058926883E+03  0.00000000000E+00 0. -1.
         -2    1    5    5    0  503  0.73120343987E+01  0.55841837593E+03 -0.25817888662E+03  0.61525676422E+03  0.00000000000E+00 0.  1.
         -3    1    6    6    0  502 -0.39371885494E+01  0.12743720456E+02  0.34812369577E+01  0.13784878508E+02  0.00000000000E+00 0.  1.
<mgrwt>
<rscale>  0 0.26769958E+04</rscale>
<asrwt>0</asrwt>
<pdfrwt beam="1">  1        2 0.37204347E+00 0.26769958E+04</pdfrwt>
<pdfrwt beam="2">  1       -2 0.11397641E+00 0.26769958E+04</pdfrwt>
<totfact> 0.20551669E+00</totfact>
</mgrwt>
</event>
<event>
12    1  0.1504874E-007  0.1385339E+04  0.7818608E-02  0.8964500E-01
          3   -1    0    0  501    0  0.00000000000E+00  0.00000000000E+00  0.23968338499E+03  0.23968338499E+03  0.00000000000E+00 0. -1.
         -3   -1    0    0    0  501 -0.00000000000E+00 -0.00000000000E+00 -0.20017711010E+04  0.20017711010E+04  0.00000000000E+00 0.  1.
         23    2    1    2    0    0 -0.99525247419E+02 -0.32064130936E+03 -0.77945999415E+03  0.85641298648E+03  0.11475712085E+03 0.  0.
        254    2    1    2    0    0  0.99525247419E+02  0.32064130936E+03 -0.98262772190E+03  0.13850414996E+04  0.91655146693E+03 0.  0.
        -24    2    4    4    0    0  0.69032534912E+02  0.18688076345E+03 -0.11406860052E+04  0.11607770974E+04  0.80925872372E+02 0.  0.
         24    2    4    4    0    0  0.30492712507E+02  0.13376054591E+03  0.15805828326E+03  0.22426440218E+03  0.80563093434E+02 0.  0.
         13    1    3    3    0    0  0.72533046168E+01 -0.69708854132E+02 -0.84008428363E+02  0.10940452828E+03  0.00000000000E+00 0. -1.
        -13    1    3    3    0    0 -0.10677855204E+03 -0.25093245522E+03 -0.69545156579E+03  0.74700845820E+03  0.00000000000E+00 0.  1.
          4    1    6    6  502    0  0.41006734559E+02  0.11683391627E+03  0.16205130804E+03  0.20394200819E+03  0.00000000000E+00 0. -1.
          1    1    5    5  503    0  0.69090529165E+02  0.18798225149E+03 -0.11417868583E+04  0.11592187274E+04  0.00000000000E+00 0. -1.
         -2    1    5    5    0  503 -0.57994253198E-01 -0.11014880395E+01  0.11008531844E+01  0.15583699716E+01  0.00000000000E+00 0.  1.
         -3    1    6    6    0  502 -0.10514022052E+02  0.16926629641E+02 -0.39930247784E+01  0.20322393993E+02  0.00000000000E+00 0.  1.
<mgrwt>
<rscale>  0 0.13853393E+04</rscale>
<asrwt>0</asrwt>
<pdfrwt beam="1">  1        3 0.36874366E-01 0.13853393E+04</pdfrwt>
<pdfrwt beam="2">  1       -3 0.30796480E+00 0.13853393E+04</pdfrwt>
<totfact> 0.64283184E-01</totfact>
</mgrwt>
</event>
<event>
12    1  0.1504874E-007  0.2001835E+04  0.7818608E-02  0.8605763E-01
          1   -1    0    0  501    0  0.00000000000E+00  0.00000000000E+00  0.18674773116E+04  0.18674773116E+04  0.00000000000E+00 0. -1.
         -1   -1    0    0    0  501 -0.00000000000E+00 -0.00000000000E+00 -0.53646493564E+03  0.53646493564E+03  0.00000000000E+00 0.  1.
         23    2    1    2    0    0 -0.90554709947E+02  0.54372227167E+03  0.11616595536E+04  0.12889950740E+04  0.90671484573E+02 0.  0.
        254    2    1    2    0    0  0.90554709947E+02 -0.54372227167E+03  0.16935282231E+03  0.11149471732E+04  0.95424983961E+03 0.  0.
        -24    2    4    4    0    0 -0.40367330631E+03 -0.93545648086E+02  0.12505955664E+03  0.44006189102E+03  0.79445885476E+02 0.  0.
         24    2    4    4    0    0  0.49422801626E+03 -0.45017662359E+03  0.44293265673E+02  0.67488528218E+03  0.81166041194E+02 0.  0.
         11    1    3    3    0    0 -0.93746603701E+02  0.46762700485E+03  0.10564055492E+04  0.11590755479E+04  0.00000000000E+00 0. -1.
        -11    1    3    3    0    0  0.31918937543E+01  0.76095266820E+02  0.10525400442E+03  0.12991952611E+03  0.00000000000E+00 0.  1.
          4    1    6    6  502    0  0.40266893363E+03 -0.32640036551E+03  0.17696252727E+02  0.51864499041E+03  0.00000000000E+00 0. -1.
          3    1    5    5  503    0 -0.30224584858E+03 -0.46457423837E+02  0.11880141191E+03  0.32806191593E+03  0.00000000000E+00 0. -1.
         -4    1    5    5    0  503 -0.10142745773E+03 -0.47088224249E+02  0.62581447310E+01  0.11199997509E+03  0.00000000000E+00 0.  1.
         -3    1    6    6    0  502  0.91559082621E+02 -0.12377625808E+03  0.26597012946E+02  0.15624029177E+03  0.00000000000E+00 0.  1.
<mgrwt>
<rscale>  0 0.20018353E+04</rscale>
<asrwt>0</asrwt>
<pdfrwt beam="1">  1        1 0.28730420E+00 0.20018353E+04</pdfrwt>
<pdfrwt beam="2">  1       -1 0.82533068E-01 0.20018353E+04</pdfrwt>
<totfact> 0.49605427E+00</totfact>
</mgrwt>
</event>
<event>
12    1  0.1504874E-007  0.1349948E+04  0.7818608E-02  0.8990868E-01
          1   -1    0    0  501    0  0.00000000000E+00  0.00000000000E+00  0.12702816682E+04  0.12702816682E+04  0.00000000000E+00 0. -1.
         -1   -1    0    0    0  501 -0.00000000000E+00 -0.00000000000E+00 -0.35865261590E+03  0.35865261590E+03  0.00000000000E+00 0.  1.
         23    2    1    2    0    0 -0.22616822841E+03 -0.29739442928E+03  0.29866102802E+03  0.49506206993E+03  0.12764219254E+03 0.  0.
        254    2    1    2    0    0  0.22616822841E+03  0.29739442928E+03  0.61296802425E+03  0.11338722141E+04  0.87769065458E+03 0.  0.
        -24    2    4    4    0    0  0.37336360630E+03  0.36334633608E+03  0.35138295537E+02  0.52873467553E+03  0.83094613766E+02 0.  0.
         24    2    4    4    0    0 -0.14719537790E+03 -0.65951906802E+02  0.57782972871E+03  0.60513753861E+03  0.79297616400E+02 0.  0.
         13    1    3    3    0    0 -0.23579859376E+03 -0.24981889674E+03  0.24070100271E+03  0.41946088100E+03  0.00000000000E+00 0. -1.
        -13    1    3    3    0    0  0.96303653494E+01 -0.47575532539E+02  0.57960025306E+02  0.75601188923E+02  0.00000000000E+00 0.  1.
          4    1    6    6  502    0  0.14012397718E+01  0.15252252207E+01  0.10343786490E+03  0.10345859887E+03  0.00000000000E+00 0. -1.
          3    1    5    5  503    0  0.78848253589E+02  0.12168814171E+03 -0.86425284869E+01  0.14525751005E+03  0.00000000000E+00 0. -1.
         -4    1    5    5    0  503  0.29451535271E+03  0.24165819437E+03  0.43780824024E+02  0.38347716548E+03  0.00000000000E+00 0.  1.
         -3    1    6    6    0  502 -0.14859661767E+03 -0.67477132022E+02  0.47439186381E+03  0.50167893974E+03  0.00000000000E+00 0.  1.
<mgrwt>
<rscale>  0 0.13499479E+04</rscale>
<asrwt>0</asrwt>
<pdfrwt beam="1">  1        1 0.19542795E+00 0.13499479E+04</pdfrwt>
<pdfrwt beam="2">  1       -1 0.55177326E-01 0.13499479E+04</pdfrwt>
<totfact> 0.30874523E+01</totfact>
</mgrwt>
</event>
<event>
12    1  0.1504874E-007  0.1821211E+04  0.7818608E-02  0.8695100E-01
          2   -1    0    0  501    0  0.00000000000E+00  0.00000000000E+00  0.73383519251E+03  0.73383519251E+03  0.00000000000E+00 0. -1.
         -2   -1    0    0    0  501 -0.00000000000E+00 -0.00000000000E+00 -0.11299570300E+04  0.11299570300E+04  0.00000000000E+00 0.  1.
         23    2    1    2    0    0 -0.72235647410E+02  0.64425511499E+03  0.88744765264E+02  0.66041176963E+03  0.89361234101E+02 0.  0.
        254    2    1    2    0    0  0.72235647410E+02 -0.64425511499E+03 -0.48486660272E+03  0.12033804528E+04  0.89036298772E+03 0.  0.
        -24    2    4    4    0    0  0.40524829198E+03 -0.44378392184E+03 -0.52811992142E+03  0.80400038463E+03  0.79596605814E+02 0.  0.
         24    2    4    4    0    0 -0.33301264457E+03 -0.20047119315E+03  0.43253318692E+02  0.39938006821E+03  0.80916429627E+02 0.  0.
         13    1    3    3    0    0 -0.52277193143E+02  0.58859319771E+03  0.10241637306E+03  0.59971991028E+03  0.00000000000E+00 0. -1.
        -13    1    3    3    0    0 -0.19958454267E+02  0.55661917276E+02 -0.13671607799E+02  0.60691859351E+02  0.00000000000E+00 0.  1.
          2    1    6    6  502    0 -0.15623085413E+03 -0.12071652775E+03 -0.11771549670E+02  0.19778556377E+03  0.00000000000E+00 0. -1.
          3    1    5    5  503    0  0.24162753501E+03 -0.22073806454E+03 -0.25100457642E+03  0.41244691318E+03  0.00000000000E+00 0. -1.
         -4    1    5    5    0  503  0.16362075697E+03 -0.22304585730E+03 -0.27711534500E+03  0.39155347145E+03  0.00000000000E+00 0.  1.
         -1    1    6    6    0  502 -0.17678179044E+03 -0.79754665394E+02  0.55024868361E+02  0.20159450444E+03  0.00000000000E+00 0.  1.
<mgrwt>
<rscale>  0 0.18212108E+04</rscale>
<asrwt>0</asrwt>
<pdfrwt beam="1">  1        2 0.11289772E+00 0.18212108E+04</pdfrwt>
<pdfrwt beam="2">  1       -2 0.17383954E+00 0.18212108E+04</pdfrwt>
<totfact> 0.72736994E+00</totfact>
</mgrwt>
</event>
<event>
12    1  0.1504874E-007  0.1785457E+04  0.7818608E-02  0.8714072E-01
          2   -1    0    0  501    0  0.00000000000E+00  0.00000000000E+00  0.16170605085E+04  0.16170605085E+04  0.00000000000E+00 0. -1.
         -2   -1    0    0    0  501 -0.00000000000E+00 -0.00000000000E+00 -0.49284733816E+03  0.49284733816E+03  0.00000000000E+00 0.  1.
         23    2    1    2    0    0 -0.50719670390E+03  0.28189918883E+02  0.92459809348E+03  0.10588940463E+04  0.91278688404E+02 0.  0.
        254    2    1    2    0    0  0.50719670390E+03 -0.28189918883E+02  0.19961507685E+03  0.10510138003E+04  0.89818743117E+03 0.  0.
        -24    2    4    4    0    0  0.35929402559E+03 -0.85730352656E+02  0.54453986391E+03  0.66270412622E+03  0.78811200506E+02 0.  0.
         24    2    4    4    0    0  0.14790267831E+03  0.57540433773E+02 -0.34492478707E+03  0.38830967407E+03  0.81395273010E+02 0.  0.
         13    1    3    3    0    0 -0.48983274140E+03  0.41841951463E+02  0.85968394093E+03  0.99032486677E+03  0.00000000000E+00 0. -1.
        -13    1    3    3    0    0 -0.17363962502E+02 -0.13652032579E+02  0.64914152546E+02  0.68569179578E+02  0.00000000000E+00 0.  1.
          2    1    6    6  502    0  0.40079184567E+02  0.12007888363E+02 -0.18767742243E+03  0.19228454256E+03  0.00000000000E+00 0. -1.
          3    1    5    5  503    0  0.14254882219E+03  0.47274502875E+01  0.19527445045E+03  0.24181527349E+03  0.00000000000E+00 0. -1.
         -4    1    5    5    0  503  0.21674520340E+03 -0.90457802944E+02  0.34926541347E+03  0.42088885273E+03  0.00000000000E+00 0.  1.
         -1    1    6    6    0  502  0.10782349375E+03  0.45532545410E+02 -0.15724736464E+03  0.19602513150E+03  0.00000000000E+00 0.  1.
<mgrwt>
<rscale>  0 0.17854568E+04</rscale>
<asrwt>0</asrwt>
<pdfrwt beam="1">  1        2 0.24877854E+00 0.17854568E+04</pdfrwt>
<pdfrwt beam="2">  1       -2 0.75822668E-01 0.17854568E+04</pdfrwt>
<totfact> 0.16069501E+01</totfact>
</mgrwt>
</event>
<event>
12    1  0.1504874E-007  0.1663941E+04  0.7818608E-02  0.8782202E-01
          1   -1    0    0  501    0  0.00000000000E+00  0.00000000000E+00  0.46478383561E+03  0.46478383561E+03  0.00000000000E+00 0. -1.
         -1   -1    0    0    0  501 -0.00000000000E+00 -0.00000000000E+00 -0.14892404186E+04  0.14892404186E+04  0.00000000000E+00 0.  1.
         23    2    1    2    0    0 -0.36644667502E+03  0.70528773295E+02  0.16270779673E+03  0.41696336971E+03  0.90150713081E+02 0.  0.
        254    2    1    2    0    0  0.36644667502E+03 -0.70528773295E+02 -0.11871643797E+04  0.15370608845E+04  0.90218591472E+03 0.  0.
        -24    2    4    4    0    0  0.36084488526E+03  0.36989375662E+03 -0.55488950329E+03  0.76237582112E+03  0.79272374567E+02 0.  0.
         24    2    4    4    0    0  0.56017897507E+01 -0.44042252991E+03 -0.63227487644E+03  0.77468506339E+03  0.79762417004E+02 0.  0.
         11    1    3    3    0    0 -0.29154036663E+03  0.85809104357E+02  0.10631541067E+03  0.32196576574E+03  0.00000000000E+00 0. -1.
        -11    1    3    3    0    0 -0.74906308386E+02 -0.15280331063E+02  0.56392386059E+02  0.94997603964E+02  0.00000000000E+00 0.  1.
          2    1    6    6  502    0  0.30901421182E+02 -0.73434849747E+02 -0.10664864591E+03  0.13312215692E+03  0.00000000000E+00 0. -1.
          3    1    5    5  503    0  0.60655185971E+02  0.26919585804E+02 -0.58413566746E+02  0.88407355265E+02  0.00000000000E+00 0. -1.
         -4    1    5    5    0  503  0.30018969929E+03  0.34297417081E+03 -0.49647593654E+03  0.67396846586E+03  0.00000000000E+00 0.  1.
         -1    1    6    6    0  502 -0.25299631431E+02 -0.36698768016E+03 -0.52562623053E+03  0.64156290647E+03  0.00000000000E+00 0.  1.
<mgrwt>
<rscale>  0 0.16639410E+04</rscale>
<asrwt>0</asrwt>
<pdfrwt beam="1">  1        1 0.71505208E-01 0.16639410E+04</pdfrwt>
<pdfrwt beam="2">  1       -1 0.22911390E+00 0.16639410E+04</pdfrwt>
<totfact> 0.44747977E+00</totfact>
</mgrwt>
</event>
<event>
12    1  0.1504874E-007  0.3211503E+04  0.7818608E-02  0.8185786E-01
          1   -1    0    0  501    0  0.00000000000E+00  0.00000000000E+00  0.22290069498E+04  0.22290069498E+04  0.00000000000E+00 0. -1.
         -1   -1    0    0    0  501 -0.00000000000E+00 -0.00000000000E+00 -0.11567653530E+04  0.11567653530E+04  0.00000000000E+00 0.  1.
         23    2    1    2    0    0 -0.10485878416E+04  0.81927289107E+03 -0.17620643488E+03  0.13451588854E+04  0.87516785674E+02 0.  0.
        254    2    1    2    0    0  0.10485878416E+04 -0.81927289107E+03  0.12484480317E+04  0.20406134174E+04  0.91363893307E+03 0.  0.
        -24    2    4    4    0    0  0.47214040318E+03 -0.52111213484E+03  0.11894121379E+04  0.13843476078E+04  0.85103748657E+02 0.  0.
         24    2    4    4    0    0  0.57644743839E+03 -0.29816075624E+03  0.59035893794E+02  0.65626580964E+03  0.77511872357E+02 0.  0.
         11    1    3    3    0    0 -0.20826478947E+02  0.34283108354E+02 -0.13208844541E+01  0.40135003170E+02  0.00000000000E+00 0. -1.
        -11    1    3    3    0    0 -0.10277613626E+04  0.78498978272E+03 -0.17488555042E+03  0.13050238822E+04  0.00000000000E+00 0.  1.
          2    1    6    6  502    0  0.52153367932E+03 -0.29341118160E+03  0.56942970695E+02  0.60110731327E+03  0.00000000000E+00 0. -1.
          3    1    5    5  503    0  0.44895620754E+03 -0.48058376884E+03  0.10678089248E+04  0.12540886472E+04  0.00000000000E+00 0. -1.
         -4    1    5    5    0  503  0.23184195645E+02 -0.40528365997E+02  0.12160321313E+03  0.13025896062E+03  0.00000000000E+00 0.  1.
         -1    1    6    6    0  502  0.54913759074E+02 -0.47495746347E+01  0.20929230996E+01  0.55158496371E+02  0.00000000000E+00 0.  1.
<mgrwt>
<rscale>  0 0.32115031E+04</rscale>
<asrwt>0</asrwt>
<pdfrwt beam="1">  1        1 0.34292415E+00 0.32115031E+04</pdfrwt>
<pdfrwt beam="2">  1       -1 0.17796390E+00 0.32115031E+04</pdfrwt>
<totfact> 0.37446824E-01</totfact>
</mgrwt>
</event>
<event>
12    1  0.1504874E-007  0.1517271E+04  0.7818608E-02  0.8873048E-01
          2   -1    0    0  501    0  0.00000000000E+00  0.00000000000E+00  0.10066586444E+04  0.10066586444E+04  0.00000000000E+00 0. -1.
         -2   -1    0    0    0  501 -0.00000000000E+00 -0.00000000000E+00 -0.57172109102E+03  0.57172109102E+03  0.00000000000E+00 0.  1.
         23    2    1    2    0    0  0.76230680040E+01  0.52452832175E+03  0.25541605116E+03  0.59107182776E+03  0.94554084526E+02 0.  0.
        254    2    1    2    0    0 -0.76230680040E+01 -0.52452832175E+03  0.17952150224E+03  0.98730790769E+03  0.81692157722E+03 0.  0.
        -24    2    4    4    0    0  0.25704595073E+03  0.58202092923E+02  0.20209142015E+03  0.34185528641E+03  0.81018456824E+02 0.  0.
         24    2    4    4    0    0 -0.26466901873E+03 -0.58273041467E+03 -0.22569917902E+02  0.64545262127E+03  0.80468996879E+02 0.  0.
         13    1    3    3    0    0 -0.14901472890E+02  0.49591637793E+03  0.24411565357E+03  0.55294444578E+03  0.00000000000E+00 0.  1.
        -13    1    3    3    0    0  0.22524540894E+02  0.28611943813E+02  0.11300397596E+02  0.38127381985E+02  0.00000000000E+00 0. -1.
          4    1    6    6  502    0 -0.17351096389E+03 -0.32535525939E+03 -0.45123076075E+02  0.37148107811E+03  0.00000000000E+00 0. -1.
          3    1    5    5  503    0  0.21326054907E+03  0.41548333891E+02  0.19945053641E+03  0.29493531886E+03  0.00000000000E+00 0. -1.
         -4    1    5    5    0  503  0.43785401656E+02  0.16653759031E+02  0.26408837388E+01  0.46919967551E+02  0.00000000000E+00 0.  1.
         -3    1    6    6    0  502 -0.91158054840E+02 -0.25737515528E+03  0.22553158173E+02  0.27397154316E+03  0.00000000000E+00 0.  1.
<mgrwt>
<rscale>  0 0.15172712E+04</rscale>
<asrwt>0</asrwt>
<pdfrwt beam="1">  1        2 0.15487056E+00 0.15172712E+04</pdfrwt>
<pdfrwt beam="2">  1       -2 0.87957091E-01 0.15172712E+04</pdfrwt>
<totfact> 0.26822219E+01</totfact>
</mgrwt>
</event>
<event>
12    1  0.1504874E-007  0.1363025E+04  0.7818608E-02  0.8981026E-01
          2   -1    0    0  501    0  0.00000000000E+00  0.00000000000E+00  0.27112477337E+04  0.27112477337E+04  0.00000000000E+00 0. -1.
         -2   -1    0    0    0  501 -0.00000000000E+00 -0.00000000000E+00 -0.17130841301E+03  0.17130841301E+03  0.00000000000E+00 0.  1.
         23    2    1    2    0    0  0.29411149097E+03  0.50310553181E+02  0.26909876619E+03  0.41231714244E+03  0.92512480814E+02 0.  0.
        254    2    1    2    0    0 -0.29411149097E+03 -0.50310553181E+02  0.22708405545E+04  0.24702390043E+04  0.92538164740E+03 0.  0.
        -24    2    4    4    0    0 -0.17119831912E+03  0.42176314573E+03  0.13215908732E+04  0.14000568341E+04  0.79772720873E+02 0.  0.
         24    2    4    4    0    0 -0.12291317185E+03 -0.47207369891E+03  0.94924968125E+03  0.10701821701E+04  0.79080306510E+02 0.  0.
         11    1    3    3    0    0  0.23770164911E+03  0.23687362401E+02  0.16283791121E+03  0.28910093472E+03  0.00000000000E+00 0.  1.
        -11    1    3    3    0    0  0.56409841861E+02  0.26623190779E+02  0.10626085498E+03  0.12321620773E+03  0.00000000000E+00 0. -1.
          2    1    6    6  502    0 -0.82945770215E+02 -0.18626758083E+03  0.43716761114E+03  0.48238069271E+03  0.00000000000E+00 0. -1.
          3    1    5    5  503    0 -0.39284458548E+02  0.36145276252E+02  0.18779742832E+03  0.19523735237E+03  0.00000000000E+00 0. -1.
         -4    1    5    5    0  503 -0.13191386057E+03  0.38561786948E+03  0.11337934449E+04  0.12048194818E+04  0.00000000000E+00 0.  1.
         -1    1    6    6    0  502 -0.39967401632E+02 -0.28580611808E+03  0.51208207011E+03  0.58780147742E+03  0.00000000000E+00 0.  1.
<mgrwt>
<rscale>  0 0.13630254E+04</rscale>
<asrwt>0</asrwt>
<pdfrwt beam="1">  1        2 0.41711500E+00 0.13630254E+04</pdfrwt>
<pdfrwt beam="2">  1       -2 0.26355142E-01 0.13630254E+04</pdfrwt>
<totfact> 0.33456303E+01</totfact>
</mgrwt>
</event>
<event>
12    1  0.1504874E-007  0.3226392E+04  0.7818608E-02  0.8181882E-01
          2   -1    0    0  501    0  0.00000000000E+00  0.00000000000E+00  0.27710678824E+04  0.27710678824E+04  0.00000000000E+00 0. -1.
         -2   -1    0    0    0  501 -0.00000000000E+00 -0.00000000000E+00 -0.93913288865E+03  0.93913288865E+03  0.00000000000E+00 0.  1.
         23    2    1    2    0    0 -0.76246664548E+03 -0.78226999210E+03 -0.31243972678E+03  0.11398515588E+04  0.91330538082E+02 0.  0.
        254    2    1    2    0    0  0.76246664548E+03  0.78226999210E+03  0.21443747205E+04  0.25703492123E+04  0.90280142051E+03 0.  0.
        -24    2    4    4    0    0  0.93534900770E+03  0.78608181258E+03  0.18051578299E+04  0.21812861626E+04  0.81315127846E+02 0.  0.
         24    2    4    4    0    0 -0.17288236221E+03 -0.38118204750E+01  0.33921689067E+03  0.38906304969E+03  0.79994478432E+02 0.  0.
         11    1    3    3    0    0 -0.57713882875E+03 -0.64138254985E+03 -0.23087045471E+03  0.89317521784E+03  0.00000000000E+00 0.  1.
        -11    1    3    3    0    0 -0.18532781673E+03 -0.14088744226E+03 -0.81569272070E+02  0.24667634095E+03  0.00000000000E+00 0. -1.
          4    1    6    6  502    0 -0.37563320527E+02 -0.31118902644E+02  0.57961658824E+02  0.75755811952E+02  0.00000000000E+00 0. -1.
          1    1    5    5  503    0  0.83143029183E+02  0.48226075682E+02  0.16863886377E+03  0.19410714580E+03  0.00000000000E+00 0. -1.
         -2    1    5    5    0  503  0.85220597852E+03  0.73785573690E+03  0.16365189661E+04  0.19871790168E+04  0.00000000000E+00 0.  1.
         -3    1    6    6    0  502 -0.13531904169E+03  0.27307082169E+02  0.28125523185E+03  0.31330723774E+03  0.00000000000E+00 0.  1.
<mgrwt>
<rscale>  0 0.32263918E+04</rscale>
<asrwt>0</asrwt>
<pdfrwt beam="1">  1        2 0.42631813E+00 0.32263918E+04</pdfrwt>
<pdfrwt beam="2">  1       -2 0.14448198E+00 0.32263918E+04</pdfrwt>
<totfact> 0.66876912E-01</totfact>
</mgrwt>
</event>
<event>
12    1  0.1504874E-007  0.3560688E+04  0.7818608E-02  0.8099556E-01
         -2   -1    0    0    0  501 -0.00000000000E+00  0.00000000000E+00  0.17692144167E+04  0.17692144167E+04  0.00000000000E+00 0.  1.
          2   -1    0    0  501    0  0.00000000000E+00 -0.00000000000E+00 -0.17915434132E+04  0.17915434132E+04  0.00000000000E+00 0. -1.
         23    2    1    2    0    0 -0.38848295800E+02 -0.71771739671E+03  0.14871911902E+04  0.16543400644E+04  0.92064981982E+02 0.  0.
        254    2    1    2    0    0  0.38848295800E+02  0.71771739671E+03 -0.15095201866E+04  0.19064177655E+04  0.91605133652E+03 0.  0.
        -24    2    4    4    0    0  0.32656984529E+03  0.47206186853E+02 -0.86505907810E+03  0.92934852216E+03  0.80530609781E+02 0.  0.
         24    2    4    4    0    0 -0.28772154949E+03  0.67051120986E+03 -0.64446110854E+03  0.97706924335E+03  0.83457853369E+02 0.  0.
         11    1    3    3    0    0  0.25044175397E+02 -0.11572649443E+03  0.21460285114E+03  0.24510042014E+03  0.00000000000E+00 0. -1.
        -11    1    3    3    0    0 -0.63892471197E+02 -0.60199090229E+03  0.12725883390E+04  0.14092396442E+04  0.00000000000E+00 0.  1.
          2    1    6    6  502    0 -0.23818594383E+03  0.45910233907E+03 -0.45897197525E+03  0.69149314938E+03  0.00000000000E+00 0. -1.
          3    1    5    5  503    0  0.31821931704E+03  0.59961042870E+02 -0.83619737713E+03  0.89670781970E+03  0.00000000000E+00 0. -1.
         -4    1    5    5    0  503  0.83505282489E+01 -0.12754856017E+02 -0.28861700972E+02  0.32640702459E+02  0.00000000000E+00 0.  1.
         -1    1    6    6    0  502 -0.49535605661E+02  0.21140887079E+03 -0.18548913328E+03  0.28557609396E+03  0.00000000000E+00 0.  1.
<mgrwt>
<rscale>  0 0.35606878E+04</rscale>
<asrwt>0</asrwt>
<pdfrwt beam="1">  1        2 0.27562206E+00 0.35606878E+04</pdfrwt>
<pdfrwt beam="2">  1       -2 0.27218684E+00 0.35606878E+04</pdfrwt>
<totfact> 0.33520771E-01</totfact>
</mgrwt>
</event>
<event>
12    1  0.1504874E-007  0.1180005E+04  0.7818608E-02  0.9130541E-01
          2   -1    0    0  501    0  0.00000000000E+00  0.00000000000E+00  0.45113154023E+04  0.45113154023E+04  0.00000000000E+00 0. -1.
         -2   -1    0    0    0  501 -0.00000000000E+00 -0.00000000000E+00 -0.77162125173E+02  0.77162125173E+02  0.00000000000E+00 0.  1.
         23    2    1    2    0    0 -0.12562684192E+03 -0.96823485873E+02  0.27775242309E+03  0.33417958201E+03  0.96812673114E+02 0.  0.
        254    2    1    2    0    0  0.12562684192E+03  0.96823485873E+02  0.41564008540E+04  0.42542979455E+04  0.89343497719E+03 0.  0.
        -24    2    4    4    0    0 -0.21863580560E+03 -0.21783460922E+02  0.29951333263E+03  0.37949501232E+03  0.77666551979E+02 0.  0.
         24    2    4    4    0    0  0.34426264752E+03  0.11860694680E+03  0.38568875214E+04  0.38748029331E+04  0.77019734651E+02 0.  0.
         13    1    3    3    0    0 -0.12454920208E+03 -0.66478392507E+02  0.16377572711E+03  0.21622758658E+03  0.00000000000E+00 0.  1.
        -13    1    3    3    0    0 -0.10776398337E+01 -0.30345093366E+02  0.11397669598E+03  0.11795199543E+03  0.00000000000E+00 0. -1.
          2    1    6    6  502    0  0.12164649815E+03  0.75943905880E+02  0.12989457007E+04  0.13068378938E+04  0.00000000000E+00 0. -1.
          1    1    5    5  503    0  0.14280444874E+01 -0.12700588700E+02  0.17214759811E+02  0.21440434225E+02  0.00000000000E+00 0. -1.
         -4    1    5    5    0  503 -0.22006385009E+03 -0.90828722221E+01  0.28229857281E+03  0.35805457810E+03  0.00000000000E+00 0.  1.
         -1    1    6    6    0  502  0.22261614937E+03  0.42663040915E+02  0.25579418207E+04  0.25679650393E+04  0.00000000000E+00 0.  1.
<mgrwt>
<rscale>  0 0.11800045E+04</rscale>
<asrwt>0</asrwt>
<pdfrwt beam="1">  1        2 0.69404832E+00 0.11800045E+04</pdfrwt>
<pdfrwt beam="2">  1       -2 0.11871100E-01 0.11800045E+04</pdfrwt>
<totfact> 0.65360846E+00</totfact>
</mgrwt>
</event>
<event>
12    1  0.1504874E-007  0.2113798E+04  0.7818608E-02  0.8555190E-01
         -2   -1    0    0    0  501 -0.00000000000E+00  0.00000000000E+00  0.12831335861E+04  0.12831335861E+04  0.00000000000E+00 0.  1.
          2   -1    0    0  501    0  0.00000000000E+00 -0.00000000000E+00 -0.87055272140E+03  0.87055272140E+03  0.00000000000E+00 0. -1.
         23    2    1    2    0    0 -0.52442166091E+03 -0.23956440683E+03  0.83126687527E+03  0.10154449651E+04  0.87833227166E+02 0.  0.
        254    2    1    2    0    0  0.52442166091E+03  0.23956440683E+03 -0.41868601058E+03  0.11382413424E+04  0.88762953678E+03 0.  0.
        -24    2    4    4    0    0 -0.63730345468E+02  0.41405723633E+03 -0.25406789612E+03  0.49712879552E+03  0.84152193120E+02 0.  0.
         24    2    4    4    0    0  0.58815200638E+03 -0.17449282950E+03 -0.16461811446E+03  0.64111254685E+03  0.86923207260E+02 0.  0.
         13    1    3    3    0    0 -0.15171396423E+03 -0.53638637623E+02  0.29935313148E+03  0.33986251296E+03  0.00000000000E+00 0.  1.
        -13    1    3    3    0    0 -0.37270769668E+03 -0.18592576921E+03  0.53191374378E+03  0.67558245214E+03  0.00000000000E+00 0. -1.
          2    1    6    6  502    0  0.56077815331E+02 -0.40446752935E+02 -0.34145115961E+02  0.77113877735E+02  0.00000000000E+00 0. -1.
          3    1    5    5  503    0 -0.46971657484E+02  0.90568962966E+02 -0.44374207443E+02  0.11125710739E+03  0.00000000000E+00 0. -1.
         -4    1    5    5    0  503 -0.16758687983E+02  0.32348827336E+03 -0.20969368868E+03  0.38587168812E+03  0.00000000000E+00 0.  1.
         -1    1    6    6    0  502  0.53207419105E+03 -0.13404607656E+03 -0.13047299850E+03  0.56399866911E+03  0.00000000000E+00 0.  1.
<mgrwt>
<rscale>  0 0.21137979E+04</rscale>
<asrwt>0</asrwt>
<pdfrwt beam="1">  1        2 0.13393119E+00 0.21137979E+04</pdfrwt>
<pdfrwt beam="2">  1       -2 0.19740517E+00 0.21137979E+04</pdfrwt>
<totfact> 0.39095926E+00</totfact>
</mgrwt>
</event>
<event>
12    1  0.1504874E-007  0.1379681E+04  0.7818608E-02  0.8968659E-01
         -1   -1    0    0    0  501 -0.00000000000E+00  0.00000000000E+00  0.10281470361E+04  0.10281470361E+04  0.00000000000E+00 0.  1.
          1   -1    0    0  501    0  0.00000000000E+00 -0.00000000000E+00 -0.46285188993E+03  0.46285188993E+03  0.00000000000E+00 0. -1.
         23    2    1    2    0    0  0.10717923931E+03  0.22706571903E+03  0.48827495660E+03  0.55663554672E+03  0.91566743542E+02 0.  0.
        254    2    1    2    0    0 -0.10717923931E+03 -0.22706571903E+03  0.77020189546E+02  0.93436337930E+03  0.89669202343E+03 0.  0.
        -24    2    4    4    0    0  0.25016048594E+03  0.20936545967E+03  0.13424902228E+03  0.36171375692E+03  0.79999234556E+02 0.  0.
         24    2    4    4    0    0 -0.35733972524E+03 -0.43643117871E+03 -0.57228832733E+02  0.57264962238E+03  0.80551832585E+02 0.  0.
         11    1    3    3    0    0  0.10321969899E+03  0.11569899046E+03  0.30479583962E+03  0.34196646985E+03  0.00000000000E+00 0.  1.
        -11    1    3    3    0    0  0.39595403178E+01  0.11136672858E+03  0.18347911699E+03  0.21466907687E+03  0.00000000000E+00 0. -1.
          2    1    6    6  502    0 -0.87804695569E+02 -0.15723288430E+03  0.18950855719E+01  0.18009840593E+03  0.00000000000E+00 0. -1.
          3    1    5    5  503    0  0.43896032345E+02  0.85539900489E+01  0.36412295756E+02  0.57670509653E+02  0.00000000000E+00 0. -1.
         -4    1    5    5    0  503  0.20626445359E+03  0.20081146963E+03  0.97836726523E+02  0.30404324726E+03  0.00000000000E+00 0.  1.
         -1    1    6    6    0  502 -0.26953502968E+03 -0.27919829441E+03 -0.59123918305E+02  0.39255121645E+03  0.00000000000E+00 0.  1.
<mgrwt>
<rscale>  0 0.13796808E+04</rscale>
<asrwt>0</asrwt>
<pdfrwt beam="1">  1        1 0.71207983E-01 0.13796808E+04</pdfrwt>
<pdfrwt beam="2">  1       -1 0.15817647E+00 0.13796808E+04</pdfrwt>
<totfact> 0.14520864E+01</totfact>
</mgrwt>
</event>
<event>
12    1  0.1504874E-007  0.1298447E+04  0.7818608E-02  0.9030798E-01
         -2   -1    0    0    0  501 -0.00000000000E+00  0.00000000000E+00  0.28634212042E+03  0.28634212042E+03  0.00000000000E+00 0.  1.
          2   -1    0    0  501    0  0.00000000000E+00 -0.00000000000E+00 -0.14719841298E+04  0.14719841298E+04  0.00000000000E+00 0. -1.
         23    2    1    2    0    0 -0.16929178711E+03  0.15454921658E+01 -0.72900320250E+03  0.75381746917E+03  0.90183201553E+02 0.  0.
        254    2    1    2    0    0  0.16929178711E+03 -0.15454921658E+01 -0.45663880683E+03  0.10045087810E+04  0.87855380796E+03 0.  0.
        -24    2    4    4    0    0  0.86234608939E+02 -0.38423143399E+03 -0.45314890515E+03  0.60467618326E+03  0.72243710582E+02 0.  0.
         24    2    4    4    0    0  0.83057178175E+02  0.38268594183E+03 -0.34899016790E+01  0.39983259774E+03  0.80665369786E+02 0.  0.
         13    1    3    3    0    0 -0.61290758553E+02 -0.39590870566E+02 -0.35264872340E+03  0.36011819759E+03  0.00000000000E+00 0. -1.
        -13    1    3    3    0    0 -0.10800102856E+03  0.41136362732E+02 -0.37635447910E+03  0.39369927158E+03  0.00000000000E+00 0.  1.
          4    1    6    6  502    0 -0.66217701351E+01  0.14622976369E+03 -0.11354913712E+02  0.14681936417E+03  0.00000000000E+00 0. -1.
          1    1    5    5  503    0  0.88682632152E+02 -0.25865749173E+03 -0.28711692909E+03  0.39649014899E+03  0.00000000000E+00 0. -1.
         -4    1    5    5    0  503 -0.24480232129E+01 -0.12557394227E+03 -0.16603197606E+03  0.20818603428E+03  0.00000000000E+00 0.  1.
         -1    1    6    6    0  502  0.89678948310E+02  0.23645617814E+03  0.78650120326E+01  0.25301323358E+03  0.00000000000E+00 0.  1.
<mgrwt>
<rscale>  0 0.12984469E+04</rscale>
<asrwt>0</asrwt>
<pdfrwt beam="1">  1        2 0.22645910E+00 0.12984469E+04</pdfrwt>
<pdfrwt beam="2">  1       -2 0.44052632E-01 0.12984469E+04</pdfrwt>
<totfact> 0.63045345E+01</totfact>
</mgrwt>
</event>
<event>
12    1  0.1504874E-007  0.1920359E+04  0.7818608E-02  0.8644788E-01
         -1   -1    0    0    0  501 -0.00000000000E+00  0.00000000000E+00  0.69557689807E+03  0.69557689807E+03  0.00000000000E+00 0.  1.
          1   -1    0    0  501    0  0.00000000000E+00 -0.00000000000E+00 -0.13254384462E+04  0.13254384462E+04  0.00000000000E+00 0. -1.
         23    2    1    2    0    0  0.60557044116E+03 -0.23439410019E+02  0.21267351563E+03  0.64859402611E+03  0.90439047462E+02 0.  0.
        254    2    1    2    0    0 -0.60557044116E+03  0.23439410019E+02 -0.84253506380E+03  0.13724213182E+04  0.89800332728E+03 0.  0.
        -24    2    4    4    0    0 -0.71287496013E+03 -0.26285743850E+03 -0.54096049445E+03  0.93613225766E+03  0.80128681021E+02 0.  0.
         24    2    4    4    0    0  0.10730451898E+03  0.28629684852E+03 -0.30157456934E+03  0.43628906055E+03  0.76946593258E+02 0.  0.
         13    1    3    3    0    0  0.50770793818E+03 -0.49872281333E+02  0.19233767816E+03  0.54520489486E+03  0.00000000000E+00 0.  1.
        -13    1    3    3    0    0  0.97862502978E+02  0.26432871314E+02  0.20335837466E+02  0.10338913125E+03  0.00000000000E+00 0. -1.
          4    1    6    6  502    0  0.10387449243E+03  0.25833112907E+03 -0.23628217765E+03  0.36517687481E+03  0.00000000000E+00 0. -1.
          3    1    5    5  503    0 -0.56079513877E+03 -0.22126216109E+03 -0.39114444193E+03  0.71863906521E+03  0.00000000000E+00 0. -1.
         -4    1    5    5    0  503 -0.15207982136E+03 -0.41595277409E+02 -0.14981605253E+03  0.21749319245E+03  0.00000000000E+00 0.  1.
         -3    1    6    6    0  502  0.34300265499E+01  0.27965719443E+02 -0.65292391697E+02  0.71112185732E+02  0.00000000000E+00 0.  1.
<mgrwt>
<rscale>  0 0.19203587E+04</rscale>
<asrwt>0</asrwt>
<pdfrwt beam="1">  1        1 0.20391360E+00 0.19203587E+04</pdfrwt>
<pdfrwt beam="2">  1       -1 0.10701183E+00 0.19203587E+04</pdfrwt>
<totfact> 0.65988358E+00</totfact>
</mgrwt>
</event>
<event>
12    1  0.1504874E-007  0.2209826E+04  0.7818608E-02  0.8514350E-01
          1   -1    0    0  501    0  0.00000000000E+00  0.00000000000E+00  0.76517515308E+03  0.76517515308E+03  0.00000000000E+00 0. -1.
         -1   -1    0    0    0  501 -0.00000000000E+00 -0.00000000000E+00 -0.15954938827E+04  0.15954938827E+04  0.00000000000E+00 0.  1.
         23    2    1    2    0    0 -0.24131564744E+03  0.87729594835E+03 -0.44884760703E+03  0.10190455287E+04  0.95436851378E+02 0.  0.
        254    2    1    2    0    0  0.24131564744E+03 -0.87729594835E+03 -0.38147112260E+03  0.13416235071E+04  0.90914904973E+03 0.  0.
        -24    2    4    4    0    0 -0.20432918237E+03 -0.33218642001E+03 -0.48369663346E+03  0.62605940669E+03  0.76744479071E+02 0.  0.
         24    2    4    4    0    0  0.44564482981E+03 -0.54510952834E+03  0.10222551086E+03  0.71556410038E+03  0.76408209350E+02 0.  0.
         11    1    3    3    0    0 -0.91543202008E+02  0.30572561886E+03 -0.10800271670E+03  0.33691675333E+03  0.00000000000E+00 0. -1.
        -11    1    3    3    0    0 -0.14977244543E+03  0.57157032949E+03 -0.34084489033E+03  0.68212877540E+03  0.00000000000E+00 0.  1.
          2    1    6    6  502    0  0.44218907675E+03 -0.52097773105E+03  0.10360980517E+03  0.69114684950E+03  0.00000000000E+00 0. -1.
          1    1    5    5  503    0 -0.13478519513E+03 -0.17232706999E+03 -0.22260519311E+03  0.31211654855E+03  0.00000000000E+00 0. -1.
         -2    1    5    5    0  503 -0.69543987240E+02 -0.15985935003E+03 -0.26109144035E+03  0.31394285814E+03  0.00000000000E+00 0.  1.
         -1    1    6    6    0  502  0.34557530612E+01 -0.24131797291E+02 -0.13842943155E+01  0.24417250878E+02  0.00000000000E+00 0.  1.
<mgrwt>
<rscale>  0 0.22098256E+04</rscale>
<asrwt>0</asrwt>
<pdfrwt beam="1">  1        1 0.11771926E+00 0.22098256E+04</pdfrwt>
<pdfrwt beam="2">  1       -1 0.24546059E+00 0.22098256E+04</pdfrwt>
<totfact> 0.16139637E+00</totfact>
</mgrwt>
</event>
<event>
12    1  0.1504874E-007  0.1202051E+04  0.7818608E-02  0.9111063E-01
         -2   -1    0    0    0  501 -0.00000000000E+00  0.00000000000E+00  0.71399466946E+03  0.71399466946E+03  0.00000000000E+00 0.  1.
          2   -1    0    0  501    0  0.00000000000E+00 -0.00000000000E+00 -0.50593079699E+03  0.50593079699E+03  0.00000000000E+00 0. -1.
         23    2    1    2    0    0 -0.12714146244E+03  0.19131117855E+03 -0.60096203865E+02  0.25455075763E+03  0.91758465443E+02 0.  0.
        254    2    1    2    0    0  0.12714146244E+03 -0.19131117855E+03  0.26816007634E+03  0.96537470882E+03  0.89848404737E+03 0.  0.
        -24    2    4    4    0    0  0.20673837083E+03  0.21635829335E+03 -0.17274991544E+03  0.35451795875E+03  0.79301858255E+02 0.  0.
         24    2    4    4    0    0 -0.79596908389E+02 -0.40766947190E+03  0.44090999178E+03  0.61085675007E+03  0.78830718080E+02 0.  0.
         11    1    3    3    0    0  0.26777023053E+01  0.49288142666E+02  0.88661048568E+01  0.50150761833E+02  0.00000000000E+00 0.  1.
        -11    1    3    3    0    0 -0.12981916474E+03  0.14202303588E+03 -0.68962308722E+02  0.20439999579E+03  0.00000000000E+00 0. -1.
          4    1    6    6  502    0 -0.15555330028E+02 -0.20716716340E+03  0.26373297887E+03  0.33573097270E+03  0.00000000000E+00 0. -1.
          1    1    5    5  503    0 -0.51965073825E+01  0.10495403443E+01 -0.10085884367E+02  0.11394309429E+02  0.00000000000E+00 0. -1.
         -2    1    5    5    0  503  0.21193487821E+03  0.21530875300E+03 -0.16266403107E+03  0.34312364932E+03  0.00000000000E+00 0.  1.
         -3    1    6    6    0  502 -0.64041578361E+02 -0.20050230850E+03  0.17717701290E+03  0.27512577737E+03  0.00000000000E+00 0.  1.
<mgrwt>
<rscale>  0 0.12020514E+04</rscale>
<asrwt>0</asrwt>
<pdfrwt beam="1">  1        2 0.77835507E-01 0.12020514E+04</pdfrwt>
<pdfrwt beam="2">  1       -2 0.10984533E+00 0.12020514E+04</pdfrwt>
<totfact> 0.39506159E+01</totfact>
</mgrwt>
</event>
<event>
12    1  0.1504874E-007  0.1670300E+04  0.7818608E-02  0.8778487E-01
          1   -1    0    0  501    0  0.00000000000E+00  0.00000000000E+00  0.82669675024E+03  0.82669675024E+03  0.00000000000E+00 0. -1.
         -1   -1    0    0    0  501 -0.00000000000E+00 -0.00000000000E+00 -0.84368988368E+03  0.84368988368E+03  0.00000000000E+00 0.  1.
         23    2    1    2    0    0 -0.13028393283E+03  0.56745549941E+03  0.77926136825E+02  0.59419160543E+03  0.89507174013E+02 0.  0.
        254    2    1    2    0    0  0.13028393283E+03 -0.56745549941E+03 -0.94919270265E+02  0.10761950285E+04  0.90011467299E+03 0.  0.
        -24    2    4    4    0    0 -0.14382831937E+03  0.17154072400E+03  0.10482231205E+03  0.25907501377E+03  0.77584407001E+02 0.  0.
         24    2    4    4    0    0  0.27411225220E+03 -0.73899622341E+03 -0.19974158232E+03  0.81712001473E+03  0.80842276913E+02 0.  0.
         13    1    3    3    0    0 -0.13044226083E+03  0.56308716745E+03  0.66321619168E+02  0.58179111262E+03  0.00000000000E+00 0. -1.
        -13    1    3    3    0    0  0.15832799963E+00  0.43683319615E+01  0.11604517657E+02  0.12400492810E+02  0.00000000000E+00 0.  1.
          2    1    6    6  502    0  0.25522434689E+03 -0.72492976492E+03 -0.19713396067E+03  0.79342575567E+03  0.00000000000E+00 0. -1.
          3    1    5    5  503    0 -0.78457293673E+02  0.13401239377E+03  0.41785621626E+02  0.16081326683E+03  0.00000000000E+00 0. -1.
         -4    1    5    5    0  503 -0.65371025700E+02  0.37528330235E+02  0.63036690428E+02  0.98261746938E+02  0.00000000000E+00 0.  1.
         -1    1    6    6    0  502  0.18887905310E+02 -0.14066458488E+02 -0.26076216526E+01  0.23694259053E+02  0.00000000000E+00 0.  1.
<mgrwt>
<rscale>  0 0.16703002E+04</rscale>
<asrwt>0</asrwt>
<pdfrwt beam="1">  1        1 0.12718412E+00 0.16703002E+04</pdfrwt>
<pdfrwt beam="2">  1       -1 0.12979844E+00 0.16703002E+04</pdfrwt>
<totfact> 0.10184311E+01</totfact>
</mgrwt>
</event>
<event>
12    1  0.1589202E-007  0.2055864E+04  0.7818608E-02  0.8580939E-01
         -2   -1    0    0    0  501 -0.00000000000E+00  0.00000000000E+00  0.53830703187E+03  0.53830703187E+03  0.00000000000E+00 0. -1.
          2   -1    0    0  501    0  0.00000000000E+00 -0.00000000000E+00 -0.19629016054E+04  0.19629016054E+04  0.00000000000E+00 0.  1.
         23    2    1    2    0    0 -0.53147778784E+03  0.31388935403E+02 -0.13327026522E+04  0.14383359143E+04  0.96228575716E+02 0.  0.
        254    2    1    2    0    0  0.53147778784E+03 -0.31388935403E+02 -0.91891921307E+02  0.10628727230E+04  0.91531436997E+03 0.  0.
        -24    2    4    4    0    0  0.12097334942E+03  0.40305271035E+03  0.81001902275E+02  0.43499371209E+03  0.74647054854E+02 0.  0.
         24    2    4    4    0    0  0.41050443842E+03 -0.43444164575E+03 -0.17289382358E+03  0.62787901091E+03  0.84180404991E+02 0.  0.
         13    1    3    3    0    0 -0.36328044575E+03 -0.17452000131E+02 -0.83710984502E+03  0.91270485218E+03  0.00000000000E+00 0.  1.
        -13    1    3    3    0    0 -0.16819734209E+03  0.48840935534E+02 -0.49559280720E+03  0.52563106207E+03  0.00000000000E+00 0. -1.
          2    1    6    6  502    0  0.35635223987E+03 -0.34432310164E+03 -0.11846813632E+03  0.50948995722E+03  0.00000000000E+00 0. -1.
          3    1    5    5  503    0  0.43686965190E+02  0.26358801319E+03  0.63187209333E+02  0.27455384727E+03  0.00000000000E+00 0. -1.
         -4    1    5    5    0  503  0.77286384232E+02  0.13946469716E+03  0.17814692942E+02  0.16043986483E+03  0.00000000000E+00 0.  1.
         -1    1    6    6    0  502  0.54152198550E+02 -0.90118544110E+02 -0.54425687260E+02  0.11838905369E+03  0.00000000000E+00 0.  1.
<mgrwt>
<rscale>  0 0.20558636E+04</rscale>
<asrwt>0</asrwt>
<pdfrwt beam="1">  1        2 0.30198487E+00 0.20558636E+04</pdfrwt>
<pdfrwt beam="2">  1       -2 0.82816464E-01 0.20558636E+04</pdfrwt>
<totfact> 0.82828198E+00</totfact>
</mgrwt>
</event>
<event>
12    1  0.1504874E-007  0.1542061E+04  0.7818608E-02  0.8856955E-01
         -1   -1    0    0    0  501 -0.00000000000E+00  0.00000000000E+00  0.25645209804E+03  0.25645209804E+03  0.00000000000E+00 0.  1.
          1   -1    0    0  501    0  0.00000000000E+00 -0.00000000000E+00 -0.23181246977E+04  0.23181246977E+04  0.00000000000E+00 0. -1.
         23    2    1    2    0    0 -0.36210904195E+03 -0.28325282898E+03 -0.10313467125E+04  0.11327979408E+04  0.90553905620E+02 0.  0.
        254    2    1    2    0    0  0.36210904195E+03  0.28325282898E+03 -0.10303258872E+04  0.14417788550E+04  0.89766347230E+03 0.  0.
        -24    2    4    4    0    0 -0.16113086056E+03  0.37274288668E+03 -0.69456994329E+03  0.80854379613E+03  0.80095257846E+02 0.  0.
         24    2    4    4    0    0  0.52323990251E+03 -0.89490057705E+02 -0.33575594386E+03  0.63323505884E+03  0.80412187523E+02 0.  0.
         13    1    3    3    0    0 -0.33904593853E+03 -0.27538145532E+03 -0.91477514111E+03  0.10137063940E+04  0.00000000000E+00 0. -1.
        -13    1    3    3    0    0 -0.23063103417E+02 -0.78713736608E+01 -0.11657157139E+03  0.11909154680E+03  0.00000000000E+00 0.  1.
          2    1    6    6  502    0  0.10911796372E+03 -0.18449723381E+02 -0.33444987288E+02  0.11561007514E+03  0.00000000000E+00 0. -1.
          1    1    5    5  503    0 -0.64064724967E+01 -0.32599166150E+01 -0.14837812280E+02  0.16487286600E+02  0.00000000000E+00 0. -1.
         -2    1    5    5    0  503 -0.15472438806E+03  0.37600280330E+03 -0.67973213101E+03  0.79205650953E+03  0.00000000000E+00 0.  1.
         -1    1    6    6    0  502  0.41412193878E+03 -0.71040334324E+02 -0.30231095657E+03  0.51762498369E+03  0.00000000000E+00 0.  1.
<mgrwt>
<rscale>  0 0.15420609E+04</rscale>
<asrwt>0</asrwt>
<pdfrwt beam="1">  1        1 0.35663457E+00 0.15420609E+04</pdfrwt>
<pdfrwt beam="2">  1       -1 0.39454169E-01 0.15420609E+04</pdfrwt>
<totfact> 0.10907793E+01</totfact>
</mgrwt>
</event>
<event>
12    1  0.1504874E-007  0.1506797E+04  0.7818608E-02  0.8879946E-01
         -2   -1    0    0    0  501 -0.00000000000E+00  0.00000000000E+00  0.13685748199E+04  0.13685748199E+04  0.00000000000E+00 0.  1.
          2   -1    0    0  501    0  0.00000000000E+00 -0.00000000000E+00 -0.41474469812E+03  0.41474469812E+03  0.00000000000E+00 0. -1.
         23    2    1    2    0    0 -0.11142677765E+03 -0.39120575434E+03  0.62790027102E+03  0.75355629815E+03  0.90169147365E+02 0.  0.
        254    2    1    2    0    0  0.11142677765E+03  0.39120575434E+03  0.32592985077E+03  0.10297632199E+04  0.88810143134E+03 0.  0.
        -24    2    4    4    0    0  0.43372398131E+03 -0.18139609425E+02  0.21578344574E+03  0.49147521294E+03  0.80869351928E+02 0.  0.
         24    2    4    4    0    0 -0.32229720366E+03  0.40934536377E+03  0.11014640503E+03  0.53828800692E+03  0.78629724225E+02 0.  0.
         11    1    3    3    0    0 -0.20394276831E+02 -0.19431270125E+03  0.35206091486E+03  0.40264157780E+03  0.00000000000E+00 0. -1.
        -11    1    3    3    0    0 -0.91032500823E+02 -0.19689305309E+03  0.27583935615E+03  0.35091472036E+03  0.00000000000E+00 0.  1.
          2    1    6    6  502    0 -0.16446375217E+03  0.27076502864E+03  0.70231456678E+02  0.32449111547E+03  0.00000000000E+00 0. -1.
          1    1    5    5  503    0  0.30740633317E+03 -0.35659810357E+02  0.18404016123E+03  0.36005701867E+03  0.00000000000E+00 0. -1.
         -2    1    5    5    0  503  0.12631764814E+03  0.17520200932E+02  0.31743284506E+02  0.13141819427E+03  0.00000000000E+00 0.  1.
         -1    1    6    6    0  502 -0.15783345149E+03  0.13858033513E+03  0.39914948354E+02  0.21379689145E+03  0.00000000000E+00 0.  1.
<mgrwt>
<rscale>  0 0.15067968E+04</rscale>
<asrwt>0</asrwt>
<pdfrwt beam="1">  1        2 0.63806878E-01 0.15067968E+04</pdfrwt>
<pdfrwt beam="2">  1       -2 0.21054997E+00 0.15067968E+04</pdfrwt>
<totfact> 0.83646955E+00</totfact>
</mgrwt>
</event>
<event>
12    1  0.1504874E-007  0.2600865E+04  0.7818608E-02  0.8367907E-01
         -1   -1    0    0    0  501 -0.00000000000E+00  0.00000000000E+00  0.11328303242E+04  0.11328303242E+04  0.00000000000E+00 0.  1.
          1   -1    0    0  501    0  0.00000000000E+00 -0.00000000000E+00 -0.14928316341E+04  0.14928316341E+04  0.00000000000E+00 0. -1.
         23    2    1    2    0    0 -0.10099054962E+03 -0.11032441323E+04 -0.43391016983E+03  0.11933564471E+04  0.92059045371E+02 0.  0.
        254    2    1    2    0    0  0.10099054962E+03  0.11032441323E+04  0.73908859924E+02  0.14323055111E+04  0.90481481589E+03 0.  0.
        -24    2    4    4    0    0 -0.53582011610E+02 -0.12475872504E+03  0.10755820239E+03  0.19172257519E+03  0.82176684622E+02 0.  0.
         24    2    4    4    0    0  0.15457256124E+03  0.12280028573E+04 -0.33649342461E+02  0.12405829359E+04  0.77653385944E+02 0.  0.
         13    1    3    3    0    0 -0.35340114798E+02 -0.24977727856E+03 -0.60213147395E+02  0.25935156780E+03  0.00000000000E+00 0. -1.
        -13    1    3    3    0    0 -0.65650434827E+02 -0.85346685372E+03 -0.37369702244E+03  0.93400487931E+03  0.00000000000E+00 0.  1.
          2    1    6    6  502    0  0.13202989442E+03  0.75926883832E+03 -0.31389160899E+02  0.77130171871E+03  0.00000000000E+00 0. -1.
          3    1    5    5  503    0 -0.73758033621E+02 -0.98893080921E+02  0.69960635272E+02  0.14182587728E+03  0.00000000000E+00 0. -1.
         -4    1    5    5    0  503  0.20176022011E+02 -0.25865644122E+02  0.37597567113E+02  0.49896697915E+02  0.00000000000E+00 0.  1.
         -1    1    6    6    0  502  0.22542666819E+02  0.46873401901E+03 -0.22601815616E+01  0.46928121721E+03  0.00000000000E+00 0.  1.
<mgrwt>
<rscale>  0 0.26008652E+04</rscale>
<asrwt>0</asrwt>
<pdfrwt beam="1">  1        1 0.22966640E+00 0.26008652E+04</pdfrwt>
<pdfrwt beam="2">  1       -1 0.17428159E+00 0.26008652E+04</pdfrwt>
<totfact> 0.13341668E+00</totfact>
</mgrwt>
</event>
<event>
12    1  0.1504874E-007  0.2607131E+04  0.7818608E-02  0.8365783E-01
         -1   -1    0    0    0  501 -0.00000000000E+00  0.00000000000E+00  0.88545114252E+03  0.88545114252E+03  0.00000000000E+00 0.  1.
          1   -1    0    0  501    0  0.00000000000E+00 -0.00000000000E+00 -0.19191160321E+04  0.19191160321E+04  0.00000000000E+00 0. -1.
         23    2    1    2    0    0 -0.41007581883E+03  0.32082925322E+03  0.63915080203E+03  0.82954010504E+03  0.92355028164E+02 0.  0.
        254    2    1    2    0    0  0.41007581883E+03 -0.32082925322E+03 -0.16728156916E+04  0.19750270696E+04  0.91177080484E+03 0.  0.
        -24    2    4    4    0    0  0.89721756422E+02 -0.20731786531E+03 -0.16006145545E+04  0.16183437918E+04  0.77710911590E+02 0.  0.
         24    2    4    4    0    0  0.32035406240E+03 -0.11351138792E+03 -0.72201137180E+02  0.35668327776E+03  0.80612628920E+02 0.  0.
         13    1    3    3    0    0 -0.28995363419E+03  0.26886457499E+03  0.44390213375E+03  0.59448328321E+03  0.00000000000E+00 0.  1.
        -13    1    3    3    0    0 -0.12012218463E+03  0.51964678231E+02  0.19524866828E+03  0.23505682184E+03  0.00000000000E+00 0. -1.
          2    1    6    6  502    0  0.26753356282E+03 -0.74352042727E+02 -0.83522265829E+02  0.28996276034E+03  0.00000000000E+00 0. -1.
          1    1    5    5  503    0  0.71419994451E+02 -0.20865584345E+03 -0.14760851341E+04  0.14924695641E+04  0.00000000000E+00 0. -1.
         -4    1    5    5    0  503  0.18301761971E+02  0.13379781451E+01 -0.12452942038E+03  0.12587422777E+03  0.00000000000E+00 0.  1.
         -1    1    6    6    0  502  0.52820499583E+02 -0.39159345189E+02  0.11321128649E+02  0.66720517426E+02  0.00000000000E+00 0.  1.
<mgrwt>
<rscale>  0 0.26071314E+04</rscale>
<asrwt>0</asrwt>
<pdfrwt beam="1">  1        1 0.29524862E+00 0.26071314E+04</pdfrwt>
<pdfrwt beam="2">  1       -1 0.13622325E+00 0.26071314E+04</pdfrwt>
<totfact> 0.13394773E+00</totfact>
</mgrwt>
</event>
<event>
12    1  0.1504874E-007  0.1442493E+04  0.7818608E-02  0.8923621E-01
          2   -1    0    0  501    0  0.00000000000E+00  0.00000000000E+00  0.16008077466E+04  0.16008077466E+04  0.00000000000E+00 0. -1.
         -2   -1    0    0    0  501 -0.00000000000E+00 -0.00000000000E+00 -0.32495893728E+03  0.32495893728E+03  0.00000000000E+00 0.  1.
         23    2    1    2    0    0 -0.17043403899E+03 -0.21064769303E+03 -0.65763763501E+02  0.29036269427E+03  0.81027214020E+02 0.  0.
        254    2    1    2    0    0  0.17043403899E+03  0.21064769303E+03  0.13416125729E+04  0.16354039896E+04  0.89509871047E+03 0.  0.
        -24    2    4    4    0    0  0.15396356528E+03 -0.18993788211E+03  0.27070276397E+02  0.25877455014E+03  0.80313693971E+02 0.  0.
         24    2    4    4    0    0  0.16470473706E+02  0.40058557514E+03  0.13145422965E+04  0.13766294395E+04  0.79668595047E+02 0.  0.
         11    1    3    3    0    0 -0.13540923552E+03 -0.17251965065E+03 -0.18217418318E+02  0.22006945552E+03  0.00000000000E+00 0.  1.
        -11    1    3    3    0    0 -0.35024803466E+02 -0.38128042381E+02 -0.47546345183E+02  0.70293238750E+02  0.00000000000E+00 0. -1.
          4    1    6    6  502    0 -0.46681995772E+01 -0.11311521729E+01  0.62138062251E+01  0.78538513058E+01  0.00000000000E+00 0. -1.
          1    1    5    5  503    0  0.10761553839E+03 -0.13952727596E+03 -0.17491407220E+02  0.17707318873E+03  0.00000000000E+00 0. -1.
         -2    1    5    5    0  503  0.46348026891E+02 -0.50410606152E+02  0.44561683617E+02  0.81701361409E+02  0.00000000000E+00 0.  1.
         -3    1    6    6    0  502  0.21138673283E+02  0.40171672731E+03  0.13083284902E+04  0.13687755882E+04  0.00000000000E+00 0.  1.
<mgrwt>
<rscale>  0 0.14424934E+04</rscale>
<asrwt>0</asrwt>
<pdfrwt beam="1">  1        2 0.24627811E+00 0.14424934E+04</pdfrwt>
<pdfrwt beam="2">  1       -2 0.49993684E-01 0.14424934E+04</pdfrwt>
<totfact> 0.40909047E+01</totfact>
</mgrwt>
</event>
<event>
12    1  0.1504874E-007  0.1211599E+04  0.7818608E-02  0.9102764E-01
          1   -1    0    0  501    0  0.00000000000E+00  0.00000000000E+00  0.29729998408E+03  0.29729998408E+03  0.00000000000E+00 0. -1.
         -1   -1    0    0    0  501 -0.00000000000E+00 -0.00000000000E+00 -0.12344199648E+04  0.12344199648E+04  0.00000000000E+00 0.  1.
         23    2    1    2    0    0 -0.14266383926E+03 -0.20072707960E+03 -0.18257805955E+03  0.31976310705E+03  0.90936050506E+02 0.  0.
        254    2    1    2    0    0  0.14266383926E+03  0.20072707960E+03 -0.75454192113E+03  0.12119568418E+04  0.91589384979E+03 0.  0.
        -24    2    4    4    0    0  0.31907290614E+02 -0.49661500338E+02 -0.89058312150E+03  0.89613082972E+03  0.80173735492E+02 0.  0.
         24    2    4    4    0    0  0.11075654865E+03  0.25038857994E+03  0.13604120036E+03  0.31582601207E+03  0.79230093208E+02 0.  0.
         11    1    3    3    0    0  0.73055698556E+01 -0.79924792544E+01  0.49051719211E+01  0.11887463444E+02  0.00000000000E+00 0.  1.
        -11    1    3    3    0    0 -0.14996940912E+03 -0.19273460035E+03 -0.18748323147E+03  0.30787564360E+03  0.00000000000E+00 0. -1.
          4    1    6    6  502    0  0.67899862018E+02  0.92706052400E+02  0.90285574720E+02  0.14613790890E+03  0.00000000000E+00 0. -1.
          1    1    5    5  503    0  0.80650727441E+01 -0.22333568756E+02 -0.76621336058E+03  0.76658120746E+03  0.00000000000E+00 0. -1.
         -2    1    5    5    0  503  0.23842217870E+02 -0.27327931582E+02 -0.12436976092E+03  0.12954962226E+03  0.00000000000E+00 0.  1.
         -3    1    6    6    0  502  0.42856686629E+02  0.15768252754E+03  0.45755625643E+02  0.16968810317E+03  0.00000000000E+00 0.  1.
<mgrwt>
<rscale>  0 0.12115990E+04</rscale>
<asrwt>0</asrwt>
<pdfrwt beam="1">  1        1 0.45738458E-01 0.12115990E+04</pdfrwt>
<pdfrwt beam="2">  1       -1 0.18991077E+00 0.12115990E+04</pdfrwt>
<totfact> 0.15526322E+01</totfact>
</mgrwt>
</event>
<event>
12    1  0.1504874E-007  0.1251042E+04  0.7818608E-02  0.9069317E-01
         -3   -1    0    0    0  501 -0.00000000000E+00  0.00000000000E+00  0.38246920242E+03  0.38246920242E+03  0.00000000000E+00 0.  1.
          3   -1    0    0  501    0  0.00000000000E+00 -0.00000000000E+00 -0.10230271856E+04  0.10230271856E+04  0.00000000000E+00 0. -1.
         23    2    1    2    0    0 -0.30189837483E+02  0.17966701428E+03  0.91439945323E+02  0.22388330552E+03  0.92578661596E+02 0.  0.
        254    2    1    2    0    0  0.30189837483E+02 -0.17966701428E+03 -0.73199792846E+03  0.11816130825E+04  0.90950362676E+03 0.  0.
        -24    2    4    4    0    0  0.28827679736E+02  0.20772005042E+03 -0.75229511922E+03  0.78505184133E+03  0.79873604517E+02 0.  0.
         24    2    4    4    0    0  0.13621577474E+01 -0.38738706469E+03  0.20297190760E+02  0.39656124114E+03  0.82330119986E+02 0.  0.
         11    1    3    3    0    0  0.19973916065E+02  0.53887876029E+02 -0.49257098282E+01  0.57681219848E+02  0.00000000000E+00 0. -1.
        -11    1    3    3    0    0 -0.50163753548E+02  0.12577913825E+03  0.96365655152E+02  0.16620208567E+03  0.00000000000E+00 0.  1.
          4    1    6    6  502    0 -0.40499280301E+01 -0.36240684241E+02  0.26894518989E+02  0.45311193572E+02  0.00000000000E+00 0. -1.
          1    1    5    5  503    0 -0.13834910364E+02  0.92284192114E+02 -0.43117076896E+03  0.44115304472E+03  0.00000000000E+00 0. -1.
         -2    1    5    5    0  503  0.42662590099E+02  0.11543585830E+03 -0.32112435026E+03  0.34389879661E+03  0.00000000000E+00 0.  1.
         -3    1    6    6    0  502  0.54120857775E+01 -0.35114638045E+03 -0.65973282282E+01  0.35125004757E+03  0.00000000000E+00 0.  1.
<mgrwt>
<rscale>  0 0.12510418E+04</rscale>
<asrwt>0</asrwt>
<pdfrwt beam="1">  1        3 0.15738880E+00 0.12510418E+04</pdfrwt>
<pdfrwt beam="2">  1       -3 0.58841416E-01 0.12510418E+04</pdfrwt>
<totfact> 0.20815658E+00</totfact>
</mgrwt>
</event>
<event>
12    1  0.1504874E-007  0.1220151E+04  0.7818608E-02  0.9095399E-01
          1   -1    0    0  501    0  0.00000000000E+00  0.00000000000E+00  0.12668064735E+04  0.12668064735E+04  0.00000000000E+00 0. -1.
         -1   -1    0    0    0  501 -0.00000000000E+00 -0.00000000000E+00 -0.29380327834E+03  0.29380327834E+03  0.00000000000E+00 0.  1.
         23    2    1    2    0    0 -0.24621580636E+03  0.36204962454E+02  0.32997903015E+03  0.42328137765E+03  0.91367071300E+02 0.  0.
        254    2    1    2    0    0  0.24621580636E+03 -0.36204962454E+02  0.64302416504E+03  0.11373283742E+04  0.90449031580E+03 0.  0.
        -24    2    4    4    0    0  0.46122454302E+03 -0.23383066903E+03  0.12670987853E+03  0.53860436563E+03  0.81451878415E+02 0.  0.
         24    2    4    4    0    0 -0.21500873665E+03  0.19762570658E+03  0.51631428651E+03  0.59872400859E+03  0.81273115305E+02 0.  0.
         13    1    3    3    0    0 -0.41988733129E+02  0.41564920643E+02  0.95375110505E+02  0.11219228156E+03  0.00000000000E+00 0.  1.
        -13    1    3    3    0    0 -0.20422707324E+03 -0.53599581890E+01  0.23460391964E+03  0.31108909609E+03  0.00000000000E+00 0. -1.
          2    1    6    6  502    0 -0.37284220186E+02  0.73341477190E+02  0.10166690780E+03  0.13078702341E+03  0.00000000000E+00 0. -1.
          1    1    5    5  503    0  0.12102245900E+03 -0.64038870337E+02  0.71285976445E+02  0.15436678054E+03  0.00000000000E+00 0. -1.
         -2    1    5    5    0  503  0.34020208402E+03 -0.16979179870E+03  0.55423902085E+02  0.38423758509E+03  0.00000000000E+00 0.  1.
         -1    1    6    6    0  502 -0.17772451647E+03  0.12428422939E+03  0.41464737870E+03  0.46793698517E+03  0.00000000000E+00 0.  1.
<mgrwt>
<rscale>  0 0.12201506E+04</rscale>
<asrwt>0</asrwt>
<pdfrwt beam="1">  1        1 0.19489330E+00 0.12201506E+04</pdfrwt>
<pdfrwt beam="2">  1       -1 0.45200505E-01 0.12201506E+04</pdfrwt>
<totfact> 0.45852501E+01</totfact>
</mgrwt>
</event>
<event>
12    1  0.1504874E-007  0.1407750E+04  0.7818608E-02  0.8948228E-01
         -1   -1    0    0    0  501 -0.00000000000E+00  0.00000000000E+00  0.50766917815E+03  0.50766917815E+03  0.00000000000E+00 0.  1.
          1   -1    0    0  501    0  0.00000000000E+00 -0.00000000000E+00 -0.97591058615E+03  0.97591058615E+03  0.00000000000E+00 0. -1.
         23    2    1    2    0    0 -0.37027931371E+03 -0.30415272345E+02 -0.31923467260E+03  0.49837913472E+03  0.91864720045E+02 0.  0.
        254    2    1    2    0    0  0.37027931371E+03  0.30415272345E+02 -0.14900673540E+03  0.98520062958E+03  0.90021409363E+03 0.  0.
        -24    2    4    4    0    0 -0.23711485405E+02  0.39876290906E+03  0.34244305170E+02  0.41026859747E+03  0.87026188302E+02 0.  0.
         24    2    4    4    0    0  0.39399079911E+03 -0.36834763671E+03 -0.18325104057E+03  0.57493203211E+03  0.77827799792E+02 0.  0.
         13    1    3    3    0    0 -0.19044892957E+03  0.95877296286E+01 -0.11221505312E+03  0.22125762694E+03  0.00000000000E+00 0.  1.
        -13    1    3    3    0    0 -0.17983038414E+03 -0.40003001974E+02 -0.20701961948E+03  0.27712150778E+03  0.00000000000E+00 0. -1.
          2    1    6    6  502    0  0.50269205762E+02 -0.45538058082E+02 -0.51994155253E+02  0.85464027299E+02  0.00000000000E+00 0. -1.
          3    1    5    5  503    0 -0.14804626844E+02  0.64783628484E+02  0.37200378936E+02  0.76157492661E+02  0.00000000000E+00 0. -1.
         -4    1    5    5    0  503 -0.89068585611E+01  0.33397928057E+03 -0.29560737655E+01  0.33411110481E+03  0.00000000000E+00 0.  1.
         -1    1    6    6    0  502  0.34372159335E+03 -0.32280957863E+03 -0.13125688532E+03  0.48946800481E+03  0.00000000000E+00 0.  1.
<mgrwt>
<rscale>  0 0.14077496E+04</rscale>
<asrwt>0</asrwt>
<pdfrwt beam="1">  1        1 0.15014009E+00 0.14077496E+04</pdfrwt>
<pdfrwt beam="2">  1       -1 0.78102951E-01 0.14077496E+04</pdfrwt>
<totfact> 0.25290244E+01</totfact>
</mgrwt>
</event>
<event>
12    1  0.1504874E-007  0.2336629E+04  0.7818608E-02  0.8463617E-01
          1   -1    0    0  501    0  0.00000000000E+00  0.00000000000E+00  0.12498074861E+04  0.12498074861E+04  0.00000000000E+00 0. -1.
         -1   -1    0    0    0  501 -0.00000000000E+00 -0.00000000000E+00 -0.10921348531E+04  0.10921348531E+04  0.00000000000E+00 0.  1.
         23    2    1    2    0    0  0.40323782073E+02 -0.55587593891E+03 -0.75129217917E+03  0.93990620363E+03  0.91431210556E+02 0.  0.
        254    2    1    2    0    0 -0.40323782073E+02  0.55587593891E+03  0.90896481214E+03  0.14020361355E+04  0.91041980909E+03 0.  0.
        -24    2    4    4    0    0  0.90293294689E+02  0.66834786743E+02  0.87768966694E+03  0.88831505689E+03  0.78388271085E+02 0.  0.
         24    2    4    4    0    0 -0.13061707676E+03  0.48904115217E+03  0.31275145198E+02  0.51372107866E+03  0.81909356543E+02 0.  0.
         13    1    3    3    0    0 -0.18802412604E+02 -0.29663018817E+02 -0.51989594164E+02  0.62740284558E+02  0.00000000000E+00 0. -1.
        -13    1    3    3    0    0  0.59126194677E+02 -0.52621292010E+03 -0.69930258501E+03  0.87716591907E+03  0.00000000000E+00 0.  1.
          2    1    6    6  502    0 -0.51791286759E+02  0.89668153049E+02  0.25313541695E+02  0.10659967377E+03  0.00000000000E+00 0. -1.
          1    1    5    5  503    0  0.98136247061E-01 -0.64371096077E+01  0.24234905930E+03  0.24243455314E+03  0.00000000000E+00 0. -1.
         -2    1    5    5    0  503  0.90195158442E+02  0.73271896350E+02  0.63534060764E+03  0.64588050375E+03  0.00000000000E+00 0.  1.
         -1    1    6    6    0  502 -0.78825790003E+02  0.39937299912E+03  0.59616035030E+01  0.40712140488E+03  0.00000000000E+00 0.  1.
<mgrwt>
<rscale>  0 0.23366286E+04</rscale>
<asrwt>0</asrwt>
<pdfrwt beam="1">  1        1 0.19227808E+00 0.23366286E+04</pdfrwt>
<pdfrwt beam="2">  1       -1 0.16802075E+00 0.23366286E+04</pdfrwt>
<totfact> 0.22541298E+00</totfact>
</mgrwt>
</event>
<event>
12    1  0.1504874E-007  0.1530396E+04  0.7818608E-02  0.8864488E-01
         -2   -1    0    0    0  501 -0.00000000000E+00  0.00000000000E+00  0.58566695824E+03  0.58566695824E+03  0.00000000000E+00 0.  1.
          2   -1    0    0  501    0  0.00000000000E+00 -0.00000000000E+00 -0.99976266820E+03  0.99976266820E+03  0.00000000000E+00 0. -1.
         23    2    1    2    0    0  0.42056751506E+03  0.25891575771E+03 -0.10627979356E+03  0.51815055819E+03  0.11519636332E+03 0.  0.
        254    2    1    2    0    0 -0.42056751506E+03 -0.25891575771E+03 -0.30781591640E+03  0.10672790682E+04  0.89466170524E+03 0.  0.
        -24    2    4    4    0    0  0.16740207323E+03 -0.34945483403E+03 -0.61694710978E+01  0.39549701020E+03  0.78979032359E+02 0.  0.
         24    2    4    4    0    0 -0.58796958829E+03  0.90539076316E+02 -0.30164644530E+03  0.67178205805E+03  0.79968709271E+02 0.  0.
         13    1    3    3    0    0  0.24092441040E+03  0.13646642035E+03 -0.16898968448E+01  0.27689440435E+03  0.00000000000E+00 0.  1.
        -13    1    3    3    0    0  0.17964310466E+03  0.12244933736E+03 -0.10458989671E+03  0.24125615384E+03  0.00000000000E+00 0. -1.
          2    1    6    6  502    0 -0.47310384169E+03  0.85487867457E+02 -0.27462223804E+03  0.55367209983E+03  0.00000000000E+00 0. -1.
          1    1    5    5  503    0  0.15540631437E+03 -0.32913860557E+03  0.14297486954E+02  0.36426331458E+03  0.00000000000E+00 0. -1.
         -2    1    5    5    0  503  0.11995758863E+02 -0.20316228464E+02 -0.20466958051E+02  0.31233695612E+02  0.00000000000E+00 0.  1.
         -1    1    6    6    0  502 -0.11486574660E+03  0.50512088590E+01 -0.27024207263E+02  0.11810995822E+03  0.00000000000E+00 0.  1.
<mgrwt>
<rscale>  0 0.15303960E+04</rscale>
<asrwt>0</asrwt>
<pdfrwt beam="1">  1        2 0.15380964E+00 0.15303960E+04</pdfrwt>
<pdfrwt beam="2">  1       -2 0.90102611E-01 0.15303960E+04</pdfrwt>
<totfact> 0.25608517E+01</totfact>
</mgrwt>
</event>
<event>
12    1  0.1504874E-007  0.1209912E+04  0.7818608E-02  0.9104224E-01
         -2   -1    0    0    0  501 -0.00000000000E+00  0.00000000000E+00  0.24576590669E+03  0.24576590669E+03  0.00000000000E+00 0. -1.
          2   -1    0    0  501    0  0.00000000000E+00 -0.00000000000E+00 -0.14891082632E+04  0.14891082632E+04  0.00000000000E+00 0.  1.
         23    2    1    2    0    0  0.17680577546E+03  0.63184992931E+02 -0.27214712349E+02  0.21048332307E+03  0.91158999302E+02 0.  0.
        254    2    1    2    0    0 -0.17680577546E+03 -0.63184992931E+02 -0.12161276441E+04  0.15243908468E+04  0.89974906581E+03 0.  0.
        -24    2    4    4    0    0 -0.99339496926E+02  0.27378712977E+03 -0.50736760640E+02  0.30614585819E+03  0.79519428616E+02 0.  0.
         24    2    4    4    0    0 -0.77466278532E+02 -0.33697212270E+03 -0.11653908835E+04  0.12182449886E+04  0.80210380649E+02 0.  0.
         11    1    3    3    0    0  0.12590917688E+03  0.11295064596E+02  0.13565117104E+02  0.12714051954E+03  0.00000000000E+00 0. -1.
        -11    1    3    3    0    0  0.50896598578E+02  0.51889928335E+02 -0.40779829453E+02  0.83342803526E+02  0.00000000000E+00 0.  1.
          2    1    6    6  502    0 -0.45450859161E+02 -0.29580344840E+03 -0.92297179192E+03  0.97027954186E+03  0.00000000000E+00 0. -1.
          3    1    5    5  503    0 -0.55600294912E+02  0.24048717145E+03 -0.38311910342E+02  0.24978645860E+03  0.00000000000E+00 0. -1.
         -4    1    5    5    0  503 -0.43739202014E+02  0.33299958326E+02 -0.12424850298E+02  0.56359399591E+02  0.00000000000E+00 0.  1.
         -3    1    6    6    0  502 -0.32015419371E+02 -0.41168674305E+02 -0.24241909159E+03  0.24796544676E+03  0.00000000000E+00 0.  1.
<mgrwt>
<rscale>  0 0.12099125E+04</rscale>
<asrwt>0</asrwt>
<pdfrwt beam="1">  1        2 0.22909358E+00 0.12099125E+04</pdfrwt>
<pdfrwt beam="2">  1       -2 0.37810139E-01 0.12099125E+04</pdfrwt>
<totfact> 0.83759638E+01</totfact>
</mgrwt>
</event>
<event>
12    1  0.1504874E-007  0.2203756E+04  0.7818608E-02  0.8516866E-01
          2   -1    0    0  501    0  0.00000000000E+00  0.00000000000E+00  0.25819618954E+04  0.25819618954E+04  0.00000000000E+00 0.  1.
         -2   -1    0    0    0  501 -0.00000000000E+00 -0.00000000000E+00 -0.47023748277E+03  0.47023748277E+03  0.00000000000E+00 0. -1.
         23    2    1    2    0    0  0.11681346007E+03  0.43565809019E+03 -0.22233944520E+03  0.51136560804E+03  0.92825644054E+02 0.  0.
        254    2    1    2    0    0 -0.11681346007E+03 -0.43565809019E+03  0.23340638578E+04  0.25408337701E+04  0.89696086816E+03 0.  0.
        -24    2    4    4    0    0 -0.10925295251E+03  0.16229970208E+03  0.14806442704E+04  0.14956896093E+04  0.80638396369E+02 0.  0.
         24    2    4    4    0    0 -0.75605075616E+01 -0.59795779227E+03  0.85341958747E+03  0.10451441609E+04  0.79941491806E+02 0.  0.
         13    1    3    3    0    0  0.54402888503E+01  0.72140257993E+02 -0.29368646216E+01  0.72404687279E+02  0.00000000000E+00 0.  1.
        -13    1    3    3    0    0  0.11137317122E+03  0.36351783220E+03 -0.21940258057E+03  0.43896092076E+03  0.00000000000E+00 0. -1.
          2    1    6    6  502    0  0.23185032399E+01 -0.57383402287E+03  0.78864967665E+03  0.97532516308E+03  0.00000000000E+00 0. -1.
          1    1    5    5  503    0 -0.10710961194E+03  0.13961746551E+03  0.10665625798E+04  0.10809816105E+04  0.00000000000E+00 0. -1.
         -4    1    5    5    0  503 -0.21433405729E+01  0.22682236572E+02  0.41408169056E+03  0.41470799874E+03  0.00000000000E+00 0.  1.
         -1    1    6    6    0  502 -0.98790108015E+01 -0.24123769398E+02  0.64769910818E+02  0.69818997785E+02  0.00000000000E+00 0.  1.
<mgrwt>
<rscale>  0 0.22037561E+04</rscale>
<asrwt>0</asrwt>
<pdfrwt beam="1">  1        2 0.39722490E+00 0.22037561E+04</pdfrwt>
<pdfrwt beam="2">  1       -2 0.72344230E-01 0.22037561E+04</pdfrwt>
<totfact> 0.49284834E+00</totfact>
</mgrwt>
</event>
<event>
12    1  0.1504874E-007  0.1745324E+04  0.7818608E-02  0.8735928E-01
         -1   -1    0    0    0  501 -0.00000000000E+00  0.00000000000E+00  0.72088523271E+03  0.72088523271E+03  0.00000000000E+00 0.  1.
          1   -1    0    0  501    0  0.00000000000E+00 -0.00000000000E+00 -0.10563941831E+04  0.10563941831E+04  0.00000000000E+00 0. -1.
         23    2    1    2    0    0 -0.24944191942E+03  0.20675103408E+03  0.44033089817E+03  0.55409493367E+03  0.90347298700E+02 0.  0.
        254    2    1    2    0    0  0.24944191942E+03 -0.20675103408E+03 -0.77583984858E+03  0.12231844822E+04  0.88841743877E+03 0.  0.
        -24    2    4    4    0    0  0.46952599620E+03  0.13415822453E+03 -0.25064647521E+03  0.55465540514E+03  0.79786418603E+02 0.  0.
         24    2    4    4    0    0 -0.22008407678E+03 -0.34090925861E+03 -0.52519337337E+03  0.66852907703E+03  0.80292739074E+02 0.  0.
         13    1    3    3    0    0 -0.21200637295E+03  0.15006055611E+03  0.29113185038E+03  0.39015718240E+03  0.00000000000E+00 0. -1.
        -13    1    3    3    0    0 -0.37435546471E+02  0.56690477970E+02  0.14919904778E+03  0.16393775127E+03  0.00000000000E+00 0.  1.
          4    1    6    6  502    0 -0.15264079525E+03 -0.19442176975E+03 -0.26478780910E+03  0.36223144642E+03  0.00000000000E+00 0. -1.
          1    1    5    5  503    0  0.24056867844E+03  0.27748040031E+02 -0.12956762101E+03  0.27464706659E+03  0.00000000000E+00 0. -1.
         -4    1    5    5    0  503  0.22895731776E+03  0.10641018450E+03 -0.12107885420E+03  0.28000833855E+03  0.00000000000E+00 0.  1.
         -3    1    6    6    0  502 -0.67443281527E+02 -0.14648748886E+03 -0.26040556427E+03  0.30629763061E+03  0.00000000000E+00 0.  1.
<mgrwt>
<rscale>  0 0.17453240E+04</rscale>
<asrwt>0</asrwt>
<pdfrwt beam="1">  1        1 0.16252218E+00 0.17453240E+04</pdfrwt>
<pdfrwt beam="2">  1       -1 0.11090542E+00 0.17453240E+04</pdfrwt>
<totfact> 0.97112930E+00</totfact>
</mgrwt>
</event>
<event>
12    1  0.1504874E-007  0.1646537E+04  0.7818608E-02  0.8792458E-01
         -1   -1    0    0    0  501 -0.00000000000E+00  0.00000000000E+00  0.15217490666E+04  0.15217490666E+04  0.00000000000E+00 0.  1.
          1   -1    0    0  501    0  0.00000000000E+00 -0.00000000000E+00 -0.44538955802E+03  0.44538955802E+03  0.00000000000E+00 0. -1.
         23    2    1    2    0    0  0.26013319180E+03 -0.31109145545E+03  0.86115188500E+03  0.95606727920E+03  0.89637615958E+02 0.  0.
        254    2    1    2    0    0 -0.26013319180E+03  0.31109145545E+03  0.21520762354E+03  0.10110713454E+04  0.90083504211E+03 0.  0.
        -24    2    4    4    0    0  0.19100682718E+03  0.10637081624E+03  0.41059152515E+03  0.47238948701E+03  0.82268270494E+02 0.  0.
         24    2    4    4    0    0 -0.45114001898E+03  0.20472063921E+03 -0.19538390161E+03  0.53868185838E+03  0.81027271268E+02 0.  0.
         11    1    3    3    0    0  0.21957707958E+03 -0.22579304292E+03  0.72400805576E+03  0.78954686810E+03  0.00000000000E+00 0.  1.
        -11    1    3    3    0    0  0.40556112220E+02 -0.85298412525E+02  0.13714382924E+03  0.16652041111E+03  0.00000000000E+00 0. -1.
          2    1    6    6  502    0 -0.13917323360E+03  0.43837535692E+02 -0.93058561638E+02  0.17306303586E+03  0.00000000000E+00 0. -1.
          3    1    5    5  503    0  0.52571951037E+02  0.49593065055E+02  0.71078160826E+02  0.10136758399E+03  0.00000000000E+00 0. -1.
         -4    1    5    5    0  503  0.13843487615E+03  0.56777751186E+02  0.33951336433E+03  0.37102190302E+03  0.00000000000E+00 0.  1.
         -1    1    6    6    0  502 -0.31196678538E+03  0.16088310352E+03 -0.10232533997E+03  0.36561882252E+03  0.00000000000E+00 0.  1.
<mgrwt>
<rscale>  0 0.16465371E+04</rscale>
<asrwt>0</asrwt>
<pdfrwt beam="1">  1        1 0.68521472E-01 0.16465371E+04</pdfrwt>
<pdfrwt beam="2">  1       -1 0.23411524E+00 0.16465371E+04</pdfrwt>
<totfact> 0.44000659E+00</totfact>
</mgrwt>
</event>
<event>
12    1  0.1504874E-007  0.1791837E+04  0.7818608E-02  0.8710652E-01
         -2   -1    0    0    0  501 -0.00000000000E+00  0.00000000000E+00  0.30269320298E+03  0.30269320298E+03  0.00000000000E+00 0.  1.
          2   -1    0    0  501    0  0.00000000000E+00 -0.00000000000E+00 -0.26517619099E+04  0.26517619099E+04  0.00000000000E+00 0. -1.
         23    2    1    2    0    0 -0.33567714709E+02  0.62171862568E+02  0.20710369075E+03  0.24260617061E+03  0.10475534989E+03 0.  0.
        254    2    1    2    0    0  0.33567714709E+02 -0.62171862568E+02 -0.25561723976E+04  0.27118489422E+04  0.90283732043E+03 0.  0.
        -24    2    4    4    0    0 -0.86610311795E+02  0.23949383477E+03 -0.22255617122E+04  0.22415212931E+04  0.80213025320E+02 0.  0.
         24    2    4    4    0    0  0.12017802650E+03 -0.30166569734E+03 -0.33061068543E+03  0.47032764918E+03  0.80372391150E+02 0.  0.
         11    1    3    3    0    0 -0.59038663899E+01  0.54231330665E+02  0.28213879833E+02  0.61415925290E+02  0.00000000000E+00 0. -1.
        -11    1    3    3    0    0 -0.27663848319E+02  0.79405319030E+01  0.17888981091E+03  0.18119024532E+03  0.00000000000E+00 0.  1.
          4    1    6    6  502    0 -0.90098722488E+01 -0.53058913670E+02 -0.63409431616E+02  0.83169598626E+02  0.00000000000E+00 0. -1.
          1    1    5    5  503    0  0.65404116830E+01  0.83797956508E+02 -0.82045043715E+03  0.82474468432E+03  0.00000000000E+00 0. -1.
         -2    1    5    5    0  503 -0.93150723478E+02  0.15569587826E+03 -0.14051112750E+04  0.14167766087E+04  0.00000000000E+00 0.  1.
         -3    1    6    6    0  502  0.12918789875E+03 -0.24860678367E+03 -0.26720125381E+03  0.38715805055E+03  0.00000000000E+00 0.  1.
<mgrwt>
<rscale>  0 0.17918374E+04</rscale>
<asrwt>0</asrwt>
<pdfrwt beam="1">  1        2 0.40796338E+00 0.17918374E+04</pdfrwt>
<pdfrwt beam="2">  1       -2 0.46568184E-01 0.17918374E+04</pdfrwt>
<totfact> 0.11736926E+01</totfact>
</mgrwt>
</event>
<event>
12    1  0.1504874E-007  0.1900483E+04  0.7818608E-02  0.8654616E-01
         -2   -1    0    0    0  501 -0.00000000000E+00  0.00000000000E+00  0.56932793324E+03  0.56932793324E+03  0.00000000000E+00 0. -1.
          2   -1    0    0  501    0  0.00000000000E+00 -0.00000000000E+00 -0.15860084027E+04  0.15860084027E+04  0.00000000000E+00 0.  1.
         23    2    1    2    0    0  0.31269147723E+03  0.40049271125E+03 -0.10012085888E+04  0.11264108491E+04  0.90622243605E+02 0.  0.
        254    2    1    2    0    0 -0.31269147723E+03 -0.40049271125E+03 -0.15471880668E+02  0.10289254868E+04  0.89458253205E+03 0.  0.
        -24    2    4    4    0    0  0.22154810748E+03 -0.41311816651E+03  0.74277195602E+02  0.48109992127E+03  0.78675593645E+02 0.  0.
         24    2    4    4    0    0 -0.53423958470E+03  0.12625455261E+02 -0.89749076270E+02  0.54782556555E+03  0.80539540584E+02 0.  0.
         11    1    3    3    0    0  0.15275575221E+03  0.18466148865E+03 -0.57054986240E+03  0.61883869522E+03  0.00000000000E+00 0.  1.
        -11    1    3    3    0    0  0.15993572502E+03  0.21583122260E+03 -0.43065872640E+03  0.50757215389E+03  0.00000000000E+00 0. -1.
          4    1    6    6  502    0 -0.41299222441E+03  0.49495392557E+00 -0.35727860103E+02  0.41453504362E+03  0.00000000000E+00 0. -1.
          3    1    5    5  503    0  0.22154443650E+03 -0.40248417457E+03  0.83581190676E+02  0.46697030265E+03  0.00000000000E+00 0. -1.
         -4    1    5    5    0  503  0.36709769116E-02 -0.10633991940E+02 -0.93039950743E+01  0.14129618622E+02  0.00000000000E+00 0.  1.
         -3    1    6    6    0  502 -0.12124736030E+03  0.12130501335E+02 -0.54021216167E+02  0.13329052194E+03  0.00000000000E+00 0.  1.
<mgrwt>
<rscale>  0 0.19004830E+04</rscale>
<asrwt>0</asrwt>
<pdfrwt beam="1">  1        2 0.24400129E+00 0.19004830E+04</pdfrwt>
<pdfrwt beam="2">  1       -2 0.87588912E-01 0.19004830E+04</pdfrwt>
<totfact> 0.11963618E+01</totfact>
</mgrwt>
</event>
<event>
12    1  0.1504874E-007  0.2729689E+04  0.7818608E-02  0.8325436E-01
          2   -1    0    0  501    0  0.00000000000E+00  0.00000000000E+00  0.10673135948E+04  0.10673135948E+04  0.00000000000E+00 0. -1.
         -2   -1    0    0    0  501 -0.00000000000E+00 -0.00000000000E+00 -0.17453173690E+04  0.17453173690E+04  0.00000000000E+00 0.  1.
         23    2    1    2    0    0 -0.18632216601E+03 -0.52005272614E+03  0.80863377122E+03  0.98358060569E+03  0.91495597867E+02 0.  0.
        254    2    1    2    0    0  0.18632216601E+03  0.52005272614E+03 -0.14866375454E+04  0.18290503580E+04  0.91113293939E+03 0.  0.
        -24    2    4    4    0    0 -0.37519118654E+02  0.73173635949E+03 -0.91687921755E+03  0.11764824808E+04  0.81226497940E+02 0.  0.
         24    2    4    4    0    0  0.22384128466E+03 -0.21168363335E+03 -0.56975832788E+03  0.65256787724E+03  0.79406554355E+02 0.  0.
         13    1    3    3    0    0 -0.10713661017E+03 -0.20215888657E+03  0.27901856778E+03  0.36082936386E+03  0.00000000000E+00 0.  1.
        -13    1    3    3    0    0 -0.79185555832E+02 -0.31789383957E+03  0.52961520344E+03  0.62275124183E+03  0.00000000000E+00 0. -1.
          4    1    6    6  502    0  0.18995253761E+03 -0.21146017002E+03 -0.51087275616E+03  0.58462666980E+03  0.00000000000E+00 0. -1.
          1    1    5    5  503    0 -0.48749607802E+02  0.62089607955E+03 -0.73718260211E+03  0.96505266940E+03  0.00000000000E+00 0. -1.
         -2    1    5    5    0  503  0.11230489148E+02  0.11084027993E+03 -0.17969661545E+03  0.21142981139E+03  0.00000000000E+00 0.  1.
         -3    1    6    6    0  502  0.33888747053E+02 -0.22346332748E+00 -0.58885571718E+02  0.67941207447E+02  0.00000000000E+00 0.  1.
<mgrwt>
<rscale>  0 0.27296893E+04</rscale>
<asrwt>0</asrwt>
<pdfrwt beam="1">  1        2 0.16420209E+00 0.27296893E+04</pdfrwt>
<pdfrwt beam="2">  1       -2 0.26851036E+00 0.27296893E+04</pdfrwt>
<totfact> 0.98884081E-01</totfact>
</mgrwt>
</event>
<event>
12    1  0.1504874E-007  0.2016971E+04  0.7818608E-02  0.8598727E-01
         -2   -1    0    0    0  501 -0.00000000000E+00  0.00000000000E+00  0.78280984843E+03  0.78280984843E+03  0.00000000000E+00 0.  1.
          2   -1    0    0  501    0  0.00000000000E+00 -0.00000000000E+00 -0.12992204728E+04  0.12992204728E+04  0.00000000000E+00 0. -1.
         23    2    1    2    0    0  0.78813432451E+02  0.20737826278E+03 -0.10039891166E+04  0.10338078301E+04  0.10745781606E+03 0.  0.
        254    2    1    2    0    0 -0.78813432451E+02 -0.20737826278E+03  0.48757849226E+03  0.10482224911E+04  0.90101071236E+03 0.  0.
        -24    2    4    4    0    0 -0.45779007404E+03 -0.65087227540E+02  0.42420152905E+03  0.63208798215E+03  0.76027500608E+02 0.  0.
         24    2    4    4    0    0  0.37897664159E+03 -0.14229103524E+03  0.63376963213E+02  0.41613450899E+03  0.72672254184E+02 0.  0.
         11    1    3    3    0    0  0.14420895288E+02  0.12006080401E+03 -0.71441512168E+03  0.72457679025E+03  0.00000000000E+00 0.  1.
        -11    1    3    3    0    0  0.64392537164E+02  0.87317458774E+02 -0.28957399491E+03  0.30923103980E+03  0.00000000000E+00 0. -1.
          4    1    6    6  502    0  0.22034359534E+03 -0.45868749864E+02  0.23781584445E+02  0.22632014046E+03  0.00000000000E+00 0. -1.
          3    1    5    5  503    0 -0.33876540623E+02 -0.24950519026E+02  0.28628240281E+02  0.50889336268E+02  0.00000000000E+00 0. -1.
         -4    1    5    5    0  503 -0.42391353341E+03 -0.40136708514E+02  0.39557328877E+03  0.58119864588E+03  0.00000000000E+00 0.  1.
         -3    1    6    6    0  502  0.15863304625E+03 -0.96422285379E+02  0.39595378768E+02  0.18981436853E+03  0.00000000000E+00 0.  1.
<mgrwt>
<rscale>  0 0.20169706E+04</rscale>
<asrwt>0</asrwt>
<pdfrwt beam="1">  1        2 0.19988007E+00 0.20169706E+04</pdfrwt>
<pdfrwt beam="2">  1       -2 0.12043228E+00 0.20169706E+04</pdfrwt>
<totfact> 0.80816375E+00</totfact>
</mgrwt>
</event>
<event>
12    1  0.1504874E-007  0.2332064E+04  0.7818608E-02  0.8465385E-01
         -2   -1    0    0    0  501 -0.00000000000E+00  0.00000000000E+00  0.67945779194E+03  0.67945779194E+03  0.00000000000E+00 0.  1.
          2   -1    0    0  501    0  0.00000000000E+00 -0.00000000000E+00 -0.20010526984E+04  0.20010526984E+04  0.00000000000E+00 0. -1.
         23    2    1    2    0    0 -0.78429093880E+03  0.60437374194E+03 -0.59937950288E+03  0.11599914553E+04  0.77100527697E+02 0.  0.
        254    2    1    2    0    0  0.78429093880E+03 -0.60437374194E+03 -0.72221540359E+03  0.15205190350E+04  0.90000174999E+03 0.  0.
        -24    2    4    4    0    0  0.71423288603E+03 -0.48407956460E+03 -0.93894908017E+02  0.87187908726E+03  0.83037634192E+02 0.  0.
         24    2    4    4    0    0  0.70058052768E+02 -0.12029417734E+03 -0.62832049557E+03  0.64863994774E+03  0.81045152797E+02 0.  0.
         13    1    3    3    0    0 -0.67420694002E+03  0.53890881262E+03 -0.49670211854E+03  0.99583668383E+03  0.00000000000E+00 0. -1.
        -13    1    3    3    0    0 -0.11008399878E+03  0.65464929324E+02 -0.10267738433E+03  0.16415477152E+03  0.00000000000E+00 0.  1.
          2    1    6    6  502    0  0.22366620734E+02 -0.98812125906E+02 -0.31236055973E+03  0.32837969064E+03  0.00000000000E+00 0. -1.
          1    1    5    5  503    0  0.43144405116E+02 -0.77479029359E+01 -0.34235563480E+01  0.43968061486E+02  0.00000000000E+00 0. -1.
         -2    1    5    5    0  503  0.67108848092E+03 -0.47633166166E+03 -0.90471351669E+02  0.82791102577E+03  0.00000000000E+00 0.  1.
         -1    1    6    6    0  502  0.47691432034E+02 -0.21482051438E+02 -0.31595993584E+03  0.32026025710E+03  0.00000000000E+00 0.  1.
<mgrwt>
<rscale>  0 0.23320642E+04</rscale>
<asrwt>0</asrwt>
<pdfrwt beam="1">  1        2 0.30785426E+00 0.23320642E+04</pdfrwt>
<pdfrwt beam="2">  1       -2 0.10453197E+00 0.23320642E+04</pdfrwt>
<totfact> 0.44825814E+00</totfact>
</mgrwt>
</event>
<event>
12    1  0.1504874E-007  0.1795822E+04  0.7818608E-02  0.8708524E-01
          1   -1    0    0  501    0  0.00000000000E+00  0.00000000000E+00  0.26485346482E+04  0.26485346482E+04  0.00000000000E+00 0. -1.
         -1   -1    0    0    0  501 -0.00000000000E+00 -0.00000000000E+00 -0.30441155764E+03  0.30441155764E+03  0.00000000000E+00 0.  1.
         23    2    1    2    0    0 -0.17360247402E+03 -0.41737026496E+03  0.16908266228E+04  0.17530166424E+04  0.99181264192E+02 0.  0.
        254    2    1    2    0    0  0.17360247402E+03  0.41737026496E+03  0.65329646775E+03  0.11999295634E+04  0.89927689024E+03 0.  0.
        -24    2    4    4    0    0  0.32198812691E+03 -0.46045092551E+02  0.62179721680E+03  0.70629056644E+03  0.80112926509E+02 0.  0.
         24    2    4    4    0    0 -0.14838565289E+03  0.46341535751E+03  0.31499250947E+02  0.49363899698E+03  0.76910083622E+02 0.  0.
         13    1    3    3    0    0 -0.14052424584E+03 -0.36566495523E+03  0.13114669482E+04  0.13687233027E+04  0.00000000000E+00 0. -1.
        -13    1    3    3    0    0 -0.33078228188E+02 -0.51705309733E+02  0.37935967461E+03  0.38429333972E+03  0.00000000000E+00 0.  1.
          4    1    6    6  502    0 -0.57519342597E+02  0.86435632023E+02  0.19738667841E+02  0.10568447504E+03  0.00000000000E+00 0. -1.
          1    1    5    5  503    0  0.63672579666E+01  0.75685449645E+01  0.50024796132E+02  0.50993186555E+02  0.00000000000E+00 0. -1.
         -2    1    5    5    0  503  0.31562086895E+03 -0.53613637515E+02  0.57177242067E+03  0.65529737988E+03  0.00000000000E+00 0.  1.
         -3    1    6    6    0  502 -0.90866310292E+02  0.37697972549E+03  0.11760583107E+02  0.38795452194E+03  0.00000000000E+00 0.  1.
<mgrwt>
<rscale>  0 0.17958224E+04</rscale>
<asrwt>0</asrwt>
<pdfrwt beam="1">  1        1 0.40746685E+00 0.17958224E+04</pdfrwt>
<pdfrwt beam="2">  1       -1 0.46832549E-01 0.17958224E+04</pdfrwt>
<totfact> 0.45832862E+00</totfact>
</mgrwt>
</event>
<event>
12    1  0.1504874E-007  0.1201468E+04  0.7818608E-02  0.9111572E-01
          2   -1    0    0  501    0  0.00000000000E+00  0.00000000000E+00  0.73799181203E+03  0.73799181203E+03  0.00000000000E+00 0. -1.
         -2   -1    0    0    0  501 -0.00000000000E+00 -0.00000000000E+00 -0.48900486810E+03  0.48900486810E+03  0.00000000000E+00 0.  1.
         23    2    1    2    0    0 -0.13755760243E+03 -0.11615216411E+03 -0.95003451470E+02  0.23926000732E+03  0.12572301339E+03 0.  0.
        254    2    1    2    0    0  0.13755760243E+03  0.11615216411E+03  0.34399039541E+03  0.98773667281E+03  0.90822955439E+03 0.  0.
        -24    2    4    4    0    0  0.48462173342E+03  0.17865098057E+02  0.37249880254E+03  0.61673632454E+03  0.80193203407E+02 0.  0.
         24    2    4    4    0    0 -0.34706413099E+03  0.98287066058E+02 -0.28508407135E+02  0.37100034828E+03  0.81943094700E+02 0.  0.
         11    1    3    3    0    0  0.25853401097E+01  0.10041030394E+02 -0.42151171846E+02  0.43407690135E+02  0.00000000000E+00 0. -1.
        -11    1    3    3    0    0 -0.14014294254E+03 -0.12619319451E+03 -0.52852279624E+02  0.19585231718E+03  0.00000000000E+00 0.  1.
          4    1    6    6  502    0 -0.32208330707E+03  0.68755495541E+02 -0.13835550913E+02  0.32963069840E+03  0.00000000000E+00 0. -1.
          1    1    5    5  503    0  0.30676452545E+03  0.35229581122E+02  0.19702166356E+03  0.36628285979E+03  0.00000000000E+00 0. -1.
         -2    1    5    5    0  503  0.17785720797E+03 -0.17364483065E+02  0.17547713898E+03  0.25045346475E+03  0.00000000000E+00 0.  1.
         -3    1    6    6    0  502 -0.24980823922E+02  0.29531570517E+02 -0.14672856222E+02  0.41369649875E+02  0.00000000000E+00 0.  1.
<mgrwt>
<rscale>  0 0.12014684E+04</rscale>
<asrwt>0</asrwt>
<pdfrwt beam="1">  1        2 0.11353720E+00 0.12014684E+04</pdfrwt>
<pdfrwt beam="2">  1       -2 0.75231518E-01 0.12014684E+04</pdfrwt>
<totfact> 0.59948356E+01</totfact>
</mgrwt>
</event>
<event>
12    1  0.1504874E-007  0.1298165E+04  0.7818608E-02  0.9031022E-01
         -2   -1    0    0    0  501 -0.00000000000E+00  0.00000000000E+00  0.28600771079E+03  0.28600771079E+03  0.00000000000E+00 0. -1.
          2   -1    0    0  501    0  0.00000000000E+00 -0.00000000000E+00 -0.14730648483E+04  0.14730648483E+04  0.00000000000E+00 0.  1.
         23    2    1    2    0    0 -0.91382097844E+02  0.85584611177E+02 -0.71959054076E+03  0.73543389161E+03  0.85889749675E+02 0.  0.
        254    2    1    2    0    0  0.91382097844E+02 -0.85584611177E+02 -0.46746659671E+03  0.10236386674E+04  0.90201756578E+03 0.  0.
        -24    2    4    4    0    0 -0.18291388887E+03 -0.10630421545E+03 -0.64740776302E+03  0.68567279949E+03  0.79071482690E+02 0.  0.
         24    2    4    4    0    0  0.27429598671E+03  0.20719604269E+02  0.17994116631E+03  0.33796586796E+03  0.78578077389E+02 0.  0.
         13    1    3    3    0    0 -0.86384087974E+02  0.48421686188E+02 -0.63799180059E+03  0.64563178978E+03  0.00000000000E+00 0.  1.
        -13    1    3    3    0    0 -0.49980098703E+01  0.37162924990E+02 -0.81598740170E+02  0.89802101834E+02  0.00000000000E+00 0. -1.
          2    1    6    6  502    0  0.73893525320E+02 -0.19919322563E+02  0.22121452706E+02  0.79664240192E+02  0.00000000000E+00 0. -1.
          3    1    5    5  503    0 -0.33043116321E+02 -0.32508471558E+02 -0.25511431930E+03  0.25929127284E+03  0.00000000000E+00 0. -1.
         -4    1    5    5    0  503 -0.14987077255E+03 -0.73795743888E+02 -0.39229344372E+03  0.42638152665E+03  0.00000000000E+00 0.  1.
         -1    1    6    6    0  502  0.20040246139E+03  0.40638926832E+02  0.15781971360E+03  0.25830162777E+03  0.00000000000E+00 0.  1.
<mgrwt>
<rscale>  0 0.12981647E+04</rscale>
<asrwt>0</asrwt>
<pdfrwt beam="1">  1        2 0.22662536E+00 0.12981647E+04</pdfrwt>
<pdfrwt beam="2">  1       -2 0.44001186E-01 0.12981647E+04</pdfrwt>
<totfact> 0.63104537E+01</totfact>
</mgrwt>
</event>
<event>
12    1  0.1504874E-007  0.1906281E+04  0.7818608E-02  0.8651736E-01
         -1   -1    0    0    0  501 -0.00000000000E+00  0.00000000000E+00  0.32551256274E+03  0.32551256274E+03  0.00000000000E+00 0.  1.
          1   -1    0    0  501    0  0.00000000000E+00 -0.00000000000E+00 -0.27909121916E+04  0.27909121916E+04  0.00000000000E+00 0. -1.
         23    2    1    2    0    0 -0.36727314438E+03 -0.18559755650E+03 -0.19478856380E+04  0.19930346843E+04  0.92697239820E+02 0.  0.
        254    2    1    2    0    0  0.36727314438E+03  0.18559755650E+03 -0.51751399082E+03  0.11233900701E+04  0.90821170618E+03 0.  0.
        -24    2    4    4    0    0 -0.26114115009E+03  0.46049384162E+01  0.19744916440E+02  0.27327508564E+03  0.77932695184E+02 0.  0.
         24    2    4    4    0    0  0.62841429448E+03  0.18099261808E+03 -0.53725890726E+03  0.85011498441E+03  0.79909323580E+02 0.  0.
         13    1    3    3    0    0 -0.30243403944E+03 -0.17191481858E+03 -0.17531688052E+04  0.17873505287E+04  0.00000000000E+00 0. -1.
        -13    1    3    3    0    0 -0.64839104947E+02 -0.13682737917E+02 -0.19471683289E+03  0.20568415558E+03  0.00000000000E+00 0.  1.
          4    1    6    6  502    0  0.33974582425E+02  0.10073805217E+02 -0.56632418352E+02  0.66805573203E+02  0.00000000000E+00 0. -1.
          1    1    5    5  503    0 -0.13852515345E+02  0.88833516232E+01  0.20063817805E+02  0.25949237029E+02  0.00000000000E+00 0. -1.
         -2    1    5    5    0  503 -0.24728863475E+03 -0.42784132071E+01 -0.31890136513E+00  0.24732584861E+03  0.00000000000E+00 0.  1.
         -3    1    6    6    0  502  0.59443971205E+03  0.17091881286E+03 -0.48062648891E+03  0.78330941121E+03  0.00000000000E+00 0.  1.
<mgrwt>
<rscale>  0 0.19062812E+04</rscale>
<asrwt>0</asrwt>
<pdfrwt beam="1">  1        1 0.42937112E+00 0.19062812E+04</pdfrwt>
<pdfrwt beam="2">  1       -1 0.50078854E-01 0.19062812E+04</pdfrwt>
<totfact> 0.31706406E+00</totfact>
</mgrwt>
</event>
<event>
12    1  0.1504874E-007  0.1690198E+04  0.7818608E-02  0.8766974E-01
         -1   -1    0    0    0  501 -0.00000000000E+00  0.00000000000E+00  0.10688479749E+04  0.10688479749E+04  0.00000000000E+00 0.  1.
          1   -1    0    0  501    0  0.00000000000E+00 -0.00000000000E+00 -0.66818920256E+03  0.66818920256E+03  0.00000000000E+00 0. -1.
         23    2    1    2    0    0 -0.44486203576E+03 -0.27514714071E+01 -0.27186804468E+03  0.52932260066E+03  0.91435115719E+02 0.  0.
        254    2    1    2    0    0  0.44486203576E+03  0.27514714071E+01  0.67252681700E+03  0.12077145768E+04  0.89909531080E+03 0.  0.
        -24    2    4    4    0    0  0.29974133486E+03 -0.43289238769E+03  0.30198612745E+03  0.61239551841E+03  0.81190902551E+02 0.  0.
         24    2    4    4    0    0  0.14512070090E+03  0.43564385910E+03  0.37054068955E+03  0.59531905836E+03  0.79112507448E+02 0.  0.
         13    1    3    3    0    0 -0.86602785495E+02 -0.32029763711E+02 -0.34519434750E+02  0.98577581601E+02  0.00000000000E+00 0.  1.
        -13    1    3    3    0    0 -0.35825925027E+03  0.29278292304E+02 -0.23734860993E+03  0.43074501906E+03  0.00000000000E+00 0. -1.
          2    1    6    6  502    0  0.30893577571E+02  0.21593912716E+03  0.18185323728E+03  0.28399774591E+03  0.00000000000E+00 0. -1.
          3    1    5    5  503    0  0.24644895722E+01 -0.53438499668E+01 -0.51554152865E+01  0.78236019899E+01  0.00000000000E+00 0. -1.
         -4    1    5    5    0  503  0.29727684529E+03 -0.42754853772E+03  0.30714154274E+03  0.60457191642E+03  0.00000000000E+00 0.  1.
         -1    1    6    6    0  502  0.11422712333E+03  0.21970473194E+03  0.18868745227E+03  0.31132131245E+03  0.00000000000E+00 0.  1.
<mgrwt>
<rscale>  0 0.16901984E+04</rscale>
<asrwt>0</asrwt>
<pdfrwt beam="1">  1        1 0.10279834E+00 0.16901984E+04</pdfrwt>
<pdfrwt beam="2">  1       -1 0.16443815E+00 0.16901984E+04</pdfrwt>
<totfact> 0.75320248E+00</totfact>
</mgrwt>
</event>
<event>
12    1  0.1504874E-007  0.2234018E+04  0.7818608E-02  0.8504401E-01
          1   -1    0    0  501    0  0.00000000000E+00  0.00000000000E+00  0.14654433743E+04  0.14654433743E+04  0.00000000000E+00 0. -1.
         -1   -1    0    0    0  501 -0.00000000000E+00 -0.00000000000E+00 -0.85142053807E+03  0.85142053807E+03  0.00000000000E+00 0.  1.
         23    2    1    2    0    0 -0.62247826469E+03  0.15621127330E+03 -0.44479632214E+03  0.78612091558E+03  0.90890999566E+02 0.  0.
        254    2    1    2    0    0  0.62247826469E+03 -0.15621127330E+03  0.10588191583E+04  0.15307429968E+04  0.90010830469E+03 0.  0.
        -24    2    4    4    0    0  0.74995296456E+03 -0.60405261253E+02  0.41601817769E+03  0.86342829144E+03  0.79743624582E+02 0.  0.
         24    2    4    4    0    0 -0.12747469987E+03 -0.95806012049E+02  0.64280098064E+03  0.66731470531E+03  0.81775449645E+02 0.  0.
         11    1    3    3    0    0 -0.45371199184E+03  0.13472160130E+03 -0.36769484817E+03  0.59933628520E+03  0.00000000000E+00 0.  1.
        -11    1    3    3    0    0 -0.16876627285E+03  0.21489672003E+02 -0.77101473974E+02  0.18678463037E+03  0.00000000000E+00 0. -1.
          2    1    6    6  502    0 -0.36084518515E+01 -0.91210454704E+01  0.35541458497E+01  0.10432945316E+02  0.00000000000E+00 0. -1.
          3    1    5    5  503    0  0.16186488984E+03  0.19063593859E+02  0.81970117021E+02  0.18243564142E+03  0.00000000000E+00 0. -1.
         -4    1    5    5    0  503  0.58808807471E+03 -0.79468855112E+02  0.33404806067E+03  0.68099265002E+03  0.00000000000E+00 0.  1.
         -1    1    6    6    0  502 -0.12386624802E+03 -0.86684966579E+02  0.63924683479E+03  0.65688176000E+03  0.00000000000E+00 0.  1.
<mgrwt>
<rscale>  0 0.22340175E+04</rscale>
<asrwt>0</asrwt>
<pdfrwt beam="1">  1        1 0.22545283E+00 0.22340175E+04</pdfrwt>
<pdfrwt beam="2">  1       -1 0.13098778E+00 0.22340175E+04</pdfrwt>
<totfact> 0.31268847E+00</totfact>
</mgrwt>
</event>
<event>
12    1  0.1504874E-007  0.1327457E+04  0.7818608E-02  0.9008070E-01
          4   -1    0    0  501    0  0.00000000000E+00  0.00000000000E+00  0.49514335584E+03  0.49514335584E+03  0.00000000000E+00 0.  1.
         -4   -1    0    0    0  501 -0.00000000000E+00 -0.00000000000E+00 -0.88971313829E+03  0.88971313829E+03  0.00000000000E+00 0. -1.
         23    2    1    2    0    0  0.27339820885E+03  0.55946437494E+02 -0.32179168493E+03  0.43587294956E+03  0.92513540637E+02 0.  0.
        254    2    1    2    0    0 -0.27339820885E+03 -0.55946437494E+02 -0.72778097524E+02  0.94898354456E+03  0.90409984620E+03 0.  0.
        -24    2    4    4    0    0 -0.13592161001E+03 -0.44829214848E+03 -0.18410147455E+03  0.51079378962E+03  0.87042565011E+02 0.  0.
         24    2    4    4    0    0 -0.13747659884E+03  0.39234571099E+03  0.11132337702E+03  0.43818975494E+03  0.82355296771E+02 0.  0.
         13    1    3    3    0    0  0.21833439019E+03  0.79132272437E+02 -0.27529829784E+03  0.36016798202E+03  0.00000000000E+00 0. -1.
        -13    1    3    3    0    0  0.55063818658E+02 -0.23185834943E+02 -0.46493387088E+02  0.75704967539E+02  0.00000000000E+00 0.  1.
          4    1    6    6  502    0 -0.63343990602E+02  0.11473668318E+03  0.29474376919E+01  0.13109406929E+03  0.00000000000E+00 0. -1.
          1    1    5    5  503    0  0.62357472403E+01 -0.18979979570E+02  0.50300580156E+01  0.20601593428E+02  0.00000000000E+00 0. -1.
         -4    1    5    5    0  503 -0.14215735725E+03 -0.42931216891E+03 -0.18913153256E+03  0.49019219619E+03  0.00000000000E+00 0.  1.
         -3    1    6    6    0  502 -0.74132608237E+02  0.27760902781E+03  0.10837593933E+03  0.30709568566E+03  0.00000000000E+00 0.  1.
<mgrwt>
<rscale>  0 0.13274570E+04</rscale>
<asrwt>0</asrwt>
<pdfrwt beam="1">  1        4 0.76175901E-01 0.13274570E+04</pdfrwt>
<pdfrwt beam="2">  1       -4 0.13687894E+00 0.13274570E+04</pdfrwt>
<totfact> 0.11478430E+00</totfact>
</mgrwt>
</event>
<event>
12    1  0.1504874E-007  0.1413615E+04  0.7818608E-02  0.8944022E-01
         -2   -1    0    0    0  501 -0.00000000000E+00  0.00000000000E+00  0.34262071537E+03  0.34262071537E+03  0.00000000000E+00 0.  1.
          2   -1    0    0  501    0  0.00000000000E+00 -0.00000000000E+00 -0.14581055661E+04  0.14581055661E+04  0.00000000000E+00 0. -1.
         23    2    1    2    0    0 -0.38239148539E+03 -0.84741884529E+02 -0.44350471250E+03  0.59876308993E+03  0.91740791144E+02 0.  0.
        254    2    1    2    0    0  0.38239148539E+03  0.84741884529E+02 -0.67198013828E+03  0.12019631916E+04  0.91638080109E+03 0.  0.
        -24    2    4    4    0    0  0.47903939876E+02 -0.78179805357E+02 -0.79371814021E+03  0.80250668559E+03  0.74977495868E+02 0.  0.
         24    2    4    4    0    0  0.33448754551E+03  0.16292168989E+03  0.12173800194E+03  0.39945650601E+03  0.79498200846E+02 0.  0.
         13    1    3    3    0    0 -0.14152503784E+03 -0.45488882264E+02 -0.10735847725E+03  0.18336961957E+03  0.00000000000E+00 0. -1.
        -13    1    3    3    0    0 -0.24086644755E+03 -0.39253002265E+02 -0.33614623525E+03  0.41539347035E+03  0.00000000000E+00 0.  1.
          2    1    6    6  502    0  0.23257879063E+03  0.14087871235E+03  0.60604164345E+02  0.27859032679E+03  0.00000000000E+00 0. -1.
          3    1    5    5  503    0  0.39293187877E+02 -0.22202449102E+02 -0.15942798338E+03  0.16569304525E+03  0.00000000000E+00 0. -1.
         -4    1    5    5    0  503  0.86107519992E+01 -0.55977356255E+02 -0.63429015683E+03  0.63681364034E+03  0.00000000000E+00 0.  1.
         -1    1    6    6    0  502  0.10190875488E+03  0.22042977537E+02  0.61133837591E+02  0.12086617922E+03  0.00000000000E+00 0.  1.
<mgrwt>
<rscale>  0 0.14136155E+04</rscale>
<asrwt>0</asrwt>
<pdfrwt beam="1">  1        2 0.22432393E+00 0.14136155E+04</pdfrwt>
<pdfrwt beam="2">  1       -2 0.52710879E-01 0.14136155E+04</pdfrwt>
<totfact> 0.44254752E+01</totfact>
</mgrwt>
</event>
<event>
12    1  0.1504874E-007  0.2094524E+04  0.7818608E-02  0.8563660E-01
         -2   -1    0    0    0  501 -0.00000000000E+00  0.00000000000E+00  0.11040169015E+04  0.11040169015E+04  0.00000000000E+00 0.  1.
          2   -1    0    0  501    0  0.00000000000E+00 -0.00000000000E+00 -0.99342431968E+03  0.99342431968E+03  0.00000000000E+00 0. -1.
         23    2    1    2    0    0 -0.76188711485E+03 -0.29337978915E+02 -0.32522677570E+03  0.83388231187E+03  0.90854618168E+02 0.  0.
        254    2    1    2    0    0  0.76188711485E+03  0.29337978915E+02  0.43581935748E+03  0.12635589093E+04  0.90846569118E+03 0.  0.
        -24    2    4    4    0    0 -0.25913422294E+02 -0.24618944576E+03 -0.88294878973E+02  0.27478277943E+03  0.80180057110E+02 0.  0.
         24    2    4    4    0    0  0.78780053714E+03  0.27552742468E+03  0.52411423645E+03  0.98877612984E+03  0.80233746128E+02 0.  0.
         13    1    3    3    0    0 -0.35260056768E+03 -0.47375579078E+02 -0.18404141186E+03  0.40055317637E+03  0.00000000000E+00 0. -1.
        -13    1    3    3    0    0 -0.40928654717E+03  0.18037600163E+02 -0.14118536385E+03  0.43332913550E+03  0.00000000000E+00 0.  1.
          4    1    6    6  502    0  0.73898537735E+03  0.23749304402E+03  0.47778263255E+03  0.91147055787E+03  0.00000000000E+00 0. -1.
          3    1    5    5  503    0 -0.24203174799E+02 -0.24239418932E+03 -0.66387962000E+02  0.25248385727E+03  0.00000000000E+00 0. -1.
         -4    1    5    5    0  503 -0.17102474949E+01 -0.37952564432E+01 -0.21906916973E+02  0.22298922154E+02  0.00000000000E+00 0.  1.
         -3    1    6    6    0  502  0.48815159791E+02  0.38034380657E+02  0.46331603906E+02  0.77305571972E+02  0.00000000000E+00 0.  1.
<mgrwt>
<rscale>  0 0.20945236E+04</rscale>
<asrwt>0</asrwt>
<pdfrwt beam="1">  1        2 0.15283451E+00 0.20945236E+04</pdfrwt>
<pdfrwt beam="2">  1       -2 0.16984875E+00 0.20945236E+04</pdfrwt>
<totfact> 0.50095301E+00</totfact>
</mgrwt>
</event>
<event>
12    1  0.1504874E-007  0.3831707E+04  0.7818608E-02  0.8039385E-01
          1   -1    0    0  501    0  0.00000000000E+00  0.00000000000E+00  0.15601685032E+04  0.15601685032E+04  0.00000000000E+00 0. -1.
         -1   -1    0    0    0  501 -0.00000000000E+00 -0.00000000000E+00 -0.23526269343E+04  0.23526269343E+04  0.00000000000E+00 0.  1.
         23    2    1    2    0    0  0.38894287053E+03 -0.98559536067E+03  0.11217338321E+04  0.15465962481E+04  0.10487322302E+03 0.  0.
        254    2    1    2    0    0 -0.38894287053E+03  0.98559536067E+03 -0.19141922632E+04  0.23661991895E+04  0.90116136864E+03 0.  0.
        -24    2    4    4    0    0 -0.16904102244E+03  0.31666846956E+03 -0.15022866373E+04  0.15463938022E+04  0.74932395985E+02 0.  0.
         24    2    4    4    0    0 -0.21990184810E+03  0.66892689111E+03 -0.41190562586E+03  0.81980538726E+03  0.81207265169E+02 0.  0.
         11    1    3    3    0    0  0.31624077078E+03 -0.81548003309E+03  0.97995089388E+03  0.13135142420E+04  0.00000000000E+00 0. -1.
        -11    1    3    3    0    0  0.72702099756E+02 -0.17011532757E+03  0.14178293824E+03  0.23308200609E+03  0.00000000000E+00 0.  1.
          4    1    6    6  502    0 -0.19077423561E+03  0.54579703265E+03 -0.37038043117E+03  0.68663736690E+03  0.00000000000E+00 0. -1.
          3    1    5    5  503    0 -0.78422418653E+02  0.16520952594E+03 -0.91768711441E+03  0.93573174744E+03  0.00000000000E+00 0. -1.
         -4    1    5    5    0  503 -0.90618603783E+02  0.15145894362E+03 -0.58459952294E+03  0.61066205480E+03  0.00000000000E+00 0.  1.
         -3    1    6    6    0  502 -0.29127612490E+02  0.12312985846E+03 -0.41525194689E+02  0.13316802036E+03  0.00000000000E+00 0.  1.
<mgrwt>
<rscale>  0 0.38317069E+04</rscale>
<asrwt>0</asrwt>
<pdfrwt beam="1">  1        1 0.24002592E+00 0.38317069E+04</pdfrwt>
<pdfrwt beam="2">  1       -1 0.36194261E+00 0.38317069E+04</pdfrwt>
<totfact> 0.60997048E-02</totfact>
</mgrwt>
</event>
<event>
12    1  0.1504874E-007  0.3812402E+04  0.7818608E-02  0.8043499E-01
         -2   -1    0    0    0  501 -0.00000000000E+00  0.00000000000E+00  0.32527311351E+04  0.32527311351E+04  0.00000000000E+00 0.  1.
          2   -1    0    0  501    0  0.00000000000E+00 -0.00000000000E+00 -0.11170929041E+04  0.11170929041E+04  0.00000000000E+00 0. -1.
         23    2    1    2    0    0 -0.16116445775E+04 -0.79231078647E+03  0.10216400656E+04  0.20679127600E+04  0.85791216596E+02 0.  0.
        254    2    1    2    0    0  0.16116445775E+04  0.79231078647E+03  0.11139981654E+04  0.23019112792E+04  0.91249602655E+03 0.  0.
        -24    2    4    4    0    0  0.15170345569E+04  0.91801183644E+03  0.81206794267E+03  0.19518996178E+04  0.79487079702E+02 0.  0.
         24    2    4    4    0    0  0.94610020595E+02 -0.12570104997E+03  0.30193022272E+03  0.35001166143E+03  0.81206488567E+02 0.  0.
         11    1    3    3    0    0 -0.13026829109E+04 -0.61404601887E+03  0.84689235859E+03  0.16707070200E+04  0.00000000000E+00 0. -1.
        -11    1    3    3    0    0 -0.30896166656E+03 -0.17826476760E+03  0.17474770706E+03  0.39720574001E+03  0.00000000000E+00 0.  1.
          2    1    6    6  502    0  0.39502666643E+02 -0.46515360051E+01  0.40910784489E+02  0.57059528097E+02  0.00000000000E+00 0. -1.
          3    1    5    5  503    0  0.47660026173E+03  0.32499810275E+03  0.24192333246E+03  0.62553854802E+03  0.00000000000E+00 0. -1.
         -4    1    5    5    0  503  0.10404342951E+04  0.59301373368E+03  0.57014461021E+03  0.13263610698E+04  0.00000000000E+00 0.  1.
         -1    1    6    6    0  502  0.55107353951E+02 -0.12104951396E+03  0.26101943823E+03  0.29295213333E+03  0.00000000000E+00 0.  1.
<mgrwt>
<rscale>  0 0.38124023E+04</rscale>
<asrwt>0</asrwt>
<pdfrwt beam="1">  1        2 0.17186045E+00 0.38124023E+04</pdfrwt>
<pdfrwt beam="2">  1       -2 0.50042017E+00 0.38124023E+04</pdfrwt>
<totfact> 0.27934018E-02</totfact>
</mgrwt>
</event>
<event>
12    1  0.1504874E-007  0.2085263E+04  0.7818608E-02  0.8567763E-01
          2   -1    0    0  501    0  0.00000000000E+00  0.00000000000E+00  0.25825542097E+04  0.25825542097E+04  0.00000000000E+00 0. -1.
         -2   -1    0    0    0  501 -0.00000000000E+00 -0.00000000000E+00 -0.42093209793E+03  0.42093209793E+03  0.00000000000E+00 0.  1.
         23    2    1    2    0    0  0.38379114860E+03 -0.57479752654E+03  0.16396611982E+04  0.17816960883E+04  0.90907998080E+02 0.  0.
        254    2    1    2    0    0 -0.38379114860E+03  0.57479752654E+03  0.52196091356E+03  0.12217902193E+04  0.86176580482E+03 0.  0.
        -24    2    4    4    0    0 -0.38744318397E+03  0.18601958338E+03  0.66854815105E+03  0.79872691518E+03  0.79325585820E+02 0.  0.
         24    2    4    4    0    0  0.36520353667E+01  0.38877794316E+03 -0.14658723749E+03  0.42306330409E+03  0.79580868468E+02 0.  0.
         11    1    3    3    0    0  0.22232193308E+03 -0.28865837827E+03  0.76417592979E+03  0.84659054622E+03  0.00000000000E+00 0.  1.
        -11    1    3    3    0    0  0.16146921552E+03 -0.28613914827E+03  0.87548526840E+03  0.93510554213E+03  0.00000000000E+00 0. -1.
          4    1    6    6  502    0 -0.12111078825E+02  0.37365736644E+03 -0.13065299121E+03  0.39602614792E+03  0.00000000000E+00 0. -1.
          1    1    5    5  503    0 -0.24554092373E+03  0.15034947405E+03  0.39908536088E+03  0.49210205734E+03  0.00000000000E+00 0. -1.
         -2    1    5    5    0  503 -0.14190226024E+03  0.35670109330E+02  0.26946279017E+03  0.30662485784E+03  0.00000000000E+00 0.  1.
         -3    1    6    6    0  502  0.15763114192E+02  0.15120576715E+02 -0.15934246275E+02  0.27037156166E+02  0.00000000000E+00 0.  1.
<mgrwt>
<rscale>  0 0.20852625E+04</rscale>
<asrwt>0</asrwt>
<pdfrwt beam="1">  1        2 0.39731602E+00 0.20852625E+04</pdfrwt>
<pdfrwt beam="2">  1       -2 0.64758786E-01 0.20852625E+04</pdfrwt>
<totfact> 0.63298951E+00</totfact>
</mgrwt>
</event>
<event>
12    1  0.1504874E-007  0.1858809E+04  0.7818608E-02  0.8675636E-01
          1   -1    0    0  501    0  0.00000000000E+00  0.00000000000E+00  0.74978809352E+03  0.74978809352E+03  0.00000000000E+00 0. -1.
         -1   -1    0    0    0  501 -0.00000000000E+00 -0.00000000000E+00 -0.11520485426E+04  0.11520485426E+04  0.00000000000E+00 0.  1.
         23    2    1    2    0    0 -0.12501363808E+02 -0.16336152543E+03 -0.85415424517E+03  0.87438213407E+03  0.90118642653E+02 0.  0.
        254    2    1    2    0    0  0.12501363808E+02  0.16336152543E+03  0.45189379607E+03  0.10274545021E+04  0.90808120716E+03 0.  0.
        -24    2    4    4    0    0 -0.16376986175E+01 -0.38424965674E+01 -0.26969389867E+03  0.28152136237E+03  0.80635176289E+02 0.  0.
         24    2    4    4    0    0  0.14139062426E+02  0.16720402199E+03  0.72158769474E+03  0.74593313970E+03  0.87007756238E+02 0.  0.
         13    1    3    3    0    0 -0.46479936987E+01 -0.52484954679E+02 -0.10995657314E+03  0.12192916915E+03  0.00000000000E+00 0. -1.
        -13    1    3    3    0    0 -0.78533701098E+01 -0.11087657075E+03 -0.74419767202E+03  0.75245296492E+03  0.00000000000E+00 0.  1.
          4    1    6    6  502    0 -0.33837309293E+02  0.37622441200E+02  0.21044344505E+03  0.21644134343E+03  0.00000000000E+00 0. -1.
          3    1    5    5  503    0  0.23894054443E+02 -0.33184933743E+02 -0.15972988561E+03  0.16488117546E+03  0.00000000000E+00 0. -1.
         -4    1    5    5    0  503 -0.25531753060E+02  0.29342437175E+02 -0.10996401306E+03  0.11664018691E+03  0.00000000000E+00 0.  1.
         -3    1    6    6    0  502  0.47976371719E+02  0.12958158079E+03  0.51114424969E+03  0.52949179627E+03  0.00000000000E+00 0.  1.
<mgrwt>
<rscale>  0 0.18588085E+04</rscale>
<asrwt>0</asrwt>
<pdfrwt beam="1">  1        1 0.11535201E+00 0.18588085E+04</pdfrwt>
<pdfrwt beam="2">  1       -1 0.17723824E+00 0.18588085E+04</pdfrwt>
<totfact> 0.50122535E+00</totfact>
</mgrwt>
</event>
<event>
12    1  0.1504874E-007  0.1790016E+04  0.7818608E-02  0.8711627E-01
          2   -1    0    0  501    0  0.00000000000E+00  0.00000000000E+00  0.36627759337E+03  0.36627759337E+03  0.00000000000E+00 0. -1.
         -2   -1    0    0    0  501 -0.00000000000E+00 -0.00000000000E+00 -0.21869730151E+04  0.21869730151E+04  0.00000000000E+00 0.  1.
         23    2    1    2    0    0  0.12759941661E+03 -0.40264377348E+03  0.48420455610E+02  0.43513525579E+03  0.92706692653E+02 0.  0.
        254    2    1    2    0    0 -0.12759941661E+03  0.40264377348E+03 -0.18691158773E+04  0.21181153527E+04  0.90244936972E+03 0.  0.
        -24    2    4    4    0    0  0.27961767609E+03  0.48509015033E+03 -0.12105401912E+04  0.13362201694E+04  0.81106644581E+02 0.  0.
         24    2    4    4    0    0 -0.40721709271E+03 -0.82446376844E+02 -0.65857568615E+03  0.78189518332E+03  0.70816507043E+02 0.  0.
         13    1    3    3    0    0  0.54483171407E+02 -0.20854353026E+03  0.69941962970E+02  0.22660692435E+03  0.00000000000E+00 0. -1.
        -13    1    3    3    0    0  0.73116245207E+02 -0.19410024323E+03 -0.21521507360E+02  0.20852833144E+03  0.00000000000E+00 0.  1.
          4    1    6    6  502    0 -0.90409692619E+02 -0.16621991621E+02 -0.96079782190E+02  0.13297190557E+03  0.00000000000E+00 0. -1.
          3    1    5    5  503    0  0.25410440875E+03  0.44157634557E+03 -0.11472696835E+04  0.12553033283E+04  0.00000000000E+00 0. -1.
         -4    1    5    5    0  503  0.25513267343E+02  0.43513804757E+02 -0.63270507715E+02  0.80916841025E+02  0.00000000000E+00 0.  1.
         -3    1    6    6    0  502 -0.31680740009E+03 -0.65824385223E+02 -0.56249590396E+03  0.64892327775E+03  0.00000000000E+00 0.  1.
<mgrwt>
<rscale>  0 0.17900159E+04</rscale>
<asrwt>0</asrwt>
<pdfrwt beam="1">  1        2 0.56350400E-01 0.17900159E+04</pdfrwt>
<pdfrwt beam="2">  1       -2 0.33645738E+00 0.17900159E+04</pdfrwt>
<totfact> 0.15750603E+00</totfact>
</mgrwt>
</event>
<event>
12    1  0.1504874E-007  0.2391832E+04  0.7818608E-02  0.8442568E-01
         -1   -1    0    0    0  501 -0.00000000000E+00  0.00000000000E+00  0.11504777052E+04  0.11504777052E+04  0.00000000000E+00 0.  1.
          1   -1    0    0  501    0  0.00000000000E+00 -0.00000000000E+00 -0.12431485396E+04  0.12431485396E+04  0.00000000000E+00 0. -1.
         23    2    1    2    0    0  0.14748422844E+03  0.76603186731E+03  0.62243173162E+03  0.10027569680E+04  0.97692665849E+02 0.  0.
        254    2    1    2    0    0 -0.14748422844E+03 -0.76603186731E+03 -0.71510256604E+03  0.13908692768E+04  0.90254597982E+03 0.  0.
        -24    2    4    4    0    0 -0.60100792342E+02  0.87016154807E+02 -0.47990684688E+03  0.49798937507E+03  0.80615876625E+02 0.  0.
         24    2    4    4    0    0 -0.87383436094E+02 -0.85304802212E+03 -0.23519571916E+03  0.89287990168E+03  0.81183123735E+02 0.  0.
         13    1    3    3    0    0 -0.81197778519E+01  0.74647729716E+01  0.39383669304E+01  0.11711719001E+02  0.00000000000E+00 0. -1.
        -13    1    3    3    0    0  0.15560400629E+03  0.75856709434E+03  0.61849336469E+03  0.99104524899E+03  0.00000000000E+00 0.  1.
          4    1    6    6  502    0 -0.19203360093E+02 -0.51961349985E+03 -0.16358694346E+03  0.54509416282E+03  0.00000000000E+00 0. -1.
          1    1    5    5  503    0 -0.45246468795E+02  0.44415294681E+02 -0.12434537872E+03  0.13957698431E+03  0.00000000000E+00 0. -1.
         -2    1    5    5    0  503 -0.14854323547E+02  0.42600860126E+02 -0.35556146816E+03  0.35841239076E+03  0.00000000000E+00 0.  1.
         -3    1    6    6    0  502 -0.68180076001E+02 -0.33343452226E+03 -0.71608775695E+02  0.34778573887E+03  0.00000000000E+00 0.  1.
<mgrwt>
<rscale>  0 0.23918317E+04</rscale>
<asrwt>0</asrwt>
<pdfrwt beam="1">  1        1 0.19125362E+00 0.23918317E+04</pdfrwt>
<pdfrwt beam="2">  1       -1 0.17699657E+00 0.23918317E+04</pdfrwt>
<totfact> 0.19500313E+00</totfact>
</mgrwt>
</event>
<event>
12    1  0.1504874E-007  0.1178604E+04  0.7818608E-02  0.9131793E-01
          1   -1    0    0  501    0  0.00000000000E+00  0.00000000000E+00  0.42489236145E+03  0.42489236145E+03  0.00000000000E+00 0. -1.
         -1   -1    0    0    0  501 -0.00000000000E+00 -0.00000000000E+00 -0.81732924553E+03  0.81732924553E+03  0.00000000000E+00 0.  1.
         23    2    1    2    0    0  0.59205191759E+02 -0.11436800011E+03 -0.27783300118E+03  0.31998315946E+03  0.92804911571E+02 0.  0.
        254    2    1    2    0    0 -0.59205191759E+02  0.11436800011E+03 -0.11460388291E+03  0.92223844752E+03  0.90598256602E+03 0.  0.
        -24    2    4    4    0    0 -0.35743800329E+03 -0.23177291420E+03 -0.14346134126E+03  0.45641790836E+03  0.79091976084E+02 0.  0.
         24    2    4    4    0    0  0.29823281153E+03  0.34614091431E+03  0.28857458354E+02  0.46582053916E+03  0.86021389040E+02 0.  0.
         13    1    3    3    0    0  0.52107843638E+02 -0.91472630496E+01 -0.82669050484E+02  0.98148212913E+02  0.00000000000E+00 0. -1.
        -13    1    3    3    0    0  0.70973481205E+01 -0.10522073706E+03 -0.19516395070E+03  0.22183494654E+03  0.00000000000E+00 0.  1.
          2    1    6    6  502    0  0.37304647986E+01  0.21126752543E+02 -0.13238988814E+02  0.25209658178E+02  0.00000000000E+00 0. -1.
          3    1    5    5  503    0 -0.13255817625E+03 -0.51726309555E+02 -0.72651192343E+02  0.15976694570E+03  0.00000000000E+00 0. -1.
         -4    1    5    5    0  503 -0.22487982705E+03 -0.18004660464E+03 -0.70810148917E+02  0.29665096266E+03  0.00000000000E+00 0.  1.
         -1    1    6    6    0  502  0.29450234673E+03  0.32501416176E+03  0.42096447168E+02  0.44061088099E+03  0.00000000000E+00 0.  1.
<mgrwt>
<rscale>  0 0.11786042E+04</rscale>
<asrwt>0</asrwt>
<pdfrwt beam="1">  1        1 0.65368056E-01 0.11786042E+04</pdfrwt>
<pdfrwt beam="2">  1       -1 0.12574296E+00 0.11786042E+04</pdfrwt>
<totfact> 0.30253710E+01</totfact>
</mgrwt>
</event>
<event>
12    1  0.1504874E-007  0.1131263E+04  0.7818608E-02  0.9175245E-01
          2   -1    0    0  501    0  0.00000000000E+00  0.00000000000E+00  0.15804042825E+04  0.15804042825E+04  0.00000000000E+00 0. -1.
         -2   -1    0    0    0  501 -0.00000000000E+00 -0.00000000000E+00 -0.20244120875E+03  0.20244120875E+03  0.00000000000E+00 0.  1.
         23    2    1    2    0    0  0.13320069916E+03  0.12610782619E+03  0.37315053896E+03  0.42557623775E+03  0.90709422484E+02 0.  0.
        254    2    1    2    0    0 -0.13320069916E+03 -0.12610782619E+03  0.10048125348E+04  0.13572692535E+04  0.89380422150E+03 0.  0.
        -24    2    4    4    0    0  0.28097643580E+03  0.19668583187E+03  0.23969281564E+03  0.42568276692E+03  0.78231056781E+02 0.  0.
         24    2    4    4    0    0 -0.41417713496E+03 -0.32279365806E+03  0.76511971917E+03  0.93158648661E+03  0.81894765127E+02 0.  0.
         11    1    3    3    0    0  0.14227120666E+03  0.12348729591E+03  0.31792199373E+03  0.36954648232E+03  0.00000000000E+00 0. -1.
        -11    1    3    3    0    0 -0.90705075034E+01  0.26205302783E+01  0.55228545233E+02  0.56029755433E+02  0.00000000000E+00 0.  1.
          4    1    6    6  502    0 -0.14421008958E+01 -0.16666723228E+02  0.15938183315E+02  0.23105951734E+02  0.00000000000E+00 0. -1.
          3    1    5    5  503    0  0.66139011848E+02  0.20757814871E+02  0.78021450791E+02  0.10436763172E+03  0.00000000000E+00 0. -1.
         -4    1    5    5    0  503  0.21483742395E+03  0.17592801700E+03  0.16167136485E+03  0.32131513520E+03  0.00000000000E+00 0.  1.
         -3    1    6    6    0  502 -0.41273503407E+03 -0.30612693483E+03  0.74918153586E+03  0.90848053488E+03  0.00000000000E+00 0.  1.
<mgrwt>
<rscale>  0 0.11312629E+04</rscale>
<asrwt>0</asrwt>
<pdfrwt beam="1">  1        2 0.24313911E+00 0.11312629E+04</pdfrwt>
<pdfrwt beam="2">  1       -2 0.31144802E-01 0.11312629E+04</pdfrwt>
<totfact> 0.10829767E+02</totfact>
</mgrwt>
</event>
<event>
12    1  0.1504874E-007  0.1797163E+04  0.7818608E-02  0.8707810E-01
         -2   -1    0    0    0  501 -0.00000000000E+00  0.00000000000E+00  0.58396096253E+03  0.58396096253E+03  0.00000000000E+00 0.  1.
          2   -1    0    0  501    0  0.00000000000E+00 -0.00000000000E+00 -0.13827096803E+04  0.13827096803E+04  0.00000000000E+00 0. -1.
         23    2    1    2    0    0 -0.30355141283E+03 -0.48377202909E+03 -0.68791379618E+03  0.89913901766E+03  0.95114382448E+02 0.  0.
        254    2    1    2    0    0  0.30355141283E+03  0.48377202909E+03 -0.11083492159E+03  0.10675316252E+04  0.89507572558E+03 0.  0.
        -24    2    4    4    0    0 -0.12135426540E+03  0.54299495786E+03  0.12003259787E+03  0.57357607741E+03  0.70790606932E+02 0.  0.
         24    2    4    4    0    0  0.42490567824E+03 -0.59222928778E+02 -0.23086751945E+03  0.49395554775E+03  0.81486691716E+02 0.  0.
         13    1    3    3    0    0 -0.11444789678E+03 -0.23146440445E+03 -0.37168291088E+03  0.45257295306E+03  0.00000000000E+00 0.  1.
        -13    1    3    3    0    0 -0.18910351605E+03 -0.25230762464E+03 -0.31623088530E+03  0.44656606460E+03  0.00000000000E+00 0. -1.
          2    1    6    6  502    0  0.43735689533E+02  0.18027285972E+02 -0.18175878806E+02  0.50676978489E+02  0.00000000000E+00 0. -1.
          3    1    5    5  503    0 -0.20714030112E+02  0.91027927759E+02  0.47993959275E+02  0.10496939936E+03  0.00000000000E+00 0. -1.
         -4    1    5    5    0  503 -0.10064023529E+03  0.45196703010E+03  0.72038638591E+02  0.46860667805E+03  0.00000000000E+00 0.  1.
         -1    1    6    6    0  502  0.38116998870E+03 -0.77250214750E+02 -0.21269164065E+03  0.44327856926E+03  0.00000000000E+00 0.  1.
<mgrwt>
<rscale>  0 0.17971627E+04</rscale>
<asrwt>0</asrwt>
<pdfrwt beam="1">  1        2 0.21272456E+00 0.17971627E+04</pdfrwt>
<pdfrwt beam="2">  1       -2 0.89840150E-01 0.17971627E+04</pdfrwt>
<totfact> 0.14836490E+01</totfact>
</mgrwt>
</event>
<event>
12    1  0.1504874E-007  0.1372113E+04  0.7818608E-02  0.8974256E-01
          2   -1    0    0  501    0  0.00000000000E+00  0.00000000000E+00  0.20152953716E+04  0.20152953716E+04  0.00000000000E+00 0. -1.
         -2   -1    0    0    0  501 -0.00000000000E+00 -0.00000000000E+00 -0.23355068547E+03  0.23355068547E+03  0.00000000000E+00 0.  1.
         23    2    1    2    0    0 -0.34570111288E+03  0.15898542585E+03  0.41422805871E+03  0.56997662403E+03  0.92210857528E+02 0.  0.
        254    2    1    2    0    0  0.34570111288E+03 -0.15898542585E+03  0.13675166274E+04  0.16788694331E+04  0.89650165747E+03 0.  0.
        -24    2    4    4    0    0 -0.23205805888E+03 -0.52207229503E+02  0.86791834579E+03  0.90354861181E+03  0.80878312569E+02 0.  0.
         24    2    4    4    0    0  0.57775917176E+03 -0.10677819635E+03  0.49959828166E+03  0.77532082125E+03  0.79477600975E+02 0.  0.
         13    1    3    3    0    0 -0.14826124234E+03  0.52930853752E+02  0.10975000823E+03  0.19190658031E+03  0.00000000000E+00 0.  1.
        -13    1    3    3    0    0 -0.19743987054E+03  0.10605457210E+03  0.30447805047E+03  0.37807004373E+03  0.00000000000E+00 0. -1.
          4    1    6    6  502    0  0.53535354899E+03 -0.11871754232E+03  0.47031451268E+03  0.72242163458E+03  0.00000000000E+00 0. -1.
          3    1    5    5  503    0 -0.22862487803E+03 -0.32220935057E+02  0.80343045246E+03  0.83594737600E+03  0.00000000000E+00 0. -1.
         -4    1    5    5    0  503 -0.34331808527E+01 -0.19986294446E+02  0.64487893332E+02  0.67601235808E+02  0.00000000000E+00 0.  1.
         -3    1    6    6    0  502  0.42405622770E+02  0.11939345970E+02  0.29283768982E+02  0.52899186671E+02  0.00000000000E+00 0.  1.
<mgrwt>
<rscale>  0 0.13721131E+04</rscale>
<asrwt>0</asrwt>
<pdfrwt beam="1">  1        2 0.31004543E+00 0.13721131E+04</pdfrwt>
<pdfrwt beam="2">  1       -2 0.35930876E-01 0.13721131E+04</pdfrwt>
<totfact> 0.46576505E+01</totfact>
</mgrwt>
</event>
<event>
12    1  0.1504874E-007  0.2064420E+04  0.7818608E-02  0.8577081E-01
         -1   -1    0    0    0  501 -0.00000000000E+00  0.00000000000E+00  0.14150593710E+04  0.14150593710E+04  0.00000000000E+00 0.  1.
          1   -1    0    0  501    0  0.00000000000E+00 -0.00000000000E+00 -0.75294181268E+03  0.75294181268E+03  0.00000000000E+00 0. -1.
         23    2    1    2    0    0  0.34394974651E+03 -0.10621733756E+03  0.10584800379E+04  0.11215982488E+04  0.89549373528E+02 0.  0.
        254    2    1    2    0    0 -0.34394974651E+03  0.10621733756E+03 -0.39636247952E+03  0.10464029349E+04  0.89903967433E+03 0.  0.
        -24    2    4    4    0    0 -0.57154392710E+03 -0.16677532507E+03 -0.27524010906E+03  0.66080929001E+03  0.80220511615E+02 0.  0.
         24    2    4    4    0    0  0.22759418058E+03  0.27299266262E+03 -0.12112237047E+03  0.38559364486E+03  0.87679675241E+02 0.  0.
         13    1    3    3    0    0  0.71521877296E+02  0.45260970415E+01  0.14143992673E+03  0.15855950731E+03  0.00000000000E+00 0. -1.
        -13    1    3    3    0    0  0.27242786922E+03 -0.11074343460E+03  0.91704011114E+03  0.96303874152E+03  0.00000000000E+00 0.  1.
          4    1    6    6  502    0  0.22056516656E+03  0.25794801211E+03 -0.13368540227E+03  0.36477110142E+03  0.00000000000E+00 0. -1.
          1    1    5    5  503    0 -0.46871222887E+03 -0.11888619127E+03 -0.19276826267E+03  0.52056189167E+03  0.00000000000E+00 0. -1.
         -2    1    5    5    0  503 -0.10283169822E+03 -0.47889133793E+02 -0.82471846383E+02  0.14024739834E+03  0.00000000000E+00 0.  1.
         -1    1    6    6    0  502  0.70290140198E+01  0.15044650515E+02  0.12563031806E+02  0.20822543441E+02  0.00000000000E+00 0.  1.
<mgrwt>
<rscale>  0 0.20644199E+04</rscale>
<asrwt>0</asrwt>
<pdfrwt beam="1">  1        1 0.11583720E+00 0.20644199E+04</pdfrwt>
<pdfrwt beam="2">  1       -1 0.21770144E+00 0.20644199E+04</pdfrwt>
<totfact> 0.25604688E+00</totfact>
</mgrwt>
</event>
<event>
12    1  0.1504874E-007  0.1197103E+04  0.7818608E-02  0.9115396E-01
         -1   -1    0    0    0  501 -0.00000000000E+00  0.00000000000E+00  0.22051456895E+04  0.22051456895E+04  0.00000000000E+00 0.  1.
          1   -1    0    0  501    0  0.00000000000E+00 -0.00000000000E+00 -0.16246713016E+03  0.16246713016E+03  0.00000000000E+00 0. -1.
         23    2    1    2    0    0 -0.34363189635E+02  0.19849745248E+03  0.50749629809E+03  0.55352481560E+03  0.90857919119E+02 0.  0.
        254    2    1    2    0    0  0.34363189635E+02 -0.19849745248E+03  0.15351822613E+04  0.18140880041E+04  0.94527701960E+03 0.  0.
        -24    2    4    4    0    0  0.33635310982E+02 -0.56276530835E+03  0.11159566834E+04  0.12529492051E+04  0.81769584403E+02 0.  0.
         24    2    4    4    0    0  0.72787865333E+00  0.36426785587E+03  0.41922557783E+03  0.56113879893E+03  0.80218862700E+02 0.  0.
         11    1    3    3    0    0  0.11882345024E+02  0.20520435505E+00  0.85750595490E+01  0.14654824405E+02  0.00000000000E+00 0. -1.
        -11    1    3    3    0    0 -0.46245534659E+02  0.19829224813E+03  0.49892123854E+03  0.53886999120E+03  0.00000000000E+00 0.  1.
          2    1    6    6  502    0  0.28770406076E+02  0.59200044908E+02  0.60509264837E+02  0.89407788889E+02  0.00000000000E+00 0. -1.
          3    1    5    5  503    0  0.15046513339E+02 -0.20300611005E+03  0.31987948910E+03  0.37915796949E+03  0.00000000000E+00 0. -1.
         -4    1    5    5    0  503  0.18588797642E+02 -0.35975919830E+03  0.79607719434E+03  0.87379123565E+03  0.00000000000E+00 0.  1.
         -1    1    6    6    0  502 -0.28042527422E+02  0.30506781096E+03  0.35871631300E+03  0.47173101005E+03  0.00000000000E+00 0.  1.
<mgrwt>
<rscale>  0 0.11971027E+04</rscale>
<asrwt>0</asrwt>
<pdfrwt beam="1">  1        1 0.24994945E-01 0.11971027E+04</pdfrwt>
<pdfrwt beam="2">  1       -1 0.33925316E+00 0.11971027E+04</pdfrwt>
<totfact> 0.35766081E+00</totfact>
</mgrwt>
</event>
<event>
12    1  0.1504874E-007  0.1805512E+04  0.7818608E-02  0.8703374E-01
          2   -1    0    0  501    0  0.00000000000E+00  0.00000000000E+00  0.26109866857E+04  0.26109866857E+04  0.00000000000E+00 0. -1.
         -2   -1    0    0    0  501 -0.00000000000E+00 -0.00000000000E+00 -0.31213037009E+03  0.31213037009E+03  0.00000000000E+00 0.  1.
         23    2    1    2    0    0  0.31700710620E+03 -0.35496492201E+03  0.84254523046E+02  0.49187524501E+03  0.91371936365E+02 0.  0.
        254    2    1    2    0    0 -0.31700710620E+03  0.35496492201E+03  0.22146017926E+04  0.24312418108E+04  0.88316591964E+03 0.  0.
        -24    2    4    4    0    0 -0.25062800012E+03  0.34865966708E+03  0.33955055608E+03  0.55323345313E+03  0.79966965887E+02 0.  0.
         24    2    4    4    0    0 -0.66379106089E+02  0.63052549257E+01  0.18750512365E+04  0.18780083577E+04  0.81561694454E+02 0.  0.
         11    1    3    3    0    0  0.13096589799E+03 -0.15267706557E+03  0.81486776418E+02  0.21703098285E+03  0.00000000000E+00 0.  1.
        -11    1    3    3    0    0  0.18604120822E+03 -0.20228785644E+03  0.27677466280E+01  0.27484426216E+03  0.00000000000E+00 0. -1.
          2    1    6    6  502    0 -0.65408945817E+02 -0.26382191894E+02  0.14422177057E+04  0.14439412249E+04  0.00000000000E+00 0. -1.
          3    1    5    5  503    0 -0.16177839119E+03  0.23365827813E+03  0.27045060348E+03  0.39231615786E+03  0.00000000000E+00 0. -1.
         -4    1    5    5    0  503 -0.88849608926E+02  0.11500138895E+03  0.69099952601E+02  0.16091729527E+03  0.00000000000E+00 0.  1.
         -1    1    6    6    0  502 -0.97016027121E+00  0.32687446820E+02  0.43283353079E+03  0.43406713279E+03  0.00000000000E+00 0.  1.
<mgrwt>
<rscale>  0 0.18055118E+04</rscale>
<asrwt>0</asrwt>
<pdfrwt beam="1">  1        2 0.40169024E+00 0.18055118E+04</pdfrwt>
<pdfrwt beam="2">  1       -2 0.48020059E-01 0.18055118E+04</pdfrwt>
<totfact> 0.11643442E+01</totfact>
</mgrwt>
</event>
<event>
12    1  0.1504874E-007  0.2144006E+04  0.7818608E-02  0.8542102E-01
         -1   -1    0    0    0  501 -0.00000000000E+00  0.00000000000E+00  0.67445833835E+03  0.67445833835E+03  0.00000000000E+00 0.  1.
          1   -1    0    0  501    0  0.00000000000E+00 -0.00000000000E+00 -0.17038722165E+04  0.17038722165E+04  0.00000000000E+00 0. -1.
         23    2    1    2    0    0  0.62027994206E+03  0.21288096081E+03 -0.10812070316E+04  0.12678511188E+04  0.91500295550E+02 0.  0.
        254    2    1    2    0    0 -0.62027994206E+03 -0.21288096081E+03  0.51793153491E+02  0.11104794361E+04  0.89466001208E+03 0.  0.
        -24    2    4    4    0    0 -0.31229672895E+03 -0.27205664087E+02 -0.40832170955E+03  0.52088304430E+03  0.79518125471E+02 0.  0.
         24    2    4    4    0    0 -0.30798321311E+03 -0.18567529673E+03  0.46011486304E+03  0.58959639178E+03  0.81174150022E+02 0.  0.
         11    1    3    3    0    0  0.49001740893E+03  0.12908753445E+03 -0.80625709976E+03  0.95227683135E+03  0.00000000000E+00 0. -1.
        -11    1    3    3    0    0  0.13026253313E+03  0.83793426359E+02 -0.27494993189E+03  0.31557428742E+03  0.00000000000E+00 0.  1.
          2    1    6    6  502    0 -0.36755840677E+00  0.22946916658E+01  0.22482969552E+02  0.22602757108E+02  0.00000000000E+00 0. -1.
          3    1    5    5  503    0 -0.11652030984E+03 -0.49025963415E+02 -0.15820883320E+03  0.20251064810E+03  0.00000000000E+00 0. -1.
         -4    1    5    5    0  503 -0.19577641911E+03  0.21820299328E+02 -0.25011287636E+03  0.31837239620E+03  0.00000000000E+00 0.  1.
         -3    1    6    6    0  502 -0.30761565471E+03 -0.18796998839E+03  0.43763189349E+03  0.56699363467E+03  0.00000000000E+00 0.  1.
<mgrwt>
<rscale>  0 0.21440064E+04</rscale>
<asrwt>0</asrwt>
<pdfrwt beam="1">  1        1 0.26213418E+00 0.21440064E+04</pdfrwt>
<pdfrwt beam="2">  1       -1 0.10376282E+00 0.21440064E+04</pdfrwt>
<totfact> 0.37978943E+00</totfact>
</mgrwt>
</event>
<event>
12    1  0.1504874E-007  0.1291799E+04  0.7818608E-02  0.9036094E-01
          1   -1    0    0  501    0  0.00000000000E+00  0.00000000000E+00  0.28544910155E+03  0.28544910155E+03  0.00000000000E+00 0. -1.
         -1   -1    0    0    0  501 -0.00000000000E+00 -0.00000000000E+00 -0.14615076615E+04  0.14615076615E+04  0.00000000000E+00 0.  1.
         23    2    1    2    0    0  0.13159163990E+03 -0.17589775357E+03 -0.63242352491E+03  0.67600105478E+03  0.93603054450E+02 0.  0.
        254    2    1    2    0    0 -0.13159163990E+03  0.17589775357E+03 -0.54363503509E+03  0.10709557083E+04  0.89618675420E+03 0.  0.
        -24    2    4    4    0    0 -0.44127558175E+03  0.18924649628E+03 -0.59683310551E+02  0.49050971260E+03  0.80618268337E+02 0.  0.
         24    2    4    4    0    0  0.30968394186E+03 -0.13348742708E+02 -0.48395172454E+03  0.58044599572E+03  0.81399935432E+02 0.  0.
         13    1    3    3    0    0  0.78237393203E+02 -0.11481385511E+03 -0.25942422050E+03  0.29428597860E+03  0.00000000000E+00 0. -1.
        -13    1    3    3    0    0  0.53354246695E+02 -0.61083898467E+02 -0.37299930441E+03  0.38171507618E+03  0.00000000000E+00 0.  1.
          2    1    6    6  502    0  0.21687976020E+03 -0.46716550922E+02 -0.33673327743E+03  0.40324752528E+03  0.00000000000E+00 0. -1.
          3    1    5    5  503    0 -0.43386099924E+03  0.18819998188E+03 -0.69671989231E+02  0.47802592599E+03  0.00000000000E+00 0. -1.
         -4    1    5    5    0  503 -0.74145825190E+01  0.10465144046E+01  0.99886786806E+01  0.12483786610E+02  0.00000000000E+00 0.  1.
         -1    1    6    6    0  502  0.92804181653E+02  0.33367808214E+02 -0.14721844711E+03  0.17719847044E+03  0.00000000000E+00 0.  1.
<mgrwt>
<rscale>  0 0.12917988E+04</rscale>
<asrwt>0</asrwt>
<pdfrwt beam="1">  1        1 0.43915246E-01 0.12917988E+04</pdfrwt>
<pdfrwt beam="2">  1       -1 0.22484733E+00 0.12917988E+04</pdfrwt>
<totfact> 0.94003474E+00</totfact>
</mgrwt>
</event>
<event>
12    1  0.1504874E-007  0.1761993E+04  0.7818608E-02  0.8726776E-01
          1   -1    0    0  501    0  0.00000000000E+00  0.00000000000E+00  0.24560062403E+04  0.24560062403E+04  0.00000000000E+00 0. -1.
         -1   -1    0    0    0  501 -0.00000000000E+00 -0.00000000000E+00 -0.31602318993E+03  0.31602318993E+03  0.00000000000E+00 0.  1.
         23    2    1    2    0    0  0.30670506330E+02 -0.18744589119E+03 -0.18037709628E+03  0.27680139644E+03  0.89478903232E+02 0.  0.
        254    2    1    2    0    0 -0.30670506330E+02  0.18744589119E+03  0.23203601467E+04  0.24952280338E+04  0.89778343068E+03 0.  0.
        -24    2    4    4    0    0 -0.30039115146E+03  0.29456405175E+03  0.53787824272E+03  0.68753368893E+03  0.79917113056E+02 0.  0.
         24    2    4    4    0    0  0.26972064513E+03 -0.10711816056E+03  0.17824819040E+04  0.18076943449E+04  0.79332086293E+02 0.  0.
         11    1    3    3    0    0  0.32289015052E+02 -0.16967164477E+03 -0.18979702036E+03  0.25662025732E+03  0.00000000000E+00 0.  1.
        -11    1    3    3    0    0 -0.16185087227E+01 -0.17774246419E+02  0.94199240768E+01  0.20181139112E+02  0.00000000000E+00 0. -1.
          2    1    6    6  502    0  0.26313445879E+03 -0.11766446049E+03  0.17203566020E+04  0.17443369820E+04  0.00000000000E+00 0. -1.
          3    1    5    5  503    0 -0.13945021310E+03  0.18870702351E+03  0.31821327078E+03  0.39536867397E+03  0.00000000000E+00 0. -1.
         -4    1    5    5    0  503 -0.16094093836E+03  0.10585702824E+03  0.21966497194E+03  0.29216501496E+03  0.00000000000E+00 0.  1.
         -1    1    6    6    0  502  0.65861863400E+01  0.10546299926E+02  0.62125301975E+02  0.63357362936E+02  0.00000000000E+00 0.  1.
<mgrwt>
<rscale>  0 0.17619931E+04</rscale>
<asrwt>0</asrwt>
<pdfrwt beam="1">  1        1 0.37784710E+00 0.17619931E+04</pdfrwt>
<pdfrwt beam="2">  1       -1 0.48618954E-01 0.17619931E+04</pdfrwt>
<totfact> 0.58308532E+00</totfact>
</mgrwt>
</event>
<event>
12    1  0.1504874E-007  0.1485990E+04  0.7818608E-02  0.8893823E-01
         -1   -1    0    0    0  501 -0.00000000000E+00  0.00000000000E+00  0.28868648336E+03  0.28868648336E+03  0.00000000000E+00 0.  1.
          1   -1    0    0  501    0  0.00000000000E+00 -0.00000000000E+00 -0.19122541707E+04  0.19122541707E+04  0.00000000000E+00 0. -1.
         23    2    1    2    0    0  0.45152592647E+03  0.54694253053E+02 -0.50779692801E+03  0.68784444053E+03  0.91679499790E+02 0.  0.
        254    2    1    2    0    0 -0.45152592647E+03 -0.54694253053E+02 -0.11157707593E+04  0.15130962135E+04  0.91523146825E+03 0.  0.
        -24    2    4    4    0    0 -0.58929429051E+03 -0.34462678135E+03 -0.68641183009E+03  0.97129809297E+03  0.78888564947E+02 0.  0.
         24    2    4    4    0    0  0.13776836404E+03  0.28993252829E+03 -0.42935892925E+03  0.54179812057E+03  0.78454574370E+02 0.  0.
         11    1    3    3    0    0  0.18774708142E+03  0.13661362764E+02 -0.27726663376E+03  0.33513040091E+03  0.00000000000E+00 0.  1.
        -11    1    3    3    0    0  0.26377884505E+03  0.41032890289E+02 -0.23053029424E+03  0.35271403962E+03  0.00000000000E+00 0. -1.
          4    1    6    6  502    0  0.12684752879E+03  0.21916882989E+03 -0.28912027394E+03  0.38433813804E+03  0.00000000000E+00 0. -1.
          3    1    5    5  503    0 -0.54896632188E+03 -0.33986385625E+03 -0.63287821167E+03  0.90410524507E+03  0.00000000000E+00 0. -1.
         -4    1    5    5    0  503 -0.40327968628E+02 -0.47629250940E+01 -0.53533618414E+02  0.67192847905E+02  0.00000000000E+00 0.  1.
         -3    1    6    6    0  502  0.10920835252E+02  0.70763698404E+02 -0.14023865531E+03  0.15745998253E+03  0.00000000000E+00 0.  1.
<mgrwt>
<rscale>  0 0.14859905E+04</rscale>
<asrwt>0</asrwt>
<pdfrwt beam="1">  1        1 0.29419295E+00 0.14859905E+04</pdfrwt>
<pdfrwt beam="2">  1       -1 0.44413304E-01 0.14859905E+04</pdfrwt>
<totfact> 0.16620958E+01</totfact>
</mgrwt>
</event>
<event>
12    1  0.1504874E-007  0.2648235E+04  0.7818608E-02  0.8351999E-01
         -2   -1    0    0    0  501 -0.00000000000E+00  0.00000000000E+00  0.15835798199E+04  0.15835798199E+04  0.00000000000E+00 0. -1.
          2   -1    0    0  501    0  0.00000000000E+00 -0.00000000000E+00 -0.11071668610E+04  0.11071668610E+04  0.00000000000E+00 0.  1.
         23    2    1    2    0    0  0.23922268395E+03  0.10620816492E+04  0.61445659637E+03  0.12533612602E+04  0.90070070760E+02 0.  0.
        254    2    1    2    0    0 -0.23922268395E+03 -0.10620816492E+04 -0.13804363752E+03  0.14373854207E+04  0.92831884600E+03 0.  0.
        -24    2    4    4    0    0 -0.36970510603E+03 -0.11763035385E+04 -0.81774364271E+02  0.12383455010E+04  0.80253679689E+02 0.  0.
         24    2    4    4    0    0  0.13048242208E+03  0.11422188929E+03 -0.56269273249E+02  0.19903991975E+03  0.79864610915E+02 0.  0.
         13    1    3    3    0    0  0.18598721320E+03  0.88222333888E+03  0.54385712665E+03  0.10529434160E+04  0.00000000000E+00 0. -1.
        -13    1    3    3    0    0  0.53235470752E+02  0.17985831031E+03  0.70599469720E+02  0.20041784416E+03  0.00000000000E+00 0.  1.
          2    1    6    6  502    0  0.10956027444E+03  0.11959853318E+03 -0.29859566695E+02  0.16492075854E+03  0.00000000000E+00 0. -1.
          3    1    5    5  503    0 -0.20897316820E+03 -0.76546875873E+03 -0.76454622735E+02  0.79715589125E+03  0.00000000000E+00 0. -1.
         -4    1    5    5    0  503 -0.16073193783E+03 -0.41083477975E+03 -0.53197415357E+01  0.44118960974E+03  0.00000000000E+00 0.  1.
         -1    1    6    6    0  502  0.20922147632E+02 -0.53766438879E+01 -0.26409706553E+02  0.34119161204E+02  0.00000000000E+00 0.  1.
<mgrwt>
<rscale>  0 0.26482350E+04</rscale>
<asrwt>0</asrwt>
<pdfrwt beam="1">  1        2 0.17033336E+00 0.26482350E+04</pdfrwt>
<pdfrwt beam="2">  1       -2 0.24362766E+00 0.26482350E+04</pdfrwt>
<totfact> 0.13364813E+00</totfact>
</mgrwt>
</event>
<event>
12    1  0.1504874E-007  0.1216279E+04  0.7818608E-02  0.9098725E-01
         -1   -1    0    0    0  501 -0.00000000000E+00  0.00000000000E+00  0.62785477686E+03  0.62785477686E+03  0.00000000000E+00 0.  1.
          1   -1    0    0  501    0  0.00000000000E+00 -0.00000000000E+00 -0.58904361314E+03  0.58904361314E+03  0.00000000000E+00 0. -1.
         23    2    1    2    0    0 -0.14742441309E+03 -0.21081571581E+03 -0.20228753818E+03  0.33985304827E+03  0.91665820839E+02 0.  0.
        254    2    1    2    0    0  0.14742441309E+03  0.21081571581E+03  0.24109870190E+03  0.87704534172E+03  0.80305835639E+03 0.  0.
        -24    2    4    4    0    0 -0.31103415633E+03  0.18792843224E+03  0.15420722998E+03  0.40297970652E+03  0.80953270733E+02 0.  0.
         24    2    4    4    0    0  0.45845856942E+03  0.22887283561E+02  0.86891471923E+02  0.47406563520E+03  0.80498515298E+02 0.  0.
         13    1    3    3    0    0 -0.99764169721E+02 -0.95426673492E+02 -0.59913902362E+02  0.15049523338E+03  0.00000000000E+00 0.  1.
        -13    1    3    3    0    0 -0.47660243371E+02 -0.11538904231E+03 -0.14237363582E+03  0.18935781489E+03  0.00000000000E+00 0. -1.
          2    1    6    6  502    0  0.36278362040E+03  0.46889403611E+02  0.84313355441E+02  0.37539221263E+03  0.00000000000E+00 0. -1.
          1    1    5    5  503    0 -0.29053679087E+03  0.14644744835E+03  0.14284981897E+03  0.35533723807E+03  0.00000000000E+00 0. -1.
         -2    1    5    5    0  503 -0.20497365455E+02  0.41480983896E+02  0.11357411011E+02  0.47642468455E+02  0.00000000000E+00 0.  1.
         -1    1    6    6    0  502  0.95674949020E+02 -0.24002120050E+02  0.25781164825E+01  0.98673422569E+02  0.00000000000E+00 0.  1.
<mgrwt>
<rscale>  0 0.12162793E+04</rscale>
<asrwt>0</asrwt>
<pdfrwt beam="1">  1        1 0.90622094E-01 0.12162793E+04</pdfrwt>
<pdfrwt beam="2">  1       -1 0.96593043E-01 0.12162793E+04</pdfrwt>
<totfact> 0.35880312E+01</totfact>
</mgrwt>
</event>
<event>
12    1  0.1504874E-007  0.1817293E+04  0.7818608E-02  0.8697157E-01
          2   -1    0    0  501    0  0.00000000000E+00  0.00000000000E+00  0.22025124583E+04  0.22025124583E+04  0.00000000000E+00 0. -1.
         -2   -1    0    0    0  501 -0.00000000000E+00 -0.00000000000E+00 -0.37486224931E+03  0.37486224931E+03  0.00000000000E+00 0.  1.
         23    2    1    2    0    0 -0.41744174558E+03  0.21427942595E+03  0.13994097018E+04  0.14789795272E+04  0.94125687216E+02 0.  0.
        254    2    1    2    0    0  0.41744174558E+03 -0.21427942595E+03  0.42824050717E+03  0.10983951804E+04  0.89605176023E+03 0.  0.
        -24    2    4    4    0    0  0.38158793429E+02 -0.46874497507E+03  0.41553182618E+03  0.63277107064E+03  0.80960385976E+02 0.  0.
         24    2    4    4    0    0  0.37928295215E+03  0.25446554912E+03  0.12708680986E+02  0.46562410976E+03  0.89643892926E+02 0.  0.
         11    1    3    3    0    0 -0.32813258758E+03  0.20891675566E+03  0.11498220917E+04  0.12138402071E+04  0.00000000000E+00 0. -1.
        -11    1    3    3    0    0 -0.89309158001E+02  0.53626702961E+01  0.24958761016E+03  0.26513932013E+03  0.00000000000E+00 0.  1.
          2    1    6    6  502    0  0.24274324828E+03  0.20197407431E+03  0.34762593248E+02  0.31768891886E+03  0.00000000000E+00 0. -1.
          1    1    5    5  503    0  0.53510007999E+02 -0.31760684316E+03  0.24710197421E+03  0.40595173781E+03  0.00000000000E+00 0. -1.
         -2    1    5    5    0  503 -0.15351214570E+02 -0.15113813191E+03  0.16842985198E+03  0.22681933282E+03  0.00000000000E+00 0.  1.
         -1    1    6    6    0  502  0.13653970387E+03  0.52491474811E+02 -0.22053912262E+02  0.14793519090E+03  0.00000000000E+00 0.  1.
<mgrwt>
<rscale>  0 0.18172933E+04</rscale>
<asrwt>0</asrwt>
<pdfrwt beam="1">  1        2 0.33884806E+00 0.18172933E+04</pdfrwt>
<pdfrwt beam="2">  1       -2 0.57671116E-01 0.18172933E+04</pdfrwt>
<totfact> 0.13665312E+01</totfact>
</mgrwt>
</event>
<event>
12    1  0.1504874E-007  0.1174235E+04  0.7818608E-02  0.9135712E-01
         -2   -1    0    0    0  501 -0.00000000000E+00  0.00000000000E+00  0.57249993618E+03  0.57249993618E+03  0.00000000000E+00 0.  1.
          2   -1    0    0  501    0  0.00000000000E+00 -0.00000000000E+00 -0.60210873943E+03  0.60210873943E+03  0.00000000000E+00 0. -1.
         23    2    1    2    0    0 -0.11935505361E+02  0.79842128794E+02 -0.22015831392E+03  0.25161306185E+03  0.91226245614E+02 0.  0.
        254    2    1    2    0    0  0.11935505361E+02 -0.79842128794E+02  0.19054951067E+03  0.92299561376E+03  0.89949684001E+03 0.  0.
        -24    2    4    4    0    0  0.69614612458E+02 -0.45247216193E+03 -0.50965936151E+02  0.46744440422E+03  0.79558109548E+02 0.  0.
         24    2    4    4    0    0 -0.57679107097E+02  0.37263003314E+03  0.24151544682E+03  0.45555120955E+03  0.83768564957E+02 0.  0.
         11    1    3    3    0    0  0.35197248669E+02  0.11480607832E+02 -0.49370896481E+02  0.61710097143E+02  0.00000000000E+00 0.  1.
        -11    1    3    3    0    0 -0.47132754029E+02  0.68361520961E+02 -0.17078741744E+03  0.18990296471E+03  0.00000000000E+00 0. -1.
          2    1    6    6  502    0  0.86400792205E+01  0.33752922046E+02  0.49247758606E+02  0.60326216882E+02  0.00000000000E+00 0. -1.
          1    1    5    5  503    0  0.44735359161E+02 -0.93476413679E+02 -0.25301343036E+02  0.10667356858E+03  0.00000000000E+00 0. -1.
         -2    1    5    5    0  503  0.24879253297E+02 -0.35899574825E+03 -0.25664593115E+02  0.36077083564E+03  0.00000000000E+00 0.  1.
         -3    1    6    6    0  502 -0.66319186317E+02  0.33887711109E+03  0.19226768821E+03  0.39522499266E+03  0.00000000000E+00 0.  1.
<mgrwt>
<rscale>  0 0.11742354E+04</rscale>
<asrwt>0</asrwt>
<pdfrwt beam="1">  1        2 0.92632113E-01 0.11742354E+04</pdfrwt>
<pdfrwt beam="2">  1       -2 0.88076914E-01 0.11742354E+04</pdfrwt>
<totfact> 0.54241874E+01</totfact>
</mgrwt>
</event>
<event>
12    1  0.1504874E-007  0.1428058E+04  0.7818608E-02  0.8933755E-01
          2   -1    0    0  501    0  0.00000000000E+00  0.00000000000E+00  0.99258253323E+03  0.99258253323E+03  0.00000000000E+00 0. -1.
         -2   -1    0    0    0  501 -0.00000000000E+00 -0.00000000000E+00 -0.51364771951E+03  0.51364771951E+03  0.00000000000E+00 0.  1.
         23    2    1    2    0    0  0.38343131197E+03 -0.75505166312E+02 -0.75398328074E+01  0.40227886322E+03  0.95135869056E+02 0.  0.
        254    2    1    2    0    0 -0.38343131197E+03  0.75505166312E+02  0.48647464653E+03  0.11039513895E+04  0.91067584109E+03 0.  0.
        -24    2    4    4    0    0  0.23295929428E+03  0.18361528964E+03  0.33648484551E+03  0.45550249249E+03  0.79220338441E+02 0.  0.
         24    2    4    4    0    0 -0.61639060624E+03 -0.10811012333E+03  0.14998980102E+03  0.64844889702E+03  0.79773763906E+02 0.  0.
         11    1    3    3    0    0  0.29988003921E+03 -0.88803096621E+02 -0.31537249129E+02  0.31433839404E+03  0.00000000000E+00 0.  1.
        -11    1    3    3    0    0  0.83551272761E+02  0.13297930309E+02  0.23997416322E+02  0.87940469186E+02  0.00000000000E+00 0. -1.
          2    1    6    6  502    0 -0.59517925030E+03 -0.10298193198E+03  0.12793560685E+03  0.61742298127E+03  0.00000000000E+00 0. -1.
          1    1    5    5  503    0  0.14539956925E+03  0.80337331259E+02  0.22747990099E+03  0.28167752286E+03  0.00000000000E+00 0. -1.
         -2    1    5    5    0  503  0.87559725027E+02  0.10327795839E+03  0.10900494452E+03  0.17382496963E+03  0.00000000000E+00 0.  1.
         -1    1    6    6    0  502 -0.21211355941E+02 -0.51281913522E+01  0.22054194175E+02  0.31025915750E+02  0.00000000000E+00 0.  1.
<mgrwt>
<rscale>  0 0.14280585E+04</rscale>
<asrwt>0</asrwt>
<pdfrwt beam="1">  1        2 0.15270501E+00 0.14280585E+04</pdfrwt>
<pdfrwt beam="2">  1       -2 0.79022726E-01 0.14280585E+04</pdfrwt>
<totfact> 0.35161521E+01</totfact>
</mgrwt>
</event>
<event>
12    1  0.1504874E-007  0.2541840E+04  0.7818608E-02  0.8388230E-01
          1   -1    0    0  501    0  0.00000000000E+00  0.00000000000E+00  0.22228723891E+04  0.22228723891E+04  0.00000000000E+00 0.  1.
         -1   -1    0    0    0  501 -0.00000000000E+00 -0.00000000000E+00 -0.72664445114E+03  0.72664445114E+03  0.00000000000E+00 0. -1.
         23    2    1    2    0    0 -0.86776001037E+02 -0.10220990857E+04  0.11414537954E+04  0.15373578428E+04  0.91300353156E+02 0.  0.
        254    2    1    2    0    0  0.86776001037E+02  0.10220990857E+04  0.35477414253E+03  0.14121589974E+04  0.90338902281E+03 0.  0.
        -24    2    4    4    0    0  0.11671183865E+02  0.11485429312E+04  0.42829068328E+03  0.12284373906E+04  0.79614269309E+02 0.  0.
         24    2    4    4    0    0  0.75104817172E+02 -0.12644384550E+03 -0.73516540753E+02  0.18372160687E+03  0.81976627405E+02 0.  0.
         13    1    3    3    0    0 -0.83944513258E+01 -0.51233111966E+01  0.11371261203E+02  0.15033985234E+02  0.00000000000E+00 0.  1.
        -13    1    3    3    0    0 -0.78381549711E+02 -0.10169757745E+04  0.11300825342E+04  0.15223238576E+04  0.00000000000E+00 0. -1.
          4    1    6    6  502    0  0.80337568967E+02 -0.12688867384E+03 -0.83940828952E+02  0.17204918861E+03  0.00000000000E+00 0. -1.
          1    1    5    5  503    0 -0.28129548077E+02  0.75394994055E+03  0.26762513669E+03  0.80053419547E+03  0.00000000000E+00 0. -1.
         -2    1    5    5    0  503  0.39800731942E+02  0.39459299061E+03  0.16066554659E+03  0.42790319509E+03  0.00000000000E+00 0.  1.
         -3    1    6    6    0  502 -0.52327517948E+01  0.44482834343E+00  0.10424288199E+02  0.11672418261E+02  0.00000000000E+00 0.  1.
<mgrwt>
<rscale>  0 0.25418402E+04</rscale>
<asrwt>0</asrwt>
<pdfrwt beam="1">  1        1 0.34198036E+00 0.25418402E+04</pdfrwt>
<pdfrwt beam="2">  1       -1 0.11179146E+00 0.25418402E+04</pdfrwt>
<totfact> 0.13659497E+00</totfact>
</mgrwt>
</event>
<event>
12    1  0.1504874E-007  0.1780820E+04  0.7818608E-02  0.8716566E-01
          2   -1    0    0  501    0  0.00000000000E+00  0.00000000000E+00  0.25763847779E+04  0.25763847779E+04  0.00000000000E+00 0. -1.
         -2   -1    0    0    0  501 -0.00000000000E+00 -0.00000000000E+00 -0.30772951374E+03  0.30772951374E+03  0.00000000000E+00 0.  1.
         23    2    1    2    0    0  0.62631319429E+03 -0.15955039207E+03  0.99569019224E+03  0.11905152818E+04  0.90571145202E+02 0.  0.
        254    2    1    2    0    0 -0.62631319429E+03  0.15955039207E+03  0.12729650719E+04  0.16935990098E+04  0.91110536537E+03 0.  0.
        -24    2    4    4    0    0 -0.65821885975E+03  0.45665836673E+03  0.94082412432E+03  0.12382733193E+04  0.79886476374E+02 0.  0.
         24    2    4    4    0    0  0.31905665457E+02 -0.29710797466E+03  0.33214094760E+03  0.45532569055E+03  0.87822293912E+02 0.  0.
         11    1    3    3    0    0  0.47831333924E+03 -0.15791997859E+03  0.79520514579E+03  0.94131482195E+03  0.00000000000E+00 0. -1.
        -11    1    3    3    0    0  0.14799985506E+03 -0.16304134823E+01  0.20048504645E+03  0.24920045986E+03  0.00000000000E+00 0.  1.
          4    1    6    6  502    0  0.20296321191E+02 -0.10912588767E+02  0.12844729601E+02  0.26382045524E+02  0.00000000000E+00 0. -1.
          3    1    5    5  503    0 -0.49815609646E+03  0.30913868474E+03  0.65627446524E+03  0.88001272523E+03  0.00000000000E+00 0. -1.
         -4    1    5    5    0  503 -0.16006276329E+03  0.14751968199E+03  0.28454965908E+03  0.35826059405E+03  0.00000000000E+00 0.  1.
         -3    1    6    6    0  502  0.11609344266E+02 -0.28619538589E+03  0.31929621800E+03  0.42894364503E+03  0.00000000000E+00 0.  1.
<mgrwt>
<rscale>  0 0.17808196E+04</rscale>
<asrwt>0</asrwt>
<pdfrwt beam="1">  1        2 0.39636688E+00 0.17808196E+04</pdfrwt>
<pdfrwt beam="2">  1       -2 0.47343004E-01 0.17808196E+04</pdfrwt>
<totfact> 0.12581334E+01</totfact>
</mgrwt>
</event>
<event>
12    1  0.1504874E-007  0.1695212E+04  0.7818608E-02  0.8764100E-01
         -2   -1    0    0    0  501 -0.00000000000E+00  0.00000000000E+00  0.52967238221E+03  0.52967238221E+03  0.00000000000E+00 0.  1.
          2   -1    0    0  501    0  0.00000000000E+00 -0.00000000000E+00 -0.13563785489E+04  0.13563785489E+04  0.00000000000E+00 0. -1.
         23    2    1    2    0    0 -0.34538970605E+03 -0.23756500079E+03  0.18347631652E+03  0.46642337583E+03  0.90310731104E+02 0.  0.
        254    2    1    2    0    0  0.34538970605E+03  0.23756500079E+03 -0.10101824832E+04  0.14196275553E+04  0.90506495222E+03 0.  0.
        -24    2    4    4    0    0  0.41465111043E+03 -0.81553401572E+02 -0.89695764446E+02  0.43954442444E+03  0.81039929750E+02 0.  0.
         24    2    4    4    0    0 -0.69261404383E+02  0.31911840236E+03 -0.92048671879E+03  0.98008313087E+03  0.81445976540E+02 0.  0.
         11    1    3    3    0    0 -0.28758538019E+03 -0.20935542574E+03  0.11835023003E+03  0.37488907978E+03  0.00000000000E+00 0.  1.
        -11    1    3    3    0    0 -0.57804325853E+02 -0.28209575044E+02  0.65126086492E+02  0.91534296050E+02  0.00000000000E+00 0. -1.
          2    1    6    6  502    0 -0.81538975820E+02  0.30610557738E+03 -0.89048351382E+03  0.94515084377E+03  0.00000000000E+00 0. -1.
          3    1    5    5  503    0  0.33129300669E+03 -0.33968925119E+02 -0.55334733454E+02  0.33759572995E+03  0.00000000000E+00 0. -1.
         -4    1    5    5    0  503  0.83358103741E+02 -0.47584476452E+02 -0.34361030992E+02  0.10194869450E+03  0.00000000000E+00 0.  1.
         -1    1    6    6    0  502  0.12277571437E+02  0.13012824974E+02 -0.30003204964E+02  0.34932287104E+02  0.00000000000E+00 0.  1.
<mgrwt>
<rscale>  0 0.16952124E+04</rscale>
<asrwt>0</asrwt>
<pdfrwt beam="1">  1        2 0.20867362E+00 0.16952124E+04</pdfrwt>
<pdfrwt beam="2">  1       -2 0.81488061E-01 0.16952124E+04</pdfrwt>
<totfact> 0.19352814E+01</totfact>
</mgrwt>
</event>
<event>
12    1  0.1504874E-007  0.1558451E+04  0.7818608E-02  0.8846488E-01
          2   -1    0    0  501    0  0.00000000000E+00  0.00000000000E+00  0.39169599138E+03  0.39169599138E+03  0.00000000000E+00 0. -1.
         -2   -1    0    0    0  501 -0.00000000000E+00 -0.00000000000E+00 -0.15501624769E+04  0.15501624769E+04  0.00000000000E+00 0.  1.
         23    2    1    2    0    0  0.59466350191E+02  0.25318799299E+03 -0.94219137387E+03  0.98153862230E+03  0.89738929465E+02 0.  0.
        254    2    1    2    0    0 -0.59466350191E+02 -0.25318799299E+03 -0.21627511164E+03  0.96031984597E+03  0.89877632148E+03 0.  0.
        -24    2    4    4    0    0 -0.39811310181E+03 -0.38864405205E+03 -0.12613469390E+03  0.57612133203E+03  0.80421310509E+02 0.  0.
         24    2    4    4    0    0  0.33864675162E+03  0.13545605906E+03 -0.90140417735E+02  0.38419851394E+03  0.80332041460E+02 0.  0.
         11    1    3    3    0    0  0.98554592477E+01 -0.38140347269E+01 -0.16846638960E+02  0.19886834392E+02  0.00000000000E+00 0. -1.
        -11    1    3    3    0    0  0.49610890943E+02  0.25700202772E+03 -0.92534473491E+03  0.96165178790E+03  0.00000000000E+00 0.  1.
          2    1    6    6  502    0  0.17892733091E+03  0.46726870123E+02 -0.79159647944E+02  0.20115824617E+03  0.00000000000E+00 0. -1.
          3    1    5    5  503    0 -0.35269634582E+03 -0.36533391325E+03 -0.95864972789E+02  0.51677236143E+03  0.00000000000E+00 0. -1.
         -4    1    5    5    0  503 -0.45416755987E+02 -0.23310138807E+02 -0.30269721111E+02  0.59348970603E+02  0.00000000000E+00 0.  1.
         -1    1    6    6    0  502  0.15971942071E+03  0.88729188937E+02 -0.10980769791E+02  0.18304026777E+03  0.00000000000E+00 0.  1.
<mgrwt>
<rscale>  0 0.15584511E+04</rscale>
<asrwt>0</asrwt>
<pdfrwt beam="1">  1        2 0.60260921E-01 0.15584511E+04</pdfrwt>
<pdfrwt beam="2">  1       -2 0.23848654E+00 0.15584511E+04</pdfrwt>
<totfact> 0.59285240E+00</totfact>
</mgrwt>
</event>
<event>
12    1  0.1504874E-007  0.1467461E+04  0.7818608E-02  0.8906384E-01
         -1   -1    0    0    0  501 -0.00000000000E+00  0.00000000000E+00  0.52252482052E+03  0.52252482052E+03  0.00000000000E+00 0.  1.
          1   -1    0    0  501    0  0.00000000000E+00 -0.00000000000E+00 -0.10303061511E+04  0.10303061511E+04  0.00000000000E+00 0. -1.
         23    2    1    2    0    0 -0.10181717525E+03 -0.21910973013E+03  0.16705519934E+03  0.30670535164E+03  0.88232205487E+02 0.  0.
        254    2    1    2    0    0  0.10181717525E+03  0.21910973013E+03 -0.67483652989E+03  0.12461256199E+04  0.10193374846E+04 0.  0.
        -24    2    4    4    0    0 -0.25649361824E+03  0.35523648431E+03 -0.72502953488E+03  0.85103926528E+03  0.81351512701E+02 0.  0.
         24    2    4    4    0    0  0.35831079350E+03 -0.13612675418E+03  0.50193004993E+02  0.39508635466E+03  0.81589043052E+02 0.  0.
         13    1    3    3    0    0 -0.12214504834E+02 -0.19956766329E+02 -0.10118141054E+02  0.25492026774E+02  0.00000000000E+00 0. -1.
        -13    1    3    3    0    0 -0.89602670420E+02 -0.19915296380E+03  0.17717334040E+03  0.28121332487E+03  0.00000000000E+00 0.  1.
          4    1    6    6  502    0  0.32364986459E+03 -0.13974556983E+03  0.27719410862E+02  0.35361903919E+03  0.00000000000E+00 0. -1.
          3    1    5    5  503    0 -0.14712791091E+03  0.22467341277E+03 -0.36915335264E+03  0.45650735190E+03  0.00000000000E+00 0. -1.
         -4    1    5    5    0  503 -0.10936570733E+03  0.13056307154E+03 -0.35587618224E+03  0.39453191339E+03  0.00000000000E+00 0.  1.
         -3    1    6    6    0  502  0.34660928903E+02  0.36188156442E+01  0.22473594132E+02  0.41467315470E+02  0.00000000000E+00 0.  1.
<mgrwt>
<rscale>  0 0.14674611E+04</rscale>
<asrwt>0</asrwt>
<pdfrwt beam="1">  1        1 0.15850864E+00 0.14674611E+04</pdfrwt>
<pdfrwt beam="2">  1       -1 0.80388434E-01 0.14674611E+04</pdfrwt>
<totfact> 0.21463588E+01</totfact>
</mgrwt>
</event>
<event>
12    1  0.1504874E-007  0.1697747E+04  0.7818608E-02  0.8762650E-01
          2   -1    0    0  501    0  0.00000000000E+00  0.00000000000E+00  0.29557476857E+04  0.29557476857E+04  0.00000000000E+00 0. -1.
         -2   -1    0    0    0  501 -0.00000000000E+00 -0.00000000000E+00 -0.24379152481E+03  0.24379152481E+03  0.00000000000E+00 0.  1.
         23    2    1    2    0    0  0.17632221267E+03  0.21478277327E+03 -0.35069005483E+02  0.29512992714E+03  0.93009012331E+02 0.  0.
        254    2    1    2    0    0 -0.17632221267E+03 -0.21478277327E+03  0.27470251664E+04  0.29044092834E+04  0.90123518473E+03 0.  0.
        -24    2    4    4    0    0 -0.23625755012E+03 -0.16405102788E+03  0.21118830776E+03  0.36611987523E+03  0.81932240115E+02 0.  0.
         24    2    4    4    0    0  0.59935337456E+02 -0.50731745392E+02  0.25358368586E+04  0.25382894081E+04  0.79237561861E+02 0.  0.
         11    1    3    3    0    0  0.11993053463E+03  0.20114485968E+03 -0.36950268760E+02  0.23708207455E+03  0.00000000000E+00 0.  1.
        -11    1    3    3    0    0  0.56391678034E+02  0.13637913591E+02  0.18812632761E+01  0.58047852588E+02  0.00000000000E+00 0. -1.
          2    1    6    6  502    0 -0.51915124304E+00 -0.80987049477E+01  0.23464958605E+02  0.24828669360E+02  0.00000000000E+00 0. -1.
          1    1    5    5  503    0 -0.47047589838E+02 -0.50530688425E+02  0.92945116890E+02  0.11578264523E+03  0.00000000000E+00 0. -1.
         -2    1    5    5    0  503 -0.18920996029E+03 -0.11352033945E+03  0.11824319087E+03  0.25033723001E+03  0.00000000000E+00 0.  1.
         -1    1    6    6    0  502  0.60454488699E+02 -0.42633040444E+02  0.25123719000E+04  0.25134607388E+04  0.00000000000E+00 0.  1.
<mgrwt>
<rscale>  0 0.16977470E+04</rscale>
<asrwt>0</asrwt>
<pdfrwt beam="1">  1        2 0.45473039E+00 0.16977470E+04</pdfrwt>
<pdfrwt beam="2">  1       -2 0.37506390E-01 0.16977470E+04</pdfrwt>
<totfact> 0.11894476E+01</totfact>
</mgrwt>
</event>
<event>
12    1  0.1781523E-007  0.1414425E+04  0.7818608E-02  0.8943443E-01
          2   -1    0    0  501    0  0.00000000000E+00  0.00000000000E+00  0.12358705640E+04  0.12358705640E+04  0.00000000000E+00 0. -1.
         -2   -1    0    0    0  501 -0.00000000000E+00 -0.00000000000E+00 -0.40469414381E+03  0.40469414381E+03  0.00000000000E+00 0.  1.
         23    2    1    2    0    0  0.40849004299E+03 -0.21488891621E+01  0.22635882875E+03  0.48176491632E+03  0.11828094647E+03 0.  0.
        254    2    1    2    0    0 -0.40849004299E+03  0.21488891621E+01  0.60481759141E+03  0.11587997915E+04  0.90007994360E+03 0.  0.
        -24    2    4    4    0    0  0.98207233380E+02  0.12898092273E+03  0.60369786684E+03  0.63031242710E+03  0.81005569088E+02 0.  0.
         24    2    4    4    0    0 -0.50669727637E+03 -0.12683203357E+03  0.11197245747E+01  0.52848736436E+03  0.80431000787E+02 0.  0.
         13    1    3    3    0    0  0.41063706121E+03 -0.15921646848E+02  0.22243904639E+03  0.46728516372E+03  0.00000000000E+00 0. -1.
        -13    1    3    3    0    0 -0.21470182212E+01  0.13772757685E+02  0.39197823603E+01  0.14479752596E+02  0.00000000000E+00 0.  1.
          2    1    6    6  502    0 -0.43343195784E+03 -0.13386813372E+03  0.13581702455E+02  0.45383741796E+03  0.00000000000E+00 0. -1.
          3    1    5    5  503    0  0.86193522663E+02  0.10707246286E+03  0.36019791204E+03  0.38553387852E+03  0.00000000000E+00 0. -1.
         -4    1    5    5    0  503  0.12013710717E+02  0.21908459868E+02  0.24349995480E+03  0.24477854858E+03  0.00000000000E+00 0.  1.
         -1    1    6    6    0  502 -0.73265318533E+02  0.70361001504E+01 -0.12461977880E+02  0.74649946402E+02  0.00000000000E+00 0.  1.
<mgrwt>
<rscale>  0 0.14144251E+04</rscale>
<asrwt>0</asrwt>
<pdfrwt beam="1">  1        2 0.19013393E+00 0.14144251E+04</pdfrwt>
<pdfrwt beam="2">  1       -2 0.62260638E-01 0.14144251E+04</pdfrwt>
<totfact> 0.41974309E+01</totfact>
</mgrwt>
</event>
<event>
12    1  0.1504874E-007  0.1765519E+04  0.7818608E-02  0.8724854E-01
         -2   -1    0    0    0  501 -0.00000000000E+00  0.00000000000E+00  0.43553382634E+03  0.43553382634E+03  0.00000000000E+00 0.  1.
          2   -1    0    0  501    0  0.00000000000E+00 -0.00000000000E+00 -0.17892168868E+04  0.17892168868E+04  0.00000000000E+00 0. -1.
         23    2    1    2    0    0  0.53993967398E+03  0.50795380752E+01 -0.70171171366E+03  0.89007303670E+03  0.90939696144E+02 0.  0.
        254    2    1    2    0    0 -0.53993967398E+03 -0.50795380752E+01 -0.65197134677E+03  0.13346776764E+04  0.10318610418E+04 0.  0.
        -24    2    4    4    0    0  0.54596441032E+02  0.41281513424E+03 -0.32561552053E+03  0.53448759624E+03  0.79084871498E+02 0.  0.
         24    2    4    4    0    0 -0.59453611502E+03 -0.41789467231E+03 -0.32635582624E+03  0.80019008016E+03  0.75411470400E+02 0.  0.
         13    1    3    3    0    0  0.40446170674E+03 -0.17768219105E+01 -0.58449909856E+03  0.71079647264E+03  0.00000000000E+00 0. -1.
        -13    1    3    3    0    0  0.13547796725E+03  0.68563599857E+01 -0.11721261510E+03  0.17927656406E+03  0.00000000000E+00 0.  1.
          2    1    6    6  502    0 -0.32759252912E+03 -0.27118948214E+03 -0.20781267751E+03  0.47333572577E+03  0.00000000000E+00 0. -1.
          1    1    5    5  503    0 -0.98852177463E+01  0.22278410877E+02 -0.44895811919E+01  0.24783088193E+02  0.00000000000E+00 0. -1.
         -4    1    5    5    0  503  0.64481658778E+02  0.39053672336E+03 -0.32112593934E+03  0.50970450805E+03  0.00000000000E+00 0.  1.
         -1    1    6    6    0  502 -0.26694358590E+03 -0.14670519018E+03 -0.11854314873E+03  0.32685435439E+03  0.00000000000E+00 0.  1.
<mgrwt>
<rscale>  0 0.17655192E+04</rscale>
<asrwt>0</asrwt>
<pdfrwt beam="1">  1        2 0.27526414E+00 0.17655192E+04</pdfrwt>
<pdfrwt beam="2">  1       -2 0.67005203E-01 0.17655192E+04</pdfrwt>
<totfact> 0.16930729E+01</totfact>
</mgrwt>
</event>
<event>
12    1  0.1504874E-007  0.2128435E+04  0.7818608E-02  0.8548820E-01
         -1   -1    0    0    0  501 -0.00000000000E+00  0.00000000000E+00  0.94817349424E+03  0.94817349424E+03  0.00000000000E+00 0.  1.
          1   -1    0    0  501    0  0.00000000000E+00 -0.00000000000E+00 -0.11944635394E+04  0.11944635394E+04  0.00000000000E+00 0. -1.
         23    2    1    2    0    0 -0.27314858325E+03  0.50242017043E+03 -0.73257397403E+03  0.93379004080E+03  0.90901246849E+02 0.  0.
        254    2    1    2    0    0  0.27314858325E+03 -0.50242017043E+03  0.48628392892E+03  0.12088469928E+04  0.94752457293E+03 0.  0.
        -24    2    4    4    0    0  0.32306401782E+03  0.20405156801E+03  0.12311640467E+03  0.40923341613E+03  0.79416231117E+02 0.  0.
         24    2    4    4    0    0 -0.49915434569E+02 -0.70647173844E+03  0.36316752424E+03  0.79961357667E+03  0.76794228362E+02 0.  0.
         11    1    3    3    0    0 -0.22962713093E+03  0.35471691785E+03 -0.49694052058E+03  0.65230559714E+03  0.00000000000E+00 0.  1.
        -11    1    3    3    0    0 -0.43521452320E+02  0.14770325258E+03 -0.23563345346E+03  0.28148444366E+03  0.00000000000E+00 0. -1.
          2    1    6    6  502    0 -0.60016433850E+02 -0.61515408361E+03  0.33751446161E+03  0.70422477286E+03  0.00000000000E+00 0. -1.
          1    1    5    5  503    0  0.17396326574E+03  0.72717688188E+02  0.34531588926E+02  0.19168596880E+03  0.00000000000E+00 0. -1.
         -2    1    5    5    0  503  0.14910075208E+03  0.13133387982E+03  0.88584815748E+02  0.21754744733E+03  0.00000000000E+00 0.  1.
         -1    1    6    6    0  502  0.10100999280E+02 -0.91317654831E+02  0.25653062634E+02  0.95388803812E+02  0.00000000000E+00 0.  1.
<mgrwt>
<rscale>  0 0.21284348E+04</rscale>
<asrwt>0</asrwt>
<pdfrwt beam="1">  1        1 0.18376362E+00 0.21284348E+04</pdfrwt>
<pdfrwt beam="2">  1       -1 0.14587285E+00 0.21284348E+04</pdfrwt>
<totfact> 0.37211300E+00</totfact>
</mgrwt>
</event>
<event>
12    1  0.1504874E-007  0.1698373E+04  0.7818608E-02  0.8762293E-01
          1   -1    0    0  501    0  0.00000000000E+00  0.00000000000E+00  0.96933633391E+03  0.96933633391E+03  0.00000000000E+00 0. -1.
         -1   -1    0    0    0  501 -0.00000000000E+00 -0.00000000000E+00 -0.74392972830E+03  0.74392972830E+03  0.00000000000E+00 0.  1.
         23    2    1    2    0    0  0.17200097167E+03  0.76487225001E+02  0.66630886294E+03  0.69854514219E+03  0.92537478904E+02 0.  0.
        254    2    1    2    0    0 -0.17200097167E+03 -0.76487225001E+02 -0.44090225733E+03  0.10147209200E+04  0.89433165837E+03 0.  0.
        -24    2    4    4    0    0 -0.38063117370E+03  0.22048545604E+03 -0.12442562638E+02  0.44727404003E+03  0.80033260574E+02 0.  0.
         24    2    4    4    0    0  0.20863020204E+03 -0.29697268104E+03 -0.42845969469E+03  0.56744687999E+03  0.81846912901E+02 0.  0.
         11    1    3    3    0    0 -0.90743753334E+01  0.16043591523E+02  0.72471554045E+02  0.74778788853E+02  0.00000000000E+00 0.  1.
        -11    1    3    3    0    0  0.18107534700E+03  0.60443633478E+02  0.59383730889E+03  0.62376635334E+03  0.00000000000E+00 0. -1.
          4    1    6    6  502    0  0.28087241230E+01 -0.30564484467E+01  0.38265494806E+01  0.56456433853E+01  0.00000000000E+00 0. -1.
          3    1    5    5  503    0 -0.30517671031E+03  0.17479941606E+03 -0.42124357809E+02  0.35420632673E+03  0.00000000000E+00 0. -1.
         -4    1    5    5    0  503 -0.75454463388E+02  0.45686039987E+02  0.29681795171E+02  0.93067713303E+02  0.00000000000E+00 0.  1.
         -3    1    6    6    0  502  0.20582147791E+03 -0.29391623260E+03 -0.43228624417E+03  0.56180123660E+03  0.00000000000E+00 0.  1.
<mgrwt>
<rscale>  0 0.16983735E+04</rscale>
<asrwt>0</asrwt>
<pdfrwt beam="1">  1        1 0.14912867E+00 0.16983735E+04</pdfrwt>
<pdfrwt beam="2">  1       -1 0.11445073E+00 0.16983735E+04</pdfrwt>
<totfact> 0.10573462E+01</totfact>
</mgrwt>
</event>
<event>
12    1  0.1504874E-007  0.1805524E+04  0.7818608E-02  0.8703368E-01
         -2   -1    0    0    0  501 -0.00000000000E+00  0.00000000000E+00  0.45804310852E+03  0.45804310852E+03  0.00000000000E+00 0.  1.
          2   -1    0    0  501    0  0.00000000000E+00 -0.00000000000E+00 -0.17792623142E+04  0.17792623142E+04  0.00000000000E+00 0. -1.
         23    2    1    2    0    0 -0.34921203636E+03  0.38396269194E+03 -0.10309000044E+04  0.11577979741E+04  0.91460016094E+02 0.  0.
        254    2    1    2    0    0  0.34921203636E+03 -0.38396269194E+03 -0.29031920127E+03  0.10795074486E+04  0.90092990732E+03 0.  0.
        -24    2    4    4    0    0  0.41150063771E+03 -0.86728434933E+02 -0.53113466452E+03  0.68343999638E+03  0.90175387615E+02 0.  0.
         24    2    4    4    0    0 -0.62288601359E+02 -0.29723425700E+03  0.24081546325E+03  0.39606745226E+03  0.81543031588E+02 0.  0.
         13    1    3    3    0    0 -0.10144040424E+03  0.17665237860E+03 -0.38159115934E+03  0.43255985871E+03  0.00000000000E+00 0.  1.
        -13    1    3    3    0    0 -0.24777163211E+03  0.20731031333E+03 -0.64930884505E+03  0.72523811535E+03  0.00000000000E+00 0. -1.
          2    1    6    6  502    0 -0.60099884915E+02 -0.14993093437E+03  0.16292152337E+03  0.22942254471E+03  0.00000000000E+00 0. -1.
          1    1    5    5  503    0  0.57339796791E+02 -0.23835238279E+01 -0.32219030359E+02  0.65814887367E+02  0.00000000000E+00 0. -1.
         -2    1    5    5    0  503  0.35416084092E+03 -0.84344911105E+02 -0.49891563416E+03  0.61762510901E+03  0.00000000000E+00 0.  1.
         -1    1    6    6    0  502 -0.21887164444E+01 -0.14730332264E+03  0.77893939889E+02  0.16664490755E+03  0.00000000000E+00 0.  1.
<mgrwt>
<rscale>  0 0.18055236E+04</rscale>
<asrwt>0</asrwt>
<pdfrwt beam="1">  1        2 0.27373267E+00 0.18055236E+04</pdfrwt>
<pdfrwt beam="2">  1       -2 0.70468169E-01 0.18055236E+04</pdfrwt>
<totfact> 0.15316437E+01</totfact>
</mgrwt>
</event>
<event>
12    1  0.1504874E-007  0.1243470E+04  0.7818608E-02  0.9075636E-01
          1   -1    0    0  501    0  0.00000000000E+00  0.00000000000E+00  0.18869824498E+04  0.18869824498E+04  0.00000000000E+00 0. -1.
         -1   -1    0    0    0  501 -0.00000000000E+00 -0.00000000000E+00 -0.20485322035E+03  0.20485322035E+03  0.00000000000E+00 0.  1.
         23    2    1    2    0    0  0.10641965266E+03  0.10447407705E+03 -0.11425152286E+02  0.17565121967E+03  0.92102343179E+02 0.  0.
        254    2    1    2    0    0 -0.10641965266E+03 -0.10447407705E+03  0.16935543817E+04  0.19161844505E+04  0.88396630541E+03 0.  0.
        -24    2    4    4    0    0  0.11066578490E+03  0.10060571555E+02  0.16485516166E+04  0.16542156093E+04  0.79741573316E+02 0.  0.
         24    2    4    4    0    0 -0.21708543756E+03 -0.11453464860E+03  0.45002765177E+02  0.26196884118E+03  0.79738020708E+02 0.  0.
         13    1    3    3    0    0  0.31446363880E+02  0.23308782850E+02 -0.45502632201E+02  0.60022185036E+02  0.00000000000E+00 0.  1.
        -13    1    3    3    0    0  0.74973288784E+02  0.81165294195E+02  0.34077479915E+02  0.11562903463E+03  0.00000000000E+00 0. -1.
          4    1    6    6  502    0 -0.51623549713E+02  0.77511471264E+01  0.58290751393E+01  0.52526653079E+02  0.00000000000E+00 0. -1.
          3    1    5    5  503    0  0.92123139846E+02 -0.24654838103E+02  0.12869256257E+04  0.12904542224E+04  0.00000000000E+00 0. -1.
         -4    1    5    5    0  503  0.18542645051E+02  0.34715409658E+02  0.36162599087E+03  0.36376138694E+03  0.00000000000E+00 0.  1.
         -3    1    6    6    0  502 -0.16546188785E+03 -0.12228579573E+03  0.39173690038E+02  0.20944218810E+03  0.00000000000E+00 0.  1.
<mgrwt>
<rscale>  0 0.12434700E+04</rscale>
<asrwt>0</asrwt>
<pdfrwt beam="1">  1        1 0.29030498E+00 0.12434700E+04</pdfrwt>
<pdfrwt beam="2">  1       -1 0.31515881E-01 0.12434700E+04</pdfrwt>
<totfact> 0.32848976E+01</totfact>
</mgrwt>
</event>
<event>
12    1  0.1566298E-007  0.1751336E+04  0.7818608E-02  0.8732615E-01
          2   -1    0    0  501    0  0.00000000000E+00  0.00000000000E+00  0.17769417898E+04  0.17769417898E+04  0.00000000000E+00 0. -1.
         -2   -1    0    0    0  501 -0.00000000000E+00 -0.00000000000E+00 -0.43152497166E+03  0.43152497166E+03  0.00000000000E+00 0.  1.
         23    2    1    2    0    0  0.32165433607E+03 -0.40426596680E+03  0.96901920402E+03  0.11020049650E+04  0.92326818256E+02 0.  0.
        254    2    1    2    0    0 -0.32165433607E+03  0.40426596680E+03  0.37639761416E+03  0.11064617965E+04  0.90315561187E+03 0.  0.
        -24    2    4    4    0    0 -0.55786025576E+03  0.23707187577E+03 -0.15615549546E+02  0.61279563653E+03  0.88676420363E+02 0.  0.
         24    2    4    4    0    0  0.23620591969E+03  0.16719409103E+03  0.39201316371E+03  0.49366615993E+03  0.79277085995E+02 0.  0.
         13    1    3    3    0    0  0.99619265199E+02 -0.80587032408E+02  0.30212257733E+03  0.32817117412E+03  0.00000000000E+00 0.  1.
        -13    1    3    3    0    0  0.22203507087E+03 -0.32367893439E+03  0.66689662670E+03  0.77383379092E+03  0.00000000000E+00 0. -1.
          4    1    6    6  502    0  0.24239208149E+03  0.16189263986E+03  0.38513962867E+03  0.48300691670E+03  0.00000000000E+00 0. -1.
          3    1    5    5  503    0 -0.53659883453E+03  0.21548567530E+03 -0.30469706939E+02  0.57905162854E+03  0.00000000000E+00 0. -1.
         -4    1    5    5    0  503 -0.21261421237E+02  0.21586200468E+02  0.14854157393E+02  0.33744007994E+02  0.00000000000E+00 0.  1.
         -3    1    6    6    0  502 -0.61861617950E+01  0.53014511700E+01  0.68735350431E+01  0.10659243231E+02  0.00000000000E+00 0.  1.
<mgrwt>
<rscale>  0 0.17513364E+04</rscale>
<asrwt>0</asrwt>
<pdfrwt beam="1">  1        2 0.27337566E+00 0.17513364E+04</pdfrwt>
<pdfrwt beam="2">  1       -2 0.66388458E-01 0.17513364E+04</pdfrwt>
<totfact> 0.17565919E+01</totfact>
</mgrwt>
</event>
<event>
12    1  0.1504874E-007  0.1921886E+04  0.7818608E-02  0.8644038E-01
          2   -1    0    0  501    0  0.00000000000E+00  0.00000000000E+00  0.13967025339E+04  0.13967025339E+04  0.00000000000E+00 0. -1.
         -2   -1    0    0    0  501 -0.00000000000E+00 -0.00000000000E+00 -0.66113690284E+03  0.66113690284E+03  0.00000000000E+00 0.  1.
         23    2    1    2    0    0 -0.61598803971E+02 -0.63257970061E+03  0.72301790072E+03  0.96694156293E+03  0.90937402072E+02 0.  0.
        254    2    1    2    0    0  0.61598803971E+02  0.63257970061E+03  0.12547730292E+02  0.10908978738E+04  0.88653777989E+03 0.  0.
        -24    2    4    4    0    0 -0.14035589175E+03 -0.83770763806E+02  0.24601769453E+03  0.30657265647E+03  0.82126551484E+02 0.  0.
         24    2    4    4    0    0  0.20195469572E+03  0.71635046441E+03 -0.23346996423E+03  0.78432521729E+03  0.81939827206E+02 0.  0.
         11    1    3    3    0    0 -0.82333590261E+01 -0.59271523560E+01  0.23082094104E+01  0.10404189857E+02  0.00000000000E+00 0.  1.
        -11    1    3    3    0    0 -0.53365444945E+02 -0.62665254825E+03  0.72070969131E+03  0.95653737307E+03  0.00000000000E+00 0. -1.
          2    1    6    6  502    0  0.15114223055E+03  0.41018958545E+03 -0.15899582763E+03  0.46516571571E+03  0.00000000000E+00 0. -1.
          1    1    5    5  503    0 -0.11188725425E+03 -0.21083836603E+02  0.14592780549E+03  0.18508973565E+03  0.00000000000E+00 0. -1.
         -2    1    5    5    0  503 -0.28468637503E+02 -0.62686927203E+02  0.10008988904E+03  0.12148292082E+03  0.00000000000E+00 0.  1.
         -1    1    6    6    0  502  0.50812465175E+02  0.30616087897E+03 -0.74474136604E+02  0.31915950158E+03  0.00000000000E+00 0.  1.
<mgrwt>
<rscale>  0 0.19218861E+04</rscale>
<asrwt>0</asrwt>
<pdfrwt beam="1">  1        2 0.21487731E+00 0.19218861E+04</pdfrwt>
<pdfrwt beam="2">  1       -2 0.10171337E+00 0.19218861E+04</pdfrwt>
<totfact> 0.10780242E+01</totfact>
</mgrwt>
</event>
<event>
12    1  0.1504874E-007  0.2474577E+04  0.7818608E-02  0.8412099E-01
         -2   -1    0    0    0  501 -0.00000000000E+00  0.00000000000E+00  0.22029612090E+04  0.22029612090E+04  0.00000000000E+00 0.  1.
          2   -1    0    0  501    0  0.00000000000E+00 -0.00000000000E+00 -0.69492035929E+03  0.69492035929E+03  0.00000000000E+00 0. -1.
         23    2    1    2    0    0  0.69336117774E+03  0.61607589357E+03  0.12563588913E+04  0.15645764339E+04  0.95721075138E+02 0.  0.
        254    2    1    2    0    0 -0.69336117774E+03 -0.61607589357E+03  0.25168195834E+03  0.13333051344E+04  0.92415342003E+03 0.  0.
        -24    2    4    4    0    0  0.66619184320E+02 -0.26514745250E+03  0.38854119530E+03  0.48147116648E+03  0.78159685405E+02 0.  0.
         24    2    4    4    0    0 -0.75998036206E+03 -0.35092844107E+03 -0.13685923695E+03  0.85183396789E+03  0.78547671212E+02 0.  0.
         11    1    3    3    0    0  0.57216140141E+03  0.48197473459E+03  0.10633097042E+04  0.13001137801E+04  0.00000000000E+00 0.  1.
        -11    1    3    3    0    0  0.12119977632E+03  0.13410115898E+03  0.19304918715E+03  0.26446265385E+03  0.00000000000E+00 0. -1.
          4    1    6    6  502    0 -0.73447810128E+03 -0.32987028821E+03 -0.14417874041E+03  0.81796087772E+03  0.00000000000E+00 0. -1.
          1    1    5    5  503    0  0.49737661903E+02 -0.15279309257E+03  0.16275748614E+03  0.22871284057E+03  0.00000000000E+00 0. -1.
         -2    1    5    5    0  503  0.16881522417E+02 -0.11235435993E+03  0.22578370916E+03  0.25275832591E+03  0.00000000000E+00 0.  1.
         -3    1    6    6    0  502 -0.25502260783E+02 -0.21058152860E+02  0.73195034594E+01  0.33873090173E+02  0.00000000000E+00 0.  1.
<mgrwt>
<rscale>  0 0.24745768E+04</rscale>
<asrwt>0</asrwt>
<pdfrwt beam="1">  1        2 0.10691083E+00 0.24745768E+04</pdfrwt>
<pdfrwt beam="2">  1       -2 0.33891710E+00 0.24745768E+04</pdfrwt>
<totfact> 0.67535045E-01</totfact>
</mgrwt>
</event>
<event>
12    1  0.1504874E-007  0.3054017E+04  0.7818608E-02  0.8228472E-01
         -2   -1    0    0    0  501 -0.00000000000E+00  0.00000000000E+00  0.93141026029E+03  0.93141026029E+03  0.00000000000E+00 0.  1.
          2   -1    0    0  501    0  0.00000000000E+00 -0.00000000000E+00 -0.25034664950E+04  0.25034664950E+04  0.00000000000E+00 0. -1.
         23    2    1    2    0    0 -0.64418761528E+03  0.63560590120E+02  0.67666444561E+03  0.94091792007E+03  0.91837509013E+02 0.  0.
        254    2    1    2    0    0  0.64418761528E+03 -0.63560590120E+02 -0.22487206803E+04  0.24939588352E+04  0.86259396090E+03 0.  0.
        -24    2    4    4    0    0  0.20064841001E+03  0.17730381967E+03 -0.17749016481E+04  0.17967851563E+04  0.80402787671E+02 0.  0.
         24    2    4    4    0    0  0.44353920527E+03 -0.24086440979E+03 -0.47381903218E+03  0.69717367897E+03  0.82486198061E+02 0.  0.
         13    1    3    3    0    0 -0.83695110367E+02  0.20078541177E+02  0.52116795046E+02  0.10061898251E+03  0.00000000000E+00 0. -1.
        -13    1    3    3    0    0 -0.56049250491E+03  0.43482048943E+02  0.62454765056E+03  0.84029893756E+03  0.00000000000E+00 0.  1.
          4    1    6    6  502    0  0.16534501597E+03 -0.76527371668E+02 -0.12076005922E+03  0.21858271849E+03  0.00000000000E+00 0. -1.
          1    1    5    5  503    0  0.65927318647E+02  0.10076426754E+03 -0.62531952269E+03  0.63680794154E+03  0.00000000000E+00 0. -1.
         -2    1    5    5    0  503  0.13472109136E+03  0.76539552134E+02 -0.11495821255E+04  0.11599772147E+04  0.00000000000E+00 0.  1.
         -3    1    6    6    0  502  0.27819418930E+03 -0.16433703812E+03 -0.35305897296E+03  0.47859096047E+03  0.00000000000E+00 0.  1.
<mgrwt>
<rscale>  0 0.30540166E+04</rscale>
<asrwt>0</asrwt>
<pdfrwt beam="1">  1        2 0.38514868E+00 0.30540166E+04</pdfrwt>
<pdfrwt beam="2">  1       -2 0.14329389E+00 0.30540166E+04</pdfrwt>
<totfact> 0.99793516E-01</totfact>
</mgrwt>
</event>
<event>
12    1  0.1504874E-007  0.1143230E+04  0.7818608E-02  0.9164052E-01
         -1   -1    0    0    0  501 -0.00000000000E+00  0.00000000000E+00  0.58450950972E+03  0.58450950972E+03  0.00000000000E+00 0.  1.
          1   -1    0    0  501    0  0.00000000000E+00 -0.00000000000E+00 -0.55900525805E+03  0.55900525805E+03  0.00000000000E+00 0. -1.
         23    2    1    2    0    0 -0.71175889743E+02  0.73298447917E+02 -0.16909219057E+03  0.21701638266E+03  0.89806857663E+02 0.  0.
        254    2    1    2    0    0  0.71175889743E+02 -0.73298447917E+02  0.19459644224E+03  0.92649838511E+03  0.90005156104E+03 0.  0.
        -24    2    4    4    0    0 -0.91581735669E+02 -0.46072409472E+03  0.13043097857E+03  0.49396887411E+03  0.79618481877E+02 0.  0.
         24    2    4    4    0    0  0.16275762541E+03  0.38742564680E+03  0.64165463668E+02  0.43252951100E+03  0.79849199910E+02 0.  0.
         13    1    3    3    0    0 -0.69355955071E+02  0.92860556165E+02 -0.13772273574E+03  0.18000245369E+03  0.00000000000E+00 0. -1.
        -13    1    3    3    0    0 -0.18199346715E+01 -0.19562108248E+02 -0.31369454835E+02  0.37013928972E+02  0.00000000000E+00 0.  1.
          2    1    6    6  502    0  0.13961250786E+03  0.35114593543E+03  0.32849973989E+02  0.37930758114E+03  0.00000000000E+00 0. -1.
          1    1    5    5  503    0 -0.77247105338E+02 -0.20439213135E+03  0.77480017950E+02  0.23183272379E+03  0.00000000000E+00 0. -1.
         -2    1    5    5    0  503 -0.14334630331E+02 -0.25633196337E+03  0.52950960623E+02  0.26213615032E+03  0.00000000000E+00 0.  1.
         -1    1    6    6    0  502  0.23145117554E+02  0.36279711368E+02  0.31315489678E+02  0.53221929854E+02  0.00000000000E+00 0.  1.
<mgrwt>
<rscale>  0 0.11432303E+04</rscale>
<asrwt>0</asrwt>
<pdfrwt beam="1">  1        1 0.86000809E-01 0.11432303E+04</pdfrwt>
<pdfrwt beam="2">  1       -1 0.89924540E-01 0.11432303E+04</pdfrwt>
<totfact> 0.45609614E+01</totfact>
</mgrwt>
</event>
<event>
12    1  0.1504874E-007  0.1707662E+04  0.7818608E-02  0.8757007E-01
         -2   -1    0    0    0  501 -0.00000000000E+00  0.00000000000E+00  0.55094764849E+03  0.55094764849E+03  0.00000000000E+00 0.  1.
          2   -1    0    0  501    0  0.00000000000E+00 -0.00000000000E+00 -0.13232241517E+04  0.13232241517E+04  0.00000000000E+00 0. -1.
         23    2    1    2    0    0  0.24387626409E+03 -0.36665636342E+03 -0.76817402607E+03  0.89007688300E+03  0.90735893159E+02 0.  0.
        254    2    1    2    0    0 -0.24387626409E+03  0.36665636342E+03 -0.41024771721E+01  0.98409491722E+03  0.88006446056E+03 0.  0.
        -24    2    4    4    0    0  0.13925029523E+03  0.46610416737E+03 -0.20558743100E+03  0.53289598496E+03  0.71191287631E+02 0.  0.
         24    2    4    4    0    0 -0.38312655933E+03 -0.99447803950E+02  0.20148495382E+03  0.45119893226E+03  0.79425837628E+02 0.  0.
         13    1    3    3    0    0  0.16305773193E+03 -0.24779402877E+03 -0.59642848343E+03  0.66612059004E+03  0.00000000000E+00 0. -1.
        -13    1    3    3    0    0  0.80818532165E+02 -0.11886233465E+03 -0.17174554264E+03  0.22395629296E+03  0.00000000000E+00 0.  1.
          2    1    6    6  502    0 -0.31127849796E+03 -0.60375953373E+02  0.18707914597E+03  0.36815508402E+03  0.00000000000E+00 0. -1.
          3    1    5    5  503    0  0.13350624536E+03  0.46308464549E+03 -0.19382203686E+03  0.51945961191E+03  0.00000000000E+00 0. -1.
         -4    1    5    5    0  503  0.57440498717E+01  0.30195218858E+01 -0.11765394139E+02  0.13436373045E+02  0.00000000000E+00 0.  1.
         -1    1    6    6    0  502 -0.71848061367E+02 -0.39071850577E+02  0.14405807859E+02  0.83043848236E+02  0.00000000000E+00 0.  1.
<mgrwt>
<rscale>  0 0.17076618E+04</rscale>
<asrwt>0</asrwt>
<pdfrwt beam="1">  1        2 0.20357294E+00 0.17076618E+04</pdfrwt>
<pdfrwt beam="2">  1       -2 0.84761178E-01 0.17076618E+04</pdfrwt>
<totfact> 0.18481248E+01</totfact>
</mgrwt>
</event>
<event>
12    1  0.1504874E-007  0.1806328E+04  0.7818608E-02  0.8702942E-01
         -1   -1    0    0    0  501 -0.00000000000E+00  0.00000000000E+00  0.46021153750E+03  0.46021153750E+03  0.00000000000E+00 0.  1.
          1   -1    0    0  501    0  0.00000000000E+00 -0.00000000000E+00 -0.17724567811E+04  0.17724567811E+04  0.00000000000E+00 0. -1.
         23    2    1    2    0    0 -0.36486809808E+03  0.52796196813E+03 -0.22536958338E+03  0.68630872024E+03  0.91409198549E+02 0.  0.
        254    2    1    2    0    0  0.36486809808E+03 -0.52796196813E+03 -0.10868756602E+04  0.15463595983E+04  0.89334021394E+03 0.  0.
        -24    2    4    4    0    0  0.16788931481E+03  0.10030902953E+03 -0.79431699076E+03  0.82179107893E+03  0.78437058641E+02 0.  0.
         24    2    4    4    0    0  0.19697878327E+03 -0.62827099765E+03 -0.29255866942E+03  0.72456851939E+03  0.76706431853E+02 0.  0.
         13    1    3    3    0    0 -0.32266320271E+03  0.43924379082E+03 -0.22052526607E+03  0.58794391155E+03  0.00000000000E+00 0. -1.
        -13    1    3    3    0    0 -0.42204895371E+02  0.88718177303E+02 -0.48443173086E+01  0.98364808684E+02  0.00000000000E+00 0.  1.
          2    1    6    6  502    0  0.15397605599E+02 -0.10105958643E+03 -0.21033389874E+02  0.10436728298E+03  0.00000000000E+00 0. -1.
          3    1    5    5  503    0  0.11238303881E+03  0.10367790302E+03 -0.63121031328E+03  0.64946556073E+03  0.00000000000E+00 0. -1.
         -4    1    5    5    0  503  0.55506275994E+02 -0.33688734923E+01 -0.16310667748E+03  0.17232551820E+03  0.00000000000E+00 0.  1.
         -1    1    6    6    0  502  0.18158117767E+03 -0.52721141122E+03 -0.27152527955E+03  0.62020123641E+03  0.00000000000E+00 0.  1.
<mgrwt>
<rscale>  0 0.18063278E+04</rscale>
<asrwt>0</asrwt>
<pdfrwt beam="1">  1        1 0.27268566E+00 0.18063278E+04</pdfrwt>
<pdfrwt beam="2">  1       -1 0.70801775E-01 0.18063278E+04</pdfrwt>
<totfact> 0.80845265E+00</totfact>
</mgrwt>
</event>
<event>
12    1  0.1504874E-007  0.1564364E+04  0.7818608E-02  0.8842745E-01
          2   -1    0    0  501    0  0.00000000000E+00  0.00000000000E+00  0.16050381761E+04  0.16050381761E+04  0.00000000000E+00 0. -1.
         -2   -1    0    0    0  501 -0.00000000000E+00 -0.00000000000E+00 -0.38118006598E+03  0.38118006598E+03  0.00000000000E+00 0.  1.
         23    2    1    2    0    0 -0.23198457784E+03  0.36377114192E+03  0.73211560895E+03  0.85501538451E+03  0.94402091262E+02 0.  0.
        254    2    1    2    0    0  0.23198457784E+03 -0.36377114192E+03  0.49174250119E+03  0.11312028576E+04  0.92285585520E+03 0.  0.
        -24    2    4    4    0    0  0.32252316232E+02  0.19071887306E+03  0.49309019314E+03  0.53547564557E+03  0.78627781272E+02 0.  0.
         24    2    4    4    0    0  0.19973226161E+03 -0.55449001498E+03 -0.13476919538E+01  0.59572721201E+03  0.86815562049E+02 0.  0.
         13    1    3    3    0    0 -0.22468200873E+03  0.32092025523E+03  0.69522147075E+03  0.79800044402E+03  0.00000000000E+00 0. -1.
        -13    1    3    3    0    0 -0.73025691106E+01  0.42850886693E+02  0.36894138200E+02  0.57014940494E+02  0.00000000000E+00 0.  1.
          2    1    6    6  502    0  0.45943692528E+02 -0.59439577325E+02  0.16959478851E+02  0.77016298006E+02  0.00000000000E+00 0. -1.
          3    1    5    5  503    0  0.63042325352E+00 -0.19608744785E+00 -0.29507413472E+01  0.30236994334E+01  0.00000000000E+00 0. -1.
         -4    1    5    5    0  503  0.31621892978E+02  0.19091496051E+03  0.49604093449E+03  0.53245194614E+03  0.00000000000E+00 0.  1.
         -3    1    6    6    0  502  0.15378856909E+03 -0.49505043766E+03 -0.18307170805E+02  0.51871091400E+03  0.00000000000E+00 0.  1.
<mgrwt>
<rscale>  0 0.15643638E+04</rscale>
<asrwt>0</asrwt>
<pdfrwt beam="1">  1        2 0.24692895E+00 0.15643638E+04</pdfrwt>
<pdfrwt beam="2">  1       -2 0.58643088E-01 0.15643638E+04</pdfrwt>
<totfact> 0.28953799E+01</totfact>
</mgrwt>
</event>
<event>
12    1  0.1504874E-007  0.1762761E+04  0.7818608E-02  0.8726357E-01
         -1   -1    0    0    0  501 -0.00000000000E+00  0.00000000000E+00  0.35798797349E+04  0.35798797349E+04  0.00000000000E+00 0.  1.
          1   -1    0    0  501    0  0.00000000000E+00 -0.00000000000E+00 -0.21699942008E+03  0.21699942008E+03  0.00000000000E+00 0. -1.
         23    2    1    2    0    0 -0.49936778486E+03 -0.40310850821E+03  0.10491328167E+04  0.12331500230E+04  0.90081397777E+02 0.  0.
        254    2    1    2    0    0  0.49936778486E+03  0.40310850821E+03  0.23137474982E+04  0.25637291320E+04  0.89856269848E+03 0.  0.
        -24    2    4    4    0    0  0.18718292917E+03  0.15434626456E+03  0.20771347157E+04  0.20927609516E+04  0.79369736087E+02 0.  0.
         24    2    4    4    0    0  0.31218485568E+03  0.24876224365E+03  0.23661278253E+03  0.47096818048E+03  0.80519439762E+02 0.  0.
         11    1    3    3    0    0 -0.50214782328E+03 -0.39981910129E+03  0.10475457640E+04  0.12285600831E+04  0.00000000000E+00 0. -1.
        -11    1    3    3    0    0  0.27800384191E+01 -0.32894069261E+01  0.15870526284E+01  0.45899398234E+01  0.00000000000E+00 0.  1.
          4    1    6    6  502    0  0.29434005017E+03  0.21677139765E+03  0.19091509732E+03  0.41240087094E+03  0.00000000000E+00 0. -1.
          1    1    5    5  503    0  0.12380485130E+03  0.14508335628E+03  0.16089895567E+04  0.16202543673E+04  0.00000000000E+00 0. -1.
         -2    1    5    5    0  503  0.63378077870E+02  0.92629082782E+01  0.46814515901E+03  0.47250658422E+03  0.00000000000E+00 0.  1.
         -1    1    6    6    0  502  0.17844805516E+02  0.31990846004E+02  0.45697685219E+02  0.58567309536E+02  0.00000000000E+00 0.  1.
<mgrwt>
<rscale>  0 0.17627613E+04</rscale>
<asrwt>0</asrwt>
<pdfrwt beam="1">  1        1 0.33384529E-01 0.17627613E+04</pdfrwt>
<pdfrwt beam="2">  1       -1 0.55075069E+00 0.17627613E+04</pdfrwt>
<totfact> 0.92871102E-02</totfact>
</mgrwt>
</event>
<event>
12    1  0.1504874E-007  0.2044002E+04  0.7818608E-02  0.8586320E-01
          1   -1    0    0  501    0  0.00000000000E+00  0.00000000000E+00  0.15382449501E+04  0.15382449501E+04  0.00000000000E+00 0. -1.
         -1   -1    0    0    0  501 -0.00000000000E+00 -0.00000000000E+00 -0.67901169451E+03  0.67901169451E+03  0.00000000000E+00 0.  1.
         23    2    1    2    0    0  0.79412419548E+03 -0.38820294952E+02  0.30963112065E+03  0.85828448450E+03  0.92954678806E+02 0.  0.
        254    2    1    2    0    0 -0.79412419548E+03  0.38820294952E+02  0.54960213491E+03  0.13589721601E+04  0.95530234588E+03 0.  0.
        -24    2    4    4    0    0 -0.10016877091E+04  0.69332952508E+02  0.51838555258E+03  0.11327278729E+04  0.78508139520E+02 0.  0.
         24    2    4    4    0    0  0.20756351366E+03 -0.30512657556E+02  0.31216582324E+02  0.22624428719E+03  0.78729714854E+02 0.  0.
         13    1    3    3    0    0  0.81644520563E+02 -0.31558356624E+02  0.42895421648E+02  0.97477047602E+02  0.00000000000E+00 0.  1.
        -13    1    3    3    0    0  0.71247967491E+03 -0.72619383281E+01  0.26673569901E+03  0.76080743690E+03  0.00000000000E+00 0. -1.
          4    1    6    6  502    0  0.13895177045E+03  0.16925284822E+02  0.28103072214E+02  0.14277199461E+03  0.00000000000E+00 0. -1.
          3    1    5    5  503    0 -0.70252049751E+03  0.18900151567E+02  0.33887644560E+03  0.78021119611E+03  0.00000000000E+00 0. -1.
         -4    1    5    5    0  503 -0.29916721162E+03  0.50432800942E+02  0.17950910699E+03  0.35251667679E+03  0.00000000000E+00 0.  1.
         -3    1    6    6    0  502  0.68611743207E+02 -0.47437942378E+02  0.31135101101E+01  0.83472292577E+02  0.00000000000E+00 0.  1.
<mgrwt>
<rscale>  0 0.20440023E+04</rscale>
<asrwt>0</asrwt>
<pdfrwt beam="1">  1        1 0.23665307E+00 0.20440023E+04</pdfrwt>
<pdfrwt beam="2">  1       -1 0.10446334E+00 0.20440023E+04</pdfrwt>
<totfact> 0.49002965E+00</totfact>
</mgrwt>
</event>
<event>
12    1  0.1504874E-007  0.1477029E+04  0.7818608E-02  0.8899874E-01
          1   -1    0    0  501    0  0.00000000000E+00  0.00000000000E+00  0.28801407450E+04  0.28801407450E+04  0.00000000000E+00 0. -1.
         -1   -1    0    0    0  501 -0.00000000000E+00 -0.00000000000E+00 -0.18936707152E+03  0.18936707152E+03  0.00000000000E+00 0.  1.
         23    2    1    2    0    0 -0.33648772284E+03  0.28928468874E+02  0.15213702387E+04  0.15612336625E+04  0.93927108941E+02 0.  0.
        254    2    1    2    0    0  0.33648772284E+03 -0.28928468874E+02  0.11694034349E+04  0.15082741541E+04  0.89068832176E+03 0.  0.
        -24    2    4    4    0    0 -0.19982250236E+02  0.15500024212E+03  0.10716063565E+04  0.10862273776E+04  0.84411890059E+02 0.  0.
         24    2    4    4    0    0  0.35646997307E+03 -0.18392871099E+03  0.97797078372E+02  0.42204677650E+03  0.87513430878E+02 0.  0.
         11    1    3    3    0    0  0.90038949366E-01  0.41611653094E+01  0.16274243259E+01  0.44689947059E+01  0.00000000000E+00 0. -1.
        -11    1    3    3    0    0 -0.33657776179E+03  0.24767303564E+02  0.15197428143E+04  0.15567646677E+04  0.00000000000E+00 0.  1.
          4    1    6    6  502    0  0.12641085511E+03 -0.98045976755E+02  0.70991002152E+02  0.17502125652E+03  0.00000000000E+00 0. -1.
          3    1    5    5  503    0  0.12828208562E+01  0.14919008430E+03  0.80483136141E+03  0.81854312483E+03  0.00000000000E+00 0. -1.
         -4    1    5    5    0  503 -0.21265071092E+02  0.58101578179E+01  0.26677499509E+03  0.26768425279E+03  0.00000000000E+00 0.  1.
         -3    1    6    6    0  502  0.23005911796E+03 -0.85882734237E+02  0.26806076220E+02  0.24702551997E+03  0.00000000000E+00 0.  1.
<mgrwt>
<rscale>  0 0.14770292E+04</rscale>
<asrwt>0</asrwt>
<pdfrwt beam="1">  1        1 0.44309855E+00 0.14770292E+04</pdfrwt>
<pdfrwt beam="2">  1       -1 0.29133398E-01 0.14770292E+04</pdfrwt>
<totfact> 0.76436961E+00</totfact>
</mgrwt>
</event>
<event>
12    1  0.1504874E-007  0.1350081E+04  0.7818608E-02  0.8990767E-01
         -2   -1    0    0    0  501 -0.00000000000E+00  0.00000000000E+00  0.31902560548E+03  0.31902560548E+03  0.00000000000E+00 0.  1.
          2   -1    0    0  501    0  0.00000000000E+00 -0.00000000000E+00 -0.14283478088E+04  0.14283478088E+04  0.00000000000E+00 0. -1.
         23    2    1    2    0    0  0.32347683305E+03 -0.11480208968E+03 -0.13839080216E+03  0.38134529882E+03  0.91953474601E+02 0.  0.
        254    2    1    2    0    0 -0.32347683305E+03  0.11480208968E+03 -0.97093140111E+03  0.13660281154E+04  0.89750111149E+03 0.  0.
        -24    2    4    4    0    0 -0.15906238496E+03 -0.94645936214E+02  0.12375411531E+03  0.23661072797E+03  0.80067846114E+02 0.  0.
         24    2    4    4    0    0 -0.16441444809E+03  0.20944802589E+03 -0.10946855164E+04  0.11294173874E+04  0.79665983412E+02 0.  0.
         13    1    3    3    0    0  0.25752083897E+03 -0.12251505425E+03 -0.89534159976E+02  0.29890347409E+03  0.00000000000E+00 0.  1.
        -13    1    3    3    0    0  0.65955994085E+02  0.77129645772E+01 -0.48856642189E+02  0.82441824727E+02  0.00000000000E+00 0. -1.
          2    1    6    6  502    0 -0.78157459790E+02  0.84590677732E+02 -0.63413810940E+03  0.64451168575E+03  0.00000000000E+00 0. -1.
          3    1    5    5  503    0 -0.16348034094E+03 -0.99540631024E+02  0.12654464474E+03  0.22945087973E+03  0.00000000000E+00 0. -1.
         -4    1    5    5    0  503  0.44179559733E+01  0.48946948098E+01 -0.27905294302E+01  0.71598482361E+01  0.00000000000E+00 0.  1.
         -1    1    6    6    0  502 -0.86256988299E+02  0.12485734816E+03 -0.46054740702E+03  0.48490570169E+03  0.00000000000E+00 0.  1.
<mgrwt>
<rscale>  0 0.13500808E+04</rscale>
<asrwt>0</asrwt>
<pdfrwt beam="1">  1        2 0.21974581E+00 0.13500808E+04</pdfrwt>
<pdfrwt beam="2">  1       -2 0.49080864E-01 0.13500808E+04</pdfrwt>
<totfact> 0.53501577E+01</totfact>
</mgrwt>
</event>
<event>
12    1  0.1504874E-007  0.1643427E+04  0.7818608E-02  0.8794305E-01
          1   -1    0    0  501    0  0.00000000000E+00  0.00000000000E+00  0.14106960192E+04  0.14106960192E+04  0.00000000000E+00 0. -1.
         -1   -1    0    0    0  501 -0.00000000000E+00 -0.00000000000E+00 -0.47863820600E+03  0.47863820600E+03  0.00000000000E+00 0.  1.
         23    2    1    2    0    0 -0.56175438577E+03 -0.29626572818E+02  0.41594806833E+03  0.70639884749E+03  0.97677082434E+02 0.  0.
        254    2    1    2    0    0  0.56175438577E+03  0.29626572818E+02  0.51610974491E+03  0.11829353778E+04  0.90361557943E+03 0.  0.
        -24    2    4    4    0    0  0.57368805804E+03 -0.34725254506E+03  0.37396776315E+03  0.77210527080E+03  0.81193246824E+02 0.  0.
         24    2    4    4    0    0 -0.11933672266E+02  0.37687911788E+03  0.14214198176E+03  0.41083010696E+03  0.79979696026E+02 0.  0.
         13    1    3    3    0    0 -0.54995358542E+03 -0.42395203544E+02  0.39151020230E+03  0.67640708002E+03  0.00000000000E+00 0.  1.
        -13    1    3    3    0    0 -0.11800800356E+02  0.12768630726E+02  0.24437866036E+02  0.29991767471E+02  0.00000000000E+00 0. -1.
          4    1    6    6  502    0 -0.10437988319E+02  0.31038644685E+02 -0.81440083472E+01  0.33744243005E+02  0.00000000000E+00 0. -1.
          1    1    5    5  503    0  0.25528162994E+03 -0.18265198990E+03  0.13746781712E+03  0.34267748795E+03  0.00000000000E+00 0. -1.
         -4    1    5    5    0  503  0.31840642810E+03 -0.16460055515E+03  0.23649994603E+03  0.42942778285E+03  0.00000000000E+00 0.  1.
         -3    1    6    6    0  502 -0.14956839462E+01  0.34584047319E+03  0.15028599011E+03  0.37708586395E+03  0.00000000000E+00 0.  1.
<mgrwt>
<rscale>  0 0.16434269E+04</rscale>
<asrwt>0</asrwt>
<pdfrwt beam="1">  1        1 0.21703016E+00 0.16434269E+04</pdfrwt>
<pdfrwt beam="2">  1       -1 0.73636648E-01 0.16434269E+04</pdfrwt>
<totfact> 0.13412192E+01</totfact>
</mgrwt>
</event>
<event>
12    1  0.1504874E-007  0.1585358E+04  0.7818608E-02  0.8829594E-01
         -1   -1    0    0    0  501 -0.00000000000E+00  0.00000000000E+00  0.15225373446E+04  0.15225373446E+04  0.00000000000E+00 0.  1.
          1   -1    0    0  501    0  0.00000000000E+00 -0.00000000000E+00 -0.41269275413E+03  0.41269275413E+03  0.00000000000E+00 0. -1.
         23    2    1    2    0    0 -0.13243504731E+03 -0.85657850263E+02 -0.24647411229E+03  0.30806404452E+03  0.96320602322E+02 0.  0.
        254    2    1    2    0    0  0.13243504731E+03  0.85657850263E+02  0.13563187028E+04  0.16271660542E+04  0.88498171477E+03 0.  0.
        -24    2    4    4    0    0 -0.79798949093E+02  0.45131518356E+03  0.63144565983E+03  0.78411690642E+03  0.77861636372E+02 0.  0.
         24    2    4    4    0    0  0.21223399641E+03 -0.36565733330E+03  0.72487304292E+03  0.84304914780E+03  0.80884996263E+02 0.  0.
         13    1    3    3    0    0  0.84852782495E+01  0.89701231473E+01 -0.60322387487E+01  0.13742305504E+02  0.00000000000E+00 0.  1.
        -13    1    3    3    0    0 -0.14092032556E+03 -0.94627973410E+02 -0.24044187354E+03  0.29432173902E+03  0.00000000000E+00 0. -1.
          4    1    6    6  502    0  0.19268204259E+03 -0.28163004400E+03  0.53597284734E+03  0.63538078685E+03  0.00000000000E+00 0. -1.
          1    1    5    5  503    0 -0.83952489933E+02  0.39129541920E+03  0.58159838814E+03  0.70598640974E+03  0.00000000000E+00 0. -1.
         -2    1    5    5    0  503  0.41535408402E+01  0.60019764364E+02  0.49847271693E+02  0.78130496677E+02  0.00000000000E+00 0.  1.
         -3    1    6    6    0  502  0.19551953816E+02 -0.84027289305E+02  0.18890019559E+03  0.20766836095E+03  0.00000000000E+00 0.  1.
<mgrwt>
<rscale>  0 0.15853582E+04</rscale>
<asrwt>0</asrwt>
<pdfrwt beam="1">  1        1 0.63491194E-01 0.15853582E+04</pdfrwt>
<pdfrwt beam="2">  1       -1 0.23423651E+00 0.15853582E+04</pdfrwt>
<totfact> 0.48919908E+00</totfact>
</mgrwt>
</event>
<event>
12    1  0.1504874E-007  0.2368518E+04  0.7818608E-02  0.8451385E-01
         -2   -1    0    0    0  501 -0.00000000000E+00  0.00000000000E+00  0.69167792778E+03  0.69167792778E+03  0.00000000000E+00 0.  1.
          2   -1    0    0  501    0  0.00000000000E+00 -0.00000000000E+00 -0.20276327310E+04  0.20276327310E+04  0.00000000000E+00 0. -1.
         23    2    1    2    0    0 -0.52215601656E+03 -0.52215704765E+03  0.21042424195E+03  0.77321977145E+03  0.91079994047E+02 0.  0.
        254    2    1    2    0    0  0.52215601656E+03  0.52215704765E+03 -0.15463790452E+04  0.19460908873E+04  0.92232678720E+03 0.  0.
        -24    2    4    4    0    0 -0.86961847564E+02 -0.28261056293E+02  0.62492925755E+02  0.13814977214E+03  0.82576894709E+02 0.  0.
         24    2    4    4    0    0  0.60911786412E+03  0.55041810395E+03 -0.16088719709E+04  0.18079411152E+04  0.78723539210E+02 0.  0.
         13    1    3    3    0    0 -0.29289394305E+03 -0.24547238374E+03  0.76440622645E+02  0.38972647055E+03  0.00000000000E+00 0. -1.
        -13    1    3    3    0    0 -0.22926207351E+03 -0.27668466392E+03  0.13398361930E+03  0.38349330090E+03  0.00000000000E+00 0.  1.
          4    1    6    6  502    0  0.39778576209E+03  0.31119913713E+03 -0.10156943655E+04  0.11343339277E+04  0.00000000000E+00 0. -1.
          3    1    5    5  503    0 -0.91297186249E+02  0.31173158149E+01  0.43090207033E+02  0.10100326637E+03  0.00000000000E+00 0. -1.
         -4    1    5    5    0  503  0.43353386849E+01 -0.31378372107E+02  0.19402718722E+02  0.37146505777E+02  0.00000000000E+00 0.  1.
         -3    1    6    6    0  502  0.21133210203E+03  0.23921896681E+03 -0.59317760547E+03  0.67360718751E+03  0.00000000000E+00 0.  1.
<mgrwt>
<rscale>  0 0.23685175E+04</rscale>
<asrwt>0</asrwt>
<pdfrwt beam="1">  1        2 0.31194349E+00 0.23685175E+04</pdfrwt>
<pdfrwt beam="2">  1       -2 0.10641199E+00 0.23685175E+04</pdfrwt>
<totfact> 0.41382055E+00</totfact>
</mgrwt>
</event>
<event>
12    1  0.1504874E-007  0.3922154E+04  0.7818608E-02  0.8020437E-01
          4   -1    0    0  501    0  0.00000000000E+00  0.00000000000E+00  0.14290703530E+04  0.14290703530E+04  0.00000000000E+00 0.  1.
         -4   -1    0    0    0  501 -0.00000000000E+00 -0.00000000000E+00 -0.26911363770E+04  0.26911363770E+04  0.00000000000E+00 0. -1.
         23    2    1    2    0    0  0.28452606994E+03  0.16680979010E+04  0.20609111123E+03  0.17069915654E+04  0.88549231768E+02 0.  0.
        254    2    1    2    0    0 -0.28452606994E+03 -0.16680979010E+04 -0.14681571352E+04  0.24132151646E+04  0.89700410554E+03 0.  0.
        -24    2    4    4    0    0 -0.41199335628E+03 -0.29309238362E+03 -0.24916987407E+03  0.56958269066E+03  0.81836082483E+02 0.  0.
         24    2    4    4    0    0  0.12746728634E+03 -0.13750055174E+04 -0.12189872611E+04  0.18436324740E+04  0.78502703001E+02 0.  0.
         13    1    3    3    0    0  0.19599939114E+03  0.10171106175E+04  0.16334326038E+03  0.10486232833E+04  0.00000000000E+00 0. -1.
        -13    1    3    3    0    0  0.88526678809E+02  0.65098728350E+03  0.42747850847E+02  0.65836828211E+03  0.00000000000E+00 0.  1.
          2    1    6    6  502    0 -0.81145257491E+01 -0.17703235113E+03 -0.14375597446E+03  0.22819307410E+03  0.00000000000E+00 0. -1.
          3    1    5    5  503    0 -0.67680812243E+02 -0.14384055417E+02 -0.35382392017E+02  0.77714265492E+02  0.00000000000E+00 0. -1.
         -4    1    5    5    0  503 -0.34431254404E+03 -0.27870832821E+03 -0.21378748205E+03  0.49186842517E+03  0.00000000000E+00 0.  1.
         -1    1    6    6    0  502  0.13558181209E+03 -0.11979731662E+04 -0.10752312867E+04  0.16154393999E+04  0.00000000000E+00 0.  1.
<mgrwt>
<rscale>  0 0.39221541E+04</rscale>
<asrwt>0</asrwt>
<pdfrwt beam="1">  1        4 0.21985698E+00 0.39221541E+04</pdfrwt>
<pdfrwt beam="2">  1       -4 0.41402097E+00 0.39221541E+04</pdfrwt>
<totfact> 0.82470788E-04</totfact>
</mgrwt>
</event>
<event>
12    1  0.1504874E-007  0.1302205E+04  0.7818608E-02  0.9027818E-01
         -2   -1    0    0    0  501 -0.00000000000E+00  0.00000000000E+00  0.38033971067E+03  0.38033971067E+03  0.00000000000E+00 0.  1.
          2   -1    0    0  501    0  0.00000000000E+00 -0.00000000000E+00 -0.11146203707E+04  0.11146203707E+04  0.00000000000E+00 0. -1.
         23    2    1    2    0    0 -0.56909677546E+02  0.17950368035E+03 -0.16803618794E+03  0.26892784227E+03  0.92874868682E+02 0.  0.
        254    2    1    2    0    0  0.56909677546E+02 -0.17950368035E+03 -0.56624447206E+03  0.12260322391E+04  0.10710097882E+04 0.  0.
        -24    2    4    4    0    0 -0.23720610805E+03 -0.49234339935E+03 -0.57492911268E+02  0.55544468472E+03  0.80898716657E+02 0.  0.
         24    2    4    4    0    0  0.29411578560E+03  0.31283971901E+03 -0.50875156079E+03  0.67058755436E+03  0.80540252827E+02 0.  0.
         11    1    3    3    0    0 -0.48120947940E+02  0.12243409921E+03 -0.16511315746E+03  0.21111155593E+03  0.00000000000E+00 0. -1.
        -11    1    3    3    0    0 -0.87887296062E+01  0.57069581135E+02 -0.29230304840E+01  0.57816286341E+02  0.00000000000E+00 0.  1.
          2    1    6    6  502    0  0.16082133278E+03  0.16380074976E+03 -0.21012403399E+03  0.31120137590E+03  0.00000000000E+00 0. -1.
          3    1    5    5  503    0 -0.10817239148E+03 -0.24665326588E+03 -0.67824841749E+02  0.27773964248E+03  0.00000000000E+00 0. -1.
         -4    1    5    5    0  503 -0.12903371657E+03 -0.24569013348E+03  0.10331930481E+02  0.27770504224E+03  0.00000000000E+00 0.  1.
         -1    1    6    6    0  502  0.13329445281E+03  0.14903896925E+03 -0.29862752680E+03  0.35938617846E+03  0.00000000000E+00 0.  1.
<mgrwt>
<rscale>  0 0.13022049E+04</rscale>
<asrwt>0</asrwt>
<pdfrwt beam="1">  1        2 0.17148006E+00 0.13022049E+04</pdfrwt>
<pdfrwt beam="2">  1       -2 0.58513802E-01 0.13022049E+04</pdfrwt>
<totfact> 0.57108963E+01</totfact>
</mgrwt>
</event>
<event>
12    1  0.1504874E-007  0.2065417E+04  0.7818608E-02  0.8576632E-01
         -2   -1    0    0    0  501 -0.00000000000E+00  0.00000000000E+00  0.23802115780E+03  0.23802115780E+03  0.00000000000E+00 0.  1.
          2   -1    0    0  501    0  0.00000000000E+00 -0.00000000000E+00 -0.44806402575E+04  0.44806402575E+04  0.00000000000E+00 0. -1.
         23    2    1    2    0    0  0.10587694418E+03  0.48087908125E+03 -0.18683323495E+03  0.53472964290E+03  0.92598678300E+02 0.  0.
        254    2    1    2    0    0 -0.10587694418E+03 -0.48087908125E+03 -0.40557858647E+04  0.41839317724E+04  0.90190436147E+03 0.  0.
        -24    2    4    4    0    0 -0.16560814615E+03 -0.73106632855E+03 -0.31327193031E+04  0.32221299741E+04  0.79418529001E+02 0.  0.
         24    2    4    4    0    0  0.59731201972E+02  0.25018724730E+03 -0.92306656162E+03  0.96180179833E+03  0.82760781103E+02 0.  0.
         13    1    3    3    0    0  0.21851290014E+02  0.10887768540E+03 -0.23357524955E+01  0.11107333160E+03  0.00000000000E+00 0.  1.
        -13    1    3    3    0    0  0.84025654166E+02  0.37200139585E+03 -0.18449748245E+03  0.42365631130E+03  0.00000000000E+00 0. -1.
          2    1    6    6  502    0  0.10965547216E+02  0.19475378515E+03 -0.70990770690E+03  0.73621887532E+03  0.00000000000E+00 0. -1.
          1    1    5    5  503    0 -0.14410892221E+03 -0.59940702850E+03 -0.26905732243E+04  0.27602971656E+04  0.00000000000E+00 0. -1.
         -2    1    5    5    0  503 -0.21499223937E+02 -0.13165930006E+03 -0.44214607885E+03  0.46183280845E+03  0.00000000000E+00 0.  1.
         -1    1    6    6    0  502  0.48765654756E+02  0.55433462149E+02 -0.21315885472E+03  0.22558292301E+03  0.00000000000E+00 0.  1.
<mgrwt>
<rscale>  0 0.20654173E+04</rscale>
<asrwt>0</asrwt>
<pdfrwt beam="1">  1        2 0.68932921E+00 0.20654173E+04</pdfrwt>
<pdfrwt beam="2">  1       -2 0.36618643E-01 0.20654173E+04</pdfrwt>
<totfact> 0.84662096E-01</totfact>
</mgrwt>
</event>
<event>
12    1  0.1504874E-007  0.1237479E+04  0.7818608E-02  0.9080669E-01
         -1   -1    0    0    0  501 -0.00000000000E+00  0.00000000000E+00  0.39937620705E+03  0.39937620705E+03  0.00000000000E+00 0.  1.
          1   -1    0    0  501    0  0.00000000000E+00 -0.00000000000E+00 -0.95859143658E+03  0.95859143658E+03  0.00000000000E+00 0. -1.
         23    2    1    2    0    0  0.20438762895E+03 -0.10058234312E+03 -0.31378110798E+03  0.39806999716E+03  0.90055695575E+02 0.  0.
        254    2    1    2    0    0 -0.20438762895E+03  0.10058234312E+03 -0.24543412156E+03  0.95989764647E+03  0.89959683917E+03 0.  0.
        -24    2    4    4    0    0 -0.95455018634E+02  0.36299385628E+03  0.19541565464E+03  0.42962074258E+03  0.74232769662E+02 0.  0.
         24    2    4    4    0    0 -0.10893261031E+03 -0.26241151317E+03 -0.44084977620E+03  0.53027690389E+03  0.78223741875E+02 0.  0.
         11    1    3    3    0    0  0.99005401749E+02 -0.82056740371E+02 -0.11589994424E+03  0.17311318636E+03  0.00000000000E+00 0.  1.
        -11    1    3    3    0    0  0.10538222720E+03 -0.18525602745E+02 -0.19788116374E+03  0.22495681081E+03  0.00000000000E+00 0. -1.
          2    1    6    6  502    0 -0.83219338803E+02 -0.20635836499E+03 -0.39526079442E+03  0.45358607646E+03  0.00000000000E+00 0. -1.
          3    1    5    5  503    0 -0.96916631006E+02  0.36631791252E+03  0.19284368316E+03  0.42517094507E+03  0.00000000000E+00 0. -1.
         -4    1    5    5    0  503  0.14616123713E+01 -0.33240562334E+01  0.25719714767E+01  0.44497975060E+01  0.00000000000E+00 0.  1.
         -1    1    6    6    0  502 -0.25713271509E+02 -0.56053148182E+02 -0.45588981779E+02  0.76690827433E+02  0.00000000000E+00 0.  1.
<mgrwt>
<rscale>  0 0.12374791E+04</rscale>
<asrwt>0</asrwt>
<pdfrwt beam="1">  1        1 0.14747560E+00 0.12374791E+04</pdfrwt>
<pdfrwt beam="2">  1       -1 0.61442494E-01 0.12374791E+04</pdfrwt>
<totfact> 0.43266467E+01</totfact>
</mgrwt>
</event>
<event>
12    1  0.1504874E-007  0.1588910E+04  0.7818608E-02  0.8827390E-01
         -2   -1    0    0    0  501 -0.00000000000E+00  0.00000000000E+00  0.20770937080E+04  0.20770937080E+04  0.00000000000E+00 0.  1.
          2   -1    0    0  501    0  0.00000000000E+00 -0.00000000000E+00 -0.30386627860E+03  0.30386627860E+03  0.00000000000E+00 0. -1.
         23    2    1    2    0    0 -0.31085563141E+03  0.10532292159E+03  0.12288753263E+04  0.12751420989E+04  0.90159100694E+02 0.  0.
        254    2    1    2    0    0  0.31085563141E+03 -0.10532292159E+03  0.54435210312E+03  0.11058178877E+04  0.90487007200E+03 0.  0.
        -24    2    4    4    0    0 -0.27097447444E+03 -0.18729708821E+02 -0.23576650374E+02  0.28420422660E+03  0.80238495653E+02 0.  0.
         24    2    4    4    0    0  0.58183010585E+03 -0.86593212774E+02  0.56792875349E+03  0.82161366110E+03  0.80506412812E+02 0.  0.
         11    1    3    3    0    0 -0.25723167579E+03  0.92601865842E+02  0.86668621804E+03  0.90878393533E+03  0.00000000000E+00 0.  1.
        -11    1    3    3    0    0 -0.53623955620E+02  0.12721055753E+02  0.36218910827E+03  0.36635816359E+03  0.00000000000E+00 0. -1.
          2    1    6    6  502    0  0.50446575094E+03 -0.51871340707E+02  0.46289023283E+03  0.68661757734E+03  0.00000000000E+00 0. -1.
          1    1    5    5  503    0 -0.20037886792E+03  0.19876566743E+02 -0.29556939618E+02  0.20351997763E+03  0.00000000000E+00 0. -1.
         -2    1    5    5    0  503 -0.70595606522E+02 -0.38606275564E+02  0.59802892444E+01  0.80684248975E+02  0.00000000000E+00 0.  1.
         -1    1    6    6    0  502  0.77364354903E+02 -0.34721872067E+02  0.10503852066E+03  0.13499608376E+03  0.00000000000E+00 0.  1.
<mgrwt>
<rscale>  0 0.15889100E+04</rscale>
<asrwt>0</asrwt>
<pdfrwt beam="1">  1        2 0.46748659E-01 0.15889100E+04</pdfrwt>
<pdfrwt beam="2">  1       -2 0.31955287E+00 0.15889100E+04</pdfrwt>
<totfact> 0.25134974E+00</totfact>
</mgrwt>
</event>
<event>
12    1  0.1504874E-007  0.1189427E+04  0.7818608E-02  0.9122162E-01
          2   -1    0    0  501    0  0.00000000000E+00  0.00000000000E+00  0.99818483925E+03  0.99818483925E+03  0.00000000000E+00 0. -1.
         -2   -1    0    0    0  501 -0.00000000000E+00 -0.00000000000E+00 -0.35432704459E+03  0.35432704459E+03  0.00000000000E+00 0.  1.
         23    2    1    2    0    0  0.54327002334E+02 -0.23106735362E+03  0.16689598150E+03  0.30430982861E+03  0.91687829385E+02 0.  0.
        254    2    1    2    0    0 -0.54327002334E+02  0.23106735362E+03  0.47696181317E+03  0.10482020552E+04  0.90271337216E+03 0.  0.
        -24    2    4    4    0    0 -0.29037208970E+02 -0.11935826842E+03 -0.21990616866E+03  0.26357900256E+03  0.77624814541E+02 0.  0.
         24    2    4    4    0    0 -0.25289793363E+02  0.35042562205E+03  0.69686798183E+03  0.78462305266E+03  0.81059610428E+02 0.  0.
         11    1    3    3    0    0  0.45061757167E+02 -0.23828980344E+03  0.16160641854E+03  0.29142619459E+03  0.00000000000E+00 0. -1.
        -11    1    3    3    0    0  0.92652451668E+01  0.72224498141E+01  0.52895629636E+01  0.12883634024E+02  0.00000000000E+00 0.  1.
          4    1    6    6  502    0 -0.38746153739E+02  0.97008277156E+02  0.24562859650E+03  0.26691811045E+03  0.00000000000E+00 0. -1.
          3    1    5    5  503    0  0.74544568051E+01 -0.27768359715E+01 -0.68854469344E+02  0.69312464196E+02  0.00000000000E+00 0. -1.
         -4    1    5    5    0  503 -0.36491665776E+02 -0.11658143245E+03 -0.15105169931E+03  0.19426653837E+03  0.00000000000E+00 0.  1.
         -1    1    6    6    0  502  0.13456360375E+02  0.25341734489E+03  0.45123938532E+03  0.51770494221E+03  0.00000000000E+00 0.  1.
<mgrwt>
<rscale>  0 0.11894266E+04</rscale>
<asrwt>0</asrwt>
<pdfrwt beam="1">  1        2 0.15356690E+00 0.11894266E+04</pdfrwt>
<pdfrwt beam="2">  1       -2 0.54511854E-01 0.11894266E+04</pdfrwt>
<totfact> 0.78982599E+01</totfact>
</mgrwt>
</event>
<event>
12    1  0.1504874E-007  0.1388734E+04  0.7818608E-02  0.8962014E-01
         -2   -1    0    0    0  501 -0.00000000000E+00  0.00000000000E+00  0.30092036760E+03  0.30092036760E+03  0.00000000000E+00 0.  1.
          2   -1    0    0  501    0  0.00000000000E+00 -0.00000000000E+00 -0.16022365315E+04  0.16022365315E+04  0.00000000000E+00 0. -1.
         23    2    1    2    0    0  0.23291580523E+03 -0.31491092548E+03 -0.25200949897E+03  0.47453306472E+03  0.90852510294E+02 0.  0.
        254    2    1    2    0    0 -0.23291580523E+03  0.31491092548E+03 -0.10493066649E+04  0.14286238344E+04  0.88684999846E+03 0.  0.
        -24    2    4    4    0    0  0.26595491640E+02  0.57148073204E+03 -0.76983917093E+03  0.96253962488E+03  0.80824705910E+02 0.  0.
         24    2    4    4    0    0 -0.25951129687E+03 -0.25656980656E+03 -0.27946749397E+03  0.46608420948E+03  0.77189580263E+02 0.  0.
         13    1    3    3    0    0  0.11964478171E+03 -0.13043810202E+03 -0.65290215387E+02  0.18865785029E+03  0.00000000000E+00 0. -1.
        -13    1    3    3    0    0  0.11327102352E+03 -0.18447282346E+03 -0.18671928359E+03  0.28587521444E+03  0.00000000000E+00 0.  1.
          4    1    6    6  502    0 -0.79822976396E+02 -0.50157562451E+02 -0.10699408486E+03  0.14260162281E+03  0.00000000000E+00 0. -1.
          1    1    5    5  503    0 -0.10083105400E+01  0.24097193405E+00  0.17950821676E+01  0.20729393639E+01  0.00000000000E+00 0. -1.
         -2    1    5    5    0  503  0.27603802180E+02  0.57123976011E+03 -0.77163425310E+03  0.96046668551E+03  0.00000000000E+00 0.  1.
         -3    1    6    6    0  502 -0.17968832048E+03 -0.20641224411E+03 -0.17247340911E+03  0.32348258667E+03  0.00000000000E+00 0.  1.
<mgrwt>
<rscale>  0 0.13887341E+04</rscale>
<asrwt>0</asrwt>
<pdfrwt beam="1">  1        2 0.24649792E+00 0.13887341E+04</pdfrwt>
<pdfrwt beam="2">  1       -2 0.46295442E-01 0.13887341E+04</pdfrwt>
<totfact> 0.47906144E+01</totfact>
</mgrwt>
</event>
<event>
12    1  0.1504874E-007  0.2162389E+04  0.7818608E-02  0.8534248E-01
          2   -1    0    0  501    0  0.00000000000E+00  0.00000000000E+00  0.99820933254E+03  0.99820933254E+03  0.00000000000E+00 0. -1.
         -2   -1    0    0    0  501 -0.00000000000E+00 -0.00000000000E+00 -0.11710782178E+04  0.11710782178E+04  0.00000000000E+00 0.  1.
         23    2    1    2    0    0 -0.77213471798E+03 -0.40127010016E+03  0.11348223704E+03  0.88235291444E+03  0.91971362488E+02 0.  0.
        254    2    1    2    0    0  0.77213471798E+03  0.40127010016E+03 -0.28635112233E+03  0.12869346359E+04  0.90387724604E+03 0.  0.
        -24    2    4    4    0    0  0.94083724275E+02 -0.41811643744E+02  0.26966879144E+03  0.30122941396E+03  0.86127475464E+02 0.  0.
         24    2    4    4    0    0  0.67805099370E+03  0.44308174390E+03 -0.55601991377E+03  0.98570522197E+03  0.79887785493E+02 0.  0.
         11    1    3    3    0    0 -0.32334093177E+03 -0.21386684313E+03  0.71351866402E+02  0.39418203103E+03  0.00000000000E+00 0. -1.
        -11    1    3    3    0    0 -0.44879378620E+03 -0.18740325703E+03  0.42130370635E+02  0.48817088341E+03  0.00000000000E+00 0.  1.
          2    1    6    6  502    0  0.59048985989E+03  0.36903447777E+03 -0.50514307567E+03  0.86025243232E+03  0.00000000000E+00 0. -1.
          1    1    5    5  503    0  0.98308959601E+02 -0.81846914630E+01  0.17819323813E+03  0.20367736945E+03  0.00000000000E+00 0. -1.
         -2    1    5    5    0  503 -0.42252353265E+01 -0.33626952281E+02  0.91475553311E+02  0.97552044504E+02  0.00000000000E+00 0.  1.
         -1    1    6    6    0  502  0.87561133814E+02  0.74047266126E+02 -0.50876838100E+02  0.12545278965E+03  0.00000000000E+00 0.  1.
<mgrwt>
<rscale>  0 0.21623887E+04</rscale>
<asrwt>0</asrwt>
<pdfrwt beam="1">  1        2 0.15357067E+00 0.21623887E+04</pdfrwt>
<pdfrwt beam="2">  1       -2 0.18016588E+00 0.21623887E+04</pdfrwt>
<totfact> 0.41868268E+00</totfact>
</mgrwt>
</event>
<event>
12    1  0.1504874E-007  0.1664267E+04  0.7818608E-02  0.8782011E-01
          2   -1    0    0  501    0  0.00000000000E+00  0.00000000000E+00  0.18588371219E+04  0.18588371219E+04  0.00000000000E+00 0. -1.
         -2   -1    0    0    0  501 -0.00000000000E+00 -0.00000000000E+00 -0.37251592048E+03  0.37251592048E+03  0.00000000000E+00 0.  1.
         23    2    1    2    0    0 -0.19827069948E+03  0.54617950812E+03  0.60670526312E+03  0.84472737849E+03  0.88598771560E+02 0.  0.
        254    2    1    2    0    0  0.19827069948E+03 -0.54617950812E+03  0.87961593827E+03  0.13866256639E+04  0.90076812082E+03 0.  0.
        -24    2    4    4    0    0  0.31346014657E+03 -0.50170088489E+03  0.11485151476E+03  0.60780822213E+03  0.79239655838E+02 0.  0.
         24    2    4    4    0    0 -0.11518944709E+03 -0.44478623224E+02  0.76476442351E+03  0.77881744174E+03  0.80280928266E+02 0.  0.
         11    1    3    3    0    0 -0.17564540765E+03  0.49413868689E+03  0.58023584962E+03  0.78211124035E+03  0.00000000000E+00 0.  1.
        -11    1    3    3    0    0 -0.22625291825E+02  0.52040821228E+02  0.26469413504E+02  0.62616138139E+02  0.00000000000E+00 0. -1.
          2    1    6    6  502    0 -0.65794109749E+02  0.16234372673E+02  0.30493132742E+03  0.31237082798E+03  0.00000000000E+00 0. -1.
          1    1    5    5  503    0  0.11182492057E+02 -0.54354137520E+02  0.23374221794E+02  0.60214405574E+02  0.00000000000E+00 0. -1.
         -2    1    5    5    0  503  0.30227765451E+03 -0.44734674737E+03  0.91477292967E+02  0.54759381656E+03  0.00000000000E+00 0.  1.
         -1    1    6    6    0  502 -0.49395337342E+02 -0.60712995897E+02  0.45983309610E+03  0.46644661376E+03  0.00000000000E+00 0.  1.
<mgrwt>
<rscale>  0 0.16642673E+04</rscale>
<asrwt>0</asrwt>
<pdfrwt beam="1">  1        2 0.28597494E+00 0.16642673E+04</pdfrwt>
<pdfrwt beam="2">  1       -2 0.57310143E-01 0.16642673E+04</pdfrwt>
<totfact> 0.21786294E+01</totfact>
</mgrwt>
</event>
<event>
12    1  0.1504874E-007  0.1506112E+04  0.7818608E-02  0.8880399E-01
          2   -1    0    0  501    0  0.00000000000E+00  0.00000000000E+00  0.16962670279E+04  0.16962670279E+04  0.00000000000E+00 0. -1.
         -2   -1    0    0    0  501 -0.00000000000E+00 -0.00000000000E+00 -0.33431850358E+03  0.33431850358E+03  0.00000000000E+00 0.  1.
         23    2    1    2    0    0  0.19391120374E+02  0.17346523228E+03 -0.15863009544E+03  0.25380227924E+03  0.93733064648E+02 0.  0.
        254    2    1    2    0    0 -0.19391120374E+02 -0.17346523228E+03  0.15205786198E+04  0.17767832523E+04  0.90240411358E+03 0.  0.
        -24    2    4    4    0    0 -0.28427534440E+03  0.98787435354E+02  0.12834037246E+04  0.13209571499E+04  0.85036714170E+02 0.  0.
         24    2    4    4    0    0  0.26488422403E+03 -0.27225266764E+03  0.23717489518E+03  0.45582610235E+03  0.85090172788E+02 0.  0.
         11    1    3    3    0    0 -0.15442067833E+02  0.10980192292E+03 -0.46500842493E+02  0.12023829710E+03  0.00000000000E+00 0. -1.
        -11    1    3    3    0    0  0.34833188207E+02  0.63663309358E+02 -0.11212925294E+03  0.13356398214E+03  0.00000000000E+00 0.  1.
          2    1    6    6  502    0  0.25908902366E+03 -0.27438156954E+03  0.21829976410E+03  0.43596691949E+03  0.00000000000E+00 0. -1.
          1    1    5    5  503    0 -0.18266627471E+03  0.10244874833E+03  0.92478839215E+03  0.94820687838E+03  0.00000000000E+00 0. -1.
         -2    1    5    5    0  503 -0.10160906969E+03 -0.36613129735E+01  0.35861533245E+03  0.37275027153E+03  0.00000000000E+00 0.  1.
         -1    1    6    6    0  502  0.57952003723E+01  0.21289019050E+01  0.18875131074E+02  0.19859182857E+02  0.00000000000E+00 0.  1.
<mgrwt>
<rscale>  0 0.15061122E+04</rscale>
<asrwt>0</asrwt>
<pdfrwt beam="1">  1        2 0.26096415E+00 0.15061122E+04</pdfrwt>
<pdfrwt beam="2">  1       -2 0.51433617E-01 0.15061122E+04</pdfrwt>
<totfact> 0.33981856E+01</totfact>
</mgrwt>
</event>
<event>
12    1  0.1504874E-007  0.1084087E+04  0.7818608E-02  0.9220842E-01
          2   -1    0    0  501    0  0.00000000000E+00  0.00000000000E+00  0.20317471197E+04  0.20317471197E+04  0.00000000000E+00 0.  1.
         -2   -1    0    0    0  501 -0.00000000000E+00 -0.00000000000E+00 -0.14461022618E+03  0.14461022618E+03  0.00000000000E+00 0. -1.
         23    2    1    2    0    0  0.96855762631E+02 -0.31272865408E+02  0.13205995292E+03  0.19016300716E+03  0.91450026041E+02 0.  0.
        254    2    1    2    0    0 -0.96855762631E+02  0.31272865408E+02  0.17550769406E+04  0.19861943387E+04  0.92429100008E+03 0.  0.
        -24    2    4    4    0    0 -0.59838785382E+02  0.36634751185E+03  0.15199830243E+04  0.15666852117E+04  0.79768280818E+02 0.  0.
         24    2    4    4    0    0 -0.37016977249E+02 -0.33507464644E+03  0.23509391632E+03  0.41950912706E+03  0.84104000522E+02 0.  0.
         11    1    3    3    0    0  0.43010722824E+02 -0.12673402544E+02  0.12495284652E+03  0.13275447738E+03  0.00000000000E+00 0.  1.
        -11    1    3    3    0    0  0.53845039807E+02 -0.18599462865E+02  0.71071063938E+01  0.57408529784E+02  0.00000000000E+00 0. -1.
          2    1    6    6  502    0 -0.40854792609E+02 -0.32767208883E+03  0.24141406958E+03  0.40904628696E+03  0.00000000000E+00 0. -1.
          1    1    5    5  503    0 -0.77253664300E+02  0.25667714315E+03  0.10343441164E+04  0.10685125342E+04  0.00000000000E+00 0. -1.
         -2    1    5    5    0  503  0.17414878918E+02  0.10967036870E+03  0.48563890786E+03  0.49817267750E+03  0.00000000000E+00 0.  1.
         -1    1    6    6    0  502  0.38378153597E+01 -0.74025576073E+01 -0.63201532594E+01  0.10462840106E+02  0.00000000000E+00 0.  1.
<mgrwt>
<rscale>  0 0.10840875E+04</rscale>
<asrwt>0</asrwt>
<pdfrwt beam="1">  1        2 0.31257646E+00 0.10840875E+04</pdfrwt>
<pdfrwt beam="2">  1       -2 0.22247728E-01 0.10840875E+04</pdfrwt>
<totfact> 0.11312786E+02</totfact>
</mgrwt>
</event>
<event>
12    1  0.1504874E-007  0.1991532E+04  0.7818608E-02  0.8610590E-01
          2   -1    0    0  501    0  0.00000000000E+00  0.00000000000E+00  0.26313058961E+04  0.26313058961E+04  0.00000000000E+00 0.  1.
         -2   -1    0    0    0  501 -0.00000000000E+00 -0.00000000000E+00 -0.37682810726E+03  0.37682810726E+03  0.00000000000E+00 0. -1.
         23    2    1    2    0    0  0.70987650829E+03 -0.10120560606E+03  0.14098387432E+04  0.15843497097E+04  0.91386482793E+02 0.  0.
        254    2    1    2    0    0 -0.70987650829E+03  0.10120560606E+03  0.84463904568E+03  0.14237842936E+04  0.89419201833E+03 0.  0.
        -24    2    4    4    0    0 -0.30280637147E+03 -0.61966394569E+02  0.91905143863E+03  0.97291386052E+03  0.79839216517E+02 0.  0.
         24    2    4    4    0    0 -0.40707013681E+03  0.16317200063E+03 -0.74412392950E+02  0.45087043312E+03  0.73591746590E+02 0.  0.
         11    1    3    3    0    0  0.61144712744E+03 -0.62093450712E+02  0.12446834666E+04  0.13881498905E+04  0.00000000000E+00 0.  1.
        -11    1    3    3    0    0  0.98429380845E+02 -0.39112155347E+02  0.16515527652E+03  0.19619981924E+03  0.00000000000E+00 0. -1.
          2    1    6    6  502    0 -0.10264496848E+02  0.66708909336E+01 -0.16288276551E+02  0.20375687335E+02  0.00000000000E+00 0. -1.
          1    1    5    5  503    0 -0.25377307487E+02  0.14770212383E+02  0.12184031481E+03  0.12532848528E+03  0.00000000000E+00 0. -1.
         -2    1    5    5    0  503 -0.27742906399E+03 -0.76736606952E+02  0.79721112382E+03  0.84758537525E+03  0.00000000000E+00 0.  1.
         -1    1    6    6    0  502 -0.39680563997E+03  0.15650110969E+03 -0.58124116399E+02  0.43049474579E+03  0.00000000000E+00 0.  1.
<mgrwt>
<rscale>  0 0.19915321E+04</rscale>
<asrwt>0</asrwt>
<pdfrwt beam="1">  1        2 0.40481628E+00 0.19915321E+04</pdfrwt>
<pdfrwt beam="2">  1       -2 0.57973557E-01 0.19915321E+04</pdfrwt>
<totfact> 0.75582245E+00</totfact>
</mgrwt>
</event>
<event>
12    1  0.1504874E-007  0.1894110E+04  0.7818608E-02  0.8657794E-01
          2   -1    0    0  501    0  0.00000000000E+00  0.00000000000E+00  0.25309403164E+04  0.25309403164E+04  0.00000000000E+00 0. -1.
         -2   -1    0    0    0  501 -0.00000000000E+00 -0.00000000000E+00 -0.35437960890E+03  0.35437960890E+03  0.00000000000E+00 0.  1.
         23    2    1    2    0    0  0.46531964364E+03  0.48588580620E+03  0.12692576356E+04  0.14393868086E+04  0.90620370875E+02 0.  0.
        254    2    1    2    0    0 -0.46531964364E+03 -0.48588580620E+03  0.90730307189E+03  0.14459331168E+04  0.90272716058E+03 0.  0.
        -24    2    4    4    0    0 -0.18716163454E+03  0.25671464797E+03  0.30323753513E+03  0.44586039656E+03  0.76854424633E+02 0.  0.
         24    2    4    4    0    0 -0.27815800911E+03 -0.74260045417E+03  0.60406553676E+03  0.10000727202E+04  0.80143374127E+02 0.  0.
         13    1    3    3    0    0  0.29718278200E+03  0.25894163169E+03  0.79618424649E+03  0.88841303958E+03  0.00000000000E+00 0. -1.
        -13    1    3    3    0    0  0.16813686164E+03  0.22694417451E+03  0.47307338913E+03  0.55097376897E+03  0.00000000000E+00 0.  1.
          2    1    6    6  502    0 -0.26164668596E+03 -0.67502830700E+03  0.52219641426E+03  0.89264287293E+03  0.00000000000E+00 0. -1.
          1    1    5    5  503    0 -0.18800545345E+03  0.23233729934E+03  0.25964106926E+03  0.39590422584E+03  0.00000000000E+00 0. -1.
         -2    1    5    5    0  503  0.84381891598E+00  0.24377348626E+02  0.43596465873E+02  0.49956170720E+02  0.00000000000E+00 0.  1.
         -1    1    6    6    0  502 -0.16511323149E+02 -0.67572147171E+02  0.81869122496E+02  0.10742984727E+03  0.00000000000E+00 0.  1.
<mgrwt>
<rscale>  0 0.18941105E+04</rscale>
<asrwt>0</asrwt>
<pdfrwt beam="1">  1        2 0.38937542E+00 0.18941105E+04</pdfrwt>
<pdfrwt beam="2">  1       -2 0.54519941E-01 0.18941105E+04</pdfrwt>
<totfact> 0.99180074E+00</totfact>
</mgrwt>
</event>
<event>
12    1  0.1504874E-007  0.1469906E+04  0.7818608E-02  0.8904715E-01
         -2   -1    0    0    0  501 -0.00000000000E+00  0.00000000000E+00  0.30176903439E+03  0.30176903439E+03  0.00000000000E+00 0. -1.
          2   -1    0    0  501    0  0.00000000000E+00 -0.00000000000E+00 -0.17899653814E+04  0.17899653814E+04  0.00000000000E+00 0.  1.
         23    2    1    2    0    0  0.43343566167E+03 -0.32447035309E+01 -0.34079898967E+03  0.55908859610E+03  0.92515436676E+02 0.  0.
        254    2    1    2    0    0 -0.43343566167E+03  0.32447035309E+01 -0.11473973573E+04  0.15326458197E+04  0.91902421733E+03 0.  0.
        -24    2    4    4    0    0 -0.30134606301E+02 -0.15040533435E+03  0.10711476872E+03  0.20353784705E+03  0.80151247056E+02 0.  0.
         24    2    4    4    0    0 -0.40330105536E+03  0.15365003788E+03 -0.12545121260E+04  0.13291079726E+04  0.80419233323E+02 0.  0.
         11    1    3    3    0    0  0.22803353975E+02 -0.10091648691E+02 -0.49986617822E+02  0.55861402481E+02  0.00000000000E+00 0.  1.
        -11    1    3    3    0    0  0.41063230769E+03  0.68469451600E+01 -0.29081237185E+03  0.50322719362E+03  0.00000000000E+00 0. -1.
          2    1    6    6  502    0 -0.31707469806E+03  0.15424794258E+03 -0.10226528342E+04  0.10817336138E+04  0.00000000000E+00 0. -1.
          3    1    5    5  503    0 -0.33021923486E+02 -0.15595896881E+03  0.11263426340E+03  0.19519253233E+03  0.00000000000E+00 0. -1.
         -2    1    5    5    0  503  0.28873171847E+01  0.55536344586E+01 -0.55194946851E+01  0.83453147217E+01  0.00000000000E+00 0.  1.
         -1    1    6    6    0  502 -0.86226357308E+02 -0.59790469435E+00 -0.23185929187E+03  0.24737435884E+03  0.00000000000E+00 0.  1.
<mgrwt>
<rscale>  0 0.14699063E+04</rscale>
<asrwt>0</asrwt>
<pdfrwt beam="1">  1        2 0.27537929E+00 0.14699063E+04</pdfrwt>
<pdfrwt beam="2">  1       -2 0.46426006E-01 0.14699063E+04</pdfrwt>
<totfact> 0.37228277E+01</totfact>
</mgrwt>
</event>
<event>
12    1  0.1504874E-007  0.1492751E+04  0.7818608E-02  0.8889288E-01
          1   -1    0    0  501    0  0.00000000000E+00  0.00000000000E+00  0.26691369512E+04  0.26691369512E+04  0.00000000000E+00 0. -1.
         -1   -1    0    0    0  501 -0.00000000000E+00 -0.00000000000E+00 -0.20871026692E+03  0.20871026692E+03  0.00000000000E+00 0.  1.
         23    2    1    2    0    0 -0.26309477262E+03 -0.13817164084E+03  0.14963212934E+04  0.15276228837E+04  0.79649230900E+02 0.  0.
        254    2    1    2    0    0  0.26309477262E+03  0.13817164084E+03  0.96410539088E+03  0.13502243344E+04  0.89738302125E+03 0.  0.
        -24    2    4    4    0    0  0.50949678488E+03  0.10116384320E+03  0.95296163576E+03  0.10882725395E+04  0.79875804073E+02 0.  0.
         24    2    4    4    0    0 -0.24640201226E+03  0.37007797639E+02  0.11143755126E+02  0.26195179490E+03  0.80068913080E+02 0.  0.
         13    1    3    3    0    0 -0.10614186517E+03 -0.43841125091E+02  0.40180844268E+03  0.41789731322E+03  0.00000000000E+00 0.  1.
        -13    1    3    3    0    0 -0.15695290745E+03 -0.94330515747E+02  0.10945128507E+04  0.11097255705E+04  0.00000000000E+00 0. -1.
          4    1    6    6  502    0 -0.22161398962E+03  0.38508177771E+02 -0.15576532257E+02  0.22547343194E+03  0.00000000000E+00 0. -1.
          1    1    5    5  503    0  0.38416617415E+03  0.85238522626E+02  0.64724653216E+03  0.75748090966E+03  0.00000000000E+00 0. -1.
         -2    1    5    5    0  503  0.12533061073E+03  0.15925320574E+02  0.30571510359E+03  0.33079162986E+03  0.00000000000E+00 0.  1.
         -3    1    6    6    0  502 -0.24788022638E+02 -0.15003801322E+01  0.26720287383E+02  0.36478362966E+02  0.00000000000E+00 0.  1.
<mgrwt>
<rscale>  0 0.14927509E+04</rscale>
<asrwt>0</asrwt>
<pdfrwt beam="1">  1        1 0.41063643E+00 0.14927509E+04</pdfrwt>
<pdfrwt beam="2">  1       -1 0.32109274E-01 0.14927509E+04</pdfrwt>
<totfact> 0.90724970E+00</totfact>
</mgrwt>
</event>
<event>
12    1  0.1504874E-007  0.4660527E+04  0.7818608E-02  0.7883120E-01
          1   -1    0    0  501    0  0.00000000000E+00  0.00000000000E+00  0.30009717519E+04  0.30009717519E+04  0.00000000000E+00 0. -1.
         -1   -1    0    0    0  501 -0.00000000000E+00 -0.00000000000E+00 -0.18094568246E+04  0.18094568246E+04  0.00000000000E+00 0.  1.
         23    2    1    2    0    0  0.35266946680E+02  0.42681906066E+03 -0.16990244782E+04  0.17541864747E+04  0.84069865919E+02 0.  0.
        254    2    1    2    0    0 -0.35266946680E+02 -0.42681906066E+03  0.28905394056E+04  0.30562421018E+04  0.89553306024E+03 0.  0.
        -24    2    4    4    0    0  0.16287946538E+03  0.20456970652E+03  0.45174049991E+03  0.52805056723E+03  0.79933955414E+02 0.  0.
         24    2    4    4    0    0 -0.19814641206E+03 -0.63138876718E+03  0.24387989056E+04  0.25281915346E+04  0.78093262255E+02 0.  0.
         13    1    3    3    0    0  0.23090982233E+02  0.23421550317E+03 -0.76295431334E+03  0.79842932037E+03  0.00000000000E+00 0. -1.
        -13    1    3    3    0    0  0.12175964447E+02  0.19260355749E+03 -0.93607016489E+03  0.95575715433E+03  0.00000000000E+00 0.  1.
          4    1    6    6  502    0 -0.17586726800E+03 -0.60476289652E+03  0.22635789496E+04  0.23495653041E+04  0.00000000000E+00 0. -1.
          1    1    5    5  503    0  0.13801825323E+03  0.19682927891E+03  0.36154891600E+03  0.43417556578E+03  0.00000000000E+00 0. -1.
         -2    1    5    5    0  503  0.24861212148E+02  0.77404276091E+01  0.90191583915E+02  0.93875001455E+02  0.00000000000E+00 0.  1.
         -3    1    6    6    0  502 -0.22279144057E+02 -0.26625870665E+02  0.17521995600E+03  0.17862623052E+03  0.00000000000E+00 0.  1.
<mgrwt>
<rscale>  0 0.46605274E+04</rscale>
<asrwt>0</asrwt>
<pdfrwt beam="1">  1        1 0.46168796E+00 0.46605274E+04</pdfrwt>
<pdfrwt beam="2">  1       -1 0.27837797E+00 0.46605274E+04</pdfrwt>
<totfact> 0.20178342E-02</totfact>
</mgrwt>
</event>
<event>
12    1  0.1504874E-007  0.2593804E+04  0.7818608E-02  0.8370309E-01
          2   -1    0    0  501    0  0.00000000000E+00  0.00000000000E+00  0.40609822392E+04  0.40609822392E+04  0.00000000000E+00 0. -1.
         -2   -1    0    0    0  501 -0.00000000000E+00 -0.00000000000E+00 -0.41417433498E+03  0.41417433498E+03  0.00000000000E+00 0.  1.
         23    2    1    2    0    0  0.81512261172E+03  0.30687098760E+03  0.28731793581E+04  0.30038030192E+04  0.95280007089E+02 0.  0.
        254    2    1    2    0    0 -0.81512261172E+03 -0.30687098760E+03  0.77362854617E+03  0.14713535549E+04  0.89876886962E+03 0.  0.
        -24    2    4    4    0    0 -0.32131672048E+03  0.31295074539E+03  0.27225166836E+03  0.53010510660E+03  0.75550309213E+02 0.  0.
         24    2    4    4    0    0 -0.49380589123E+03 -0.61982173299E+03  0.50137687782E+03  0.94124844833E+03  0.80911241312E+02 0.  0.
         13    1    3    3    0    0  0.43964192949E+03  0.12040339653E+03  0.14211528211E+04  0.14924668656E+04  0.00000000000E+00 0.  1.
        -13    1    3    3    0    0  0.37548068223E+03  0.18646759107E+03  0.14520265370E+04  0.15113361536E+04  0.00000000000E+00 0. -1.
          4    1    6    6  502    0 -0.15142695809E+03 -0.14135763796E+03  0.10917989582E+03  0.23416309508E+03  0.00000000000E+00 0. -1.
          1    1    5    5  503    0 -0.15248732863E+03  0.16117499787E+03  0.17734102959E+03  0.28404155701E+03  0.00000000000E+00 0. -1.
         -2    1    5    5    0  503 -0.16882939185E+03  0.15177574752E+03  0.94910638764E+02  0.24606354959E+03  0.00000000000E+00 0.  1.
         -3    1    6    6    0  502 -0.34237893314E+03 -0.47846409503E+03  0.39219698199E+03  0.70708535325E+03  0.00000000000E+00 0.  1.
<mgrwt>
<rscale>  0 0.25938039E+04</rscale>
<asrwt>0</asrwt>
<pdfrwt beam="1">  1        2 0.62476647E+00 0.25938039E+04</pdfrwt>
<pdfrwt beam="2">  1       -2 0.63719131E-01 0.25938039E+04</pdfrwt>
<totfact> 0.61664743E-01</totfact>
</mgrwt>
</event>
<event>
12    1  0.1504874E-007  0.1422934E+04  0.7818608E-02  0.8937383E-01
          2   -1    0    0  501    0  0.00000000000E+00  0.00000000000E+00  0.79912827446E+03  0.79912827446E+03  0.00000000000E+00 0. -1.
         -2   -1    0    0    0  501 -0.00000000000E+00 -0.00000000000E+00 -0.63342209014E+03  0.63342209014E+03  0.00000000000E+00 0.  1.
         23    2    1    2    0    0 -0.86083378381E+02 -0.28690039705E+03 -0.25295938517E+03  0.40238690058E+03  0.90579144104E+02 0.  0.
        254    2    1    2    0    0  0.86083378381E+02  0.28690039705E+03  0.41866556949E+03  0.10301634640E+04  0.89231929132E+03 0.  0.
        -24    2    4    4    0    0  0.27359661796E+03 -0.24163445471E+03  0.19030620851E+03  0.41927659614E+03  0.79587009042E+02 0.  0.
         24    2    4    4    0    0 -0.18751323958E+03  0.52853485176E+03  0.22835936097E+03  0.61088686788E+03  0.80774148510E+02 0.  0.
         11    1    3    3    0    0 -0.62961318286E+02 -0.25113382374E+03 -0.24965958886E+03  0.35966961970E+03  0.00000000000E+00 0.  1.
        -11    1    3    3    0    0 -0.23122060095E+02 -0.35766573316E+02 -0.32997963115E+01  0.42717280877E+02  0.00000000000E+00 0. -1.
          2    1    6    6  502    0 -0.14014747154E+03  0.28790855968E+03  0.14852088184E+03  0.35297465187E+03  0.00000000000E+00 0. -1.
          1    1    5    5  503    0  0.27242300038E+03 -0.21538260223E+03  0.17532437049E+03  0.38902775141E+03  0.00000000000E+00 0. -1.
         -2    1    5    5    0  503  0.11736175804E+01 -0.26251852480E+02  0.14981838021E+02  0.30248844727E+02  0.00000000000E+00 0.  1.
         -1    1    6    6    0  502 -0.47365768034E+02  0.24062629208E+03  0.79838479134E+02  0.25791221602E+03  0.00000000000E+00 0.  1.
<mgrwt>
<rscale>  0 0.14229343E+04</rscale>
<asrwt>0</asrwt>
<pdfrwt beam="1">  1        2 0.12294281E+00 0.14229343E+04</pdfrwt>
<pdfrwt beam="2">  1       -2 0.97449552E-01 0.14229343E+04</pdfrwt>
<totfact> 0.29436789E+01</totfact>
</mgrwt>
</event>
<event>
12    1  0.1504874E-007  0.1819461E+04  0.7818608E-02  0.8696018E-01
         -2   -1    0    0    0  501 -0.00000000000E+00  0.00000000000E+00  0.47755658588E+03  0.47755658588E+03  0.00000000000E+00 0.  1.
          2   -1    0    0  501    0  0.00000000000E+00 -0.00000000000E+00 -0.17330076876E+04  0.17330076876E+04  0.00000000000E+00 0. -1.
         23    2    1    2    0    0 -0.36942181507E+03 -0.28667769467E+03  0.14122995988E+03  0.49686658486E+03  0.90961109885E+02 0.  0.
        254    2    1    2    0    0  0.36942181507E+03  0.28667769467E+03 -0.13966810615E+04  0.17136976886E+04  0.87600525231E+03 0.  0.
        -24    2    4    4    0    0  0.57603880568E+03  0.32691780552E+03 -0.64155223547E+03  0.92559004792E+03  0.80197934856E+02 0.  0.
         24    2    4    4    0    0 -0.20661699060E+03 -0.40240110853E+02 -0.75512882608E+03  0.78810764066E+03  0.81143465324E+02 0.  0.
         13    1    3    3    0    0 -0.13394955034E+03 -0.53413572759E+02  0.30385417300E+02  0.14737287869E+03  0.00000000000E+00 0. -1.
        -13    1    3    3    0    0 -0.23547226474E+03 -0.23326412191E+03  0.11084454258E+03  0.34949370616E+03  0.00000000000E+00 0.  1.
          4    1    6    6  502    0 -0.12227585065E+03 -0.48616787390E+02 -0.34345031669E+03  0.36779490984E+03  0.00000000000E+00 0. -1.
          1    1    5    5  503    0  0.33836921458E+02  0.41798218677E+02 -0.64826406248E+02  0.84228803181E+02  0.00000000000E+00 0. -1.
         -2    1    5    5    0  503  0.54220188422E+03  0.28511958684E+03 -0.57672582922E+03  0.84136124473E+03  0.00000000000E+00 0.  1.
         -3    1    6    6    0  502 -0.84341139951E+02  0.83766765369E+01 -0.41167850939E+03  0.42031273082E+03  0.00000000000E+00 0.  1.
<mgrwt>
<rscale>  0 0.18194606E+04</rscale>
<asrwt>0</asrwt>
<pdfrwt beam="1">  1        2 0.26661657E+00 0.18194606E+04</pdfrwt>
<pdfrwt beam="2">  1       -2 0.73470243E-01 0.18194606E+04</pdfrwt>
<totfact> 0.14808995E+01</totfact>
</mgrwt>
</event>
<event>
12    1  0.1504874E-007  0.1302903E+04  0.7818608E-02  0.9027266E-01
         -2   -1    0    0    0  501 -0.00000000000E+00  0.00000000000E+00  0.26361686028E+03  0.26361686028E+03  0.00000000000E+00 0.  1.
          2   -1    0    0  501    0  0.00000000000E+00 -0.00000000000E+00 -0.16098715959E+04  0.16098715959E+04  0.00000000000E+00 0. -1.
         23    2    1    2    0    0  0.13462803063E+03 -0.16055213665E+03  0.75822594638E+01  0.22922101176E+03  0.92644947849E+02 0.  0.
        254    2    1    2    0    0 -0.13462803063E+03  0.16055213665E+03 -0.13538369951E+04  0.16442674444E+04  0.90930694723E+03 0.  0.
        -24    2    4    4    0    0 -0.46961262002E+03  0.21390893987E+03 -0.50352409166E+03  0.72532134019E+03  0.79129565941E+02 0.  0.
         24    2    4    4    0    0  0.33498458939E+03 -0.53356803224E+02 -0.85031290343E+03  0.91894610423E+03  0.79801536083E+02 0.  0.
         13    1    3    3    0    0  0.11694649910E+03 -0.16758724412E+03 -0.81652917638E+01  0.20452051249E+03  0.00000000000E+00 0.  1.
        -13    1    3    3    0    0  0.17681531531E+02  0.70351074693E+01  0.15747551228E+02  0.24700499267E+02  0.00000000000E+00 0. -1.
          2    1    6    6  502    0 -0.26950845802E+01 -0.52130389361E+01 -0.29570631260E+02  0.30147329715E+02  0.00000000000E+00 0. -1.
          1    1    5    5  503    0 -0.13824636926E+03  0.25216903153E+02 -0.14493875306E+03  0.20187915434E+03  0.00000000000E+00 0. -1.
         -2    1    5    5    0  503 -0.33136625076E+03  0.18869203672E+03 -0.35858533860E+03  0.52344218585E+03  0.00000000000E+00 0.  1.
         -1    1    6    6    0  502  0.33767967398E+03 -0.48143764287E+02 -0.82074227217E+03  0.88879877452E+03  0.00000000000E+00 0.  1.
<mgrwt>
<rscale>  0 0.13029034E+04</rscale>
<asrwt>0</asrwt>
<pdfrwt beam="1">  1        2 0.24767256E+00 0.13029034E+04</pdfrwt>
<pdfrwt beam="2">  1       -2 0.40556439E-01 0.13029034E+04</pdfrwt>
<totfact> 0.62091876E+01</totfact>
</mgrwt>
</event>
<event>
12    1  0.1504874E-007  0.2439376E+04  0.7818608E-02  0.8424907E-01
          2   -1    0    0  501    0  0.00000000000E+00  0.00000000000E+00  0.14597193187E+04  0.14597193187E+04  0.00000000000E+00 0. -1.
         -2   -1    0    0    0  501 -0.00000000000E+00 -0.00000000000E+00 -0.10191269706E+04  0.10191269706E+04  0.00000000000E+00 0.  1.
         23    2    1    2    0    0  0.86069171121E+03  0.30021548659E+03  0.72781084974E+03  0.11701477280E+04  0.92830556689E+02 0.  0.
        254    2    1    2    0    0 -0.86069171121E+03 -0.30021548659E+03 -0.28721850164E+03  0.13086985614E+04  0.89402343185E+03 0.  0.
        -24    2    4    4    0    0  0.13259120577E+03 -0.12615219117E+03 -0.21662560849E+03  0.29463164852E+03  0.79914647428E+02 0.  0.
         24    2    4    4    0    0 -0.99328291698E+03 -0.17406329543E+03 -0.70592893160E+02  0.10140669128E+04  0.80245642835E+02 0.  0.
         11    1    3    3    0    0  0.70157574804E+03  0.22168161877E+03  0.54705833911E+03  0.91685554845E+03  0.00000000000E+00 0. -1.
        -11    1    3    3    0    0  0.15911596317E+03  0.78533867818E+02  0.18075251063E+03  0.25329217957E+03  0.00000000000E+00 0.  1.
          2    1    6    6  502    0 -0.93446945748E+03 -0.16928200249E+03 -0.84538264719E+02  0.95343394188E+03  0.00000000000E+00 0. -1.
          1    1    5    5  503    0  0.10446993321E+03 -0.47688281599E+02 -0.14312941034E+03  0.18350522404E+03  0.00000000000E+00 0. -1.
         -2    1    5    5    0  503  0.28121272562E+02 -0.78463909568E+02 -0.73496198143E+02  0.11112642448E+03  0.00000000000E+00 0.  1.
         -1    1    6    6    0  502 -0.58813459498E+02 -0.47812929312E+01  0.13945371559E+02  0.60632970966E+02  0.00000000000E+00 0.  1.
<mgrwt>
<rscale>  0 0.24393764E+04</rscale>
<asrwt>0</asrwt>
<pdfrwt beam="1">  1        2 0.22457220E+00 0.24393764E+04</pdfrwt>
<pdfrwt beam="2">  1       -2 0.15678876E+00 0.24393764E+04</pdfrwt>
<totfact> 0.31921493E+00</totfact>
</mgrwt>
</event>
<event>
12    1  0.1504874E-007  0.1652890E+04  0.7818608E-02  0.8788699E-01
          1   -1    0    0  501    0  0.00000000000E+00  0.00000000000E+00  0.13036540845E+04  0.13036540845E+04  0.00000000000E+00 0. -1.
         -1   -1    0    0    0  501 -0.00000000000E+00 -0.00000000000E+00 -0.52392073807E+03  0.52392073807E+03  0.00000000000E+00 0.  1.
         23    2    1    2    0    0  0.60822814706E+03 -0.14648760352E+03  0.21412980593E+03  0.66777550644E+03  0.93126024006E+02 0.  0.
        254    2    1    2    0    0 -0.60822814706E+03  0.14648760352E+03  0.56560354052E+03  0.11597993161E+04  0.79613252152E+03 0.  0.
        -24    2    4    4    0    0  0.10169083643E+03  0.88383188735E+02 -0.95940727897E+02  0.18440929328E+03  0.81544772451E+02 0.  0.
         24    2    4    4    0    0 -0.70991898349E+03  0.58104414788E+02  0.66154426842E+03  0.97539002287E+03  0.79898632598E+02 0.  0.
         11    1    3    3    0    0  0.26347409040E+03 -0.27105735173E+02  0.12125631176E+03  0.29130123641E+03  0.00000000000E+00 0. -1.
        -11    1    3    3    0    0  0.34475405666E+03 -0.11938186835E+03  0.92873494172E+02  0.37647427003E+03  0.00000000000E+00 0.  1.
          2    1    6    6  502    0 -0.51857335012E+03  0.73825486470E+02  0.50614548185E+03  0.72838984802E+03  0.00000000000E+00 0. -1.
          3    1    5    5  503    0  0.98075357053E+02  0.38203339237E+02 -0.77966614779E+02  0.13098497551E+03  0.00000000000E+00 0. -1.
         -4    1    5    5    0  503  0.36154793804E+01  0.50179849498E+02 -0.17974113118E+02  0.53424317770E+02  0.00000000000E+00 0.  1.
         -1    1    6    6    0  502 -0.19134563338E+03 -0.15721071683E+02  0.15539878657E+03  0.24700017485E+03  0.00000000000E+00 0.  1.
<mgrwt>
<rscale>  0 0.16528901E+04</rscale>
<asrwt>0</asrwt>
<pdfrwt beam="1">  1        1 0.20056217E+00 0.16528901E+04</pdfrwt>
<pdfrwt beam="2">  1       -1 0.80603191E-01 0.16528901E+04</pdfrwt>
<totfact> 0.13186694E+01</totfact>
</mgrwt>
</event>
<event>
12    1  0.1504874E-007  0.1310061E+04  0.7818608E-02  0.9021624E-01
         -1   -1    0    0    0  501 -0.00000000000E+00  0.00000000000E+00  0.43426941623E+03  0.43426941623E+03  0.00000000000E+00 0. -1.
          1   -1    0    0  501    0  0.00000000000E+00 -0.00000000000E+00 -0.98801589165E+03  0.98801589165E+03  0.00000000000E+00 0.  1.
         23    2    1    2    0    0 -0.19191170812E+03  0.19911170106E+02  0.15655651670E+03  0.26479371936E+03  0.91538038457E+02 0.  0.
        254    2    1    2    0    0  0.19191170812E+03 -0.19911170106E+02 -0.71030299212E+03  0.11574915885E+04  0.89332518070E+03 0.  0.
        -24    2    4    4    0    0  0.26567356335E+03  0.10126209676E+03 -0.87606884204E+03  0.92433221027E+03  0.77826502123E+02 0.  0.
         24    2    4    4    0    0 -0.73761855230E+02 -0.12117326687E+03  0.16576584992E+03  0.23315937825E+03  0.82226557606E+02 0.  0.
         13    1    3    3    0    0 -0.15345899231E+03  0.22326549068E+02  0.16383009890E+03  0.22558465910E+03  0.00000000000E+00 0. -1.
        -13    1    3    3    0    0 -0.38452715805E+02 -0.24153789622E+01 -0.72735822062E+01  0.39209060260E+02  0.00000000000E+00 0.  1.
          4    1    6    6  502    0 -0.68931106750E+02 -0.11113327506E+03  0.95292909124E+02  0.16181112704E+03  0.00000000000E+00 0. -1.
          1    1    5    5  503    0  0.50495499265E+02  0.43502369961E+02 -0.13598512334E+03  0.15144043518E+03  0.00000000000E+00 0. -1.
         -2    1    5    5    0  503  0.21517806408E+03  0.57759726803E+02 -0.74008371870E+03  0.77289177508E+03  0.00000000000E+00 0.  1.
         -3    1    6    6    0  502 -0.48307484793E+01 -0.10039991805E+02  0.70472940801E+02  0.71348251215E+02  0.00000000000E+00 0.  1.
<mgrwt>
<rscale>  0 0.13100612E+04</rscale>
<asrwt>0</asrwt>
<pdfrwt beam="1">  1        1 0.15200244E+00 0.13100612E+04</pdfrwt>
<pdfrwt beam="2">  1       -1 0.66810679E-01 0.13100612E+04</pdfrwt>
<totfact> 0.34460532E+01</totfact>
</mgrwt>
</event>
<event>
12    1  0.1504874E-007  0.1995454E+04  0.7818608E-02  0.8608749E-01
          1   -1    0    0  501    0  0.00000000000E+00  0.00000000000E+00  0.18771335325E+04  0.18771335325E+04  0.00000000000E+00 0. -1.
         -1   -1    0    0    0  501 -0.00000000000E+00 -0.00000000000E+00 -0.53030836173E+03  0.53030836173E+03  0.00000000000E+00 0.  1.
         23    2    1    2    0    0 -0.11515141439E+02  0.40297222879E+03 -0.28661875860E+03  0.50251341153E+03  0.88601356218E+02 0.  0.
        254    2    1    2    0    0  0.11515141439E+02 -0.40297222879E+03  0.16334439294E+04  0.19049284827E+04  0.89336120250E+03 0.  0.
        -24    2    4    4    0    0 -0.16624640502E+03 -0.24642951969E+03  0.62503027832E+02  0.31431155939E+03  0.80744984463E+02 0.  0.
         24    2    4    4    0    0  0.17776154646E+03 -0.15654270910E+03  0.15709409015E+04  0.15906169233E+04  0.78115897372E+02 0.  0.
         13    1    3    3    0    0  0.30050891118E+01  0.56115772112E+02 -0.82408094658E+02  0.99745197907E+02  0.00000000000E+00 0. -1.
        -13    1    3    3    0    0 -0.14520230551E+02  0.34685645668E+03 -0.20421066395E+03  0.40276821362E+03  0.00000000000E+00 0.  1.
          4    1    6    6  502    0  0.13898790132E+03 -0.15756833241E+03  0.13611106506E+04  0.13772318684E+04  0.00000000000E+00 0. -1.
          1    1    5    5  503    0 -0.14637518833E+03 -0.20047508276E+03  0.20699375817E+02  0.24908717094E+03  0.00000000000E+00 0. -1.
         -2    1    5    5    0  503 -0.19871216694E+02 -0.45954436934E+02  0.41803652015E+02  0.65224388450E+02  0.00000000000E+00 0.  1.
         -3    1    6    6    0  502  0.38773645146E+02  0.10256233069E+01  0.20983025093E+03  0.21338505492E+03  0.00000000000E+00 0.  1.
<mgrwt>
<rscale>  0 0.19954544E+04</rscale>
<asrwt>0</asrwt>
<pdfrwt beam="1">  1        1 0.28878977E+00 0.19954544E+04</pdfrwt>
<pdfrwt beam="2">  1       -1 0.81585903E-01 0.19954544E+04</pdfrwt>
<totfact> 0.50116840E+00</totfact>
</mgrwt>
</event>
<event>
12    1  0.1504874E-007  0.2038464E+04  0.7818608E-02  0.8588846E-01
          2   -1    0    0  501    0  0.00000000000E+00  0.00000000000E+00  0.21114722786E+04  0.21114722786E+04  0.00000000000E+00 0.  1.
         -2   -1    0    0    0  501 -0.00000000000E+00 -0.00000000000E+00 -0.49199520801E+03  0.49199520801E+03  0.00000000000E+00 0. -1.
         23    2    1    2    0    0 -0.59250498986E+03  0.18466229570E+03 -0.16977234968E+02  0.62768085380E+03  0.92372621812E+02 0.  0.
        254    2    1    2    0    0  0.59250498986E+03 -0.18466229570E+03  0.16364543056E+04  0.19757866328E+04  0.91683575286E+03 0.  0.
        -24    2    4    4    0    0  0.32835668677E+03  0.23781062608E+03  0.13129066513E+04  0.13764492117E+04  0.80725150306E+02 0.  0.
         24    2    4    4    0    0  0.26414830308E+03 -0.42247292179E+03  0.32354765430E+03  0.59933742108E+03  0.79148999016E+02 0.  0.
         11    1    3    3    0    0 -0.48903818952E+03  0.12047748515E+03  0.63915567121E+01  0.50370033476E+03  0.00000000000E+00 0. -1.
        -11    1    3    3    0    0 -0.10346680034E+03  0.64184810553E+02 -0.23368791680E+02  0.12398051905E+03  0.00000000000E+00 0.  1.
          4    1    6    6  502    0  0.93599937950E+01 -0.29324042021E+02  0.44273795665E+02  0.53922888525E+02  0.00000000000E+00 0. -1.
          3    1    5    5  503    0  0.10422668786E+03  0.65386127209E+02  0.28652548570E+03  0.31182591626E+03  0.00000000000E+00 0. -1.
         -4    1    5    5    0  503  0.22412999892E+03  0.17242449887E+03  0.10263811656E+04  0.10646232955E+04  0.00000000000E+00 0.  1.
         -1    1    6    6    0  502  0.25478830929E+03 -0.39314887976E+03  0.27927385863E+03  0.54541453256E+03  0.00000000000E+00 0.  1.
<mgrwt>
<rscale>  0 0.20384644E+04</rscale>
<asrwt>0</asrwt>
<pdfrwt beam="1">  1        2 0.32484188E+00 0.20384644E+04</pdfrwt>
<pdfrwt beam="2">  1       -2 0.75691572E-01 0.20384644E+04</pdfrwt>
<totfact> 0.83890914E+00</totfact>
</mgrwt>
</event>
<event>
12    1  0.1504874E-007  0.1429008E+04  0.7818608E-02  0.8933085E-01
         -1   -1    0    0    0  501 -0.00000000000E+00  0.00000000000E+00  0.49111485668E+03  0.49111485668E+03  0.00000000000E+00 0.  1.
          1   -1    0    0  501    0  0.00000000000E+00 -0.00000000000E+00 -0.10395039686E+04  0.10395039686E+04  0.00000000000E+00 0. -1.
         23    2    1    2    0    0 -0.16715578282E+03 -0.26456963808E+03  0.13771023165E+03  0.35383800605E+03  0.91099272763E+02 0.  0.
        254    2    1    2    0    0  0.16715578282E+03  0.26456963808E+03 -0.68609934362E+03  0.11767808193E+04  0.90340613136E+03 0.  0.
        -24    2    4    4    0    0  0.16056921055E+03  0.47597799454E+03 -0.78118767429E+03  0.93216063348E+03  0.79572240660E+02 0.  0.
         24    2    4    4    0    0  0.65865722724E+01 -0.21140835646E+03  0.95088330670E+02  0.24462018580E+03  0.77848368997E+02 0.  0.
         13    1    3    3    0    0 -0.22773661533E+02  0.98585375094E+00  0.32989823348E+01  0.23032473850E+02  0.00000000000E+00 0. -1.
        -13    1    3    3    0    0 -0.14438212129E+03 -0.26555549183E+03  0.13441124932E+03  0.33080553220E+03  0.00000000000E+00 0.  1.
          4    1    6    6  502    0  0.40758271330E+02 -0.84483534460E+02  0.43807521205E+02  0.10352682353E+03  0.00000000000E+00 0. -1.
          1    1    5    5  503    0  0.57404470019E+02  0.28794100673E+03 -0.43069270970E+03  0.52124994650E+03  0.00000000000E+00 0. -1.
         -2    1    5    5    0  503  0.10316474053E+03  0.18803698781E+03 -0.35049496458E+03  0.41091068698E+03  0.00000000000E+00 0.  1.
         -3    1    6    6    0  502 -0.34171699058E+02 -0.12692482200E+03  0.51280809464E+02  0.14109336227E+03  0.00000000000E+00 0.  1.
<mgrwt>
<rscale>  0 0.14290078E+04</rscale>
<asrwt>0</asrwt>
<pdfrwt beam="1">  1        1 0.15992369E+00 0.14290078E+04</pdfrwt>
<pdfrwt beam="2">  1       -1 0.75556132E-01 0.14290078E+04</pdfrwt>
<totfact> 0.24150378E+01</totfact>
</mgrwt>
</event>
<event>
12    1  0.1504874E-007  0.2425252E+04  0.7818608E-02  0.8430110E-01
          1   -1    0    0  501    0  0.00000000000E+00  0.00000000000E+00  0.17780179002E+04  0.17780179002E+04  0.00000000000E+00 0. -1.
         -1   -1    0    0    0  501 -0.00000000000E+00 -0.00000000000E+00 -0.82702292540E+03  0.82702292540E+03  0.00000000000E+00 0.  1.
         23    2    1    2    0    0  0.60663411614E+03  0.36189243824E+03  0.12330949980E+04  0.14239841950E+04  0.90755859442E+02 0.  0.
        254    2    1    2    0    0 -0.60663411614E+03 -0.36189243824E+03 -0.28210002320E+03  0.11810566305E+04  0.90351715737E+03 0.  0.
        -24    2    4    4    0    0  0.18258979666E+03 -0.23911768366E+03  0.41212207332E+02  0.31556375723E+03  0.85823879890E+02 0.  0.
         24    2    4    4    0    0 -0.78922391281E+03 -0.12277475459E+03 -0.32331223053E+03  0.86549287328E+03  0.81234785530E+02 0.  0.
         13    1    3    3    0    0  0.15047543624E+03  0.88316572899E+02  0.23120034498E+03  0.28964853439E+03  0.00000000000E+00 0.  1.
        -13    1    3    3    0    0  0.45615867991E+03  0.27357586534E+03  0.10018946530E+04  0.11343356607E+04  0.00000000000E+00 0. -1.
          2    1    6    6  502    0 -0.43434401721E+03 -0.88942039501E+02 -0.14198202183E+03  0.46553657880E+03  0.00000000000E+00 0. -1.
          3    1    5    5  503    0  0.19060054648E+03 -0.21918951307E+03  0.44423586969E+02  0.29384701128E+03  0.00000000000E+00 0. -1.
         -4    1    5    5    0  503 -0.80107498136E+01 -0.19928170584E+02 -0.32113796375E+01  0.21716745948E+02  0.00000000000E+00 0.  1.
         -1    1    6    6    0  502 -0.35487989560E+03 -0.33832715084E+02 -0.18133020870E+03  0.39995629448E+03  0.00000000000E+00 0.  1.
<mgrwt>
<rscale>  0 0.24252518E+04</rscale>
<asrwt>0</asrwt>
<pdfrwt beam="1">  1        1 0.27354121E+00 0.24252518E+04</pdfrwt>
<pdfrwt beam="2">  1       -1 0.12723430E+00 0.24252518E+04</pdfrwt>
<totfact> 0.20184632E+00</totfact>
</mgrwt>
</event>
<event>
12    1  0.1504874E-007  0.2271107E+04  0.7818608E-02  0.8489401E-01
         -2   -1    0    0    0  501 -0.00000000000E+00  0.00000000000E+00  0.96419986941E+03  0.96419986941E+03  0.00000000000E+00 0.  1.
          2   -1    0    0  501    0  0.00000000000E+00 -0.00000000000E+00 -0.13373599675E+04  0.13373599675E+04  0.00000000000E+00 0. -1.
         23    2    1    2    0    0 -0.91413120156E+03  0.37295880667E+03 -0.11388299912E+03  0.99862918830E+03  0.97758851793E+02 0.  0.
        254    2    1    2    0    0  0.91413120156E+03 -0.37295880667E+03 -0.25927709894E+03  0.13029306486E+04  0.80973423777E+03 0.  0.
        -24    2    4    4    0    0  0.17512950962E+03  0.18459049177E+03  0.12898250027E+03  0.29571042769E+03  0.77872825039E+02 0.  0.
         24    2    4    4    0    0  0.73900169194E+03 -0.55754929844E+03 -0.38825959921E+03  0.10072202209E+04  0.82233424336E+02 0.  0.
         13    1    3    3    0    0 -0.63241897364E+03  0.30574727943E+03 -0.76264022514E+02  0.70657721321E+03  0.00000000000E+00 0. -1.
        -13    1    3    3    0    0 -0.28171222792E+03  0.67211527234E+02 -0.37618976609E+02  0.29205197509E+03  0.00000000000E+00 0.  1.
          2    1    6    6  502    0  0.27593914495E+02 -0.38088710044E+02 -0.32742111274E+02  0.57308112870E+02  0.00000000000E+00 0. -1.
          1    1    5    5  503    0  0.63307325915E+02  0.38375793599E+02  0.58728970403E+01  0.74263113108E+02  0.00000000000E+00 0. -1.
         -2    1    5    5    0  503  0.11182218370E+03  0.14621469817E+03  0.12310960323E+03  0.22144731459E+03  0.00000000000E+00 0.  1.
         -1    1    6    6    0  502  0.71140777745E+03 -0.51946058840E+03 -0.35551748794E+03  0.94991210801E+03  0.00000000000E+00 0.  1.
<mgrwt>
<rscale>  0 0.22711075E+04</rscale>
<asrwt>0</asrwt>
<pdfrwt beam="1">  1        2 0.20574769E+00 0.22711075E+04</pdfrwt>
<pdfrwt beam="2">  1       -2 0.14833844E+00 0.22711075E+04</pdfrwt>
<totfact> 0.44103573E+00</totfact>
</mgrwt>
</event>
<event>
12    1  0.1504874E-007  0.2072863E+04  0.7818608E-02  0.8573293E-01
         -2   -1    0    0    0  501 -0.00000000000E+00  0.00000000000E+00  0.58128421714E+03  0.58128421714E+03  0.00000000000E+00 0.  1.
          2   -1    0    0  501    0  0.00000000000E+00 -0.00000000000E+00 -0.18479605181E+04  0.18479605181E+04  0.00000000000E+00 0. -1.
         23    2    1    2    0    0  0.76567675308E+03  0.31569965394E+03 -0.37922593210E+03  0.91564498295E+03  0.93092779049E+02 0.  0.
        254    2    1    2    0    0 -0.76567675308E+03 -0.31569965394E+03 -0.88745036889E+03  0.15135997523E+04  0.90415092285E+03 0.  0.
        -24    2    4    4    0    0 -0.44835990437E+03  0.24157133407E+03 -0.15800473830E+03  0.53928178074E+03  0.80473774758E+02 0.  0.
         24    2    4    4    0    0 -0.31731684871E+03 -0.55727098800E+03 -0.72944563059E+03  0.97431797159E+03  0.77224641300E+02 0.  0.
         13    1    3    3    0    0  0.68681546290E+03  0.25092747152E+03 -0.32697888467E+03  0.80099642138E+03  0.00000000000E+00 0.  1.
        -13    1    3    3    0    0  0.78861290179E+02  0.64772182415E+02 -0.52247047432E+02  0.11464856156E+03  0.00000000000E+00 0. -1.
          2    1    6    6  502    0 -0.15132497449E+03 -0.23187984521E+03 -0.26323980036E+03  0.38205065504E+03  0.00000000000E+00 0. -1.
          3    1    5    5  503    0 -0.20329850712E+03  0.15370181677E+03 -0.88982060268E+02  0.26994877019E+03  0.00000000000E+00 0. -1.
         -4    1    5    5    0  503 -0.24506139724E+03  0.87869517299E+02 -0.69022678032E+02  0.26933301055E+03  0.00000000000E+00 0.  1.
         -1    1    6    6    0  502 -0.16599187423E+03 -0.32539114279E+03 -0.46620583023E+03  0.59226731655E+03  0.00000000000E+00 0.  1.
<mgrwt>
<rscale>  0 0.20728630E+04</rscale>
<asrwt>0</asrwt>
<pdfrwt beam="1">  1        2 0.28430162E+00 0.20728630E+04</pdfrwt>
<pdfrwt beam="2">  1       -2 0.89428340E-01 0.20728630E+04</pdfrwt>
<totfact> 0.80383420E+00</totfact>
</mgrwt>
</event>
<event>
12    1  0.1504874E-007  0.1244414E+04  0.7818608E-02  0.9074846E-01
          1   -1    0    0  501    0  0.00000000000E+00  0.00000000000E+00  0.55187197798E+03  0.55187197798E+03  0.00000000000E+00 0.  1.
         -1   -1    0    0    0  501 -0.00000000000E+00 -0.00000000000E+00 -0.70150577057E+03  0.70150577057E+03  0.00000000000E+00 0. -1.
         23    2    1    2    0    0  0.48894811195E+02  0.83268629326E+02 -0.37616881228E+03  0.39918460034E+03  0.92309277030E+02 0.  0.
        254    2    1    2    0    0 -0.48894811195E+02 -0.83268629326E+02  0.22653501969E+03  0.85419314821E+03  0.81792631215E+03 0.  0.
        -24    2    4    4    0    0 -0.29191657804E+03 -0.11604510186E+03  0.42045485832E+03  0.53079225691E+03  0.79223594426E+02 0.  0.
         24    2    4    4    0    0  0.24302176684E+03  0.32776472532E+02 -0.19391983863E+03  0.32340089130E+03  0.82760838390E+02 0.  0.
         13    1    3    3    0    0  0.51739223119E+02  0.51607137335E+02 -0.35130977730E+03  0.35882976947E+03  0.00000000000E+00 0. -1.
        -13    1    3    3    0    0 -0.28444119236E+01  0.31661491991E+02 -0.24859034979E+02  0.40354830868E+02  0.00000000000E+00 0.  1.
          4    1    6    6  502    0  0.10271467014E+03  0.54716103487E+02 -0.78212094299E+02  0.14021871180E+03  0.00000000000E+00 0. -1.
          1    1    5    5  503    0 -0.33328521623E+02  0.10865187255E+02  0.58604008766E+02  0.68288157766E+02  0.00000000000E+00 0. -1.
         -2    1    5    5    0  503 -0.25858805641E+03 -0.12691028911E+03  0.36185084955E+03  0.46250409914E+03  0.00000000000E+00 0.  1.
         -3    1    6    6    0  502  0.14030709670E+03 -0.21939630956E+02 -0.11570774433E+03  0.18318217950E+03  0.00000000000E+00 0.  1.
<mgrwt>
<rscale>  0 0.12444137E+04</rscale>
<asrwt>0</asrwt>
<pdfrwt beam="1">  1        1 0.84903381E-01 0.12444137E+04</pdfrwt>
<pdfrwt beam="2">  1       -1 0.10792396E+00 0.12444137E+04</pdfrwt>
<totfact> 0.30419176E+01</totfact>
</mgrwt>
</event>
<event>
12    1  0.1504874E-007  0.1438215E+04  0.7818608E-02  0.8926612E-01
          2   -1    0    0  501    0  0.00000000000E+00  0.00000000000E+00  0.20482321256E+04  0.20482321256E+04  0.00000000000E+00 0. -1.
         -2   -1    0    0    0  501 -0.00000000000E+00 -0.00000000000E+00 -0.25246932315E+03  0.25246932315E+03  0.00000000000E+00 0.  1.
         23    2    1    2    0    0  0.34778271962E+03 -0.11611823306E+03  0.89589217489E+03  0.97261677692E+03  0.94468733472E+02 0.  0.
        254    2    1    2    0    0 -0.34778271962E+03  0.11611823306E+03  0.89987062754E+03  0.13280846718E+04  0.90532065318E+03 0.  0.
        -24    2    4    4    0    0 -0.26245595664E+03  0.17972558419E+03  0.10646780415E+04  0.11141468599E+04  0.81237175267E+02 0.  0.
         24    2    4    4    0    0 -0.85326762985E+02 -0.63607351129E+02 -0.16480741394E+03  0.21393781190E+03  0.85330838936E+02 0.  0.
         13    1    3    3    0    0  0.29371139613E+03 -0.69155941072E+02  0.78061061265E+03  0.83690014756E+03  0.00000000000E+00 0. -1.
        -13    1    3    3    0    0  0.54071323495E+02 -0.46962291990E+02  0.11528156224E+03  0.13571662936E+03  0.00000000000E+00 0.  1.
          2    1    6    6  502    0 -0.12516732429E+02  0.12839203310E+02  0.33537729460E+00  0.17933940177E+02  0.00000000000E+00 0. -1.
          3    1    5    5  503    0 -0.14858858323E+02 -0.47389363071E+01  0.23919683352E+02  0.28555112320E+02  0.00000000000E+00 0. -1.
         -4    1    5    5    0  503 -0.24759709832E+03  0.18446452050E+03  0.10407583581E+04  0.10855917476E+04  0.00000000000E+00 0.  1.
         -1    1    6    6    0  502 -0.72810030555E+02 -0.76446554439E+02 -0.16514279123E+03  0.19600387173E+03  0.00000000000E+00 0.  1.
<mgrwt>
<rscale>  0 0.14382153E+04</rscale>
<asrwt>0</asrwt>
<pdfrwt beam="1">  1        2 0.31511262E+00 0.14382153E+04</pdfrwt>
<pdfrwt beam="2">  1       -2 0.38841436E-01 0.14382153E+04</pdfrwt>
<totfact> 0.38211025E+01</totfact>
</mgrwt>
</event>
<event>
12    1  0.1504874E-007  0.1849403E+04  0.7818608E-02  0.8680460E-01
         -1   -1    0    0    0  501 -0.00000000000E+00  0.00000000000E+00  0.66459450066E+03  0.66459450066E+03  0.00000000000E+00 0.  1.
          1   -1    0    0  501    0  0.00000000000E+00 -0.00000000000E+00 -0.12866080689E+04  0.12866080689E+04  0.00000000000E+00 0. -1.
         23    2    1    2    0    0 -0.50378508045E+03 -0.47826347561E+03 -0.25065491412E+03  0.74393036667E+03  0.89828420326E+02 0.  0.
        254    2    1    2    0    0  0.50378508045E+03  0.47826347561E+03 -0.37135865416E+03  0.12072722029E+04  0.91491177856E+03 0.  0.
        -24    2    4    4    0    0 -0.58561473014E+02  0.26115909229E+03 -0.51171771394E+03  0.58315528069E+03  0.81126722019E+02 0.  0.
         24    2    4    4    0    0  0.56234655346E+03  0.21710438332E+03  0.14035905978E+03  0.62411692224E+03  0.80332481069E+02 0.  0.
         13    1    3    3    0    0 -0.12673554425E+03 -0.12672609041E+03 -0.24094937502E+02  0.18083684962E+03  0.00000000000E+00 0.  1.
        -13    1    3    3    0    0 -0.37704953620E+03 -0.35153738520E+03 -0.22655997662E+03  0.56309351705E+03  0.00000000000E+00 0. -1.
          2    1    6    6  502    0  0.30291935724E+03  0.83166302290E+02  0.98242328942E+02  0.32913268756E+03  0.00000000000E+00 0. -1.
          1    1    5    5  503    0 -0.26335964075E+02  0.23908909454E+03 -0.43542274403E+03  0.49744360901E+03  0.00000000000E+00 0. -1.
         -2    1    5    5    0  503 -0.32225508939E+02  0.22069997748E+02 -0.76294969913E+02  0.85711671673E+02  0.00000000000E+00 0.  1.
         -1    1    6    6    0  502  0.25942719622E+03  0.13393808103E+03  0.42116730837E+02  0.29498423468E+03  0.00000000000E+00 0.  1.
<mgrwt>
<rscale>  0 0.18494028E+04</rscale>
<asrwt>0</asrwt>
<pdfrwt beam="1">  1        1 0.19793970E+00 0.18494028E+04</pdfrwt>
<pdfrwt beam="2">  1       -1 0.10224531E+00 0.18494028E+04</pdfrwt>
<totfact> 0.78696890E+00</totfact>
</mgrwt>
</event>
<event>
12    1  0.1504874E-007  0.1261413E+04  0.7818608E-02  0.9060737E-01
          1   -1    0    0  501    0  0.00000000000E+00  0.00000000000E+00  0.68431246361E+03  0.68431246361E+03  0.00000000000E+00 0. -1.
         -1   -1    0    0    0  501 -0.00000000000E+00 -0.00000000000E+00 -0.58129983840E+03  0.58129983840E+03  0.00000000000E+00 0.  1.
         23    2    1    2    0    0  0.96560825916E+02 -0.19492319844E+03 -0.17467294964E+03  0.29328386590E+03  0.90475080935E+02 0.  0.
        254    2    1    2    0    0 -0.96560825916E+02  0.19492319844E+03  0.27768557485E+03  0.97232843611E+03  0.90608733729E+03 0.  0.
        -24    2    4    4    0    0  0.36311216820E+02 -0.34775858830E+03  0.17282658376E+03  0.39815636618E+03  0.80030767054E+02 0.  0.
         24    2    4    4    0    0 -0.13287204274E+03  0.54268178673E+03  0.10485899108E+03  0.57417206993E+03  0.80744389769E+02 0.  0.
         11    1    3    3    0    0  0.27118308264E+02 -0.13133526488E+03 -0.13745573578E+03  0.19203758419E+03  0.00000000000E+00 0. -1.
        -11    1    3    3    0    0  0.69442517652E+02 -0.63587933554E+02 -0.37217213866E+02  0.10124628171E+03  0.00000000000E+00 0.  1.
          2    1    6    6  502    0 -0.27064342054E+01  0.10639139452E+02  0.15808528593E+02  0.19246445144E+02  0.00000000000E+00 0. -1.
          1    1    5    5  503    0 -0.18495330248E+02 -0.99325603374E+02  0.73976009345E+02  0.12522021676E+03  0.00000000000E+00 0. -1.
         -2    1    5    5    0  503  0.54806547068E+02 -0.24843298492E+03  0.98850574418E+02  0.27293614942E+03  0.00000000000E+00 0.  1.
         -1    1    6    6    0  502 -0.13016560853E+03  0.53204264728E+03  0.89050462489E+02  0.55492562478E+03  0.00000000000E+00 0.  1.
<mgrwt>
<rscale>  0 0.12614131E+04</rscale>
<asrwt>0</asrwt>
<pdfrwt beam="1">  1        1 0.10527884E+00 0.12614131E+04</pdfrwt>
<pdfrwt beam="2">  1       -1 0.89430744E-01 0.12614131E+04</pdfrwt>
<totfact> 0.34052516E+01</totfact>
</mgrwt>
</event>
<event>
12    1  0.1504874E-007  0.2269228E+04  0.7818608E-02  0.8490154E-01
          1   -1    0    0  501    0  0.00000000000E+00  0.00000000000E+00  0.45545277283E+03  0.45545277283E+03  0.00000000000E+00 0. -1.
         -1   -1    0    0    0  501 -0.00000000000E+00 -0.00000000000E+00 -0.28265254995E+04  0.28265254995E+04  0.00000000000E+00 0.  1.
         23    2    1    2    0    0  0.13919097600E+03  0.18808166107E+03 -0.23062540368E+04  0.23198751408E+04  0.90907357223E+02 0.  0.
        254    2    1    2    0    0 -0.13919097600E+03 -0.18808166107E+03 -0.64818689876E+02  0.96210313153E+03  0.93096301437E+03 0.  0.
        -24    2    4    4    0    0  0.13225904283E+02 -0.55137723261E+03 -0.20890096975E+02  0.55778605705E+03  0.80604665487E+02 0.  0.
         24    2    4    4    0    0 -0.15241688028E+03  0.36329557154E+03 -0.43928592901E+02  0.40431707449E+03  0.79548713065E+02 0.  0.
         11    1    3    3    0    0  0.89783911278E+02  0.69007300295E+02 -0.13886207056E+04  0.13932302833E+04  0.00000000000E+00 0. -1.
        -11    1    3    3    0    0  0.49407064718E+02  0.11907436077E+03 -0.91763333123E+03  0.92664485755E+03  0.00000000000E+00 0.  1.
          2    1    6    6  502    0 -0.51587458511E+02  0.20618985545E+03 -0.46712825228E+02  0.21761803787E+03  0.00000000000E+00 0. -1.
          3    1    5    5  503    0 -0.29876933154E+02 -0.27625361409E+03 -0.27549391229E+02  0.27922689589E+03  0.00000000000E+00 0. -1.
         -4    1    5    5    0  503  0.43102837437E+02 -0.27512361852E+03  0.66592942538E+01  0.27855916115E+03  0.00000000000E+00 0.  1.
         -1    1    6    6    0  502 -0.10082942177E+03  0.15710571609E+03  0.27842323274E+01  0.18669903661E+03  0.00000000000E+00 0.  1.
<mgrwt>
<rscale>  0 0.22692280E+04</rscale>
<asrwt>0</asrwt>
<pdfrwt beam="1">  1        1 0.70069656E-01 0.22692280E+04</pdfrwt>
<pdfrwt beam="2">  1       -1 0.43485008E+00 0.22692280E+04</pdfrwt>
<totfact> 0.18798180E-01</totfact>
</mgrwt>
</event>
<event>
12    1  0.1504874E-007  0.1694551E+04  0.7818608E-02  0.8764478E-01
          1   -1    0    0  501    0  0.00000000000E+00  0.00000000000E+00  0.64067219875E+03  0.64067219875E+03  0.00000000000E+00 0. -1.
         -1   -1    0    0    0  501 -0.00000000000E+00 -0.00000000000E+00 -0.11205044485E+04  0.11205044485E+04  0.00000000000E+00 0.  1.
         23    2    1    2    0    0 -0.18004120920E+03 -0.67534875961E+01 -0.76459202862E+03  0.79092022802E+03  0.92159591251E+02 0.  0.
        254    2    1    2    0    0  0.18004120920E+03  0.67534875961E+01  0.28475977888E+03  0.97025641922E+03  0.90986204491E+03 0.  0.
        -24    2    4    4    0    0  0.48562804219E+03  0.34834546834E+02 -0.65504808689E+02  0.49766472747E+03  0.79569215152E+02 0.  0.
         24    2    4    4    0    0 -0.30558683299E+03 -0.28081059238E+02  0.35026458756E+03  0.47259169175E+03  0.80534262418E+02 0.  0.
         13    1    3    3    0    0 -0.82128058915E+01  0.21980178376E+01 -0.14535294519E+01  0.86252078754E+01  0.00000000000E+00 0. -1.
        -13    1    3    3    0    0 -0.17182840331E+03 -0.89515054337E+01 -0.76313849917E+03  0.78229502015E+03  0.00000000000E+00 0.  1.
          4    1    6    6  502    0 -0.28474296700E+03 -0.44518702383E+02  0.30161792693E+03  0.41717364007E+03  0.00000000000E+00 0. -1.
          3    1    5    5  503    0  0.36493078137E+03  0.59330211000E+02 -0.58358273638E+02  0.37429966234E+03  0.00000000000E+00 0. -1.
         -4    1    5    5    0  503  0.12069726082E+03 -0.24495664165E+02 -0.71465350502E+01  0.12336506513E+03  0.00000000000E+00 0.  1.
         -3    1    6    6    0  502 -0.20843865984E+02  0.16437643145E+02  0.48646660633E+02  0.55418051681E+02  0.00000000000E+00 0.  1.
<mgrwt>
<rscale>  0 0.16945513E+04</rscale>
<asrwt>0</asrwt>
<pdfrwt beam="1">  1        1 0.98564953E-01 0.16945513E+04</pdfrwt>
<pdfrwt beam="2">  1       -1 0.17238530E+00 0.16945513E+04</pdfrwt>
<totfact> 0.70008490E+00</totfact>
</mgrwt>
</event>
<event>
12    1  0.1504874E-007  0.2794192E+04  0.7818608E-02  0.8305074E-01
         -1   -1    0    0    0  501 -0.00000000000E+00  0.00000000000E+00  0.92451340252E+03  0.92451340252E+03  0.00000000000E+00 0.  1.
          1   -1    0    0  501    0  0.00000000000E+00 -0.00000000000E+00 -0.21112480829E+04  0.21112480829E+04  0.00000000000E+00 0. -1.
         23    2    1    2    0    0  0.22758177266E+03 -0.10342080031E+04  0.18807168864E+03  0.10793512209E+04  0.90820928942E+02 0.  0.
        254    2    1    2    0    0 -0.22758177266E+03  0.10342080031E+04 -0.13748063690E+04  0.19564102645E+04  0.90336532697E+03 0.  0.
        -24    2    4    4    0    0 -0.40087221531E+02  0.11388783697E+04 -0.10102287064E+04  0.15249486065E+04  0.79090370660E+02 0.  0.
         24    2    4    4    0    0 -0.18749455113E+03 -0.10467036668E+03 -0.36457766259E+03  0.43146165803E+03  0.84452341169E+02 0.  0.
         13    1    3    3    0    0  0.18698351633E+03 -0.95608526962E+03  0.16238744266E+03  0.98763938748E+03  0.00000000000E+00 0.  1.
        -13    1    3    3    0    0  0.40598256327E+02 -0.78122733447E+02  0.25684245973E+02  0.91711833420E+02  0.00000000000E+00 0. -1.
          4    1    6    6  502    0 -0.41212227597E+01 -0.33518277683E+02 -0.61237878694E+02  0.69932375927E+02  0.00000000000E+00 0. -1.
          3    1    5    5  503    0 -0.55819071894E+02  0.10182558004E+04 -0.88328432975E+03  0.13491300349E+04  0.00000000000E+00 0. -1.
         -4    1    5    5    0  503  0.15731850363E+02  0.12062256933E+03 -0.12694437666E+03  0.17581857158E+03  0.00000000000E+00 0.  1.
         -3    1    6    6    0  502 -0.18337332837E+03 -0.71152088994E+02 -0.30333978389E+03  0.36152928210E+03  0.00000000000E+00 0.  1.
<mgrwt>
<rscale>  0 0.27941919E+04</rscale>
<asrwt>0</asrwt>
<pdfrwt beam="1">  1        1 0.32480740E+00 0.27941919E+04</pdfrwt>
<pdfrwt beam="2">  1       -1 0.14223283E+00 0.27941919E+04</pdfrwt>
<totfact> 0.87189939E-01</totfact>
</mgrwt>
</event>
<event>
12    1  0.1504874E-007  0.2664883E+04  0.7818608E-02  0.8346490E-01
          2   -1    0    0  501    0  0.00000000000E+00  0.00000000000E+00  0.25650344761E+04  0.25650344761E+04  0.00000000000E+00 0. -1.
         -2   -1    0    0    0  501 -0.00000000000E+00 -0.00000000000E+00 -0.69215446629E+03  0.69215446629E+03  0.00000000000E+00 0.  1.
         23    2    1    2    0    0 -0.42141153467E+03 -0.17922693422E+03  0.21564639471E+04  0.22064523293E+04  0.91570469424E+02 0.  0.
        254    2    1    2    0    0  0.42141153467E+03  0.17922693422E+03 -0.28358393726E+03  0.10507366131E+04  0.90217382204E+03 0.  0.
        -24    2    4    4    0    0  0.38906718542E+03 -0.10465825739E+03  0.22037137804E+03  0.46591100348E+03  0.78631375977E+02 0.  0.
         24    2    4    4    0    0  0.32344349248E+02  0.28388519160E+03 -0.50395531530E+03  0.58482560964E+03  0.80081676623E+02 0.  0.
         13    1    3    3    0    0 -0.59949690529E+01 -0.59738694884E+01  0.91124574799E+01  0.12436384199E+02  0.00000000000E+00 0.  1.
        -13    1    3    3    0    0 -0.41541656562E+03 -0.17325306473E+03  0.21473514896E+04  0.21940159451E+04  0.00000000000E+00 0. -1.
          4    1    6    6  502    0  0.24339867581E+02  0.28635009593E+03 -0.49618578421E+03  0.57340137691E+03  0.00000000000E+00 0. -1.
          3    1    5    5  503    0  0.32624022313E+03 -0.83995833683E+02  0.14825419183E+03  0.36805881141E+03  0.00000000000E+00 0. -1.
         -4    1    5    5    0  503  0.62826962295E+02 -0.20662423704E+02  0.72117186215E+02  0.97852192066E+02  0.00000000000E+00 0.  1.
         -1    1    6    6    0  502  0.80044816677E+01 -0.24649043231E+01 -0.77695310929E+01  0.11424232731E+02  0.00000000000E+00 0.  1.
<mgrwt>
<rscale>  0 0.26648828E+04</rscale>
<asrwt>0</asrwt>
<pdfrwt beam="1">  1        2 0.39462068E+00 0.26648828E+04</pdfrwt>
<pdfrwt beam="2">  1       -2 0.10648530E+00 0.26648828E+04</pdfrwt>
<totfact> 0.19942602E+00</totfact>
</mgrwt>
</event>
<event>
12    1  0.1504874E-007  0.1366131E+04  0.7818608E-02  0.8978706E-01
          1   -1    0    0  501    0  0.00000000000E+00  0.00000000000E+00  0.91389624734E+03  0.91389624734E+03  0.00000000000E+00 0. -1.
         -1   -1    0    0    0  501 -0.00000000000E+00 -0.00000000000E+00 -0.51053774555E+03  0.51053774555E+03  0.00000000000E+00 0.  1.
         23    2    1    2    0    0 -0.14286416214E+03 -0.30650586986E+03  0.28885548051E+03  0.45410571264E+03  0.91752343580E+02 0.  0.
        254    2    1    2    0    0  0.14286416214E+03  0.30650586986E+03  0.11450302127E+03  0.97032828025E+03  0.90225828480E+03 0.  0.
        -24    2    4    4    0    0  0.41303647824E+03 -0.17366635392E+02  0.28540756570E+03  0.50856842779E+03  0.79269381251E+02 0.  0.
         24    2    4    4    0    0 -0.27017231610E+03  0.32387250525E+03 -0.17090454443E+03  0.46175985246E+03  0.78277186916E+02 0.  0.
         11    1    3    3    0    0 -0.24403780582E+01 -0.94649656463E+02  0.60033121644E+02  0.11210927084E+03  0.00000000000E+00 0.  1.
        -11    1    3    3    0    0 -0.14042378408E+03 -0.21185621340E+03  0.22882235887E+03  0.34199644180E+03  0.00000000000E+00 0. -1.
          2    1    6    6  502    0 -0.23010505945E+02  0.68378759104E+02 -0.42887345278E+02  0.83931296102E+02  0.00000000000E+00 0. -1.
          1    1    5    5  503    0  0.23052865075E+03 -0.25375561791E+01  0.20529687393E+03  0.30870164310E+03  0.00000000000E+00 0. -1.
         -2    1    5    5    0  503  0.18250782749E+03 -0.14829079213E+02  0.80110691769E+02  0.19986678469E+03  0.00000000000E+00 0.  1.
         -1    1    6    6    0  502 -0.24716181016E+03  0.25549374615E+03 -0.12801719915E+03  0.37782855636E+03  0.00000000000E+00 0.  1.
<mgrwt>
<rscale>  0 0.13661311E+04</rscale>
<asrwt>0</asrwt>
<pdfrwt beam="1">  1        1 0.14059942E+00 0.13661311E+04</pdfrwt>
<pdfrwt beam="2">  1       -1 0.78544269E-01 0.13661311E+04</pdfrwt>
<totfact> 0.28117799E+01</totfact>
</mgrwt>
</event>
<event>
12    1  0.1504874E-007  0.1365271E+04  0.7818608E-02  0.8979348E-01
         -2   -1    0    0    0  501 -0.00000000000E+00  0.00000000000E+00  0.32092431815E+03  0.32092431815E+03  0.00000000000E+00 0. -1.
          2   -1    0    0  501    0  0.00000000000E+00 -0.00000000000E+00 -0.14520281700E+04  0.14520281700E+04  0.00000000000E+00 0.  1.
         23    2    1    2    0    0  0.11842712382E+03  0.33366822516E+01 -0.78141133564E+03  0.79577507000E+03  0.92834096412E+02 0.  0.
        254    2    1    2    0    0 -0.11842712382E+03 -0.33366822516E+01 -0.34969251623E+03  0.97717741818E+03  0.90474014699E+03 0.  0.
        -24    2    4    4    0    0  0.35676237614E+03 -0.75517731225E+02 -0.31550278564E+03  0.48861504976E+03  0.78869121633E+02 0.  0.
         24    2    4    4    0    0 -0.47518949995E+03  0.72181048973E+02 -0.34189730592E+02  0.48856236842E+03  0.80678903439E+02 0.  0.
         11    1    3    3    0    0  0.70766824198E+02 -0.10544995698E+02 -0.20304201083E+03  0.21527934993E+03  0.00000000000E+00 0. -1.
        -11    1    3    3    0    0  0.47660299620E+02  0.13881677949E+02 -0.57836932481E+03  0.58049572007E+03  0.00000000000E+00 0.  1.
          4    1    6    6  502    0 -0.20616424628E+03  0.17339885967E+02 -0.52323841676E+02  0.21340607418E+03  0.00000000000E+00 0. -1.
          1    1    5    5  503    0  0.71855574360E+02 -0.18794828160E+02 -0.26539170229E+02  0.78872027289E+02  0.00000000000E+00 0. -1.
         -2    1    5    5    0  503  0.28490680178E+03 -0.56722903065E+02 -0.28896361541E+03  0.40974302247E+03  0.00000000000E+00 0.  1.
         -3    1    6    6    0  502 -0.26902525367E+03  0.54841163006E+02  0.18134111084E+02  0.27515629424E+03  0.00000000000E+00 0.  1.
<mgrwt>
<rscale>  0 0.13652709E+04</rscale>
<asrwt>0</asrwt>
<pdfrwt beam="1">  1        2 0.22338895E+00 0.13652709E+04</pdfrwt>
<pdfrwt beam="2">  1       -2 0.49372972E-01 0.13652709E+04</pdfrwt>
<totfact> 0.51188008E+01</totfact>
</mgrwt>
</event>
<event>
12    1  0.1504874E-007  0.1125764E+04  0.7818608E-02  0.9180438E-01
         -1   -1    0    0    0  501 -0.00000000000E+00  0.00000000000E+00  0.16824669371E+03  0.16824669371E+03  0.00000000000E+00 0.  1.
          1   -1    0    0  501    0  0.00000000000E+00 -0.00000000000E+00 -0.18831630871E+04  0.18831630871E+04  0.00000000000E+00 0. -1.
         23    2    1    2    0    0  0.12877093410E+03  0.10635254103E+03 -0.17171293357E+03  0.25609282308E+03  0.90583585870E+02 0.  0.
        254    2    1    2    0    0 -0.12877093410E+03 -0.10635254103E+03 -0.15432034598E+04  0.17953169577E+04  0.90210489625E+03 0.  0.
        -24    2    4    4    0    0  0.35996842222E+03 -0.16350176225E+03 -0.53000049157E+03  0.66604462844E+03  0.80030211466E+02 0.  0.
         24    2    4    4    0    0 -0.48873935632E+03  0.57149221226E+02 -0.10132029683E+04  0.11292723293E+04  0.80892193187E+02 0.  0.
         11    1    3    3    0    0 -0.11626343398E+02  0.15768749350E+01 -0.14878569855E+01  0.11826754152E+02  0.00000000000E+00 0. -1.
        -11    1    3    3    0    0  0.14039727750E+03  0.10477566609E+03 -0.17022507658E+03  0.24426606893E+03  0.00000000000E+00 0.  1.
          4    1    6    6  502    0 -0.24834050747E+03  0.32418492337E+02 -0.42414170497E+03  0.49256487105E+03  0.00000000000E+00 0. -1.
          1    1    5    5  503    0  0.51236910756E+02 -0.13113258594E+02 -0.12058230206E+03  0.13167106799E+03  0.00000000000E+00 0. -1.
         -2    1    5    5    0  503  0.30873151146E+03 -0.15038850366E+03 -0.40941818951E+03  0.53437356045E+03  0.00000000000E+00 0.  1.
         -3    1    6    6    0  502 -0.24039884886E+03  0.24730728889E+02 -0.58906126329E+03  0.63670745825E+03  0.00000000000E+00 0.  1.
<mgrwt>
<rscale>  0 0.11257637E+04</rscale>
<asrwt>0</asrwt>
<pdfrwt beam="1">  1        1 0.28971740E+00 0.11257637E+04</pdfrwt>
<pdfrwt beam="2">  1       -1 0.25884106E-01 0.11257637E+04</pdfrwt>
<totfact> 0.47028037E+01</totfact>
</mgrwt>
</event>
<event>
12    1  0.1504874E-007  0.2120334E+04  0.7818608E-02  0.8552338E-01
          1   -1    0    0  501    0  0.00000000000E+00  0.00000000000E+00  0.19521782888E+04  0.19521782888E+04  0.00000000000E+00 0. -1.
         -1   -1    0    0    0  501 -0.00000000000E+00 -0.00000000000E+00 -0.57574371452E+03  0.57574371452E+03  0.00000000000E+00 0.  1.
         23    2    1    2    0    0 -0.20956449166E+03  0.37326256781E+02 -0.41319374986E+03  0.47481871101E+03  0.97021687216E+02 0.  0.
        254    2    1    2    0    0  0.20956449166E+03 -0.37326256781E+02  0.17896283241E+04  0.20531032923E+04  0.98343940572E+03 0.  0.
        -24    2    4    4    0    0 -0.34671931201E+03 -0.19657468290E+03  0.91555654432E+03  0.10017607498E+04  0.80155640288E+02 0.  0.
         24    2    4    4    0    0  0.55628380367E+03  0.15924842612E+03  0.87407177981E+03  0.10513425425E+04  0.80671767129E+02 0.  0.
         13    1    3    3    0    0 -0.84258241608E+02  0.44870497411E+02 -0.25871771507E+03  0.27576741814E+03  0.00000000000E+00 0.  1.
        -13    1    3    3    0    0 -0.12530625005E+03 -0.75442406293E+01 -0.15447603480E+03  0.19905129287E+03  0.00000000000E+00 0. -1.
          4    1    6    6  502    0  0.36150857527E+03  0.82058676147E+02  0.61587287891E+03  0.71883341554E+03  0.00000000000E+00 0. -1.
          1    1    5    5  503    0 -0.12872173189E+03 -0.92669185954E+02  0.45289196078E+03  0.47986247032E+03  0.00000000000E+00 0. -1.
         -2    1    5    5    0  503 -0.21799758013E+03 -0.10390549695E+03  0.46266458354E+03  0.52189827946E+03  0.00000000000E+00 0.  1.
         -3    1    6    6    0  502  0.19477522840E+03  0.77189749972E+02  0.25819890090E+03  0.33250912698E+03  0.00000000000E+00 0.  1.
<mgrwt>
<rscale>  0 0.21203343E+04</rscale>
<asrwt>0</asrwt>
<pdfrwt beam="1">  1        1 0.30033512E+00 0.21203343E+04</pdfrwt>
<pdfrwt beam="2">  1       -1 0.88575957E-01 0.21203343E+04</pdfrwt>
<totfact> 0.36881046E+00</totfact>
</mgrwt>
</event>
<event>
12    1  0.1504874E-007  0.1486294E+04  0.7818608E-02  0.8893619E-01
         -1   -1    0    0    0  501 -0.00000000000E+00  0.00000000000E+00  0.26118199330E+04  0.26118199330E+04  0.00000000000E+00 0.  1.
          1   -1    0    0  501    0  0.00000000000E+00 -0.00000000000E+00 -0.21144935640E+03  0.21144935640E+03  0.00000000000E+00 0. -1.
         23    2    1    2    0    0 -0.35996999731E+03  0.24878870780E+03  0.74417844748E+03  0.86803310399E+03  0.90585251740E+02 0.  0.
        254    2    1    2    0    0  0.35996999731E+03 -0.24878870780E+03  0.16561921292E+04  0.19552361855E+04  0.94260381503E+03 0.  0.
        -24    2    4    4    0    0 -0.23376269265E+03 -0.35078340881E+03  0.75657230132E+03  0.86975386443E+03  0.79850743234E+02 0.  0.
         24    2    4    4    0    0  0.59373268997E+03  0.10199470100E+03  0.89961982784E+03  0.10854823210E+04  0.77682742198E+02 0.  0.
         13    1    3    3    0    0 -0.22013568181E+03  0.18855245424E+03  0.42538512774E+03  0.51474678562E+03  0.00000000000E+00 0. -1.
        -13    1    3    3    0    0 -0.13983431550E+03  0.60236253567E+02  0.31879331974E+03  0.35328631837E+03  0.00000000000E+00 0.  1.
          4    1    6    6  502    0  0.26409131070E+03  0.53593997531E+02  0.33551726066E+03  0.43033518234E+03  0.00000000000E+00 0. -1.
          3    1    5    5  503    0 -0.29638552542E+02 -0.77694191033E+02  0.10104253068E+03  0.13086032295E+03  0.00000000000E+00 0. -1.
         -4    1    5    5    0  503 -0.20412414011E+03 -0.27308921777E+03  0.65552977064E+03  0.73889354148E+03  0.00000000000E+00 0.  1.
         -3    1    6    6    0  502  0.32964137927E+03  0.48400703472E+02  0.56410256718E+03  0.65514713868E+03  0.00000000000E+00 0.  1.
<mgrwt>
<rscale>  0 0.14862942E+04</rscale>
<asrwt>0</asrwt>
<pdfrwt beam="1">  1        1 0.32530672E-01 0.14862942E+04</pdfrwt>
<pdfrwt beam="2">  1       -1 0.40181843E+00 0.14862942E+04</pdfrwt>
<totfact> 0.93807604E-01</totfact>
</mgrwt>
</event>
<event>
12    1  0.1504874E-007  0.1358314E+04  0.7818608E-02  0.8984559E-01
          1   -1    0    0  501    0  0.00000000000E+00  0.00000000000E+00  0.15034563966E+04  0.15034563966E+04  0.00000000000E+00 0. -1.
         -1   -1    0    0    0  501 -0.00000000000E+00 -0.00000000000E+00 -0.30679571284E+03  0.30679571284E+03  0.00000000000E+00 0.  1.
         23    2    1    2    0    0  0.13934726498E+03  0.31653885088E+03  0.15641172243E+03  0.39037972091E+03  0.91198657967E+02 0.  0.
        254    2    1    2    0    0 -0.13934726498E+03 -0.31653885088E+03  0.10402489614E+04  0.14198723886E+04  0.90238860466E+03 0.  0.
        -24    2    4    4    0    0 -0.16541567540E+03 -0.37615275392E+03  0.11768403228E+04  0.12490578908E+04  0.79619277448E+02 0.  0.
         24    2    4    4    0    0  0.26068410422E+02  0.59613903046E+02 -0.13659136143E+03  0.17081449774E+03  0.79290687742E+02 0.  0.
         13    1    3    3    0    0  0.14176215143E+03  0.24675704825E+03  0.10366721439E+03  0.30287363665E+03  0.00000000000E+00 0.  1.
        -13    1    3    3    0    0 -0.24148864486E+01  0.69781802624E+02  0.52744508043E+02  0.87506084261E+02  0.00000000000E+00 0. -1.
          4    1    6    6  502    0 -0.19755426453E+02  0.35908473886E+01 -0.68718270134E+02  0.71591701401E+02  0.00000000000E+00 0. -1.
          3    1    5    5  503    0 -0.20050149970E+02 -0.13178246617E+03  0.41521880100E+03  0.43609090751E+03  0.00000000000E+00 0. -1.
         -4    1    5    5    0  503 -0.14536552543E+03 -0.24437028775E+03  0.76162152180E+03  0.81296698333E+03  0.00000000000E+00 0.  1.
         -3    1    6    6    0  502  0.45823836875E+02  0.56023055657E+02 -0.67873091292E+02  0.99222796335E+02  0.00000000000E+00 0.  1.
<mgrwt>
<rscale>  0 0.13583136E+04</rscale>
<asrwt>0</asrwt>
<pdfrwt beam="1">  1        1 0.23130098E+00 0.13583136E+04</pdfrwt>
<pdfrwt beam="2">  1       -1 0.47199341E-01 0.13583136E+04</pdfrwt>
<totfact> 0.28491827E+01</totfact>
</mgrwt>
</event>
<event>
12    1  0.1504874E-007  0.2033846E+04  0.7818608E-02  0.8590958E-01
          1   -1    0    0  501    0  0.00000000000E+00  0.00000000000E+00  0.11700693748E+04  0.11700693748E+04  0.00000000000E+00 0. -1.
         -1   -1    0    0    0  501 -0.00000000000E+00 -0.00000000000E+00 -0.88382151514E+03  0.88382151514E+03  0.00000000000E+00 0.  1.
         23    2    1    2    0    0 -0.70342525009E+02  0.37295668385E+03  0.91267382903E+03  0.99446548128E+03  0.10928548123E+03 0.  0.
        254    2    1    2    0    0  0.70342525009E+02 -0.37295668385E+03 -0.62642596933E+03  0.10594254087E+04  0.76545930179E+03 0.  0.
        -24    2    4    4    0    0 -0.23670834734E+02 -0.16236355248E+03 -0.75958638834E+03  0.78127066584E+03  0.80561407405E+02 0.  0.
         24    2    4    4    0    0  0.94013359744E+02 -0.21059313137E+03  0.13316041901E+03  0.27815474286E+03  0.80314288857E+02 0.  0.
         11    1    3    3    0    0 -0.75334009799E+02  0.31106824747E+03  0.83982918899E+03  0.89875009558E+03  0.00000000000E+00 0. -1.
        -11    1    3    3    0    0  0.49914847895E+01  0.61888436382E+02  0.72844640038E+02  0.95715385704E+02  0.00000000000E+00 0.  1.
          4    1    6    6  502    0  0.10775650050E+03 -0.19866827987E+03  0.12366087619E+03  0.25762872729E+03  0.00000000000E+00 0. -1.
          3    1    5    5  503    0  0.18642394215E+02 -0.11516775553E+03 -0.55326247480E+03  0.56542949764E+03  0.00000000000E+00 0. -1.
         -4    1    5    5    0  503 -0.42313228949E+02 -0.47195796943E+02 -0.20632391354E+03  0.21584116820E+03  0.00000000000E+00 0.  1.
         -3    1    6    6    0  502 -0.13743140761E+02 -0.11924851507E+02  0.94995428145E+01  0.20526015569E+02  0.00000000000E+00 0.  1.
<mgrwt>
<rscale>  0 0.20338461E+04</rscale>
<asrwt>0</asrwt>
<pdfrwt beam="1">  1        1 0.18001067E+00 0.20338461E+04</pdfrwt>
<pdfrwt beam="2">  1       -1 0.13597254E+00 0.20338461E+04</pdfrwt>
<totfact> 0.47023473E+00</totfact>
</mgrwt>
</event>
<event>
12    1  0.1504874E-007  0.2134350E+04  0.7818608E-02  0.8546261E-01
          2   -1    0    0  501    0  0.00000000000E+00  0.00000000000E+00  0.81359632103E+03  0.81359632103E+03  0.00000000000E+00 0.  1.
         -2   -1    0    0    0  501 -0.00000000000E+00 -0.00000000000E+00 -0.13997882182E+04  0.13997882182E+04  0.00000000000E+00 0. -1.
         23    2    1    2    0    0  0.39384296147E+03  0.70998224665E+03 -0.57627824430E+03  0.99974569515E+03  0.90596750795E+02 0.  0.
        254    2    1    2    0    0 -0.39384296147E+03 -0.70998224665E+03 -0.99136528711E+01  0.12136388441E+04  0.90201657107E+03 0.  0.
        -24    2    4    4    0    0 -0.29973204836E+03 -0.53562165927E+03  0.40984809441E+03  0.74232117036E+03  0.79595205741E+02 0.  0.
         24    2    4    4    0    0 -0.94110913109E+02 -0.17436058739E+03 -0.41976174728E+03  0.47131767373E+03  0.81743175173E+02 0.  0.
         13    1    3    3    0    0  0.36879924687E+03  0.62706995825E+03 -0.53925439778E+03  0.90555227489E+03  0.00000000000E+00 0. -1.
        -13    1    3    3    0    0  0.25043714600E+02  0.82912288404E+02 -0.37023846520E+02  0.94193420261E+02  0.00000000000E+00 0.  1.
          4    1    6    6  502    0 -0.22032842297E+02 -0.11883752808E+03 -0.20332750796E+03  0.23653726919E+03  0.00000000000E+00 0. -1.
          3    1    5    5  503    0 -0.14745247664E+03 -0.27141925612E+03  0.25372324608E+03  0.39973257443E+03  0.00000000000E+00 0. -1.
         -4    1    5    5    0  503 -0.15227957172E+03 -0.26420240315E+03  0.15612484833E+03  0.34258859593E+03  0.00000000000E+00 0.  1.
         -3    1    6    6    0  502 -0.72078070811E+02 -0.55523059302E+02 -0.21643423931E+03  0.23478040454E+03  0.00000000000E+00 0.  1.
<mgrwt>
<rscale>  0 0.21343501E+04</rscale>
<asrwt>0</asrwt>
<pdfrwt beam="1">  1        2 0.12516866E+00 0.21343501E+04</pdfrwt>
<pdfrwt beam="2">  1       -2 0.21535203E+00 0.21343501E+04</pdfrwt>
<totfact> 0.32730856E+00</totfact>
</mgrwt>
</event>
<event>
12    1  0.1504874E-007  0.1900670E+04  0.7818608E-02  0.8654523E-01
         -2   -1    0    0    0  501 -0.00000000000E+00  0.00000000000E+00  0.66223091955E+03  0.66223091955E+03  0.00000000000E+00 0.  1.
          2   -1    0    0  501    0  0.00000000000E+00 -0.00000000000E+00 -0.13637792480E+04  0.13637792480E+04  0.00000000000E+00 0. -1.
         23    2    1    2    0    0  0.45247442217E+03  0.52424952848E+03 -0.53942809062E+03  0.88254142455E+03  0.91247083645E+02 0.  0.
        254    2    1    2    0    0 -0.45247442217E+03 -0.52424952848E+03 -0.16212023783E+03  0.11434687430E+04  0.89535865655E+03 0.  0.
        -24    2    4    4    0    0 -0.64884280960E+03 -0.28546472381E+03  0.11147881535E+03  0.72208696009E+03  0.80591262199E+02 0.  0.
         24    2    4    4    0    0  0.19636838743E+03 -0.23878480466E+03 -0.27359905318E+03  0.42138178290E+03  0.84424158485E+02 0.  0.
         11    1    3    3    0    0  0.19942676154E+03  0.27603419759E+03 -0.22028232183E+03  0.40557393009E+03  0.00000000000E+00 0. -1.
        -11    1    3    3    0    0  0.25304766063E+03  0.24821533089E+03 -0.31914576879E+03  0.47696749447E+03  0.00000000000E+00 0.  1.
          2    1    6    6  502    0  0.14609833742E+03 -0.17199316959E+03 -0.24484418259E+03  0.33297905089E+03  0.00000000000E+00 0. -1.
          1    1    5    5  503    0 -0.33484034517E+03 -0.19102853266E+03  0.56714607296E+02  0.38964920599E+03  0.00000000000E+00 0. -1.
         -2    1    5    5    0  503 -0.31400246443E+03 -0.94436191150E+02  0.54764208054E+02  0.33243775410E+03  0.00000000000E+00 0.  1.
         -1    1    6    6    0  502  0.50270050011E+02 -0.66791635078E+02 -0.28754870593E+02  0.88402732013E+02  0.00000000000E+00 0.  1.
<mgrwt>
<rscale>  0 0.19006702E+04</rscale>
<asrwt>0</asrwt>
<pdfrwt beam="1">  1        2 0.20981219E+00 0.19006702E+04</pdfrwt>
<pdfrwt beam="2">  1       -2 0.10188168E+00 0.19006702E+04</pdfrwt>
<totfact> 0.11235322E+01</totfact>
</mgrwt>
</event>
<event>
12    1  0.1504874E-007  0.1923759E+04  0.7818608E-02  0.8643120E-01
         -2   -1    0    0    0  501 -0.00000000000E+00  0.00000000000E+00  0.32185296930E+03  0.32185296930E+03  0.00000000000E+00 0.  1.
          2   -1    0    0  501    0  0.00000000000E+00 -0.00000000000E+00 -0.28746424837E+04  0.28746424837E+04  0.00000000000E+00 0. -1.
         23    2    1    2    0    0  0.21108908040E+03  0.14665481277E+03 -0.21769556533E+04  0.21944332213E+04  0.10166126473E+03 0.  0.
        254    2    1    2    0    0 -0.21108908040E+03 -0.14665481277E+03 -0.37583386118E+03  0.10020622317E+04  0.89264292468E+03 0.  0.
        -24    2    4    4    0    0 -0.15022882135E+02  0.33715918934E+03  0.11860890391E+02  0.34696856399E+03  0.79652355473E+02 0.  0.
         24    2    4    4    0    0 -0.19606619827E+03 -0.48381400211E+03 -0.38769475157E+03  0.65509366769E+03  0.79514466086E+02 0.  0.
         13    1    3    3    0    0  0.87837922379E+02  0.16003081866E+02 -0.50233370960E+03  0.51020658075E+03  0.00000000000E+00 0.  1.
        -13    1    3    3    0    0  0.12325115802E+03  0.13065173090E+03 -0.16746219437E+04  0.16842266406E+04  0.00000000000E+00 0. -1.
          4    1    6    6  502    0 -0.96668140923E+02 -0.32224671009E+03 -0.27436324205E+03  0.43412309340E+03  0.00000000000E+00 0. -1.
          1    1    5    5  503    0 -0.20049492374E+02  0.26175425730E+03  0.41521004464E+02  0.26578424929E+03  0.00000000000E+00 0. -1.
         -2    1    5    5    0  503  0.50266102388E+01  0.75404932044E+02 -0.29660114073E+02  0.81184314703E+02  0.00000000000E+00 0.  1.
         -3    1    6    6    0  502 -0.99398057345E+02 -0.16156729202E+03 -0.11333150952E+03  0.22097057429E+03  0.00000000000E+00 0.  1.
<mgrwt>
<rscale>  0 0.19237590E+04</rscale>
<asrwt>0</asrwt>
<pdfrwt beam="1">  1        2 0.44225269E+00 0.19237590E+04</pdfrwt>
<pdfrwt beam="2">  1       -2 0.49515842E-01 0.19237590E+04</pdfrwt>
<totfact> 0.75312279E+00</totfact>
</mgrwt>
</event>
<event>
12    1  0.1504874E-007  0.2626747E+04  0.7818608E-02  0.8359172E-01
          1   -1    0    0  501    0  0.00000000000E+00  0.00000000000E+00  0.11296014465E+04  0.11296014465E+04  0.00000000000E+00 0. -1.
         -1   -1    0    0    0  501 -0.00000000000E+00 -0.00000000000E+00 -0.15270432430E+04  0.15270432430E+04  0.00000000000E+00 0.  1.
         23    2    1    2    0    0 -0.11212535546E+04  0.13421356919E+03 -0.43260085933E+03  0.12126627175E+04  0.90468486058E+02 0.  0.
        254    2    1    2    0    0  0.11212535546E+04 -0.13421356919E+03  0.35159062922E+02  0.14439819720E+04  0.89923576435E+03 0.  0.
        -24    2    4    4    0    0  0.14534942633E+03 -0.35878181686E+03 -0.14959684136E+03  0.42256673119E+03  0.79577506384E+02 0.  0.
         24    2    4    4    0    0  0.97590412829E+03  0.22456824767E+03  0.18475590428E+03  0.10214152408E+04  0.79590103294E+02 0.  0.
         13    1    3    3    0    0 -0.20114864815E+03  0.32520882778E+01 -0.47822930057E+02  0.20678101308E+03  0.00000000000E+00 0.  1.
        -13    1    3    3    0    0 -0.92010490648E+03  0.13096148091E+03 -0.38477792927E+03  0.10058817044E+04  0.00000000000E+00 0. -1.
          2    1    6    6  502    0  0.80079238889E+03  0.19434865654E+03  0.12233215352E+03  0.83306962865E+03  0.00000000000E+00 0. -1.
          3    1    5    5  503    0  0.10090926892E+03 -0.19149687553E+03 -0.11829228074E+03  0.24667143648E+03  0.00000000000E+00 0. -1.
         -4    1    5    5    0  503  0.44440157413E+02 -0.16728494134E+03 -0.31304560616E+02  0.17589529472E+03  0.00000000000E+00 0.  1.
         -1    1    6    6    0  502  0.17511173940E+03  0.30219591133E+02  0.62423750760E+02  0.18834561217E+03  0.00000000000E+00 0.  1.
<mgrwt>
<rscale>  0 0.26267472E+04</rscale>
<asrwt>0</asrwt>
<pdfrwt beam="1">  1        1 0.17378484E+00 0.26267472E+04</pdfrwt>
<pdfrwt beam="2">  1       -1 0.23492973E+00 0.26267472E+04</pdfrwt>
<totfact> 0.92679378E-01</totfact>
</mgrwt>
</event>
<event>
12    1  0.1504874E-007  0.1963287E+04  0.7818608E-02  0.8623980E-01
         -1   -1    0    0    0  501 -0.00000000000E+00  0.00000000000E+00  0.11306641820E+04  0.11306641820E+04  0.00000000000E+00 0.  1.
          1   -1    0    0  501    0  0.00000000000E+00 -0.00000000000E+00 -0.85226376289E+03  0.85226376289E+03  0.00000000000E+00 0. -1.
         23    2    1    2    0    0  0.41273191124E+03  0.34615776478E+03  0.73045843520E+03  0.91212849172E+03  0.90752582255E+02 0.  0.
        254    2    1    2    0    0 -0.41273191124E+03 -0.34615776478E+03 -0.45205801607E+03  0.10707994532E+04  0.80751606199E+03 0.  0.
        -24    2    4    4    0    0 -0.17118187316E+03  0.15814784638E+03 -0.44173086486E+03  0.50580892797E+03  0.80015871146E+02 0.  0.
         24    2    4    4    0    0 -0.24155003808E+03 -0.50430561116E+03 -0.10327151214E+02  0.56499052521E+03  0.80231372820E+02 0.  0.
         11    1    3    3    0    0  0.23951222755E+03  0.23617173700E+03  0.51020653466E+03  0.61110875015E+03  0.00000000000E+00 0.  1.
        -11    1    3    3    0    0  0.17321968369E+03  0.10998602778E+03  0.22025190055E+03  0.30101974157E+03  0.00000000000E+00 0. -1.
          4    1    6    6  502    0 -0.10720281962E+03 -0.17082666728E+03 -0.34698562955E+02  0.20464160149E+03  0.00000000000E+00 0. -1.
          3    1    5    5  503    0 -0.31492455688E+02  0.71548674451E+02 -0.18671029502E+03  0.20241472734E+03  0.00000000000E+00 0. -1.
         -4    1    5    5    0  503 -0.13968941747E+03  0.86599171929E+02 -0.25502056984E+03  0.30339420063E+03  0.00000000000E+00 0.  1.
         -3    1    6    6    0  502 -0.13434721846E+03 -0.33347894388E+03  0.24371411742E+02  0.36034892372E+03  0.00000000000E+00 0.  1.
<mgrwt>
<rscale>  0 0.19632872E+04</rscale>
<asrwt>0</asrwt>
<pdfrwt beam="1">  1        1 0.13111750E+00 0.19632872E+04</pdfrwt>
<pdfrwt beam="2">  1       -1 0.17394833E+00 0.19632872E+04</pdfrwt>
<totfact> 0.42716944E+00</totfact>
</mgrwt>
</event>
<event>
12    1  0.1504874E-007  0.1651576E+04  0.7818608E-02  0.8789475E-01
          1   -1    0    0  501    0  0.00000000000E+00  0.00000000000E+00  0.90834070720E+03  0.90834070720E+03  0.00000000000E+00 0. -1.
         -1   -1    0    0    0  501 -0.00000000000E+00 -0.00000000000E+00 -0.75073757389E+03  0.75073757389E+03  0.00000000000E+00 0.  1.
         23    2    1    2    0    0  0.23894408201E+03  0.46672170199E+03  0.33190153632E+03  0.62740984915E+03  0.92526037190E+02 0.  0.
        254    2    1    2    0    0 -0.23894408201E+03 -0.46672170199E+03 -0.17429840302E+03  0.10316684319E+04  0.87122695019E+03 0.  0.
        -24    2    4    4    0    0  0.18644652065E+02 -0.43224109652E+01  0.30323840535E+03  0.31427545819E+03  0.80307078476E+02 0.  0.
         24    2    4    4    0    0 -0.25758873408E+03 -0.46239929102E+03 -0.47753680837E+03  0.71739297376E+03  0.80288325375E+02 0.  0.
         13    1    3    3    0    0  0.10454182601E+03  0.14616157836E+03  0.72872839597E+02  0.19391403025E+03  0.00000000000E+00 0.  1.
        -13    1    3    3    0    0  0.13440225600E+03  0.32056012363E+03  0.25902869673E+03  0.43349581890E+03  0.00000000000E+00 0. -1.
          4    1    6    6  502    0 -0.19567114283E+02 -0.71651988524E+02 -0.40173532750E+02  0.84444017873E+02  0.00000000000E+00 0. -1.
          3    1    5    5  503    0 -0.19517472050E+02 -0.20232831998E+02  0.47336247053E+02  0.55054695449E+02  0.00000000000E+00 0. -1.
         -4    1    5    5    0  503  0.38162124115E+02  0.15910421033E+02  0.25590215829E+03  0.25922076274E+03  0.00000000000E+00 0.  1.
         -3    1    6    6    0  502 -0.23802161980E+03 -0.39074730250E+03 -0.43736327562E+03  0.63294895589E+03  0.00000000000E+00 0.  1.
<mgrwt>
<rscale>  0 0.16515756E+04</rscale>
<asrwt>0</asrwt>
<pdfrwt beam="1">  1        1 0.13974472E+00 0.16515756E+04</pdfrwt>
<pdfrwt beam="2">  1       -1 0.11549809E+00 0.16515756E+04</pdfrwt>
<totfact> 0.11628858E+01</totfact>
</mgrwt>
</event>
<event>
12    1  0.2228619E-007  0.2520354E+04  0.7818608E-02  0.8395770E-01
          1   -1    0    0  501    0  0.00000000000E+00  0.00000000000E+00  0.14696628714E+04  0.14696628714E+04  0.00000000000E+00 0. -1.
         -1   -1    0    0    0  501 -0.00000000000E+00 -0.00000000000E+00 -0.10805514704E+04  0.10805514704E+04  0.00000000000E+00 0.  1.
         23    2    1    2    0    0 -0.85283572962E+03 -0.35430261582E+03 -0.42842036144E+03  0.10221112634E+04  0.91149895380E+02 0.  0.
        254    2    1    2    0    0  0.85283572962E+03  0.35430261582E+03  0.81753176249E+03  0.15281030784E+04  0.90215392819E+03 0.  0.
        -24    2    4    4    0    0  0.22126886565E+03  0.50324804458E+02  0.78594361775E+03  0.82195473083E+03  0.80060679513E+02 0.  0.
         24    2    4    4    0    0  0.63156686396E+03  0.30397781136E+03  0.31588144733E+02  0.70614834753E+03  0.79802658960E+02 0.  0.
         13    1    3    3    0    0 -0.17680379631E+03 -0.83918377924E+02 -0.13157741910E+03  0.23582725407E+03  0.00000000000E+00 0. -1.
        -13    1    3    3    0    0 -0.67603193330E+03 -0.27038423790E+03 -0.29684294235E+03  0.78628400935E+03  0.00000000000E+00 0.  1.
          2    1    6    6  502    0  0.48776303825E+03  0.24943396595E+03 -0.57866660216E+01  0.54787185578E+03  0.00000000000E+00 0. -1.
          1    1    5    5  503    0  0.19601835313E+03  0.52059803319E+02  0.75607567530E+03  0.78280511283E+03  0.00000000000E+00 0. -1.
         -2    1    5    5    0  503  0.25250512526E+02 -0.17349988611E+01  0.29867942448E+02  0.39149618005E+02  0.00000000000E+00 0.  1.
         -1    1    6    6    0  502  0.14380382572E+03  0.54543845411E+02  0.37374810755E+02  0.15827649175E+03  0.00000000000E+00 0.  1.
<mgrwt>
<rscale>  0 0.25203542E+04</rscale>
<asrwt>0</asrwt>
<pdfrwt beam="1">  1        1 0.22610198E+00 0.25203542E+04</pdfrwt>
<pdfrwt beam="2">  1       -1 0.16623869E+00 0.25203542E+04</pdfrwt>
<totfact> 0.15978153E+00</totfact>
</mgrwt>
</event>
<event>
12    1  0.1504874E-007  0.1903425E+04  0.7818608E-02  0.8653154E-01
          2   -1    0    0  501    0  0.00000000000E+00  0.00000000000E+00  0.96962186457E+03  0.96962186457E+03  0.00000000000E+00 0.  1.
         -2   -1    0    0    0  501 -0.00000000000E+00 -0.00000000000E+00 -0.93413362988E+03  0.93413362988E+03  0.00000000000E+00 0. -1.
         23    2    1    2    0    0 -0.44362205998E+03  0.57132614053E+03  0.12463974305E+03  0.73962387809E+03  0.91073182321E+02 0.  0.
        254    2    1    2    0    0  0.44362205998E+03 -0.57132614053E+03 -0.89151508362E+02  0.11641316164E+04  0.90776667586E+03 0.  0.
        -24    2    4    4    0    0 -0.18365364822E+03 -0.69922048122E+02  0.21401741016E+03  0.30178350547E+03  0.81560266072E+02 0.  0.
         24    2    4    4    0    0  0.62727570820E+03 -0.50140409241E+03 -0.30316891853E+03  0.86234811089E+03  0.82776767312E+02 0.  0.
         13    1    3    3    0    0 -0.25670157947E+03  0.30354703881E+03  0.11113163154E+03  0.41277929358E+03  0.00000000000E+00 0. -1.
        -13    1    3    3    0    0 -0.18692048050E+03  0.26777910172E+03  0.13508111514E+02  0.32684458451E+03  0.00000000000E+00 0.  1.
          2    1    6    6  502    0  0.40401243161E+03 -0.34367617048E+03 -0.23780755782E+03  0.58128460294E+03  0.00000000000E+00 0. -1.
          1    1    5    5  503    0 -0.90522254051E+02 -0.90829965838E+01  0.14402889727E+03  0.17035581163E+03  0.00000000000E+00 0. -1.
         -2    1    5    5    0  503 -0.93131394169E+02 -0.60839051538E+02  0.69988512891E+02  0.13142769384E+03  0.00000000000E+00 0.  1.
         -1    1    6    6    0  502  0.22326327658E+03 -0.15772792193E+03 -0.65361360706E+02  0.28106350795E+03  0.00000000000E+00 0.  1.
<mgrwt>
<rscale>  0 0.19034247E+04</rscale>
<asrwt>0</asrwt>
<pdfrwt beam="1">  1        2 0.14917260E+00 0.19034247E+04</pdfrwt>
<pdfrwt beam="2">  1       -2 0.14371287E+00 0.19034247E+04</pdfrwt>
<totfact> 0.82769960E+00</totfact>
</mgrwt>
</event>
<event>
12    1  0.1958615E-007  0.2286029E+04  0.7818608E-02  0.8483450E-01
          2   -1    0    0  501    0  0.00000000000E+00  0.00000000000E+00  0.14401465949E+04  0.14401465949E+04  0.00000000000E+00 0. -1.
         -2   -1    0    0    0  501 -0.00000000000E+00 -0.00000000000E+00 -0.90718714920E+03  0.90718714920E+03  0.00000000000E+00 0.  1.
         23    2    1    2    0    0  0.24312068649E+03  0.48009265803E+03  0.10462775208E+04  0.11799681106E+04  0.89618429622E+02 0.  0.
        254    2    1    2    0    0 -0.24312068649E+03 -0.48009265803E+03 -0.51331807513E+03  0.11673656335E+04  0.89980578322E+03 0.  0.
        -24    2    4    4    0    0  0.90683313092E+02 -0.37579688180E+02  0.21442307029E+03  0.24918315574E+03  0.80494073037E+02 0.  0.
         24    2    4    4    0    0 -0.33380399958E+03 -0.44251296985E+03 -0.72774114543E+03  0.91818247776E+03  0.78797519581E+02 0.  0.
         13    1    3    3    0    0  0.21076787948E+03  0.45432939750E+03  0.92579323514E+03  0.10525832103E+04  0.00000000000E+00 0. -1.
        -13    1    3    3    0    0  0.32352807013E+02  0.25763260528E+02  0.12048428570E+03  0.12738490026E+03  0.00000000000E+00 0.  1.
          2    1    6    6  502    0 -0.18255309091E+03 -0.21015779959E+03 -0.42103910241E+03  0.50474335804E+03  0.00000000000E+00 0. -1.
          1    1    5    5  503    0  0.27090527181E+02 -0.52805424213E+02  0.79099834560E+02  0.98889298292E+02  0.00000000000E+00 0. -1.
         -2    1    5    5    0  503  0.63592785910E+02  0.15225736032E+02  0.13532323573E+03  0.15029385745E+03  0.00000000000E+00 0.  1.
         -1    1    6    6    0  502 -0.15125090867E+03 -0.23235517026E+03 -0.30670204302E+03  0.41343911971E+03  0.00000000000E+00 0.  1.
<mgrwt>
<rscale>  0 0.22860293E+04</rscale>
<asrwt>0</asrwt>
<pdfrwt beam="1">  1        2 0.22156101E+00 0.22860293E+04</pdfrwt>
<pdfrwt beam="2">  1       -2 0.13956725E+00 0.22860293E+04</pdfrwt>
<totfact> 0.45115922E+00</totfact>
</mgrwt>
</event>
<event>
12    1  0.1504874E-007  0.1400665E+04  0.7818608E-02  0.8953338E-01
         -2   -1    0    0    0  501 -0.00000000000E+00  0.00000000000E+00  0.64047531778E+03  0.64047531778E+03  0.00000000000E+00 0. -1.
          2   -1    0    0  501    0  0.00000000000E+00 -0.00000000000E+00 -0.76578323949E+03  0.76578323949E+03  0.00000000000E+00 0.  1.
         23    2    1    2    0    0  0.23541342084E+03  0.17362240374E+03 -0.32912984125E+03  0.44942748510E+03  0.89968851097E+02 0.  0.
        254    2    1    2    0    0 -0.23541342084E+03 -0.17362240374E+03  0.20382191954E+03  0.95683107218E+03  0.88792911204E+03 0.  0.
        -24    2    4    4    0    0 -0.46439156955E+03  0.16645850909E+03  0.20248638862E+03  0.53939814436E+03  0.81127402568E+02 0.  0.
         24    2    4    4    0    0  0.22897814871E+03 -0.34008091283E+03  0.13355309296E+01  0.41743292781E+03  0.78501246639E+02 0.  0.
         13    1    3    3    0    0  0.22233662979E+03  0.15677831916E+03 -0.33048801484E+03  0.42805997974E+03  0.00000000000E+00 0.  1.
        -13    1    3    3    0    0  0.13076791052E+02  0.16844084579E+02  0.13581735915E+01  0.21367505353E+02  0.00000000000E+00 0. -1.
          2    1    6    6  502    0  0.20732882758E+03 -0.26864643300E+03 -0.19591882684E+02  0.33991173940E+03  0.00000000000E+00 0. -1.
          3    1    5    5  503    0 -0.38790325647E+03  0.11987555970E+03  0.13715738982E+03  0.42854548858E+03  0.00000000000E+00 0. -1.
         -2    1    5    5    0  503 -0.76488313078E+02  0.46582949394E+02  0.65328998792E+02  0.11085265579E+03  0.00000000000E+00 0.  1.
         -1    1    6    6    0  502  0.21649321128E+02 -0.71434479827E+02  0.20927413614E+02  0.77521188420E+02  0.00000000000E+00 0.  1.
<mgrwt>
<rscale>  0 0.14006645E+04</rscale>
<asrwt>0</asrwt>
<pdfrwt beam="1">  1        2 0.11781281E+00 0.14006645E+04</pdfrwt>
<pdfrwt beam="2">  1       -2 0.98534665E-01 0.14006645E+04</pdfrwt>
<totfact> 0.30388640E+01</totfact>
</mgrwt>
</event>
<event>
12    1  0.1504874E-007  0.2550651E+04  0.7818608E-02  0.8385160E-01
          1   -1    0    0  501    0  0.00000000000E+00  0.00000000000E+00  0.13569081649E+04  0.13569081649E+04  0.00000000000E+00 0. -1.
         -1   -1    0    0    0  501 -0.00000000000E+00 -0.00000000000E+00 -0.11986482731E+04  0.11986482731E+04  0.00000000000E+00 0.  1.
         23    2    1    2    0    0  0.11093547597E+04 -0.13722799780E+02  0.17855866249E+03  0.11274848104E+04  0.92100508553E+02 0.  0.
        254    2    1    2    0    0 -0.11093547597E+04  0.13722799780E+02 -0.20298770705E+02  0.14280716276E+04  0.89895507976E+03 0.  0.
        -24    2    4    4    0    0  0.10760346500E+03 -0.78145677106E+02 -0.12258527878E+03  0.20080116504E+03  0.87227889901E+02 0.  0.
         24    2    4    4    0    0 -0.12169582247E+04  0.91868476886E+02  0.10228650807E+03  0.12272704626E+04  0.79392196677E+02 0.  0.
         13    1    3    3    0    0  0.69079632695E+02  0.21604654292E+02  0.12120373495E+02  0.73387057401E+02  0.00000000000E+00 0.  1.
        -13    1    3    3    0    0  0.10402751270E+04 -0.35327454072E+02  0.16643828899E+03  0.10540977530E+04  0.00000000000E+00 0. -1.
          4    1    6    6  502    0 -0.11192452080E+04  0.67073969185E+02  0.80541782487E+02  0.11241422204E+04  0.00000000000E+00 0. -1.
          3    1    5    5  503    0  0.44077919257E+02 -0.84324914256E+02 -0.76178312953E+02  0.12188802031E+03  0.00000000000E+00 0. -1.
         -4    1    5    5    0  503  0.63525545745E+02  0.61792371507E+01 -0.46406965822E+02  0.78913144727E+02  0.00000000000E+00 0.  1.
         -3    1    6    6    0  502 -0.97713016721E+02  0.24794507700E+02  0.21744725583E+02  0.10312824220E+03  0.00000000000E+00 0.  1.
<mgrwt>
<rscale>  0 0.25506514E+04</rscale>
<asrwt>0</asrwt>
<pdfrwt beam="1">  1        1 0.20875510E+00 0.25506514E+04</pdfrwt>
<pdfrwt beam="2">  1       -1 0.18440743E+00 0.25506514E+04</pdfrwt>
<totfact> 0.14106889E+00</totfact>
</mgrwt>
</event>
<event>
12    1  0.1504874E-007  0.3527357E+04  0.7818608E-02  0.8107337E-01
          2   -1    0    0  501    0  0.00000000000E+00  0.00000000000E+00  0.32154898115E+04  0.32154898115E+04  0.00000000000E+00 0. -1.
         -2   -1    0    0    0  501 -0.00000000000E+00 -0.00000000000E+00 -0.96736773983E+03  0.96736773983E+03  0.00000000000E+00 0.  1.
         23    2    1    2    0    0 -0.62691749437E+03 -0.10648906837E+04 -0.23832915967E+03  0.12615406733E+04  0.87557804095E+02 0.  0.
        254    2    1    2    0    0  0.62691749437E+03  0.10648906837E+04  0.24864512313E+04  0.29213168780E+04  0.90809408261E+03 0.  0.
        -24    2    4    4    0    0  0.49754637141E+03  0.83878857997E+03  0.24599263110E+04  0.26474379035E+04  0.81063701545E+02 0.  0.
         24    2    4    4    0    0  0.12937112296E+03  0.22610210376E+03  0.26524920283E+02  0.27387897447E+03  0.80293663996E+02 0.  0.
         13    1    3    3    0    0 -0.36285164567E+03 -0.53577751340E+03 -0.10868238113E+03  0.65614839830E+03  0.00000000000E+00 0. -1.
        -13    1    3    3    0    0 -0.26406584870E+03 -0.52911317033E+03 -0.12964677853E+03  0.60539227502E+03  0.00000000000E+00 0.  1.
          2    1    6    6  502    0  0.40236133206E+02  0.40846353090E+02  0.36645627966E+02  0.68046109552E+02  0.00000000000E+00 0. -1.
          1    1    5    5  503    0  0.32620638699E+03  0.50783690302E+03  0.14301620594E+04  0.15523119671E+04  0.00000000000E+00 0. -1.
         -2    1    5    5    0  503  0.17133998442E+03  0.33095167695E+03  0.10297642516E+04  0.10951259364E+04  0.00000000000E+00 0.  1.
         -1    1    6    6    0  502  0.89134989756E+02  0.18525575067E+03 -0.10120707683E+02  0.20583286492E+03  0.00000000000E+00 0.  1.
<mgrwt>
<rscale>  0 0.35273566E+04</rscale>
<asrwt>0</asrwt>
<pdfrwt beam="1">  1        2 0.49469074E+00 0.35273566E+04</pdfrwt>
<pdfrwt beam="2">  1       -2 0.14882581E+00 0.35273566E+04</pdfrwt>
<totfact> 0.31741374E-01</totfact>
</mgrwt>
</event>
<event>
12    1  0.1504874E-007  0.1873941E+04  0.7818608E-02  0.8667937E-01
         -2   -1    0    0    0  501 -0.00000000000E+00  0.00000000000E+00  0.43844667018E+03  0.43844667018E+03  0.00000000000E+00 0. -1.
          2   -1    0    0  501    0  0.00000000000E+00 -0.00000000000E+00 -0.20023279475E+04  0.20023279475E+04  0.00000000000E+00 0.  1.
         23    2    1    2    0    0 -0.43812397499E+03  0.56624835716E+03 -0.52840145476E+03  0.89384294071E+03  0.84600743677E+02 0.  0.
        254    2    1    2    0    0  0.43812397499E+03 -0.56624835716E+03 -0.10354798225E+04  0.15469316769E+04  0.89899350987E+03 0.  0.
        -24    2    4    4    0    0  0.62249033152E+03 -0.53860679427E+03 -0.48110441927E+03  0.95679319182E+03  0.80001612496E+02 0.  0.
         24    2    4    4    0    0 -0.18436635653E+03 -0.27641562885E+02 -0.55437540324E+03  0.59013848510E+03  0.78589658733E+02 0.  0.
         13    1    3    3    0    0 -0.27362727628E+03  0.35294385949E+03 -0.27786521331E+03  0.52597559928E+03  0.00000000000E+00 0. -1.
        -13    1    3    3    0    0 -0.16449669871E+03  0.21330449767E+03 -0.25053624145E+03  0.36786734143E+03  0.00000000000E+00 0.  1.
          4    1    6    6  502    0 -0.17837336722E+03 -0.54297668419E+01 -0.47194625959E+03  0.50455902771E+03  0.00000000000E+00 0. -1.
          1    1    5    5  503    0  0.55028204152E+03 -0.44262372362E+03 -0.39678433291E+03  0.81003943903E+03  0.00000000000E+00 0. -1.
         -2    1    5    5    0  503  0.72208290002E+02 -0.95983070651E+02 -0.84320086360E+02  0.14675375280E+03  0.00000000000E+00 0.  1.
         -3    1    6    6    0  502 -0.59929893061E+01 -0.22211796043E+02 -0.82429143646E+02  0.85579457386E+02  0.00000000000E+00 0.  1.
<mgrwt>
<rscale>  0 0.18739413E+04</rscale>
<asrwt>0</asrwt>
<pdfrwt beam="1">  1        2 0.30805046E+00 0.18739413E+04</pdfrwt>
<pdfrwt beam="2">  1       -2 0.67453333E-01 0.18739413E+04</pdfrwt>
<totfact> 0.12597757E+01</totfact>
</mgrwt>
</event>
<event>
12    1  0.1504874E-007  0.1394922E+04  0.7818608E-02  0.8957502E-01
         -2   -1    0    0    0  501 -0.00000000000E+00  0.00000000000E+00  0.28180044376E+03  0.28180044376E+03  0.00000000000E+00 0.  1.
          2   -1    0    0  501    0  0.00000000000E+00 -0.00000000000E+00 -0.17262292891E+04  0.17262292891E+04  0.00000000000E+00 0. -1.
         23    2    1    2    0    0 -0.33791243873E+03 -0.20751501242E+03 -0.41046603299E+03  0.57814222719E+03  0.92297204701E+02 0.  0.
        254    2    1    2    0    0  0.33791243873E+03  0.20751501242E+03 -0.10339628123E+04  0.14298875056E+04  0.90457276374E+03 0.  0.
        -24    2    4    4    0    0  0.46642750717E+03 -0.22414720028E+03 -0.63214736363E+03  0.82095868495E+03  0.81032624335E+02 0.  0.
         24    2    4    4    0    0 -0.12851506844E+03  0.43166221269E+03 -0.40181544867E+03  0.60892882068E+03  0.80562182114E+02 0.  0.
         11    1    3    3    0    0 -0.29788405602E+03 -0.15090034917E+03 -0.30706415030E+03  0.45364547679E+03  0.00000000000E+00 0.  1.
        -11    1    3    3    0    0 -0.40028382710E+02 -0.56614663250E+02 -0.10340188269E+03  0.12449675041E+03  0.00000000000E+00 0. -1.
          4    1    6    6  502    0  0.10096404481E+02  0.60142873035E+02 -0.55315882359E+02  0.82334375576E+02  0.00000000000E+00 0. -1.
          1    1    5    5  503    0  0.29443327461E+03 -0.17474124117E+03 -0.45201927742E+03  0.56705103979E+03  0.00000000000E+00 0. -1.
         -2    1    5    5    0  503  0.17199423255E+03 -0.49405959108E+02 -0.18012808621E+03  0.25390764516E+03  0.00000000000E+00 0.  1.
         -1    1    6    6    0  502 -0.13861147292E+03  0.37151933966E+03 -0.34649956631E+03  0.52659444511E+03  0.00000000000E+00 0.  1.
<mgrwt>
<rscale>  0 0.13949225E+04</rscale>
<asrwt>0</asrwt>
<pdfrwt beam="1">  1        2 0.26557374E+00 0.13949225E+04</pdfrwt>
<pdfrwt beam="2">  1       -2 0.43353914E-01 0.13949225E+04</pdfrwt>
<totfact> 0.46574809E+01</totfact>
</mgrwt>
</event>
<event>
12    1  0.1504874E-007  0.1209815E+04  0.7818608E-02  0.9104309E-01
          2   -1    0    0  501    0  0.00000000000E+00  0.00000000000E+00  0.19137453117E+04  0.19137453117E+04  0.00000000000E+00 0.  1.
         -2   -1    0    0    0  501 -0.00000000000E+00 -0.00000000000E+00 -0.19120264329E+03  0.19120264329E+03  0.00000000000E+00 0. -1.
         23    2    1    2    0    0  0.12565397547E+03  0.17189876214E+03  0.15067921764E+03  0.27628537138E+03  0.91056432134E+02 0.  0.
        254    2    1    2    0    0 -0.12565397547E+03 -0.17189876214E+03  0.15718634507E+04  0.18286625836E+04  0.90989781339E+03 0.  0.
        -24    2    4    4    0    0  0.12153355497E+02 -0.46037330927E+03  0.41513289211E+03  0.62583322156E+03  0.85091804321E+02 0.  0.
         24    2    4    4    0    0 -0.13780733097E+03  0.28847454713E+03  0.11567305586E+04  0.12028293620E+04  0.81021380088E+02 0.  0.
         13    1    3    3    0    0  0.29728304654E+02  0.43547226683E+02 -0.48888945629E+01  0.52953133424E+02  0.00000000000E+00 0. -1.
        -13    1    3    3    0    0  0.95925670816E+02  0.12835153546E+03  0.15556811220E+03  0.22333223796E+03  0.00000000000E+00 0.  1.
          4    1    6    6  502    0 -0.68454263946E+02  0.70416059163E+02  0.42279023851E+03  0.43404607292E+03  0.00000000000E+00 0. -1.
          1    1    5    5  503    0  0.41913922648E+02 -0.13180070319E+03  0.11657399373E+03  0.18088034246E+03  0.00000000000E+00 0. -1.
         -2    1    5    5    0  503 -0.29760567151E+02 -0.32857260608E+03  0.29855889838E+03  0.44495287911E+03  0.00000000000E+00 0.  1.
         -3    1    6    6    0  502 -0.69353067020E+02  0.21805848797E+03  0.73394032013E+03  0.76878328909E+03  0.00000000000E+00 0.  1.
<mgrwt>
<rscale>  0 0.12098151E+04</rscale>
<asrwt>0</asrwt>
<pdfrwt beam="1">  1        2 0.29442234E+00 0.12098151E+04</pdfrwt>
<pdfrwt beam="2">  1       -2 0.29415793E-01 0.12098151E+04</pdfrwt>
<totfact> 0.78327439E+01</totfact>
</mgrwt>
</event>
<event>
12    1  0.1504874E-007  0.3752170E+04  0.7818608E-02  0.8056498E-01
         -1   -1    0    0    0  501 -0.00000000000E+00  0.00000000000E+00  0.17083067461E+04  0.17083067461E+04  0.00000000000E+00 0.  1.
          1   -1    0    0  501    0  0.00000000000E+00 -0.00000000000E+00 -0.20603417922E+04  0.20603417922E+04  0.00000000000E+00 0. -1.
         23    2    1    2    0    0  0.53959782162E+03 -0.16792340471E+04 -0.30268092458E+03  0.17922145127E+04  0.97078955405E+02 0.  0.
        254    2    1    2    0    0 -0.53959782162E+03  0.16792340471E+04 -0.49354121481E+02  0.19764340256E+04  0.89042845539E+03 0.  0.
        -24    2    4    4    0    0  0.15051859383E+03  0.11614765996E+03  0.15019065905E+03  0.25428488321E+03  0.77184465797E+02 0.  0.
         24    2    4    4    0    0 -0.69011641545E+03  0.15630863871E+04 -0.19954478053E+03  0.17221491424E+04  0.80497382810E+02 0.  0.
         11    1    3    3    0    0  0.28337646367E+03 -0.91456152986E+03 -0.21226449697E+03  0.98070445535E+03  0.00000000000E+00 0. -1.
        -11    1    3    3    0    0  0.25622135795E+03 -0.76467251723E+03 -0.90416427613E+02  0.81151005740E+03  0.00000000000E+00 0.  1.
          2    1    6    6  502    0 -0.44825775523E+03  0.95493661086E+03 -0.15393050637E+03  0.10660832738E+04  0.00000000000E+00 0. -1.
          1    1    5    5  503    0  0.12569068495E+03  0.12526695035E+03  0.12038338154E+03  0.21443440882E+03  0.00000000000E+00 0. -1.
         -2    1    5    5    0  503  0.24827908873E+02 -0.91192903956E+01  0.29807277507E+02  0.39850474385E+02  0.00000000000E+00 0.  1.
         -1    1    6    6    0  502 -0.24185866022E+03  0.60814977628E+03 -0.45614274156E+02  0.65606586858E+03  0.00000000000E+00 0.  1.
<mgrwt>
<rscale>  0 0.37521705E+04</rscale>
<asrwt>0</asrwt>
<pdfrwt beam="1">  1        1 0.31697566E+00 0.37521705E+04</pdfrwt>
<pdfrwt beam="2">  1       -1 0.26281642E+00 0.37521705E+04</pdfrwt>
<totfact> 0.12462046E-01</totfact>
</mgrwt>
</event>
<event>
12    1  0.1523400E-007  0.2001977E+04  0.7818608E-02  0.8605697E-01
         -2   -1    0    0    0  501 -0.00000000000E+00  0.00000000000E+00  0.71892244899E+03  0.71892244899E+03  0.00000000000E+00 0.  1.
          2   -1    0    0  501    0  0.00000000000E+00 -0.00000000000E+00 -0.13937213300E+04  0.13937213300E+04  0.00000000000E+00 0. -1.
         23    2    1    2    0    0 -0.41627046137E+03  0.18504849493E+03  0.41909482007E+03  0.62501179380E+03  0.86459422312E+02 0.  0.
        254    2    1    2    0    0  0.41627046137E+03 -0.18504849493E+03 -0.10938937011E+04  0.14876319852E+04  0.89940060685E+03 0.  0.
        -24    2    4    4    0    0  0.32011124601E+03  0.16043873668E+03 -0.36986633467E+02  0.36867383178E+03  0.79627791201E+02 0.  0.
         24    2    4    4    0    0  0.96159215355E+02 -0.34548723160E+03 -0.10569070676E+04  0.11189581534E+04  0.80042348886E+02 0.  0.
         11    1    3    3    0    0  0.37208778415E+01 -0.16150670740E+01  0.42207088361E+01  0.58538668113E+01  0.00000000000E+00 0. -1.
        -11    1    3    3    0    0 -0.41999133921E+03  0.18666356200E+03  0.41487411123E+03  0.61915792699E+03  0.00000000000E+00 0.  1.
          4    1    6    6  502    0  0.23506144152E+02 -0.57241993842E+02 -0.10676974807E+03  0.12340568777E+03  0.00000000000E+00 0. -1.
          1    1    5    5  503    0  0.13636911534E+03  0.55448351145E+02 -0.52964101731E+02  0.15644887771E+03  0.00000000000E+00 0. -1.
         -2    1    5    5    0  503  0.18374213067E+03  0.10499038553E+03  0.15977468264E+02  0.21222495407E+03  0.00000000000E+00 0.  1.
         -3    1    6    6    0  502  0.72653071202E+02 -0.28824523776E+03 -0.95013731954E+03  0.99555246564E+03  0.00000000000E+00 0.  1.
<mgrwt>
<rscale>  0 0.20019766E+04</rscale>
<asrwt>0</asrwt>
<pdfrwt beam="1">  1        2 0.21441867E+00 0.20019766E+04</pdfrwt>
<pdfrwt beam="2">  1       -2 0.11060345E+00 0.20019766E+04</pdfrwt>
<totfact> 0.87892219E+00</totfact>
</mgrwt>
</event>
<event>
12    1  0.1504874E-007  0.1483125E+04  0.7818608E-02  0.8895753E-01
          2   -1    0    0  501    0  0.00000000000E+00  0.00000000000E+00  0.16691434883E+04  0.16691434883E+04  0.00000000000E+00 0. -1.
         -2   -1    0    0    0  501 -0.00000000000E+00 -0.00000000000E+00 -0.32945917017E+03  0.32945917017E+03  0.00000000000E+00 0.  1.
         23    2    1    2    0    0  0.32644047646E+03 -0.26123104045E+03  0.16643791754E+03  0.46151144585E+03  0.10240211469E+03 0.  0.
        254    2    1    2    0    0 -0.32644047646E+03  0.26123104045E+03  0.11732464006E+04  0.15370912126E+04  0.90074260377E+03 0.  0.
        -24    2    4    4    0    0  0.22653405441E+02  0.39978099260E+03  0.13514606241E+03  0.43023094958E+03  0.80598963788E+02 0.  0.
         24    2    4    4    0    0 -0.34909388190E+03 -0.13854995216E+03  0.10381003382E+04  0.11068602630E+04  0.80154239736E+02 0.  0.
         11    1    3    3    0    0  0.32118766524E+03 -0.22923490595E+03  0.16838980675E+03  0.42902830376E+03  0.00000000000E+00 0.  1.
        -11    1    3    3    0    0  0.52528112143E+01 -0.31996134496E+02 -0.19518892143E+01  0.32483142087E+02  0.00000000000E+00 0. -1.
          4    1    6    6  502    0 -0.10539691007E+03 -0.48842024504E+02  0.22374688308E+03  0.25210458087E+03  0.00000000000E+00 0. -1.
          1    1    5    5  503    0  0.29478810340E+02  0.10029724363E+03  0.63171962726E+02  0.12214431716E+03  0.00000000000E+00 0. -1.
         -2    1    5    5    0  503 -0.68254048988E+01  0.29948374897E+03  0.71974099688E+02  0.30808663242E+03  0.00000000000E+00 0.  1.
         -3    1    6    6    0  502 -0.24369697183E+03 -0.89707927651E+02  0.81435345510E+03  0.85475568217E+03  0.00000000000E+00 0.  1.
<mgrwt>
<rscale>  0 0.14831246E+04</rscale>
<asrwt>0</asrwt>
<pdfrwt beam="1">  1        2 0.25679130E+00 0.14831246E+04</pdfrwt>
<pdfrwt beam="2">  1       -2 0.50686027E-01 0.14831246E+04</pdfrwt>
<totfact> 0.36319662E+01</totfact>
</mgrwt>
</event>
<event>
12    1  0.1504874E-007  0.2980053E+04  0.7818608E-02  0.8249450E-01
         -1   -1    0    0    0  501 -0.00000000000E+00  0.00000000000E+00  0.57210019870E+03  0.57210019870E+03  0.00000000000E+00 0.  1.
          1   -1    0    0  501    0  0.00000000000E+00 -0.00000000000E+00 -0.38807506829E+04  0.38807506829E+04  0.00000000000E+00 0. -1.
         23    2    1    2    0    0 -0.68365214224E+03  0.61849436030E+03 -0.29899511996E+04  0.31311140992E+04  0.11896134181E+03 0.  0.
        254    2    1    2    0    0  0.68365214224E+03 -0.61849436030E+03 -0.31869928450E+03  0.13217367823E+04  0.89190995199E+03 0.  0.
        -24    2    4    4    0    0  0.71894680235E+03 -0.23319546301E+03  0.74652333814E+02  0.76362615439E+03  0.79292522691E+02 0.  0.
         24    2    4    4    0    0 -0.35294660102E+02 -0.38529889730E+03 -0.39335161832E+03  0.55811062792E+03  0.84029899902E+02 0.  0.
         11    1    3    3    0    0 -0.39067232483E+03  0.40476018034E+03 -0.19627229511E+04  0.20417485280E+04  0.00000000000E+00 0. -1.
        -11    1    3    3    0    0 -0.29297981742E+03  0.21373417997E+03 -0.10272282486E+04  0.10893655712E+04  0.00000000000E+00 0.  1.
          2    1    6    6  502    0 -0.20975613112E+01 -0.20080914749E+03 -0.25777868035E+03  0.32676989078E+03  0.00000000000E+00 0. -1.
          3    1    5    5  503    0  0.20531180695E+03 -0.77136824040E+02  0.56570397906E+02  0.22650218016E+03  0.00000000000E+00 0. -1.
         -4    1    5    5    0  503  0.51363499539E+03 -0.15605863897E+03  0.18081935908E+02  0.53712397423E+03  0.00000000000E+00 0.  1.
         -1    1    6    6    0  502 -0.33197098791E+02 -0.18448974980E+03 -0.13557293797E+03  0.23134073714E+03  0.00000000000E+00 0.  1.
<mgrwt>
<rscale>  0 0.29800525E+04</rscale>
<asrwt>0</asrwt>
<pdfrwt beam="1">  1        1 0.59703859E+00 0.29800525E+04</pdfrwt>
<pdfrwt beam="2">  1       -1 0.88015412E-01 0.29800525E+04</pdfrwt>
<totfact> 0.13160935E-01</totfact>
</mgrwt>
</event>
<event>
12    1  0.1504874E-007  0.1851379E+04  0.7818608E-02  0.8679444E-01
          1   -1    0    0  501    0  0.00000000000E+00  0.00000000000E+00  0.10122571222E+04  0.10122571222E+04  0.00000000000E+00 0. -1.
         -1   -1    0    0    0  501 -0.00000000000E+00 -0.00000000000E+00 -0.84652489532E+03  0.84652489532E+03  0.00000000000E+00 0.  1.
         23    2    1    2    0    0 -0.15546566603E+03 -0.66116183801E+03  0.29587847831E+03  0.74659006856E+03  0.92455974336E+02 0.  0.
        254    2    1    2    0    0  0.15546566603E+03  0.66116183801E+03 -0.13014625141E+03  0.11121919490E+04  0.87105013361E+03 0.  0.
        -24    2    4    4    0    0 -0.13268831828E+02  0.26665469880E+03 -0.47767440451E+03  0.55310243406E+03  0.80428076904E+02 0.  0.
         24    2    4    4    0    0  0.16873449786E+03  0.39450713922E+03  0.34752815310E+03  0.55908951492E+03  0.87738559566E+02 0.  0.
         11    1    3    3    0    0 -0.29968022833E+02 -0.36133643985E+02  0.10379182464E+02  0.48077542042E+02  0.00000000000E+00 0. -1.
        -11    1    3    3    0    0 -0.12549764320E+03 -0.62502819403E+03  0.28549929585E+03  0.69851252652E+03  0.00000000000E+00 0.  1.
          4    1    6    6  502    0  0.33364733234E+02  0.52730261090E+02  0.92885522502E+02  0.11189908913E+03  0.00000000000E+00 0. -1.
          1    1    5    5  503    0  0.51128648434E+01  0.60647849395E+02 -0.18477196727E+03  0.19453787012E+03  0.00000000000E+00 0. -1.
         -2    1    5    5    0  503 -0.18381696672E+02  0.20600684940E+03 -0.29290243724E+03  0.35856456394E+03  0.00000000000E+00 0.  1.
         -3    1    6    6    0  502  0.13536976463E+03  0.34177687813E+03  0.25464263060E+03  0.44719042579E+03  0.00000000000E+00 0.  1.
<mgrwt>
<rscale>  0 0.18513788E+04</rscale>
<asrwt>0</asrwt>
<pdfrwt beam="1">  1        1 0.15573186E+00 0.18513788E+04</pdfrwt>
<pdfrwt beam="2">  1       -1 0.13023460E+00 0.18513788E+04</pdfrwt>
<totfact> 0.70209799E+00</totfact>
</mgrwt>
</event>
<event>
12    1  0.1504874E-007  0.1919043E+04  0.7818608E-02  0.8645435E-01
         -2   -1    0    0    0  501 -0.00000000000E+00  0.00000000000E+00  0.51923487600E+03  0.51923487600E+03  0.00000000000E+00 0.  1.
          2   -1    0    0  501    0  0.00000000000E+00 -0.00000000000E+00 -0.17731504024E+04  0.17731504024E+04  0.00000000000E+00 0. -1.
         23    2    1    2    0    0 -0.55851124170E+03  0.17876327044E+03  0.58155038090E+02  0.59610031924E+03  0.89791247766E+02 0.  0.
        254    2    1    2    0    0  0.55851124170E+03 -0.17876327044E+03 -0.13120705645E+04  0.16962849592E+04  0.90108955299E+03 0.  0.
        -24    2    4    4    0    0 -0.21125665140E+03 -0.19064398492E+03 -0.44304544371E+03  0.53258296906E+03  0.79880235297E+02 0.  0.
         24    2    4    4    0    0  0.76976789310E+03  0.11880714485E+02 -0.86902512080E+03  0.11637019901E+04  0.79460056587E+02 0.  0.
         13    1    3    3    0    0 -0.22664999687E+02  0.18792584227E+02  0.19983383584E+02  0.35583690817E+02  0.00000000000E+00 0. -1.
        -13    1    3    3    0    0 -0.53584624201E+03  0.15997068621E+03  0.38171654506E+02  0.56051662842E+03  0.00000000000E+00 0.  1.
          2    1    6    6  502    0  0.55748601010E+03  0.41392368512E+01 -0.57419281617E+03  0.80031567203E+03  0.00000000000E+00 0. -1.
          3    1    5    5  503    0 -0.28940879108E+02 -0.71846071889E+02 -0.13026560207E+03  0.15155381755E+03  0.00000000000E+00 0. -1.
         -4    1    5    5    0  503 -0.18231577229E+03 -0.11879791303E+03 -0.31277984164E+03  0.38102915151E+03  0.00000000000E+00 0.  1.
         -1    1    6    6    0  502  0.21228188300E+03  0.77414776336E+01 -0.29483230462E+03  0.36338631809E+03  0.00000000000E+00 0.  1.
<mgrwt>
<rscale>  0 0.19190430E+04</rscale>
<asrwt>0</asrwt>
<pdfrwt beam="1">  1        2 0.27279238E+00 0.19190430E+04</pdfrwt>
<pdfrwt beam="2">  1       -2 0.79882287E-01 0.19190430E+04</pdfrwt>
<totfact> 0.11580922E+01</totfact>
</mgrwt>
</event>
<event>
12    1  0.1504874E-007  0.2195487E+04  0.7818608E-02  0.8520309E-01
         -1   -1    0    0    0  501 -0.00000000000E+00  0.00000000000E+00  0.16350524751E+04  0.16350524751E+04  0.00000000000E+00 0.  1.
          1   -1    0    0  501    0  0.00000000000E+00 -0.00000000000E+00 -0.73700408146E+03  0.73700408146E+03  0.00000000000E+00 0. -1.
         23    2    1    2    0    0 -0.33770466925E+03  0.56642650697E+03 -0.33271081859E+03  0.74460986520E+03  0.94148452541E+02 0.  0.
        254    2    1    2    0    0  0.33770466925E+03 -0.56642650697E+03  0.12307592122E+04  0.16274466913E+04  0.83602097058E+03 0.  0.
        -24    2    4    4    0    0  0.56428256592E+03 -0.24885605136E+03  0.96792462696E+03  0.11503258402E+04  0.77635730936E+02 0.  0.
         24    2    4    4    0    0 -0.22657789666E+03 -0.31757045561E+03  0.26283458524E+03  0.47712085110E+03  0.79835767815E+02 0.  0.
         13    1    3    3    0    0 -0.14875069599E+03  0.30572976495E+03 -0.21242916785E+03  0.40090349224E+03  0.00000000000E+00 0. -1.
        -13    1    3    3    0    0 -0.18895397326E+03  0.26069674202E+03 -0.12028165073E+03  0.34370637296E+03  0.00000000000E+00 0.  1.
          2    1    6    6  502    0 -0.21826247718E+02 -0.63174891610E+02  0.74733156363E+02  0.10026213981E+03  0.00000000000E+00 0. -1.
          3    1    5    5  503    0  0.73494119875E+02 -0.19176220238E+02  0.81582910595E+02  0.11146696542E+03  0.00000000000E+00 0. -1.
         -4    1    5    5    0  503  0.49078844604E+03 -0.22967983112E+03  0.88634171637E+03  0.10388588748E+04  0.00000000000E+00 0.  1.
         -1    1    6    6    0  502 -0.20475164894E+03 -0.25439556400E+03  0.18810142887E+03  0.37685871129E+03  0.00000000000E+00 0.  1.
<mgrwt>
<rscale>  0 0.21954866E+04</rscale>
<asrwt>0</asrwt>
<pdfrwt beam="1">  1        1 0.11338524E+00 0.21954866E+04</pdfrwt>
<pdfrwt beam="2">  1       -1 0.25154653E+00 0.21954866E+04</pdfrwt>
<totfact> 0.15636039E+00</totfact>
</mgrwt>
</event>
<event>
12    1  0.1504874E-007  0.1444961E+04  0.7818608E-02  0.8921902E-01
          1   -1    0    0  501    0  0.00000000000E+00  0.00000000000E+00  0.27641251373E+04  0.27641251373E+04  0.00000000000E+00 0. -1.
         -1   -1    0    0    0  501 -0.00000000000E+00 -0.00000000000E+00 -0.18884015079E+03  0.18884015079E+03  0.00000000000E+00 0.  1.
         23    2    1    2    0    0  0.21017577426E+03  0.36699333340E+03  0.99981376519E+03  0.10896321411E+04  0.93875849206E+02 0.  0.
        254    2    1    2    0    0 -0.21017577426E+03 -0.36699333340E+03  0.15754712213E+04  0.18633331469E+04  0.90057919392E+03 0.  0.
        -24    2    4    4    0    0  0.22772494140E+03  0.14502943450E+02  0.77208013580E+02  0.25455096605E+03  0.82256505202E+02 0.  0.
         24    2    4    4    0    0 -0.43790071566E+03 -0.38149627685E+03  0.14982632077E+04  0.16087821809E+04  0.78044986727E+02 0.  0.
         13    1    3    3    0    0  0.20988245103E+03  0.37236970131E+03  0.98138236185E+03  0.10704303704E+04  0.00000000000E+00 0. -1.
        -13    1    3    3    0    0  0.29332322409E+00 -0.53763679018E+01  0.18431403343E+02  0.19201770740E+02  0.00000000000E+00 0.  1.
          2    1    6    6  502    0 -0.24640665349E+03 -0.21440175529E+03  0.73465497004E+03  0.80399146547E+03  0.00000000000E+00 0. -1.
          3    1    5    5  503    0  0.55835275039E+01  0.99706969898E+01  0.23248081435E+02  0.25904900468E+02  0.00000000000E+00 0. -1.
         -4    1    5    5    0  503  0.22214141390E+03  0.45322464603E+01  0.53959932146E+02  0.22864606558E+03  0.00000000000E+00 0.  1.
         -1    1    6    6    0  502 -0.19149406217E+03 -0.16709452157E+03  0.76360823765E+03  0.80479071540E+03  0.00000000000E+00 0.  1.
<mgrwt>
<rscale>  0 0.14449606E+04</rscale>
<asrwt>0</asrwt>
<pdfrwt beam="1">  1        1 0.42524999E+00 0.14449606E+04</pdfrwt>
<pdfrwt beam="2">  1       -1 0.29052333E-01 0.14449606E+04</pdfrwt>
<totfact> 0.93172192E+00</totfact>
</mgrwt>
</event>
<event>
12    1  0.1734102E-007  0.2249735E+04  0.7818608E-02  0.8498008E-01
          2   -1    0    0  501    0  0.00000000000E+00  0.00000000000E+00  0.16253743895E+04  0.16253743895E+04  0.00000000000E+00 0.  1.
         -2   -1    0    0    0  501 -0.00000000000E+00 -0.00000000000E+00 -0.77848317414E+03  0.77848317414E+03  0.00000000000E+00 0. -1.
         23    2    1    2    0    0 -0.53414958444E+03 -0.77525040392E+03  0.31610913027E+03  0.99733718096E+03  0.91801432189E+02 0.  0.
        254    2    1    2    0    0  0.53414958444E+03  0.77525040392E+03  0.53078208507E+03  0.14065203827E+04  0.90013387763E+03 0.  0.
        -24    2    4    4    0    0  0.61357701359E+03  0.92580819782E+03  0.46811100817E+03  0.12079023450E+04  0.79388842933E+02 0.  0.
         24    2    4    4    0    0 -0.79427429158E+02 -0.15055779390E+03  0.62671076904E+02  0.19861803763E+03  0.80901762572E+02 0.  0.
         11    1    3    3    0    0 -0.42383107924E+03 -0.61404637700E+03  0.21030992235E+03  0.77518771938E+03  0.00000000000E+00 0. -1.
        -11    1    3    3    0    0 -0.11031850519E+03 -0.16120402692E+03  0.10579920792E+03  0.22214946158E+03  0.00000000000E+00 0.  1.
          2    1    6    6  502    0 -0.45281094284E+02 -0.87499883893E+02 -0.68250292224E+01  0.98758231074E+02  0.00000000000E+00 0. -1.
          3    1    5    5  503    0  0.10267420977E+03  0.16714949169E+03  0.11546458985E+03  0.22762472940E+03  0.00000000000E+00 0. -1.
         -4    1    5    5    0  503  0.51090280383E+03  0.75865870612E+03  0.35264641831E+03  0.98027761562E+03  0.00000000000E+00 0.  1.
         -1    1    6    6    0  502 -0.34146334874E+02 -0.63057910003E+02  0.69496106127E+02  0.99859806559E+02  0.00000000000E+00 0.  1.
<mgrwt>
<rscale>  0 0.22497348E+04</rscale>
<asrwt>0</asrwt>
<pdfrwt beam="1">  1        2 0.25005760E+00 0.22497348E+04</pdfrwt>
<pdfrwt beam="2">  1       -2 0.11976664E+00 0.22497348E+04</pdfrwt>
<totfact> 0.52434000E+00</totfact>
</mgrwt>
</event>
<event>
12    1  0.2852606E-007  0.1905272E+04  0.7818608E-02  0.8652237E-01
         -2   -1    0    0    0  501 -0.00000000000E+00  0.00000000000E+00  0.55184821662E+03  0.55184821662E+03  0.00000000000E+00 0. -1.
          2   -1    0    0  501    0  0.00000000000E+00 -0.00000000000E+00 -0.16445012668E+04  0.16445012668E+04  0.00000000000E+00 0.  1.
         23    2    1    2    0    0  0.24896371035E+03 -0.62510247450E+03 -0.76569480636E+03  0.10235513882E+04  0.92913266703E+02 0.  0.
        254    2    1    2    0    0 -0.24896371035E+03  0.62510247450E+03 -0.32695824381E+03  0.11727980952E+04  0.90322624309E+03 0.  0.
        -24    2    4    4    0    0 -0.52353523520E+03  0.47310609151E+03  0.30624037314E+01  0.70984831269E+03  0.77179870412E+02 0.  0.
         24    2    4    4    0    0  0.27457152486E+03  0.15199638299E+03 -0.33002064754E+03  0.46294978250E+03  0.83165200733E+02 0.  0.
         13    1    3    3    0    0  0.59457792616E+02 -0.19080521698E+03 -0.28938957338E+03  0.35169331115E+03  0.00000000000E+00 0. -1.
        -13    1    3    3    0    0  0.18950591773E+03 -0.43429725752E+03 -0.47630523298E+03  0.67185807706E+03  0.00000000000E+00 0.  1.
          4    1    6    6  502    0  0.39340882133E+02  0.10324413675E+02 -0.11223295169E+02  0.42193137821E+02  0.00000000000E+00 0. -1.
          3    1    5    5  503    0 -0.71093392828E+02  0.39288113729E+02 -0.15784023062E+02  0.82746370121E+02  0.00000000000E+00 0. -1.
         -4    1    5    5    0  503 -0.45244184238E+03  0.43381797778E+03  0.18846426793E+02  0.62710194257E+03  0.00000000000E+00 0.  1.
         -3    1    6    6    0  502  0.23523064273E+03  0.14167196932E+03 -0.31879735237E+03  0.42075664468E+03  0.00000000000E+00 0.  1.
<mgrwt>
<rscale>  0 0.19052717E+04</rscale>
<asrwt>0</asrwt>
<pdfrwt beam="1">  1        2 0.25300019E+00 0.19052717E+04</pdfrwt>
<pdfrwt beam="2">  1       -2 0.84899728E-01 0.19052717E+04</pdfrwt>
<totfact> 0.11910665E+01</totfact>
</mgrwt>
</event>
<event>
12    1  0.1504874E-007  0.1698044E+04  0.7818608E-02  0.8762480E-01
         -2   -1    0    0    0  501 -0.00000000000E+00  0.00000000000E+00  0.30399247537E+03  0.30399247537E+03  0.00000000000E+00 0. -1.
          2   -1    0    0  501    0  0.00000000000E+00 -0.00000000000E+00 -0.23712387295E+04  0.23712387295E+04  0.00000000000E+00 0.  1.
         23    2    1    2    0    0 -0.43287384389E+03  0.13126175421E+02 -0.74103848920E+02  0.44774836646E+03  0.86227362455E+02 0.  0.
        254    2    1    2    0    0  0.43287384389E+03 -0.13126175421E+02 -0.19931424052E+04  0.22274828384E+04  0.89527151566E+03 0.  0.
        -24    2    4    4    0    0 -0.13072117065E+03 -0.17009133446E+03 -0.10923538942E+03  0.25299851998E+03  0.77825409072E+02 0.  0.
         24    2    4    4    0    0  0.56359501454E+03  0.15696515904E+03 -0.18839070158E+04  0.19744843185E+04  0.84883908910E+02 0.  0.
         11    1    3    3    0    0 -0.36892869175E+03  0.41903143492E+02 -0.66593235853E+02  0.37722528030E+03  0.00000000000E+00 0. -1.
        -11    1    3    3    0    0 -0.63945152136E+02 -0.28776968071E+02 -0.75106130671E+01  0.70523086161E+02  0.00000000000E+00 0.  1.
          4    1    6    6  502    0  0.53023921402E+03  0.12770048701E+03 -0.17023853039E+04  0.17876176217E+04  0.00000000000E+00 0. -1.
          1    1    5    5  503    0 -0.41553814145E+02 -0.11436098571E+03 -0.44724009000E+02  0.12963561048E+03  0.00000000000E+00 0. -1.
         -2    1    5    5    0  503 -0.89167356504E+02 -0.55730348748E+02 -0.64511380419E+02  0.12336290950E+03  0.00000000000E+00 0.  1.
         -3    1    6    6    0  502  0.33355800519E+02  0.29264672036E+02 -0.18152171197E+03  0.18686669680E+03  0.00000000000E+00 0.  1.
<mgrwt>
<rscale>  0 0.16980444E+04</rscale>
<asrwt>0</asrwt>
<pdfrwt beam="1">  1        2 0.36480596E+00 0.16980444E+04</pdfrwt>
<pdfrwt beam="2">  1       -2 0.46768073E-01 0.16980444E+04</pdfrwt>
<totfact> 0.17050134E+01</totfact>
</mgrwt>
</event>
<event>
12    1  0.1504874E-007  0.1153020E+04  0.7818608E-02  0.9155002E-01
         -2   -1    0    0    0  501 -0.00000000000E+00  0.00000000000E+00  0.27646637723E+03  0.27646637723E+03  0.00000000000E+00 0.  1.
          2   -1    0    0  501    0  0.00000000000E+00 -0.00000000000E+00 -0.12021856757E+04  0.12021856757E+04  0.00000000000E+00 0. -1.
         23    2    1    2    0    0  0.46736373606E+01  0.89919817646E+02 -0.39599171371E+03  0.41637214515E+03  0.91917949489E+02 0.  0.
        254    2    1    2    0    0 -0.46736373606E+01 -0.89919817646E+02 -0.52972758476E+03  0.10622799078E+04  0.91636230385E+03 0.  0.
        -24    2    4    4    0    0  0.24190376534E+03 -0.36261809805E+03 -0.40898401864E+02  0.44544539616E+03  0.82095097105E+02 0.  0.
         24    2    4    4    0    0 -0.24657740270E+03  0.27269828040E+03 -0.48882918290E+03  0.61683451161E+03  0.79787699565E+02 0.  0.
         11    1    3    3    0    0  0.13858131258E+02  0.43623014042E+02 -0.34032448902E+03  0.34338866170E+03  0.00000000000E+00 0. -1.
        -11    1    3    3    0    0 -0.91844938969E+01  0.46296803604E+02 -0.55667224690E+02  0.72983483452E+02  0.00000000000E+00 0.  1.
          4    1    6    6  502    0 -0.12275923559E+03  0.13897741569E+03 -0.31175199398E+03  0.36273110943E+03  0.00000000000E+00 0. -1.
          3    1    5    5  503    0  0.16456420065E+03 -0.20896823328E+03 -0.59084074789E+02  0.27247023057E+03  0.00000000000E+00 0. -1.
         -4    1    5    5    0  503  0.77339564688E+02 -0.15364986477E+03  0.18185672925E+02  0.17297516559E+03  0.00000000000E+00 0.  1.
         -3    1    6    6    0  502 -0.12381816711E+03  0.13372086471E+03 -0.17707718892E+03  0.25410340218E+03  0.00000000000E+00 0.  1.
<mgrwt>
<rscale>  0 0.11530202E+04</rscale>
<asrwt>0</asrwt>
<pdfrwt beam="1">  1        2 0.18495164E+00 0.11530202E+04</pdfrwt>
<pdfrwt beam="2">  1       -2 0.42533289E-01 0.11530202E+04</pdfrwt>
<totfact> 0.97870060E+01</totfact>
</mgrwt>
</event>
<event>
12    1  0.1504874E-007  0.2211940E+04  0.7818608E-02  0.8513475E-01
          2   -1    0    0  501    0  0.00000000000E+00  0.00000000000E+00  0.17971687576E+04  0.17971687576E+04  0.00000000000E+00 0. -1.
         -2   -1    0    0    0  501 -0.00000000000E+00 -0.00000000000E+00 -0.68060912408E+03  0.68060912408E+03  0.00000000000E+00 0.  1.
         23    2    1    2    0    0 -0.81367448423E+03 -0.42096237584E+03  0.35208713356E+03  0.98579281131E+03  0.92447980362E+02 0.  0.
        254    2    1    2    0    0  0.81367448423E+03  0.42096237584E+03  0.76447249997E+03  0.14919850704E+04  0.89572638614E+03 0.  0.
        -24    2    4    4    0    0  0.52124338667E+03  0.50900327211E+03  0.88943619139E+03  0.11525409645E+04  0.80466993623E+02 0.  0.
         24    2    4    4    0    0  0.29243109756E+03 -0.88040896275E+02 -0.12496369143E+03  0.33944410589E+03  0.79619285431E+02 0.  0.
         13    1    3    3    0    0 -0.56847016717E+03 -0.33047941316E+03  0.27985965757E+03  0.71463025504E+03  0.00000000000E+00 0.  1.
        -13    1    3    3    0    0 -0.24520431706E+03 -0.90482962677E+02  0.72227475991E+02  0.27116255628E+03  0.00000000000E+00 0. -1.
          4    1    6    6  502    0  0.43906626792E+02 -0.16769059060E+02 -0.53488314979E+02  0.71203883723E+02  0.00000000000E+00 0. -1.
          3    1    5    5  503    0  0.80155597841E+02  0.74627580601E+02  0.92125530326E+02  0.14311292391E+03  0.00000000000E+00 0. -1.
         -4    1    5    5    0  503  0.44108778883E+03  0.43437569151E+03  0.79731066107E+03  0.10094280406E+04  0.00000000000E+00 0.  1.
         -1    1    6    6    0  502  0.24852447077E+03 -0.71271837215E+02 -0.71475376447E+02  0.26824022217E+03  0.00000000000E+00 0.  1.
<mgrwt>
<rscale>  0 0.22119398E+04</rscale>
<asrwt>0</asrwt>
<pdfrwt beam="1">  1        2 0.27648750E+00 0.22119398E+04</pdfrwt>
<pdfrwt beam="2">  1       -2 0.10470910E+00 0.22119398E+04</pdfrwt>
<totfact> 0.58519793E+00</totfact>
</mgrwt>
</event>
<event>
12    1  0.1504874E-007  0.2440178E+04  0.7818608E-02  0.8424613E-01
         -2   -1    0    0    0  501 -0.00000000000E+00  0.00000000000E+00  0.61346106046E+03  0.61346106046E+03  0.00000000000E+00 0.  1.
          2   -1    0    0  501    0  0.00000000000E+00 -0.00000000000E+00 -0.24265886830E+04  0.24265886830E+04  0.00000000000E+00 0. -1.
         23    2    1    2    0    0  0.13228103110E+03 -0.60517911309E+03 -0.18527759153E+04  0.19557275779E+04  0.91387834519E+02 0.  0.
        254    2    1    2    0    0 -0.13228103110E+03  0.60517911309E+03  0.39648292814E+02  0.10843221656E+04  0.88906835592E+03 0.  0.
        -24    2    4    4    0    0 -0.36358662523E+03  0.96934264038E+02 -0.24023157769E+03  0.45431123341E+03  0.84237760497E+02 0.  0.
         24    2    4    4    0    0  0.23130559412E+03  0.50824484905E+03  0.27987987051E+03  0.63001093216E+03  0.82255262815E+02 0.  0.
         13    1    3    3    0    0  0.60156140620E+02 -0.38721511037E+03 -0.12804560857E+04  0.13390750876E+04  0.00000000000E+00 0. -1.
        -13    1    3    3    0    0  0.72124890484E+02 -0.21796400272E+03 -0.57231982967E+03  0.61665249025E+03  0.00000000000E+00 0.  1.
          2    1    6    6  502    0  0.10602417392E+03  0.26887309310E+03  0.10179807180E+03  0.30642570563E+03  0.00000000000E+00 0. -1.
          3    1    5    5  503    0 -0.20668162246E+03  0.23107993573E+02 -0.97364492250E+02  0.22963256908E+03  0.00000000000E+00 0. -1.
         -4    1    5    5    0  503 -0.15690500277E+03  0.73826270466E+02 -0.14286708544E+03  0.22467866434E+03  0.00000000000E+00 0.  1.
         -1    1    6    6    0  502  0.12528142020E+03  0.23937175596E+03  0.17808179871E+03  0.32358522653E+03  0.00000000000E+00 0.  1.
<mgrwt>
<rscale>  0 0.24401784E+04</rscale>
<asrwt>0</asrwt>
<pdfrwt beam="1">  1        2 0.37332134E+00 0.24401784E+04</pdfrwt>
<pdfrwt beam="2">  1       -2 0.94378624E-01 0.24401784E+04</pdfrwt>
<totfact> 0.32551853E+00</totfact>
</mgrwt>
</event>
<event>
12    1  0.1504874E-007  0.1015825E+04  0.7818608E-02  0.9291356E-01
         -1   -1    0    0    0  501 -0.00000000000E+00  0.00000000000E+00  0.29836642645E+03  0.29836642645E+03  0.00000000000E+00 0.  1.
          1   -1    0    0  501    0  0.00000000000E+00 -0.00000000000E+00 -0.86462563722E+03  0.86462563722E+03  0.00000000000E+00 0. -1.
         23    2    1    2    0    0  0.19013919689E+02  0.57752193958E+02 -0.51241362392E+02  0.12150074194E+03  0.91868972039E+02 0.  0.
        254    2    1    2    0    0 -0.19013919689E+02 -0.57752193958E+02 -0.51501784837E+03  0.10414913217E+04  0.90319651463E+03 0.  0.
        -24    2    4    4    0    0  0.15572110273E+03 -0.97738312945E+01 -0.72902740407E+03  0.75002020969E+03  0.81882656545E+02 0.  0.
         24    2    4    4    0    0 -0.17473502242E+03 -0.47978362664E+02  0.21400955570E+03  0.29147111204E+03  0.79505143744E+02 0.  0.
         13    1    3    3    0    0  0.47558385548E+02  0.23697920031E+02  0.70735757683E+00  0.53140303014E+02  0.00000000000E+00 0.  1.
        -13    1    3    3    0    0 -0.28544465859E+02  0.34054273928E+02 -0.51948719968E+02  0.68360438927E+02  0.00000000000E+00 0. -1.
          2    1    6    6  502    0 -0.14655507831E+03 -0.26682793698E+02  0.20769026571E+03  0.25558874961E+03  0.00000000000E+00 0. -1.
          1    1    5    5  503    0  0.13467154404E+03  0.19229249184E+02 -0.63469311403E+03  0.64910826354E+03  0.00000000000E+00 0. -1.
         -2    1    5    5    0  503  0.21049558685E+02 -0.29003080478E+02 -0.94334290041E+02  0.10091194615E+03  0.00000000000E+00 0.  1.
         -3    1    6    6    0  502 -0.28179944108E+02 -0.21295568966E+02  0.63192899872E+01  0.35882362429E+02  0.00000000000E+00 0.  1.
<mgrwt>
<rscale>  0 0.10158253E+04</rscale>
<asrwt>0</asrwt>
<pdfrwt beam="1">  1        1 0.13301933E+00 0.10158253E+04</pdfrwt>
<pdfrwt beam="2">  1       -1 0.45902528E-01 0.10158253E+04</pdfrwt>
<totfact> 0.91963572E+01</totfact>
</mgrwt>
</event>
<event>
12    1  0.1504874E-007  0.1514937E+04  0.7818608E-02  0.8874581E-01
          2   -1    0    0  501    0  0.00000000000E+00  0.00000000000E+00  0.40107707839E+03  0.40107707839E+03  0.00000000000E+00 0. -1.
         -2   -1    0    0    0  501 -0.00000000000E+00 -0.00000000000E+00 -0.14305436309E+04  0.14305436309E+04  0.00000000000E+00 0.  1.
         23    2    1    2    0    0 -0.20439908602E+03 -0.13420507923E+03 -0.82503615774E+03  0.86595211234E+03  0.96945395150E+02 0.  0.
        254    2    1    2    0    0  0.20439908602E+03  0.13420507923E+03 -0.20443039480E+03  0.96566859698E+03  0.91155584756E+03 0.  0.
        -24    2    4    4    0    0  0.39327841150E+02 -0.59381339837E+02  0.34187457671E+03  0.35779422976E+03  0.77882360265E+02 0.  0.
         24    2    4    4    0    0  0.16507124487E+03  0.19358641907E+03 -0.54630497151E+03  0.60787436722E+03  0.79610972235E+02 0.  0.
         13    1    3    3    0    0  0.59665503185E+01  0.57504245546E+01 -0.12179934512E+02  0.14731527754E+02  0.00000000000E+00 0. -1.
        -13    1    3    3    0    0 -0.21036563634E+03 -0.13995550378E+03 -0.81285622323E+03  0.85122058459E+03  0.00000000000E+00 0.  1.
          4    1    6    6  502    0  0.13305081372E+03  0.11721417096E+03 -0.42975639457E+03  0.46490024691E+03  0.00000000000E+00 0. -1.
          3    1    5    5  503    0  0.28328774651E+02 -0.29187656141E+02  0.30956260256E+03  0.31222338741E+03  0.00000000000E+00 0. -1.
         -2    1    5    5    0  503  0.10999066500E+02 -0.30193683695E+02  0.32311974151E+02  0.45570842350E+02  0.00000000000E+00 0.  1.
         -3    1    6    6    0  502  0.32020431153E+02  0.76372248106E+02 -0.11654857694E+03  0.14297412031E+03  0.00000000000E+00 0.  1.
<mgrwt>
<rscale>  0 0.15149366E+04</rscale>
<asrwt>0</asrwt>
<pdfrwt beam="1">  1        2 0.61704167E-01 0.15149366E+04</pdfrwt>
<pdfrwt beam="2">  1       -2 0.22008363E+00 0.15149366E+04</pdfrwt>
<totfact> 0.75482664E+00</totfact>
</mgrwt>
</event>
<event>
12    1  0.1504874E-007  0.1484019E+04  0.7818608E-02  0.8895150E-01
          1   -1    0    0  501    0  0.00000000000E+00  0.00000000000E+00  0.28826773702E+04  0.28826773702E+04  0.00000000000E+00 0. -1.
         -1   -1    0    0    0  501 -0.00000000000E+00 -0.00000000000E+00 -0.19099534935E+03  0.19099534935E+03  0.00000000000E+00 0.  1.
         23    2    1    2    0    0  0.45085397768E+03  0.62486910665E+02  0.65737933769E+03  0.80472332749E+03  0.90874182151E+02 0.  0.
        254    2    1    2    0    0 -0.45085397768E+03 -0.62486910665E+02  0.20343026831E+04  0.22689493920E+04  0.89586272039E+03 0.  0.
        -24    2    4    4    0    0 -0.24707626300E+03  0.39935553412E+03  0.77252608102E+03  0.90763340250E+03  0.80438331033E+02 0.  0.
         24    2    4    4    0    0 -0.20377771469E+03 -0.46184244479E+03  0.12617766021E+04  0.13613159895E+04  0.79228965083E+02 0.  0.
         11    1    3    3    0    0  0.30515612611E+03  0.99381556276E+01  0.38479840943E+03  0.49121160831E+03  0.00000000000E+00 0.  1.
        -11    1    3    3    0    0  0.14569785157E+03  0.52548755037E+02  0.27258092826E+03  0.31351171918E+03  0.00000000000E+00 0. -1.
          4    1    6    6  502    0 -0.15899540094E+03 -0.36606263165E+03  0.90255261568E+03  0.98685490923E+03  0.00000000000E+00 0. -1.
          3    1    5    5  503    0 -0.24403034787E+03  0.38951206840E+03  0.77042036081E+03  0.89711648879E+03  0.00000000000E+00 0. -1.
         -4    1    5    5    0  503 -0.30459151264E+01  0.98434657206E+01  0.21057202177E+01  0.10516913710E+02  0.00000000000E+00 0.  1.
         -3    1    6    6    0  502 -0.44782313753E+02 -0.95779813135E+02  0.35922398643E+03  0.37446108029E+03  0.00000000000E+00 0.  1.
<mgrwt>
<rscale>  0 0.14840188E+04</rscale>
<asrwt>0</asrwt>
<pdfrwt beam="1">  1        1 0.44348879E+00 0.14840188E+04</pdfrwt>
<pdfrwt beam="2">  1       -1 0.29383902E-01 0.14840188E+04</pdfrwt>
<totfact> 0.74935114E+00</totfact>
</mgrwt>
</event>
<event>
12    1  0.1504874E-007  0.2117072E+04  0.7818608E-02  0.8553760E-01
          1   -1    0    0  501    0  0.00000000000E+00  0.00000000000E+00  0.77258022042E+03  0.77258022042E+03  0.00000000000E+00 0. -1.
         -1   -1    0    0    0  501 -0.00000000000E+00 -0.00000000000E+00 -0.14503321614E+04  0.14503321614E+04  0.00000000000E+00 0.  1.
         23    2    1    2    0    0  0.71154805880E+03 -0.37366666101E+03 -0.59585473546E+03  0.10047918352E+04  0.92931979125E+02 0.  0.
        254    2    1    2    0    0 -0.71154805880E+03  0.37366666101E+03 -0.81897205500E+02  0.12181205466E+04  0.91169243735E+03 0.  0.
        -24    2    4    4    0    0 -0.10878606674E+03  0.10329496327E+03 -0.43444465801E+03  0.46527004603E+03  0.72317336114E+02 0.  0.
         24    2    4    4    0    0 -0.60276199205E+03  0.27037169773E+03  0.35254745251E+03  0.75285050059E+03  0.77918521363E+02 0.  0.
         13    1    3    3    0    0  0.48163396664E+02 -0.21422423376E+02 -0.13607358391E+02  0.54440731111E+02  0.00000000000E+00 0. -1.
        -13    1    3    3    0    0  0.66338466213E+03 -0.35224423763E+03 -0.58224737707E+03  0.95035110407E+03  0.00000000000E+00 0.  1.
          4    1    6    6  502    0 -0.16416603118E+03  0.57892547862E+02  0.58407343473E+02  0.18361222907E+03  0.00000000000E+00 0. -1.
          3    1    5    5  503    0 -0.54548316901E+02  0.89896696736E+02 -0.22266255498E+03  0.24624286457E+03  0.00000000000E+00 0. -1.
         -4    1    5    5    0  503 -0.54237749843E+02  0.13398266538E+02 -0.21178210304E+03  0.21902718147E+03  0.00000000000E+00 0.  1.
         -3    1    6    6    0  502 -0.43859596087E+03  0.21247914987E+03  0.29414010904E+03  0.56923827153E+03  0.00000000000E+00 0.  1.
<mgrwt>
<rscale>  0 0.21170715E+04</rscale>
<asrwt>0</asrwt>
<pdfrwt beam="1">  1        1 0.11885850E+00 0.21170715E+04</pdfrwt>
<pdfrwt beam="2">  1       -1 0.22312802E+00 0.21170715E+04</pdfrwt>
<totfact> 0.22509708E+00</totfact>
</mgrwt>
</event>
<event>
12    1  0.1504874E-007  0.1547125E+04  0.7818608E-02  0.8853707E-01
         -1   -1    0    0    0  501 -0.00000000000E+00  0.00000000000E+00  0.32412837196E+03  0.32412837196E+03  0.00000000000E+00 0.  1.
          1   -1    0    0  501    0  0.00000000000E+00 -0.00000000000E+00 -0.18461776473E+04  0.18461776473E+04  0.00000000000E+00 0. -1.
         23    2    1    2    0    0 -0.12925912567E+03  0.46634698919E+03 -0.30501354224E+03  0.57909062951E+03  0.90140225955E+02 0.  0.
        254    2    1    2    0    0  0.12925912567E+03 -0.46634698919E+03 -0.12170357331E+04  0.15912153898E+04  0.90366089053E+03 0.  0.
        -24    2    4    4    0    0  0.14762394372E+03  0.20686424788E+03 -0.66586962250E+03  0.71724365092E+03  0.80439137219E+02 0.  0.
         24    2    4    4    0    0 -0.18364818048E+02 -0.67321123707E+03 -0.55116611063E+03  0.87397173887E+03  0.80572219636E+02 0.  0.
         11    1    3    3    0    0 -0.13475112367E+03  0.40591204563E+03 -0.24115486325E+03  0.49099706943E+03  0.00000000000E+00 0.  1.
        -11    1    3    3    0    0  0.54919979966E+01  0.60434943563E+02 -0.63858678986E+02  0.88093560078E+02  0.00000000000E+00 0. -1.
          2    1    6    6  502    0  0.21475767528E+02 -0.34302814201E+03 -0.24667240323E+03  0.42305648478E+03  0.00000000000E+00 0. -1.
          1    1    5    5  503    0 -0.22816953722E+01  0.43365931683E+02 -0.84749095121E+02  0.95227198259E+02  0.00000000000E+00 0. -1.
         -2    1    5    5    0  503  0.14990563909E+03  0.16349831620E+03 -0.58112052738E+03  0.62201645266E+03  0.00000000000E+00 0.  1.
         -3    1    6    6    0  502 -0.39840585576E+02 -0.33018309507E+03 -0.30449370740E+03  0.45091525409E+03  0.00000000000E+00 0.  1.
<mgrwt>
<rscale>  0 0.15471245E+04</rscale>
<asrwt>0</asrwt>
<pdfrwt beam="1">  1        1 0.28402733E+00 0.15471245E+04</pdfrwt>
<pdfrwt beam="2">  1       -1 0.49865903E-01 0.15471245E+04</pdfrwt>
<totfact> 0.14738411E+01</totfact>
</mgrwt>
</event>
<event>
12    1  0.1504874E-007  0.1415234E+04  0.7818608E-02  0.8942864E-01
         -2   -1    0    0    0  501 -0.00000000000E+00  0.00000000000E+00  0.87221715678E+03  0.87221715678E+03  0.00000000000E+00 0.  1.
          2   -1    0    0  501    0  0.00000000000E+00 -0.00000000000E+00 -0.57407954904E+03  0.57407954904E+03  0.00000000000E+00 0. -1.
         23    2    1    2    0    0  0.11808531131E+03 -0.11836510579E+03  0.47854460617E+03  0.51528634114E+03  0.92523695614E+02 0.  0.
        254    2    1    2    0    0 -0.11808531131E+03  0.11836510579E+03 -0.18040699843E+03  0.93101036469E+03  0.89793049567E+03 0.  0.
        -24    2    4    4    0    0 -0.14037138293E+03 -0.33883194179E+03  0.10008676394E+03  0.38853736012E+03  0.80204176800E+02 0.  0.
         24    2    4    4    0    0  0.22286071619E+02  0.45719704758E+03 -0.28049376236E+03  0.54247300456E+03  0.77938441439E+02 0.  0.
         13    1    3    3    0    0  0.19145126586E+02 -0.74212957935E+01  0.18609801744E+03  0.18722735804E+03  0.00000000000E+00 0. -1.
        -13    1    3    3    0    0  0.98940184723E+02 -0.11094381000E+03  0.29244658873E+03  0.32805898309E+03  0.00000000000E+00 0.  1.
          4    1    6    6  502    0  0.68554033754E+01  0.41518455533E+03 -0.27338212205E+03  0.49715490161E+03  0.00000000000E+00 0. -1.
          1    1    5    5  503    0 -0.13500176151E+03 -0.33968645315E+03  0.89030398203E+02  0.37621639234E+03  0.00000000000E+00 0. -1.
         -4    1    5    5    0  503 -0.53696214220E+01  0.85451136076E+00  0.11056365732E+02  0.12320967782E+02  0.00000000000E+00 0.  1.
         -3    1    6    6    0  502  0.15430668243E+02  0.42012492251E+02 -0.71116403160E+01  0.45318102956E+02  0.00000000000E+00 0.  1.
<mgrwt>
<rscale>  0 0.14152343E+04</rscale>
<asrwt>0</asrwt>
<pdfrwt beam="1">  1        2 0.88319931E-01 0.14152343E+04</pdfrwt>
<pdfrwt beam="2">  1       -2 0.13418725E+00 0.14152343E+04</pdfrwt>
<totfact> 0.20364737E+01</totfact>
</mgrwt>
</event>
<event>
12    1  0.1504874E-007  0.1889712E+04  0.7818608E-02  0.8659994E-01
         -1   -1    0    0    0  501 -0.00000000000E+00  0.00000000000E+00  0.24246101291E+03  0.24246101291E+03  0.00000000000E+00 0.  1.
          1   -1    0    0  501    0  0.00000000000E+00 -0.00000000000E+00 -0.36820486781E+04  0.36820486781E+04  0.00000000000E+00 0. -1.
         23    2    1    2    0    0  0.82463292252E+02  0.55359694549E+03 -0.22966922863E+04  0.23656324391E+04  0.90286245806E+02 0.  0.
        254    2    1    2    0    0 -0.82463292252E+02 -0.55359694549E+03 -0.11428953789E+04  0.15588772520E+04  0.90034363826E+03 0.  0.
        -24    2    4    4    0    0 -0.41382461051E+03 -0.17352691100E+03 -0.22359603850E+03  0.50729416163E+03  0.77393674715E+02 0.  0.
         24    2    4    4    0    0  0.33136131826E+03 -0.38007003450E+03 -0.91929934043E+03  0.10515830904E+04  0.80387587634E+02 0.  0.
         13    1    3    3    0    0  0.51170677592E+02  0.46133861688E+03 -0.20078283164E+04  0.20607829352E+04  0.00000000000E+00 0. -1.
        -13    1    3    3    0    0  0.31292614660E+02  0.92258328612E+02 -0.28886396988E+03  0.30484950390E+03  0.00000000000E+00 0.  1.
          2    1    6    6  502    0  0.14722455167E+03 -0.19330376903E+03 -0.51828566046E+03  0.57241719189E+03  0.00000000000E+00 0. -1.
          3    1    5    5  503    0 -0.69618349638E+02 -0.60077737725E+02 -0.32143584701E+02  0.97412828796E+02  0.00000000000E+00 0. -1.
         -4    1    5    5    0  503 -0.34420626087E+03 -0.11344917327E+03 -0.19145245380E+03  0.40988133284E+03  0.00000000000E+00 0.  1.
         -1    1    6    6    0  502  0.18413676659E+03 -0.18676626547E+03 -0.40101367998E+03  0.47916589847E+03  0.00000000000E+00 0.  1.
<mgrwt>
<rscale>  0 0.18897124E+04</rscale>
<asrwt>0</asrwt>
<pdfrwt beam="1">  1        1 0.56646903E+00 0.18897124E+04</pdfrwt>
<pdfrwt beam="2">  1       -1 0.37301694E-01 0.18897124E+04</pdfrwt>
<totfact> 0.11641991E+00</totfact>
</mgrwt>
</event>
<event>
12    1  0.1504874E-007  0.2342274E+04  0.7818608E-02  0.8461437E-01
          2   -1    0    0  501    0  0.00000000000E+00  0.00000000000E+00  0.20193450046E+04  0.20193450046E+04  0.00000000000E+00 0.  1.
         -2   -1    0    0    0  501 -0.00000000000E+00 -0.00000000000E+00 -0.67921109383E+03  0.67921109383E+03  0.00000000000E+00 0. -1.
         23    2    1    2    0    0  0.58187033937E+03  0.77236598221E+03  0.85736937207E+03  0.12957235749E+04  0.93247198147E+02 0.  0.
        254    2    1    2    0    0 -0.58187033937E+03 -0.77236598221E+03  0.48276453875E+03  0.14028325236E+04  0.89429032598E+03 0.  0.
        -24    2    4    4    0    0 -0.27761434007E+03 -0.69379766479E+03 -0.77514620745E+02  0.75553774061E+03  0.80023993751E+02 0.  0.
         24    2    4    4    0    0 -0.30425599930E+03 -0.78568317422E+02  0.56027915949E+03  0.64729478301E+03  0.79580813910E+02 0.  0.
         13    1    3    3    0    0  0.52132713045E+03  0.72745483589E+03  0.80682555275E+03  0.12049647247E+04  0.00000000000E+00 0.  1.
        -13    1    3    3    0    0  0.60543208922E+02  0.44911146324E+02  0.50543819317E+02  0.90758850157E+02  0.00000000000E+00 0. -1.
          4    1    6    6  502    0 -0.29587435914E+02 -0.22935653264E+02  0.31849865335E+02  0.49151546023E+02  0.00000000000E+00 0. -1.
          3    1    5    5  503    0 -0.25889973454E+02 -0.11862364752E+03  0.90481794899E+01  0.12175274136E+03  0.00000000000E+00 0. -1.
         -4    1    5    5    0  503 -0.25172436661E+03 -0.57517401727E+03 -0.86562800235E+02  0.63378499925E+03  0.00000000000E+00 0.  1.
         -3    1    6    6    0  502 -0.27466856339E+03 -0.55632664158E+02  0.52842929416E+03  0.59814323699E+03  0.00000000000E+00 0.  1.
<mgrwt>
<rscale>  0 0.23422737E+04</rscale>
<asrwt>0</asrwt>
<pdfrwt beam="1">  1        2 0.31066846E+00 0.23422737E+04</pdfrwt>
<pdfrwt beam="2">  1       -2 0.10449402E+00 0.23422737E+04</pdfrwt>
<totfact> 0.43788052E+00</totfact>
</mgrwt>
</event>
<event>
12    1  0.1504874E-007  0.3150359E+04  0.7818608E-02  0.8202052E-01
         -2   -1    0    0    0  501 -0.00000000000E+00  0.00000000000E+00  0.96246200267E+03  0.96246200267E+03  0.00000000000E+00 0.  1.
          2   -1    0    0  501    0  0.00000000000E+00 -0.00000000000E+00 -0.25779624864E+04  0.25779624864E+04  0.00000000000E+00 0. -1.
         23    2    1    2    0    0  0.36036972486E+03 -0.13185302240E+04 -0.21655334518E+03  0.13863400136E+04  0.81578134398E+02 0.  0.
        254    2    1    2    0    0 -0.36036972486E+03  0.13185302240E+04 -0.13989471385E+04  0.21540844754E+04  0.90257328830E+03 0.  0.
        -24    2    4    4    0    0 -0.63759196464E+03  0.10385328449E+04 -0.92631473062E+03  0.15331656225E+04  0.86393647965E+02 0.  0.
         24    2    4    4    0    0  0.27722223978E+03  0.27999737906E+03 -0.47263240791E+03  0.62091885296E+03  0.83115139704E+02 0.  0.
         13    1    3    3    0    0  0.23087449047E+03 -0.74807631370E+03 -0.15559830138E+03  0.79820550791E+03  0.00000000000E+00 0. -1.
        -13    1    3    3    0    0  0.12949523439E+03 -0.57045391025E+03 -0.60955043799E+02  0.58813450572E+03  0.00000000000E+00 0.  1.
          4    1    6    6  502    0  0.10605116583E+03  0.16512010833E+03 -0.24248020948E+03  0.31194254590E+03  0.00000000000E+00 0. -1.
          3    1    5    5  503    0 -0.39422099061E+03  0.60095773672E+03 -0.49967377923E+03  0.87534808871E+03  0.00000000000E+00 0. -1.
         -4    1    5    5    0  503 -0.24337097404E+03  0.43757510817E+03 -0.42664095139E+03  0.65781753374E+03  0.00000000000E+00 0.  1.
         -3    1    6    6    0  502  0.17117107395E+03  0.11487727073E+03 -0.23015219843E+03  0.30897630706E+03  0.00000000000E+00 0.  1.
<mgrwt>
<rscale>  0 0.31503593E+04</rscale>
<asrwt>0</asrwt>
<pdfrwt beam="1">  1        2 0.39660961E+00 0.31503593E+04</pdfrwt>
<pdfrwt beam="2">  1       -2 0.14807108E+00 0.31503593E+04</pdfrwt>
<totfact> 0.82172433E-01</totfact>
</mgrwt>
</event>
<event>
12    1  0.1504874E-007  0.1698872E+04  0.7818608E-02  0.8762008E-01
          2   -1    0    0  501    0  0.00000000000E+00  0.00000000000E+00  0.27106739644E+04  0.27106739644E+04  0.00000000000E+00 0.  1.
         -2   -1    0    0    0  501 -0.00000000000E+00 -0.00000000000E+00 -0.26618532975E+03  0.26618532975E+03  0.00000000000E+00 0. -1.
         23    2    1    2    0    0  0.59869102701E+02 -0.57546055029E+03  0.56277464792E+03  0.81279083005E+03  0.95783478118E+02 0.  0.
        254    2    1    2    0    0 -0.59869102701E+02  0.57546055029E+03  0.18817139868E+04  0.21640684641E+04  0.89866881279E+03 0.  0.
        -24    2    4    4    0    0  0.33476361293E+03  0.30672549432E+03  0.41773737002E+03  0.62223320290E+03  0.80761643579E+02 0.  0.
         24    2    4    4    0    0 -0.39463271563E+03  0.26873505597E+03  0.14639766167E+04  0.15418352612E+04  0.77941823544E+02 0.  0.
         13    1    3    3    0    0  0.51566747272E+02 -0.53601264747E+03  0.48280561351E+03  0.72323574864E+03  0.00000000000E+00 0.  1.
        -13    1    3    3    0    0  0.83023554290E+01 -0.39447902813E+02  0.79969034410E+02  0.89555081411E+02  0.00000000000E+00 0. -1.
          2    1    6    6  502    0 -0.35694561911E+03  0.26354681494E+03  0.13048238200E+04  0.13781989333E+04  0.00000000000E+00 0. -1.
          1    1    5    5  503    0  0.27139847470E+03  0.28634002115E+03  0.36133982088E+03  0.53498991199E+03  0.00000000000E+00 0. -1.
         -2    1    5    5    0  503  0.63365138228E+02  0.20385473167E+02  0.56397549147E+02  0.87243290910E+02  0.00000000000E+00 0.  1.
         -1    1    6    6    0  502 -0.37687096520E+02  0.51882410250E+01  0.15915279676E+03  0.16363632789E+03  0.00000000000E+00 0.  1.
<mgrwt>
<rscale>  0 0.16988721E+04</rscale>
<asrwt>0</asrwt>
<pdfrwt beam="1">  1        2 0.41702674E+00 0.16988721E+04</pdfrwt>
<pdfrwt beam="2">  1       -2 0.40951591E-01 0.16988721E+04</pdfrwt>
<totfact> 0.14102550E+01</totfact>
</mgrwt>
</event>
<event>
12    1  0.1504874E-007  0.1271770E+04  0.7818608E-02  0.9052257E-01
         -1   -1    0    0    0  501 -0.00000000000E+00  0.00000000000E+00  0.18637848691E+03  0.18637848691E+03  0.00000000000E+00 0.  1.
          1   -1    0    0  501    0  0.00000000000E+00 -0.00000000000E+00 -0.21695073456E+04  0.21695073456E+04  0.00000000000E+00 0. -1.
         23    2    1    2    0    0  0.21907236508E+03 -0.58356147882E+02 -0.95550550080E+03  0.98602939070E+03  0.88685151748E+02 0.  0.
        254    2    1    2    0    0 -0.21907236508E+03  0.58356147882E+02 -0.10276233579E+04  0.13698564418E+04  0.87698276169E+03 0.  0.
        -24    2    4    4    0    0  0.21327547919E+03  0.10356550938E+03 -0.86378859532E+03  0.89845685011E+03  0.69869373446E+02 0.  0.
         24    2    4    4    0    0 -0.43234784426E+03 -0.45209361495E+02 -0.16383476255E+03  0.47139959167E+03  0.80044992368E+02 0.  0.
         11    1    3    3    0    0  0.28250127568E+02 -0.43077189829E+02 -0.22938555931E+03  0.23509880649E+03  0.00000000000E+00 0.  1.
        -11    1    3    3    0    0  0.19082223751E+03 -0.15278958053E+02 -0.72611994148E+03  0.75093058421E+03  0.00000000000E+00 0. -1.
          4    1    6    6  502    0 -0.29965907738E+03 -0.63491532459E+02 -0.94388962946E+02  0.32052459137E+03  0.00000000000E+00 0. -1.
          1    1    5    5  503    0  0.18978296055E+03  0.95821023571E+02 -0.82862750275E+03  0.85546641020E+03  0.00000000000E+00 0. -1.
         -2    1    5    5    0  503  0.23492518640E+02  0.77444858065E+01 -0.35161092567E+02  0.42990439902E+02  0.00000000000E+00 0.  1.
         -3    1    6    6    0  502 -0.13268876688E+03  0.18282170963E+02 -0.69445799603E+02  0.15087500030E+03  0.00000000000E+00 0.  1.
<mgrwt>
<rscale>  0 0.12717696E+04</rscale>
<asrwt>0</asrwt>
<pdfrwt beam="1">  1        1 0.33377034E+00 0.12717696E+04</pdfrwt>
<pdfrwt beam="2">  1       -1 0.28673615E-01 0.12717696E+04</pdfrwt>
<totfact> 0.24914247E+01</totfact>
</mgrwt>
</event>
<event>
12    1  0.1504874E-007  0.1358541E+04  0.7818608E-02  0.8984388E-01
         -1   -1    0    0    0  501 -0.00000000000E+00  0.00000000000E+00  0.74102333547E+03  0.74102333547E+03  0.00000000000E+00 0.  1.
          1   -1    0    0  501    0  0.00000000000E+00 -0.00000000000E+00 -0.62266410408E+03  0.62266410408E+03  0.00000000000E+00 0. -1.
         23    2    1    2    0    0 -0.62487063879E+01  0.56962161935E+02 -0.33464606093E+03  0.35155696119E+03  0.91217194884E+02 0.  0.
        254    2    1    2    0    0  0.62487063879E+01 -0.56962161935E+02  0.45300529231E+03  0.10121304784E+04  0.90327768496E+03 0.  0.
        -24    2    4    4    0    0  0.25160445646E+02 -0.42086517398E+03  0.50431493773E+01  0.42913907494E+03  0.79839649255E+02 0.  0.
         24    2    4    4    0    0 -0.18911739258E+02  0.36390301204E+03  0.44796214294E+03  0.58299140342E+03  0.80161330481E+02 0.  0.
         13    1    3    3    0    0  0.36820128834E+02  0.32073939931E+01 -0.14986461479E+03  0.15435482510E+03  0.00000000000E+00 0. -1.
        -13    1    3    3    0    0 -0.43068835222E+02  0.53754767942E+02 -0.18478144613E+03  0.19720213609E+03  0.00000000000E+00 0.  1.
          4    1    6    6  502    0 -0.47777078352E+02  0.20307096613E+03  0.22894649679E+03  0.30973692853E+03  0.00000000000E+00 0. -1.
          3    1    5    5  503    0  0.26038658155E+02 -0.71072612638E+02  0.22333330726E+02  0.78918347975E+02  0.00000000000E+00 0. -1.
         -4    1    5    5    0  503 -0.87821250905E+00 -0.34979256134E+03 -0.17290181349E+02  0.35022072697E+03  0.00000000000E+00 0.  1.
         -3    1    6    6    0  502  0.28865339093E+02  0.16083204591E+03  0.21901564615E+03  0.27325447489E+03  0.00000000000E+00 0.  1.
<mgrwt>
<rscale>  0 0.13585413E+04</rscale>
<asrwt>0</asrwt>
<pdfrwt beam="1">  1        1 0.95794478E-01 0.13585413E+04</pdfrwt>
<pdfrwt beam="2">  1       -1 0.11400359E+00 0.13585413E+04</pdfrwt>
<totfact> 0.22255793E+01</totfact>
</mgrwt>
</event>
<event>
12    1  0.1504874E-007  0.1189925E+04  0.7818608E-02  0.9121721E-01
          1   -1    0    0  501    0  0.00000000000E+00  0.00000000000E+00  0.10473068567E+04  0.10473068567E+04  0.00000000000E+00 0. -1.
         -1   -1    0    0    0  501 -0.00000000000E+00 -0.00000000000E+00 -0.33799119342E+03  0.33799119342E+03  0.00000000000E+00 0.  1.
         23    2    1    2    0    0  0.30036913281E+02 -0.14724140541E+03 -0.56551100881E+02  0.18493333117E+03  0.91760897669E+02 0.  0.
        254    2    1    2    0    0 -0.30036913281E+02  0.14724140541E+03  0.76586676414E+03  0.12003647189E+04  0.91199852544E+03 0.  0.
        -24    2    4    4    0    0 -0.23578533569E+03  0.43995267866E+03  0.63310933359E+03  0.81015217995E+03  0.79787482759E+02 0.  0.
         24    2    4    4    0    0  0.20574842241E+03 -0.29271127325E+03  0.13275743054E+03  0.39021253897E+03  0.81418593673E+02 0.  0.
         13    1    3    3    0    0  0.32173481987E+02 -0.28174356963E+02 -0.49818770417E+02  0.65656966266E+02  0.00000000000E+00 0. -1.
        -13    1    3    3    0    0 -0.21365687061E+01 -0.11906704844E+03 -0.67323304639E+01  0.11927636490E+03  0.00000000000E+00 0.  1.
          2    1    6    6  502    0  0.20058450848E+03 -0.29678314828E+03  0.13564202998E+03  0.38303151626E+03  0.00000000000E+00 0. -1.
          1    1    5    5  503    0 -0.18918015281E+03  0.38962741089E+03  0.57735374563E+03  0.72175896055E+03  0.00000000000E+00 0. -1.
         -2    1    5    5    0  503 -0.46605182879E+02  0.50325267763E+02  0.55755587963E+02  0.88393219399E+02  0.00000000000E+00 0.  1.
         -1    1    6    6    0  502  0.51639139286E+01  0.40718750316E+01 -0.28845994416E+01  0.71810227178E+01  0.00000000000E+00 0.  1.
<mgrwt>
<rscale>  0 0.11899252E+04</rscale>
<asrwt>0</asrwt>
<pdfrwt beam="1">  1        1 0.16112413E+00 0.11899252E+04</pdfrwt>
<pdfrwt beam="2">  1       -1 0.51998646E-01 0.11899252E+04</pdfrwt>
<totfact> 0.51272145E+01</totfact>
</mgrwt>
</event>
<event>
12    1  0.1504874E-007  0.1420691E+04  0.7818608E-02  0.8938976E-01
         -2   -1    0    0    0  501 -0.00000000000E+00  0.00000000000E+00  0.12002029601E+04  0.12002029601E+04  0.00000000000E+00 0.  1.
          2   -1    0    0  501    0  0.00000000000E+00 -0.00000000000E+00 -0.42042105949E+03  0.42042105949E+03  0.00000000000E+00 0. -1.
         23    2    1    2    0    0  0.34979291710E+03 -0.22097776568E+03  0.36630665614E+03  0.55987923607E+03  0.89988526339E+02 0.  0.
        254    2    1    2    0    0 -0.34979291710E+03  0.22097776568E+03  0.41347524447E+03  0.10607447835E+04  0.88489064872E+03 0.  0.
        -24    2    4    4    0    0 -0.13027957907E+03 -0.20412878405E+03  0.50671151171E+03  0.56677784290E+03  0.76414906259E+02 0.  0.
         24    2    4    4    0    0 -0.21951333803E+03  0.42510654973E+03 -0.93236267245E+02  0.49396694062E+03  0.80054061087E+02 0.  0.
         13    1    3    3    0    0 -0.55268123541E+01 -0.38972676759E+01  0.86245880390E+01  0.10959829788E+02  0.00000000000E+00 0. -1.
        -13    1    3    3    0    0  0.35531972946E+03 -0.21708049801E+03  0.35768206810E+03  0.54891940628E+03  0.00000000000E+00 0.  1.
          2    1    6    6  502    0 -0.15464446030E+03  0.21788150055E+03 -0.37645727348E+02  0.26982301268E+03  0.00000000000E+00 0. -1.
          1    1    5    5  503    0 -0.11747650870E+03 -0.17710262364E+03  0.48589863213E+03  0.53034286089E+03  0.00000000000E+00 0. -1.
         -2    1    5    5    0  503 -0.12803070374E+02 -0.27026160403E+02  0.20812879589E+02  0.36434982008E+02  0.00000000000E+00 0.  1.
         -1    1    6    6    0  502 -0.64868877731E+02  0.20722504918E+03 -0.55590539897E+02  0.22414392794E+03  0.00000000000E+00 0.  1.
<mgrwt>
<rscale>  0 0.14206908E+04</rscale>
<asrwt>0</asrwt>
<pdfrwt beam="1">  1        2 0.64680164E-01 0.14206908E+04</pdfrwt>
<pdfrwt beam="2">  1       -2 0.18464661E+00 0.14206908E+04</pdfrwt>
<totfact> 0.12292169E+01</totfact>
</mgrwt>
</event>
<event>
12    1  0.1504874E-007  0.1200727E+04  0.7818608E-02  0.9112220E-01
         -2   -1    0    0    0  501 -0.00000000000E+00  0.00000000000E+00  0.78786791496E+03  0.78786791496E+03  0.00000000000E+00 0.  1.
          2   -1    0    0  501    0  0.00000000000E+00 -0.00000000000E+00 -0.45748336212E+03  0.45748336212E+03  0.00000000000E+00 0. -1.
         23    2    1    2    0    0  0.25164489102E+01  0.21089425310E+03 -0.85997125002E+02  0.24620761650E+03  0.93487787487E+02 0.  0.
        254    2    1    2    0    0 -0.25164489102E+01 -0.21089425310E+03  0.41638167784E+03  0.99914366058E+03  0.88342041766E+03 0.  0.
        -24    2    4    4    0    0  0.15242698524E+03  0.15199883973E+03 -0.17160116903E+03  0.28654598593E+03  0.79523630018E+02 0.  0.
         24    2    4    4    0    0 -0.15494343415E+03 -0.36289309283E+03  0.58798284686E+03  0.71259767465E+03  0.79829525277E+02 0.  0.
         11    1    3    3    0    0  0.25428654416E+02  0.15552820835E+03 -0.97329114692E+02  0.18522579903E+03  0.00000000000E+00 0. -1.
        -11    1    3    3    0    0 -0.22912205505E+02  0.55366044746E+02  0.11331989690E+02  0.60981817473E+02  0.00000000000E+00 0.  1.
          2    1    6    6  502    0 -0.98799934876E+02 -0.21211034329E+03  0.27818085344E+03  0.36350627517E+03  0.00000000000E+00 0. -1.
          3    1    5    5  503    0  0.15905480027E+03  0.14364351635E+03 -0.14743913409E+03  0.26013494102E+03  0.00000000000E+00 0. -1.
         -4    1    5    5    0  503 -0.66278150294E+01  0.83553233762E+01 -0.24162034933E+02  0.26411044903E+02  0.00000000000E+00 0.  1.
         -1    1    6    6    0  502 -0.56143499278E+02 -0.15078274954E+03  0.30980199342E+03  0.34909139949E+03  0.00000000000E+00 0.  1.
<mgrwt>
<rscale>  0 0.12007272E+04</rscale>
<asrwt>0</asrwt>
<pdfrwt beam="1">  1        2 0.70382056E-01 0.12007272E+04</pdfrwt>
<pdfrwt beam="2">  1       -2 0.12121045E+00 0.12007272E+04</pdfrwt>
<totfact> 0.34860151E+01</totfact>
</mgrwt>
</event>
<event>
12    1  0.1504874E-007  0.1104973E+04  0.7818608E-02  0.9200359E-01
          2   -1    0    0  501    0  0.00000000000E+00  0.00000000000E+00  0.80444636219E+03  0.80444636219E+03  0.00000000000E+00 0. -1.
         -2   -1    0    0    0  501 -0.00000000000E+00 -0.00000000000E+00 -0.37944244420E+03  0.37944244420E+03  0.00000000000E+00 0.  1.
         23    2    1    2    0    0  0.89925477973E+02 -0.25570524035E+02  0.21471082244E+03  0.25140901172E+03  0.91462071988E+02 0.  0.
        254    2    1    2    0    0 -0.89925477973E+02  0.25570524035E+02  0.21029309555E+03  0.93247979468E+03  0.90363429448E+03 0.  0.
        -24    2    4    4    0    0  0.21393704524E+03 -0.23578843929E+03 -0.17377891867E+03  0.37123360452E+03  0.79057125694E+02 0.  0.
         24    2    4    4    0    0 -0.30386252321E+03  0.26135896332E+03  0.38407201422E+03  0.56124619016E+03  0.82734715477E+02 0.  0.
         11    1    3    3    0    0  0.58947036171E+02 -0.20542457425E+02  0.21072072729E+03  0.21977254274E+03  0.00000000000E+00 0. -1.
        -11    1    3    3    0    0  0.30978441802E+02 -0.50280666095E+01  0.39900951473E+01  0.31636468981E+02  0.00000000000E+00 0.  1.
          4    1    6    6  502    0 -0.43810040957E+02  0.82317554659E+02  0.79086063046E+02  0.12227062142E+03  0.00000000000E+00 0. -1.
          3    1    5    5  503    0  0.56313585382E+02 -0.11926220064E+03 -0.64601443863E+02  0.14686061061E+03  0.00000000000E+00 0. -1.
         -4    1    5    5    0  503  0.15762345985E+03 -0.11652623865E+03 -0.10917747480E+03  0.22437299391E+03  0.00000000000E+00 0.  1.
         -3    1    6    6    0  502 -0.26005248225E+03  0.17904140866E+03  0.30498595117E+03  0.43897556874E+03  0.00000000000E+00 0.  1.
<mgrwt>
<rscale>  0 0.11049726E+04</rscale>
<asrwt>0</asrwt>
<pdfrwt beam="1">  1        2 0.12376098E+00 0.11049726E+04</pdfrwt>
<pdfrwt beam="2">  1       -2 0.58375761E-01 0.11049726E+04</pdfrwt>
<totfact> 0.93169485E+01</totfact>
</mgrwt>
</event>
<event>
12    1  0.1504874E-007  0.1546777E+04  0.7818608E-02  0.8853929E-01
          1   -1    0    0  501    0  0.00000000000E+00  0.00000000000E+00  0.26710529141E+04  0.26710529141E+04  0.00000000000E+00 0. -1.
         -1   -1    0    0    0  501 -0.00000000000E+00 -0.00000000000E+00 -0.22393034657E+03  0.22393034657E+03  0.00000000000E+00 0.  1.
         23    2    1    2    0    0 -0.34968953472E+03  0.11431012023E+03  0.17087778057E+03  0.41591151571E+03  0.91834627043E+02 0.  0.
        254    2    1    2    0    0  0.34968953472E+03 -0.11431012023E+03  0.22762447870E+04  0.24790717450E+04  0.91058048093E+03 0.  0.
        -24    2    4    4    0    0  0.27468337469E+03 -0.48042729887E+03  0.99013673445E+03  0.11369067996E+04  0.76973841709E+02 0.  0.
         24    2    4    4    0    0  0.75006160034E+02  0.36611717864E+03  0.12861080525E+04  0.13421649453E+04  0.87550586658E+02 0.  0.
         11    1    3    3    0    0 -0.43363441411E+02  0.78185439308E+01  0.57314572436E+02  0.72294383556E+02  0.00000000000E+00 0. -1.
        -11    1    3    3    0    0 -0.30632609331E+03  0.10649157630E+03  0.11356320813E+03  0.34361713215E+03  0.00000000000E+00 0.  1.
          2    1    6    6  502    0  0.56193909741E+02  0.21679377293E+03  0.61839989332E+03  0.65770489091E+03  0.00000000000E+00 0. -1.
          3    1    5    5  503    0  0.15510302842E+03 -0.32280653364E+03  0.69038351319E+03  0.77774700441E+03  0.00000000000E+00 0. -1.
         -4    1    5    5    0  503  0.11958034627E+03 -0.15762076523E+03  0.29975322126E+03  0.35915979522E+03  0.00000000000E+00 0.  1.
         -1    1    6    6    0  502  0.18812250293E+02  0.14932340571E+03  0.66770815920E+03  0.68446005443E+03  0.00000000000E+00 0.  1.
<mgrwt>
<rscale>  0 0.15467770E+04</rscale>
<asrwt>0</asrwt>
<pdfrwt beam="1">  1        1 0.41093120E+00 0.15467770E+04</pdfrwt>
<pdfrwt beam="2">  1       -1 0.34450824E-01 0.15467770E+04</pdfrwt>
<totfact> 0.79393185E+00</totfact>
</mgrwt>
</event>
<event>
12    1  0.1504874E-007  0.1450391E+04  0.7818608E-02  0.8918130E-01
         -2   -1    0    0    0  501 -0.00000000000E+00  0.00000000000E+00  0.86215019354E+03  0.86215019354E+03  0.00000000000E+00 0.  1.
          2   -1    0    0  501    0  0.00000000000E+00 -0.00000000000E+00 -0.60999625454E+03  0.60999625454E+03  0.00000000000E+00 0. -1.
         23    2    1    2    0    0  0.34507310422E+03 -0.25445058109E+03  0.25342609563E+01  0.43855944757E+03  0.92235682365E+02 0.  0.
        254    2    1    2    0    0 -0.34507310422E+03  0.25445058109E+03  0.24961967805E+03  0.10335870005E+04  0.90673676361E+03 0.  0.
        -24    2    4    4    0    0 -0.64441000269E+03  0.10348282129E+03  0.18353281984E+03  0.68254115008E+03  0.78772963192E+02 0.  0.
         24    2    4    4    0    0  0.29933689847E+03  0.15096775980E+03  0.66086858214E+02  0.35104585043E+03  0.80447952051E+02 0.  0.
         13    1    3    3    0    0  0.12230239848E+03 -0.73328118749E+02 -0.40504976890E+02  0.14824150170E+03  0.00000000000E+00 0. -1.
        -13    1    3    3    0    0  0.22277070575E+03 -0.18112246234E+03  0.43039237847E+02  0.29031794588E+03  0.00000000000E+00 0.  1.
          4    1    6    6  502    0  0.22717737739E+03  0.11730350055E+03  0.14328029605E+02  0.25607609118E+03  0.00000000000E+00 0. -1.
          1    1    5    5  503    0 -0.59158788434E+03  0.10986602526E+03  0.18440821595E+03  0.62932754469E+03  0.00000000000E+00 0. -1.
         -2    1    5    5    0  503 -0.52822118352E+02 -0.63832039699E+01 -0.87539611031E+00  0.53213605389E+02  0.00000000000E+00 0.  1.
         -3    1    6    6    0  502  0.72159521073E+02  0.33664259247E+02  0.51758828609E+02  0.94969759245E+02  0.00000000000E+00 0.  1.
<mgrwt>
<rscale>  0 0.14503908E+04</rscale>
<asrwt>0</asrwt>
<pdfrwt beam="1">  1        2 0.93845578E-01 0.14503908E+04</pdfrwt>
<pdfrwt beam="2">  1       -2 0.13263849E+00 0.14503908E+04</pdfrwt>
<totfact> 0.19445503E+01</totfact>
</mgrwt>
</event>
<event>
12    1  0.1504874E-007  0.1891569E+04  0.7818608E-02  0.8659064E-01
          2   -1    0    0  501    0  0.00000000000E+00  0.00000000000E+00  0.23860349729E+04  0.23860349729E+04  0.00000000000E+00 0. -1.
         -2   -1    0    0    0  501 -0.00000000000E+00 -0.00000000000E+00 -0.37489316406E+03  0.37489316406E+03  0.00000000000E+00 0.  1.
         23    2    1    2    0    0 -0.19246345986E+03  0.53030346097E+03  0.13913001930E+04  0.15040345459E+04  0.90220530867E+02 0.  0.
        254    2    1    2    0    0  0.19246345986E+03 -0.53030346097E+03  0.61984161587E+03  0.12568935911E+04  0.93665037575E+03 0.  0.
        -24    2    4    4    0    0 -0.92901665658E+02 -0.72254513232E+03  0.34949435111E+03  0.81195870978E+03  0.80177660276E+02 0.  0.
         24    2    4    4    0    0  0.28536512552E+03  0.19224167134E+03  0.27034726476E+03  0.44493488129E+03  0.80556129273E+02 0.  0.
         13    1    3    3    0    0 -0.10637134023E+02  0.59045441209E+02  0.22882109326E+03  0.23655571325E+03  0.00000000000E+00 0. -1.
        -13    1    3    3    0    0 -0.18182632583E+03  0.47125801976E+03  0.11624790998E+04  0.12674788327E+04  0.00000000000E+00 0.  1.
          2    1    6    6  502    0  0.25746677994E+03  0.14175278582E+03  0.20844819208E+03  0.36032435921E+03  0.00000000000E+00 0. -1.
          3    1    5    5  503    0 -0.61744706574E+02 -0.32609553673E+03  0.12063071693E+03  0.35313237990E+03  0.00000000000E+00 0. -1.
         -4    1    5    5    0  503 -0.31156959084E+02 -0.39644959559E+03  0.22886363418E+03  0.45882632988E+03  0.00000000000E+00 0.  1.
         -1    1    6    6    0  502  0.27898345573E+02  0.50488885527E+02  0.61899072680E+02  0.84610522077E+02  0.00000000000E+00 0.  1.
<mgrwt>
<rscale>  0 0.18915689E+04</rscale>
<asrwt>0</asrwt>
<pdfrwt beam="1">  1        2 0.36708229E+00 0.18915689E+04</pdfrwt>
<pdfrwt beam="2">  1       -2 0.57675873E-01 0.18915689E+04</pdfrwt>
<totfact> 0.10688663E+01</totfact>
</mgrwt>
</event>
<event>
12    1  0.1504874E-007  0.1302945E+04  0.7818608E-02  0.9027233E-01
          1   -1    0    0  501    0  0.00000000000E+00  0.00000000000E+00  0.24300699165E+04  0.24300699165E+04  0.00000000000E+00 0. -1.
         -1   -1    0    0    0  501 -0.00000000000E+00 -0.00000000000E+00 -0.17465202897E+03  0.17465202897E+03  0.00000000000E+00 0.  1.
         23    2    1    2    0    0 -0.11298901119E+03 -0.27307572229E+03  0.46295683805E+03  0.55697873304E+03  0.92517070943E+02 0.  0.
        254    2    1    2    0    0  0.11298901119E+03  0.27307572229E+03  0.17924610495E+04  0.20477432124E+04  0.94498612866E+03 0.  0.
        -24    2    4    4    0    0 -0.25560764641E+03 -0.14800092761E+03  0.11607317577E+04  0.12004239117E+04  0.80497272476E+02 0.  0.
         24    2    4    4    0    0  0.36859665761E+03  0.42107664990E+03  0.63172929176E+03  0.84731930074E+03  0.75492107278E+02 0.  0.
         13    1    3    3    0    0 -0.12543890364E+03 -0.25157456588E+03  0.39660539222E+03  0.48612808794E+03  0.00000000000E+00 0. -1.
        -13    1    3    3    0    0  0.12449892446E+02 -0.21501156407E+02  0.66351445821E+02  0.70850645102E+02  0.00000000000E+00 0.  1.
          4    1    6    6  502    0  0.30389366139E+03  0.31384160322E+03  0.52310887903E+03  0.68153562539E+03  0.00000000000E+00 0. -1.
          1    1    5    5  503    0 -0.17885551031E+03 -0.61591779323E+02  0.66361625070E+03  0.69005026559E+03  0.00000000000E+00 0. -1.
         -2    1    5    5    0  503 -0.76752136108E+02 -0.86409148287E+02  0.49711550699E+03  0.51037364606E+03  0.00000000000E+00 0.  1.
         -3    1    6    6    0  502  0.64702996212E+02  0.10723504668E+03  0.10862041273E+03  0.16578367536E+03  0.00000000000E+00 0.  1.
<mgrwt>
<rscale>  0 0.13029453E+04</rscale>
<asrwt>0</asrwt>
<pdfrwt beam="1">  1        1 0.37385689E+00 0.13029453E+04</pdfrwt>
<pdfrwt beam="2">  1       -1 0.26869545E-01 0.13029453E+04</pdfrwt>
<totfact> 0.18475553E+01</totfact>
</mgrwt>
</event>
<event>
12    1  0.1504874E-007  0.3293180E+04  0.7818608E-02  0.8164633E-01
          1   -1    0    0  501    0  0.00000000000E+00  0.00000000000E+00  0.11352413724E+04  0.11352413724E+04  0.00000000000E+00 0. -1.
         -1   -1    0    0    0  501 -0.00000000000E+00 -0.00000000000E+00 -0.23882669270E+04  0.23882669270E+04  0.00000000000E+00 0.  1.
         23    2    1    2    0    0 -0.68656975821E+03  0.13372611230E+04 -0.33318406021E+03  0.15439165351E+04  0.11411093429E+03 0.  0.
        254    2    1    2    0    0  0.68656975821E+03 -0.13372611230E+04 -0.91984149434E+03  0.19795917643E+04  0.90168167034E+03 0.  0.
        -24    2    4    4    0    0  0.16352943109E+03  0.63936471448E+02 -0.30405025002E+03  0.36020677779E+03  0.80452601046E+02 0.  0.
         24    2    4    4    0    0  0.52304032711E+03 -0.14011975945E+04 -0.61579124432E+03  0.16193849865E+04  0.79265348466E+02 0.  0.
         13    1    3    3    0    0 -0.26045996488E+03  0.41101508548E+03 -0.76812644842E+02  0.49261848951E+03  0.00000000000E+00 0. -1.
        -13    1    3    3    0    0 -0.42610979332E+03  0.92624603756E+03 -0.25637141537E+03  0.10512980456E+04  0.00000000000E+00 0.  1.
          2    1    6    6  502    0  0.45625853992E+03 -0.11348116543E+04 -0.50096209010E+03  0.13217156887E+04  0.00000000000E+00 0. -1.
          3    1    5    5  503    0  0.14085547059E+03  0.52688088246E+02 -0.29857551816E+03  0.33431069125E+03  0.00000000000E+00 0. -1.
         -4    1    5    5    0  503  0.22673960496E+02  0.11248383201E+02 -0.54747318609E+01  0.25896086541E+02  0.00000000000E+00 0.  1.
         -1    1    6    6    0  502  0.66781787191E+02 -0.26638594017E+03 -0.11482915422E+03  0.29766929784E+03  0.00000000000E+00 0.  1.
<mgrwt>
<rscale>  0 0.32931805E+04</rscale>
<asrwt>0</asrwt>
<pdfrwt beam="1">  1        1 0.17465252E+00 0.32931805E+04</pdfrwt>
<pdfrwt beam="2">  1       -1 0.36742568E+00 0.32931805E+04</pdfrwt>
<totfact> 0.11767946E-01</totfact>
</mgrwt>
</event>
<event>
12    1  0.1504874E-007  0.1885864E+04  0.7818608E-02  0.8661925E-01
         -1   -1    0    0    0  501 -0.00000000000E+00  0.00000000000E+00  0.43824849228E+03  0.43824849228E+03  0.00000000000E+00 0.  1.
          1   -1    0    0  501    0  0.00000000000E+00 -0.00000000000E+00 -0.20288047208E+04  0.20288047208E+04  0.00000000000E+00 0. -1.
         23    2    1    2    0    0  0.39103941115E+03 -0.36012951826E+03 -0.12773594926E+04  0.13883103649E+04  0.11468785861E+03 0.  0.
        254    2    1    2    0    0 -0.39103941115E+03  0.36012951826E+03 -0.31319673583E+03  0.10787428481E+04  0.88486656962E+03 0.  0.
        -24    2    4    4    0    0 -0.60425993802E+03  0.44926486383E+03 -0.12358060807E+03  0.76738343310E+03  0.81462728439E+02 0.  0.
         24    2    4    4    0    0  0.21322052687E+03 -0.89135345570E+02 -0.18961612776E+03  0.31135941502E+03  0.87076440594E+02 0.  0.
         13    1    3    3    0    0  0.38205898850E+03 -0.32667694371E+03 -0.11271854584E+04  0.12341936452E+04  0.00000000000E+00 0. -1.
        -13    1    3    3    0    0  0.89804226535E+01 -0.33452574556E+02 -0.15017403425E+03  0.15411671972E+03  0.00000000000E+00 0.  1.
          2    1    6    6  502    0  0.17244343691E+03 -0.47148591414E+02 -0.17682391512E+03  0.25144865393E+03  0.00000000000E+00 0. -1.
          3    1    5    5  503    0 -0.44422320781E+03  0.35602506305E+03 -0.64281027418E+02  0.57290501338E+03  0.00000000000E+00 0. -1.
         -4    1    5    5    0  503 -0.16003673021E+03  0.93239800786E+02 -0.59299580656E+02  0.19447841971E+03  0.00000000000E+00 0.  1.
         -1    1    6    6    0  502  0.40777089961E+02 -0.41986754155E+02 -0.12792212641E+02  0.59910761091E+02  0.00000000000E+00 0.  1.
<mgrwt>
<rscale>  0 0.18858638E+04</rscale>
<asrwt>0</asrwt>
<pdfrwt beam="1">  1        1 0.31212381E+00 0.18858638E+04</pdfrwt>
<pdfrwt beam="2">  1       -1 0.67422843E-01 0.18858638E+04</pdfrwt>
<totfact> 0.59456835E+00</totfact>
</mgrwt>
</event>
<event>
12    1  0.1504874E-007  0.1537822E+04  0.7818608E-02  0.8859684E-01
          1   -1    0    0  501    0  0.00000000000E+00  0.00000000000E+00  0.10491615808E+04  0.10491615808E+04  0.00000000000E+00 0. -1.
         -1   -1    0    0    0  501 -0.00000000000E+00 -0.00000000000E+00 -0.56352035615E+03  0.56352035615E+03  0.00000000000E+00 0.  1.
         23    2    1    2    0    0 -0.41311701450E+03  0.26669581696E+03  0.54416913118E+02  0.50249791804E+03  0.88037666669E+02 0.  0.
        254    2    1    2    0    0  0.41311701450E+03 -0.26669581696E+03  0.43122431151E+03  0.11101840189E+04  0.89708518129E+03 0.  0.
        -24    2    4    4    0    0  0.56661730003E+03  0.97270170958E+02  0.40244650989E+03  0.70629976471E+03  0.79871856422E+02 0.  0.
         24    2    4    4    0    0 -0.15350028553E+03 -0.36396598792E+03  0.28777801622E+02  0.40388425418E+03  0.79124906867E+02 0.  0.
         13    1    3    3    0    0 -0.30295516684E+03  0.16281098491E+03  0.76346125229E+01  0.34401676882E+03  0.00000000000E+00 0.  1.
        -13    1    3    3    0    0 -0.11016184766E+03  0.10388483205E+03  0.46782300595E+02  0.15848114922E+03  0.00000000000E+00 0. -1.
          2    1    6    6  502    0 -0.82031459574E+01 -0.14012977338E+02  0.18791982513E+02  0.24835332578E+02  0.00000000000E+00 0. -1.
          3    1    5    5  503    0  0.20454035152E+03 -0.26297335922E+01  0.15213826339E+03  0.25493081824E+03  0.00000000000E+00 0. -1.
         -4    1    5    5    0  503  0.36207694851E+03  0.99899904550E+02  0.25030824650E+03  0.45136894647E+03  0.00000000000E+00 0.  1.
         -1    1    6    6    0  502 -0.14529713958E+03 -0.34995301058E+03  0.99858191087E+01  0.37904892160E+03  0.00000000000E+00 0.  1.
<mgrwt>
<rscale>  0 0.15378217E+04</rscale>
<asrwt>0</asrwt>
<pdfrwt beam="1">  1        1 0.16140947E+00 0.15378217E+04</pdfrwt>
<pdfrwt beam="2">  1       -1 0.86695440E-01 0.15378217E+04</pdfrwt>
<totfact> 0.17532671E+01</totfact>
</mgrwt>
</event>
<event>
12    1  0.1504874E-007  0.1684761E+04  0.7818608E-02  0.8770104E-01
         -1   -1    0    0    0  501 -0.00000000000E+00  0.00000000000E+00  0.19623226879E+03  0.19623226879E+03  0.00000000000E+00 0.  1.
          1   -1    0    0  501    0  0.00000000000E+00 -0.00000000000E+00 -0.36161468297E+04  0.36161468297E+04  0.00000000000E+00 0. -1.
         23    2    1    2    0    0  0.27542063868E+03 -0.24465198907E+03 -0.16650007679E+03  0.41447170593E+03  0.91396911781E+02 0.  0.
        254    2    1    2    0    0 -0.27542063868E+03  0.24465198907E+03 -0.32534144841E+04  0.33979073925E+04  0.90849200269E+03 0.  0.
        -24    2    4    4    0    0 -0.86992520225E+02 -0.23995476610E+03 -0.22399733583E+04  0.22558557708E+04  0.79111469302E+02 0.  0.
         24    2    4    4    0    0 -0.18842811846E+03  0.48460675517E+03 -0.10134411258E+04  0.11420516217E+04  0.82886236401E+02 0.  0.
         11    1    3    3    0    0  0.96986221529E+02 -0.12167716252E+03 -0.10989166879E+03  0.19049366897E+03  0.00000000000E+00 0. -1.
        -11    1    3    3    0    0  0.17843441715E+03 -0.12297482655E+03 -0.56608407994E+02  0.22397803697E+03  0.00000000000E+00 0.  1.
          4    1    6    6  502    0 -0.15560234487E+03  0.38973254321E+03 -0.73919082634E+03  0.85000389570E+03  0.00000000000E+00 0. -1.
          3    1    5    5  503    0 -0.11110660949E+02 -0.12548389084E+02 -0.39727687112E+03  0.39763025687E+03  0.00000000000E+00 0. -1.
         -4    1    5    5    0  503 -0.75881859275E+02 -0.22740637702E+03 -0.18426964872E+04  0.18582255140E+04  0.00000000000E+00 0.  1.
         -3    1    6    6    0  502 -0.32825773591E+02  0.94874211955E+02 -0.27425029944E+03  0.29204772598E+03  0.00000000000E+00 0.  1.
<mgrwt>
<rscale>  0 0.16847608E+04</rscale>
<asrwt>0</asrwt>
<pdfrwt beam="1">  1        1 0.55633023E+00 0.16847608E+04</pdfrwt>
<pdfrwt beam="2">  1       -1 0.30189583E-01 0.16847608E+04</pdfrwt>
<totfact> 0.19596198E+00</totfact>
</mgrwt>
</event>
<event>
12    1  0.1504874E-007  0.1618293E+04  0.7818608E-02  0.8809388E-01
         -2   -1    0    0    0  501 -0.00000000000E+00  0.00000000000E+00  0.44911572434E+03  0.44911572434E+03  0.00000000000E+00 0.  1.
          2   -1    0    0  501    0  0.00000000000E+00 -0.00000000000E+00 -0.14577942150E+04  0.14577942150E+04  0.00000000000E+00 0. -1.
         23    2    1    2    0    0  0.33499934148E+03 -0.11180194448E+02  0.17180208516E+03  0.38732645097E+03  0.90312056896E+02 0.  0.
        254    2    1    2    0    0 -0.33499934148E+03  0.11180194448E+02 -0.11804805758E+04  0.15195834884E+04  0.89624217300E+03 0.  0.
        -24    2    4    4    0    0 -0.20824087448E+03 -0.13250405616E+03 -0.12682444309E+04  0.12944724885E+04  0.79331583448E+02 0.  0.
         24    2    4    4    0    0 -0.12675846700E+03  0.14368425061E+03  0.87763855121E+02  0.22511099987E+03  0.79117603418E+02 0.  0.
         13    1    3    3    0    0  0.11400550721E+03 -0.16886279767E+01  0.12426654574E+02  0.11469319458E+03  0.00000000000E+00 0. -1.
        -13    1    3    3    0    0  0.22099383427E+03 -0.94915664712E+01  0.15937543059E+03  0.27263325640E+03  0.00000000000E+00 0.  1.
          4    1    6    6  502    0 -0.67880499683E+02  0.49897154550E+02  0.76510352250E+02  0.11380387634E+03  0.00000000000E+00 0. -1.
          3    1    5    5  503    0 -0.37314691212E+02  0.27927173648E+01 -0.27871389484E+03  0.28121454555E+03  0.00000000000E+00 0. -1.
         -4    1    5    5    0  503 -0.17092618326E+03 -0.13529677352E+03 -0.98953053609E+03  0.10132579429E+04  0.00000000000E+00 0.  1.
         -3    1    6    6    0  502 -0.58877967316E+02  0.93787096056E+02  0.11253502871E+02  0.11130712353E+03  0.00000000000E+00 0.  1.
<mgrwt>
<rscale>  0 0.16182933E+04</rscale>
<asrwt>0</asrwt>
<pdfrwt beam="1">  1        2 0.22427603E+00 0.16182933E+04</pdfrwt>
<pdfrwt beam="2">  1       -2 0.69094728E-01 0.16182933E+04</pdfrwt>
<totfact> 0.24562404E+01</totfact>
</mgrwt>
</event>
<event>
12    1  0.2464453E-007  0.1500432E+04  0.7818608E-02  0.8884166E-01
         -1   -1    0    0    0  501 -0.00000000000E+00  0.00000000000E+00  0.33049378267E+03  0.33049378267E+03  0.00000000000E+00 0.  1.
          1   -1    0    0  501    0  0.00000000000E+00 -0.00000000000E+00 -0.17029788135E+04  0.17029788135E+04  0.00000000000E+00 0. -1.
         23    2    1    2    0    0 -0.64351269758E+02  0.36257606167E+02  0.18479889705E+03  0.23208857680E+03  0.11941011350E+03 0.  0.
        254    2    1    2    0    0  0.64351269758E+02 -0.36257606167E+02 -0.15572839279E+04  0.18013840194E+04  0.90243861469E+03 0.  0.
        -24    2    4    4    0    0  0.29545097653E+03  0.34332114511E+02 -0.15116218810E+04  0.15426109944E+04  0.78600224645E+02 0.  0.
         24    2    4    4    0    0 -0.23109970677E+03 -0.70589720678E+02 -0.45662046887E+02  0.25877302498E+03  0.80551057068E+02 0.  0.
         13    1    3    3    0    0 -0.53355930446E+02  0.38747552172E+02  0.20145685954E+03  0.21197427761E+03  0.00000000000E+00 0.  1.
        -13    1    3    3    0    0 -0.10995339312E+02 -0.24899460057E+01 -0.16657962489E+02  0.20114299192E+02  0.00000000000E+00 0. -1.
          4    1    6    6  502    0 -0.23238096712E+03 -0.60646724576E+02 -0.32690671122E+02  0.24237908132E+03  0.00000000000E+00 0. -1.
          3    1    5    5  503    0  0.22405099777E+03  0.43294312936E+02 -0.98453705330E+03  0.10106366590E+04  0.00000000000E+00 0. -1.
         -4    1    5    5    0  503  0.71399978765E+02 -0.89621984251E+01 -0.52708482767E+03  0.53197433541E+03  0.00000000000E+00 0.  1.
         -3    1    6    6    0  502  0.12812603469E+01 -0.99429961015E+01 -0.12971375765E+02  0.16393943662E+02  0.00000000000E+00 0.  1.
<mgrwt>
<rscale>  0 0.15004318E+04</rscale>
<asrwt>0</asrwt>
<pdfrwt beam="1">  1        1 0.26199674E+00 0.15004318E+04</pdfrwt>
<pdfrwt beam="2">  1       -1 0.50845197E-01 0.15004318E+04</pdfrwt>
<totfact> 0.17839331E+01</totfact>
</mgrwt>
</event>
<event>
12    1  0.1504874E-007  0.1377095E+04  0.7818608E-02  0.8970567E-01
          1   -1    0    0  501    0  0.00000000000E+00  0.00000000000E+00  0.75130959900E+03  0.75130959900E+03  0.00000000000E+00 0. -1.
         -1   -1    0    0    0  501 -0.00000000000E+00 -0.00000000000E+00 -0.63102870695E+03  0.63102870695E+03  0.00000000000E+00 0.  1.
         23    2    1    2    0    0  0.26923606931E+02  0.29758572417E+03  0.27619808134E+03  0.41664762525E+03  0.89597542641E+02 0.  0.
        254    2    1    2    0    0 -0.26923606931E+02 -0.29758572417E+03 -0.15591718929E+03  0.96569068070E+03  0.90496750054E+03 0.  0.
        -24    2    4    4    0    0  0.34972597209E+03 -0.36093780900E+03  0.71831909489E+02  0.51367360647E+03  0.78207373325E+02 0.  0.
         24    2    4    4    0    0 -0.37664957902E+03  0.63352084829E+02 -0.22774909878E+03  0.45201707423E+03  0.81064118900E+02 0.  0.
         11    1    3    3    0    0  0.31790716047E+02  0.25709229132E+03  0.18990698574E+03  0.32120361006E+03  0.00000000000E+00 0.  1.
        -11    1    3    3    0    0 -0.48671091158E+01  0.40493432852E+02  0.86291095599E+02  0.95444015186E+02  0.00000000000E+00 0. -1.
          4    1    6    6  502    0 -0.36418635124E+03  0.74688024784E+02 -0.20777937307E+03  0.42588997094E+03  0.00000000000E+00 0. -1.
          3    1    5    5  503    0  0.30869631901E+03 -0.30424054604E+03  0.86986000144E+02  0.44206593563E+03  0.00000000000E+00 0. -1.
         -4    1    5    5    0  503  0.41029653075E+02 -0.56697262965E+02 -0.15154090655E+02  0.71607670838E+02  0.00000000000E+00 0.  1.
         -3    1    6    6    0  502 -0.12463227784E+02 -0.11335939955E+02 -0.19969725713E+02  0.26127103294E+02  0.00000000000E+00 0.  1.
<mgrwt>
<rscale>  0 0.13770954E+04</rscale>
<asrwt>0</asrwt>
<pdfrwt beam="1">  1        1 0.11558609E+00 0.13770954E+04</pdfrwt>
<pdfrwt beam="2">  1       -1 0.97081340E-01 0.13770954E+04</pdfrwt>
<totfact> 0.24338262E+01</totfact>
</mgrwt>
</event>
<event>
12    1  0.1504874E-007  0.2113138E+04  0.7818608E-02  0.8555478E-01
         -2   -1    0    0    0  501 -0.00000000000E+00  0.00000000000E+00  0.74104073137E+03  0.74104073137E+03  0.00000000000E+00 0.  1.
          2   -1    0    0  501    0  0.00000000000E+00 -0.00000000000E+00 -0.15064465935E+04  0.15064465935E+04  0.00000000000E+00 0. -1.
         23    2    1    2    0    0  0.67868924474E+03 -0.50054158021E+03 -0.12158050869E+03  0.85697793772E+03  0.92023916438E+02 0.  0.
        254    2    1    2    0    0 -0.67868924474E+03  0.50054158021E+03 -0.64382535340E+03  0.13905093871E+04  0.89880159409E+03 0.  0.
        -24    2    4    4    0    0 -0.77709861691E+03  0.56974935210E+03 -0.74042917255E+03  0.12178224016E+04  0.79746207689E+02 0.  0.
         24    2    4    4    0    0  0.98409372167E+02 -0.69207771892E+02  0.96603819145E+02  0.17268698553E+03  0.77552413733E+02 0.  0.
         13    1    3    3    0    0  0.49266443975E+03 -0.39681259860E+03 -0.60950767497E+02  0.63552614790E+03  0.00000000000E+00 0. -1.
        -13    1    3    3    0    0  0.18602480499E+03 -0.10372898160E+03 -0.60629741194E+02  0.22145178982E+03  0.00000000000E+00 0.  1.
          2    1    6    6  502    0  0.38822160002E+02  0.12827161791E+02  0.19444448553E+02  0.45274526683E+02  0.00000000000E+00 0. -1.
          3    1    5    5  503    0 -0.49764077763E+03  0.39328591670E+03 -0.52421062683E+03  0.82287115463E+03  0.00000000000E+00 0. -1.
         -4    1    5    5    0  503 -0.27945783928E+03  0.17646343540E+03 -0.21621854571E+03  0.39495124696E+03  0.00000000000E+00 0.  1.
         -1    1    6    6    0  502  0.59587212165E+02 -0.82034933683E+02  0.77159370592E+02  0.12741245884E+03  0.00000000000E+00 0.  1.
<mgrwt>
<rscale>  0 0.21131382E+04</rscale>
<asrwt>0</asrwt>
<pdfrwt beam="1">  1        2 0.23176101E+00 0.21131382E+04</pdfrwt>
<pdfrwt beam="2">  1       -2 0.11400627E+00 0.21131382E+04</pdfrwt>
<totfact> 0.69801700E+00</totfact>
</mgrwt>
</event>
<event>
12    1  0.1504874E-007  0.2338279E+04  0.7818608E-02  0.8462979E-01
          1   -1    0    0  501    0  0.00000000000E+00  0.00000000000E+00  0.11766847719E+04  0.11766847719E+04  0.00000000000E+00 0. -1.
         -1   -1    0    0    0  501 -0.00000000000E+00 -0.00000000000E+00 -0.11616426276E+04  0.11616426276E+04  0.00000000000E+00 0.  1.
         23    2    1    2    0    0 -0.23660658353E+03 -0.16674463943E+03  0.95841724135E+03  0.10054086733E+04  0.92176687520E+02 0.  0.
        254    2    1    2    0    0  0.23660658353E+03  0.16674463943E+03 -0.94337509703E+03  0.13329187262E+04  0.89606322701E+03 0.  0.
        -24    2    4    4    0    0  0.14062580246E+03 -0.17394535035E+03 -0.94067636494E+03  0.97018279575E+03  0.79687090414E+02 0.  0.
         24    2    4    4    0    0  0.95980781066E+02  0.34068998979E+03 -0.26987320841E+01  0.36273593044E+03  0.79297494320E+02 0.  0.
         11    1    3    3    0    0 -0.59226823913E+02 -0.43417048915E+02  0.13024092124E+03  0.14951773932E+03  0.00000000000E+00 0.  1.
        -11    1    3    3    0    0 -0.17737975961E+03 -0.12332759052E+03  0.82817632011E+03  0.85589093400E+03  0.00000000000E+00 0. -1.
          2    1    6    6  502    0  0.42048974225E+02  0.72201484494E+02  0.25697863255E+02  0.87415964059E+02  0.00000000000E+00 0. -1.
          1    1    5    5  503    0  0.11721085302E+01 -0.48117658650E+02 -0.23921862736E+03  0.24401277546E+03  0.00000000000E+00 0. -1.
         -2    1    5    5    0  503  0.13945369393E+03 -0.12582769170E+03 -0.70145773759E+03  0.72617002029E+03  0.00000000000E+00 0.  1.
         -1    1    6    6    0  502  0.53931806841E+02  0.26848850529E+03 -0.28396595339E+02  0.27531996639E+03  0.00000000000E+00 0.  1.
<mgrwt>
<rscale>  0 0.23382790E+04</rscale>
<asrwt>0</asrwt>
<pdfrwt beam="1">  1        1 0.18102843E+00 0.23382790E+04</pdfrwt>
<pdfrwt beam="2">  1       -1 0.17871425E+00 0.23382790E+04</pdfrwt>
<totfact> 0.21290404E+00</totfact>
</mgrwt>
</event>
<event>
12    1  0.1504874E-007  0.2867915E+04  0.7818608E-02  0.8282488E-01
         -2   -1    0    0    0  501 -0.00000000000E+00  0.00000000000E+00  0.11024068639E+04  0.11024068639E+04  0.00000000000E+00 0.  1.
          2   -1    0    0  501    0  0.00000000000E+00 -0.00000000000E+00 -0.18652229931E+04  0.18652229931E+04  0.00000000000E+00 0. -1.
         23    2    1    2    0    0  0.11045602924E+04  0.22694149779E+03  0.28471553943E+03  0.11659601446E+04  0.82729906495E+02 0.  0.
        254    2    1    2    0    0 -0.11045602924E+04 -0.22694149779E+03 -0.10475316686E+04  0.18016697123E+04  0.93655500245E+03 0.  0.
        -24    2    4    4    0    0 -0.53290758251E+03 -0.10915673310E+03  0.53988111173E+02  0.55252610379E+03  0.80403329146E+02 0.  0.
         24    2    4    4    0    0 -0.57165270988E+03 -0.11778476468E+03 -0.11015197798E+04  0.12491436086E+04  0.79711090661E+02 0.  0.
         13    1    3    3    0    0  0.19122563589E+02 -0.38035631555E+01  0.13162968706E+02  0.23524524991E+02  0.00000000000E+00 0.  1.
        -13    1    3    3    0    0  0.10854377288E+04  0.23074506094E+03  0.27155257073E+03  0.11424356196E+04  0.00000000000E+00 0. -1.
          2    1    6    6  502    0 -0.25680620298E+03 -0.39893991770E+02 -0.57053215989E+03  0.62693532516E+03  0.00000000000E+00 0. -1.
          3    1    5    5  503    0 -0.51204143266E+03 -0.12064431320E+03  0.51486528420E+02  0.52857576720E+03  0.00000000000E+00 0. -1.
         -4    1    5    5    0  503 -0.20866149857E+02  0.11487580097E+02  0.25015827525E+01  0.23950336587E+02  0.00000000000E+00 0.  1.
         -1    1    6    6    0  502 -0.31484650690E+03 -0.77890772912E+02 -0.53098761992E+03  0.62220828339E+03  0.00000000000E+00 0.  1.
<mgrwt>
<rscale>  0 0.28679154E+04</rscale>
<asrwt>0</asrwt>
<pdfrwt beam="1">  1        2 0.28695738E+00 0.28679154E+04</pdfrwt>
<pdfrwt beam="2">  1       -2 0.16960106E+00 0.28679154E+04</pdfrwt>
<totfact> 0.14739330E+00</totfact>
</mgrwt>
</event>
<event>
12    1  0.1504874E-007  0.1236597E+04  0.7818608E-02  0.9081413E-01
         -2   -1    0    0    0  501 -0.00000000000E+00  0.00000000000E+00  0.74921310949E+03  0.74921310949E+03  0.00000000000E+00 0.  1.
          2   -1    0    0  501    0  0.00000000000E+00 -0.00000000000E+00 -0.51025953986E+03  0.51025953986E+03  0.00000000000E+00 0. -1.
         23    2    1    2    0    0 -0.20365457878E+03 -0.16671347684E+03 -0.23610663787E+02  0.27996577070E+03  0.92492153734E+02 0.  0.
        254    2    1    2    0    0  0.20365457878E+03  0.16671347684E+03  0.26256423342E+03  0.97950687865E+03  0.90621475261E+03 0.  0.
        -24    2    4    4    0    0 -0.27593697574E+03 -0.42431895565E+02 -0.13084285385E+03  0.31891286289E+03  0.81510007793E+02 0.  0.
         24    2    4    4    0    0  0.47959155452E+03  0.20914537240E+03  0.39340708727E+03  0.66059401576E+03  0.88687492839E+02 0.  0.
         13    1    3    3    0    0  0.42065683092E+01 -0.29658290033E+02 -0.39033918341E+01  0.30208373879E+02  0.00000000000E+00 0. -1.
        -13    1    3    3    0    0 -0.20786114709E+03 -0.13705518681E+03 -0.19707271953E+02  0.24975739682E+03  0.00000000000E+00 0.  1.
          2    1    6    6  502    0  0.18535449216E+03  0.12787689881E+03  0.15733728043E+03  0.27470676880E+03  0.00000000000E+00 0. -1.
          3    1    5    5  503    0 -0.10457604723E+03  0.21095477079E+02 -0.33330073166E+02  0.11176789604E+03  0.00000000000E+00 0. -1.
         -4    1    5    5    0  503 -0.17136092851E+03 -0.63527372644E+02 -0.97512780683E+02  0.20714496685E+03  0.00000000000E+00 0.  1.
         -1    1    6    6    0  502  0.29423706236E+03  0.81268473594E+02  0.23606980683E+03  0.38588724696E+03  0.00000000000E+00 0.  1.
<mgrwt>
<rscale>  0 0.12365972E+04</rscale>
<asrwt>0</asrwt>
<pdfrwt beam="1">  1        2 0.78501468E-01 0.12365972E+04</pdfrwt>
<pdfrwt beam="2">  1       -2 0.11526356E+00 0.12365972E+04</pdfrwt>
<totfact> 0.34705491E+01</totfact>
</mgrwt>
</event>
<event>
12    1  0.1504874E-007  0.1279270E+04  0.7818608E-02  0.9046168E-01
          1   -1    0    0  501    0  0.00000000000E+00  0.00000000000E+00  0.36478972362E+04  0.36478972362E+04  0.00000000000E+00 0. -1.
         -1   -1    0    0    0  501 -0.00000000000E+00 -0.00000000000E+00 -0.11215576760E+03  0.11215576760E+03  0.00000000000E+00 0.  1.
         23    2    1    2    0    0 -0.27179606905E+03 -0.13398771300E+03  0.12159290826E+04  0.12563136484E+04  0.89524515750E+02 0.  0.
        254    2    1    2    0    0  0.27179606905E+03  0.13398771300E+03  0.23198123860E+04  0.25037393554E+04  0.89182702531E+03 0.  0.
        -24    2    4    4    0    0 -0.12593925827E+03  0.62367173591E+02  0.19297275869E+04  0.19364493237E+04  0.78975074846E+02 0.  0.
         24    2    4    4    0    0  0.39773532732E+03  0.71620539414E+02  0.39008479911E+03  0.56729003171E+03  0.79554618434E+02 0.  0.
         11    1    3    3    0    0 -0.26068887355E+02 -0.42130588395E+02  0.12930976760E+03  0.13847595229E+03  0.00000000000E+00 0.  1.
        -11    1    3    3    0    0 -0.24572718169E+03 -0.91857124610E+02  0.10866193150E+04  0.11178376962E+04  0.00000000000E+00 0. -1.
          4    1    6    6  502    0  0.64744971535E+02  0.27869000900E+02  0.10656056148E+03  0.12776441529E+03  0.00000000000E+00 0. -1.
          1    1    5    5  503    0 -0.98795134190E+02  0.68721161351E+01  0.12531624092E+04  0.12570695002E+04  0.00000000000E+00 0. -1.
         -2    1    5    5    0  503 -0.27144124083E+02  0.55495057456E+02  0.67656517768E+03  0.67937982346E+03  0.00000000000E+00 0.  1.
         -3    1    6    6    0  502  0.33299035578E+03  0.43751538514E+02  0.28352423763E+03  0.43952561642E+03  0.00000000000E+00 0.  1.
<mgrwt>
<rscale>  0 0.12792697E+04</rscale>
<asrwt>0</asrwt>
<pdfrwt beam="1">  1        1 0.56121487E+00 0.12792697E+04</pdfrwt>
<pdfrwt beam="2">  1       -1 0.17254736E-01 0.12792697E+04</pdfrwt>
<totfact> 0.50034081E+00</totfact>
</mgrwt>
</event>
<event>
12    1  0.1504874E-007  0.1838990E+04  0.7818608E-02  0.8685836E-01
         -2   -1    0    0    0  501 -0.00000000000E+00  0.00000000000E+00  0.25467963584E+03  0.25467963584E+03  0.00000000000E+00 0.  1.
          2   -1    0    0  501    0  0.00000000000E+00 -0.00000000000E+00 -0.33197418491E+04  0.33197418491E+04  0.00000000000E+00 0. -1.
         23    2    1    2    0    0 -0.42393628227E+03 -0.53313803452E+03 -0.88561702217E+03  0.11209577059E+04  0.90942471657E+02 0.  0.
        254    2    1    2    0    0  0.42393628227E+03  0.53313803452E+03 -0.21794451911E+04  0.24534637791E+04  0.89752160917E+03 0.  0.
        -24    2    4    4    0    0  0.24192651787E+03 -0.22669525281E+03 -0.67241321098E+03  0.75405324584E+03  0.80855386801E+02 0.  0.
         24    2    4    4    0    0  0.18200976439E+03  0.75983328733E+03 -0.15070319801E+04  0.16994105332E+04  0.79853568925E+02 0.  0.
         11    1    3    3    0    0 -0.28785632894E+03 -0.34256329277E+03 -0.51143970452E+03  0.67954502943E+03  0.00000000000E+00 0.  1.
        -11    1    3    3    0    0 -0.13607995333E+03 -0.19057474175E+03 -0.37417731765E+03  0.44141267645E+03  0.00000000000E+00 0. -1.
          4    1    6    6  502    0  0.38004559616E+02  0.16364475704E+03 -0.25735446409E+03  0.30733576629E+03  0.00000000000E+00 0. -1.
          3    1    5    5  503    0  0.11983143365E+03 -0.15583965912E+03 -0.44344392071E+03  0.48506502931E+03  0.00000000000E+00 0. -1.
         -4    1    5    5    0  503  0.12209508422E+03 -0.70855593691E+02 -0.22896929027E+03  0.26898821654E+03  0.00000000000E+00 0.  1.
         -3    1    6    6    0  502  0.14400520478E+03  0.59618853029E+03 -0.12496775160E+04  0.13920747669E+04  0.00000000000E+00 0.  1.
<mgrwt>
<rscale>  0 0.18389896E+04</rscale>
<asrwt>0</asrwt>
<pdfrwt beam="1">  1        2 0.51072952E+00 0.18389896E+04</pdfrwt>
<pdfrwt beam="2">  1       -2 0.39181482E-01 0.18389896E+04</pdfrwt>
<totfact> 0.62997110E+00</totfact>
</mgrwt>
</event>
<event>
12    1  0.1504874E-007  0.1744211E+04  0.7818608E-02  0.8736543E-01
         -1   -1    0    0    0  501 -0.00000000000E+00  0.00000000000E+00  0.12706354417E+04  0.12706354417E+04  0.00000000000E+00 0.  1.
          1   -1    0    0  501    0  0.00000000000E+00 -0.00000000000E+00 -0.59857307716E+03  0.59857307716E+03  0.00000000000E+00 0. -1.
         23    2    1    2    0    0 -0.61653950912E+03  0.83380128705E+02  0.99574906472E+02  0.63649613713E+03  0.90216175977E+02 0.  0.
        254    2    1    2    0    0  0.61653950912E+03 -0.83380128705E+02  0.57248745809E+03  0.12327123818E+04  0.89708679307E+03 0.  0.
        -24    2    4    4    0    0  0.55016004762E+02 -0.41131650354E+03  0.32199976194E+03  0.53117294254E+03  0.79074783217E+02 0.  0.
         24    2    4    4    0    0  0.56152350436E+03  0.32793637483E+03  0.25048769615E+03  0.70153943922E+03  0.81009795479E+02 0.  0.
         11    1    3    3    0    0 -0.57899758819E+03  0.99851793793E+02  0.90017125622E+02  0.59440026140E+03  0.00000000000E+00 0. -1.
        -11    1    3    3    0    0 -0.37541920937E+02 -0.16471665088E+02  0.95577808494E+01  0.42095875726E+02  0.00000000000E+00 0.  1.
          4    1    6    6  502    0  0.17512067891E+03  0.11264926825E+03  0.12017057036E+03  0.24041230376E+03  0.00000000000E+00 0. -1.
          1    1    5    5  503    0  0.33525103673E+02 -0.18839026865E+03  0.10031566575E+03  0.21605105575E+03  0.00000000000E+00 0. -1.
         -2    1    5    5    0  503  0.21490901090E+02 -0.22292623489E+03  0.22168409619E+03  0.31512188679E+03  0.00000000000E+00 0.  1.
         -3    1    6    6    0  502  0.38640282545E+03  0.21528710658E+03  0.13031712579E+03  0.46112713545E+03  0.00000000000E+00 0.  1.
<mgrwt>
<rscale>  0 0.17442112E+04</rscale>
<asrwt>0</asrwt>
<pdfrwt beam="1">  1        1 0.92088166E-01 0.17442112E+04</pdfrwt>
<pdfrwt beam="2">  1       -1 0.19548237E+00 0.17442112E+04</pdfrwt>
<totfact> 0.52696563E+00</totfact>
</mgrwt>
</event>
<event>
12    1  0.1504874E-007  0.1308189E+04  0.7818608E-02  0.9023096E-01
          2   -1    0    0  501    0  0.00000000000E+00  0.00000000000E+00  0.49434277697E+03  0.49434277697E+03  0.00000000000E+00 0.  1.
         -2   -1    0    0    0  501 -0.00000000000E+00 -0.00000000000E+00 -0.86547214713E+03  0.86547214713E+03  0.00000000000E+00 0. -1.
         23    2    1    2    0    0 -0.27786561927E+03  0.15186840898E+03  0.15300820685E+02  0.32974151016E+03  0.90675423323E+02 0.  0.
        254    2    1    2    0    0  0.27786561927E+03 -0.15186840898E+03 -0.38643019084E+03  0.10300734139E+04  0.90080498983E+03 0.  0.
        -24    2    4    4    0    0 -0.78671193780E+02  0.30946831484E+03 -0.27907401511E+03  0.43170286543E+03  0.80779103061E+02 0.  0.
         24    2    4    4    0    0  0.35653681305E+03 -0.46133672381E+03 -0.10735617573E+03  0.59837054851E+03  0.81067213258E+02 0.  0.
         13    1    3    3    0    0 -0.26391092175E+02 -0.93336237368E+01 -0.10558062753E+02  0.29917870367E+02  0.00000000000E+00 0. -1.
        -13    1    3    3    0    0 -0.25147452709E+03  0.16120203271E+03  0.25858883438E+02  0.29982363980E+03  0.00000000000E+00 0.  1.
          2    1    6    6  502    0  0.95224535169E+02 -0.76817598971E+02 -0.39328734322E+02  0.12851227550E+03  0.00000000000E+00 0. -1.
          3    1    5    5  503    0 -0.35851594305E+02  0.38112945533E+02 -0.64905131510E+02  0.83370315627E+02  0.00000000000E+00 0. -1.
         -4    1    5    5    0  503 -0.42819599475E+02  0.27135536930E+03 -0.21416888360E+03  0.34833254980E+03  0.00000000000E+00 0.  1.
         -1    1    6    6    0  502  0.26131227788E+03 -0.38451912484E+03 -0.68027441408E+02  0.46985827302E+03  0.00000000000E+00 0.  1.
<mgrwt>
<rscale>  0 0.13081894E+04</rscale>
<asrwt>0</asrwt>
<pdfrwt beam="1">  1        2 0.76052736E-01 0.13081894E+04</pdfrwt>
<pdfrwt beam="2">  1       -2 0.13314956E+00 0.13081894E+04</pdfrwt>
<totfact> 0.24966175E+01</totfact>
</mgrwt>
</event>
<event>
12    1  0.1504874E-007  0.2130718E+04  0.7818608E-02  0.8547831E-01
         -1   -1    0    0    0  501 -0.00000000000E+00  0.00000000000E+00  0.59260391057E+03  0.59260391057E+03  0.00000000000E+00 0.  1.
          1   -1    0    0  501    0  0.00000000000E+00 -0.00000000000E+00 -0.19152578489E+04  0.19152578489E+04  0.00000000000E+00 0. -1.
         23    2    1    2    0    0 -0.22495653346E+03 -0.26103557416E+03  0.39894220677E+03  0.53616581039E+03  0.97846200589E+02 0.  0.
        254    2    1    2    0    0  0.22495653346E+03  0.26103557416E+03 -0.17215961451E+04  0.19716959491E+04  0.89718817195E+03 0.  0.
        -24    2    4    4    0    0  0.22342161588E+02 -0.30879285111E+03 -0.85240381855E+03  0.91015220534E+03  0.77023177812E+02 0.  0.
         24    2    4    4    0    0  0.20261437187E+03  0.56982842527E+03 -0.86919232658E+03  0.10615437438E+04  0.74985341382E+02 0.  0.
         13    1    3    3    0    0 -0.12412650234E+03 -0.71695333150E+02  0.17161536901E+03  0.22360555507E+03  0.00000000000E+00 0.  1.
        -13    1    3    3    0    0 -0.10083003112E+03 -0.18934024101E+03  0.22732683776E+03  0.31256025532E+03  0.00000000000E+00 0. -1.
          4    1    6    6  502    0  0.13190824352E+02  0.38393982021E+02 -0.97448176736E+02  0.10556629600E+03  0.00000000000E+00 0. -1.
          3    1    5    5  503    0  0.12958791927E+01 -0.68128316692E+02 -0.10964861783E+03  0.12909673206E+03  0.00000000000E+00 0. -1.
         -4    1    5    5    0  503  0.21046282396E+02 -0.24066453442E+03 -0.74275520072E+03  0.78105547327E+03  0.00000000000E+00 0.  1.
         -3    1    6    6    0  502  0.18942354752E+03  0.53143444325E+03 -0.77174414984E+03  0.95597744777E+03  0.00000000000E+00 0.  1.
<mgrwt>
<rscale>  0 0.21307175E+04</rscale>
<asrwt>0</asrwt>
<pdfrwt beam="1">  1        1 0.29465505E+00 0.21307175E+04</pdfrwt>
<pdfrwt beam="2">  1       -1 0.91169835E-01 0.21307175E+04</pdfrwt>
<totfact> 0.36624725E+00</totfact>
</mgrwt>
</event>
<event>
12    1  0.1504874E-007  0.1594607E+04  0.7818608E-02  0.8823868E-01
         -2   -1    0    0    0  501 -0.00000000000E+00  0.00000000000E+00  0.53720902092E+03  0.53720902092E+03  0.00000000000E+00 0.  1.
          2   -1    0    0  501    0  0.00000000000E+00 -0.00000000000E+00 -0.11833251019E+04  0.11833251019E+04  0.00000000000E+00 0. -1.
         23    2    1    2    0    0  0.40532312174E+03 -0.16071382268E+03 -0.56795074089E+03  0.72114125929E+03  0.85795722214E+02 0.  0.
        254    2    1    2    0    0 -0.40532312174E+03  0.16071382268E+03 -0.78165340139E+02  0.99939286357E+03  0.89585741585E+03 0.  0.
        -24    2    4    4    0    0 -0.53362956609E+03 -0.20805629721E+03 -0.14239054687E+03  0.59546871476E+03  0.79120072070E+02 0.  0.
         24    2    4    4    0    0  0.12830644434E+03  0.36877011990E+03  0.64225206732E+02  0.40392414882E+03  0.81091897433E+02 0.  0.
         13    1    3    3    0    0  0.29303287671E+03 -0.11836598199E+03 -0.34450394236E+03  0.46750587036E+03  0.00000000000E+00 0. -1.
        -13    1    3    3    0    0  0.11229024504E+03 -0.42347840695E+02 -0.22344679853E+03  0.25363538892E+03  0.00000000000E+00 0.  1.
          4    1    6    6  502    0  0.12172190363E+02  0.52172792287E+02 -0.18538973018E+02  0.56690881047E+02  0.00000000000E+00 0. -1.
          3    1    5    5  503    0 -0.14387835216E+03 -0.72849693897E+02 -0.75227811719E+01  0.16144550275E+03  0.00000000000E+00 0. -1.
         -4    1    5    5    0  503 -0.38975121392E+03 -0.13520660331E+03 -0.13486776570E+03  0.43402321200E+03  0.00000000000E+00 0.  1.
         -3    1    6    6    0  502  0.11613425398E+03  0.31659732761E+03  0.82764179749E+02  0.34723326777E+03  0.00000000000E+00 0.  1.
<mgrwt>
<rscale>  0 0.15946071E+04</rscale>
<asrwt>0</asrwt>
<pdfrwt beam="1">  1        2 0.18205002E+00 0.15946071E+04</pdfrwt>
<pdfrwt beam="2">  1       -2 0.82647542E-01 0.15946071E+04</pdfrwt>
<totfact> 0.23883114E+01</totfact>
</mgrwt>
</event>
<event>
12    1  0.1504874E-007  0.1266873E+04  0.7818608E-02  0.9056255E-01
          1   -1    0    0  501    0  0.00000000000E+00  0.00000000000E+00  0.20437048892E+04  0.20437048892E+04  0.00000000000E+00 0. -1.
         -1   -1    0    0    0  501 -0.00000000000E+00 -0.00000000000E+00 -0.19633070636E+03  0.19633070636E+03  0.00000000000E+00 0.  1.
         23    2    1    2    0    0  0.29926984540E+03 -0.18593542368E+02  0.58274368470E+03  0.66171944711E+03  0.91511007207E+02 0.  0.
        254    2    1    2    0    0 -0.29926984540E+03  0.18593542368E+02  0.12646304982E+04  0.15783161485E+04  0.89547942883E+03 0.  0.
        -24    2    4    4    0    0 -0.17375251701E+03 -0.41741578450E+03  0.45042337068E+03  0.64309334317E+03  0.79132552468E+02 0.  0.
         24    2    4    4    0    0 -0.12551732838E+03  0.43600932687E+03  0.81420712751E+03  0.93522280532E+03  0.76483437853E+02 0.  0.
         11    1    3    3    0    0  0.29734379265E+03 -0.99035713213E+01  0.52621696931E+03  0.60449624526E+03  0.00000000000E+00 0. -1.
        -11    1    3    3    0    0  0.19260527475E+01 -0.86899710464E+01  0.56526715393E+02  0.57223201843E+02  0.00000000000E+00 0.  1.
          4    1    6    6  502    0 -0.89932038824E+02  0.39511053389E+03  0.73373904863E+03  0.83819633564E+03  0.00000000000E+00 0. -1.
          1    1    5    5  503    0 -0.18201267848E+03 -0.39621471423E+03  0.42342444331E+03  0.60778530262E+03  0.00000000000E+00 0. -1.
         -2    1    5    5    0  503  0.82601614621E+01 -0.21201070270E+02  0.26998927370E+02  0.35308040545E+02  0.00000000000E+00 0.  1.
         -3    1    6    6    0  502 -0.35585289559E+02  0.40898792975E+02  0.80468078883E+02  0.97026469682E+02  0.00000000000E+00 0.  1.
<mgrwt>
<rscale>  0 0.12668734E+04</rscale>
<asrwt>0</asrwt>
<pdfrwt beam="1">  1        1 0.31441612E+00 0.12668734E+04</pdfrwt>
<pdfrwt beam="2">  1       -1 0.30204725E-01 0.12668734E+04</pdfrwt>
<totfact> 0.27684990E+01</totfact>
</mgrwt>
</event>
<event>
12    1  0.1504874E-007  0.1766614E+04  0.7818608E-02  0.8724258E-01
          1   -1    0    0  501    0  0.00000000000E+00  0.00000000000E+00  0.43176615810E+03  0.43176615810E+03  0.00000000000E+00 0. -1.
         -1   -1    0    0    0  501 -0.00000000000E+00 -0.00000000000E+00 -0.18070680184E+04  0.18070680184E+04  0.00000000000E+00 0.  1.
         23    2    1    2    0    0 -0.49954029492E+03  0.42327522843E+03 -0.51169623220E+03  0.83579887936E+03  0.89578498709E+02 0.  0.
        254    2    1    2    0    0  0.49954029492E+03 -0.42327522843E+03 -0.86360562815E+03  0.14030352972E+04  0.89106169198E+03 0.  0.
        -24    2    4    4    0    0 -0.69150900892E+02 -0.39156294822E+03 -0.69319469217E+03  0.80318229684E+03  0.80495535262E+02 0.  0.
         24    2    4    4    0    0  0.56869119581E+03 -0.31712280210E+02 -0.17041093598E+03  0.59985300034E+03  0.79802192949E+02 0.  0.
         11    1    3    3    0    0 -0.42241317016E+03  0.37106080984E+03 -0.39816798729E+03  0.68895337798E+03  0.00000000000E+00 0. -1.
        -11    1    3    3    0    0 -0.77127124762E+02  0.52214418590E+02 -0.11352824491E+03  0.14684550138E+03  0.00000000000E+00 0.  1.
          2    1    6    6  502    0  0.20069044957E+03  0.26252316655E+02 -0.67563195707E+02  0.21337906667E+03  0.00000000000E+00 0. -1.
          1    1    5    5  503    0  0.35307193879E+01 -0.19740445367E+03 -0.31092444061E+03  0.36831371421E+03  0.00000000000E+00 0. -1.
         -2    1    5    5    0  503 -0.72681620279E+02 -0.19415849456E+03 -0.38227025155E+03  0.43486858263E+03  0.00000000000E+00 0.  1.
         -1    1    6    6    0  502  0.36800074624E+03 -0.57964596865E+02 -0.10284774027E+03  0.38647393367E+03  0.00000000000E+00 0.  1.
<mgrwt>
<rscale>  0 0.17666135E+04</rscale>
<asrwt>0</asrwt>
<pdfrwt beam="1">  1        1 0.66425563E-01 0.17666135E+04</pdfrwt>
<pdfrwt beam="2">  1       -1 0.27801046E+00 0.17666135E+04</pdfrwt>
<totfact> 0.23509319E+00</totfact>
</mgrwt>
</event>
<event>
12    1  0.1504874E-007  0.2334842E+04  0.7818608E-02  0.8464309E-01
         -2   -1    0    0    0  501 -0.00000000000E+00  0.00000000000E+00  0.14474198438E+04  0.14474198438E+04  0.00000000000E+00 0.  1.
          2   -1    0    0  501    0  0.00000000000E+00 -0.00000000000E+00 -0.94158675062E+03  0.94158675062E+03  0.00000000000E+00 0. -1.
         23    2    1    2    0    0  0.20151427677E+03  0.84161750791E+03 -0.27654291677E+03  0.91452564156E+03  0.10465720661E+03 0.  0.
        254    2    1    2    0    0 -0.20151427677E+03 -0.84161750791E+03  0.78237600998E+03  0.14744809529E+04  0.90169497397E+03 0.  0.
        -24    2    4    4    0    0  0.33693096497E+03 -0.30091931294E+03  0.43521571261E+03  0.63218677739E+03  0.78565240117E+02 0.  0.
         24    2    4    4    0    0 -0.53844524174E+03 -0.54069819497E+03  0.34716029738E+03  0.84229417550E+03  0.81617336513E+02 0.  0.
         13    1    3    3    0    0  0.89917823636E+02  0.53182957673E+03 -0.13433647619E+03  0.55585447964E+03  0.00000000000E+00 0. -1.
        -13    1    3    3    0    0  0.11159645314E+03  0.30978793117E+03 -0.14220644058E+03  0.35867116192E+03  0.00000000000E+00 0.  1.
          2    1    6    6  502    0 -0.17614036783E+03 -0.19112897218E+03  0.77773120586E+02  0.27130125593E+03  0.00000000000E+00 0. -1.
          1    1    5    5  503    0  0.63393013986E+02 -0.85294022745E+02  0.13889183304E+03  0.17488477871E+03  0.00000000000E+00 0. -1.
         -2    1    5    5    0  503  0.27353795098E+03 -0.21562529019E+03  0.29632387956E+03  0.45730199868E+03  0.00000000000E+00 0.  1.
         -1    1    6    6    0  502 -0.36230487391E+03 -0.34956922279E+03  0.26938717679E+03  0.57099291957E+03  0.00000000000E+00 0.  1.
<mgrwt>
<rscale>  0 0.23348416E+04</rscale>
<asrwt>0</asrwt>
<pdfrwt beam="1">  1        2 0.14485950E+00 0.23348416E+04</pdfrwt>
<pdfrwt beam="2">  1       -2 0.22267998E+00 0.23348416E+04</pdfrwt>
<totfact> 0.23624565E+00</totfact>
</mgrwt>
</event>
<event>
12    1  0.1504874E-007  0.1456386E+04  0.7818608E-02  0.8913985E-01
          2   -1    0    0  501    0  0.00000000000E+00  0.00000000000E+00  0.16442956574E+04  0.16442956574E+04  0.00000000000E+00 0. -1.
         -2   -1    0    0    0  501 -0.00000000000E+00 -0.00000000000E+00 -0.32248767255E+03  0.32248767255E+03  0.00000000000E+00 0.  1.
         23    2    1    2    0    0  0.20589122528E+03  0.36976862332E+03  0.23017337204E+03  0.49405931605E+03  0.10952075209E+03 0.  0.
        254    2    1    2    0    0 -0.20589122528E+03 -0.36976862332E+03  0.10916346128E+04  0.14727240139E+04  0.89338114029E+03 0.  0.
        -24    2    4    4    0    0 -0.22058852483E+02 -0.57375330542E+03  0.34804949730E+03  0.67615472098E+03  0.79795398907E+02 0.  0.
         24    2    4    4    0    0 -0.18383237279E+03  0.20398468210E+03  0.74358511549E+03  0.79656929291E+03  0.78738317276E+02 0.  0.
         11    1    3    3    0    0  0.70482568957E+01  0.36975474237E+02 -0.87910942550E+01  0.38654197166E+02  0.00000000000E+00 0. -1.
        -11    1    3    3    0    0  0.19884296838E+03  0.33279314908E+03  0.23896446630E+03  0.45540511888E+03  0.00000000000E+00 0.  1.
          2    1    6    6  502    0 -0.15717479315E+03  0.17333554060E+03  0.53293553859E+03  0.58203901375E+03  0.00000000000E+00 0. -1.
          1    1    5    5  503    0 -0.10134491724E+02 -0.46025711285E+03  0.24077846917E+03  0.51953208666E+03  0.00000000000E+00 0. -1.
         -2    1    5    5    0  503 -0.11924360759E+02 -0.11349619257E+03  0.10727102813E+03  0.15662263433E+03  0.00000000000E+00 0.  1.
         -1    1    6    6    0  502 -0.26657579644E+02  0.30649141506E+02  0.21064957690E+03  0.21453027916E+03  0.00000000000E+00 0.  1.
<mgrwt>
<rscale>  0 0.14563860E+04</rscale>
<asrwt>0</asrwt>
<pdfrwt beam="1">  1        2 0.25296856E+00 0.14563860E+04</pdfrwt>
<pdfrwt beam="2">  1       -2 0.49613489E-01 0.14563860E+04</pdfrwt>
<totfact> 0.39250349E+01</totfact>
</mgrwt>
</event>
<event>
12    1  0.1504874E-007  0.2074567E+04  0.7818608E-02  0.8572530E-01
         -1   -1    0    0    0  501 -0.00000000000E+00  0.00000000000E+00  0.11602837876E+04  0.11602837876E+04  0.00000000000E+00 0.  1.
          1   -1    0    0  501    0  0.00000000000E+00 -0.00000000000E+00 -0.92732229280E+03  0.92732229280E+03  0.00000000000E+00 0. -1.
         23    2    1    2    0    0  0.80883685746E+03 -0.19608845807E+03  0.18810534964E+03  0.85869746385E+03  0.96488167557E+02 0.  0.
        254    2    1    2    0    0 -0.80883685746E+03  0.19608845807E+03  0.44856145198E+02  0.12289086166E+04  0.90307063334E+03 0.  0.
        -24    2    4    4    0    0 -0.58475865679E+03 -0.30930253116E+03  0.67580196462E+02  0.66946986665E+03  0.77537583938E+02 0.  0.
         24    2    4    4    0    0 -0.22407820067E+03  0.50539098923E+03 -0.22724051264E+02  0.55943874995E+03  0.82608960915E+02 0.  0.
         11    1    3    3    0    0  0.28918852179E+03 -0.87019280856E+02  0.24021514061E+02  0.30295113387E+03  0.00000000000E+00 0. -1.
        -11    1    3    3    0    0  0.51964833567E+03 -0.10906917721E+03  0.16408383558E+03  0.55574632998E+03  0.00000000000E+00 0.  1.
          4    1    6    6  502    0 -0.15695617225E+03  0.26042168053E+03  0.35536396397E+01  0.30408439627E+03  0.00000000000E+00 0. -1.
          3    1    5    5  503    0 -0.12100162870E+03 -0.95716945989E+02 -0.11517656952E+01  0.15428692253E+03  0.00000000000E+00 0. -1.
         -4    1    5    5    0  503 -0.46375702808E+03 -0.21358558517E+03  0.68731962157E+02  0.51518294412E+03  0.00000000000E+00 0.  1.
         -3    1    6    6    0  502 -0.67122028425E+02  0.24496930870E+03 -0.26277690904E+02  0.25535435368E+03  0.00000000000E+00 0.  1.
<mgrwt>
<rscale>  0 0.20745670E+04</rscale>
<asrwt>0</asrwt>
<pdfrwt beam="1">  1        1 0.14266497E+00 0.20745670E+04</pdfrwt>
<pdfrwt beam="2">  1       -1 0.17850520E+00 0.20745670E+04</pdfrwt>
<totfact> 0.33990448E+00</totfact>
</mgrwt>
</event>
<event>
12    1  0.1504874E-007  0.3497385E+04  0.7818608E-02  0.8114410E-01
          2   -1    0    0  501    0  0.00000000000E+00  0.00000000000E+00  0.34155422488E+04  0.34155422488E+04  0.00000000000E+00 0. -1.
         -2   -1    0    0    0  501 -0.00000000000E+00 -0.00000000000E+00 -0.89529737492E+03  0.89529737492E+03  0.00000000000E+00 0.  1.
         23    2    1    2    0    0 -0.79457466257E+03 -0.12515531777E+04  0.20275151462E+04  0.25133114350E+04  0.90456896655E+02 0.  0.
        254    2    1    2    0    0  0.79457466257E+03  0.12515531777E+04  0.49272972767E+03  0.17975281887E+04  0.88915170464E+03 0.  0.
        -24    2    4    4    0    0  0.70425486782E+03  0.55800709792E+03  0.60296000024E+03  0.10849685926E+04  0.79052166009E+02 0.  0.
         24    2    4    4    0    0  0.90319794751E+02  0.69354607975E+03 -0.11023027257E+03  0.71255959611E+03  0.80166295582E+02 0.  0.
         11    1    3    3    0    0 -0.54273154896E+03 -0.86484869741E+03  0.14653061734E+04  0.17859571623E+04  0.00000000000E+00 0. -1.
        -11    1    3    3    0    0 -0.25184311360E+03 -0.38670448026E+03  0.56220897283E+03  0.72735427272E+03  0.00000000000E+00 0.  1.
          4    1    6    6  502    0  0.70818500464E+01  0.25818053489E+02  0.10795390571E+02  0.28866328891E+02  0.00000000000E+00 0. -1.
          3    1    5    5  503    0  0.27603274114E+02  0.34303771192E+02  0.13930630983E+02  0.46181727332E+02  0.00000000000E+00 0. -1.
         -4    1    5    5    0  503  0.67665159370E+03  0.52370332673E+03  0.58902936926E+03  0.10387868653E+04  0.00000000000E+00 0.  1.
         -3    1    6    6    0  502  0.83237944704E+02  0.66772802626E+03 -0.12102566314E+03  0.68369326722E+03  0.00000000000E+00 0.  1.
<mgrwt>
<rscale>  0 0.34973853E+04</rscale>
<asrwt>0</asrwt>
<pdfrwt beam="1">  1        2 0.52546803E+00 0.34973853E+04</pdfrwt>
<pdfrwt beam="2">  1       -2 0.13773806E+00 0.34973853E+04</pdfrwt>
<totfact> 0.28606599E-01</totfact>
</mgrwt>
</event>
<event>
12    1  0.1504874E-007  0.1796724E+04  0.7818608E-02  0.8708044E-01
         -1   -1    0    0    0  501 -0.00000000000E+00  0.00000000000E+00  0.52538231431E+03  0.52538231431E+03  0.00000000000E+00 0. -1.
          1   -1    0    0  501    0  0.00000000000E+00 -0.00000000000E+00 -0.15361271654E+04  0.15361271654E+04  0.00000000000E+00 0.  1.
         23    2    1    2    0    0 -0.45171488773E+03 -0.22790075437E+03 -0.89487281785E+03  0.10319076601E+04  0.89727171319E+02 0.  0.
        254    2    1    2    0    0  0.45171488773E+03  0.22790075437E+03 -0.11587203322E+03  0.10296018196E+04  0.88919541448E+03 0.  0.
        -24    2    4    4    0    0  0.59779002336E+03 -0.23196850983E+02 -0.30220021221E+03  0.67502024357E+03  0.80226897239E+02 0.  0.
         24    2    4    4    0    0 -0.14607513563E+03  0.25109760536E+03  0.18632817898E+03  0.35458157600E+03  0.81375371529E+02 0.  0.
         13    1    3    3    0    0 -0.15032092815E+02 -0.14499532106E+02 -0.11992875265E+02  0.24083797517E+02  0.00000000000E+00 0. -1.
        -13    1    3    3    0    0 -0.43668279492E+03 -0.21340122227E+03 -0.88287994258E+03  0.10078238626E+04  0.00000000000E+00 0.  1.
          4    1    6    6  502    0 -0.56892790124E+02  0.75428235083E+02  0.19601623658E+02  0.96490579156E+02  0.00000000000E+00 0. -1.
          1    1    5    5  503    0  0.40766084980E+01 -0.76956293636E+01 -0.15152359233E+00  0.87100176548E+01  0.00000000000E+00 0. -1.
         -2    1    5    5    0  503  0.59371341486E+03 -0.15501221620E+02 -0.30204868862E+03  0.66631022591E+03  0.00000000000E+00 0.  1.
         -3    1    6    6    0  502 -0.89182345508E+02  0.17566937027E+03  0.16672655533E+03  0.25809099685E+03  0.00000000000E+00 0.  1.
<mgrwt>
<rscale>  0 0.17967237E+04</rscale>
<asrwt>0</asrwt>
<pdfrwt beam="1">  1        1 0.23632725E+00 0.17967237E+04</pdfrwt>
<pdfrwt beam="2">  1       -1 0.80828050E-01 0.17967237E+04</pdfrwt>
<totfact> 0.88940384E+00</totfact>
</mgrwt>
</event>
<event>
12    1  0.1504874E-007  0.2100849E+04  0.7818608E-02  0.8560869E-01
          2   -1    0    0  501    0  0.00000000000E+00  0.00000000000E+00  0.15389207803E+04  0.15389207803E+04  0.00000000000E+00 0. -1.
         -2   -1    0    0    0  501 -0.00000000000E+00 -0.00000000000E+00 -0.71699056118E+03  0.71699056118E+03  0.00000000000E+00 0.  1.
         23    2    1    2    0    0  0.55573714448E+03 -0.56635699225E+03  0.67812340145E+03  0.10477711237E+04  0.91482039975E+02 0.  0.
        254    2    1    2    0    0 -0.55573714448E+03  0.56635699225E+03  0.14380681769E+03  0.12081402178E+04  0.89962123622E+03 0.  0.
        -24    2    4    4    0    0  0.15341176598E+03  0.13567475840E+03 -0.20854775764E+03  0.30313412424E+03  0.80345006404E+02 0.  0.
         24    2    4    4    0    0 -0.70914891046E+03  0.43068223385E+03  0.35235457533E+03  0.90500609357E+03  0.80640677617E+02 0.  0.
         13    1    3    3    0    0  0.95615726914E+02 -0.15129667050E+03  0.15848226679E+03  0.23905998960E+03  0.00000000000E+00 0.  1.
        -13    1    3    3    0    0  0.46012141756E+03 -0.41506032175E+03  0.51964113465E+03  0.80871113410E+03  0.00000000000E+00 0. -1.
          4    1    6    6  502    0 -0.69216243102E+03  0.43247056513E+03  0.34874391191E+03  0.88754827289E+03  0.00000000000E+00 0. -1.
          3    1    5    5  503    0  0.14127234701E+03  0.90537639611E+02 -0.18824865776E+03  0.25217552887E+03  0.00000000000E+00 0. -1.
         -2    1    5    5    0  503  0.12139418975E+02  0.45137118790E+02 -0.20299099879E+02  0.50958595366E+02  0.00000000000E+00 0.  1.
         -3    1    6    6    0  502 -0.16986479437E+02 -0.17883312834E+01  0.36106634219E+01  0.17457820677E+02  0.00000000000E+00 0.  1.
<mgrwt>
<rscale>  0 0.21008490E+04</rscale>
<asrwt>0</asrwt>
<pdfrwt beam="1">  1        2 0.23675704E+00 0.21008490E+04</pdfrwt>
<pdfrwt beam="2">  1       -2 0.11030624E+00 0.21008490E+04</pdfrwt>
<totfact> 0.72583053E+00</totfact>
</mgrwt>
</event>
<event>
12    1  0.1504874E-007  0.2643118E+04  0.7818608E-02  0.8353701E-01
         -3   -1    0    0    0  501 -0.00000000000E+00  0.00000000000E+00  0.15709017518E+04  0.15709017518E+04  0.00000000000E+00 0.  1.
          3   -1    0    0  501    0  0.00000000000E+00 -0.00000000000E+00 -0.11117937812E+04  0.11117937812E+04  0.00000000000E+00 0. -1.
         23    2    1    2    0    0 -0.82303465797E+03 -0.15100652698E+03  0.98083759392E+03  0.12924845185E+04  0.91021016624E+02 0.  0.
        254    2    1    2    0    0  0.82303465797E+03  0.15100652698E+03 -0.52172962334E+03  0.13902110146E+04  0.97994685861E+03 0.  0.
        -24    2    4    4    0    0  0.15677633584E+03  0.47464805094E+03 -0.37659506646E+03  0.63119134283E+03  0.81908946031E+02 0.  0.
         24    2    4    4    0    0  0.66625832213E+03 -0.32364152396E+03 -0.14513455688E+03  0.75901967172E+03  0.80017714428E+02 0.  0.
         13    1    3    3    0    0 -0.17129767639E+03 -0.30245742586E+02  0.26410057959E+03  0.31623854133E+03  0.00000000000E+00 0. -1.
        -13    1    3    3    0    0 -0.65173698158E+03 -0.12076078439E+03  0.71673701433E+03  0.97624597715E+03  0.00000000000E+00 0.  1.
          4    1    6    6  502    0  0.10496408165E+02 -0.10988917096E+02 -0.14268946837E+02  0.20845472581E+02  0.00000000000E+00 0. -1.
          3    1    5    5  503    0  0.28025544558E+02  0.11964993018E+03 -0.13666964306E+03  0.18379371120E+03  0.00000000000E+00 0. -1.
         -4    1    5    5    0  503  0.12875079128E+03  0.35499812076E+03 -0.23992542339E+03  0.44739763163E+03  0.00000000000E+00 0.  1.
         -3    1    6    6    0  502  0.65576191396E+03 -0.31265260687E+03 -0.13086561005E+03  0.73817419914E+03  0.00000000000E+00 0.  1.
<mgrwt>
<rscale>  0 0.26431185E+04</rscale>
<asrwt>0</asrwt>
<pdfrwt beam="1">  1        3 0.17104520E+00 0.26431185E+04</pdfrwt>
<pdfrwt beam="2">  1       -3 0.24167719E+00 0.26431185E+04</pdfrwt>
<totfact> 0.42824103E-02</totfact>
</mgrwt>
</event>
<event>
12    1  0.1504874E-007  0.1306211E+04  0.7818608E-02  0.9024654E-01
         -2   -1    0    0    0  501 -0.00000000000E+00  0.00000000000E+00  0.53593438473E+03  0.53593438473E+03  0.00000000000E+00 0.  1.
          2   -1    0    0  501    0  0.00000000000E+00 -0.00000000000E+00 -0.79589339921E+03  0.79589339921E+03  0.00000000000E+00 0. -1.
         23    2    1    2    0    0 -0.68816568832E+02  0.75020896517E+02 -0.37982803737E+03  0.40619714730E+03  0.10179847467E+03 0.  0.
        254    2    1    2    0    0  0.68816568832E+02 -0.75020896517E+02  0.11986902289E+03  0.92563063663E+03  0.91217303060E+03 0.  0.
        -24    2    4    4    0    0  0.21755912570E+03 -0.45019029587E+03  0.79546178468E+02  0.51247061866E+03  0.79342704828E+02 0.  0.
         24    2    4    4    0    0 -0.14874255687E+03  0.37516939936E+03  0.40322844422E+02  0.41316001797E+03  0.78732726531E+02 0.  0.
         13    1    3    3    0    0 -0.13549408324E+02  0.21210820463E+02 -0.27446339845E+03  0.27561502582E+03  0.00000000000E+00 0.  1.
        -13    1    3    3    0    0 -0.55267160507E+02  0.53810076054E+02 -0.10536463892E+03  0.13058212148E+03  0.00000000000E+00 0. -1.
          2    1    6    6  502    0 -0.25826669392E+01  0.57497957300E+01  0.13587975676E+02  0.14978765050E+02  0.00000000000E+00 0. -1.
          3    1    5    5  503    0  0.35482831920E+02 -0.14019944609E+03  0.44228477124E+02  0.15123185589E+03  0.00000000000E+00 0. -1.
         -4    1    5    5    0  503  0.18207629378E+03 -0.30999084978E+03  0.35317701344E+02  0.36123876278E+03  0.00000000000E+00 0.  1.
         -1    1    6    6    0  502 -0.14615988993E+03  0.36941960363E+03  0.26734868746E+02  0.39818125292E+03  0.00000000000E+00 0.  1.
<mgrwt>
<rscale>  0 0.13062108E+04</rscale>
<asrwt>0</asrwt>
<pdfrwt beam="1">  1        2 0.12244514E+00 0.13062108E+04</pdfrwt>
<pdfrwt beam="2">  1       -2 0.82451443E-01 0.13062108E+04</pdfrwt>
<totfact> 0.43894227E+01</totfact>
</mgrwt>
</event>
<event>
12    1  0.1504874E-007  0.1165801E+04  0.7818608E-02  0.9143329E-01
         -2   -1    0    0    0  501 -0.00000000000E+00  0.00000000000E+00  0.34745805586E+03  0.34745805586E+03  0.00000000000E+00 0.  1.
          2   -1    0    0  501    0  0.00000000000E+00 -0.00000000000E+00 -0.97788273934E+03  0.97788273934E+03  0.00000000000E+00 0. -1.
         23    2    1    2    0    0 -0.16471578301E+03 -0.25044856951E+02  0.30693382749E+02  0.19714068887E+03  0.10081583920E+03 0.  0.
        254    2    1    2    0    0  0.16471578301E+03  0.25044856951E+02 -0.66111806622E+03  0.11282001063E+04  0.89888811784E+03 0.  0.
        -24    2    4    4    0    0  0.41812464479E+03  0.21509962770E+01 -0.11352584830E+02  0.42619013844E+03  0.81708674884E+02 0.  0.
         24    2    4    4    0    0 -0.25340886178E+03  0.22893860674E+02 -0.64976548139E+03  0.70200996789E+03  0.76698331932E+02 0.  0.
         11    1    3    3    0    0 -0.28623794457E+02  0.22285703525E+02  0.38427825976E+02  0.52845737765E+02  0.00000000000E+00 0.  1.
        -11    1    3    3    0    0 -0.13609198855E+03 -0.47330560476E+02 -0.77344432269E+01  0.14429495111E+03  0.00000000000E+00 0. -1.
          2    1    6    6  502    0 -0.10845236304E+03 -0.17089302253E+02 -0.34708816984E+03  0.36403867507E+03  0.00000000000E+00 0. -1.
          1    1    5    5  503    0  0.93142925282E+02  0.30438022598E+02  0.14048917408E+02  0.98992170550E+02  0.00000000000E+00 0. -1.
         -2    1    5    5    0  503  0.32498171951E+03 -0.28287026321E+02 -0.25401502238E+02  0.32719796789E+03  0.00000000000E+00 0.  1.
         -1    1    6    6    0  502 -0.14495649874E+03  0.39983162927E+02 -0.30267731155E+03  0.33797129282E+03  0.00000000000E+00 0.  1.
<mgrwt>
<rscale>  0 0.11658014E+04</rscale>
<asrwt>0</asrwt>
<pdfrwt beam="1">  1        2 0.15044350E+00 0.11658014E+04</pdfrwt>
<pdfrwt beam="2">  1       -2 0.53455086E-01 0.11658014E+04</pdfrwt>
<totfact> 0.84907523E+01</totfact>
</mgrwt>
</event>
<event>
12    1  0.1504874E-007  0.1819125E+04  0.7818608E-02  0.8696195E-01
         -1   -1    0    0    0  501 -0.00000000000E+00  0.00000000000E+00  0.43898333259E+03  0.43898333259E+03  0.00000000000E+00 0.  1.
          1   -1    0    0  501    0  0.00000000000E+00 -0.00000000000E+00 -0.18845902133E+04  0.18845902133E+04  0.00000000000E+00 0. -1.
         23    2    1    2    0    0  0.15652651129E+02  0.10338016411E+03 -0.13857810620E+04  0.13927075337E+04  0.91173784188E+02 0.  0.
        254    2    1    2    0    0 -0.15652651129E+02 -0.10338016411E+03 -0.59825818773E+02  0.93086601221E+03  0.92303842838E+03 0.  0.
        -24    2    4    4    0    0 -0.45322880612E+03 -0.67106911468E+02  0.60670263249E+02  0.46823537916E+03  0.75125236690E+02 0.  0.
         24    2    4    4    0    0  0.43757615499E+03 -0.36273252646E+02 -0.12049608202E+03  0.46263063305E+03  0.81970461648E+02 0.  0.
         11    1    3    3    0    0 -0.10356380817E+02  0.81386347903E+02 -0.12510604913E+04  0.12537477199E+04  0.00000000000E+00 0. -1.
        -11    1    3    3    0    0  0.26009031946E+02  0.21993816211E+02 -0.13472057064E+03  0.13895981379E+03  0.00000000000E+00 0.  1.
          2    1    6    6  502    0  0.32429969391E+03 -0.40505760556E+01 -0.58568320001E+02  0.32957085239E+03  0.00000000000E+00 0. -1.
          3    1    5    5  503    0 -0.11776698961E+01  0.55669855828E+01  0.38437695073E+01  0.68667895620E+01  0.00000000000E+00 0. -1.
         -4    1    5    5    0  503 -0.45205113622E+03 -0.72673897050E+02  0.56826493742E+02  0.46136858959E+03  0.00000000000E+00 0.  1.
         -1    1    6    6    0  502  0.11327646108E+03 -0.32222676590E+02 -0.61927762021E+02  0.13305978066E+03  0.00000000000E+00 0.  1.
<mgrwt>
<rscale>  0 0.18191247E+04</rscale>
<asrwt>0</asrwt>
<pdfrwt beam="1">  1        1 0.28993696E+00 0.18191247E+04</pdfrwt>
<pdfrwt beam="2">  1       -1 0.67535896E-01 0.18191247E+04</pdfrwt>
<totfact> 0.74654491E+00</totfact>
</mgrwt>
</event>
<event>
12    1  0.1504874E-007  0.1784445E+04  0.7818608E-02  0.8714615E-01
         -2   -1    0    0    0  501 -0.00000000000E+00  0.00000000000E+00  0.10913054797E+04  0.10913054797E+04  0.00000000000E+00 0.  1.
          2   -1    0    0  501    0  0.00000000000E+00 -0.00000000000E+00 -0.72945760015E+03  0.72945760015E+03  0.00000000000E+00 0. -1.
         23    2    1    2    0    0  0.24000768150E+03  0.33415195159E+00  0.76371312522E+03  0.80625895730E+03  0.95874760786E+02 0.  0.
        254    2    1    2    0    0 -0.24000768150E+03 -0.33415195159E+00 -0.40186524565E+03  0.10145041226E+04  0.90006618656E+03 0.  0.
        -24    2    4    4    0    0 -0.23316337595E+03 -0.41000070334E+03 -0.75857245996E+02  0.48438417831E+03  0.80049820783E+02 0.  0.
         24    2    4    4    0    0 -0.68443055538E+01  0.40966655139E+03 -0.32600799966E+03  0.53011994425E+03  0.82900009675E+02 0.  0.
         11    1    3    3    0    0  0.11549877261E+03 -0.29215506356E+02  0.48744081033E+03  0.50178885585E+03  0.00000000000E+00 0. -1.
        -11    1    3    3    0    0  0.12450890889E+03  0.29549658308E+02  0.27627231490E+03  0.30447010145E+03  0.00000000000E+00 0.  1.
          4    1    6    6  502    0 -0.92545300553E+01  0.19331519334E+02  0.17431591240E+00  0.21433253424E+02  0.00000000000E+00 0. -1.
          3    1    5    5  503    0 -0.79208163783E+02 -0.78306661411E+02 -0.24573813769E+01  0.11140873015E+03  0.00000000000E+00 0. -1.
         -2    1    5    5    0  503 -0.15395521216E+03 -0.33169404193E+03 -0.73399864619E+02  0.37297544816E+03  0.00000000000E+00 0.  1.
         -3    1    6    6    0  502  0.24102245015E+01  0.39033503205E+03 -0.32618231557E+03  0.50868669082E+03  0.00000000000E+00 0.  1.
<mgrwt>
<rscale>  0 0.17844451E+04</rscale>
<asrwt>0</asrwt>
<pdfrwt beam="1">  1        2 0.11222425E+00 0.17844451E+04</pdfrwt>
<pdfrwt beam="2">  1       -2 0.16789315E+00 0.17844451E+04</pdfrwt>
<totfact> 0.81022732E+00</totfact>
</mgrwt>
</event>
<event>
12    1  0.1504874E-007  0.1747169E+04  0.7818608E-02  0.8734910E-01
          2   -1    0    0  501    0  0.00000000000E+00  0.00000000000E+00  0.64879424021E+03  0.64879424021E+03  0.00000000000E+00 0. -1.
         -2   -1    0    0    0  501 -0.00000000000E+00 -0.00000000000E+00 -0.11762585230E+04  0.11762585230E+04  0.00000000000E+00 0.  1.
         23    2    1    2    0    0  0.19664828079E+03  0.51472439504E+03  0.15420848989E+03  0.57920172156E+03  0.89903429922E+02 0.  0.
        254    2    1    2    0    0 -0.19664828079E+03 -0.51472439504E+03 -0.68167277265E+03  0.12458510416E+04  0.88535602992E+03 0.  0.
        -24    2    4    4    0    0 -0.22396101622E+03 -0.31666516816E+03  0.12208265417E+03  0.41403383629E+03  0.78003061730E+02 0.  0.
         24    2    4    4    0    0  0.27312735421E+02 -0.19805922688E+03 -0.80375542682E+03  0.83181720532E+03  0.76965148285E+02 0.  0.
         13    1    3    3    0    0  0.52514762318E+02  0.25036667028E+03  0.50554780696E+02  0.26076245071E+03  0.00000000000E+00 0. -1.
        -13    1    3    3    0    0  0.14413351848E+03  0.26435772476E+03  0.10365370920E+03  0.31843927085E+03  0.00000000000E+00 0.  1.
          4    1    6    6  502    0  0.38319598346E+02 -0.19923289384E+03 -0.77072800895E+03  0.79698419143E+03  0.00000000000E+00 0. -1.
          3    1    5    5  503    0 -0.20786680607E+03 -0.30005699946E+03  0.13294810847E+03  0.38848167465E+03  0.00000000000E+00 0. -1.
         -4    1    5    5    0  503 -0.16094210148E+02 -0.16608168692E+02 -0.10865454300E+02  0.25552161645E+02  0.00000000000E+00 0.  1.
         -3    1    6    6    0  502 -0.11006862925E+02  0.11736669544E+01 -0.33027417869E+02  0.34833013890E+02  0.00000000000E+00 0.  1.
<mgrwt>
<rscale>  0 0.17471689E+04</rscale>
<asrwt>0</asrwt>
<pdfrwt beam="1">  1        2 0.99814499E-01 0.17471689E+04</pdfrwt>
<pdfrwt beam="2">  1       -2 0.18096285E+00 0.17471689E+04</pdfrwt>
<totfact> 0.76230834E+00</totfact>
</mgrwt>
</event>
<event>
12    1  0.1504874E-007  0.1952407E+04  0.7818608E-02  0.8629201E-01
         -2   -1    0    0    0  501 -0.00000000000E+00  0.00000000000E+00  0.35351024767E+03  0.35351024767E+03  0.00000000000E+00 0. -1.
          2   -1    0    0  501    0  0.00000000000E+00 -0.00000000000E+00 -0.26957433863E+04  0.26957433863E+04  0.00000000000E+00 0.  1.
         23    2    1    2    0    0 -0.23660760455E+02  0.86461041349E+02  0.26191258244E+03  0.29251877947E+03  0.94518211193E+02 0.  0.
        254    2    1    2    0    0  0.23660760455E+02 -0.86461041349E+02 -0.26041457210E+04  0.27567348545E+04  0.89998709890E+03 0.  0.
        -24    2    4    4    0    0 -0.22611491832E+03 -0.40679022434E+03 -0.11074867977E+04  0.12039501038E+04  0.79765922844E+02 0.  0.
         24    2    4    4    0    0  0.24977567877E+03  0.32032918299E+03 -0.14966589233E+04  0.15527847506E+04  0.78446631135E+02 0.  0.
         13    1    3    3    0    0  0.16838290195E+02  0.87581895461E+02  0.19229379871E+03  0.21196938801E+03  0.00000000000E+00 0. -1.
        -13    1    3    3    0    0 -0.40499050650E+02 -0.11208541123E+01  0.69618783724E+02  0.80549391461E+02  0.00000000000E+00 0.  1.
          2    1    6    6  502    0  0.20281643226E+03  0.29806098043E+03 -0.12652146738E+04  0.13155770688E+04  0.00000000000E+00 0. -1.
          1    1    5    5  503    0 -0.22372320394E+03 -0.40308570719E+03 -0.10556139120E+04  0.11518901382E+04  0.00000000000E+00 0. -1.
         -2    1    5    5    0  503 -0.23917143814E+01 -0.37045171542E+01 -0.51872885714E+02  0.52059965591E+02  0.00000000000E+00 0.  1.
         -1    1    6    6    0  502  0.46959246511E+02  0.22268202558E+02 -0.23144424954E+03  0.23720768184E+03  0.00000000000E+00 0.  1.
<mgrwt>
<rscale>  0 0.19524066E+04</rscale>
<asrwt>0</asrwt>
<pdfrwt beam="1">  1        2 0.41472976E+00 0.19524066E+04</pdfrwt>
<pdfrwt beam="2">  1       -2 0.54386191E-01 0.19524066E+04</pdfrwt>
<totfact> 0.79381565E+00</totfact>
</mgrwt>
</event>
<event>
12    1  0.1504874E-007  0.1110891E+04  0.7818608E-02  0.9194641E-01
         -1   -1    0    0    0  501 -0.00000000000E+00  0.00000000000E+00  0.16008921036E+04  0.16008921036E+04  0.00000000000E+00 0.  1.
          1   -1    0    0  501    0  0.00000000000E+00 -0.00000000000E+00 -0.19271746341E+03  0.19271746341E+03  0.00000000000E+00 0. -1.
         23    2    1    2    0    0  0.93462367579E+02  0.15700573627E+03  0.14737270592E+03  0.25115858524E+03  0.89307923026E+02 0.  0.
        254    2    1    2    0    0 -0.93462367579E+02 -0.15700573627E+03  0.12608019343E+04  0.15424509818E+04  0.86956742022E+03 0.  0.
        -24    2    4    4    0    0 -0.22111525574E+03  0.26887547949E+03  0.88756810147E+03  0.95675647897E+03  0.80123938358E+02 0.  0.
         24    2    4    4    0    0  0.12765288816E+03 -0.42588121576E+03  0.37323383280E+03  0.58569450280E+03  0.77874815388E+02 0.  0.
         13    1    3    3    0    0  0.11733896768E+02 -0.51694230289E+01  0.35779281947E+02  0.38007424071E+02  0.00000000000E+00 0.  1.
        -13    1    3    3    0    0  0.81728470811E+02  0.16217515930E+03  0.11159342397E+03  0.21315116117E+03  0.00000000000E+00 0. -1.
          4    1    6    6  502    0  0.12635485123E+03 -0.36806828901E+03  0.29460216296E+03  0.48808836108E+03  0.00000000000E+00 0. -1.
          3    1    5    5  503    0 -0.15204897114E+03  0.15600277687E+03  0.63974413118E+03  0.67581677206E+03  0.00000000000E+00 0. -1.
         -4    1    5    5    0  503 -0.69066284597E+02  0.11287270262E+03  0.24782397029E+03  0.28093970690E+03  0.00000000000E+00 0.  1.
         -3    1    6    6    0  502  0.12980369360E+01 -0.57812926748E+02  0.78631669844E+02  0.97606141720E+02  0.00000000000E+00 0.  1.
<mgrwt>
<rscale>  0 0.11108913E+04</rscale>
<asrwt>0</asrwt>
<pdfrwt beam="1">  1        1 0.29648842E-01 0.11108913E+04</pdfrwt>
<pdfrwt beam="2">  1       -1 0.24629108E+00 0.11108913E+04</pdfrwt>
<totfact> 0.11504668E+01</totfact>
</mgrwt>
</event>
<event>
12    1  0.1561930E-007  0.2139794E+04  0.7818608E-02  0.8543914E-01
          1   -1    0    0  501    0  0.00000000000E+00  0.00000000000E+00  0.81582522080E+03  0.81582522080E+03  0.00000000000E+00 0. -1.
         -1   -1    0    0    0  501 -0.00000000000E+00 -0.00000000000E+00 -0.14030936355E+04  0.14030936355E+04  0.00000000000E+00 0.  1.
         23    2    1    2    0    0 -0.19148023759E+03  0.35473091514E+02  0.65652495376E+03  0.69081672616E+03  0.90992926240E+02 0.  0.
        254    2    1    2    0    0  0.19148023759E+03 -0.35473091514E+02 -0.12437933684E+04  0.15281021301E+04  0.86611266882E+03 0.  0.
        -24    2    4    4    0    0 -0.23024008301E+03  0.15218129776E+03 -0.90585190826E+03  0.95039880587E+03  0.80750029713E+02 0.  0.
         24    2    4    4    0    0  0.42172032059E+03 -0.18765438928E+03 -0.33794146019E+03  0.57770332425E+03  0.80464288487E+02 0.  0.
         13    1    3    3    0    0 -0.14070579187E+03  0.41731974476E+02  0.58337018318E+03  0.60154837560E+03  0.00000000000E+00 0. -1.
        -13    1    3    3    0    0 -0.50774445717E+02 -0.62588829616E+01  0.73154770580E+02  0.89268350564E+02  0.00000000000E+00 0.  1.
          4    1    6    6  502    0  0.40830985834E+03 -0.19450632769E+03 -0.31875338070E+03  0.55331127735E+03  0.00000000000E+00 0. -1.
          3    1    5    5  503    0 -0.16415607103E+03  0.14806139527E+03 -0.67884410365E+03  0.71393186613E+03  0.00000000000E+00 0. -1.
         -4    1    5    5    0  503 -0.66084011975E+02  0.41199024953E+01 -0.22700780461E+03  0.23646693974E+03  0.00000000000E+00 0.  1.
         -1    1    6    6    0  502  0.13410462248E+02  0.68519384113E+01 -0.19188079492E+02  0.24392046907E+02  0.00000000000E+00 0.  1.
<mgrwt>
<rscale>  0 0.21397936E+04</rscale>
<asrwt>0</asrwt>
<pdfrwt beam="1">  1        1 0.12551157E+00 0.21397936E+04</pdfrwt>
<pdfrwt beam="2">  1       -1 0.21586056E+00 0.21397936E+04</pdfrwt>
<totfact> 0.23032919E+00</totfact>
</mgrwt>
</event>
<event>
12    1  0.1504874E-007  0.2045667E+04  0.7818608E-02  0.8585563E-01
          1   -1    0    0  501    0  0.00000000000E+00  0.00000000000E+00  0.21203443705E+04  0.21203443705E+04  0.00000000000E+00 0. -1.
         -1   -1    0    0    0  501 -0.00000000000E+00 -0.00000000000E+00 -0.49340487682E+03  0.49340487682E+03  0.00000000000E+00 0.  1.
         23    2    1    2    0    0  0.42247710621E+03  0.72574371740E+03  0.54005734864E+03  0.10024138026E+04  0.89334445629E+02 0.  0.
        254    2    1    2    0    0 -0.42247710621E+03 -0.72574371740E+03  0.10868821451E+04  0.16113354448E+04  0.84255460930E+03 0.  0.
        -24    2    4    4    0    0 -0.52958574428E+03 -0.96848416628E+02  0.44839293047E+03  0.70525606979E+03  0.80555741856E+02 0.  0.
         24    2    4    4    0    0  0.10710863806E+03 -0.62889530077E+03  0.63848921462E+03  0.90607937498E+03  0.79560020710E+02 0.  0.
         13    1    3    3    0    0  0.32533164137E+03  0.58646676661E+03  0.39005606063E+03  0.77583998070E+03  0.00000000000E+00 0.  1.
        -13    1    3    3    0    0  0.97145464844E+02  0.13927695079E+03  0.15000128801E+03  0.22657382189E+03  0.00000000000E+00 0. -1.
          4    1    6    6  502    0 -0.21264767363E+01 -0.19552118630E+02  0.49071976698E+01  0.20270368403E+02  0.00000000000E+00 0. -1.
          3    1    5    5  503    0 -0.17738275781E+03 -0.32509426035E+02  0.20114262200E+03  0.27014784829E+03  0.00000000000E+00 0. -1.
         -4    1    5    5    0  503 -0.35220298647E+03 -0.64338990593E+02  0.24725030847E+03  0.43510822151E+03  0.00000000000E+00 0.  1.
         -3    1    6    6    0  502  0.10923511480E+03 -0.60934318214E+03  0.63358201695E+03  0.88580900658E+03  0.00000000000E+00 0.  1.
<mgrwt>
<rscale>  0 0.20456669E+04</rscale>
<asrwt>0</asrwt>
<pdfrwt beam="1">  1        1 0.32620682E+00 0.20456669E+04</pdfrwt>
<pdfrwt beam="2">  1       -1 0.75908444E-01 0.20456669E+04</pdfrwt>
<totfact> 0.39761675E+00</totfact>
</mgrwt>
</event>
<event>
12    1  0.1504874E-007  0.1745346E+04  0.7818608E-02  0.8735916E-01
         -1   -1    0    0    0  501 -0.00000000000E+00  0.00000000000E+00  0.34517453266E+03  0.34517453266E+03  0.00000000000E+00 0.  1.
          1   -1    0    0  501    0  0.00000000000E+00 -0.00000000000E+00 -0.22062988549E+04  0.22062988549E+04  0.00000000000E+00 0. -1.
         23    2    1    2    0    0 -0.48072911339E+02  0.53048848378E+02 -0.16079615522E+04  0.16121242884E+04  0.90990014275E+02 0.  0.
        254    2    1    2    0    0  0.48072911339E+02 -0.53048848378E+02 -0.25316277000E+03  0.93934909914E+03  0.90175393364E+03 0.  0.
        -24    2    4    4    0    0  0.74916807634E+02  0.11073006716E+03  0.30995610451E+03  0.34697418979E+03  0.80278426841E+02 0.  0.
         24    2    4    4    0    0 -0.26843896296E+02 -0.16377891554E+03 -0.56311887451E+03  0.59237490935E+03  0.79126724019E+02 0.  0.
         11    1    3    3    0    0 -0.74065214050E+02  0.32832915135E+02 -0.12625654943E+04  0.12651621571E+04  0.00000000000E+00 0. -1.
        -11    1    3    3    0    0  0.25992302711E+02  0.20215933243E+02 -0.34539605789E+03  0.34696213131E+03  0.00000000000E+00 0.  1.
          2    1    6    6  502    0 -0.22683351814E+02 -0.37187697805E+01 -0.54498125286E+02  0.59147352924E+02  0.00000000000E+00 0. -1.
          1    1    5    5  503    0 -0.17122369764E+02  0.19195358298E+02  0.61221147766E+02  0.66405318013E+02  0.00000000000E+00 0. -1.
         -2    1    5    5    0  503  0.92039177398E+02  0.91534708862E+02  0.24873495675E+03  0.28056887178E+03  0.00000000000E+00 0.  1.
         -1    1    6    6    0  502 -0.41605444814E+01 -0.16006014576E+03 -0.50862074923E+03  0.53322755643E+03  0.00000000000E+00 0.  1.
<mgrwt>
<rscale>  0 0.17453460E+04</rscale>
<asrwt>0</asrwt>
<pdfrwt beam="1">  1        1 0.33943059E+00 0.17453460E+04</pdfrwt>
<pdfrwt beam="2">  1       -1 0.53103775E-01 0.17453460E+04</pdfrwt>
<totfact> 0.73164775E+00</totfact>
</mgrwt>
</event>
<event>
12    1  0.1504874E-007  0.1294853E+04  0.7818608E-02  0.9033657E-01
         -2   -1    0    0    0  501 -0.00000000000E+00  0.00000000000E+00  0.20379692232E+03  0.20379692232E+03  0.00000000000E+00 0.  1.
          2   -1    0    0  501    0  0.00000000000E+00 -0.00000000000E+00 -0.20567585086E+04  0.20567585086E+04  0.00000000000E+00 0. -1.
         23    2    1    2    0    0  0.25833823127E+03  0.11401903005E+01 -0.83432563341E+03  0.87805824220E+03  0.90261134282E+02 0.  0.
        254    2    1    2    0    0 -0.25833823127E+03 -0.11401903005E+01 -0.10186359529E+04  0.13824971887E+04  0.89829801879E+03 0.  0.
        -24    2    4    4    0    0 -0.35232329939E+03 -0.91209441963E+02 -0.11317926262E+04  0.11916140567E+04  0.80861869132E+02 0.  0.
         24    2    4    4    0    0  0.93985068124E+02  0.90069251662E+02  0.11315667331E+03  0.19088313201E+03  0.81769641336E+02 0.  0.
         13    1    3    3    0    0  0.23213766902E+03 -0.26884848351E+02 -0.74638485565E+03  0.78211319206E+03  0.00000000000E+00 0. -1.
        -13    1    3    3    0    0  0.26200562248E+02  0.28025038651E+02 -0.87940777755E+02  0.95945050136E+02  0.00000000000E+00 0.  1.
          4    1    6    6  502    0  0.55732413697E+02  0.82201437956E+02  0.38283353116E+02  0.10643680503E+03  0.00000000000E+00 0. -1.
          1    1    5    5  503    0 -0.27990687805E+03 -0.10474846628E+03 -0.88916156409E+03  0.93804498220E+03  0.00000000000E+00 0. -1.
         -2    1    5    5    0  503 -0.72416421339E+02  0.13539024322E+02 -0.24263106209E+03  0.25356907452E+03  0.00000000000E+00 0.  1.
         -3    1    6    6    0  502  0.38252654427E+02  0.78678137060E+01  0.74873320194E+02  0.84446326978E+02  0.00000000000E+00 0.  1.
<mgrwt>
<rscale>  0 0.12948530E+04</rscale>
<asrwt>0</asrwt>
<pdfrwt beam="1">  1        2 0.31642441E+00 0.12948530E+04</pdfrwt>
<pdfrwt beam="2">  1       -2 0.31353371E-01 0.12948530E+04</pdfrwt>
<totfact> 0.57570179E+01</totfact>
</mgrwt>
</event>
<event>
12    1  0.1504874E-007  0.2139838E+04  0.7818608E-02  0.8543895E-01
          2   -1    0    0  501    0  0.00000000000E+00  0.00000000000E+00  0.20596836564E+04  0.20596836564E+04  0.00000000000E+00 0. -1.
         -2   -1    0    0    0  501 -0.00000000000E+00 -0.00000000000E+00 -0.55577805905E+03  0.55577805905E+03  0.00000000000E+00 0.  1.
         23    2    1    2    0    0  0.84296567241E+03  0.17566479385E+03  0.40492513715E+03  0.95580911244E+03  0.90318592047E+02 0.  0.
        254    2    1    2    0    0 -0.84296567241E+03 -0.17566479385E+03  0.10989804602E+04  0.16596526030E+04  0.89735136157E+03 0.  0.
        -24    2    4    4    0    0 -0.88559215886E+03 -0.21921514324E+03  0.12065348569E+04  0.15149078369E+04  0.83009893938E+02 0.  0.
         24    2    4    4    0    0  0.42626486450E+02  0.43550349394E+02 -0.10755439671E+03  0.14474476611E+03  0.75295742147E+02 0.  0.
         11    1    3    3    0    0  0.12713821706E+03  0.60283474487E+02  0.68517159974E+02  0.15650183623E+03  0.00000000000E+00 0. -1.
        -11    1    3    3    0    0  0.71582745535E+03  0.11538131936E+03  0.33640797717E+03  0.79930727621E+03  0.00000000000E+00 0.  1.
          4    1    6    6  502    0 -0.21173082545E+02  0.19145936526E+02 -0.32774076325E+02  0.43462701123E+02  0.00000000000E+00 0. -1.
          3    1    5    5  503    0 -0.46584945108E+03 -0.14142561779E+03  0.69681090384E+03  0.85003667694E+03  0.00000000000E+00 0. -1.
         -4    1    5    5    0  503 -0.41974270778E+03 -0.77789525456E+02  0.50972395308E+03  0.66487115996E+03  0.00000000000E+00 0.  1.
         -3    1    6    6    0  502  0.63799568995E+02  0.24404412868E+02 -0.74780320385E+02  0.10128206499E+03  0.00000000000E+00 0.  1.
<mgrwt>
<rscale>  0 0.21398383E+04</rscale>
<asrwt>0</asrwt>
<pdfrwt beam="1">  1        2 0.31687441E+00 0.21398383E+04</pdfrwt>
<pdfrwt beam="2">  1       -2 0.85504317E-01 0.21398383E+04</pdfrwt>
<totfact> 0.67569381E+00</totfact>
</mgrwt>
</event>
<event>
12    1  0.1504874E-007  0.1546646E+04  0.7818608E-02  0.8854013E-01
         -2   -1    0    0    0  501 -0.00000000000E+00  0.00000000000E+00  0.24296468100E+03  0.24296468100E+03  0.00000000000E+00 0.  1.
          2   -1    0    0  501    0  0.00000000000E+00 -0.00000000000E+00 -0.24613802604E+04  0.24613802604E+04  0.00000000000E+00 0. -1.
         23    2    1    2    0    0 -0.22465110830E+03 -0.42211396741E+03 -0.96536982002E+03  0.10812174936E+04  0.91891551168E+02 0.  0.
        254    2    1    2    0    0  0.22465110830E+03  0.42211396741E+03 -0.12530457594E+04  0.16231274478E+04  0.91420496319E+03 0.  0.
        -24    2    4    4    0    0 -0.71447201617E+01 -0.27145661935E+03 -0.23720257548E+03  0.36898167443E+03  0.78375194013E+02 0.  0.
         24    2    4    4    0    0  0.23179582846E+03  0.69357058675E+03 -0.10158431839E+04  0.12541457734E+04  0.78579778895E+02 0.  0.
         11    1    3    3    0    0 -0.54786630999E+02 -0.40301038381E+02 -0.11230917610E+03  0.13129775195E+03  0.00000000000E+00 0. -1.
        -11    1    3    3    0    0 -0.16986447730E+03 -0.38181292902E+03 -0.85306064392E+03  0.94991974168E+03  0.00000000000E+00 0.  1.
          4    1    6    6  502    0  0.38593983259E+02  0.60299800718E+02 -0.12734217280E+03  0.14608761235E+03  0.00000000000E+00 0. -1.
          3    1    5    5  503    0 -0.11804421113E+02 -0.23962799096E+02 -0.84676756860E+00  0.26725963288E+02  0.00000000000E+00 0. -1.
         -4    1    5    5    0  503  0.46597009516E+01 -0.24749382025E+03 -0.23635580791E+03  0.34225571114E+03  0.00000000000E+00 0.  1.
         -3    1    6    6    0  502  0.19320184520E+03  0.63327078604E+03 -0.88850101111E+03  0.11080581610E+04  0.00000000000E+00 0.  1.
<mgrwt>
<rscale>  0 0.15466460E+04</rscale>
<asrwt>0</asrwt>
<pdfrwt beam="1">  1        2 0.37867389E+00 0.15466460E+04</pdfrwt>
<pdfrwt beam="2">  1       -2 0.37379181E-01 0.15466460E+04</pdfrwt>
<totfact> 0.23868982E+01</totfact>
</mgrwt>
</event>
<event>
12    1  0.1504874E-007  0.1736678E+04  0.7818608E-02  0.8740717E-01
         -2   -1    0    0    0  501 -0.00000000000E+00  0.00000000000E+00  0.33041377655E+03  0.33041377655E+03  0.00000000000E+00 0.  1.
          2   -1    0    0  501    0  0.00000000000E+00 -0.00000000000E+00 -0.22820262366E+04  0.22820262366E+04  0.00000000000E+00 0. -1.
         23    2    1    2    0    0  0.51414113277E+03  0.85891644124E+01 -0.12647756732E+04  0.13686559983E+04  0.95639217631E+02 0.  0.
        254    2    1    2    0    0 -0.51414113277E+03 -0.85891644124E+01 -0.68683678682E+03  0.12437840148E+04  0.90046600475E+03 0.  0.
        -24    2    4    4    0    0 -0.14804489424E+03  0.69877211181E+02  0.20404852960E+03  0.27409743817E+03  0.81813738628E+02 0.  0.
         24    2    4    4    0    0 -0.36609623853E+03 -0.78466375593E+02 -0.89088531641E+03  0.96968657668E+03  0.80199638522E+02 0.  0.
         13    1    3    3    0    0  0.39133995329E+03 -0.27534011081E+02 -0.89014480990E+03  0.97276043474E+03  0.00000000000E+00 0. -1.
        -13    1    3    3    0    0  0.12280117948E+03  0.36123175494E+02 -0.37463086332E+03  0.39589556355E+03  0.00000000000E+00 0.  1.
          4    1    6    6  502    0 -0.27483833327E+03 -0.67712710265E+02 -0.74841247034E+03  0.80015145212E+03  0.00000000000E+00 0. -1.
          1    1    5    5  503    0 -0.13191153216E+03  0.29405012631E+02  0.17743219012E+03  0.22304145170E+03  0.00000000000E+00 0. -1.
         -2    1    5    5    0  503 -0.16133362079E+02  0.40472198550E+02  0.26616339474E+02  0.51055986470E+02  0.00000000000E+00 0.  1.
         -3    1    6    6    0  502 -0.91257905259E+02 -0.10753665328E+02 -0.14247284607E+03  0.16953512455E+03  0.00000000000E+00 0.  1.
<mgrwt>
<rscale>  0 0.17366783E+04</rscale>
<asrwt>0</asrwt>
<pdfrwt beam="1">  1        2 0.35108096E+00 0.17366783E+04</pdfrwt>
<pdfrwt beam="2">  1       -2 0.50832889E-01 0.17366783E+04</pdfrwt>
<totfact> 0.16121431E+01</totfact>
</mgrwt>
</event>
<event>
12    1  0.1504874E-007  0.1289374E+04  0.7818608E-02  0.9038034E-01
          1   -1    0    0  501    0  0.00000000000E+00  0.00000000000E+00  0.15541714825E+04  0.15541714825E+04  0.00000000000E+00 0. -1.
         -1   -1    0    0    0  501 -0.00000000000E+00 -0.00000000000E+00 -0.26742309219E+03  0.26742309219E+03  0.00000000000E+00 0.  1.
         23    2    1    2    0    0  0.10103216795E+03 -0.13791600657E+03 -0.52330050115E+02  0.20028806278E+03  0.90269319933E+02 0.  0.
        254    2    1    2    0    0 -0.10103216795E+03  0.13791600657E+03  0.13390784404E+04  0.16213065119E+04  0.89792840033E+03 0.  0.
        -24    2    4    4    0    0  0.12033194120E+03  0.21027494327E+03  0.13509820186E+04  0.13748917764E+04  0.80496301051E+02 0.  0.
         24    2    4    4    0    0 -0.22136410915E+03 -0.72358936704E+02 -0.11903578134E+02  0.24641473551E+03  0.79628149329E+02 0.  0.
         11    1    3    3    0    0  0.97989830411E+02 -0.91896886523E+02 -0.69281139775E+02  0.15115197963E+03  0.00000000000E+00 0.  1.
        -11    1    3    3    0    0  0.30423375353E+01 -0.46019120044E+02  0.16951089660E+02  0.49136083157E+02  0.00000000000E+00 0. -1.
          4    1    6    6  502    0 -0.21068188941E+03 -0.56542819252E+02 -0.29906550598E+02  0.22017799777E+03  0.00000000000E+00 0. -1.
          3    1    5    5  503    0  0.12778488361E+03  0.21208845560E+03  0.13078645366E+04  0.13310973426E+04  0.00000000000E+00 0. -1.
         -4    1    5    5    0  503 -0.74529424108E+01 -0.18135123301E+01  0.43117481964E+02  0.43794433761E+02  0.00000000000E+00 0.  1.
         -3    1    6    6    0  502 -0.10682219740E+02 -0.15816117452E+02  0.18002972464E+02  0.26236737743E+02  0.00000000000E+00 0.  1.
<mgrwt>
<rscale>  0 0.12893740E+04</rscale>
<asrwt>0</asrwt>
<pdfrwt beam="1">  1        1 0.23910330E+00 0.12893740E+04</pdfrwt>
<pdfrwt beam="2">  1       -1 0.41142015E-01 0.12893740E+04</pdfrwt>
<totfact> 0.34124601E+01</totfact>
</mgrwt>
</event>
<event>
12    1  0.1504874E-007  0.1589604E+04  0.7818608E-02  0.8826960E-01
         -2   -1    0    0    0  501 -0.00000000000E+00  0.00000000000E+00  0.92611530681E+03  0.92611530681E+03  0.00000000000E+00 0.  1.
          2   -1    0    0  501    0  0.00000000000E+00 -0.00000000000E+00 -0.68210735276E+03  0.68210735276E+03  0.00000000000E+00 0. -1.
         23    2    1    2    0    0 -0.44910810017E+03 -0.21961850480E+03 -0.12930654904E+03  0.52426646417E+03  0.90580177413E+02 0.  0.
        254    2    1    2    0    0  0.44910810017E+03  0.21961850480E+03  0.37331450310E+03  0.10839561954E+04  0.88637855460E+03 0.  0.
        -24    2    4    4    0    0  0.70971478541E+03  0.14582511178E+03  0.32244251016E+03  0.79714647943E+03  0.80705002688E+02 0.  0.
         24    2    4    4    0    0 -0.26060668525E+03  0.73793393014E+02  0.50871992938E+02  0.28680971597E+03  0.79438934169E+02 0.  0.
         13    1    3    3    0    0 -0.18095738546E+03 -0.43738807914E+02 -0.30089262780E+02  0.18858425811E+03  0.00000000000E+00 0.  1.
        -13    1    3    3    0    0 -0.26815071470E+03 -0.17587969688E+03 -0.99217286260E+02  0.33568220606E+03  0.00000000000E+00 0. -1.
          2    1    6    6  502    0 -0.11789126606E+03  0.69247287792E+02  0.49307357125E+01  0.13681319248E+03  0.00000000000E+00 0. -1.
          3    1    5    5  503    0  0.29334547085E+02  0.12845913786E+02  0.32732967994E+02  0.45792797986E+02  0.00000000000E+00 0. -1.
         -4    1    5    5    0  503  0.68038023833E+03  0.13297919800E+03  0.28970954217E+03  0.75135368145E+03  0.00000000000E+00 0.  1.
         -1    1    6    6    0  502 -0.14271541918E+03  0.45461052224E+01  0.45941257226E+02  0.14999652349E+03  0.00000000000E+00 0.  1.
<mgrwt>
<rscale>  0 0.15896038E+04</rscale>
<asrwt>0</asrwt>
<pdfrwt beam="1">  1        2 0.10493959E+00 0.15896038E+04</pdfrwt>
<pdfrwt beam="2">  1       -2 0.14247928E+00 0.15896038E+04</pdfrwt>
<totfact> 0.13932434E+01</totfact>
</mgrwt>
</event>
<event>
12    1  0.1504874E-007  0.1408351E+04  0.7818608E-02  0.8947796E-01
          1   -1    0    0  501    0  0.00000000000E+00  0.00000000000E+00  0.45367324300E+03  0.45367324300E+03  0.00000000000E+00 0. -1.
         -1   -1    0    0    0  501 -0.00000000000E+00 -0.00000000000E+00 -0.10929959225E+04  0.10929959225E+04  0.00000000000E+00 0.  1.
         23    2    1    2    0    0 -0.44911534402E+01  0.11356947073E+03 -0.60193334547E+03  0.61926352336E+03  0.90803985766E+02 0.  0.
        254    2    1    2    0    0  0.44911534402E+01 -0.11356947073E+03 -0.37389333995E+02  0.92740564212E+03  0.91965486330E+03 0.  0.
        -24    2    4    4    0    0  0.42757807410E+01 -0.53968929892E+02  0.43485340618E+03  0.44518754942E+03  0.78508226328E+02 0.  0.
         24    2    4    4    0    0  0.21537269922E+00 -0.59600540838E+02 -0.47224274018E+03  0.48221809269E+03  0.77258089662E+02 0.  0.
         11    1    3    3    0    0 -0.15991966450E+02  0.99247073180E+02 -0.29263773570E+03  0.30942296114E+03  0.00000000000E+00 0. -1.
        -11    1    3    3    0    0  0.11500813010E+02  0.14322397550E+02 -0.30929560977E+03  0.30984056222E+03  0.00000000000E+00 0.  1.
          2    1    6    6  502    0  0.31047338077E+02 -0.94150159611E+01 -0.94575636961E+02  0.99985653140E+02  0.00000000000E+00 0. -1.
          1    1    5    5  503    0 -0.32586726893E+02 -0.46097871197E+01  0.12432922841E+03  0.12861143784E+03  0.00000000000E+00 0. -1.
         -2    1    5    5    0  503  0.36862507634E+02 -0.49359142772E+02  0.31052417777E+03  0.31657611158E+03  0.00000000000E+00 0.  1.
         -1    1    6    6    0  502 -0.30831965378E+02 -0.50185524877E+02 -0.37766710321E+03  0.38223243955E+03  0.00000000000E+00 0.  1.
<mgrwt>
<rscale>  0 0.14083508E+04</rscale>
<asrwt>0</asrwt>
<pdfrwt beam="1">  1        1 0.69795885E-01 0.14083508E+04</pdfrwt>
<pdfrwt beam="2">  1       -1 0.16815322E+00 0.14083508E+04</pdfrwt>
<totfact> 0.12528502E+01</totfact>
</mgrwt>
</event>
<event>
12    1  0.1504874E-007  0.1515783E+04  0.7818608E-02  0.8874025E-01
          2   -1    0    0  501    0  0.00000000000E+00  0.00000000000E+00  0.15445712754E+04  0.15445712754E+04  0.00000000000E+00 0. -1.
         -2   -1    0    0    0  501 -0.00000000000E+00 -0.00000000000E+00 -0.37188286449E+03  0.37188286449E+03  0.00000000000E+00 0.  1.
         23    2    1    2    0    0 -0.15737130634E+03 -0.23283160305E+03 -0.11596032041E+03  0.31764178603E+03  0.92050121607E+02 0.  0.
        254    2    1    2    0    0  0.15737130634E+03  0.23283160305E+03  0.12886487313E+04  0.15988123538E+04  0.90366426656E+03 0.  0.
        -24    2    4    4    0    0 -0.86781331714E+02  0.46934662802E+03  0.34981281191E+03  0.59699952875E+03  0.78880778333E+02 0.  0.
         24    2    4    4    0    0  0.24415263805E+03 -0.23651502497E+03  0.93883591939E+03  0.10018128251E+04  0.81646709932E+02 0.  0.
         11    1    3    3    0    0 -0.34960232548E+01  0.78668320051E+01 -0.93694824159E+01  0.12723852606E+02  0.00000000000E+00 0. -1.
        -11    1    3    3    0    0 -0.15387528308E+03 -0.24069843505E+03 -0.10659083800E+03  0.30491793343E+03  0.00000000000E+00 0.  1.
          4    1    6    6  502    0  0.21538138977E+03 -0.18600657308E+03  0.84285455701E+03  0.88960181686E+03  0.00000000000E+00 0. -1.
          3    1    5    5  503    0 -0.85124917041E+02  0.36535677386E+03  0.23787399965E+03  0.44420250271E+03  0.00000000000E+00 0. -1.
         -4    1    5    5    0  503 -0.16564146731E+01  0.10398985416E+03  0.11193881226E+03  0.15279702604E+03  0.00000000000E+00 0.  1.
         -3    1    6    6    0  502  0.28771248279E+02 -0.50508451894E+02  0.95981362379E+02  0.11221100821E+03  0.00000000000E+00 0.  1.
<mgrwt>
<rscale>  0 0.15157831E+04</rscale>
<asrwt>0</asrwt>
<pdfrwt beam="1">  1        2 0.23762635E+00 0.15157831E+04</pdfrwt>
<pdfrwt beam="2">  1       -2 0.57212749E-01 0.15157831E+04</pdfrwt>
<totfact> 0.33094762E+01</totfact>
</mgrwt>
</event>
<event>
12    1  0.1504874E-007  0.2115658E+04  0.7818608E-02  0.8554377E-01
         -1   -1    0    0    0  501 -0.00000000000E+00  0.00000000000E+00  0.85718501621E+03  0.85718501621E+03  0.00000000000E+00 0.  1.
          1   -1    0    0  501    0  0.00000000000E+00 -0.00000000000E+00 -0.13054387124E+04  0.13054387124E+04  0.00000000000E+00 0. -1.
         23    2    1    2    0    0  0.28721763978E+03 -0.94297454785E+02 -0.10019045121E+04  0.10505894256E+04  0.92409454324E+02 0.  0.
        254    2    1    2    0    0 -0.28721763978E+03  0.94297454785E+02  0.55365081600E+03  0.11120343029E+04  0.91580843096E+03 0.  0.
        -24    2    4    4    0    0  0.11304430827E+03  0.39100502724E+03  0.83551126359E+02  0.42312454896E+03  0.79935262941E+02 0.  0.
         24    2    4    4    0    0 -0.40026194805E+03 -0.29670757245E+03  0.47009968964E+03  0.68890975395E+03  0.73197816073E+02 0.  0.
         13    1    3    3    0    0 -0.34503150389E+01  0.40474852356E+01 -0.53853446523E+02  0.54115436920E+02  0.00000000000E+00 0.  1.
        -13    1    3    3    0    0  0.29066795482E+03 -0.98344940021E+02 -0.94805106562E+03  0.99647398873E+03  0.00000000000E+00 0. -1.
          2    1    6    6  502    0 -0.27213121999E+03 -0.21574899940E+03  0.36900934692E+03  0.50672569479E+03  0.00000000000E+00 0. -1.
          3    1    5    5  503    0  0.33608657397E+02  0.12653738413E+03 -0.10655369721E+02  0.13135748299E+03  0.00000000000E+00 0. -1.
         -4    1    5    5    0  503  0.79435650875E+02  0.26446764311E+03  0.94206496079E+02  0.29176706597E+03  0.00000000000E+00 0.  1.
         -3    1    6    6    0  502 -0.12813072806E+03 -0.80958573051E+02  0.10109034272E+03  0.18218405916E+03  0.00000000000E+00 0.  1.
<mgrwt>
<rscale>  0 0.21156583E+04</rscale>
<asrwt>0</asrwt>
<pdfrwt beam="1">  1        1 0.20083673E+00 0.21156583E+04</pdfrwt>
<pdfrwt beam="2">  1       -1 0.13187462E+00 0.21156583E+04</pdfrwt>
<totfact> 0.40270142E+00</totfact>
</mgrwt>
</event>
<event>
12    1  0.1504874E-007  0.2218265E+04  0.7818608E-02  0.8510864E-01
         -2   -1    0    0    0  501 -0.00000000000E+00  0.00000000000E+00  0.84084359418E+03  0.84084359418E+03  0.00000000000E+00 0.  1.
          2   -1    0    0  501    0  0.00000000000E+00 -0.00000000000E+00 -0.14630251458E+04  0.14630251458E+04  0.00000000000E+00 0. -1.
         23    2    1    2    0    0  0.82951428974E+03 -0.11271093637E+03 -0.67018062913E+03  0.10762367120E+04  0.91354652507E+02 0.  0.
        254    2    1    2    0    0 -0.82951428974E+03  0.11271093637E+03  0.47999077524E+02  0.12276320280E+04  0.89664863385E+03 0.  0.
        -24    2    4    4    0    0 -0.22511491515E+01  0.27239138623E+03  0.22601807109E+03  0.36267756627E+03  0.79048805539E+02 0.  0.
         24    2    4    4    0    0 -0.82726314059E+03 -0.15968044985E+03 -0.17801899357E+03  0.86495446169E+03  0.81199192627E+02 0.  0.
         13    1    3    3    0    0  0.27676294266E+03 -0.22605960206E+02 -0.17170871133E+03  0.32648527901E+03  0.00000000000E+00 0. -1.
        -13    1    3    3    0    0  0.55275134708E+03 -0.90104976165E+02 -0.49847191780E+03  0.74975143299E+03  0.00000000000E+00 0.  1.
          2    1    6    6  502    0 -0.31732711867E+03 -0.93989065668E+02 -0.93463899750E+02  0.34389816118E+03  0.00000000000E+00 0. -1.
          1    1    5    5  503    0 -0.30977487943E+02  0.19868009993E+03  0.13556817157E+03  0.24251209457E+03  0.00000000000E+00 0. -1.
         -2    1    5    5    0  503  0.28726338792E+02  0.73711286292E+02  0.90449899520E+02  0.12016547171E+03  0.00000000000E+00 0.  1.
         -1    1    6    6    0  502 -0.50993602192E+03 -0.65691384187E+02 -0.84555093815E+02  0.52105630051E+03  0.00000000000E+00 0.  1.
<mgrwt>
<rscale>  0 0.22182654E+04</rscale>
<asrwt>0</asrwt>
<pdfrwt beam="1">  1        2 0.22508079E+00 0.22182654E+04</pdfrwt>
<pdfrwt beam="2">  1       -2 0.12936055E+00 0.22182654E+04</pdfrwt>
<totfact> 0.53474717E+00</totfact>
</mgrwt>
</event>
<event>
12    1  0.1504874E-007  0.1746285E+04  0.7818608E-02  0.8735398E-01
         -2   -1    0    0    0  501 -0.00000000000E+00  0.00000000000E+00  0.70929538830E+03  0.70929538830E+03  0.00000000000E+00 0.  1.
          2   -1    0    0  501    0  0.00000000000E+00 -0.00000000000E+00 -0.10748385755E+04  0.10748385755E+04  0.00000000000E+00 0. -1.
         23    2    1    2    0    0  0.15374641539E+03  0.13650165189E+03  0.47982805592E+03  0.53005603713E+03  0.91944429043E+02 0.  0.
        254    2    1    2    0    0 -0.15374641539E+03 -0.13650165189E+03 -0.84537124308E+03  0.12540779266E+04  0.90320996796E+03 0.  0.
        -24    2    4    4    0    0  0.13125292964E+02 -0.38118449194E+03 -0.40844835733E+02  0.39311764459E+03  0.86019135468E+02 0.  0.
         24    2    4    4    0    0 -0.16687170836E+03  0.24468284005E+03 -0.80452640734E+03  0.86096028204E+03  0.79208635114E+02 0.  0.
         13    1    3    3    0    0  0.75644002079E+01 -0.21740418958E+00 -0.24008130100E+01  0.79392265490E+01  0.00000000000E+00 0. -1.
        -13    1    3    3    0    0  0.14618201518E+03  0.13671905608E+03  0.48222886893E+03  0.52211681058E+03  0.00000000000E+00 0.  1.
          2    1    6    6  502    0 -0.15067831225E+03  0.24177903032E+03 -0.78673823837E+03  0.83673060718E+03  0.00000000000E+00 0. -1.
          3    1    5    5  503    0 -0.19761177353E+02 -0.30954991045E+03 -0.48400580083E+02  0.31393353969E+03  0.00000000000E+00 0. -1.
         -4    1    5    5    0  503  0.32886470318E+02 -0.71634581489E+02  0.75557443504E+01  0.79184104893E+02  0.00000000000E+00 0.  1.
         -1    1    6    6    0  502 -0.16193396104E+02  0.29038097278E+01 -0.17788168980E+02  0.24229674863E+02  0.00000000000E+00 0.  1.
<mgrwt>
<rscale>  0 0.17462853E+04</rscale>
<asrwt>0</asrwt>
<pdfrwt beam="1">  1        2 0.16535978E+00 0.17462853E+04</pdfrwt>
<pdfrwt beam="2">  1       -2 0.10912237E+00 0.17462853E+04</pdfrwt>
<totfact> 0.14345875E+01</totfact>
</mgrwt>
</event>
<event>
12    1  0.1504874E-007  0.1826475E+04  0.7818608E-02  0.8692346E-01
          1   -1    0    0  501    0  0.00000000000E+00  0.00000000000E+00  0.14899320786E+04  0.14899320786E+04  0.00000000000E+00 0. -1.
         -1   -1    0    0    0  501 -0.00000000000E+00 -0.00000000000E+00 -0.55975862238E+03  0.55975862238E+03  0.00000000000E+00 0.  1.
         23    2    1    2    0    0 -0.38719611481E+03  0.56637607531E+03  0.34473398337E+03  0.77304633951E+03  0.89757638837E+02 0.  0.
        254    2    1    2    0    0  0.38719611481E+03 -0.56637607531E+03  0.58543947280E+03  0.12766443614E+04  0.90353680570E+03 0.  0.
        -24    2    4    4    0    0  0.10135713196E+01 -0.70083289263E+03  0.45576171505E+03  0.83977946133E+03  0.79643154359E+02 0.  0.
         24    2    4    4    0    0  0.38618254349E+03  0.13445681733E+03  0.12967775775E+03  0.43686490011E+03  0.82577402901E+02 0.  0.
         13    1    3    3    0    0 -0.10809047095E+03  0.22507991638E+03  0.14799259438E+03  0.29025217770E+03  0.00000000000E+00 0.  1.
        -13    1    3    3    0    0 -0.27910564386E+03  0.34129615893E+03  0.19674138899E+03  0.48279416181E+03  0.00000000000E+00 0. -1.
          2    1    6    6  502    0  0.72003822812E+02 -0.75338433842E+01  0.23127143387E+02  0.76001145102E+02  0.00000000000E+00 0. -1.
          3    1    5    5  503    0  0.37194359768E+02 -0.28483910830E+03  0.20170073180E+03  0.35099846613E+03  0.00000000000E+00 0. -1.
         -4    1    5    5    0  503 -0.36180788448E+02 -0.41599378434E+03  0.25406098325E+03  0.48878099520E+03  0.00000000000E+00 0.  1.
         -1    1    6    6    0  502  0.31417872067E+03  0.14199066071E+03  0.10655061437E+03  0.36086375500E+03  0.00000000000E+00 0.  1.
<mgrwt>
<rscale>  0 0.18264746E+04</rscale>
<asrwt>0</asrwt>
<pdfrwt beam="1">  1        1 0.22922032E+00 0.18264746E+04</pdfrwt>
<pdfrwt beam="2">  1       -1 0.86116712E-01 0.18264746E+04</pdfrwt>
<totfact> 0.83285353E+00</totfact>
</mgrwt>
</event>
<event>
12    1  0.1504874E-007  0.1151628E+04  0.7818608E-02  0.9156283E-01
          2   -1    0    0  501    0  0.00000000000E+00  0.00000000000E+00  0.25573199491E+04  0.25573199491E+04  0.00000000000E+00 0. -1.
         -2   -1    0    0    0  501 -0.00000000000E+00 -0.00000000000E+00 -0.12965214648E+03  0.12965214648E+03  0.00000000000E+00 0.  1.
         23    2    1    2    0    0  0.47790028111E+02 -0.71372761601E+02  0.87847499375E+03  0.88760411256E+03  0.93513571764E+02 0.  0.
        254    2    1    2    0    0 -0.47790028111E+02  0.71372761601E+02  0.15491928089E+04  0.17993679830E+04  0.91123477840E+03 0.  0.
        -24    2    4    4    0    0 -0.46607619958E+03  0.10460578563E+02  0.66193724717E+03  0.81334669414E+03  0.77688339960E+02 0.  0.
         24    2    4    4    0    0  0.41828617147E+03  0.60912183038E+02  0.88725556173E+03  0.98602128890E+03  0.79636267189E+02 0.  0.
         11    1    3    3    0    0  0.17565144896E+02 -0.74998705510E+02  0.35576048815E+03  0.36400393552E+03  0.00000000000E+00 0.  1.
        -11    1    3    3    0    0  0.30224883215E+02  0.36259439089E+01  0.52271450560E+03  0.52360017704E+03  0.00000000000E+00 0. -1.
          4    1    6    6  502    0  0.97276775493E+02 -0.17611323440E+02  0.17982931567E+03  0.20521089771E+03  0.00000000000E+00 0. -1.
          3    1    5    5  503    0 -0.31681342517E+02  0.21063209256E+02  0.56695467379E+02  0.68276952694E+02  0.00000000000E+00 0. -1.
         -4    1    5    5    0  503 -0.43439485706E+03 -0.10602630693E+02  0.60524177979E+03  0.74506974145E+03  0.00000000000E+00 0.  1.
         -3    1    6    6    0  502  0.32100939598E+03  0.78523506477E+02  0.70742624606E+03  0.78081039119E+03  0.00000000000E+00 0.  1.
<mgrwt>
<rscale>  0 0.11516284E+04</rscale>
<asrwt>0</asrwt>
<pdfrwt beam="1">  1        2 0.39343380E+00 0.11516284E+04</pdfrwt>
<pdfrwt beam="2">  1       -2 0.19946486E-01 0.11516284E+04</pdfrwt>
<totfact> 0.69095430E+01</totfact>
</mgrwt>
</event>
<event>
12    1  0.1504874E-007  0.1704612E+04  0.7818608E-02  0.8758738E-01
         -1   -1    0    0    0  501 -0.00000000000E+00  0.00000000000E+00  0.41439668846E+03  0.41439668846E+03  0.00000000000E+00 0.  1.
          1   -1    0    0  501    0  0.00000000000E+00 -0.00000000000E+00 -0.17529718385E+04  0.17529718385E+04  0.00000000000E+00 0. -1.
         23    2    1    2    0    0  0.40937520503E+02  0.17512893416E+03 -0.12313763293E+04  0.12478205006E+04  0.91773162300E+02 0.  0.
        254    2    1    2    0    0 -0.40937520503E+02 -0.17512893416E+03 -0.10719882078E+03  0.91954802635E+03  0.89539430500E+03 0.  0.
        -24    2    4    4    0    0  0.83336775556E+02 -0.50714178160E+03 -0.17761449269E+03  0.54963581289E+03  0.80092533921E+02 0.  0.
         24    2    4    4    0    0 -0.12427429606E+03  0.33201284744E+03  0.70415671912E+02  0.36991221346E+03  0.78740379024E+02 0.  0.
         11    1    3    3    0    0  0.69612368783E+02  0.11568001438E+03 -0.76992588305E+03  0.78167359749E+03  0.00000000000E+00 0. -1.
        -11    1    3    3    0    0 -0.28674848280E+02  0.59448919783E+02 -0.46145044620E+03  0.46614690311E+03  0.00000000000E+00 0.  1.
          2    1    6    6  502    0 -0.41880572786E+02  0.22059210918E+03  0.40881692560E+02  0.22822395535E+03  0.00000000000E+00 0. -1.
          1    1    5    5  503    0  0.82668413214E+02 -0.49126796008E+03 -0.18588396453E+03  0.53172466880E+03  0.00000000000E+00 0. -1.
         -2    1    5    5    0  503  0.66836234233E+00 -0.15873821526E+02  0.82694718407E+01  0.17911144090E+02  0.00000000000E+00 0.  1.
         -3    1    6    6    0  502 -0.82393723274E+02  0.11142073826E+03  0.29533979352E+02  0.14168825811E+03  0.00000000000E+00 0.  1.
<mgrwt>
<rscale>  0 0.17046122E+04</rscale>
<asrwt>0</asrwt>
<pdfrwt beam="1">  1        1 0.26968798E+00 0.17046122E+04</pdfrwt>
<pdfrwt beam="2">  1       -1 0.63753336E-01 0.17046122E+04</pdfrwt>
<totfact> 0.10409414E+01</totfact>
</mgrwt>
</event>
<event>
12    1  0.1504874E-007  0.2351285E+04  0.7818608E-02  0.8457970E-01
         -1   -1    0    0    0  501 -0.00000000000E+00  0.00000000000E+00  0.57499847643E+03  0.57499847643E+03  0.00000000000E+00 0. -1.
          1   -1    0    0  501    0  0.00000000000E+00 -0.00000000000E+00 -0.24037200959E+04  0.24037200959E+04  0.00000000000E+00 0.  1.
         23    2    1    2    0    0  0.43144491126E+03 -0.68608985349E+02  0.32989365091E+03  0.55776539586E+03  0.10686679366E+03 0.  0.
        254    2    1    2    0    0 -0.43144491126E+03  0.68608985349E+02 -0.21586152703E+04  0.24209531764E+04  0.10052574261E+04 0.  0.
        -24    2    4    4    0    0 -0.39892681470E+03  0.86988514129E+01 -0.22471675748E+04  0.22836750585E+04  0.78685388637E+02 0.  0.
         24    2    4    4    0    0 -0.32518096557E+02  0.59910133936E+02  0.88552304429E+02  0.13727811789E+03  0.79731551350E+02 0.  0.
         13    1    3    3    0    0  0.31956623134E+03 -0.71262182621E+02  0.18976354508E+03  0.37843239546E+03  0.00000000000E+00 0. -1.
        -13    1    3    3    0    0  0.11187867992E+03  0.26531972723E+01  0.14013010583E+03  0.17933300041E+03  0.00000000000E+00 0.  1.
          2    1    6    6  502    0  0.55024067883E+01  0.56895551983E+02  0.23362668309E+02  0.61751069517E+02  0.00000000000E+00 0. -1.
          1    1    5    5  503    0 -0.92008699573E+02  0.32049138224E+02 -0.46148336327E+03  0.47165627594E+03  0.00000000000E+00 0. -1.
         -2    1    5    5    0  503 -0.30691811513E+03 -0.23350286811E+02 -0.17856842115E+04  0.18120187826E+04  0.00000000000E+00 0.  1.
         -1    1    6    6    0  502 -0.38020503345E+02  0.30145819526E+01  0.65189636120E+02  0.75527048376E+02  0.00000000000E+00 0.  1.
<mgrwt>
<rscale>  0 0.23512851E+04</rscale>
<asrwt>0</asrwt>
<pdfrwt beam="1">  1        1 0.36980310E+00 0.23512851E+04</pdfrwt>
<pdfrwt beam="2">  1       -1 0.88461303E-01 0.23512851E+04</pdfrwt>
<totfact> 0.17829265E+00</totfact>
</mgrwt>
</event>
<event>
12    1  0.1504874E-007  0.1146502E+04  0.7818608E-02  0.9161017E-01
         -2   -1    0    0    0  501 -0.00000000000E+00  0.00000000000E+00  0.35536098514E+03  0.35536098514E+03  0.00000000000E+00 0.  1.
          2   -1    0    0  501    0  0.00000000000E+00 -0.00000000000E+00 -0.92474052768E+03  0.92474052768E+03  0.00000000000E+00 0. -1.
         23    2    1    2    0    0  0.49205393948E+02 -0.20043384922E+03 -0.64468778022E+02  0.23318374402E+03  0.87312865203E+02 0.  0.
        254    2    1    2    0    0 -0.49205393948E+02  0.20043384922E+03 -0.50491076452E+03  0.10469177688E+04  0.89359220888E+03 0.  0.
        -24    2    4    4    0    0 -0.28210879270E+03  0.31385817071E+03  0.46264065108E+02  0.43210972574E+03  0.80536508023E+02 0.  0.
         24    2    4    4    0    0  0.23290339875E+03 -0.11342432148E+03 -0.55117482963E+03  0.61480804305E+03  0.84179374716E+02 0.  0.
         11    1    3    3    0    0  0.12669564292E+02 -0.10769504150E+03  0.98017623937E+01  0.10887981617E+03  0.00000000000E+00 0.  1.
        -11    1    3    3    0    0  0.36535829656E+02 -0.92738807719E+02 -0.74270540415E+02  0.12430392785E+03  0.00000000000E+00 0. -1.
          4    1    6    6  502    0  0.19181515578E+03 -0.53558085530E+02 -0.42176687191E+03  0.46642128677E+03  0.00000000000E+00 0. -1.
          3    1    5    5  503    0 -0.17432958933E+03  0.23571184156E+03  0.67907723084E+01  0.29325243828E+03  0.00000000000E+00 0. -1.
         -4    1    5    5    0  503 -0.10777920337E+03  0.78146329148E+02  0.39473292800E+02  0.13885728747E+03  0.00000000000E+00 0.  1.
         -3    1    6    6    0  502  0.41088242973E+02 -0.59866235954E+02 -0.12940795771E+03  0.14838675627E+03  0.00000000000E+00 0.  1.
<mgrwt>
<rscale>  0 0.11465020E+04</rscale>
<asrwt>0</asrwt>
<pdfrwt beam="1">  1        2 0.14226777E+00 0.11465020E+04</pdfrwt>
<pdfrwt beam="2">  1       -2 0.54670922E-01 0.11465020E+04</pdfrwt>
<totfact> 0.87956967E+01</totfact>
</mgrwt>
</event>
<event>
12    1  0.1504874E-007  0.1498159E+04  0.7818608E-02  0.8885678E-01
         -2   -1    0    0    0  501 -0.00000000000E+00  0.00000000000E+00  0.57417336340E+03  0.57417336340E+03  0.00000000000E+00 0.  1.
          2   -1    0    0  501    0  0.00000000000E+00 -0.00000000000E+00 -0.97726609615E+03  0.97726609615E+03  0.00000000000E+00 0. -1.
         23    2    1    2    0    0  0.43865411129E+02  0.47030288076E+03 -0.19117125645E+03  0.51768565060E+03  0.91340076605E+02 0.  0.
        254    2    1    2    0    0 -0.43865411129E+02 -0.47030288076E+03 -0.21192147630E+03  0.10337538089E+04  0.89477776651E+03 0.  0.
        -24    2    4    4    0    0 -0.21596852290E+03  0.20325794767E+03 -0.10959628500E+03  0.32672777716E+03  0.82361996740E+02 0.  0.
         24    2    4    4    0    0  0.17210311177E+03 -0.67356082843E+03 -0.10232519131E+03  0.70702603179E+03  0.78177325222E+02 0.  0.
         11    1    3    3    0    0 -0.43397772894E+01  0.33586926759E+03 -0.11019387108E+03  0.35351052007E+03  0.00000000000E+00 0.  1.
        -11    1    3    3    0    0  0.48205188418E+02  0.13443361317E+03 -0.80977385372E+02  0.16417513052E+03  0.00000000000E+00 0. -1.
          2    1    6    6  502    0  0.90265130987E+02 -0.48808916087E+03 -0.84656832826E+02  0.50353311924E+03  0.00000000000E+00 0. -1.
          3    1    5    5  503    0 -0.21403913668E+03  0.18016147214E+03 -0.11571707907E+03  0.30275625586E+03  0.00000000000E+00 0. -1.
         -4    1    5    5    0  503 -0.19293862179E+01  0.23096475530E+02  0.61207940753E+01  0.23971521295E+02  0.00000000000E+00 0.  1.
         -1    1    6    6    0  502  0.81837980781E+02 -0.18547166756E+03 -0.17668358481E+02  0.20349291255E+03  0.00000000000E+00 0.  1.
<mgrwt>
<rscale>  0 0.14981591E+04</rscale>
<asrwt>0</asrwt>
<pdfrwt beam="1">  1        2 0.15034863E+00 0.14981591E+04</pdfrwt>
<pdfrwt beam="2">  1       -2 0.88334363E-01 0.14981591E+04</pdfrwt>
<totfact> 0.27786808E+01</totfact>
</mgrwt>
</event>
<event>
12    1  0.1504874E-007  0.1863823E+04  0.7818608E-02  0.8673076E-01
         -2   -1    0    0    0  501 -0.00000000000E+00  0.00000000000E+00  0.17732606887E+03  0.17732606887E+03  0.00000000000E+00 0.  1.
          2   -1    0    0  501    0  0.00000000000E+00 -0.00000000000E+00 -0.48975269203E+04  0.48975269203E+04  0.00000000000E+00 0. -1.
         23    2    1    2    0    0  0.79367805562E+02 -0.42748040812E+03 -0.28347707150E+03  0.52532819165E+03  0.81066090276E+02 0.  0.
        254    2    1    2    0    0 -0.79367805562E+02  0.42748040812E+03 -0.44367237799E+04  0.45495247975E+04  0.90808547834E+03 0.  0.
        -24    2    4    4    0    0  0.98485548058E+01  0.53762180926E+03 -0.13061458029E+04  0.14146300520E+04  0.77634539374E+02 0.  0.
         24    2    4    4    0    0 -0.89216360367E+02 -0.11014140114E+03 -0.31305779770E+04  0.31348947455E+04  0.83402087331E+02 0.  0.
         13    1    3    3    0    0  0.49769343784E+02 -0.10512449905E+03 -0.99014438811E+02  0.15274818158E+03  0.00000000000E+00 0. -1.
        -13    1    3    3    0    0  0.29598461777E+02 -0.32235590906E+03 -0.18446263269E+03  0.37258001007E+03  0.00000000000E+00 0.  1.
          2    1    6    6  502    0 -0.46402091447E+02 -0.28417526708E+01 -0.67364618721E+03  0.67524840999E+03  0.00000000000E+00 0. -1.
          1    1    5    5  503    0 -0.15047774150E+02  0.22066537713E+02 -0.77283115443E+02  0.81768255003E+02  0.00000000000E+00 0. -1.
         -4    1    5    5    0  503  0.24896328956E+02  0.51555527155E+03 -0.12288626875E+04  0.13328617970E+04  0.00000000000E+00 0.  1.
         -1    1    6    6    0  502 -0.42814268920E+02 -0.10729964847E+03 -0.24569317898E+04  0.24596463355E+04  0.00000000000E+00 0.  1.
<mgrwt>
<rscale>  0 0.18638232E+04</rscale>
<asrwt>0</asrwt>
<pdfrwt beam="1">  1        2 0.75346566E+00 0.18638232E+04</pdfrwt>
<pdfrwt beam="2">  1       -2 0.27280934E-01 0.18638232E+04</pdfrwt>
<totfact> 0.54201140E-01</totfact>
</mgrwt>
</event>
<event>
12    1  0.1504874E-007  0.1867991E+04  0.7818608E-02  0.8670955E-01
         -1   -1    0    0    0  501 -0.00000000000E+00  0.00000000000E+00  0.33053832739E+03  0.33053832739E+03  0.00000000000E+00 0.  1.
          1   -1    0    0  501    0  0.00000000000E+00 -0.00000000000E+00 -0.26391730491E+04  0.26391730491E+04  0.00000000000E+00 0. -1.
         23    2    1    2    0    0  0.21891399373E+02  0.62342115552E+03 -0.33608455902E+03  0.71412408869E+03  0.88809980948E+02 0.  0.
        254    2    1    2    0    0 -0.21891399373E+02 -0.62342115552E+03 -0.19725501627E+04  0.22555872878E+04  0.89865827658E+03 0.  0.
        -24    2    4    4    0    0 -0.14883868680E+03 -0.78853321181E+03 -0.11583115222E+04  0.14114244110E+04  0.80595934955E+02 0.  0.
         24    2    4    4    0    0  0.12694728742E+03  0.16511205630E+03 -0.81423864052E+03  0.84416287681E+03  0.79049313410E+02 0.  0.
         11    1    3    3    0    0 -0.13167686748E+02  0.55370479267E+02 -0.55852414082E+02  0.79741896813E+02  0.00000000000E+00 0. -1.
        -11    1    3    3    0    0  0.35059086121E+02  0.56805067625E+03 -0.28023214494E+03  0.63438219187E+03  0.00000000000E+00 0.  1.
          2    1    6    6  502    0 -0.11196981593E+02  0.15094548135E+02 -0.64291093016E+02  0.66981806645E+02  0.00000000000E+00 0. -1.
          3    1    5    5  503    0 -0.10079461448E+03 -0.65279020797E+03 -0.98707385292E+03  0.11876907851E+04  0.00000000000E+00 0. -1.
         -4    1    5    5    0  503 -0.48044072316E+02 -0.13574300384E+03 -0.17123766923E+03  0.22373362586E+03  0.00000000000E+00 0.  1.
         -1    1    6    6    0  502  0.13814426902E+03  0.15001750816E+03 -0.74994754751E+03  0.77718107017E+03  0.00000000000E+00 0.  1.
<mgrwt>
<rscale>  0 0.18679913E+04</rscale>
<asrwt>0</asrwt>
<pdfrwt beam="1">  1        1 0.40602661E+00 0.18679913E+04</pdfrwt>
<pdfrwt beam="2">  1       -1 0.50852052E-01 0.18679913E+04</pdfrwt>
<totfact> 0.39541004E+00</totfact>
</mgrwt>
</event>
<event>
12    1  0.1504874E-007  0.1553885E+04  0.7818608E-02  0.8849390E-01
         -2   -1    0    0    0  501 -0.00000000000E+00  0.00000000000E+00  0.56184103865E+03  0.56184103865E+03  0.00000000000E+00 0.  1.
          2   -1    0    0  501    0  0.00000000000E+00 -0.00000000000E+00 -0.10743961630E+04  0.10743961630E+04  0.00000000000E+00 0. -1.
         23    2    1    2    0    0  0.35663267508E+03 -0.36410632566E+03 -0.23838736554E+03  0.57007324857E+03  0.91622548352E+02 0.  0.
        254    2    1    2    0    0 -0.35663267508E+03  0.36410632566E+03 -0.27416775877E+03  0.10661639530E+04  0.89542019940E+03 0.  0.
        -24    2    4    4    0    0  0.24020626182E+02 -0.22232788872E+03  0.11353430211E+03  0.26284565254E+03  0.78683662321E+02 0.  0.
         24    2    4    4    0    0 -0.38065330126E+03  0.58643421438E+03 -0.38770206088E+03  0.80331830050E+03  0.78774236661E+02 0.  0.
         13    1    3    3    0    0  0.78103433386E+02 -0.32536075069E+02 -0.44807079306E+02  0.95741406108E+02  0.00000000000E+00 0. -1.
        -13    1    3    3    0    0  0.27852924169E+03 -0.33157025059E+03 -0.19358028623E+03  0.47433184246E+03  0.00000000000E+00 0.  1.
          2    1    6    6  502    0 -0.21383789207E+03  0.27010516915E+03 -0.21595983287E+03  0.40659819958E+03  0.00000000000E+00 0. -1.
          3    1    5    5  503    0  0.31964709192E+02 -0.54020247189E+02  0.62150424346E+01  0.63075799580E+02  0.00000000000E+00 0. -1.
         -4    1    5    5    0  503 -0.79440830100E+01 -0.16830764153E+03  0.10731925968E+03  0.19976985296E+03  0.00000000000E+00 0.  1.
         -1    1    6    6    0  502 -0.16681540919E+03  0.31632904522E+03 -0.17174222801E+03  0.39672010092E+03  0.00000000000E+00 0.  1.
<mgrwt>
<rscale>  0 0.15538853E+04</rscale>
<asrwt>0</asrwt>
<pdfrwt beam="1">  1        2 0.16529172E+00 0.15538853E+04</pdfrwt>
<pdfrwt beam="2">  1       -2 0.86437084E-01 0.15538853E+04</pdfrwt>
<totfact> 0.25223233E+01</totfact>
</mgrwt>
</event>
<event>
12    1  0.1504874E-007  0.1744205E+04  0.7818608E-02  0.8736547E-01
          2   -1    0    0  501    0  0.00000000000E+00  0.00000000000E+00  0.30858840764E+04  0.30858840764E+04  0.00000000000E+00 0. -1.
         -2   -1    0    0    0  501 -0.00000000000E+00 -0.00000000000E+00 -0.24646502165E+03  0.24646502165E+03  0.00000000000E+00 0.  1.
         23    2    1    2    0    0  0.23985227575E+03 -0.31662486661E+03  0.20032504945E+04  0.20442559281E+04  0.90494947650E+02 0.  0.
        254    2    1    2    0    0 -0.23985227575E+03  0.31662486661E+03  0.83616856025E+03  0.12880931699E+04  0.89567054933E+03 0.  0.
        -24    2    4    4    0    0 -0.30667773573E+03  0.11977925978E+03 -0.77669995406E+02  0.34750209153E+03  0.79541000546E+02 0.  0.
         24    2    4    4    0    0  0.66825459982E+02  0.19684560684E+03  0.91383855566E+03  0.94059107840E+03  0.79980222104E+02 0.  0.
         13    1    3    3    0    0  0.23539085687E+03 -0.31760171838E+03  0.18894056789E+04  0.19303195400E+04  0.00000000000E+00 0. -1.
        -13    1    3    3    0    0  0.44614188832E+01  0.97685176517E+00  0.11384481565E+03  0.11393638817E+03  0.00000000000E+00 0.  1.
          4    1    6    6  502    0  0.61576814982E+02  0.20365608373E+03  0.89401141158E+03  0.91897981948E+03  0.00000000000E+00 0. -1.
          3    1    5    5  503    0 -0.27184959127E+03  0.75161260242E+02 -0.67129466099E+02  0.28992719868E+03  0.00000000000E+00 0. -1.
         -4    1    5    5    0  503 -0.34828144458E+02  0.44617999534E+02 -0.10540529307E+02  0.57574892851E+02  0.00000000000E+00 0.  1.
         -3    1    6    6    0  502  0.52486449997E+01 -0.68104768862E+01  0.19827144076E+02  0.21611258917E+02  0.00000000000E+00 0.  1.
<mgrwt>
<rscale>  0 0.17442047E+04</rscale>
<asrwt>0</asrwt>
<pdfrwt beam="1">  1        2 0.47475137E+00 0.17442047E+04</pdfrwt>
<pdfrwt beam="2">  1       -2 0.37917698E-01 0.17442047E+04</pdfrwt>
<totfact> 0.96127212E+00</totfact>
</mgrwt>
</event>
<event>
12    1  0.1504874E-007  0.1413736E+04  0.7818608E-02  0.8943935E-01
         -1   -1    0    0    0  501 -0.00000000000E+00  0.00000000000E+00  0.35552497617E+03  0.35552497617E+03  0.00000000000E+00 0.  1.
          1   -1    0    0  501    0  0.00000000000E+00 -0.00000000000E+00 -0.14054211351E+04  0.14054211351E+04  0.00000000000E+00 0. -1.
         23    2    1    2    0    0  0.15609588865E+03  0.19650472592E+03 -0.71817108653E+03  0.76648641622E+03  0.93550430063E+02 0.  0.
        254    2    1    2    0    0 -0.15609588865E+03 -0.19650472592E+03 -0.33172507237E+03  0.99445969501E+03  0.90328762174E+03 0.  0.
        -24    2    4    4    0    0  0.66819566163E+02 -0.16612387232E+03 -0.60306995407E+03  0.63294219543E+03  0.69716984081E+02 0.  0.
         24    2    4    4    0    0 -0.22291545481E+03 -0.30380853609E+02  0.27134488170E+03  0.36151749958E+03  0.80327837138E+02 0.  0.
         13    1    3    3    0    0  0.50271606591E+02  0.88523742219E+02 -0.17291580163E+03  0.20065782272E+03  0.00000000000E+00 0.  1.
        -13    1    3    3    0    0  0.10582428206E+03  0.10798098371E+03 -0.54525528490E+03  0.56582859350E+03  0.00000000000E+00 0. -1.
          4    1    6    6  502    0 -0.58413848453E+01  0.49493107069E+01 -0.43817359524E+01  0.88213980378E+01  0.00000000000E+00 0. -1.
          3    1    5    5  503    0  0.48126864624E+02 -0.36920121136E+02 -0.22161425306E+03  0.22976546216E+03  0.00000000000E+00 0. -1.
         -4    1    5    5    0  503  0.18692701539E+02 -0.12920375118E+03 -0.38145570101E+03  0.40317673326E+03  0.00000000000E+00 0.  1.
         -3    1    6    6    0  502 -0.21707406997E+03 -0.35330164316E+02  0.27572661765E+03  0.35269610155E+03  0.00000000000E+00 0.  1.
<mgrwt>
<rscale>  0 0.14137359E+04</rscale>
<asrwt>0</asrwt>
<pdfrwt beam="1">  1        1 0.21621864E+00 0.14137359E+04</pdfrwt>
<pdfrwt beam="2">  1       -1 0.54696150E-01 0.14137359E+04</pdfrwt>
<totfact> 0.25049397E+01</totfact>
</mgrwt>
</event>
<event>
12    1  0.1504874E-007  0.1197513E+04  0.7818608E-02  0.9115036E-01
         -2   -1    0    0    0  501 -0.00000000000E+00  0.00000000000E+00  0.88076057150E+03  0.88076057150E+03  0.00000000000E+00 0.  1.
          2   -1    0    0  501    0  0.00000000000E+00 -0.00000000000E+00 -0.40704537629E+03  0.40704537629E+03  0.00000000000E+00 0. -1.
         23    2    1    2    0    0 -0.69926451653E+02  0.40853766161E+02 -0.14684491101E+03  0.19132271777E+03  0.92098944580E+02 0.  0.
        254    2    1    2    0    0  0.69926451653E+02 -0.40853766161E+02  0.62056010622E+03  0.10964832300E+04  0.90034542784E+03 0.  0.
        -24    2    4    4    0    0 -0.28548732272E+03 -0.38048327264E+02 -0.79225463386E+02  0.30764665854E+03  0.73614576142E+02 0.  0.
         24    2    4    4    0    0  0.35541377437E+03 -0.28054388978E+01  0.69978556961E+03  0.78883657148E+03  0.78971333908E+02 0.  0.
         11    1    3    3    0    0 -0.27853320569E+02 -0.17317946573E+02 -0.10087760237E+03  0.10607548915E+03  0.00000000000E+00 0. -1.
        -11    1    3    3    0    0 -0.42073131084E+02  0.58171712735E+02 -0.45967308646E+02  0.85247228611E+02  0.00000000000E+00 0.  1.
          4    1    6    6  502    0  0.11041917767E+03 -0.33816831889E+02  0.18903105668E+03  0.22151458937E+03  0.00000000000E+00 0. -1.
          1    1    5    5  503    0 -0.14077307792E+03 -0.13380634584E+02 -0.12322467342E+01  0.14141293887E+03  0.00000000000E+00 0. -1.
         -2    1    5    5    0  503 -0.14471424480E+03 -0.24667692680E+02 -0.77993216652E+02  0.16623371966E+03  0.00000000000E+00 0.  1.
         -3    1    6    6    0  502  0.24499459670E+03  0.31011392992E+02  0.51075451293E+03  0.56732198211E+03  0.00000000000E+00 0.  1.
<mgrwt>
<rscale>  0 0.11975133E+04</rscale>
<asrwt>0</asrwt>
<pdfrwt beam="1">  1        2 0.62622366E-01 0.11975133E+04</pdfrwt>
<pdfrwt beam="2">  1       -2 0.13550163E+00 0.11975133E+04</pdfrwt>
<totfact> 0.30044719E+01</totfact>
</mgrwt>
</event>
<event>
12    1  0.1504874E-007  0.3638905E+04  0.7818608E-02  0.8081638E-01
          2   -1    0    0  501    0  0.00000000000E+00  0.00000000000E+00  0.23222472682E+04  0.23222472682E+04  0.00000000000E+00 0.  1.
         -2   -1    0    0    0  501 -0.00000000000E+00 -0.00000000000E+00 -0.14255188828E+04  0.14255188828E+04  0.00000000000E+00 0. -1.
         23    2    1    2    0    0 -0.27088501710E+03  0.87082114235E+03 -0.10718642942E+04  0.14101728868E+04  0.89366385523E+02 0.  0.
        254    2    1    2    0    0  0.27088501710E+03 -0.87082114235E+03  0.19685926796E+04  0.23375932642E+04  0.87021662604E+03 0.  0.
        -24    2    4    4    0    0 -0.22228791022E+03 -0.68642593952E+03  0.12046982290E+04  0.14063685551E+04  0.77344710272E+02 0.  0.
         24    2    4    4    0    0  0.49317292732E+03 -0.18439520283E+03  0.76389445058E+03  0.93122470914E+03  0.80147365565E+02 0.  0.
         11    1    3    3    0    0 -0.26970617837E+03  0.86874868793E+03 -0.10736513206E+04  0.14071932574E+04  0.00000000000E+00 0. -1.
        -11    1    3    3    0    0 -0.11788387247E+01  0.20724544174E+01  0.17870263521E+01  0.29796293786E+01  0.00000000000E+00 0.  1.
          2    1    6    6  502    0  0.75084566562E+02 -0.53393906015E+02  0.16788024937E+03  0.19150033802E+03  0.00000000000E+00 0. -1.
          1    1    5    5  503    0  0.11908596437E+01 -0.65754290998E+00  0.15337242403E+02  0.15397451539E+02  0.00000000000E+00 0. -1.
         -2    1    5    5    0  503 -0.22347876987E+03 -0.68576839661E+03  0.11893609866E+04  0.13909711036E+04  0.00000000000E+00 0.  1.
         -1    1    6    6    0  502  0.41808836076E+03 -0.13100129682E+03  0.59601420121E+03  0.73972437112E+03  0.00000000000E+00 0.  1.
<mgrwt>
<rscale>  0 0.36389050E+04</rscale>
<asrwt>0</asrwt>
<pdfrwt beam="1">  1        2 0.35726881E+00 0.36389050E+04</pdfrwt>
<pdfrwt beam="2">  1       -2 0.21931060E+00 0.36389050E+04</pdfrwt>
<totfact> 0.35717837E-01</totfact>
</mgrwt>
</event>
<event>
12    1  0.1504874E-007  0.1161194E+04  0.7818608E-02  0.9147519E-01
          1   -1    0    0  501    0  0.00000000000E+00  0.00000000000E+00  0.21686726648E+04  0.21686726648E+04  0.00000000000E+00 0. -1.
         -1   -1    0    0    0  501 -0.00000000000E+00 -0.00000000000E+00 -0.15543734229E+03  0.15543734229E+03  0.00000000000E+00 0.  1.
         23    2    1    2    0    0 -0.18947753441E+03 -0.16981023259E+02  0.19752947503E+03  0.28788251691E+03  0.87569166039E+02 0.  0.
        254    2    1    2    0    0  0.18947753441E+03  0.16981023259E+02  0.18157058474E+04  0.20362274901E+04  0.90180074072E+03 0.  0.
        -24    2    4    4    0    0  0.71477578421E+02 -0.18579910688E+03  0.17713077362E+04  0.17841576478E+04  0.77827137890E+02 0.  0.
         24    2    4    4    0    0  0.11799995599E+03  0.20278013014E+03  0.44398111228E+02  0.25206984237E+03  0.80772782278E+02 0.  0.
         13    1    3    3    0    0 -0.17445738332E+02 -0.10651972402E+02 -0.60096703621E+01  0.21305737253E+02  0.00000000000E+00 0. -1.
        -13    1    3    3    0    0 -0.17203179608E+03 -0.63290508569E+01  0.20353914539E+03  0.26657677966E+03  0.00000000000E+00 0.  1.
          2    1    6    6  502    0  0.71787336761E+02  0.16652525952E+03  0.51234211345E+01  0.18141205368E+03  0.00000000000E+00 0. -1.
          1    1    5    5  503    0  0.87139554812E+02 -0.13596124320E+03  0.13476882812E+04  0.13573291660E+04  0.00000000000E+00 0. -1.
         -2    1    5    5    0  503 -0.15661976391E+02 -0.49837863678E+02  0.42361945505E+03  0.42682848178E+03  0.00000000000E+00 0.  1.
         -1    1    6    6    0  502  0.46212619229E+02  0.36254870621E+02  0.39274690094E+02  0.70657788684E+02  0.00000000000E+00 0.  1.
<mgrwt>
<rscale>  0 0.11611937E+04</rscale>
<asrwt>0</asrwt>
<pdfrwt beam="1">  1        1 0.33364193E+00 0.11611937E+04</pdfrwt>
<pdfrwt beam="2">  1       -1 0.23913439E-01 0.11611937E+04</pdfrwt>
<totfact> 0.34452802E+01</totfact>
</mgrwt>
</event>
<event>
12    1  0.1504874E-007  0.1290792E+04  0.7818608E-02  0.9036899E-01
          2   -1    0    0  501    0  0.00000000000E+00  0.00000000000E+00  0.11205455994E+04  0.11205455994E+04  0.00000000000E+00 0. -1.
         -2   -1    0    0    0  501 -0.00000000000E+00 -0.00000000000E+00 -0.37172609994E+03  0.37172609994E+03  0.00000000000E+00 0.  1.
         23    2    1    2    0    0  0.18309341664E+03 -0.66424146407E+02  0.49441312428E+03  0.53913434461E+03  0.91028224420E+02 0.  0.
        254    2    1    2    0    0 -0.18309341664E+03  0.66424146407E+02  0.25440637515E+03  0.95313735470E+03  0.89767078975E+03 0.  0.
        -24    2    4    4    0    0 -0.19618436699E+03 -0.13039833818E+03  0.54157189045E+03  0.59579736309E+03  0.78627939576E+02 0.  0.
         24    2    4    4    0    0  0.13090950353E+02  0.19682248459E+03 -0.28716551530E+03  0.35733999161E+03  0.79481903616E+02 0.  0.
         13    1    3    3    0    0  0.12899653025E+03 -0.65722146620E+02  0.43649960406E+03  0.45988195194E+03  0.00000000000E+00 0. -1.
        -13    1    3    3    0    0  0.54096886391E+02 -0.70199978782E+00  0.57913520214E+02  0.79252392674E+02  0.00000000000E+00 0.  1.
          4    1    6    6  502    0  0.38777996177E+02  0.97867738365E+02 -0.18471186453E+03  0.21260362202E+03  0.00000000000E+00 0. -1.
          1    1    5    5  503    0 -0.97001054025E+02 -0.19734129045E+02  0.19419847206E+03  0.21797175707E+03  0.00000000000E+00 0. -1.
         -2    1    5    5    0  503 -0.99183312969E+02 -0.11066420914E+03  0.34737341840E+03  0.37782560602E+03  0.00000000000E+00 0.  1.
         -3    1    6    6    0  502 -0.25687045825E+02  0.98954746226E+02 -0.10245365078E+03  0.14473636959E+03  0.00000000000E+00 0.  1.
<mgrwt>
<rscale>  0 0.12907921E+04</rscale>
<asrwt>0</asrwt>
<pdfrwt beam="1">  1        2 0.17239163E+00 0.12907921E+04</pdfrwt>
<pdfrwt beam="2">  1       -2 0.57188631E-01 0.12907921E+04</pdfrwt>
<totfact> 0.59470109E+01</totfact>
</mgrwt>
</event>
<event>
12    1  0.1504874E-007  0.2117827E+04  0.7818608E-02  0.8553431E-01
         -2   -1    0    0    0  501 -0.00000000000E+00  0.00000000000E+00  0.88091178486E+03  0.88091178486E+03  0.00000000000E+00 0. -1.
          2   -1    0    0  501    0  0.00000000000E+00 -0.00000000000E+00 -0.12728825947E+04  0.12728825947E+04  0.00000000000E+00 0.  1.
         23    2    1    2    0    0  0.68479943663E+03  0.45430206031E+03  0.10350828291E+03  0.83311250609E+03  0.89564796448E+02 0.  0.
        254    2    1    2    0    0 -0.68479943663E+03 -0.45430206031E+03 -0.49547909278E+03  0.13206818735E+04  0.90739211436E+03 0.  0.
        -24    2    4    4    0    0 -0.65451578290E+03 -0.56029686448E+03 -0.67357725780E+03  0.10965378720E+04  0.79784059112E+02 0.  0.
         24    2    4    4    0    0 -0.30283653726E+02  0.10599480417E+03  0.17809816501E+03  0.22414400150E+03  0.79809641245E+02 0.  0.
         13    1    3    3    0    0  0.47167870994E+03  0.27257967200E+03  0.42231976293E+02  0.54641012328E+03  0.00000000000E+00 0.  1.
        -13    1    3    3    0    0  0.21312072669E+03  0.18172238831E+03  0.61276306618E+02  0.28670238281E+03  0.00000000000E+00 0. -1.
          4    1    6    6  502    0 -0.48352886895E+02  0.95675521304E+02  0.11281418999E+03  0.15562406148E+03  0.00000000000E+00 0. -1.
          3    1    5    5  503    0 -0.61011449819E+03 -0.53098164549E+03 -0.65291441815E+03  0.10394606516E+04  0.00000000000E+00 0. -1.
         -4    1    5    5    0  503 -0.44401284718E+02 -0.29315218990E+02 -0.20662839649E+02  0.57077220425E+02  0.00000000000E+00 0.  1.
         -1    1    6    6    0  502  0.18069233169E+02  0.10319282863E+02  0.65283975027E+02  0.68519940029E+02  0.00000000000E+00 0.  1.
<mgrwt>
<rscale>  0 0.21178265E+04</rscale>
<asrwt>0</asrwt>
<pdfrwt beam="1">  1        2 0.19582809E+00 0.21178265E+04</pdfrwt>
<pdfrwt beam="2">  1       -2 0.13552489E+00 0.21178265E+04</pdfrwt>
<totfact> 0.61644658E+00</totfact>
</mgrwt>
</event>
<event>
12    1  0.1504874E-007  0.1136977E+04  0.7818608E-02  0.9169883E-01
          2   -1    0    0  501    0  0.00000000000E+00  0.00000000000E+00  0.73034018157E+03  0.73034018157E+03  0.00000000000E+00 0. -1.
         -2   -1    0    0    0  501 -0.00000000000E+00 -0.00000000000E+00 -0.44250490859E+03  0.44250490859E+03  0.00000000000E+00 0.  1.
         23    2    1    2    0    0 -0.17829134569E+03  0.61841539578E+02  0.73384652044E+02  0.22229130425E+03  0.91738415203E+02 0.  0.
        254    2    1    2    0    0  0.17829134569E+03 -0.61841539578E+02  0.21445062093E+03  0.95055378592E+03  0.90661527184E+03 0.  0.
        -24    2    4    4    0    0 -0.11012005431E+03  0.35493549077E+03  0.21618900691E+03  0.43770315553E+03  0.82101989506E+02 0.  0.
         24    2    4    4    0    0  0.28841140000E+03 -0.41677703034E+03 -0.17383859779E+01  0.51285063039E+03  0.78284854449E+02 0.  0.
         13    1    3    3    0    0 -0.29833697887E+02  0.45080871112E+02 -0.36834008729E+01  0.54183963603E+02  0.00000000000E+00 0. -1.
        -13    1    3    3    0    0 -0.14845764780E+03  0.16760668466E+02  0.77068052917E+02  0.16810734065E+03  0.00000000000E+00 0.  1.
          2    1    6    6  502    0  0.90036811396E+02 -0.19742514084E+03 -0.60155843013E+01  0.21707026719E+03  0.00000000000E+00 0. -1.
          1    1    5    5  503    0  0.78809320070E+01  0.89881476162E+02  0.57771967128E+02  0.10713724391E+03  0.00000000000E+00 0. -1.
         -2    1    5    5    0  503 -0.11800098632E+03  0.26505401460E+03  0.15841703978E+03  0.33056591162E+03  0.00000000000E+00 0.  1.
         -1    1    6    6    0  502  0.19837458860E+03 -0.21935188950E+03  0.42771983234E+01  0.29578036321E+03  0.00000000000E+00 0.  1.
<mgrwt>
<rscale>  0 0.11369769E+04</rscale>
<asrwt>0</asrwt>
<pdfrwt beam="1">  1        2 0.11236003E+00 0.11369769E+04</pdfrwt>
<pdfrwt beam="2">  1       -2 0.68077678E-01 0.11369769E+04</pdfrwt>
<totfact> 0.75985364E+01</totfact>
</mgrwt>
</event>
<event>
12    1  0.1504874E-007  0.1061023E+04  0.7818608E-02  0.9244037E-01
          1   -1    0    0  501    0  0.00000000000E+00  0.00000000000E+00  0.32855345110E+03  0.32855345110E+03  0.00000000000E+00 0. -1.
         -1   -1    0    0    0  501 -0.00000000000E+00 -0.00000000000E+00 -0.85661127059E+03  0.85661127059E+03  0.00000000000E+00 0.  1.
         23    2    1    2    0    0  0.63916693031E+02 -0.88722648890E+02 -0.14190110230E+03  0.20132764467E+03  0.91868632290E+02 0.  0.
        254    2    1    2    0    0 -0.63916693031E+02  0.88722648890E+02 -0.38615671719E+03  0.98383707702E+03  0.89825460300E+03 0.  0.
        -24    2    4    4    0    0  0.28919847871E+02  0.25208013717E+03  0.21951600489E+03  0.34473035257E+03  0.79189560049E+02 0.  0.
         24    2    4    4    0    0 -0.92836540902E+02 -0.16335748828E+03 -0.60567272208E+03  0.63910672445E+03  0.79458584569E+02 0.  0.
         11    1    3    3    0    0  0.72589365747E+02 -0.10177677663E+03 -0.11330285608E+03  0.16871652402E+03  0.00000000000E+00 0.  1.
        -11    1    3    3    0    0 -0.86726727156E+01  0.13054127741E+02 -0.28598246216E+02  0.32611120645E+02  0.00000000000E+00 0. -1.
          2    1    6    6  502    0 -0.24192090920E+02 -0.59439398152E+01 -0.33686513068E+02  0.41897122172E+02  0.00000000000E+00 0. -1.
          1    1    5    5  503    0 -0.21976145930E+02  0.63786224095E+02  0.81432008738E+02  0.10574878449E+03  0.00000000000E+00 0. -1.
         -2    1    5    5    0  503  0.50895993801E+02  0.18829391308E+03  0.13808399615E+03  0.23898156808E+03  0.00000000000E+00 0.  1.
         -1    1    6    6    0  502 -0.68644449982E+02 -0.15741354847E+03 -0.57198620901E+03  0.59720960228E+03  0.00000000000E+00 0.  1.
<mgrwt>
<rscale>  0 0.10610233E+04</rscale>
<asrwt>0</asrwt>
<pdfrwt beam="1">  1        1 0.50546684E-01 0.10610233E+04</pdfrwt>
<pdfrwt beam="2">  1       -1 0.13178635E+00 0.10610233E+04</pdfrwt>
<totfact> 0.38099167E+01</totfact>
</mgrwt>
</event>
<event>
12    1  0.1504874E-007  0.1643442E+04  0.7818608E-02  0.8794296E-01
          1   -1    0    0  501    0  0.00000000000E+00  0.00000000000E+00  0.35045845516E+04  0.35045845516E+04  0.00000000000E+00 0. -1.
         -1   -1    0    0    0  501 -0.00000000000E+00 -0.00000000000E+00 -0.19266919344E+03  0.19266919344E+03  0.00000000000E+00 0.  1.
         23    2    1    2    0    0 -0.19364102155E+03 -0.53468628350E+03  0.12422219365E+04  0.13693215447E+04  0.92411504907E+02 0.  0.
        254    2    1    2    0    0  0.19364102155E+03  0.53468628350E+03  0.20696934216E+04  0.23279322003E+04  0.90124980044E+03 0.  0.
        -24    2    4    4    0    0 -0.28015924554E+03  0.49414583178E+03  0.12777790356E+04  0.14006497131E+04  0.80193821588E+02 0.  0.
         24    2    4    4    0    0  0.47380026709E+03  0.40540451722E+02  0.79191438609E+03  0.92728248729E+03  0.81204649091E+02 0.  0.
         13    1    3    3    0    0 -0.19754252540E+03 -0.49374597325E+03  0.11093359767E+04  0.12302172348E+04  0.00000000000E+00 0. -1.
        -13    1    3    3    0    0  0.39015038505E+01 -0.40940310251E+02  0.13288595980E+03  0.13910430995E+03  0.00000000000E+00 0.  1.
          2    1    6    6  502    0  0.72427373030E+01  0.11662522784E+02  0.35774941073E+02  0.38318638939E+02  0.00000000000E+00 0. -1.
          1    1    5    5  503    0 -0.27155905288E+02  0.24674308571E+02  0.12899014067E+03  0.13410712541E+03  0.00000000000E+00 0. -1.
         -2    1    5    5    0  503 -0.25300334025E+03  0.46947152321E+03  0.11487888949E+04  0.12665425876E+04  0.00000000000E+00 0.  1.
         -1    1    6    6    0  502  0.46655752978E+03  0.28877928938E+02  0.75613944501E+03  0.88896384835E+03  0.00000000000E+00 0.  1.
<mgrwt>
<rscale>  0 0.16434421E+04</rscale>
<asrwt>0</asrwt>
<pdfrwt beam="1">  1        1 0.53916681E+00 0.16434421E+04</pdfrwt>
<pdfrwt beam="2">  1       -1 0.29641417E-01 0.16434421E+04</pdfrwt>
<totfact> 0.24915996E+00</totfact>
</mgrwt>
</event>
<event>
12    1  0.1504874E-007  0.1510407E+04  0.7818608E-02  0.8877562E-01
         -2   -1    0    0    0  501 -0.00000000000E+00  0.00000000000E+00  0.66038973597E+03  0.66038973597E+03  0.00000000000E+00 0. -1.
          2   -1    0    0  501    0  0.00000000000E+00 -0.00000000000E+00 -0.86362984224E+03  0.86362984224E+03  0.00000000000E+00 0.  1.
         23    2    1    2    0    0  0.24131748705E+03 -0.97537090180E+02  0.34542678384E+03  0.44273425466E+03  0.94585113714E+02 0.  0.
        254    2    1    2    0    0 -0.24131748705E+03  0.97537090180E+02 -0.54866689012E+03  0.10812853236E+04  0.89464796491E+03 0.  0.
        -24    2    4    4    0    0 -0.41233620941E+03  0.36171068443E+03 -0.51001818542E+03  0.75394774789E+03  0.86388009972E+02 0.  0.
         24    2    4    4    0    0  0.17101872236E+03 -0.26417359425E+03 -0.38648704696E+02  0.32733757566E+03  0.81369986916E+02 0.  0.
         11    1    3    3    0    0  0.23868271130E+03 -0.69287934576E+02  0.31194113923E+03  0.39884524429E+03  0.00000000000E+00 0. -1.
        -11    1    3    3    0    0  0.26347757455E+01 -0.28249155604E+02  0.33485644617E+02  0.43889010367E+02  0.00000000000E+00 0.  1.
          2    1    6    6  502    0  0.16999461384E+03 -0.26380330724E+03 -0.48385756303E+02  0.31753981650E+03  0.00000000000E+00 0. -1.
          3    1    5    5  503    0 -0.25409501102E+02  0.37068942881E+02 -0.16753143811E+02  0.47962663606E+02  0.00000000000E+00 0. -1.
         -4    1    5    5    0  503 -0.38692670831E+03  0.32464174155E+03 -0.49326504161E+03  0.70598508429E+03  0.00000000000E+00 0.  1.
         -1    1    6    6    0  502  0.10241085225E+01 -0.37028700470E+00  0.97370516068E+01  0.97977591686E+01  0.00000000000E+00 0.  1.
<mgrwt>
<rscale>  0 0.15104069E+04</rscale>
<asrwt>0</asrwt>
<pdfrwt beam="1">  1        2 0.13286613E+00 0.15104069E+04</pdfrwt>
<pdfrwt beam="2">  1       -2 0.10159842E+00 0.15104069E+04</pdfrwt>
<totfact> 0.23850725E+01</totfact>
</mgrwt>
</event>
<event>
12    1  0.1504874E-007  0.1281746E+04  0.7818608E-02  0.9044167E-01
         -2   -1    0    0    0  501 -0.00000000000E+00  0.00000000000E+00  0.19095335818E+03  0.19095335818E+03  0.00000000000E+00 0.  1.
          2   -1    0    0  501    0  0.00000000000E+00 -0.00000000000E+00 -0.21508828389E+04  0.21508828389E+04  0.00000000000E+00 0. -1.
         23    2    1    2    0    0 -0.24739499318E+03 -0.39123688714E+02 -0.85748885800E+03  0.89806483875E+03  0.92186589828E+02 0.  0.
        254    2    1    2    0    0  0.24739499318E+03  0.39123688714E+02 -0.11024406227E+04  0.14437713584E+04  0.89797854255E+03 0.  0.
        -24    2    4    4    0    0  0.51538590761E+03  0.17554545978E+03 -0.94921848607E+03  0.10972057063E+04  0.80036151129E+02 0.  0.
         24    2    4    4    0    0 -0.26799091443E+03 -0.13642177107E+03 -0.15322213667E+03  0.34656565203E+03  0.78744511962E+02 0.  0.
         11    1    3    3    0    0  0.44241449896E+01 -0.10374873380E+02 -0.66835338889E+02  0.67780333290E+02  0.00000000000E+00 0.  1.
        -11    1    3    3    0    0 -0.25181913817E+03 -0.28748815334E+02 -0.79065351911E+03  0.83028450546E+03  0.00000000000E+00 0. -1.
          2    1    6    6  502    0 -0.26620997026E+03 -0.11774764188E+03 -0.15023290532E+03  0.32757011658E+03  0.00000000000E+00 0. -1.
          3    1    5    5  503    0  0.51587792935E+03  0.16930405896E+03 -0.92886229394E+03  0.10759084829E+04  0.00000000000E+00 0. -1.
         -4    1    5    5    0  503 -0.49202174350E+00  0.62414008251E+01 -0.20356192130E+02  0.21297223474E+02  0.00000000000E+00 0.  1.
         -1    1    6    6    0  502 -0.17809441670E+01 -0.18674129185E+02 -0.29892313469E+01  0.18995535449E+02  0.00000000000E+00 0.  1.
<mgrwt>
<rscale>  0 0.12817462E+04</rscale>
<asrwt>0</asrwt>
<pdfrwt beam="1">  1        2 0.33090509E+00 0.12817462E+04</pdfrwt>
<pdfrwt beam="2">  1       -2 0.29377436E-01 0.12817462E+04</pdfrwt>
<totfact> 0.57694353E+01</totfact>
</mgrwt>
</event>
<event>
12    1  0.1504874E-007  0.2617428E+04  0.7818608E-02  0.8362305E-01
         -2   -1    0    0    0  501 -0.00000000000E+00  0.00000000000E+00  0.82089518084E+03  0.82089518084E+03  0.00000000000E+00 0. -1.
          2   -1    0    0  501    0  0.00000000000E+00 -0.00000000000E+00 -0.20864205439E+04  0.20864205439E+04  0.00000000000E+00 0.  1.
         23    2    1    2    0    0  0.12046867761E+03 -0.44378234022E+03 -0.17337327202E+04  0.17959178134E+04  0.89644742433E+02 0.  0.
        254    2    1    2    0    0 -0.12046867761E+03  0.44378234022E+03  0.46820735706E+03  0.11113979114E+04  0.89695692226E+03 0.  0.
        -24    2    4    4    0    0  0.13734581616E+03 -0.10130043035E+03 -0.15218760933E+03  0.24244150133E+03  0.80567752415E+02 0.  0.
         24    2    4    4    0    0 -0.25781449377E+03  0.54508277057E+03  0.62039496638E+03  0.86895641003E+03  0.81312903319E+02 0.  0.
         13    1    3    3    0    0  0.35595446279E+02 -0.52741966693E+02 -0.33899184416E+03  0.34491190361E+03  0.00000000000E+00 0. -1.
        -13    1    3    3    0    0  0.84873231332E+02 -0.39104037353E+03 -0.13947408760E+04  0.14510059098E+04  0.00000000000E+00 0.  1.
          4    1    6    6  502    0 -0.19477832105E+03  0.42307207943E+03  0.52455390699E+03  0.70148797572E+03  0.00000000000E+00 0. -1.
          3    1    5    5  503    0  0.22118258574E+02 -0.27414290411E+02 -0.80620847166E+02  0.87980007268E+02  0.00000000000E+00 0. -1.
         -4    1    5    5    0  503  0.11522755758E+03 -0.73886139936E+02 -0.71566762162E+02  0.15446149406E+03  0.00000000000E+00 0.  1.
         -3    1    6    6    0  502 -0.63036172714E+02  0.12201069114E+03  0.95841059393E+02  0.16746843430E+03  0.00000000000E+00 0.  1.
<mgrwt>
<rscale>  0 0.26174282E+04</rscale>
<asrwt>0</asrwt>
<pdfrwt beam="1">  1        2 0.32098777E+00 0.26174282E+04</pdfrwt>
<pdfrwt beam="2">  1       -2 0.12629157E+00 0.26174282E+04</pdfrwt>
<totfact> 0.24677453E+00</totfact>
</mgrwt>
</event>
<event>
12    1  0.1504874E-007  0.1431288E+04  0.7818608E-02  0.8931477E-01
         -2   -1    0    0    0  501 -0.00000000000E+00  0.00000000000E+00  0.31342564813E+03  0.31342564813E+03  0.00000000000E+00 0.  1.
          2   -1    0    0  501    0  0.00000000000E+00 -0.00000000000E+00 -0.16340285212E+04  0.16340285212E+04  0.00000000000E+00 0. -1.
         23    2    1    2    0    0  0.87530909808E+02 -0.78124491953E+02  0.15660642541E+03  0.21596879014E+03  0.91388453429E+02 0.  0.
        254    2    1    2    0    0 -0.87530909808E+02  0.78124491953E+02 -0.14772092985E+04  0.17314853792E+04  0.89561666486E+03 0.  0.
        -24    2    4    4    0    0  0.34426880266E+03 -0.30431284883E+02 -0.10529832603E+04  0.11115442205E+04  0.85496995166E+02 0.  0.
         24    2    4    4    0    0 -0.43179971246E+03  0.10855577684E+03 -0.42422603815E+03  0.61994115860E+03  0.78255736626E+02 0.  0.
         13    1    3    3    0    0  0.10527558811E+03 -0.77825920291E+02  0.13602968488E+03  0.18879591756E+03  0.00000000000E+00 0.  1.
        -13    1    3    3    0    0 -0.17744678302E+02 -0.29857166160E+00  0.20576740536E+02  0.27172872578E+02  0.00000000000E+00 0. -1.
          2    1    6    6  502    0 -0.41863670630E+03  0.10112747174E+03 -0.42464678663E+03  0.60482092457E+03  0.00000000000E+00 0. -1.
          1    1    5    5  503    0  0.31792069390E+03 -0.14043566828E+02 -0.87937953007E+03  0.93518936440E+03  0.00000000000E+00 0. -1.
         -2    1    5    5    0  503  0.26348108757E+02 -0.16387718055E+02 -0.17360373023E+03  0.17635485615E+03  0.00000000000E+00 0.  1.
         -1    1    6    6    0  502 -0.13163006162E+02  0.74283050961E+01  0.42074848079E+00  0.15120234029E+02  0.00000000000E+00 0.  1.
<mgrwt>
<rscale>  0 0.14312882E+04</rscale>
<asrwt>0</asrwt>
<pdfrwt beam="1">  1        2 0.25138900E+00 0.14312882E+04</pdfrwt>
<pdfrwt beam="2">  1       -2 0.48219331E-01 0.14312882E+04</pdfrwt>
<totfact> 0.42223516E+01</totfact>
</mgrwt>
</event>
<event>
12    1  0.1861695E-007  0.1948272E+04  0.7818608E-02  0.8631194E-01
         -2   -1    0    0    0  501 -0.00000000000E+00  0.00000000000E+00  0.99514298617E+03  0.99514298617E+03  0.00000000000E+00 0.  1.
          2   -1    0    0  501    0  0.00000000000E+00 -0.00000000000E+00 -0.95357269268E+03  0.95357269268E+03  0.00000000000E+00 0. -1.
         23    2    1    2    0    0 -0.72156710649E+03 -0.15330728009E+03  0.23899592790E+03  0.78096207143E+03  0.92846605511E+02 0.  0.
        254    2    1    2    0    0  0.72156710649E+03  0.15330728009E+03 -0.19742563441E+03  0.11677536074E+04  0.88346442782E+03 0.  0.
        -24    2    4    4    0    0  0.44968846518E+03  0.48932182542E+03 -0.27151401678E+03  0.72225588782E+03  0.79234724978E+02 0.  0.
         24    2    4    4    0    0  0.27187864132E+03 -0.33601454533E+03  0.74088382364E+02  0.44549771960E+03  0.78456099141E+02 0.  0.
         11    1    3    3    0    0  0.27920532099E+01  0.49119545098E+00  0.19459179539E+01  0.34385215982E+01  0.00000000000E+00 0.  1.
        -11    1    3    3    0    0 -0.72435915970E+03 -0.15379847554E+03  0.23705000994E+03  0.77752354983E+03  0.00000000000E+00 0. -1.
          4    1    6    6  502    0  0.18228523505E+03 -0.21819383608E+03  0.85902074099E+02  0.29701115022E+03  0.00000000000E+00 0. -1.
          1    1    5    5  503    0  0.22444089369E+03  0.24083559064E+03 -0.17719238546E+03  0.37386178989E+03  0.00000000000E+00 0. -1.
         -2    1    5    5    0  503  0.22524757149E+03  0.24848623478E+03 -0.94321631320E+02  0.34839409793E+03  0.00000000000E+00 0.  1.
         -3    1    6    6    0  502  0.89593406267E+02 -0.11782070925E+03 -0.11813691735E+02  0.14848656938E+03  0.00000000000E+00 0.  1.
<mgrwt>
<rscale>  0 0.19482722E+04</rscale>
<asrwt>0</asrwt>
<pdfrwt beam="1">  1        2 0.14670349E+00 0.19482722E+04</pdfrwt>
<pdfrwt beam="2">  1       -2 0.15309892E+00 0.19482722E+04</pdfrwt>
<totfact> 0.71468765E+00</totfact>
</mgrwt>
</event>
<event>
12    1  0.1504874E-007  0.2396218E+04  0.7818608E-02  0.8440921E-01
          1   -1    0    0  501    0  0.00000000000E+00  0.00000000000E+00  0.19874961801E+04  0.19874961801E+04  0.00000000000E+00 0. -1.
         -1   -1    0    0    0  501 -0.00000000000E+00 -0.00000000000E+00 -0.72224777638E+03  0.72224777638E+03  0.00000000000E+00 0.  1.
         23    2    1    2    0    0 -0.83710367126E+03  0.37832797032E+03  0.10444099896E+04  0.13938706713E+04  0.90601393541E+02 0.  0.
        254    2    1    2    0    0  0.83710367126E+03 -0.37832797032E+03  0.22083841412E+03  0.13158732851E+04  0.91590299037E+03 0.  0.
        -24    2    4    4    0    0  0.69889020395E+00 -0.38397593704E+03  0.26611419111E+03  0.47416152415E+03  0.81082548038E+02 0.  0.
         24    2    4    4    0    0  0.83640478106E+03  0.56479667192E+01 -0.45275776999E+02  0.84171176097E+03  0.82607113894E+02 0.  0.
         11    1    3    3    0    0 -0.36991292039E+03  0.11985067840E+03  0.42224262274E+03  0.57401096353E+03  0.00000000000E+00 0.  1.
        -11    1    3    3    0    0 -0.46719075087E+03  0.25847729192E+03  0.62216736683E+03  0.81985970781E+03  0.00000000000E+00 0. -1.
          2    1    6    6  502    0  0.11278001403E+03  0.26035233467E+02  0.66728353692E+01  0.11593830980E+03  0.00000000000E+00 0. -1.
          1    1    5    5  503    0  0.34936242794E+01 -0.73865615263E+01 -0.54847611949E+01  0.98412045580E+01  0.00000000000E+00 0. -1.
         -2    1    5    5    0  503 -0.27947340754E+01 -0.37658937551E+03  0.27159895231E+03  0.46432031959E+03  0.00000000000E+00 0.  1.
         -1    1    6    6    0  502  0.72362476703E+03 -0.20387266748E+02 -0.51948612368E+02  0.72577345118E+03  0.00000000000E+00 0.  1.
<mgrwt>
<rscale>  0 0.23962176E+04</rscale>
<asrwt>0</asrwt>
<pdfrwt beam="1">  1        1 0.30576864E+00 0.23962176E+04</pdfrwt>
<pdfrwt beam="2">  1       -1 0.11111504E+00 0.23962176E+04</pdfrwt>
<totfact> 0.20294082E+00</totfact>
</mgrwt>
</event>
<event>
12    1  0.1504874E-007  0.1631735E+04  0.7818608E-02  0.8801286E-01
         -1   -1    0    0    0  501 -0.00000000000E+00  0.00000000000E+00  0.94050298341E+03  0.94050298341E+03  0.00000000000E+00 0.  1.
          1   -1    0    0  501    0  0.00000000000E+00 -0.00000000000E+00 -0.70774874814E+03  0.70774874814E+03  0.00000000000E+00 0. -1.
         23    2    1    2    0    0 -0.25887736978E+03  0.30257212947E+03 -0.32319563538E+03  0.52119749684E+03  0.92865633428E+02 0.  0.
        254    2    1    2    0    0  0.25887736978E+03 -0.30257212947E+03  0.55594987065E+03  0.11270542347E+04  0.89588146715E+03 0.  0.
        -24    2    4    4    0    0  0.22233928421E+02  0.13671870115E+03  0.59856363395E+03  0.61956439270E+03  0.79970382032E+02 0.  0.
         24    2    4    4    0    0  0.23664344135E+03 -0.43929083062E+03 -0.42613763298E+02  0.50748984201E+03  0.82179405666E+02 0.  0.
         11    1    3    3    0    0 -0.17995823086E+03  0.25078951035E+03 -0.28240636596E+03  0.41837028921E+03  0.00000000000E+00 0. -1.
        -11    1    3    3    0    0 -0.78919138918E+02  0.51782619114E+02 -0.40789269421E+02  0.10282720763E+03  0.00000000000E+00 0.  1.
          2    1    6    6  502    0  0.19520917667E+02 -0.19333563423E+02  0.14874823177E+02  0.31242811425E+02  0.00000000000E+00 0. -1.
          1    1    5    5  503    0  0.35920797236E+02  0.17605087778E+02  0.15598184832E+03  0.16102974817E+03  0.00000000000E+00 0. -1.
         -2    1    5    5    0  503 -0.13686868815E+02  0.11911361337E+03  0.44258178563E+03  0.45853464453E+03  0.00000000000E+00 0.  1.
         -1    1    6    6    0  502  0.21712252369E+03 -0.41995726719E+03 -0.57488586475E+02  0.47624703058E+03  0.00000000000E+00 0.  1.
<mgrwt>
<rscale>  0 0.16317350E+04</rscale>
<asrwt>0</asrwt>
<pdfrwt beam="1">  1        1 0.10888442E+00 0.16317350E+04</pdfrwt>
<pdfrwt beam="2">  1       -1 0.14469277E+00 0.16317350E+04</pdfrwt>
<totfact> 0.98526649E+00</totfact>
</mgrwt>
</event>
<event>
12    1  0.1504874E-007  0.1637835E+04  0.7818608E-02  0.8797636E-01
         -1   -1    0    0    0  501 -0.00000000000E+00  0.00000000000E+00  0.15968320322E+04  0.15968320322E+04  0.00000000000E+00 0.  1.
          1   -1    0    0  501    0  0.00000000000E+00 -0.00000000000E+00 -0.41997248164E+03  0.41997248164E+03  0.00000000000E+00 0. -1.
         23    2    1    2    0    0 -0.28880596564E+03 -0.20988347941E+03 -0.13188780684E+03  0.39119512054E+03  0.90439305748E+02 0.  0.
        254    2    1    2    0    0  0.28880596564E+03  0.20988347941E+03  0.13087473574E+04  0.16256093933E+04  0.89572668453E+03 0.  0.
        -24    2    4    4    0    0 -0.27799718699E+03 -0.68818173470E+01  0.72210320487E+03  0.77792844691E+03  0.80061442903E+02 0.  0.
         24    2    4    4    0    0  0.56680315264E+03  0.21676529675E+03  0.58664415256E+03  0.84768094642E+03  0.78476859451E+02 0.  0.
         13    1    3    3    0    0 -0.26562320490E+03 -0.15701944246E+03 -0.12554011112E+03  0.33312326816E+03  0.00000000000E+00 0. -1.
        -13    1    3    3    0    0 -0.23182760746E+02 -0.52864036948E+02 -0.63476957251E+01  0.58071852383E+02  0.00000000000E+00 0.  1.
          4    1    6    6  502    0  0.49289882315E+02  0.38828798777E+02  0.82149596717E+02  0.10337177736E+03  0.00000000000E+00 0. -1.
          1    1    5    5  503    0 -0.35143671046E+02  0.22967044457E+02  0.72589743705E+02  0.83856029222E+02  0.00000000000E+00 0. -1.
         -2    1    5    5    0  503 -0.24285351595E+03 -0.29848861804E+02  0.64951346117E+03  0.69407241769E+03  0.00000000000E+00 0.  1.
         -3    1    6    6    0  502  0.51751327032E+03  0.17793649798E+03  0.50449455584E+03  0.74430916906E+03  0.00000000000E+00 0.  1.
<mgrwt>
<rscale>  0 0.16378346E+04</rscale>
<asrwt>0</asrwt>
<pdfrwt beam="1">  1        1 0.64611152E-01 0.16378346E+04</pdfrwt>
<pdfrwt beam="2">  1       -1 0.24566646E+00 0.16378346E+04</pdfrwt>
<totfact> 0.40023129E+00</totfact>
</mgrwt>
</event>
<event>
12    1  0.1504874E-007  0.1049112E+04  0.7818608E-02  0.9256262E-01
         -1   -1    0    0    0  501 -0.00000000000E+00  0.00000000000E+00  0.35138727852E+03  0.35138727852E+03  0.00000000000E+00 0.  1.
          1   -1    0    0  501    0  0.00000000000E+00 -0.00000000000E+00 -0.78306444712E+03  0.78306444712E+03  0.00000000000E+00 0. -1.
         23    2    1    2    0    0 -0.93358290148E+02 -0.24963036645E+02 -0.10814468059E+03  0.17241525287E+03  0.93235314912E+02 0.  0.
        254    2    1    2    0    0  0.93358290148E+02  0.24963036645E+02 -0.32353248801E+03  0.96203647277E+03  0.90083404720E+03 0.  0.
        -24    2    4    4    0    0  0.23761744743E+03  0.36943416094E+03 -0.36703782704E+03  0.57805293393E+03  0.80528115260E+02 0.  0.
         24    2    4    4    0    0 -0.14425915729E+03 -0.34447112429E+03  0.43505339028E+02  0.38398353884E+03  0.77971684903E+02 0.  0.
         13    1    3    3    0    0 -0.57626520114E+02 -0.19163867841E+02 -0.11986034493E+03  0.13436730234E+03  0.00000000000E+00 0. -1.
        -13    1    3    3    0    0 -0.35731770034E+02 -0.57991688043E+01  0.11715664348E+02  0.38047950532E+02  0.00000000000E+00 0.  1.
          4    1    6    6  502    0 -0.40789956184E+00  0.21435696931E+01  0.65319637108E+01  0.68867861156E+01  0.00000000000E+00 0. -1.
          1    1    5    5  503    0  0.74622568110E+01  0.11138776139E+02 -0.36785254189E+02  0.39152426953E+02  0.00000000000E+00 0. -1.
         -2    1    5    5    0  503  0.23015519062E+03  0.35829538480E+03 -0.33025257285E+03  0.53890050697E+03  0.00000000000E+00 0.  1.
         -3    1    6    6    0  502 -0.14385125772E+03 -0.34661469399E+03  0.36973375317E+02  0.37709675273E+03  0.00000000000E+00 0.  1.
<mgrwt>
<rscale>  0 0.10491118E+04</rscale>
<asrwt>0</asrwt>
<pdfrwt beam="1">  1        1 0.12047145E+00 0.10491118E+04</pdfrwt>
<pdfrwt beam="2">  1       -1 0.54059582E-01 0.10491118E+04</pdfrwt>
<totfact> 0.79009645E+01</totfact>
</mgrwt>
</event>
<event>
12    1  0.1504874E-007  0.1090027E+04  0.7818608E-02  0.9214967E-01
         -2   -1    0    0    0  501 -0.00000000000E+00  0.00000000000E+00  0.25540216996E+03  0.25540216996E+03  0.00000000000E+00 0.  1.
          2   -1    0    0  501    0  0.00000000000E+00 -0.00000000000E+00 -0.11630272739E+04  0.11630272739E+04  0.00000000000E+00 0. -1.
         23    2    1    2    0    0  0.13442854711E+03  0.24664130250E+02 -0.25440585368E+03  0.30307770214E+03  0.91947819708E+02 0.  0.
        254    2    1    2    0    0 -0.13442854711E+03 -0.24664130250E+02 -0.65321925028E+03  0.11153517417E+04  0.89366367569E+03 0.  0.
        -24    2    4    4    0    0  0.12364787816E+03  0.15770813286E+03 -0.74589617877E+03  0.77658744030E+03  0.81032647671E+02 0.  0.
         24    2    4    4    0    0 -0.25807642527E+03 -0.18237226311E+03  0.92676928490E+02  0.33876430143E+03  0.79430190833E+02 0.  0.
         11    1    3    3    0    0  0.70133280006E+02 -0.13084686198E+02 -0.19533402069E+03  0.20795496055E+03  0.00000000000E+00 0. -1.
        -11    1    3    3    0    0  0.64295267106E+02  0.37748816448E+02 -0.59071832987E+02  0.95122741592E+02  0.00000000000E+00 0.  1.
          4    1    6    6  502    0 -0.21433043625E+03 -0.18012379899E+03  0.92840918563E+02  0.29496026008E+03  0.00000000000E+00 0. -1.
          3    1    5    5  503    0  0.24064484563E+02  0.51441455714E+02 -0.10522987965E+03  0.11957696415E+03  0.00000000000E+00 0. -1.
         -4    1    5    5    0  503  0.99583393593E+02  0.10626667715E+03 -0.64066629911E+03  0.65701047615E+03  0.00000000000E+00 0.  1.
         -3    1    6    6    0  502 -0.43745989014E+02 -0.22484641253E+01 -0.16399007309E+00  0.43804041349E+02  0.00000000000E+00 0.  1.
<mgrwt>
<rscale>  0 0.10900270E+04</rscale>
<asrwt>0</asrwt>
<pdfrwt beam="1">  1        2 0.17892728E+00 0.10900270E+04</pdfrwt>
<pdfrwt beam="2">  1       -2 0.39292641E-01 0.10900270E+04</pdfrwt>
<totfact> 0.12119772E+02</totfact>
</mgrwt>
</event>
<event>
12    1  0.1504874E-007  0.3928662E+04  0.7818608E-02  0.8019094E-01
         -2   -1    0    0    0  501 -0.00000000000E+00  0.00000000000E+00  0.72724488385E+03  0.72724488385E+03  0.00000000000E+00 0.  1.
          2   -1    0    0  501    0  0.00000000000E+00 -0.00000000000E+00 -0.53057727753E+04  0.53057727753E+04  0.00000000000E+00 0. -1.
         23    2    1    2    0    0  0.28761097003E+03  0.17607072369E+04 -0.29900462626E+04  0.34829859114E+04  0.89465982364E+02 0.  0.
        254    2    1    2    0    0 -0.28761097003E+03 -0.17607072369E+04 -0.15884816288E+04  0.25500317478E+04  0.89251217658E+03 0.  0.
        -24    2    4    4    0    0 -0.32675114867E+02 -0.10508699094E+04 -0.37624410151E+03  0.11195235677E+04  0.79863415890E+02 0.  0.
         24    2    4    4    0    0 -0.25493585516E+03 -0.70983732751E+03 -0.12122375273E+04  0.14305081800E+04  0.89288906058E+02 0.  0.
         11    1    3    3    0    0  0.24417643724E+03  0.14133359303E+04 -0.24658610471E+04  0.28526498713E+04  0.00000000000E+00 0. -1.
        -11    1    3    3    0    0  0.43434532786E+02  0.34737130659E+03 -0.52418521550E+03  0.63033604008E+03  0.00000000000E+00 0.  1.
          4    1    6    6  502    0 -0.22100254189E+03 -0.65724638677E+03 -0.11454212550E+04  0.13389566041E+04  0.00000000000E+00 0. -1.
          1    1    5    5  503    0 -0.26386821874E+02 -0.87991536907E+03 -0.28294237162E+03  0.92466410483E+03  0.00000000000E+00 0. -1.
         -2    1    5    5    0  503 -0.62882929928E+01 -0.17095454033E+03 -0.93301729891E+02  0.19485946292E+03  0.00000000000E+00 0.  1.
         -3    1    6    6    0  502 -0.33933313278E+02 -0.52590940741E+02 -0.66816272325E+02  0.91551575876E+02  0.00000000000E+00 0.  1.
<mgrwt>
<rscale>  0 0.39286619E+04</rscale>
<asrwt>0</asrwt>
<pdfrwt beam="1">  1        2 0.81627271E+00 0.39286619E+04</pdfrwt>
<pdfrwt beam="2">  1       -2 0.11188383E+00 0.39286619E+04</pdfrwt>
<totfact> 0.62966049E-03</totfact>
</mgrwt>
</event>
<event>
12    1  0.1627934E-007  0.1778113E+04  0.7818608E-02  0.8718026E-01
          2   -1    0    0  501    0  0.00000000000E+00  0.00000000000E+00  0.16877016906E+04  0.16877016906E+04  0.00000000000E+00 0. -1.
         -2   -1    0    0    0  501 -0.00000000000E+00 -0.00000000000E+00 -0.46834212741E+03  0.46834212741E+03  0.00000000000E+00 0.  1.
         23    2    1    2    0    0  0.33246078198E+02 -0.65900649252E+03  0.43747928500E+03  0.79644650489E+03  0.86856499169E+02 0.  0.
        254    2    1    2    0    0 -0.33246078198E+02  0.65900649252E+03  0.78188027819E+03  0.13595973131E+04  0.89541790551E+03 0.  0.
        -24    2    4    4    0    0  0.36339319434E+03  0.40114436424E+03  0.15151087869E+03  0.56749760874E+03  0.78272440282E+02 0.  0.
         24    2    4    4    0    0 -0.39663927254E+03  0.25786212828E+03  0.63036939950E+03  0.79209970438E+03  0.78998557793E+02 0.  0.
         11    1    3    3    0    0  0.12603804699E+02 -0.39097658451E+03  0.20824926316E+03  0.44315832513E+03  0.00000000000E+00 0.  1.
        -11    1    3    3    0    0  0.20642273499E+02 -0.26802990801E+03  0.22923002184E+03  0.35328817976E+03  0.00000000000E+00 0. -1.
          2    1    6    6  502    0 -0.25410415491E+03  0.20558391035E+03  0.40655904785E+03  0.52165498668E+03  0.00000000000E+00 0. -1.
          1    1    5    5  503    0  0.32662048664E+03  0.33061066568E+03  0.10918923949E+03  0.47739568973E+03  0.00000000000E+00 0. -1.
         -2    1    5    5    0  503  0.36772707701E+02  0.70533698556E+02  0.42321639198E+02  0.90101919003E+02  0.00000000000E+00 0.  1.
         -1    1    6    6    0  502 -0.14253511763E+03  0.52278217926E+02  0.22381035164E+03  0.27044471770E+03  0.00000000000E+00 0.  1.
<mgrwt>
<rscale>  0 0.17781134E+04</rscale>
<asrwt>0</asrwt>
<pdfrwt beam="1">  1        2 0.25964641E+00 0.17781134E+04</pdfrwt>
<pdfrwt beam="2">  1       -2 0.72052636E-01 0.17781134E+04</pdfrwt>
<totfact> 0.16437161E+01</totfact>
</mgrwt>
</event>
<event>
12    1  0.1504874E-007  0.3982488E+04  0.7818608E-02  0.8008089E-01
         -1   -1    0    0    0  501 -0.00000000000E+00  0.00000000000E+00  0.24360703141E+04  0.24360703141E+04  0.00000000000E+00 0.  1.
          1   -1    0    0  501    0  0.00000000000E+00 -0.00000000000E+00 -0.16276427241E+04  0.16276427241E+04  0.00000000000E+00 0. -1.
         23    2    1    2    0    0  0.84900691019E+03 -0.45773320799E+03 -0.12727881959E+04  0.15996434816E+04  0.92396176036E+02 0.  0.
        254    2    1    2    0    0 -0.84900691019E+03  0.45773320799E+03  0.20812157860E+04  0.24640695566E+04  0.89991511188E+03 0.  0.
        -24    2    4    4    0    0 -0.35673473636E+03  0.25794279010E+03  0.16901772309E+03  0.47793774384E+03  0.77867458980E+02 0.  0.
         24    2    4    4    0    0 -0.49227217383E+03  0.19979041788E+03  0.19121980629E+04  0.19861318127E+04  0.77266044867E+02 0.  0.
         13    1    3    3    0    0  0.21324130722E+03 -0.83396738478E+02 -0.25713513994E+03  0.34430415520E+03  0.00000000000E+00 0.  1.
        -13    1    3    3    0    0  0.63576560297E+03 -0.37433646951E+03 -0.10156530560E+04  0.12553393264E+04  0.00000000000E+00 0. -1.
          2    1    6    6  502    0 -0.38806167148E+02 -0.50833909406E+01  0.15086261632E+03  0.15585662795E+03  0.00000000000E+00 0. -1.
          1    1    5    5  503    0 -0.23970922700E+03  0.21518789922E+03  0.13012307207E+03  0.34741669414E+03  0.00000000000E+00 0. -1.
         -2    1    5    5    0  503 -0.11702550936E+03  0.42754890880E+02  0.38894651023E+02  0.13052104969E+03  0.00000000000E+00 0.  1.
         -1    1    6    6    0  502 -0.45346600668E+03  0.20487380883E+03  0.17613354465E+04  0.18302751848E+04  0.00000000000E+00 0.  1.
<mgrwt>
<rscale>  0 0.39824877E+04</rscale>
<asrwt>0</asrwt>
<pdfrwt beam="1">  1        1 0.25040657E+00 0.39824877E+04</pdfrwt>
<pdfrwt beam="2">  1       -1 0.37478005E+00 0.39824877E+04</pdfrwt>
<totfact> 0.44397504E-02</totfact>
</mgrwt>
</event>
<event>
12    1  0.1504874E-007  0.1194014E+04  0.7818608E-02  0.9118113E-01
         -2   -1    0    0    0  501 -0.00000000000E+00  0.00000000000E+00  0.21740555358E+03  0.21740555358E+03  0.00000000000E+00 0.  1.
          2   -1    0    0  501    0  0.00000000000E+00 -0.00000000000E+00 -0.16394113311E+04  0.16394113311E+04  0.00000000000E+00 0. -1.
         23    2    1    2    0    0  0.44486846841E+02  0.82528710857E+02 -0.64952128371E+03  0.66206231091E+03  0.87513072603E+02 0.  0.
        254    2    1    2    0    0 -0.44486846841E+02 -0.82528710857E+02 -0.77248449377E+03  0.11947545737E+04  0.90659590263E+03 0.  0.
        -24    2    4    4    0    0 -0.25418235735E+03  0.13529554064E+03 -0.82601595570E+03  0.87810020690E+03  0.76446452988E+02 0.  0.
         24    2    4    4    0    0  0.20969551051E+03 -0.21782425150E+03  0.53531461934E+02  0.31665436683E+03  0.77361223811E+02 0.  0.
         11    1    3    3    0    0  0.51419430555E+02  0.17457959028E+02 -0.18029979950E+03  0.18829964385E+03  0.00000000000E+00 0.  1.
        -11    1    3    3    0    0 -0.69325837139E+01  0.65070751829E+02 -0.46922148421E+03  0.47376266706E+03  0.00000000000E+00 0. -1.
          4    1    6    6  502    0  0.16037088582E+03 -0.18791296958E+03  0.15434939212E+02  0.24752442809E+03  0.00000000000E+00 0. -1.
          1    1    5    5  503    0 -0.21951186345E+03  0.10162404038E+03 -0.74978993485E+03  0.78784379809E+03  0.00000000000E+00 0. -1.
         -2    1    5    5    0  503 -0.34670493899E+02  0.33671500256E+02 -0.76226020851E+02  0.90256408811E+02  0.00000000000E+00 0.  1.
         -3    1    6    6    0  502  0.49324624686E+02 -0.29911281921E+02  0.38096522721E+02  0.69129938738E+02  0.00000000000E+00 0.  1.
<mgrwt>
<rscale>  0 0.11940136E+04</rscale>
<asrwt>0</asrwt>
<pdfrwt beam="1">  1        2 0.25221714E+00 0.11940136E+04</pdfrwt>
<pdfrwt beam="2">  1       -2 0.33447007E-01 0.11940136E+04</pdfrwt>
<totfact> 0.87384238E+01</totfact>
</mgrwt>
</event>
<event>
12    1  0.1504874E-007  0.1905332E+04  0.7818608E-02  0.8652207E-01
         -2   -1    0    0    0  501 -0.00000000000E+00  0.00000000000E+00  0.17908610511E+03  0.17908610511E+03  0.00000000000E+00 0.  1.
          2   -1    0    0  501    0  0.00000000000E+00 -0.00000000000E+00 -0.50677981375E+04  0.50677981375E+04  0.00000000000E+00 0. -1.
         23    2    1    2    0    0 -0.23088237080E+03 -0.20616120090E+03 -0.64844989803E+02  0.32918223146E+03  0.91361692763E+02 0.  0.
        254    2    1    2    0    0  0.23088237080E+03  0.20616120090E+03 -0.48238670426E+04  0.49177020112E+04  0.90459422722E+03 0.  0.
        -24    2    4    4    0    0  0.60709819328E+02 -0.29945375690E+03 -0.29811749425E+04  0.29976577042E+04  0.72037764184E+02 0.  0.
         24    2    4    4    0    0  0.17017255147E+03  0.50561495780E+03 -0.18426921002E+04  0.19200443070E+04  0.80316759323E+02 0.  0.
         11    1    3    3    0    0 -0.10878156883E+02  0.88913731201E+01  0.24373116535E+01  0.14259428503E+02  0.00000000000E+00 0. -1.
        -11    1    3    3    0    0 -0.22000421392E+03 -0.21505257402E+03 -0.67282301456E+02  0.31492280296E+03  0.00000000000E+00 0.  1.
          4    1    6    6  502    0  0.18979188292E+02  0.16292054913E+03 -0.61367196281E+03  0.63521381665E+03  0.00000000000E+00 0. -1.
          3    1    5    5  503    0  0.55439924163E+02 -0.13488941985E+03 -0.11814841318E+04  0.11904509626E+04  0.00000000000E+00 0. -1.
         -4    1    5    5    0  503  0.52698951646E+01 -0.16456433705E+03 -0.17996908107E+04  0.18072067416E+04  0.00000000000E+00 0.  1.
         -3    1    6    6    0  502  0.15119336318E+03  0.34269440867E+03 -0.12290201374E+04  0.12848304903E+04  0.00000000000E+00 0.  1.
<mgrwt>
<rscale>  0 0.19053317E+04</rscale>
<asrwt>0</asrwt>
<pdfrwt beam="1">  1        2 0.77966125E+00 0.19053317E+04</pdfrwt>
<pdfrwt beam="2">  1       -2 0.27551708E-01 0.19053317E+04</pdfrwt>
<totfact> 0.32531825E-01</totfact>
</mgrwt>
</event>
<event>
12    1  0.1504874E-007  0.1883880E+04  0.7818608E-02  0.8662922E-01
          2   -1    0    0  501    0  0.00000000000E+00  0.00000000000E+00  0.38267101098E+04  0.38267101098E+04  0.00000000000E+00 0.  1.
         -2   -1    0    0    0  501 -0.00000000000E+00 -0.00000000000E+00 -0.23185740496E+03  0.23185740496E+03  0.00000000000E+00 0. -1.
         23    2    1    2    0    0 -0.55895941012E+03 -0.44829025087E+03  0.15479658600E+04  0.17081164244E+04  0.89797797377E+02 0.  0.
        254    2    1    2    0    0  0.55895941012E+03  0.44829025087E+03  0.20468868449E+04  0.23504510904E+04  0.90635247082E+03 0.  0.
        -24    2    4    4    0    0  0.50014977376E+03  0.37702664608E+03  0.21179034931E+04  0.22100405249E+04  0.80405395603E+02 0.  0.
         24    2    4    4    0    0  0.58809636360E+02  0.71263604786E+02 -0.71016648240E+02  0.14041056545E+03  0.78324248269E+02 0.  0.
         13    1    3    3    0    0 -0.45592609445E+03 -0.37756167117E+03  0.13488514716E+04  0.14730314700E+04  0.00000000000E+00 0.  1.
        -13    1    3    3    0    0 -0.10303331567E+03 -0.70728579702E+02  0.19911438836E+03  0.23508495438E+03  0.00000000000E+00 0. -1.
          4    1    6    6  502    0  0.53358938023E+02  0.54245527933E+02 -0.87599474712E+02  0.11603198498E+03  0.00000000000E+00 0. -1.
          3    1    5    5  503    0  0.39109568746E+03  0.33062806526E+03  0.16735917210E+04  0.17501942758E+04  0.00000000000E+00 0. -1.
         -4    1    5    5    0  503  0.10905408631E+03  0.46398580821E+02  0.44431177212E+03  0.45984624918E+03  0.00000000000E+00 0.  1.
         -3    1    6    6    0  502  0.54506983372E+01  0.17018076852E+02  0.16582826472E+02  0.24378580474E+02  0.00000000000E+00 0.  1.
<mgrwt>
<rscale>  0 0.18838801E+04</rscale>
<asrwt>0</asrwt>
<pdfrwt beam="1">  1        2 0.58872459E+00 0.18838801E+04</pdfrwt>
<pdfrwt beam="2">  1       -2 0.35670373E-01 0.18838801E+04</pdfrwt>
<totfact> 0.32804421E+00</totfact>
</mgrwt>
</event>
<event>
12    1  0.1504874E-007  0.1559623E+04  0.7818608E-02  0.8845745E-01
          2   -1    0    0  501    0  0.00000000000E+00  0.00000000000E+00  0.21027511336E+04  0.21027511336E+04  0.00000000000E+00 0. -1.
         -2   -1    0    0    0  501 -0.00000000000E+00 -0.00000000000E+00 -0.28919530940E+03  0.28919530940E+03  0.00000000000E+00 0.  1.
         23    2    1    2    0    0  0.22510228506E+02  0.40443355358E+03  0.12262630248E+03  0.43307785352E+03  0.91902162667E+02 0.  0.
        254    2    1    2    0    0 -0.22510228506E+02 -0.40443355358E+03  0.16909295217E+04  0.19588685895E+04  0.90213651619E+03 0.  0.
        -24    2    4    4    0    0 -0.27902216097E+03 -0.89141756581E+02  0.14461312636E+04  0.14776293239E+04  0.79329490995E+02 0.  0.
         24    2    4    4    0    0  0.25651193246E+03 -0.31529179699E+03  0.24479825816E+03  0.48123926566E+03  0.80360157195E+02 0.  0.
         13    1    3    3    0    0  0.43582203228E+02  0.33861004441E+03  0.12592169942E+03  0.36388520854E+03  0.00000000000E+00 0. -1.
        -13    1    3    3    0    0 -0.21071974722E+02  0.65823509170E+02 -0.32953969347E+01  0.69192644978E+02  0.00000000000E+00 0.  1.
          4    1    6    6  502    0  0.53687267787E+02 -0.24447953565E+02  0.45386577989E+02  0.74430952013E+02  0.00000000000E+00 0. -1.
          1    1    5    5  503    0 -0.13775325374E+03 -0.50847233454E+02  0.53363810072E+03  0.55347179026E+03  0.00000000000E+00 0. -1.
         -2    1    5    5    0  503 -0.14126890723E+03 -0.38294523127E+02  0.91249316286E+03  0.92415753361E+03  0.00000000000E+00 0.  1.
         -3    1    6    6    0  502  0.20282466467E+03 -0.29084384343E+03  0.19941168017E+03  0.40680831364E+03  0.00000000000E+00 0.  1.
<mgrwt>
<rscale>  0 0.15596227E+04</rscale>
<asrwt>0</asrwt>
<pdfrwt beam="1">  1        2 0.32350016E+00 0.15596227E+04</pdfrwt>
<pdfrwt beam="2">  1       -2 0.44491587E-01 0.15596227E+04</pdfrwt>
<totfact> 0.26996425E+01</totfact>
</mgrwt>
</event>
<event>
12    1  0.1504874E-007  0.1858148E+04  0.7818608E-02  0.8675974E-01
         -1   -1    0    0    0  501 -0.00000000000E+00  0.00000000000E+00  0.12100750392E+04  0.12100750392E+04  0.00000000000E+00 0.  1.
          1   -1    0    0  501    0  0.00000000000E+00 -0.00000000000E+00 -0.71332679937E+03  0.71332679937E+03  0.00000000000E+00 0. -1.
         23    2    1    2    0    0  0.50956615059E+03  0.42364549789E+03 -0.67245945066E+02  0.67243396807E+03  0.92261880407E+02 0.  0.
        254    2    1    2    0    0 -0.50956615059E+03 -0.42364549789E+03  0.56399418490E+03  0.12509678705E+04  0.89872020270E+03 0.  0.
        -24    2    4    4    0    0 -0.47829130687E+03 -0.66284450948E+03  0.56526535246E+03  0.99654554045E+03  0.73842247539E+02 0.  0.
         24    2    4    4    0    0 -0.31274843721E+02  0.23919901159E+03 -0.12711675572E+01  0.25442233006E+03  0.80838253147E+02 0.  0.
         13    1    3    3    0    0  0.66412418132E+01  0.60114727924E+01 -0.13904149253E+02  0.16539929396E+02  0.00000000000E+00 0.  1.
        -13    1    3    3    0    0  0.50292490877E+03  0.41763402510E+03 -0.53341795813E+02  0.65589403867E+03  0.00000000000E+00 0. -1.
          4    1    6    6  502    0  0.80817748209E+01  0.18902752441E+03 -0.12757821456E+02  0.18962985545E+03  0.00000000000E+00 0. -1.
          3    1    5    5  503    0 -0.45473495636E+03 -0.61320907376E+03  0.54496093022E+03  0.93797210200E+03  0.00000000000E+00 0. -1.
         -4    1    5    5    0  503 -0.23556350509E+02 -0.49635435722E+02  0.20304422244E+02  0.58573438445E+02  0.00000000000E+00 0.  1.
         -3    1    6    6    0  502 -0.39356618542E+02  0.50171487182E+02  0.11486653899E+02  0.64792474617E+02  0.00000000000E+00 0.  1.
<mgrwt>
<rscale>  0 0.18581485E+04</rscale>
<asrwt>0</asrwt>
<pdfrwt beam="1">  1        1 0.10974259E+00 0.18581485E+04</pdfrwt>
<pdfrwt beam="2">  1       -1 0.18616539E+00 0.18581485E+04</pdfrwt>
<totfact> 0.46734007E+00</totfact>
</mgrwt>
</event>
<event>
12    1  0.1504874E-007  0.1405210E+04  0.7818608E-02  0.8950056E-01
          2   -1    0    0  501    0  0.00000000000E+00  0.00000000000E+00  0.93220349705E+03  0.93220349705E+03  0.00000000000E+00 0. -1.
         -2   -1    0    0    0  501 -0.00000000000E+00 -0.00000000000E+00 -0.52955618157E+03  0.52955618157E+03  0.00000000000E+00 0.  1.
         23    2    1    2    0    0 -0.40239909749E+03 -0.19032111076E+02  0.54900736287E+02  0.41677324053E+03  0.91643811889E+02 0.  0.
        254    2    1    2    0    0  0.40239909749E+03  0.19032111076E+02  0.34774657919E+03  0.10449864381E+04  0.89932292172E+03 0.  0.
        -24    2    4    4    0    0 -0.21428560861E+03 -0.21358214587E+03  0.17447158517E+03  0.35867259456E+03  0.81670318763E+02 0.  0.
         24    2    4    4    0    0  0.61668470610E+03  0.23261425695E+03  0.17327499402E+03  0.68631384353E+03  0.81197592259E+02 0.  0.
         11    1    3    3    0    0 -0.15999872681E+03  0.36498963472E+02  0.13410312324E+02  0.16465601536E+03  0.00000000000E+00 0. -1.
        -11    1    3    3    0    0 -0.24240037068E+03 -0.55531074547E+02  0.41490423963E+02  0.25211722517E+03  0.00000000000E+00 0.  1.
          2    1    6    6  502    0  0.46930959857E+03  0.20449340470E+03  0.11073144606E+03  0.52376569668E+03  0.00000000000E+00 0. -1.
          1    1    5    5  503    0 -0.21063352489E+03 -0.21649768407E+03  0.15667291731E+03  0.34027067466E+03  0.00000000000E+00 0. -1.
         -2    1    5    5    0  503 -0.36520837189E+01  0.29155381954E+01  0.17798667867E+02  0.18401919908E+02  0.00000000000E+00 0.  1.
         -1    1    6    6    0  502  0.14737510753E+03  0.28120852252E+02  0.62543547960E+02  0.16254814685E+03  0.00000000000E+00 0.  1.
<mgrwt>
<rscale>  0 0.14052105E+04</rscale>
<asrwt>0</asrwt>
<pdfrwt beam="1">  1        2 0.14341592E+00 0.14052105E+04</pdfrwt>
<pdfrwt beam="2">  1       -2 0.81470182E-01 0.14052105E+04</pdfrwt>
<totfact> 0.36019690E+01</totfact>
</mgrwt>
</event>
<event>
12    1  0.1504874E-007  0.1328558E+04  0.7818608E-02  0.9007220E-01
         -2   -1    0    0    0  501 -0.00000000000E+00  0.00000000000E+00  0.81019021507E+03  0.81019021507E+03  0.00000000000E+00 0.  1.
          2   -1    0    0  501    0  0.00000000000E+00 -0.00000000000E+00 -0.54464533179E+03  0.54464533179E+03  0.00000000000E+00 0. -1.
         23    2    1    2    0    0 -0.75346053785E+01 -0.54298794726E+02 -0.27202430617E+03  0.29079056141E+03  0.86929845677E+02 0.  0.
        254    2    1    2    0    0  0.75346053785E+01  0.54298794726E+02  0.53756918945E+03  0.10640449855E+04  0.91662749699E+03 0.  0.
        -24    2    4    4    0    0  0.31462931597E+03 -0.21431474305E+03  0.51702896208E+03  0.64711026614E+03  0.80686636795E+02 0.  0.
         24    2    4    4    0    0 -0.30709471059E+03  0.26861353778E+03  0.20540227373E+02  0.41693471931E+03  0.83380245122E+02 0.  0.
         13    1    3    3    0    0 -0.35911657300E+02 -0.58543365100E+02 -0.14331541675E+03  0.15892224956E+03  0.00000000000E+00 0. -1.
        -13    1    3    3    0    0  0.28377051922E+02  0.42445703733E+01 -0.12870888943E+03  0.13186831185E+03  0.00000000000E+00 0.  1.
          4    1    6    6  502    0 -0.14455811876E+02  0.45616270001E+02 -0.50949416278E+01  0.48122479321E+02  0.00000000000E+00 0. -1.
          3    1    5    5  503    0  0.13309367808E+03 -0.13929006107E+03  0.25025313555E+03  0.31582001221E+03  0.00000000000E+00 0. -1.
         -2    1    5    5    0  503  0.18153563789E+03 -0.75024681983E+02  0.26677582653E+03  0.33129025393E+03  0.00000000000E+00 0.  1.
         -3    1    6    6    0  502 -0.29263889872E+03  0.22299726777E+03  0.25635169000E+02  0.36881223999E+03  0.00000000000E+00 0.  1.
<mgrwt>
<rscale>  0 0.13285576E+04</rscale>
<asrwt>0</asrwt>
<pdfrwt beam="1">  1        2 0.83791589E-01 0.13285576E+04</pdfrwt>
<pdfrwt beam="2">  1       -2 0.12464465E+00 0.13285576E+04</pdfrwt>
<totfact> 0.26301249E+01</totfact>
</mgrwt>
</event>
<event>
12    1  0.1504874E-007  0.1846577E+04  0.7818608E-02  0.8681915E-01
         -2   -1    0    0    0  501 -0.00000000000E+00  0.00000000000E+00  0.12030289501E+04  0.12030289501E+04  0.00000000000E+00 0.  1.
          2   -1    0    0  501    0  0.00000000000E+00 -0.00000000000E+00 -0.70859627833E+03  0.70859627833E+03  0.00000000000E+00 0. -1.
         23    2    1    2    0    0  0.67163460067E+03 -0.20152074436E+03  0.19201836193E+03  0.73314550026E+03  0.94486115401E+02 0.  0.
        254    2    1    2    0    0 -0.67163460067E+03  0.20152074436E+03  0.30241430984E+03  0.11784797282E+04  0.89758364942E+03 0.  0.
        -24    2    4    4    0    0 -0.63524631837E+02  0.21291055703E+03 -0.25644607217E+03  0.34854709243E+03  0.79713258428E+02 0.  0.
         24    2    4    4    0    0 -0.60810996883E+03 -0.11389812672E+02  0.55886038201E+03  0.82993263574E+03  0.80844240791E+02 0.  0.
         11    1    3    3    0    0  0.65771340911E+03 -0.20074741833E+03  0.17217574306E+03  0.70889416769E+03  0.00000000000E+00 0. -1.
        -11    1    3    3    0    0  0.13921191560E+02 -0.77332602842E+00  0.19842618867E+02  0.24251332563E+02  0.00000000000E+00 0.  1.
          2    1    6    6  502    0 -0.52863386193E+03  0.16377606256E+02  0.49323288712E+03  0.72318785036E+03  0.00000000000E+00 0. -1.
          3    1    5    5  503    0 -0.53388014745E+02  0.20373409168E+03 -0.19991426062E+03  0.29038521283E+03  0.00000000000E+00 0. -1.
         -4    1    5    5    0  503 -0.10136617092E+02  0.91764653522E+01 -0.56531811547E+02  0.58161879605E+02  0.00000000000E+00 0.  1.
         -1    1    6    6    0  502 -0.79476106903E+02 -0.27767418927E+02  0.65627494884E+02  0.10674478539E+03  0.00000000000E+00 0.  1.
<mgrwt>
<rscale>  0 0.18465772E+04</rscale>
<asrwt>0</asrwt>
<pdfrwt beam="1">  1        2 0.10901481E+00 0.18465772E+04</pdfrwt>
<pdfrwt beam="2">  1       -2 0.18508138E+00 0.18465772E+04</pdfrwt>
<totfact> 0.63450951E+00</totfact>
</mgrwt>
</event>
<event>
12    1  0.1504874E-007  0.1562106E+04  0.7818608E-02  0.8844172E-01
         -2   -1    0    0    0  501 -0.00000000000E+00  0.00000000000E+00  0.14924365346E+04  0.14924365346E+04  0.00000000000E+00 0.  1.
          2   -1    0    0  501    0  0.00000000000E+00 -0.00000000000E+00 -0.40875707576E+03  0.40875707576E+03  0.00000000000E+00 0. -1.
         23    2    1    2    0    0 -0.40017518600E+02 -0.22383507270E+03 -0.20004360904E+03  0.31612384509E+03  0.90627249485E+02 0.  0.
        254    2    1    2    0    0  0.40017518600E+02  0.22383507270E+03  0.12837230679E+04  0.15850697653E+04  0.90155294032E+03 0.  0.
        -24    2    4    4    0    0 -0.42209840896E+03  0.70837586877E+02  0.56587283269E+03  0.71397825393E+03  0.79798832985E+02 0.  0.
         24    2    4    4    0    0  0.46211592756E+03  0.15299748582E+03  0.71785023524E+03  0.87109151138E+03  0.80821406696E+02 0.  0.
         11    1    3    3    0    0  0.84329681967E+01 -0.60849494461E+01  0.63749123480E+01  0.12197584589E+02  0.00000000000E+00 0.  1.
        -11    1    3    3    0    0 -0.48450486797E+02 -0.21775012326E+03 -0.20641852139E+03  0.30392626050E+03  0.00000000000E+00 0. -1.
          2    1    6    6  502    0  0.46170444450E+03  0.14606150378E+03  0.71505508504E+03  0.86360218365E+03  0.00000000000E+00 0. -1.
          1    1    5    5  503    0 -0.34031232615E+03  0.79413175183E+02  0.41852166980E+03  0.54523327101E+03  0.00000000000E+00 0. -1.
         -2    1    5    5    0  503 -0.81786082818E+02 -0.85755883055E+01  0.14735116289E+03  0.16874498293E+03  0.00000000000E+00 0.  1.
         -1    1    6    6    0  502  0.41148306522E+00  0.69359820423E+01  0.27951502001E+01  0.74893277299E+01  0.00000000000E+00 0.  1.
<mgrwt>
<rscale>  0 0.15621063E+04</rscale>
<asrwt>0</asrwt>
<pdfrwt beam="1">  1        2 0.62885705E-01 0.15621063E+04</pdfrwt>
<pdfrwt beam="2">  1       -2 0.22960562E+00 0.15621063E+04</pdfrwt>
<totfact> 0.64140346E+00</totfact>
</mgrwt>
</event>
<event>
12    1  0.1504874E-007  0.1532097E+04  0.7818608E-02  0.8863385E-01
          1   -1    0    0  501    0  0.00000000000E+00  0.00000000000E+00  0.32613997952E+03  0.32613997952E+03  0.00000000000E+00 0. -1.
         -1   -1    0    0    0  501 -0.00000000000E+00 -0.00000000000E+00 -0.17993192656E+04  0.17993192656E+04  0.00000000000E+00 0.  1.
         23    2    1    2    0    0 -0.26897662471E+03  0.35149922827E+03 -0.69242937558E+03  0.82683047523E+03  0.91049780254E+02 0.  0.
        254    2    1    2    0    0  0.26897662471E+03 -0.35149922827E+03 -0.78074991047E+03  0.12986287699E+04  0.93859795817E+03 0.  0.
        -24    2    4    4    0    0 -0.29845216841E+03 -0.21403425787E+03 -0.81548928933E+02  0.38437026576E+03  0.78777617485E+02 0.  0.
         24    2    4    4    0    0  0.56742879312E+03 -0.13746497040E+03 -0.69920098154E+03  0.91425850410E+03  0.78195564963E+02 0.  0.
         13    1    3    3    0    0 -0.22022206940E+03  0.32839269811E+03 -0.57778383157E+03  0.70012404618E+03  0.00000000000E+00 0.  1.
        -13    1    3    3    0    0 -0.48754555311E+02  0.23106530163E+02 -0.11464554401E+03  0.12670642905E+03  0.00000000000E+00 0. -1.
          4    1    6    6  502    0  0.48654891276E+03 -0.88847747077E+02 -0.59308104258E+03  0.77224924068E+03  0.00000000000E+00 0. -1.
          1    1    5    5  503    0 -0.23313260983E+03 -0.20349879592E+03 -0.67491237459E+02  0.31672960209E+03  0.00000000000E+00 0. -1.
         -2    1    5    5    0  503 -0.65319558580E+02 -0.10535461953E+02 -0.14057691474E+02  0.67640663667E+02  0.00000000000E+00 0.  1.
         -3    1    6    6    0  502  0.80879880362E+02 -0.48617223322E+02 -0.10611993896E+03  0.14200926342E+03  0.00000000000E+00 0.  1.
<mgrwt>
<rscale>  0 0.15320965E+04</rscale>
<asrwt>0</asrwt>
<pdfrwt beam="1">  1        1 0.50175380E-01 0.15320965E+04</pdfrwt>
<pdfrwt beam="2">  1       -1 0.27681835E+00 0.15320965E+04</pdfrwt>
<totfact> 0.35436964E+00</totfact>
</mgrwt>
</event>
<event>
12    1  0.1504874E-007  0.1601437E+04  0.7818608E-02  0.8819666E-01
          2   -1    0    0  501    0  0.00000000000E+00  0.00000000000E+00  0.23364664810E+04  0.23364664810E+04  0.00000000000E+00 0. -1.
         -2   -1    0    0    0  501 -0.00000000000E+00 -0.00000000000E+00 -0.27441006642E+03  0.27441006642E+03  0.00000000000E+00 0.  1.
         23    2    1    2    0    0 -0.44244734861E+03  0.30897687038E+03  0.59394799777E+03  0.80762456374E+03  0.90867206299E+02 0.  0.
        254    2    1    2    0    0  0.44244734861E+03 -0.30897687038E+03  0.14681084168E+04  0.18032519837E+04  0.89730096981E+03 0.  0.
        -24    2    4    4    0    0 -0.68340351332E+02 -0.32771425724E+03  0.11396079700E+04  0.11903585112E+04  0.78613114112E+02 0.  0.
         24    2    4    4    0    0  0.51078769994E+03  0.18737386857E+02  0.32850044679E+03  0.61289347253E+03  0.80440667900E+02 0.  0.
         11    1    3    3    0    0 -0.33811013149E+03  0.19928422837E+03  0.46728525259E+03  0.61023616083E+03  0.00000000000E+00 0. -1.
        -11    1    3    3    0    0 -0.10433721712E+03  0.10969264202E+03  0.12666274518E+03  0.19738840291E+03  0.00000000000E+00 0.  1.
          2    1    6    6  502    0  0.14169363349E+03 -0.24788225227E+02  0.11591787058E+03  0.18473899048E+03  0.00000000000E+00 0. -1.
          3    1    5    5  503    0 -0.32260775858E+02 -0.30366410592E+02  0.15283256500E+03  0.15912469788E+03  0.00000000000E+00 0. -1.
         -4    1    5    5    0  503 -0.36079575473E+02 -0.29734784665E+03  0.98677540505E+03  0.10312338133E+04  0.00000000000E+00 0.  1.
         -1    1    6    6    0  502  0.36909406645E+03  0.43525612084E+02  0.21258257620E+03  0.42815448205E+03  0.00000000000E+00 0.  1.
<mgrwt>
<rscale>  0 0.16014368E+04</rscale>
<asrwt>0</asrwt>
<pdfrwt beam="1">  1        2 0.35945637E+00 0.16014368E+04</pdfrwt>
<pdfrwt beam="2">  1       -2 0.42216935E-01 0.16014368E+04</pdfrwt>
<totfact> 0.22067928E+01</totfact>
</mgrwt>
</event>
<event>
12    1  0.1504874E-007  0.2356103E+04  0.7818608E-02  0.8456123E-01
          1   -1    0    0  501    0  0.00000000000E+00  0.00000000000E+00  0.21895915626E+04  0.21895915626E+04  0.00000000000E+00 0. -1.
         -1   -1    0    0    0  501 -0.00000000000E+00 -0.00000000000E+00 -0.63381941378E+03  0.63381941378E+03  0.00000000000E+00 0.  1.
         23    2    1    2    0    0 -0.72089791583E+03 -0.23879340932E+03  0.14885334693E+04  0.16723488830E+04  0.65595730494E+02 0.  0.
        254    2    1    2    0    0  0.72089791583E+03  0.23879340932E+03  0.67238679447E+02  0.11510620933E+04  0.86238437210E+03 0.  0.
        -24    2    4    4    0    0  0.43632318217E+03 -0.20127515444E+03 -0.23512578011E+03  0.54081354289E+03  0.79407484527E+02 0.  0.
         24    2    4    4    0    0  0.28457473366E+03  0.44006856376E+03  0.30236445956E+03  0.61024855042E+03  0.79598411020E+02 0.  0.
         13    1    3    3    0    0 -0.12605541534E+03 -0.64525959005E+02  0.24813848181E+03  0.28570312087E+03  0.00000000000E+00 0. -1.
        -13    1    3    3    0    0 -0.59484250049E+03 -0.17426745031E+03  0.12403949875E+04  0.13866457622E+04  0.00000000000E+00 0.  1.
          4    1    6    6  502    0  0.22805004236E+03  0.34155002394E+03  0.27228844167E+03  0.49275169826E+03  0.00000000000E+00 0. -1.
          1    1    5    5  503    0  0.42132639965E+03 -0.17846022587E+03 -0.23288486461E+03  0.51341927060E+03  0.00000000000E+00 0. -1.
         -2    1    5    5    0  503  0.14996782528E+02 -0.22814928570E+02 -0.22409154962E+01  0.27394272287E+02  0.00000000000E+00 0.  1.
         -3    1    6    6    0  502  0.56524691298E+02  0.98518539816E+02  0.30076017890E+02  0.11749685215E+03  0.00000000000E+00 0.  1.
<mgrwt>
<rscale>  0 0.23561033E+04</rscale>
<asrwt>0</asrwt>
<pdfrwt beam="1">  1        1 0.33686024E+00 0.23561033E+04</pdfrwt>
<pdfrwt beam="2">  1       -1 0.97510681E-01 0.23561033E+04</pdfrwt>
<totfact> 0.20103795E+00</totfact>
</mgrwt>
</event>
<event>
12    1  0.2211680E-007  0.1871983E+04  0.7818608E-02  0.8668929E-01
          1   -1    0    0  501    0  0.00000000000E+00  0.00000000000E+00  0.92830085709E+03  0.92830085709E+03  0.00000000000E+00 0.  1.
         -1   -1    0    0    0  501 -0.00000000000E+00 -0.00000000000E+00 -0.94374553904E+03  0.94374553904E+03  0.00000000000E+00 0. -1.
         23    2    1    2    0    0  0.39121909761E+03 -0.84673875128E+02  0.51300239896E+03  0.65623139767E+03  0.85124253190E+02 0.  0.
        254    2    1    2    0    0 -0.39121909761E+03  0.84673875128E+02 -0.52844708091E+03  0.12158149985E+04  0.10191799378E+04 0.  0.
        -24    2    4    4    0    0 -0.65471071341E+03  0.25684229503E+03 -0.54065032994E+03  0.89067102204E+03  0.79862428411E+02 0.  0.
         24    2    4    4    0    0  0.26349161580E+03 -0.17216841990E+03  0.12203249025E+02  0.32514397643E+03  0.80621893523E+02 0.  0.
         13    1    3    3    0    0  0.20448179678E+02 -0.23670397469E+02  0.23429600162E+02  0.39081478122E+02  0.00000000000E+00 0. -1.
        -13    1    3    3    0    0  0.37077091793E+03 -0.61003477659E+02  0.48957279880E+03  0.61714991954E+03  0.00000000000E+00 0.  1.
          2    1    6    6  502    0  0.98387374102E+01 -0.18253580568E+02 -0.17269810731E+02  0.26985928186E+02  0.00000000000E+00 0. -1.
          1    1    5    5  503    0 -0.24387715565E+02  0.26126674595E+02 -0.18320577187E+02  0.40162262689E+02  0.00000000000E+00 0. -1.
         -2    1    5    5    0  503 -0.63032299784E+03  0.23071562043E+03 -0.52232975275E+03  0.85050875935E+03  0.00000000000E+00 0.  1.
         -1    1    6    6    0  502  0.25365287839E+03 -0.15391483933E+03  0.29473059756E+02  0.29815804824E+03  0.00000000000E+00 0.  1.
<mgrwt>
<rscale>  0 0.18719827E+04</rscale>
<asrwt>0</asrwt>
<pdfrwt beam="1">  1        1 0.14281552E+00 0.18719827E+04</pdfrwt>
<pdfrwt beam="2">  1       -1 0.14519162E+00 0.18719827E+04</pdfrwt>
<totfact> 0.61619886E+00</totfact>
</mgrwt>
</event>
<event>
12    1  0.1504874E-007  0.1650473E+04  0.7818608E-02  0.8790127E-01
          2   -1    0    0  501    0  0.00000000000E+00  0.00000000000E+00  0.17495473420E+04  0.17495473420E+04  0.00000000000E+00 0. -1.
         -2   -1    0    0    0  501 -0.00000000000E+00 -0.00000000000E+00 -0.38925227208E+03  0.38925227208E+03  0.00000000000E+00 0.  1.
         23    2    1    2    0    0 -0.15814518290E+03  0.20687441581E+03 -0.19297591627E+03  0.33604423727E+03  0.88764307864E+02 0.  0.
        254    2    1    2    0    0  0.15814518290E+03 -0.20687441581E+03  0.15532709862E+04  0.18027553768E+04  0.87719397473E+03 0.  0.
        -24    2    4    4    0    0  0.23414020228E+03 -0.46167862962E+03  0.13783860070E+04  0.14747370902E+04  0.83262894338E+02 0.  0.
         24    2    4    4    0    0 -0.75995019379E+02  0.25480421381E+03  0.17488497918E+03  0.32801828659E+03  0.79440607065E+02 0.  0.
         13    1    3    3    0    0 -0.11690375050E+03  0.11030106289E+03 -0.72776388705E+02  0.17643473045E+03  0.00000000000E+00 0.  1.
        -13    1    3    3    0    0 -0.41241432401E+02  0.96573352919E+02 -0.12019952756E+03  0.15960950682E+03  0.00000000000E+00 0. -1.
          2    1    6    6  502    0 -0.31852728398E+02  0.10475929857E+03  0.11954914245E+03  0.16211447931E+03  0.00000000000E+00 0. -1.
          3    1    5    5  503    0  0.11210016637E+02 -0.81475521781E+02  0.18089433137E+03  0.19871256690E+03  0.00000000000E+00 0. -1.
         -4    1    5    5    0  503  0.22293018565E+03 -0.38020310784E+03  0.11974916756E+04  0.12760245233E+04  0.00000000000E+00 0.  1.
         -1    1    6    6    0  502 -0.44142290981E+02  0.15004491524E+03  0.55335836731E+02  0.16590380728E+03  0.00000000000E+00 0.  1.
<mgrwt>
<rscale>  0 0.16504730E+04</rscale>
<asrwt>0</asrwt>
<pdfrwt beam="1">  1        2 0.26916113E+00 0.16504730E+04</pdfrwt>
<pdfrwt beam="2">  1       -2 0.59884966E-01 0.16504730E+04</pdfrwt>
<totfact> 0.22860665E+01</totfact>
</mgrwt>
</event>
<event>
12    1  0.1504874E-007  0.1190988E+04  0.7818608E-02  0.9120782E-01
          2   -1    0    0  501    0  0.00000000000E+00  0.00000000000E+00  0.24156093157E+04  0.24156093157E+04  0.00000000000E+00 0. -1.
         -2   -1    0    0    0  501 -0.00000000000E+00 -0.00000000000E+00 -0.14680063360E+03  0.14680063360E+03  0.00000000000E+00 0.  1.
         23    2    1    2    0    0 -0.17943053415E+03  0.14406163950E+03  0.33229786820E+03  0.41418896774E+03  0.90451949782E+02 0.  0.
        254    2    1    2    0    0  0.17943053415E+03 -0.14406163950E+03  0.19365108139E+04  0.21482209815E+04  0.90101619337E+03 0.  0.
        -24    2    4    4    0    0  0.94103161377E+02 -0.22725393154E+03  0.58779668654E+02  0.26509670804E+03  0.79507614636E+02 0.  0.
         24    2    4    4    0    0  0.85327372775E+02  0.83192292037E+02  0.18777311452E+04  0.18831242735E+04  0.77981136884E+02 0.  0.
         13    1    3    3    0    0 -0.38028308157E+01  0.42501526261E+02  0.40781763883E+02  0.59025363380E+02  0.00000000000E+00 0. -1.
        -13    1    3    3    0    0 -0.17562770334E+03  0.10156011324E+03  0.29151610432E+03  0.35516360436E+03  0.00000000000E+00 0.  1.
          2    1    6    6  502    0  0.40420655227E+02  0.61859024635E+02  0.61635879827E+03  0.62077253201E+03  0.00000000000E+00 0. -1.
          3    1    5    5  503    0 -0.58700765954E+01 -0.80913199414E+01 -0.10446908882E+02  0.14459085823E+02  0.00000000000E+00 0. -1.
         -4    1    5    5    0  503  0.99973237973E+02 -0.21916261160E+03  0.69226577537E+02  0.25063762222E+03  0.00000000000E+00 0.  1.
         -1    1    6    6    0  502  0.44906717548E+02  0.21333267403E+02  0.12613723469E+04  0.12623517415E+04  0.00000000000E+00 0.  1.
<mgrwt>
<rscale>  0 0.11909878E+04</rscale>
<asrwt>0</asrwt>
<pdfrwt beam="1">  1        2 0.37163217E+00 0.11909878E+04</pdfrwt>
<pdfrwt beam="2">  1       -2 0.22584715E-01 0.11909878E+04</pdfrwt>
<totfact> 0.66609752E+01</totfact>
</mgrwt>
</event>
<event>
12    1  0.1504874E-007  0.1700866E+04  0.7818608E-02  0.8760871E-01
          2   -1    0    0  501    0  0.00000000000E+00  0.00000000000E+00  0.68753544601E+03  0.68753544601E+03  0.00000000000E+00 0. -1.
         -2   -1    0    0    0  501 -0.00000000000E+00 -0.00000000000E+00 -0.10519260231E+04  0.10519260231E+04  0.00000000000E+00 0.  1.
         23    2    1    2    0    0  0.58210577992E+03  0.59982645813E+02 -0.23395730533E+03  0.63675854199E+03  0.90996501371E+02 0.  0.
        254    2    1    2    0    0 -0.58210577992E+03 -0.59982645813E+02 -0.13043327176E+03  0.11027029271E+04  0.92547061018E+03 0.  0.
        -24    2    4    4    0    0 -0.54121920820E+03  0.35408431244E+03  0.23109648830E+02  0.65214066455E+03  0.80370758683E+02 0.  0.
         24    2    4    4    0    0 -0.40886571719E+02 -0.41406695825E+03 -0.15354292059E+03  0.45056226258E+03  0.79421447546E+02 0.  0.
         11    1    3    3    0    0  0.80866991584E+02 -0.97673819182E+01 -0.61669981921E+02  0.10216681823E+03  0.00000000000E+00 0. -1.
        -11    1    3    3    0    0  0.50123878834E+03  0.69750027731E+02 -0.17228732341E+03  0.53459172376E+03  0.00000000000E+00 0.  1.
          2    1    6    6  502    0 -0.40789315782E+02 -0.97759462464E+02 -0.54407131675E+02  0.11908323459E+03  0.00000000000E+00 0. -1.
          3    1    5    5  503    0 -0.26668458665E+03  0.21340863754E+03  0.35588183948E+02  0.34341000884E+03  0.00000000000E+00 0. -1.
         -4    1    5    5    0  503 -0.27453462155E+03  0.14067567490E+03 -0.12478535118E+02  0.30873065571E+03  0.00000000000E+00 0.  1.
         -1    1    6    6    0  502 -0.97255936960E-01 -0.31630749579E+03 -0.99135788920E+02  0.33147902799E+03  0.00000000000E+00 0.  1.
<mgrwt>
<rscale>  0 0.17008662E+04</rscale>
<asrwt>0</asrwt>
<pdfrwt beam="1">  1        2 0.10577469E+00 0.17008662E+04</pdfrwt>
<pdfrwt beam="2">  1       -2 0.16183477E+00 0.17008662E+04</pdfrwt>
<totfact> 0.97311472E+00</totfact>
</mgrwt>
</event>
<event>
12    1  0.1504874E-007  0.1260216E+04  0.7818608E-02  0.9061723E-01
          2   -1    0    0  501    0  0.00000000000E+00  0.00000000000E+00  0.29453426430E+04  0.29453426430E+04  0.00000000000E+00 0. -1.
         -2   -1    0    0    0  501 -0.00000000000E+00 -0.00000000000E+00 -0.13480142980E+03  0.13480142980E+03  0.00000000000E+00 0.  1.
         23    2    1    2    0    0 -0.17728315633E+03 -0.13128426182E+03  0.20312362409E+03  0.31368367599E+03  0.92050893526E+02 0.  0.
        254    2    1    2    0    0  0.17728315633E+03  0.13128426182E+03  0.26074175891E+04  0.27664603968E+04  0.89778158158E+03 0.  0.
        -24    2    4    4    0    0  0.41302666974E+03  0.34128647015E+03  0.11250730481E+04  0.12487213061E+04  0.80299763186E+02 0.  0.
         24    2    4    4    0    0 -0.23574351341E+03 -0.21000220834E+03  0.14823445409E+04  0.15177390907E+04  0.80688771154E+02 0.  0.
         11    1    3    3    0    0 -0.17477032127E+02 -0.49483321762E+02  0.81156838297E+02  0.96646149364E+02  0.00000000000E+00 0. -1.
        -11    1    3    3    0    0 -0.15980612420E+03 -0.81800940055E+02  0.12196678580E+03  0.21703752662E+03  0.00000000000E+00 0.  1.
          2    1    6    6  502    0 -0.21872542587E+03 -0.17261059951E+03  0.11708341762E+04  0.12035314284E+04  0.00000000000E+00 0. -1.
          1    1    5    5  503    0  0.29189499932E+03  0.26748388962E+03  0.89136285196E+03  0.97533484285E+03  0.00000000000E+00 0. -1.
         -2    1    5    5    0  503  0.12113167043E+03  0.73802580536E+02  0.23371019617E+03  0.27338646321E+03  0.00000000000E+00 0.  1.
         -1    1    6    6    0  502 -0.17018087547E+02 -0.37391608830E+02  0.31151036479E+03  0.31420766236E+03  0.00000000000E+00 0.  1.
<mgrwt>
<rscale>  0 0.12602165E+04</rscale>
<asrwt>0</asrwt>
<pdfrwt beam="1">  1        2 0.45312959E+00 0.12602165E+04</pdfrwt>
<pdfrwt beam="2">  1       -2 0.20738684E-01 0.12602165E+04</pdfrwt>
<totfact> 0.37548081E+01</totfact>
</mgrwt>
</event>
<event>
12    1  0.1504874E-007  0.2140173E+04  0.7818608E-02  0.8543750E-01
          2   -1    0    0  501    0  0.00000000000E+00  0.00000000000E+00  0.18428012435E+04  0.18428012435E+04  0.00000000000E+00 0. -1.
         -2   -1    0    0    0  501 -0.00000000000E+00 -0.00000000000E+00 -0.62138294019E+03  0.62138294019E+03  0.00000000000E+00 0.  1.
         23    2    1    2    0    0  0.23841605891E+03 -0.55403258741E+03 -0.22940547460E+03  0.65588570774E+03  0.11732376052E+03 0.  0.
        254    2    1    2    0    0 -0.23841605891E+03  0.55403258741E+03  0.14508237779E+04  0.18082984760E+04  0.89513095048E+03 0.  0.
        -24    2    4    4    0    0  0.30574393779E+03  0.59940946525E+02  0.60380383780E+03  0.68399786579E+03  0.78751084439E+02 0.  0.
         24    2    4    4    0    0 -0.54415999671E+03  0.49409164089E+03  0.84701994013E+03  0.11243006102E+04  0.79827510594E+02 0.  0.
         11    1    3    3    0    0  0.10751542658E+03 -0.12345557467E+03 -0.47333836502E+02  0.17041519284E+03  0.00000000000E+00 0. -1.
        -11    1    3    3    0    0  0.13090063233E+03 -0.43057701274E+03 -0.18207163810E+03  0.48547051491E+03  0.00000000000E+00 0.  1.
          4    1    6    6  502    0 -0.43636862029E+03  0.42866974136E+03  0.67375387771E+03  0.91001077338E+03  0.00000000000E+00 0. -1.
          1    1    5    5  503    0  0.16433836868E+03  0.58107016767E+01  0.37693702780E+03  0.41124492289E+03  0.00000000000E+00 0. -1.
         -2    1    5    5    0  503  0.14140556912E+03  0.54130244848E+02  0.22686681000E+03  0.27275294290E+03  0.00000000000E+00 0.  1.
         -3    1    6    6    0  502 -0.10779137642E+03  0.65421899521E+02  0.17326606242E+03  0.21428983679E+03  0.00000000000E+00 0.  1.
<mgrwt>
<rscale>  0 0.21401731E+04</rscale>
<asrwt>0</asrwt>
<pdfrwt beam="1">  1        2 0.28350788E+00 0.21401731E+04</pdfrwt>
<pdfrwt beam="2">  1       -2 0.95597376E-01 0.21401731E+04</pdfrwt>
<totfact> 0.68915978E+00</totfact>
</mgrwt>
</event>
<event>
12    1  0.1504874E-007  0.1097863E+04  0.7818608E-02  0.9207277E-01
         -2   -1    0    0    0  501 -0.00000000000E+00  0.00000000000E+00  0.13733627309E+03  0.13733627309E+03  0.00000000000E+00 0.  1.
          2   -1    0    0  501    0  0.00000000000E+00 -0.00000000000E+00 -0.21940746186E+04  0.21940746186E+04  0.00000000000E+00 0. -1.
         23    2    1    2    0    0  0.96498607030E+02 -0.11418758787E+03 -0.43552838900E+03  0.46985493007E+03  0.93423183979E+02 0.  0.
        254    2    1    2    0    0 -0.96498607030E+02  0.11418758787E+03 -0.16212099565E+04  0.18615559616E+04  0.90261735456E+03 0.  0.
        -24    2    4    4    0    0 -0.19588059495E+03 -0.26895884872E+03 -0.13043503009E+04  0.13485458189E+04  0.80858199439E+02 0.  0.
         24    2    4    4    0    0  0.99381987925E+02  0.38314643659E+03 -0.31685965564E+03  0.51301014275E+03  0.78111419107E+02 0.  0.
         11    1    3    3    0    0 -0.48213047667E+01 -0.31087874952E+02 -0.29211851648E+02  0.42930562836E+02  0.00000000000E+00 0.  1.
        -11    1    3    3    0    0  0.10131991180E+03 -0.83099712920E+02 -0.40631653735E+03  0.42692436724E+03  0.00000000000E+00 0. -1.
          2    1    6    6  502    0  0.94568190189E+01  0.37224453435E+02 -0.65932177911E+02  0.76302971394E+02  0.00000000000E+00 0. -1.
          1    1    5    5  503    0 -0.30338354862E+02 -0.98073124973E+02 -0.45994052034E+03  0.47125792924E+03  0.00000000000E+00 0. -1.
         -2    1    5    5    0  503 -0.16554224009E+03 -0.17088572374E+03 -0.84440978052E+03  0.87728788962E+03  0.00000000000E+00 0.  1.
         -1    1    6    6    0  502  0.89925168906E+02  0.34592198315E+03 -0.25092747773E+03  0.43670717135E+03  0.00000000000E+00 0.  1.
<mgrwt>
<rscale>  0 0.10978634E+04</rscale>
<asrwt>0</asrwt>
<pdfrwt beam="1">  1        2 0.33754992E+00 0.10978634E+04</pdfrwt>
<pdfrwt beam="2">  1       -2 0.21128659E-01 0.10978634E+04</pdfrwt>
<totfact> 0.10068135E+02</totfact>
</mgrwt>
</event>
<event>
12    1  0.1504874E-007  0.1315727E+04  0.7818608E-02  0.9017185E-01
          2   -1    0    0  501    0  0.00000000000E+00  0.00000000000E+00  0.43156575537E+03  0.43156575537E+03  0.00000000000E+00 0.  1.
         -2   -1    0    0    0  501 -0.00000000000E+00 -0.00000000000E+00 -0.10028241823E+04  0.10028241823E+04  0.00000000000E+00 0. -1.
         23    2    1    2    0    0  0.77749178701E+02 -0.32452788265E+03 -0.21729640013E+03  0.40847610883E+03  0.90949021808E+02 0.  0.
        254    2    1    2    0    0 -0.77749178701E+02  0.32452788265E+03 -0.35396202678E+03  0.10259138288E+04  0.90324237410E+03 0.  0.
        -24    2    4    4    0    0  0.32356457152E+03  0.39026985452E+03 -0.59654238876E+02  0.51683767484E+03  0.80981248645E+02 0.  0.
         24    2    4    4    0    0 -0.40131375022E+03 -0.65741971868E+02 -0.29430778790E+03  0.50907615398E+03  0.84656503336E+02 0.  0.
         11    1    3    3    0    0  0.71947866254E+02 -0.11183241574E+03 -0.89060567994E+02  0.16004614784E+03  0.00000000000E+00 0.  1.
        -11    1    3    3    0    0  0.58013124473E+01 -0.21269546691E+03 -0.12823583213E+03  0.24842996098E+03  0.00000000000E+00 0. -1.
          4    1    6    6  502    0 -0.34669083170E+03 -0.45378730541E+02 -0.21434218747E+03  0.41011746524E+03  0.00000000000E+00 0. -1.
          3    1    5    5  503    0  0.16407017481E+03  0.22292955022E+03 -0.69728374254E+02  0.28544465803E+03  0.00000000000E+00 0. -1.
         -4    1    5    5    0  503  0.15949439671E+03  0.16734030430E+03  0.10074135378E+02  0.23139301681E+03  0.00000000000E+00 0.  1.
         -3    1    6    6    0  502 -0.54622918520E+02 -0.20363241327E+02 -0.79965600428E+02  0.98958688738E+02  0.00000000000E+00 0.  1.
<mgrwt>
<rscale>  0 0.13157273E+04</rscale>
<asrwt>0</asrwt>
<pdfrwt beam="1">  1        2 0.66394733E-01 0.13157273E+04</pdfrwt>
<pdfrwt beam="2">  1       -2 0.15428064E+00 0.13157273E+04</pdfrwt>
<totfact> 0.19834035E+01</totfact>
</mgrwt>
</event>
<event>
12    1  0.1504874E-007  0.1173034E+04  0.7818608E-02  0.9136793E-01
         -1   -1    0    0    0  501 -0.00000000000E+00  0.00000000000E+00  0.74773757279E+03  0.74773757279E+03  0.00000000000E+00 0.  1.
          1   -1    0    0  501    0  0.00000000000E+00 -0.00000000000E+00 -0.46005710927E+03  0.46005710927E+03  0.00000000000E+00 0. -1.
         23    2    1    2    0    0 -0.19163983371E+03  0.10377394673E+03  0.14881257884E+03  0.27939928211E+03  0.91781900924E+02 0.  0.
        254    2    1    2    0    0  0.19163983371E+03 -0.10377394673E+03  0.13886788468E+03  0.92839539995E+03  0.89170559681E+03 0.  0.
        -24    2    4    4    0    0  0.38193670740E+03 -0.17627364190E+03  0.40036208366E+03  0.58599549479E+03  0.78440274052E+02 0.  0.
         24    2    4    4    0    0 -0.19029687369E+03  0.72499695177E+02 -0.26149419898E+03  0.34239990516E+03  0.85961462403E+02 0.  0.
         11    1    3    3    0    0 -0.16541409763E+03  0.94932457652E+02  0.16058632376E+03  0.24932300854E+03  0.00000000000E+00 0.  1.
        -11    1    3    3    0    0 -0.26225736084E+02  0.88414890731E+01 -0.11773744919E+02  0.30076273565E+02  0.00000000000E+00 0. -1.
          4    1    6    6  502    0 -0.98811169728E+02  0.35354623960E+01 -0.16617130526E+03  0.19336248201E+03  0.00000000000E+00 0. -1.
          3    1    5    5  503    0  0.53120890271E+02 -0.21159017010E+01  0.30197986122E+02  0.61141020510E+02  0.00000000000E+00 0. -1.
         -4    1    5    5    0  503  0.32881581713E+03 -0.17415774020E+03  0.37016409754E+03  0.52485447428E+03  0.00000000000E+00 0.  1.
         -3    1    6    6    0  502 -0.91485703966E+02  0.68964232781E+02 -0.95322893714E+02  0.14903742315E+03  0.00000000000E+00 0.  1.
<mgrwt>
<rscale>  0 0.11730337E+04</rscale>
<asrwt>0</asrwt>
<pdfrwt beam="1">  1        1 0.70778017E-01 0.11730337E+04</pdfrwt>
<pdfrwt beam="2">  1       -1 0.11503655E+00 0.11730337E+04</pdfrwt>
<totfact> 0.33808719E+01</totfact>
</mgrwt>
</event>
<event>
12    1  0.1504874E-007  0.2022921E+04  0.7818608E-02  0.8595979E-01
         -2   -1    0    0    0  501 -0.00000000000E+00  0.00000000000E+00  0.96525675342E+03  0.96525675342E+03  0.00000000000E+00 0. -1.
          2   -1    0    0  501    0  0.00000000000E+00 -0.00000000000E+00 -0.10598761595E+04  0.10598761595E+04  0.00000000000E+00 0.  1.
         23    2    1    2    0    0  0.10201801075E+03 -0.94428751550E+02 -0.83698947499E+03  0.85355340602E+03  0.93153486503E+02 0.  0.
        254    2    1    2    0    0 -0.10201801075E+03  0.94428751550E+02  0.74237006892E+03  0.11715795069E+04  0.89563427699E+03 0.  0.
        -24    2    4    4    0    0  0.32602605736E+03 -0.14195626890E+03  0.13747898263E+03  0.38959673825E+03  0.80253195765E+02 0.  0.
         24    2    4    4    0    0 -0.42804406811E+03  0.23638502045E+03  0.60489108629E+03  0.78198276865E+03  0.80648757306E+02 0.  0.
         13    1    3    3    0    0  0.18455799218E+02 -0.50962710105E+01 -0.20887658346E+02  0.28335186151E+02  0.00000000000E+00 0. -1.
        -13    1    3    3    0    0  0.83562211530E+02 -0.89332480540E+02 -0.81610181665E+03  0.82521821987E+03  0.00000000000E+00 0.  1.
          4    1    6    6  502    0 -0.27603294838E+03  0.15487452474E+03  0.32838612183E+03  0.45608963156E+03  0.00000000000E+00 0. -1.
          1    1    5    5  503    0  0.12004917989E+03 -0.94959119449E+02  0.64110547738E+02  0.16594939677E+03  0.00000000000E+00 0. -1.
         -2    1    5    5    0  503  0.20597687748E+03 -0.46997149453E+02  0.73368434895E+02  0.22364734148E+03  0.00000000000E+00 0.  1.
         -3    1    6    6    0  502 -0.15201111973E+03  0.81510495713E+02  0.27650496446E+03  0.32589313709E+03  0.00000000000E+00 0.  1.
<mgrwt>
<rscale>  0 0.20229213E+04</rscale>
<asrwt>0</asrwt>
<pdfrwt beam="1">  1        2 0.16305787E+00 0.20229213E+04</pdfrwt>
<pdfrwt beam="2">  1       -2 0.14850104E+00 0.20229213E+04</pdfrwt>
<totfact> 0.65843485E+00</totfact>
</mgrwt>
</event>
<event>
12    1  0.1504874E-007  0.1577161E+04  0.7818608E-02  0.8834703E-01
          2   -1    0    0  501    0  0.00000000000E+00  0.00000000000E+00  0.88238415192E+03  0.88238415192E+03  0.00000000000E+00 0. -1.
         -2   -1    0    0    0  501 -0.00000000000E+00 -0.00000000000E+00 -0.70474875117E+03  0.70474875117E+03  0.00000000000E+00 0.  1.
         23    2    1    2    0    0 -0.47050209031E+03 -0.12322029305E+03 -0.14013966153E+03  0.51458438549E+03  0.92749703231E+02 0.  0.
        254    2    1    2    0    0  0.47050209031E+03  0.12322029305E+03  0.31777506229E+03  0.10725485176E+04  0.90156745438E+03 0.  0.
        -24    2    4    4    0    0  0.19416706468E+03 -0.19322710365E+03 -0.23759706152E+03  0.37143458143E+03  0.80459443495E+02 0.  0.
         24    2    4    4    0    0  0.27633502563E+03  0.31644739670E+03  0.55537212381E+03  0.70111393618E+03  0.81379077947E+02 0.  0.
         11    1    3    3    0    0 -0.41388994521E+03 -0.13267244755E+03 -0.10448874020E+03  0.44701763043E+03  0.00000000000E+00 0.  1.
        -11    1    3    3    0    0 -0.56612145105E+02  0.94521545009E+01 -0.35650921335E+02  0.67566755066E+02  0.00000000000E+00 0. -1.
          4    1    6    6  502    0  0.24180266382E+03  0.30138123034E+03  0.52915855058E+03  0.65521595362E+03  0.00000000000E+00 0. -1.
          3    1    5    5  503    0  0.17627269698E+03 -0.15186353881E+03 -0.22716506782E+03  0.32517467023E+03  0.00000000000E+00 0. -1.
         -4    1    5    5    0  503  0.17894367698E+02 -0.41363564840E+02 -0.10431993697E+02  0.46259911198E+02  0.00000000000E+00 0.  1.
         -3    1    6    6    0  502  0.34532361808E+02  0.15066166362E+02  0.26213573230E+02  0.45897982552E+02  0.00000000000E+00 0.  1.
<mgrwt>
<rscale>  0 0.15771609E+04</rscale>
<asrwt>0</asrwt>
<pdfrwt beam="1">  1        2 0.13575141E+00 0.15771609E+04</pdfrwt>
<pdfrwt beam="2">  1       -2 0.10842289E+00 0.15771609E+04</pdfrwt>
<totfact> 0.19703569E+01</totfact>
</mgrwt>
</event>
<event>
12    1  0.1504874E-007  0.1382448E+04  0.7818608E-02  0.8966622E-01
          2   -1    0    0  501    0  0.00000000000E+00  0.00000000000E+00  0.21995233513E+04  0.21995233513E+04  0.00000000000E+00 0. -1.
         -2   -1    0    0    0  501 -0.00000000000E+00 -0.00000000000E+00 -0.21722477205E+03  0.21722477205E+03  0.00000000000E+00 0.  1.
         23    2    1    2    0    0 -0.20170212627E+03 -0.35316785596E+03  0.56683544750E+03  0.70323583742E+03  0.88469973810E+02 0.  0.
        254    2    1    2    0    0  0.20170212627E+03  0.35316785596E+03  0.14154631318E+04  0.17135122859E+04  0.87588651918E+03 0.  0.
        -24    2    4    4    0    0  0.21156787290E+03  0.50034723701E+03  0.38762044549E+03  0.67201048297E+03  0.78994664571E+02 0.  0.
         24    2    4    4    0    0 -0.98657466329E+01 -0.14717938105E+03  0.10278426863E+04  0.10415018030E+04  0.80661730143E+02 0.  0.
         11    1    3    3    0    0  0.43835328462E+01 -0.13454484794E+02  0.46100296512E+02  0.48223187989E+02  0.00000000000E+00 0. -1.
        -11    1    3    3    0    0 -0.20608565912E+03 -0.33971337117E+03  0.52073515098E+03  0.65501264943E+03  0.00000000000E+00 0.  1.
          2    1    6    6  502    0  0.13080117674E+02 -0.28286485865E+02  0.45162158573E+03  0.45269556156E+03  0.00000000000E+00 0. -1.
          3    1    5    5  503    0  0.10912883374E+03  0.24101625590E+03  0.14118168917E+03  0.29988365630E+03  0.00000000000E+00 0. -1.
         -4    1    5    5    0  503  0.10243903916E+03  0.25933098112E+03  0.24643875632E+03  0.37212682667E+03  0.00000000000E+00 0.  1.
         -1    1    6    6    0  502 -0.22945864307E+02 -0.11889289518E+03  0.57622110055E+03  0.58880624141E+03  0.00000000000E+00 0.  1.
<mgrwt>
<rscale>  0 0.13824485E+04</rscale>
<asrwt>0</asrwt>
<pdfrwt beam="1">  1        2 0.33838819E+00 0.13824485E+04</pdfrwt>
<pdfrwt beam="2">  1       -2 0.33419197E-01 0.13824485E+04</pdfrwt>
<totfact> 0.42200963E+01</totfact>
</mgrwt>
</event>
<event>
12    1  0.1504874E-007  0.2711542E+04  0.7818608E-02  0.8331270E-01
         -1   -1    0    0    0  501 -0.00000000000E+00  0.00000000000E+00  0.20281846578E+04  0.20281846578E+04  0.00000000000E+00 0.  1.
          1   -1    0    0  501    0  0.00000000000E+00 -0.00000000000E+00 -0.90628581643E+03  0.90628581643E+03  0.00000000000E+00 0. -1.
         23    2    1    2    0    0  0.11243064919E+04 -0.12579185397E+03  0.62401101642E+02  0.11369768607E+04  0.94518812604E+02 0.  0.
        254    2    1    2    0    0 -0.11243064919E+04  0.12579185397E+03  0.10594977397E+04  0.17974936136E+04  0.91025224637E+03 0.  0.
        -24    2    4    4    0    0 -0.52249088443E+03 -0.31697304232E+03  0.78398076019E+03  0.99720177354E+03  0.79478996711E+02 0.  0.
         24    2    4    4    0    0 -0.60181560749E+03  0.44276489628E+03  0.27551697955E+03  0.80029184004E+03  0.79590479431E+02 0.  0.
         11    1    3    3    0    0  0.40349482063E+03 -0.19750370935E+02 -0.15353255417E+02  0.40426955101E+03  0.00000000000E+00 0. -1.
        -11    1    3    3    0    0  0.72081167129E+03 -0.10604148303E+03  0.77754357059E+02  0.73270730966E+03  0.00000000000E+00 0.  1.
          4    1    6    6  502    0 -0.56207741766E+02  0.21751301940E+02  0.70228583759E+01  0.60677425046E+02  0.00000000000E+00 0. -1.
          3    1    5    5  503    0 -0.27357915736E+02 -0.41370897915E+02  0.62763350004E+02  0.79995280182E+02  0.00000000000E+00 0. -1.
         -4    1    5    5    0  503 -0.49513296870E+03 -0.27560214440E+03  0.72121741019E+03  0.91720649335E+03  0.00000000000E+00 0.  1.
         -3    1    6    6    0  502 -0.54560786572E+03  0.42101359434E+03  0.26849412118E+03  0.73961441499E+03  0.00000000000E+00 0.  1.
<mgrwt>
<rscale>  0 0.27115420E+04</rscale>
<asrwt>0</asrwt>
<pdfrwt beam="1">  1        1 0.13942859E+00 0.27115420E+04</pdfrwt>
<pdfrwt beam="2">  1       -1 0.31202841E+00 0.27115420E+04</pdfrwt>
<totfact> 0.43267996E-01</totfact>
</mgrwt>
</event>
<event>
12    1  0.1504874E-007  0.1679158E+04  0.7818608E-02  0.8773341E-01
          1   -1    0    0  501    0  0.00000000000E+00  0.00000000000E+00  0.15211996543E+04  0.15211996543E+04  0.00000000000E+00 0. -1.
         -1   -1    0    0    0  501 -0.00000000000E+00 -0.00000000000E+00 -0.46337983890E+03  0.46337983890E+03  0.00000000000E+00 0.  1.
         23    2    1    2    0    0  0.39238316072E+02 -0.36727526953E+03 -0.17093272453E+03  0.41741701305E+03  0.92672527803E+02 0.  0.
        254    2    1    2    0    0 -0.39238316072E+02  0.36727526953E+03  0.12287525399E+04  0.15671624802E+04  0.89985258001E+03 0.  0.
        -24    2    4    4    0    0 -0.10297111169E+02 -0.23476033784E+03  0.75958145124E+03  0.79915574744E+03  0.80420649655E+02 0.  0.
         24    2    4    4    0    0 -0.28941204902E+02  0.60203560736E+03  0.46917108870E+03  0.76800673271E+03  0.80177086156E+02 0.  0.
         13    1    3    3    0    0  0.23385025978E+02 -0.10406789082E+03 -0.95465896642E+02  0.14314580944E+03  0.00000000000E+00 0.  1.
        -13    1    3    3    0    0  0.15853290094E+02 -0.26320737871E+03 -0.75466827892E+02  0.27427120360E+03  0.00000000000E+00 0. -1.
          2    1    6    6  502    0 -0.18302002517E+02  0.26776053405E+03  0.15945091288E+03  0.31217825118E+03  0.00000000000E+00 0. -1.
          3    1    5    5  503    0  0.15908869734E+02 -0.15520917525E+03  0.58613368165E+03  0.60654404043E+03  0.00000000000E+00 0. -1.
         -4    1    5    5    0  503 -0.26205980904E+02 -0.79551162584E+02  0.17344776958E+03  0.19261170701E+03  0.00000000000E+00 0.  1.
         -1    1    6    6    0  502 -0.10639202385E+02  0.33427507331E+03  0.30972017583E+03  0.45582848154E+03  0.00000000000E+00 0.  1.
<mgrwt>
<rscale>  0 0.16791584E+04</rscale>
<asrwt>0</asrwt>
<pdfrwt beam="1">  1        1 0.23403072E+00 0.16791584E+04</pdfrwt>
<pdfrwt beam="2">  1       -1 0.71289206E-01 0.16791584E+04</pdfrwt>
<totfact> 0.11978273E+01</totfact>
</mgrwt>
</event>
<event>
12    1  0.1504874E-007  0.1596614E+04  0.7818608E-02  0.8822631E-01
         -2   -1    0    0    0  501 -0.00000000000E+00  0.00000000000E+00  0.38883022194E+03  0.38883022194E+03  0.00000000000E+00 0. -1.
          2   -1    0    0  501    0  0.00000000000E+00 -0.00000000000E+00 -0.16390029065E+04  0.16390029065E+04  0.00000000000E+00 0.  1.
         23    2    1    2    0    0 -0.29756778265E+03  0.22531864050E+03  0.66752295367E+02  0.39034100759E+03  0.92710076282E+02 0.  0.
        254    2    1    2    0    0  0.29756778265E+03 -0.22531864050E+03 -0.13169249799E+04  0.16374921208E+04  0.89876246476E+03 0.  0.
        -24    2    4    4    0    0  0.11194169718E+03 -0.21379909761E+03  0.47077953485E+02  0.25851316635E+03  0.79823090407E+02 0.  0.
         24    2    4    4    0    0  0.18562608547E+03 -0.11519542885E+02 -0.13640029334E+04  0.13789789545E+04  0.80555640033E+02 0.  0.
         13    1    3    3    0    0 -0.24067003456E+03  0.13174479268E+03  0.36971263047E+02  0.27684947214E+03  0.00000000000E+00 0. -1.
        -13    1    3    3    0    0 -0.56897748088E+02  0.93573847816E+02  0.29781032320E+02  0.11349153545E+03  0.00000000000E+00 0.  1.
          2    1    6    6  502    0  0.14897265193E+02  0.23869575397E+02 -0.17005741989E+03  0.17236940331E+03  0.00000000000E+00 0. -1.
          1    1    5    5  503    0  0.21223597889E+02 -0.27200822533E+00  0.10387047751E+02  0.23630612705E+02  0.00000000000E+00 0. -1.
         -2    1    5    5    0  503  0.90718099291E+02 -0.21352708939E+03  0.36690905735E+02  0.23488255364E+03  0.00000000000E+00 0.  1.
         -1    1    6    6    0  502  0.17072882027E+03 -0.35389118282E+02 -0.11939455135E+04  0.12066095512E+04  0.00000000000E+00 0.  1.
<mgrwt>
<rscale>  0 0.15966137E+04</rscale>
<asrwt>0</asrwt>
<pdfrwt beam="1">  1        2 0.25215429E+00 0.15966137E+04</pdfrwt>
<pdfrwt beam="2">  1       -2 0.59820034E-01 0.15966137E+04</pdfrwt>
<totfact> 0.26511562E+01</totfact>
</mgrwt>
</event>
<event>
12    1  0.1729818E-007  0.2431467E+04  0.7818608E-02  0.8427816E-01
         -2   -1    0    0    0  501 -0.00000000000E+00  0.00000000000E+00  0.73757372051E+03  0.73757372051E+03  0.00000000000E+00 0.  1.
          2   -1    0    0  501    0  0.00000000000E+00 -0.00000000000E+00 -0.20038781243E+04  0.20038781243E+04  0.00000000000E+00 0. -1.
         23    2    1    2    0    0 -0.90211383485E+02 -0.56021126752E+03 -0.14577083444E+04  0.15669237713E+04  0.91442494662E+02 0.  0.
        254    2    1    2    0    0  0.90211383485E+02  0.56021126752E+03  0.19140394065E+03  0.11745280735E+04  0.10103989157E+04 0.  0.
        -24    2    4    4    0    0 -0.42826583845E+03  0.36578590443E+03 -0.36871750509E+02  0.57016427883E+03  0.80726839413E+02 0.  0.
         24    2    4    4    0    0  0.51847722193E+03  0.19442536309E+03  0.22827569116E+03  0.60436379463E+03  0.80783374595E+02 0.  0.
         11    1    3    3    0    0 -0.10080359266E+03 -0.44617234055E+03 -0.10995557261E+04  0.11909046631E+04  0.00000000000E+00 0. -1.
        -11    1    3    3    0    0  0.10592209179E+02 -0.11403892697E+03 -0.35815261835E+03  0.37601910827E+03  0.00000000000E+00 0.  1.
          2    1    6    6  502    0  0.45099900587E+03  0.15940565701E+03  0.16678390838E+03  0.50658379255E+03  0.00000000000E+00 0. -1.
          3    1    5    5  503    0 -0.38639517935E+03  0.34177501221E+03 -0.12308128192E+02  0.51600667013E+03  0.00000000000E+00 0. -1.
         -4    1    5    5    0  503 -0.41870659102E+02  0.24010892218E+02 -0.24563622317E+02  0.54157608700E+02  0.00000000000E+00 0.  1.
         -1    1    6    6    0  502  0.67478216061E+02  0.35019706080E+02  0.61491782780E+02  0.97780002077E+02  0.00000000000E+00 0.  1.
<mgrwt>
<rscale>  0 0.24314669E+04</rscale>
<asrwt>0</asrwt>
<pdfrwt beam="1">  1        2 0.30828894E+00 0.24314669E+04</pdfrwt>
<pdfrwt beam="2">  1       -2 0.11347288E+00 0.24314669E+04</pdfrwt>
<totfact> 0.36324648E+00</totfact>
</mgrwt>
</event>
<event>
12    1  0.1504874E-007  0.2207366E+04  0.7818608E-02  0.8515368E-01
         -1   -1    0    0    0  501 -0.00000000000E+00  0.00000000000E+00  0.72041861009E+03  0.72041861009E+03  0.00000000000E+00 0.  1.
          1   -1    0    0  501    0  0.00000000000E+00 -0.00000000000E+00 -0.16908450741E+04  0.16908450741E+04  0.00000000000E+00 0. -1.
         23    2    1    2    0    0  0.56745975032E+03 -0.64638564173E+03 -0.75489085026E+03  0.11485635734E+04  0.97535225787E+02 0.  0.
        254    2    1    2    0    0 -0.56745975032E+03  0.64638564173E+03 -0.21553561371E+03  0.12627001108E+04  0.89896106861E+03 0.  0.
        -24    2    4    4    0    0 -0.44599958435E+03  0.21562063472E+03 -0.51460274291E+03  0.71872523542E+03  0.79637263013E+02 0.  0.
         24    2    4    4    0    0 -0.12146016597E+03  0.43076500701E+03  0.29906712920E+03  0.54397487534E+03  0.78463074448E+02 0.  0.
         11    1    3    3    0    0  0.29272254476E+03 -0.25999246319E+03 -0.34532347776E+03  0.52204489598E+03  0.00000000000E+00 0.  1.
        -11    1    3    3    0    0  0.27473720556E+03 -0.38639317854E+03 -0.40956737250E+03  0.62651867742E+03  0.00000000000E+00 0. -1.
          4    1    6    6  502    0 -0.10619468756E+03  0.25498867286E+03  0.20538274059E+03  0.34420721242E+03  0.00000000000E+00 0. -1.
          3    1    5    5  503    0 -0.25882943287E+03  0.97755614633E+02 -0.24118778410E+03  0.36704275324E+03  0.00000000000E+00 0. -1.
         -4    1    5    5    0  503 -0.18717015148E+03  0.11786502008E+03 -0.27341495881E+03  0.35168248217E+03  0.00000000000E+00 0.  1.
         -3    1    6    6    0  502 -0.15265478413E+02  0.17577633415E+03  0.93684388614E+02  0.19976766292E+03  0.00000000000E+00 0.  1.
<mgrwt>
<rscale>  0 0.22073661E+04</rscale>
<asrwt>0</asrwt>
<pdfrwt beam="1">  1        1 0.26013001E+00 0.22073661E+04</pdfrwt>
<pdfrwt beam="2">  1       -1 0.11083363E+00 0.22073661E+04</pdfrwt>
<totfact> 0.33022028E+00</totfact>
</mgrwt>
</event>
<event>
12    1  0.1504874E-007  0.2694745E+04  0.7818608E-02  0.8336712E-01
         -2   -1    0    0    0  501 -0.00000000000E+00  0.00000000000E+00  0.82482519013E+03  0.82482519013E+03  0.00000000000E+00 0.  1.
          2   -1    0    0  501    0  0.00000000000E+00 -0.00000000000E+00 -0.22009670973E+04  0.22009670973E+04  0.00000000000E+00 0. -1.
         23    2    1    2    0    0 -0.10486375188E+04 -0.23425249059E+03 -0.12025746461E+04  0.16152205943E+04  0.90757442897E+02 0.  0.
        254    2    1    2    0    0  0.10486375188E+04  0.23425249059E+03 -0.17356726099E+03  0.14105716931E+04  0.89725806334E+03 0.  0.
        -24    2    4    4    0    0  0.45086855969E+03  0.41322566233E+03  0.23500461720E+03  0.65995572853E+03  0.79224285334E+02 0.  0.
         24    2    4    4    0    0  0.59776895910E+03 -0.17897317175E+03 -0.40857187819E+03  0.75061596460E+03  0.84464323831E+02 0.  0.
         13    1    3    3    0    0 -0.61996325754E+03 -0.10875340950E+03 -0.65202696204E+03  0.90626756756E+03  0.00000000000E+00 0. -1.
        -13    1    3    3    0    0 -0.42867426124E+03 -0.12549908109E+03 -0.55054768410E+03  0.70895302670E+03  0.00000000000E+00 0.  1.
          2    1    6    6  502    0  0.56999088163E+03 -0.17252431285E+03 -0.40837723105E+03  0.72209847424E+03  0.00000000000E+00 0. -1.
          3    1    5    5  503    0  0.36055080620E+03  0.32856705141E+03  0.22047176854E+03  0.53531391897E+03  0.00000000000E+00 0. -1.
         -4    1    5    5    0  503  0.90317753490E+02  0.84658610927E+02  0.14532848655E+02  0.12464180956E+03  0.00000000000E+00 0.  1.
         -1    1    6    6    0  502  0.27778077470E+02 -0.64488588973E+01 -0.19464714502E+00  0.28517490362E+02  0.00000000000E+00 0.  1.
<mgrwt>
<rscale>  0 0.26947453E+04</rscale>
<asrwt>0</asrwt>
<pdfrwt beam="1">  1        2 0.33861032E+00 0.26947453E+04</pdfrwt>
<pdfrwt beam="2">  1       -2 0.12689618E+00 0.26947453E+04</pdfrwt>
<totfact> 0.20895055E+00</totfact>
</mgrwt>
</event>
<event>
12    1  0.1504874E-007  0.2156025E+04  0.7818608E-02  0.8536958E-01
         -2   -1    0    0    0  501 -0.00000000000E+00  0.00000000000E+00  0.53641559764E+03  0.53641559764E+03  0.00000000000E+00 0.  1.
          2   -1    0    0  501    0  0.00000000000E+00 -0.00000000000E+00 -0.21664376348E+04  0.21664376348E+04  0.00000000000E+00 0. -1.
         23    2    1    2    0    0 -0.23214664861E+03  0.72831641361E+03 -0.12395402189E+04  0.14591792482E+04  0.91691107242E+02 0.  0.
        254    2    1    2    0    0  0.23214664861E+03 -0.72831641361E+03 -0.39048181824E+03  0.12436739843E+04  0.89995114534E+03 0.  0.
        -24    2    4    4    0    0 -0.35651760990E+02 -0.38634964450E+02  0.24594218418E+03  0.26407780139E+03  0.80534580704E+02 0.  0.
         24    2    4    4    0    0  0.26779840960E+03 -0.68968144916E+03 -0.63642400242E+03  0.97959618288E+03  0.84833255132E+02 0.  0.
         13    1    3    3    0    0 -0.10302293802E+03  0.46872559014E+03 -0.76438203118E+03  0.90255043859E+03  0.00000000000E+00 0.  1.
        -13    1    3    3    0    0 -0.12912371059E+03  0.25959082347E+03 -0.47515818774E+03  0.55662880957E+03  0.00000000000E+00 0. -1.
          4    1    6    6  502    0  0.24989035354E+03 -0.55845004248E+03 -0.51005761771E+03  0.79653651023E+03  0.00000000000E+00 0. -1.
          1    1    5    5  503    0 -0.43166995387E+02 -0.64565824189E+00  0.58661780293E+02  0.72835505301E+02  0.00000000000E+00 0. -1.
         -2    1    5    5    0  503  0.75152343965E+01 -0.37989306208E+02  0.18728040389E+03  0.19124229609E+03  0.00000000000E+00 0.  1.
         -3    1    6    6    0  502  0.17908056056E+02 -0.13123140668E+03 -0.12636638471E+03  0.18305967266E+03  0.00000000000E+00 0.  1.
<mgrwt>
<rscale>  0 0.21560250E+04</rscale>
<asrwt>0</asrwt>
<pdfrwt beam="1">  1        2 0.33329810E+00 0.21560250E+04</pdfrwt>
<pdfrwt beam="2">  1       -2 0.82525476E-01 0.21560250E+04</pdfrwt>
<totfact> 0.63744249E+00</totfact>
</mgrwt>
</event>
<event>
12    1  0.1504874E-007  0.1441728E+04  0.7818608E-02  0.8924156E-01
          1   -1    0    0  501    0  0.00000000000E+00  0.00000000000E+00  0.60346002287E+03  0.60346002287E+03  0.00000000000E+00 0. -1.
         -1   -1    0    0    0  501 -0.00000000000E+00 -0.00000000000E+00 -0.86110877579E+03  0.86110877579E+03  0.00000000000E+00 0.  1.
         23    2    1    2    0    0  0.23637919169E+03 -0.34413365984E+03  0.36539410991E+02  0.42839490536E+03  0.88791712951E+02 0.  0.
        254    2    1    2    0    0 -0.23637919169E+03  0.34413365984E+03 -0.29418816391E+03  0.10361738933E+04  0.90155785353E+03 0.  0.
        -24    2    4    4    0    0 -0.25754681834E+03  0.57274215747E+03  0.26362059183E+02  0.63360453312E+03  0.79973768497E+02 0.  0.
         24    2    4    4    0    0  0.21167626651E+02 -0.22860849763E+03 -0.32055022310E+03  0.40256936018E+03  0.81238726104E+02 0.  0.
         11    1    3    3    0    0  0.17064550519E+03 -0.25317006375E+03  0.66000577661E+02  0.31236364365E+03  0.00000000000E+00 0.  1.
        -11    1    3    3    0    0  0.65733686497E+02 -0.90963596084E+02 -0.29461166670E+02  0.11603126171E+03  0.00000000000E+00 0. -1.
          2    1    6    6  502    0 -0.21683277732E+02 -0.46116491887E+02 -0.38329817573E+02  0.63765745290E+02  0.00000000000E+00 0. -1.
          3    1    5    5  503    0  0.36921918299E+01  0.33608658948E+02  0.45536108974E+01  0.34116119490E+02  0.00000000000E+00 0. -1.
         -4    1    5    5    0  503 -0.26123901017E+03  0.53913349852E+03  0.21808448286E+02  0.59948841363E+03  0.00000000000E+00 0.  1.
         -1    1    6    6    0  502  0.42850904383E+02 -0.18249200574E+03 -0.28222040552E+03  0.33880361489E+03  0.00000000000E+00 0.  1.
<mgrwt>
<rscale>  0 0.14417277E+04</rscale>
<asrwt>0</asrwt>
<pdfrwt beam="1">  1        1 0.92840003E-01 0.14417277E+04</pdfrwt>
<pdfrwt beam="2">  1       -1 0.13247827E+00 0.14417277E+04</pdfrwt>
<totfact> 0.15960347E+01</totfact>
</mgrwt>
</event>
<event>
12    1  0.1504874E-007  0.1674052E+04  0.7818608E-02  0.8776304E-01
         -1   -1    0    0    0  501 -0.00000000000E+00  0.00000000000E+00  0.72032021178E+03  0.72032021178E+03  0.00000000000E+00 0.  1.
          1   -1    0    0  501    0  0.00000000000E+00 -0.00000000000E+00 -0.97263985849E+03  0.97263985849E+03  0.00000000000E+00 0. -1.
         23    2    1    2    0    0  0.24651723879E+03 -0.66488343701E+02 -0.62747041620E+03  0.68353486898E+03  0.91155608906E+02 0.  0.
        254    2    1    2    0    0 -0.24651723879E+03  0.66488343701E+02  0.37515076949E+03  0.10094252013E+04  0.90167049873E+03 0.  0.
        -24    2    4    4    0    0 -0.72859591470E+02  0.40073297749E+03 -0.68261995039E+02  0.42155916857E+03  0.84599014917E+02 0.  0.
         24    2    4    4    0    0 -0.17365764732E+03 -0.33424463379E+03  0.44341276453E+03  0.58786603272E+03  0.84232647948E+02 0.  0.
         13    1    3    3    0    0  0.44479886510E+02  0.84994854893E+00 -0.21251214205E+03  0.21711884588E+03  0.00000000000E+00 0.  1.
        -13    1    3    3    0    0  0.20203735228E+03 -0.67338292250E+02 -0.41495827414E+03  0.46641602310E+03  0.00000000000E+00 0. -1.
          4    1    6    6  502    0 -0.86607727367E+02 -0.19795200066E+03  0.19267293565E+03  0.28949741473E+03  0.00000000000E+00 0. -1.
          1    1    5    5  503    0 -0.59874164394E+02  0.36037230513E+03 -0.86485870657E+02  0.37541033509E+03  0.00000000000E+00 0. -1.
         -2    1    5    5    0  503 -0.12985427076E+02  0.40360672362E+02  0.18223875618E+02  0.46148833489E+02  0.00000000000E+00 0.  1.
         -3    1    6    6    0  502 -0.87049919957E+02 -0.13629263313E+03  0.25073982888E+03  0.29836861798E+03  0.00000000000E+00 0.  1.
<mgrwt>
<rscale>  0 0.16740516E+04</rscale>
<asrwt>0</asrwt>
<pdfrwt beam="1">  1        1 0.14963690E+00 0.16740516E+04</pdfrwt>
<pdfrwt beam="2">  1       -1 0.11081849E+00 0.16740516E+04</pdfrwt>
<totfact> 0.11373842E+01</totfact>
</mgrwt>
</event>
<event>
12    1  0.1504874E-007  0.1877801E+04  0.7818608E-02  0.8665986E-01
          2   -1    0    0  501    0  0.00000000000E+00  0.00000000000E+00  0.74005381103E+03  0.74005381103E+03  0.00000000000E+00 0.  1.
         -2   -1    0    0    0  501 -0.00000000000E+00 -0.00000000000E+00 -0.11911762440E+04  0.11911762440E+04  0.00000000000E+00 0. -1.
         23    2    1    2    0    0  0.35132033920E+03 -0.57321869321E+03 -0.56535486155E+03  0.88322316783E+03  0.91931462179E+02 0.  0.
        254    2    1    2    0    0 -0.35132033920E+03  0.57321869321E+03  0.11423242853E+03  0.10480068872E+04  0.79577869851E+03 0.  0.
        -24    2    4    4    0    0 -0.51994531550E+03  0.63960447249E+03  0.16189256302E+03  0.84383370048E+03  0.80056853320E+02 0.  0.
         24    2    4    4    0    0  0.16862497631E+03 -0.66385779275E+02 -0.47660134483E+02  0.20417318677E+03  0.81078649787E+02 0.  0.
         11    1    3    3    0    0  0.34208988676E+02 -0.75519699743E+02 -0.11045148595E+03  0.13810507124E+03  0.00000000000E+00 0.  1.
        -11    1    3    3    0    0  0.31711135052E+03 -0.49769899347E+03 -0.45490337560E+03  0.74511809659E+03  0.00000000000E+00 0. -1.
          4    1    6    6  502    0  0.23022099403E+02  0.44690297587E+01  0.17874065067E+02  0.29486801961E+02  0.00000000000E+00 0. -1.
          3    1    5    5  503    0 -0.46261192675E+02  0.94821821882E+02  0.88737977429E+01  0.10587738257E+03  0.00000000000E+00 0. -1.
         -4    1    5    5    0  503 -0.47368412283E+03  0.54478265060E+03  0.15301876527E+03  0.73795631791E+03  0.00000000000E+00 0.  1.
         -3    1    6    6    0  502  0.14560287690E+03 -0.70854809034E+02 -0.65534199550E+02  0.17468638481E+03  0.00000000000E+00 0.  1.
<mgrwt>
<rscale>  0 0.18778014E+04</rscale>
<asrwt>0</asrwt>
<pdfrwt beam="1">  1        2 0.11385443E+00 0.18778014E+04</pdfrwt>
<pdfrwt beam="2">  1       -2 0.18325788E+00 0.18778014E+04</pdfrwt>
<totfact> 0.61606294E+00</totfact>
</mgrwt>
</event>
<event>
12    1  0.1504874E-007  0.2376860E+04  0.7818608E-02  0.8448218E-01
         -2   -1    0    0    0  501 -0.00000000000E+00  0.00000000000E+00  0.22576115019E+04  0.22576115019E+04  0.00000000000E+00 0.  1.
          2   -1    0    0  501    0  0.00000000000E+00 -0.00000000000E+00 -0.62560181848E+03  0.62560181848E+03  0.00000000000E+00 0. -1.
         23    2    1    2    0    0  0.36496786530E+03 -0.74239260470E+03  0.13962532120E+04  0.16255806706E+04  0.92957854190E+02 0.  0.
        254    2    1    2    0    0 -0.36496786530E+03  0.74239260470E+03  0.23575647144E+03  0.12576326497E+04  0.91744778903E+03 0.  0.
        -24    2    4    4    0    0 -0.88015719290E+02 -0.20484941008E+03  0.10285027791E+03  0.25857588942E+03  0.81075663877E+02 0.  0.
         24    2    4    4    0    0 -0.27695214601E+03  0.94724201478E+03  0.13290619354E+03  0.99905676030E+03  0.80501107218E+02 0.  0.
         13    1    3    3    0    0 -0.44234171387E+01 -0.16750945610E+01  0.86871669976E+01  0.98913816737E+01  0.00000000000E+00 0. -1.
        -13    1    3    3    0    0  0.36939128244E+03 -0.74071751014E+03  0.13875660450E+04  0.16156892890E+04  0.00000000000E+00 0.  1.
          2    1    6    6  502    0 -0.20395639178E+03  0.61553235089E+03  0.56330620871E+02  0.65088510782E+03  0.00000000000E+00 0. -1.
          1    1    5    5  503    0 -0.26993976434E+02 -0.44838664479E+01  0.16987538232E+02  0.32208015729E+02  0.00000000000E+00 0. -1.
         -2    1    5    5    0  503 -0.61021742856E+02 -0.20036554363E+03  0.85862739676E+02  0.22636787370E+03  0.00000000000E+00 0.  1.
         -1    1    6    6    0  502 -0.72995754228E+02  0.33170966390E+03  0.76575572664E+02  0.34817165248E+03  0.00000000000E+00 0.  1.
<mgrwt>
<rscale>  0 0.23768600E+04</rscale>
<asrwt>0</asrwt>
<pdfrwt beam="1">  1        2 0.96246435E-01 0.23768600E+04</pdfrwt>
<pdfrwt beam="2">  1       -2 0.34732484E+00 0.23768600E+04</pdfrwt>
<totfact> 0.68736769E-01</totfact>
</mgrwt>
</event>
<event>
12    1  0.1504874E-007  0.1152417E+04  0.7818608E-02  0.9155557E-01
         -2   -1    0    0    0  501 -0.00000000000E+00  0.00000000000E+00  0.34492133918E+03  0.34492133918E+03  0.00000000000E+00 0.  1.
          2   -1    0    0  501    0  0.00000000000E+00 -0.00000000000E+00 -0.96258471336E+03  0.96258471336E+03  0.00000000000E+00 0. -1.
         23    2    1    2    0    0  0.10044068831E+03  0.14651572787E+03 -0.24728429863E+01  0.20026812886E+03  0.92444675898E+02 0.  0.
        254    2    1    2    0    0 -0.10044068831E+03 -0.14651572787E+03 -0.61519053119E+03  0.11072379237E+04  0.90330572875E+03 0.  0.
        -24    2    4    4    0    0 -0.64925122725E+02 -0.34453699737E+03  0.89452567211E+02  0.37026295089E+03  0.78561293929E+02 0.  0.
         24    2    4    4    0    0 -0.35515565584E+02  0.19802126950E+03 -0.70464309840E+03  0.73697497279E+03  0.78335405947E+02 0.  0.
         11    1    3    3    0    0  0.11119810137E+03  0.14827484719E+03 -0.12088773399E+02  0.18573256715E+03  0.00000000000E+00 0.  1.
        -11    1    3    3    0    0 -0.10757413058E+02 -0.17591193199E+01  0.96159304123E+01  0.14535561709E+02  0.00000000000E+00 0. -1.
          2    1    6    6  502    0 -0.25289617492E+02  0.16078549281E+03 -0.64997857034E+03  0.67004752171E+03  0.00000000000E+00 0. -1.
          1    1    5    5  503    0 -0.77029158883E+02 -0.20700173546E+03  0.46973210110E+02  0.22580897296E+03  0.00000000000E+00 0. -1.
         -2    1    5    5    0  503  0.12104036158E+02 -0.13753526191E+03  0.42479357100E+02  0.14445397793E+03  0.00000000000E+00 0.  1.
         -1    1    6    6    0  502 -0.10225948091E+02  0.37235776688E+02 -0.54664528062E+02  0.66927451080E+02  0.00000000000E+00 0.  1.
<mgrwt>
<rscale>  0 0.11524166E+04</rscale>
<asrwt>0</asrwt>
<pdfrwt beam="1">  1        2 0.14808996E+00 0.11524166E+04</pdfrwt>
<pdfrwt beam="2">  1       -2 0.53064821E-01 0.11524166E+04</pdfrwt>
<totfact> 0.88282972E+01</totfact>
</mgrwt>
</event>
<event>
12    1  0.1504874E-007  0.1693228E+04  0.7818608E-02  0.8765236E-01
         -2   -1    0    0    0  501 -0.00000000000E+00  0.00000000000E+00  0.34839494035E+03  0.34839494035E+03  0.00000000000E+00 0.  1.
          2   -1    0    0  501    0  0.00000000000E+00 -0.00000000000E+00 -0.20573078401E+04  0.20573078401E+04  0.00000000000E+00 0. -1.
         23    2    1    2    0    0  0.36443495169E+03  0.26133350961E+03 -0.62049437679E+02  0.46221668117E+03  0.93199197290E+02 0.  0.
        254    2    1    2    0    0 -0.36443495169E+03 -0.26133350961E+03 -0.16468634620E+04  0.19434860992E+04  0.92944656548E+03 0.  0.
        -24    2    4    4    0    0 -0.13177529786E+03 -0.11287873723E+03 -0.16437420620E+04  0.16546508402E+04  0.76649187970E+02 0.  0.
         24    2    4    4    0    0 -0.23265965384E+03 -0.14845477238E+03 -0.31214000399E+01  0.28883525908E+03  0.85127726283E+02 0.  0.
         13    1    3    3    0    0 -0.46069794628E+01  0.30742951794E+00 -0.46653464750E+01  0.65638578908E+01  0.00000000000E+00 0. -1.
        -13    1    3    3    0    0  0.36904193116E+03  0.26102608009E+03 -0.57384091204E+02  0.45565282328E+03  0.00000000000E+00 0.  1.
          2    1    6    6  502    0 -0.17103654064E+02 -0.32550732448E+02 -0.22863657861E+02  0.43299330434E+02  0.00000000000E+00 0. -1.
          1    1    5    5  503    0  0.47023345815E+01  0.17487844740E+01 -0.18401254308E+03  0.18408092299E+03  0.00000000000E+00 0. -1.
         -2    1    5    5    0  503 -0.13647763244E+03 -0.11462752170E+03 -0.14597295189E+04  0.14705699172E+04  0.00000000000E+00 0.  1.
         -1    1    6    6    0  502 -0.21555599977E+03 -0.11590403993E+03  0.19742257821E+02  0.24553592864E+03  0.00000000000E+00 0.  1.
<mgrwt>
<rscale>  0 0.16932284E+04</rscale>
<asrwt>0</asrwt>
<pdfrwt beam="1">  1        2 0.31650890E+00 0.16932284E+04</pdfrwt>
<pdfrwt beam="2">  1       -2 0.53599221E-01 0.16932284E+04</pdfrwt>
<totfact> 0.19388853E+01</totfact>
</mgrwt>
</event>
<event>
12    1  0.1504874E-007  0.2860134E+04  0.7818608E-02  0.8284839E-01
          1   -1    0    0  501    0  0.00000000000E+00  0.00000000000E+00  0.18164667699E+04  0.18164667699E+04  0.00000000000E+00 0. -1.
         -1   -1    0    0    0  501 -0.00000000000E+00 -0.00000000000E+00 -0.11258624219E+04  0.11258624219E+04  0.00000000000E+00 0.  1.
         23    2    1    2    0    0  0.47313454063E+03 -0.11181423956E+04  0.75160549054E+03  0.14308163657E+04  0.90697015040E+02 0.  0.
        254    2    1    2    0    0 -0.47313454063E+03  0.11181423956E+04 -0.61001142622E+02  0.15115128261E+04  0.89824894864E+03 0.  0.
        -24    2    4    4    0    0  0.83984534255E+02  0.62879305575E+03  0.27215844312E+03  0.69483878650E+03  0.79351194750E+02 0.  0.
         24    2    4    4    0    0 -0.55711907488E+03  0.48934933985E+03 -0.33315958574E+03  0.81667403961E+03  0.78209573617E+02 0.  0.
         13    1    3    3    0    0  0.46030205151E+03 -0.10790159185E+04  0.70506376928E+03  0.13686739019E+04  0.00000000000E+00 0. -1.
        -13    1    3    3    0    0  0.12832489119E+02 -0.39126477091E+02  0.46541721259E+02  0.62142463777E+02  0.00000000000E+00 0.  1.
          2    1    6    6  502    0 -0.16742984691E+03  0.12833360001E+03 -0.13082938584E+03  0.24823093024E+03  0.00000000000E+00 0. -1.
          1    1    5    5  503    0  0.42865568680E+02  0.10480233363E+03  0.37990129209E+02  0.11943297715E+03  0.00000000000E+00 0. -1.
         -4    1    5    5    0  503  0.41118965575E+02  0.52399072212E+03  0.23416831391E+03  0.57540580935E+03  0.00000000000E+00 0.  1.
         -1    1    6    6    0  502 -0.38968922797E+03  0.36101573983E+03 -0.20233019990E+03  0.56844310937E+03  0.00000000000E+00 0.  1.
<mgrwt>
<rscale>  0 0.28601340E+04</rscale>
<asrwt>0</asrwt>
<pdfrwt beam="1">  1        1 0.27945643E+00 0.28601340E+04</pdfrwt>
<pdfrwt beam="2">  1       -1 0.17320960E+00 0.28601340E+04</pdfrwt>
<totfact> 0.79710156E-01</totfact>
</mgrwt>
</event>
<event>
12    1  0.1504874E-007  0.2133112E+04  0.7818608E-02  0.8546796E-01
          2   -1    0    0  501    0  0.00000000000E+00  0.00000000000E+00  0.76561015440E+03  0.76561015440E+03  0.00000000000E+00 0. -1.
         -2   -1    0    0    0  501 -0.00000000000E+00 -0.00000000000E+00 -0.14857982464E+04  0.14857982464E+04  0.00000000000E+00 0.  1.
         23    2    1    2    0    0 -0.43773761812E+03  0.35912529996E+03  0.40545170730E+03  0.70234440322E+03  0.91166717608E+02 0.  0.
        254    2    1    2    0    0  0.43773761812E+03 -0.35912529996E+03 -0.11256397993E+04  0.15490639976E+04  0.90108218685E+03 0.  0.
        -24    2    4    4    0    0 -0.10760076535E+03 -0.90772594756E+02 -0.86904683842E+03  0.88430343043E+03  0.83262002411E+02 0.  0.
         24    2    4    4    0    0  0.54533838347E+03 -0.26835270520E+03 -0.25659296088E+03  0.66476056715E+03  0.81605987504E+02 0.  0.
         13    1    3    3    0    0 -0.51288278278E+02  0.75468579489E+02  0.40382795266E+02  0.99783586487E+02  0.00000000000E+00 0.  1.
        -13    1    3    3    0    0 -0.38644933984E+03  0.28365672047E+03  0.36506891203E+03  0.60256081673E+03  0.00000000000E+00 0. -1.
          2    1    6    6  502    0  0.53556496104E+03 -0.24822343941E+03 -0.24157295298E+03  0.63781046948E+03  0.00000000000E+00 0. -1.
          1    1    5    5  503    0 -0.60377909285E+02 -0.96324071128E+02 -0.67565564713E+03  0.68515280931E+03  0.00000000000E+00 0. -1.
         -2    1    5    5    0  503 -0.47222856063E+02  0.55514763715E+01 -0.19339119129E+03  0.19915062112E+03  0.00000000000E+00 0.  1.
         -1    1    6    6    0  502  0.97734224235E+01 -0.20129265787E+02 -0.15020007903E+02  0.26950097669E+02  0.00000000000E+00 0.  1.
<mgrwt>
<rscale>  0 0.21331125E+04</rscale>
<asrwt>0</asrwt>
<pdfrwt beam="1">  1        2 0.11778618E+00 0.21331125E+04</pdfrwt>
<pdfrwt beam="2">  1       -2 0.22858434E+00 0.21331125E+04</pdfrwt>
<totfact> 0.29266418E+00</totfact>
</mgrwt>
</event>
<event>
12    1  0.1504874E-007  0.1545232E+04  0.7818608E-02  0.8854919E-01
         -1   -1    0    0    0  501 -0.00000000000E+00  0.00000000000E+00  0.55511903665E+03  0.55511903665E+03  0.00000000000E+00 0.  1.
          1   -1    0    0  501    0  0.00000000000E+00 -0.00000000000E+00 -0.10753286551E+04  0.10753286551E+04  0.00000000000E+00 0. -1.
         23    2    1    2    0    0 -0.13256164402E+03 -0.34042852833E+03 -0.54498595703E+03  0.66235394152E+03  0.90768266019E+02 0.  0.
        254    2    1    2    0    0  0.13256164402E+03  0.34042852833E+03  0.24776338571E+02  0.96809375023E+03  0.89617379448E+03 0.  0.
        -24    2    4    4    0    0  0.20905178461E+03  0.61751171683E+03 -0.55071398677E+02  0.65901422139E+03  0.79015922234E+02 0.  0.
         24    2    4    4    0    0 -0.76490140592E+02 -0.27708318850E+03  0.79847737248E+02  0.30907952884E+03  0.80800117876E+02 0.  0.
         13    1    3    3    0    0  0.30718600161E+01 -0.18549156626E+02 -0.71761898393E+02  0.74184079131E+02  0.00000000000E+00 0.  1.
        -13    1    3    3    0    0 -0.13563350403E+03 -0.32187937171E+03 -0.47322405863E+03  0.58816986239E+03  0.00000000000E+00 0. -1.
          2    1    6    6  502    0 -0.85924537633E+02 -0.16472827305E+03  0.47063744076E+02  0.19165966220E+03  0.00000000000E+00 0. -1.
          3    1    5    5  503    0  0.67409887960E+02  0.10362276147E+03 -0.13134039415E+02  0.12431521500E+03  0.00000000000E+00 0. -1.
         -4    1    5    5    0  503  0.14164189665E+03  0.51388895536E+03 -0.41937359262E+02  0.53469900639E+03  0.00000000000E+00 0.  1.
         -1    1    6    6    0  502  0.94343970405E+01 -0.11235491545E+03  0.32783993172E+02  0.11741986664E+03  0.00000000000E+00 0.  1.
<mgrwt>
<rscale>  0 0.15452319E+04</rscale>
<asrwt>0</asrwt>
<pdfrwt beam="1">  1        1 0.16543517E+00 0.15452319E+04</pdfrwt>
<pdfrwt beam="2">  1       -1 0.85402930E-01 0.15452319E+04</pdfrwt>
<totfact> 0.17290349E+01</totfact>
</mgrwt>
</event>
<event>
12    1  0.1504874E-007  0.1424229E+04  0.7818608E-02  0.8936465E-01
          2   -1    0    0  501    0  0.00000000000E+00  0.00000000000E+00  0.45607382314E+03  0.45607382314E+03  0.00000000000E+00 0. -1.
         -2   -1    0    0    0  501 -0.00000000000E+00 -0.00000000000E+00 -0.11118963087E+04  0.11118963087E+04  0.00000000000E+00 0.  1.
         23    2    1    2    0    0  0.22519016478E+03  0.70360732479E+02 -0.62949582027E+03  0.67842683804E+03  0.91305771184E+02 0.  0.
        254    2    1    2    0    0 -0.22519016478E+03 -0.70360732479E+02 -0.26326665293E+02  0.88954329381E+03  0.85728229613E+03 0.  0.
        -24    2    4    4    0    0 -0.47791325411E+03 -0.20590408098E+03 -0.17695052147E+03  0.55588685520E+03  0.83073098636E+02 0.  0.
         24    2    4    4    0    0  0.25272308933E+03  0.13554334850E+03  0.15062385617E+03  0.33365643861E+03  0.79988210227E+02 0.  0.
         13    1    3    3    0    0  0.91397766695E+02  0.22950752474E+02 -0.37870060278E+03  0.39024919646E+03  0.00000000000E+00 0.  1.
        -13    1    3    3    0    0  0.13379239809E+03  0.47409980005E+02 -0.25079521749E+03  0.28817764158E+03  0.00000000000E+00 0. -1.
          4    1    6    6  502    0  0.38073383573E+02 -0.87378351908E+01  0.18286833639E+02  0.43131665689E+02  0.00000000000E+00 0. -1.
          1    1    5    5  503    0 -0.20991584094E+03 -0.49672340588E+02 -0.55410389178E+02  0.22271576713E+03  0.00000000000E+00 0. -1.
         -2    1    5    5    0  503 -0.26799741317E+03 -0.15623174039E+03 -0.12154013229E+03  0.33317108807E+03  0.00000000000E+00 0.  1.
         -3    1    6    6    0  502  0.21464970575E+03  0.14428118369E+03  0.13233702253E+03  0.29052477292E+03  0.00000000000E+00 0.  1.
<mgrwt>
<rscale>  0 0.14242286E+04</rscale>
<asrwt>0</asrwt>
<pdfrwt beam="1">  1        2 0.70165204E-01 0.14242286E+04</pdfrwt>
<pdfrwt beam="2">  1       -2 0.17106097E+00 0.14242286E+04</pdfrwt>
<totfact> 0.13922410E+01</totfact>
</mgrwt>
</event>
<event>
12    1  0.1504874E-007  0.1943016E+04  0.7818608E-02  0.8633736E-01
          2   -1    0    0  501    0  0.00000000000E+00  0.00000000000E+00  0.26657268512E+04  0.26657268512E+04  0.00000000000E+00 0. -1.
         -2   -1    0    0    0  501 -0.00000000000E+00 -0.00000000000E+00 -0.35406035404E+03  0.35406035404E+03  0.00000000000E+00 0.  1.
         23    2    1    2    0    0 -0.20212450720E+03 -0.69197421080E+03  0.55737518506E+03  0.91568216332E+03  0.90133803164E+02 0.  0.
        254    2    1    2    0    0  0.20212450720E+03  0.69197421080E+03  0.17542913121E+04  0.21041050419E+04  0.91106388084E+03 0.  0.
        -24    2    4    4    0    0 -0.10853119097E+03 -0.17444341102E+03  0.20837269171E+03  0.30323857939E+03  0.79529455684E+02 0.  0.
         24    2    4    4    0    0  0.31065569816E+03  0.86641762182E+03  0.15459186204E+04  0.18008664625E+04  0.77904921882E+02 0.  0.
         13    1    3    3    0    0 -0.77445897238E+02 -0.40750910281E+03  0.29354688744E+03  0.50816464949E+03  0.00000000000E+00 0.  1.
        -13    1    3    3    0    0 -0.12467860996E+03 -0.28446510799E+03  0.26382829763E+03  0.40751751383E+03  0.00000000000E+00 0. -1.
          2    1    6    6  502    0  0.25702113770E+03  0.69653820418E+03  0.13021770129E+04  0.14989630777E+04  0.00000000000E+00 0. -1.
          1    1    5    5  503    0 -0.61942112977E+02 -0.15873354378E+03  0.17174269749E+03  0.24192709113E+03  0.00000000000E+00 0. -1.
         -2    1    5    5    0  503 -0.46589077990E+02 -0.15709867239E+02  0.36629994216E+02  0.61311488262E+02  0.00000000000E+00 0.  1.
         -1    1    6    6    0  502  0.53634560460E+02  0.16987941763E+03  0.24374160744E+03  0.30190338489E+03  0.00000000000E+00 0.  1.
<mgrwt>
<rscale>  0 0.19430164E+04</rscale>
<asrwt>0</asrwt>
<pdfrwt beam="1">  1        2 0.41011181E+00 0.19430164E+04</pdfrwt>
<pdfrwt beam="2">  1       -2 0.54470825E-01 0.19430164E+04</pdfrwt>
<totfact> 0.82500685E+00</totfact>
</mgrwt>
</event>
<event>
12    1  0.2244309E-007  0.2300879E+04  0.7818608E-02  0.8477575E-01
         -2   -1    0    0    0  501 -0.00000000000E+00  0.00000000000E+00  0.65681987117E+03  0.65681987117E+03  0.00000000000E+00 0.  1.
          2   -1    0    0  501    0  0.00000000000E+00 -0.00000000000E+00 -0.20150285679E+04  0.20150285679E+04  0.00000000000E+00 0. -1.
         23    2    1    2    0    0 -0.79784031934E+03 -0.50192853634E+03 -0.31203093077E+03  0.99717594329E+03  0.92277458571E+02 0.  0.
        254    2    1    2    0    0  0.79784031934E+03  0.50192853634E+03 -0.10461777660E+04  0.16746724958E+04  0.90639870882E+03 0.  0.
        -24    2    4    4    0    0 -0.15102752169E+03 -0.13166864485E+02 -0.34331827032E+03  0.38385473227E+03  0.80587481209E+02 0.  0.
         24    2    4    4    0    0  0.94886784103E+03  0.51509540083E+03 -0.70285949564E+03  0.12908177635E+04  0.80781038941E+02 0.  0.
         13    1    3    3    0    0 -0.76552631950E+03 -0.48135600524E+03 -0.27832017947E+03  0.94614812367E+03  0.00000000000E+00 0.  1.
        -13    1    3    3    0    0 -0.32313999839E+02 -0.20572531103E+02 -0.33710751305E+02  0.51027819620E+02  0.00000000000E+00 0. -1.
          2    1    6    6  502    0  0.90752406438E+03  0.47196635477E+03 -0.66598944953E+03  0.12206121884E+04  0.00000000000E+00 0. -1.
          1    1    5    5  503    0 -0.13512950733E+03  0.18361379148E+02 -0.27122642753E+03  0.30358013602E+03  0.00000000000E+00 0. -1.
         -2    1    5    5    0  503 -0.15898014357E+02 -0.31528243633E+02 -0.72091842787E+02  0.80274596252E+02  0.00000000000E+00 0.  1.
         -1    1    6    6    0  502  0.41343776650E+02  0.43129046056E+02 -0.36870046107E+02  0.70205575144E+02  0.00000000000E+00 0.  1.
<mgrwt>
<rscale>  0 0.23008788E+04</rscale>
<asrwt>0</asrwt>
<pdfrwt beam="1">  1        2 0.31000440E+00 0.23008788E+04</pdfrwt>
<pdfrwt beam="2">  1       -2 0.10104921E+00 0.23008788E+04</pdfrwt>
<totfact> 0.47868391E+00</totfact>
</mgrwt>
</event>
<event>
12    1  0.1504874E-007  0.2514298E+04  0.7818608E-02  0.8397910E-01
          2   -1    0    0  501    0  0.00000000000E+00  0.00000000000E+00  0.12733484270E+04  0.12733484270E+04  0.00000000000E+00 0. -1.
         -2   -1    0    0    0  501 -0.00000000000E+00 -0.00000000000E+00 -0.12411553563E+04  0.12411553563E+04  0.00000000000E+00 0.  1.
         23    2    1    2    0    0  0.10244303459E+04  0.34145646085E+03  0.18666051798E+03  0.10995764776E+04  0.90422523550E+02 0.  0.
        254    2    1    2    0    0 -0.10244303459E+04 -0.34145646085E+03 -0.15446744722E+03  0.14149273057E+04  0.90117092721E+03 0.  0.
        -24    2    4    4    0    0 -0.21208664395E+03  0.22364896526E+03  0.18178601185E+03  0.36679767028E+03  0.80590152121E+02 0.  0.
         24    2    4    4    0    0 -0.81234370194E+03 -0.56510542611E+03 -0.33625345908E+03  0.10481296355E+04  0.79138557489E+02 0.  0.
         13    1    3    3    0    0  0.29713523444E+03  0.12829274068E+03  0.24814960980E+02  0.32459845524E+03  0.00000000000E+00 0.  1.
        -13    1    3    3    0    0  0.72729511146E+03  0.21316372018E+03  0.16184555700E+03  0.77497802232E+03  0.00000000000E+00 0. -1.
          4    1    6    6  502    0 -0.25816156200E+03 -0.19576215493E+03 -0.73740857630E+02  0.33227688376E+03  0.00000000000E+00 0. -1.
          3    1    5    5  503    0 -0.90918857543E+02  0.12683589552E+03  0.51781869707E+02  0.16442306736E+03  0.00000000000E+00 0. -1.
         -4    1    5    5    0  503 -0.12116778641E+03  0.96813069737E+02  0.13000414215E+03  0.20237460293E+03  0.00000000000E+00 0.  1.
         -3    1    6    6    0  502 -0.55418213994E+03 -0.36934327118E+03 -0.26251260145E+03  0.71585275170E+03  0.00000000000E+00 0.  1.
<mgrwt>
<rscale>  0 0.25142977E+04</rscale>
<asrwt>0</asrwt>
<pdfrwt beam="1">  1        2 0.19589976E+00 0.25142977E+04</pdfrwt>
<pdfrwt beam="2">  1       -2 0.19094698E+00 0.25142977E+04</pdfrwt>
<totfact> 0.23318960E+00</totfact>
</mgrwt>
</event>
<event>
12    1  0.1504874E-007  0.1610809E+04  0.7818608E-02  0.8813935E-01
         -2   -1    0    0    0  501 -0.00000000000E+00  0.00000000000E+00  0.47849083974E+03  0.47849083974E+03  0.00000000000E+00 0.  1.
          2   -1    0    0  501    0  0.00000000000E+00 -0.00000000000E+00 -0.13556711347E+04  0.13556711347E+04  0.00000000000E+00 0. -1.
         23    2    1    2    0    0  0.47637205858E+01 -0.38539102302E+03 -0.73099955770E+03  0.83527041563E+03  0.12152111011E+03 0.  0.
        254    2    1    2    0    0 -0.47637205858E+01  0.38539102302E+03 -0.14618073722E+03  0.99889155879E+03  0.90987175174E+03 0.  0.
        -24    2    4    4    0    0 -0.18269953853E+03  0.61899186910E+03  0.21045150108E+02  0.65159237151E+03  0.87176056732E+02 0.  0.
         24    2    4    4    0    0  0.17793581795E+03 -0.23360084608E+03 -0.16722588733E+03  0.34729918728E+03  0.80135619365E+02 0.  0.
         11    1    3    3    0    0  0.39305740905E+02 -0.33205283402E+03 -0.55255918513E+03  0.64585267587E+03  0.00000000000E+00 0. -1.
        -11    1    3    3    0    0 -0.34542020319E+02 -0.53338189000E+02 -0.17844037257E+03  0.18941773976E+03  0.00000000000E+00 0.  1.
          2    1    6    6  502    0  0.10115823049E+02 -0.38642215731E+01 -0.29076714806E+02  0.31027688091E+02  0.00000000000E+00 0. -1.
          1    1    5    5  503    0 -0.20987938578E+02  0.14160679998E+03  0.34992903746E+02  0.14736852676E+03  0.00000000000E+00 0. -1.
         -2    1    5    5    0  503 -0.16171159996E+03  0.47738506912E+03 -0.13947753638E+02  0.50422384475E+03  0.00000000000E+00 0.  1.
         -1    1    6    6    0  502  0.16781999490E+03 -0.22973662451E+03 -0.13814917252E+03  0.31627149919E+03  0.00000000000E+00 0.  1.
<mgrwt>
<rscale>  0 0.16108088E+04</rscale>
<asrwt>0</asrwt>
<pdfrwt beam="1">  1        2 0.20856479E+00 0.16108088E+04</pdfrwt>
<pdfrwt beam="2">  1       -2 0.73613977E-01 0.16108088E+04</pdfrwt>
<totfact> 0.24469122E+01</totfact>
</mgrwt>
</event>
<event>
12    1  0.1504874E-007  0.2072952E+04  0.7818608E-02  0.8573253E-01
          1   -1    0    0  501    0  0.00000000000E+00  0.00000000000E+00  0.23385303261E+04  0.23385303261E+04  0.00000000000E+00 0. -1.
         -1   -1    0    0    0  501 -0.00000000000E+00 -0.00000000000E+00 -0.45938341764E+03  0.45938341764E+03  0.00000000000E+00 0.  1.
         23    2    1    2    0    0 -0.74877790877E+03 -0.22362311125E+03  0.35665169693E+03  0.86390511849E+03  0.91956338951E+02 0.  0.
        254    2    1    2    0    0  0.74877790877E+03  0.22362311125E+03  0.15224952115E+04  0.19340086253E+04  0.90095618145E+03 0.  0.
        -24    2    4    4    0    0  0.27755445802E+02  0.29112111972E+03  0.72267871214E+02  0.31110190621E+03  0.77716663099E+02 0.  0.
         24    2    4    4    0    0  0.72102246297E+03 -0.67498008465E+02  0.14502273403E+04  0.16229067191E+04  0.78977888422E+02 0.  0.
         13    1    3    3    0    0 -0.74417804549E+03 -0.21712418716E+03  0.36065337002E+03  0.85499399375E+03  0.00000000000E+00 0.  1.
        -13    1    3    3    0    0 -0.45998632832E+01 -0.64989240902E+01 -0.40016730923E+01  0.89111247377E+01  0.00000000000E+00 0. -1.
          2    1    6    6  502    0  0.68376743958E+02 -0.17264866028E+02  0.99844846811E+02  0.12223930689E+03  0.00000000000E+00 0. -1.
          1    1    5    5  503    0  0.28819418379E+02  0.15139458137E+03  0.74891964827E+02  0.17134667939E+03  0.00000000000E+00 0. -1.
         -2    1    5    5    0  503 -0.10639725772E+01  0.13972653835E+03 -0.26240936124E+01  0.13975522682E+03  0.00000000000E+00 0.  1.
         -1    1    6    6    0  502  0.65264571901E+03 -0.50233142437E+02  0.13503824935E+04  0.15006674122E+04  0.00000000000E+00 0.  1.
<mgrwt>
<rscale>  0 0.20729516E+04</rscale>
<asrwt>0</asrwt>
<pdfrwt beam="1">  1        1 0.35977389E+00 0.20729516E+04</pdfrwt>
<pdfrwt beam="2">  1       -1 0.70674373E-01 0.20729516E+04</pdfrwt>
<totfact> 0.32659400E+00</totfact>
</mgrwt>
</event>
<event>
12    1  0.1504874E-007  0.1953916E+04  0.7818608E-02  0.8628475E-01
         -2   -1    0    0    0  501 -0.00000000000E+00  0.00000000000E+00  0.30658315031E+03  0.30658315031E+03  0.00000000000E+00 0.  1.
          2   -1    0    0  501    0  0.00000000000E+00 -0.00000000000E+00 -0.31131744088E+04  0.31131744088E+04  0.00000000000E+00 0. -1.
         23    2    1    2    0    0  0.52403906060E+03 -0.56282493649E+03 -0.11536414441E+04  0.13893988122E+04  0.90286387308E+02 0.  0.
        254    2    1    2    0    0 -0.52403906060E+03  0.56282493649E+03 -0.16529498144E+04  0.20303587469E+04  0.89371399560E+03 0.  0.
        -24    2    4    4    0    0 -0.33628510094E+03  0.35454081443E+03 -0.17661643700E+03  0.52576553319E+03  0.80306736063E+02 0.  0.
         24    2    4    4    0    0 -0.18775395966E+03  0.20828412206E+03 -0.14763333774E+04  0.15045932137E+04  0.74877717492E+02 0.  0.
         11    1    3    3    0    0  0.48639518876E+02 -0.19766930958E+02 -0.82332966013E+02  0.97648613142E+02  0.00000000000E+00 0. -1.
        -11    1    3    3    0    0  0.47539954172E+03 -0.54305800553E+03 -0.10713084781E+04  0.12917501991E+04  0.00000000000E+00 0.  1.
          2    1    6    6  502    0 -0.18555448136E+03  0.17752617404E+03 -0.13708224442E+04  0.13946684844E+04  0.00000000000E+00 0. -1.
          1    1    5    5  503    0 -0.26890222668E+03  0.31034220522E+03 -0.12184991306E+03  0.42833175596E+03  0.00000000000E+00 0. -1.
         -2    1    5    5    0  503 -0.67382874257E+02  0.44198609215E+02 -0.54766523940E+02  0.97433777225E+02  0.00000000000E+00 0.  1.
         -1    1    6    6    0  502 -0.21994782976E+01  0.30757948019E+02 -0.10551093326E+03  0.10992472928E+03  0.00000000000E+00 0.  1.
<mgrwt>
<rscale>  0 0.19539159E+04</rscale>
<asrwt>0</asrwt>
<pdfrwt beam="1">  1        2 0.47894991E+00 0.19539159E+04</pdfrwt>
<pdfrwt beam="2">  1       -2 0.47166639E-01 0.19539159E+04</pdfrwt>
<totfact> 0.58833488E+00</totfact>
</mgrwt>
</event>
<event>
12    1  0.1504874E-007  0.2558805E+04  0.7818608E-02  0.8382330E-01
          1   -1    0    0  501    0  0.00000000000E+00  0.00000000000E+00  0.13068289724E+04  0.13068289724E+04  0.00000000000E+00 0. -1.
         -1   -1    0    0    0  501 -0.00000000000E+00 -0.00000000000E+00 -0.12525516258E+04  0.12525516258E+04  0.00000000000E+00 0.  1.
         23    2    1    2    0    0  0.80136770179E+02  0.39905149511E+03  0.10692406172E+04  0.11479101531E+04  0.93585385634E+02 0.  0.
        254    2    1    2    0    0 -0.80136770179E+02 -0.39905149511E+03 -0.10149632706E+04  0.14114704451E+04  0.89243172237E+03 0.  0.
        -24    2    4    4    0    0 -0.13099469034E+03 -0.15200288537E+02 -0.10041899995E+04  0.10159423780E+04  0.79691295605E+02 0.  0.
         24    2    4    4    0    0  0.50857920162E+02 -0.38385120658E+03 -0.10773271130E+02  0.39552806717E+03  0.79988197344E+02 0.  0.
         11    1    3    3    0    0  0.36286723762E+02  0.39347931222E+02  0.17622649997E+03  0.18417590859E+03  0.00000000000E+00 0.  1.
        -11    1    3    3    0    0  0.43850046417E+02  0.35970356389E+03  0.89301411720E+03  0.96373424447E+03  0.00000000000E+00 0. -1.
          4    1    6    6  502    0  0.47986895213E+01 -0.17107533592E+03 -0.40320425240E+02  0.17582813959E+03  0.00000000000E+00 0. -1.
          3    1    5    5  503    0 -0.24447013167E+02  0.28211752887E+02 -0.18665468502E+03  0.19035107274E+03  0.00000000000E+00 0. -1.
         -4    1    5    5    0  503 -0.10654767717E+03 -0.43412041423E+02 -0.81753531448E+03  0.82559130523E+03  0.00000000000E+00 0.  1.
         -3    1    6    6    0  502  0.46059230641E+02 -0.21277587066E+03  0.29547154111E+02  0.21969992758E+03  0.00000000000E+00 0.  1.
<mgrwt>
<rscale>  0 0.25588050E+04</rscale>
<asrwt>0</asrwt>
<pdfrwt beam="1">  1        1 0.20105061E+00 0.25588050E+04</pdfrwt>
<pdfrwt beam="2">  1       -1 0.19270025E+00 0.25588050E+04</pdfrwt>
<totfact> 0.13374443E+00</totfact>
</mgrwt>
</event>
<event>
12    1  0.1504874E-007  0.1723101E+04  0.7818608E-02  0.8748298E-01
         -1   -1    0    0    0  501 -0.00000000000E+00  0.00000000000E+00  0.33244561475E+03  0.33244561475E+03  0.00000000000E+00 0.  1.
          1   -1    0    0  501    0  0.00000000000E+00 -0.00000000000E+00 -0.22327543277E+04  0.22327543277E+04  0.00000000000E+00 0. -1.
         23    2    1    2    0    0  0.23312671330E+03 -0.52666679699E+03 -0.34056213586E+03  0.67347630986E+03  0.76562340946E+02 0.  0.
        254    2    1    2    0    0 -0.23312671330E+03  0.52666679699E+03 -0.15597465771E+04  0.18917236326E+04  0.90226544755E+03 0.  0.
        -24    2    4    4    0    0  0.15525481405E+03  0.24872009973E+02 -0.10742889452E+04  0.10886442254E+04  0.79541420049E+02 0.  0.
         24    2    4    4    0    0 -0.38838152735E+03  0.50179478702E+03 -0.48545763190E+03  0.80307940722E+03  0.81419916900E+02 0.  0.
         11    1    3    3    0    0  0.43475571952E+02 -0.82970025526E+02 -0.25091093025E+02  0.96972745870E+02  0.00000000000E+00 0. -1.
        -11    1    3    3    0    0  0.18965114135E+03 -0.44369677147E+03 -0.31547104284E+03  0.57650356399E+03  0.00000000000E+00 0.  1.
          2    1    6    6  502    0 -0.94345441952E+02  0.17857964580E+03 -0.17259661570E+03  0.26567149652E+03  0.00000000000E+00 0. -1.
          3    1    5    5  503    0 -0.31989651042E+01 -0.12102324950E+02 -0.11183754349E+03  0.11253593107E+03  0.00000000000E+00 0. -1.
         -4    1    5    5    0  503  0.15845377915E+03  0.36974334922E+02 -0.96245140169E+03  0.97610829429E+03  0.00000000000E+00 0.  1.
         -1    1    6    6    0  502 -0.29403608540E+03  0.32321514122E+03 -0.31286101619E+03  0.53740791070E+03  0.00000000000E+00 0.  1.
<mgrwt>
<rscale>  0 0.17231011E+04</rscale>
<asrwt>0</asrwt>
<pdfrwt beam="1">  1        1 0.34350066E+00 0.17231011E+04</pdfrwt>
<pdfrwt beam="2">  1       -1 0.51145480E-01 0.17231011E+04</pdfrwt>
<totfact> 0.75591189E+00</totfact>
</mgrwt>
</event>
<event>
12    1  0.1504874E-007  0.2260200E+04  0.7818608E-02  0.8493781E-01
         -1   -1    0    0    0  501 -0.00000000000E+00  0.00000000000E+00  0.99082639899E+03  0.99082639899E+03  0.00000000000E+00 0.  1.
          1   -1    0    0  501    0  0.00000000000E+00 -0.00000000000E+00 -0.12889506759E+04  0.12889506759E+04  0.00000000000E+00 0. -1.
         23    2    1    2    0    0  0.13801614583E+03  0.44920910480E+03 -0.94934634377E+03  0.10635516657E+04  0.95112505889E+02 0.  0.
        254    2    1    2    0    0 -0.13801614583E+03 -0.44920910480E+03  0.65122206691E+03  0.12162254092E+04  0.91338753505E+03 0.  0.
        -24    2    4    4    0    0  0.26731652472E+03 -0.51038552467E+03  0.51603576299E+03  0.77755450578E+03  0.79665504427E+02 0.  0.
         24    2    4    4    0    0 -0.40533267055E+03  0.61176419876E+02  0.13518630392E+03  0.43867090340E+03  0.78228489465E+02 0.  0.
         11    1    3    3    0    0  0.31357460151E+02  0.88265613669E+02 -0.28500877172E+03  0.30000684796E+03  0.00000000000E+00 0.  1.
        -11    1    3    3    0    0  0.10665868568E+03  0.36094349113E+03 -0.66433757205E+03  0.76354481771E+03  0.00000000000E+00 0. -1.
          4    1    6    6  502    0 -0.85455605924E+01  0.14549467616E+02 -0.86799793394E-01  0.16873682110E+02  0.00000000000E+00 0. -1.
          3    1    5    5  503    0 -0.50096250940E+01 -0.37540327102E+01  0.36569703585E+01  0.72500025776E+01  0.00000000000E+00 0. -1.
         -4    1    5    5    0  503  0.27232614981E+03 -0.50663149196E+03  0.51237879263E+03  0.77030450320E+03  0.00000000000E+00 0.  1.
         -3    1    6    6    0  502 -0.39678710995E+03  0.46626952261E+02  0.13527310371E+03  0.42179722129E+03  0.00000000000E+00 0.  1.
<mgrwt>
<rscale>  0 0.22602003E+04</rscale>
<asrwt>0</asrwt>
<pdfrwt beam="1">  1        1 0.19830011E+00 0.22602003E+04</pdfrwt>
<pdfrwt beam="2">  1       -1 0.15243483E+00 0.22602003E+04</pdfrwt>
<totfact> 0.27908918E+00</totfact>
</mgrwt>
</event>
<event>
12    1  0.1504874E-007  0.1751747E+04  0.7818608E-02  0.8732389E-01
         -2   -1    0    0    0  501 -0.00000000000E+00  0.00000000000E+00  0.12863477573E+04  0.12863477573E+04  0.00000000000E+00 0.  1.
          2   -1    0    0  501    0  0.00000000000E+00 -0.00000000000E+00 -0.59638156544E+03  0.59638156544E+03  0.00000000000E+00 0. -1.
         23    2    1    2    0    0 -0.27484661291E+02 -0.64448655868E+03  0.17224443064E+03  0.67386711865E+03  0.91161498347E+02 0.  0.
        254    2    1    2    0    0  0.27484661291E+02  0.64448655868E+03  0.51772176119E+03  0.12088622041E+04  0.88158588660E+03 0.  0.
        -24    2    4    4    0    0  0.18431367444E+03  0.77799999611E+03  0.21112785239E+03  0.83093880604E+03  0.81417472297E+02 0.  0.
         24    2    4    4    0    0 -0.15682901315E+03 -0.13351343742E+03  0.30659390880E+03  0.37792339802E+03  0.80031821913E+02 0.  0.
         11    1    3    3    0    0 -0.30137956272E+02 -0.60345141342E+03  0.18309935099E+03  0.63133768864E+03  0.00000000000E+00 0.  1.
        -11    1    3    3    0    0  0.26532949817E+01 -0.41035145265E+02 -0.10854920348E+02  0.42529430009E+02  0.00000000000E+00 0. -1.
          2    1    6    6  502    0 -0.11896547442E+03 -0.81825422078E+02  0.26424388718E+03  0.30111960367E+03  0.00000000000E+00 0. -1.
          3    1    5    5  503    0  0.17605148374E+03  0.76815443317E+03  0.21609217158E+03  0.81716044002E+03  0.00000000000E+00 0. -1.
         -4    1    5    5    0  503  0.82621907087E+01  0.98455629387E+01 -0.49643191967E+01  0.13778366012E+02  0.00000000000E+00 0.  1.
         -1    1    6    6    0  502 -0.37863538735E+02 -0.51688015343E+02  0.42350021625E+02  0.76803794354E+02  0.00000000000E+00 0.  1.
<mgrwt>
<rscale>  0 0.17517467E+04</rscale>
<asrwt>0</asrwt>
<pdfrwt beam="1">  1        2 0.91751010E-01 0.17517467E+04</pdfrwt>
<pdfrwt beam="2">  1       -2 0.19789965E+00 0.17517467E+04</pdfrwt>
<totfact> 0.64954324E+00</totfact>
</mgrwt>
</event>
<event>
12    1  0.1504874E-007  0.2163674E+04  0.7818608E-02  0.8533702E-01
          1   -1    0    0  501    0  0.00000000000E+00  0.00000000000E+00  0.15703681042E+04  0.15703681042E+04  0.00000000000E+00 0. -1.
         -1   -1    0    0    0  501 -0.00000000000E+00 -0.00000000000E+00 -0.74528498516E+03  0.74528498516E+03  0.00000000000E+00 0.  1.
         23    2    1    2    0    0  0.15140822155E+03  0.66219022416E+03  0.97732988535E+03  0.11939134617E+04  0.93996312629E+02 0.  0.
        254    2    1    2    0    0 -0.15140822155E+03 -0.66219022416E+03 -0.15224676633E+03  0.11217396276E+04  0.87960239413E+03 0.  0.
        -24    2    4    4    0    0 -0.44039281845E+03 -0.98710130561E+02 -0.15379577230E+03  0.48343950278E+03  0.79819100801E+02 0.  0.
         24    2    4    4    0    0  0.28898459690E+03 -0.56348009360E+03  0.15490059711E+01  0.63830012483E+03  0.80017103210E+02 0.  0.
         11    1    3    3    0    0  0.71021442598E+01  0.66724357089E+02  0.55714940549E+02  0.87216597517E+02  0.00000000000E+00 0.  1.
        -11    1    3    3    0    0  0.14430607729E+03  0.59546586707E+03  0.92161494480E+03  0.11066968642E+04  0.00000000000E+00 0. -1.
          4    1    6    6  502    0  0.36570703333E+02 -0.14462385766E+03 -0.41542254201E+01  0.14923382370E+03  0.00000000000E+00 0. -1.
          3    1    5    5  503    0 -0.24549456867E+03 -0.14238463783E+02 -0.82586849869E+02  0.25940490526E+03  0.00000000000E+00 0. -1.
         -4    1    5    5    0  503 -0.19489824978E+03 -0.84471666778E+02 -0.71208922431E+02  0.22403459753E+03  0.00000000000E+00 0.  1.
         -3    1    6    6    0  502  0.25241389357E+03 -0.41885623594E+03  0.57032313912E+01  0.48906630113E+03  0.00000000000E+00 0.  1.
<mgrwt>
<rscale>  0 0.21636744E+04</rscale>
<asrwt>0</asrwt>
<pdfrwt beam="1">  1        1 0.24159509E+00 0.21636744E+04</pdfrwt>
<pdfrwt beam="2">  1       -1 0.11465923E+00 0.21636744E+04</pdfrwt>
<totfact> 0.36976767E+00</totfact>
</mgrwt>
</event>
<event>
12    1  0.1504874E-007  0.1990464E+04  0.7818608E-02  0.8611092E-01
         -1   -1    0    0    0  501 -0.00000000000E+00  0.00000000000E+00  0.40374992223E+03  0.40374992223E+03  0.00000000000E+00 0.  1.
          1   -1    0    0  501    0  0.00000000000E+00 -0.00000000000E+00 -0.24532177159E+04  0.24532177159E+04  0.00000000000E+00 0. -1.
         23    2    1    2    0    0  0.27969220318E+02  0.64294409540E+03 -0.14861048386E+04  0.16220444403E+04  0.91439531628E+02 0.  0.
        254    2    1    2    0    0 -0.27969220318E+02 -0.64294409540E+03 -0.56336295508E+03  0.12349231978E+04  0.89078510217E+03 0.  0.
        -24    2    4    4    0    0 -0.10382082411E+03 -0.14073982413E+03 -0.68019852156E+03  0.70740508139E+03  0.84649033216E+02 0.  0.
         24    2    4    4    0    0  0.75851603794E+02 -0.50220427128E+03  0.11683556648E+03  0.52751811643E+03  0.81622409167E+02 0.  0.
         13    1    3    3    0    0  0.73948576373E+00  0.21206312886E+03 -0.59959948213E+03  0.63599595631E+03  0.00000000000E+00 0.  1.
        -13    1    3    3    0    0  0.27229734555E+02  0.43088096654E+03 -0.88650535647E+03  0.98604848401E+03  0.00000000000E+00 0. -1.
          2    1    6    6  502    0 -0.10555109753E+02 -0.10603752507E+02  0.33142528015E+00  0.14965284890E+02  0.00000000000E+00 0. -1.
          3    1    5    5  503    0  0.18755489792E+01  0.92543762453E+01 -0.18993449189E+02  0.21211135655E+02  0.00000000000E+00 0. -1.
         -4    1    5    5    0  503 -0.10569637309E+03 -0.14999420037E+03 -0.66120507237E+03  0.68619394573E+03  0.00000000000E+00 0.  1.
         -1    1    6    6    0  502  0.86406713547E+02 -0.49160051877E+03  0.11650414120E+03  0.51255283154E+03  0.00000000000E+00 0.  1.
<mgrwt>
<rscale>  0 0.19904637E+04</rscale>
<asrwt>0</asrwt>
<pdfrwt beam="1">  1        1 0.37741811E+00 0.19904637E+04</pdfrwt>
<pdfrwt beam="2">  1       -1 0.62115372E-01 0.19904637E+04</pdfrwt>
<totfact> 0.35642424E+00</totfact>
</mgrwt>
</event>
<event>
12    1  0.1504874E-007  0.1817337E+04  0.7818608E-02  0.8697134E-01
         -1   -1    0    0    0  501 -0.00000000000E+00  0.00000000000E+00  0.35898745929E+03  0.35898745929E+03  0.00000000000E+00 0.  1.
          1   -1    0    0  501    0  0.00000000000E+00 -0.00000000000E+00 -0.23000193982E+04  0.23000193982E+04  0.00000000000E+00 0. -1.
         23    2    1    2    0    0 -0.32746872114E+03  0.61379032759E+03 -0.11692314038E+04  0.13636230454E+04  0.91604610951E+02 0.  0.
        254    2    1    2    0    0  0.32746872114E+03 -0.61379032759E+03 -0.77180053511E+03  0.12953838121E+04  0.77354303373E+03 0.  0.
        -24    2    4    4    0    0 -0.13597175308E+03 -0.57941062519E+02 -0.48359212485E+03  0.51241520549E+03  0.82840299618E+02 0.  0.
         24    2    4    4    0    0  0.46344047422E+03 -0.55584926507E+03 -0.28820841026E+03  0.78296860659E+03  0.78932075451E+02 0.  0.
         13    1    3    3    0    0 -0.25785691622E+03  0.53084287425E+03 -0.93662554662E+03  0.11070464132E+04  0.00000000000E+00 0. -1.
        -13    1    3    3    0    0 -0.69611804927E+02  0.82947453339E+02 -0.23260585718E+03  0.25657663221E+03  0.00000000000E+00 0.  1.
          2    1    6    6  502    0  0.10714004089E+03 -0.18435801224E+03 -0.87446836902E+02  0.23046434501E+03  0.00000000000E+00 0. -1.
          3    1    5    5  503    0 -0.51953369051E+02 -0.50598525863E+02 -0.12956118146E+03  0.14847714678E+03  0.00000000000E+00 0. -1.
         -4    1    5    5    0  503 -0.84018384028E+02 -0.73425366558E+01 -0.35403094339E+03  0.36393805871E+03  0.00000000000E+00 0.  1.
         -1    1    6    6    0  502  0.35630043333E+03 -0.37149125283E+03 -0.20076157336E+03  0.55250426158E+03  0.00000000000E+00 0.  1.
<mgrwt>
<rscale>  0 0.18173366E+04</rscale>
<asrwt>0</asrwt>
<pdfrwt beam="1">  1        1 0.35384913E+00 0.18173366E+04</pdfrwt>
<pdfrwt beam="2">  1       -1 0.55228841E-01 0.18173366E+04</pdfrwt>
<totfact> 0.58148103E+00</totfact>
</mgrwt>
</event>
<event>
12    1  0.1504874E-007  0.1560632E+04  0.7818608E-02  0.8845105E-01
          2   -1    0    0  501    0  0.00000000000E+00  0.00000000000E+00  0.13329057614E+04  0.13329057614E+04  0.00000000000E+00 0. -1.
         -2   -1    0    0    0  501 -0.00000000000E+00 -0.00000000000E+00 -0.45681624877E+03  0.45681624877E+03  0.00000000000E+00 0.  1.
         23    2    1    2    0    0  0.47412428641E+03  0.98575487258E+02  0.48189570734E+03  0.68923503375E+03  0.91161907338E+02 0.  0.
        254    2    1    2    0    0 -0.47412428641E+03 -0.98575487258E+02  0.39419380528E+03  0.11004869764E+04  0.90618533616E+03 0.  0.
        -24    2    4    4    0    0 -0.29618827971E+03  0.27194289844E+03 -0.12938344082E+03  0.43002405517E+03  0.80623670357E+02 0.  0.
         24    2    4    4    0    0 -0.17793600670E+03 -0.37051838570E+03  0.52357724610E+03  0.67046292123E+03  0.80263936449E+02 0.  0.
         13    1    3    3    0    0  0.37378334726E+03  0.11272732372E+03  0.36402721653E+03  0.53379514290E+03  0.00000000000E+00 0. -1.
        -13    1    3    3    0    0  0.10034093915E+03 -0.14151836465E+02  0.11786849081E+03  0.15543989086E+03  0.00000000000E+00 0.  1.
          4    1    6    6  502    0 -0.11151259381E+00 -0.26446432368E+02  0.12617584433E+02  0.29302383128E+02  0.00000000000E+00 0. -1.
          3    1    5    5  503    0 -0.57184625943E+02  0.71843549055E+02 -0.62907166308E+02  0.11130538423E+03  0.00000000000E+00 0. -1.
         -4    1    5    5    0  503 -0.23900365377E+03  0.20009934938E+03 -0.66476274512E+02  0.31871867095E+03  0.00000000000E+00 0.  1.
         -3    1    6    6    0  502 -0.17782449411E+03 -0.34407195333E+03  0.51095966166E+03  0.64116053810E+03  0.00000000000E+00 0.  1.
<mgrwt>
<rscale>  0 0.15606319E+04</rscale>
<asrwt>0</asrwt>
<pdfrwt beam="1">  1        2 0.20506242E+00 0.15606319E+04</pdfrwt>
<pdfrwt beam="2">  1       -2 0.70279424E-01 0.15606319E+04</pdfrwt>
<totfact> 0.28036649E+01</totfact>
</mgrwt>
</event>
<event>
12    1  0.1504874E-007  0.1290728E+04  0.7818608E-02  0.9036950E-01
          1   -1    0    0  501    0  0.00000000000E+00  0.00000000000E+00  0.11612534432E+04  0.11612534432E+04  0.00000000000E+00 0. -1.
         -1   -1    0    0    0  501 -0.00000000000E+00 -0.00000000000E+00 -0.35865982238E+03  0.35865982238E+03  0.00000000000E+00 0.  1.
         23    2    1    2    0    0  0.31255280618E+02 -0.22841634361E+03  0.47623099852E+03  0.53698955760E+03  0.91710972205E+02 0.  0.
        254    2    1    2    0    0 -0.31255280618E+02  0.22841634361E+03  0.32636262233E+03  0.98292370801E+03  0.89803982981E+03 0.  0.
        -24    2    4    4    0    0  0.11127084583E+03  0.22897583552E+03  0.60434371807E+03  0.66071528215E+03  0.80636344931E+02 0.  0.
         24    2    4    4    0    0 -0.14252612644E+03 -0.55949190573E+00 -0.27798109573E+03  0.32220842586E+03  0.78935228889E+02 0.  0.
         13    1    3    3    0    0 -0.39202990855E+01 -0.11206953676E+03  0.31977624309E+03  0.33886840434E+03  0.00000000000E+00 0. -1.
        -13    1    3    3    0    0  0.35175579703E+02 -0.11634680685E+03  0.15645475543E+03  0.19812115326E+03  0.00000000000E+00 0.  1.
          2    1    6    6  502    0 -0.74008458708E+02 -0.35684426158E+02 -0.10886931950E+03  0.13639339778E+03  0.00000000000E+00 0. -1.
          3    1    5    5  503    0  0.10839434704E+03  0.23404090697E+03  0.56683653082E+03  0.62275848712E+03  0.00000000000E+00 0. -1.
         -4    1    5    5    0  503  0.28764987873E+01 -0.50650714572E+01  0.37507187248E+02  0.37956795035E+02  0.00000000000E+00 0.  1.
         -1    1    6    6    0  502 -0.68517667736E+02  0.35124934252E+02 -0.16911177623E+03  0.18581502808E+03  0.00000000000E+00 0.  1.
<mgrwt>
<rscale>  0 0.12907284E+04</rscale>
<asrwt>0</asrwt>
<pdfrwt beam="1">  1        1 0.17865437E+00 0.12907284E+04</pdfrwt>
<pdfrwt beam="2">  1       -1 0.55178435E-01 0.12907284E+04</pdfrwt>
<totfact> 0.37244636E+01</totfact>
</mgrwt>
</event>
<event>
12    1  0.1504874E-007  0.1359976E+04  0.7818608E-02  0.8983310E-01
          2   -1    0    0  501    0  0.00000000000E+00  0.00000000000E+00  0.25352842393E+04  0.25352842393E+04  0.00000000000E+00 0. -1.
         -2   -1    0    0    0  501 -0.00000000000E+00 -0.00000000000E+00 -0.18237952370E+03  0.18237952370E+03  0.00000000000E+00 0.  1.
         23    2    1    2    0    0  0.60027086558E+02  0.26635192015E+03  0.11832153277E+04  0.12177105255E+04  0.90960517405E+02 0.  0.
        254    2    1    2    0    0 -0.60027086558E+02 -0.26635192015E+03  0.11696893879E+04  0.14999532375E+04  0.89840962486E+03 0.  0.
        -24    2    4    4    0    0 -0.26699813582E+03 -0.43205827776E+03  0.11023745055E+04  0.12163060553E+04  0.78794097437E+02 0.  0.
         24    2    4    4    0    0  0.20697104926E+03  0.16570635762E+03  0.67314882355E+02  0.28364718220E+03  0.75025451644E+02 0.  0.
         13    1    3    3    0    0  0.80092905582E+01  0.86612408830E+02  0.22160433247E+03  0.23806372733E+03  0.00000000000E+00 0.  1.
        -13    1    3    3    0    0  0.52017795999E+02  0.17973951132E+03  0.96161099526E+03  0.97964679821E+03  0.00000000000E+00 0. -1.
          2    1    6    6  502    0  0.14262812049E+03  0.91029172702E+02  0.74364778264E+02  0.18482210713E+03  0.00000000000E+00 0. -1.
          3    1    5    5  503    0  0.47820737353E+00 -0.29703226765E+02  0.47088709889E+02  0.55676359091E+02  0.00000000000E+00 0. -1.
         -4    1    5    5    0  503 -0.26747634319E+03 -0.40235505100E+03  0.10552857956E+04  0.11606296962E+04  0.00000000000E+00 0.  1.
         -1    1    6    6    0  502  0.64342928767E+02  0.74677184914E+02 -0.70498959084E+01  0.98825075063E+02  0.00000000000E+00 0.  1.
<mgrwt>
<rscale>  0 0.13599764E+04</rscale>
<asrwt>0</asrwt>
<pdfrwt beam="1">  1        2 0.39004370E+00 0.13599764E+04</pdfrwt>
<pdfrwt beam="2">  1       -2 0.28058390E-01 0.13599764E+04</pdfrwt>
<totfact> 0.37803242E+01</totfact>
</mgrwt>
</event>
<event>
12    1  0.1504874E-007  0.1383658E+04  0.7818608E-02  0.8965733E-01
         -2   -1    0    0    0  501 -0.00000000000E+00  0.00000000000E+00  0.87625427523E+03  0.87625427523E+03  0.00000000000E+00 0.  1.
          2   -1    0    0  501    0  0.00000000000E+00 -0.00000000000E+00 -0.54621961256E+03  0.54621961256E+03  0.00000000000E+00 0. -1.
         23    2    1    2    0    0  0.96215821550E+02 -0.16054446092E+03  0.43105714989E+03  0.47802714880E+03  0.87565291437E+02 0.  0.
        254    2    1    2    0    0 -0.96215821550E+02  0.16054446092E+03 -0.10102248722E+03  0.94444673899E+03  0.92018590057E+03 0.  0.
        -24    2    4    4    0    0  0.15655406346E+02  0.86811691524E+02  0.40156156057E+03  0.41820182309E+03  0.76548784280E+02 0.  0.
         24    2    4    4    0    0 -0.11187122790E+03  0.73732769400E+02 -0.50258404779E+03  0.52624491590E+03  0.79945565850E+02 0.  0.
         11    1    3    3    0    0  0.38737497215E+02 -0.77685989812E+01  0.51903558329E+02  0.65229779915E+02  0.00000000000E+00 0. -1.
        -11    1    3    3    0    0  0.57478324335E+02 -0.15277586194E+03  0.37915359156E+03  0.41279736888E+03  0.00000000000E+00 0.  1.
          2    1    6    6  502    0 -0.11525460244E+03  0.57363747401E+02 -0.48575411774E+03  0.50252491063E+03  0.00000000000E+00 0. -1.
          1    1    5    5  503    0  0.23541609928E+02  0.98119970108E+02  0.32153095604E+03  0.33699242073E+03  0.00000000000E+00 0. -1.
         -2    1    5    5    0  503 -0.78862035824E+01 -0.11308278584E+02  0.80030604526E+02  0.81209402363E+02  0.00000000000E+00 0.  1.
         -1    1    6    6    0  502  0.33833745431E+01  0.16369021999E+02 -0.16829930051E+02  0.23720005270E+02  0.00000000000E+00 0.  1.
<mgrwt>
<rscale>  0 0.13836579E+04</rscale>
<asrwt>0</asrwt>
<pdfrwt beam="1">  1        2 0.84033786E-01 0.13836579E+04</pdfrwt>
<pdfrwt beam="2">  1       -2 0.13480835E+00 0.13836579E+04</pdfrwt>
<totfact> 0.21402920E+01</totfact>
</mgrwt>
</event>
<event>
12    1  0.1504874E-007  0.1323847E+04  0.7818608E-02  0.9010865E-01
          2   -1    0    0  501    0  0.00000000000E+00  0.00000000000E+00  0.18433517651E+04  0.18433517651E+04  0.00000000000E+00 0. -1.
         -2   -1    0    0    0  501 -0.00000000000E+00 -0.00000000000E+00 -0.23768805900E+03  0.23768805900E+03  0.00000000000E+00 0.  1.
         23    2    1    2    0    0  0.52249036738E+01 -0.29250895004E+03  0.71893692339E+03  0.78140905611E+03  0.90227643667E+02 0.  0.
        254    2    1    2    0    0 -0.52249036738E+01  0.29250895004E+03  0.88672678270E+03  0.12996307680E+04  0.90397287596E+03 0.  0.
        -24    2    4    4    0    0  0.20185917827E+03  0.36729963764E+03  0.96297896394E+03  0.10532769224E+04  0.80047727284E+02 0.  0.
         24    2    4    4    0    0 -0.20708408195E+03 -0.74790687603E+02 -0.76252181235E+02  0.24635384558E+03  0.79989737720E+02 0.  0.
         11    1    3    3    0    0 -0.31884880994E+02 -0.13132201015E+03  0.25048111882E+03  0.28461009622E+03  0.00000000000E+00 0.  1.
        -11    1    3    3    0    0  0.37109784667E+02 -0.16118693989E+03  0.46845580457E+03  0.49679895989E+03  0.00000000000E+00 0. -1.
          2    1    6    6  502    0  0.32092677270E+01  0.65176326133E+01  0.22631025001E+01  0.76092422193E+01  0.00000000000E+00 0. -1.
          1    1    5    5  503    0  0.60006868300E+02  0.16619111945E+03  0.47391670824E+03  0.50578390522E+03  0.00000000000E+00 0. -1.
         -2    1    5    5    0  503  0.14185230997E+03  0.20110851819E+03  0.48906225569E+03  0.54749301719E+03  0.00000000000E+00 0.  1.
         -1    1    6    6    0  502 -0.21029334967E+03 -0.81308320216E+02 -0.78515283735E+02  0.23874460336E+03  0.00000000000E+00 0.  1.
<mgrwt>
<rscale>  0 0.13238470E+04</rscale>
<asrwt>0</asrwt>
<pdfrwt beam="1">  1        2 0.28359257E+00 0.13238470E+04</pdfrwt>
<pdfrwt beam="2">  1       -2 0.36567395E-01 0.13238470E+04</pdfrwt>
<totfact> 0.56266990E+01</totfact>
</mgrwt>
</event>
<event>
12    1  0.1504874E-007  0.2014435E+04  0.7818608E-02  0.8599901E-01
          2   -1    0    0  501    0  0.00000000000E+00  0.00000000000E+00  0.30055007976E+04  0.30055007976E+04  0.00000000000E+00 0. -1.
         -2   -1    0    0    0  501 -0.00000000000E+00 -0.00000000000E+00 -0.33754348494E+03  0.33754348494E+03  0.00000000000E+00 0.  1.
         23    2    1    2    0    0 -0.56124852939E+02  0.25362556373E+03 -0.18838254753E+03  0.33228195654E+03  0.86298254507E+02 0.  0.
        254    2    1    2    0    0  0.56124852939E+02 -0.25362556373E+03  0.28563398602E+04  0.30107623260E+04  0.91571636496E+03 0.  0.
        -24    2    4    4    0    0  0.27760971489E+03 -0.19448205342E+03  0.27006594091E+04  0.27229839029E+04  0.78674447134E+02 0.  0.
         24    2    4    4    0    0 -0.22148486195E+03 -0.59143510312E+02  0.15568045113E+03  0.28777842313E+03  0.77630658050E+02 0.  0.
         11    1    3    3    0    0  0.34685460442E+01  0.24656420604E+02  0.65264712086E+01  0.25740332459E+02  0.00000000000E+00 0. -1.
        -11    1    3    3    0    0 -0.59593398983E+02  0.22896914312E+03 -0.19490901874E+03  0.30654162408E+03  0.00000000000E+00 0.  1.
          2    1    6    6  502    0 -0.17218752594E+03 -0.78097370159E+02  0.12577688273E+03  0.22708493465E+03  0.00000000000E+00 0. -1.
          1    1    5    5  503    0  0.34612686377E+02  0.25624861090E+01  0.31193160686E+03  0.31385654646E+03  0.00000000000E+00 0. -1.
         -2    1    5    5    0  503  0.24299702851E+03 -0.19704453953E+03  0.23887278022E+04  0.24091273565E+04  0.00000000000E+00 0.  1.
         -1    1    6    6    0  502 -0.49297336009E+02  0.18953859847E+02  0.29903568395E+02  0.60693488477E+02  0.00000000000E+00 0.  1.
<mgrwt>
<rscale>  0 0.20144351E+04</rscale>
<asrwt>0</asrwt>
<pdfrwt beam="1">  1        2 0.46238472E+00 0.20144351E+04</pdfrwt>
<pdfrwt beam="2">  1       -2 0.51929769E-01 0.20144351E+04</pdfrwt>
<totfact> 0.56258445E+00</totfact>
</mgrwt>
</event>
<event>
12    1  0.1504874E-007  0.2356282E+04  0.7818608E-02  0.8456055E-01
         -2   -1    0    0    0  501 -0.00000000000E+00  0.00000000000E+00  0.70598122011E+03  0.70598122011E+03  0.00000000000E+00 0.  1.
          2   -1    0    0  501    0  0.00000000000E+00 -0.00000000000E+00 -0.19660808317E+04  0.19660808317E+04  0.00000000000E+00 0. -1.
         23    2    1    2    0    0 -0.93015863996E+02  0.54589828415E+03 -0.14872890201E+04  0.15897951573E+04  0.93611564846E+02 0.  0.
        254    2    1    2    0    0  0.93015863996E+02 -0.54589828415E+03  0.22718940857E+03  0.10822668945E+04  0.90168160456E+03 0.  0.
        -24    2    4    4    0    0  0.32279269552E+03 -0.19342690959E+03  0.45601260088E+03  0.59662657093E+03  0.80041735051E+02 0.  0.
         24    2    4    4    0    0 -0.22977683152E+03 -0.35247137456E+03 -0.22882319231E+03  0.48564032359E+03  0.80330619106E+02 0.  0.
         13    1    3    3    0    0 -0.93720045929E+02  0.47523208946E+03 -0.13670113933E+04  0.14502927757E+04  0.00000000000E+00 0. -1.
        -13    1    3    3    0    0  0.70418193297E+00  0.70666194693E+02 -0.12027762684E+03  0.13950238156E+03  0.00000000000E+00 0.  1.
          4    1    6    6  502    0 -0.23427164451E+03 -0.32828094126E+03 -0.22064227734E+03  0.45971142509E+03  0.00000000000E+00 0. -1.
          1    1    5    5  503    0  0.24551121153E+03 -0.12386277289E+03  0.37391238868E+03  0.46414245217E+03  0.00000000000E+00 0. -1.
         -2    1    5    5    0  503  0.77281483987E+02 -0.69564136700E+02  0.82100212197E+02  0.13248411876E+03  0.00000000000E+00 0.  1.
         -3    1    6    6    0  502  0.44948129859E+01 -0.24190433309E+02 -0.81809149662E+01  0.25928898494E+02  0.00000000000E+00 0.  1.
<mgrwt>
<rscale>  0 0.23562819E+04</rscale>
<asrwt>0</asrwt>
<pdfrwt beam="1">  1        2 0.30247397E+00 0.23562819E+04</pdfrwt>
<pdfrwt beam="2">  1       -2 0.10861250E+00 0.23562819E+04</pdfrwt>
<totfact> 0.42664172E+00</totfact>
</mgrwt>
</event>
<event>
12    1  0.1504874E-007  0.1501956E+04  0.7818608E-02  0.8883153E-01
          2   -1    0    0  501    0  0.00000000000E+00  0.00000000000E+00  0.16147922228E+04  0.16147922228E+04  0.00000000000E+00 0. -1.
         -2   -1    0    0    0  501 -0.00000000000E+00 -0.00000000000E+00 -0.34925099101E+03  0.34925099101E+03  0.00000000000E+00 0.  1.
         23    2    1    2    0    0 -0.16043345964E+03  0.41490084973E+03  0.19112672101E+03  0.49291435052E+03  0.92485260356E+02 0.  0.
        254    2    1    2    0    0  0.16043345964E+03 -0.41490084973E+03  0.10744145108E+04  0.14711288633E+04  0.90109487922E+03 0.  0.
        -24    2    4    4    0    0  0.20404427629E+03  0.20679521311E+03  0.10949126357E+03  0.31966133527E+03  0.76136099290E+02 0.  0.
         24    2    4    4    0    0 -0.43610816644E+02 -0.62169606285E+03  0.96492324719E+03  0.11514675280E+04  0.79954344521E+02 0.  0.
         13    1    3    3    0    0 -0.16610847780E+03  0.40587942773E+03  0.17211625582E+03  0.47112009273E+03  0.00000000000E+00 0.  1.
        -13    1    3    3    0    0  0.56750181601E+01  0.90214219971E+01  0.19010465186E+02  0.21794257788E+02  0.00000000000E+00 0. -1.
          2    1    6    6  502    0 -0.57460661080E+02 -0.59892069676E+03  0.92490148794E+03  0.11033813896E+04  0.00000000000E+00 0. -1.
          1    1    5    5  503    0  0.17976752538E+03  0.13843523446E+03  0.72259386533E+02  0.23812201970E+03  0.00000000000E+00 0. -1.
         -2    1    5    5    0  503  0.24276750902E+02  0.68359978655E+02  0.37231877038E+02  0.81539315571E+02  0.00000000000E+00 0.  1.
         -1    1    6    6    0  502  0.13849844436E+02 -0.22775366089E+02  0.40021759247E+02  0.48086138384E+02  0.00000000000E+00 0.  1.
<mgrwt>
<rscale>  0 0.15019558E+04</rscale>
<asrwt>0</asrwt>
<pdfrwt beam="1">  1        2 0.24842957E+00 0.15019558E+04</pdfrwt>
<pdfrwt beam="2">  1       -2 0.53730922E-01 0.15019558E+04</pdfrwt>
<totfact> 0.34488508E+01</totfact>
</mgrwt>
</event>
<event>
12    1  0.1504874E-007  0.1213451E+04  0.7818608E-02  0.9101164E-01
         -2   -1    0    0    0  501 -0.00000000000E+00  0.00000000000E+00  0.14278702628E+03  0.14278702628E+03  0.00000000000E+00 0.  1.
          2   -1    0    0  501    0  0.00000000000E+00 -0.00000000000E+00 -0.25780748100E+04  0.25780748100E+04  0.00000000000E+00 0. -1.
         23    2    1    2    0    0 -0.14106988279E+02  0.22688849921E+03 -0.22713202540E+03  0.32603428340E+03  0.55063588698E+02 0.  0.
        254    2    1    2    0    0  0.14106988279E+02 -0.22688849921E+03 -0.22081557584E+04  0.23948275529E+04  0.89864885067E+03 0.  0.
        -24    2    4    4    0    0  0.22000453924E+02 -0.30750225261E+03 -0.22508860766E+04  0.22732926718E+04  0.79559955990E+02 0.  0.
         24    2    4    4    0    0 -0.78934656452E+01  0.80613753405E+02  0.42730318229E+02  0.12153488110E+03  0.79899707070E+02 0.  0.
         13    1    3    3    0    0  0.67199758737E+01  0.15722720650E+03 -0.18135860645E+03  0.24011767255E+03  0.00000000000E+00 0. -1.
        -13    1    3    3    0    0 -0.20826964153E+02  0.69661292701E+02 -0.45773418956E+02  0.85916610848E+02  0.00000000000E+00 0.  1.
          2    1    6    6  502    0  0.25314347354E+02  0.22822855711E+01  0.22816090414E+02  0.34155511871E+02  0.00000000000E+00 0. -1.
          1    1    5    5  503    0 -0.21026818988E+02 -0.26159696414E+02 -0.26414591127E+03  0.26626963641E+03  0.00000000000E+00 0. -1.
         -2    1    5    5    0  503  0.43027272912E+02 -0.28134255620E+03 -0.19867401653E+04  0.20070230354E+04  0.00000000000E+00 0.  1.
         -1    1    6    6    0  502 -0.33207812999E+02  0.78331467834E+02  0.19914227816E+02  0.87379369228E+02  0.00000000000E+00 0.  1.
<mgrwt>
<rscale>  0 0.12134507E+04</rscale>
<asrwt>0</asrwt>
<pdfrwt beam="1">  1        2 0.39662689E+00 0.12134507E+04</pdfrwt>
<pdfrwt beam="2">  1       -2 0.21967235E-01 0.12134507E+04</pdfrwt>
<totfact> 0.56352194E+01</totfact>
</mgrwt>
</event>
<event>
12    1  0.1504874E-007  0.1373018E+04  0.7818608E-02  0.8973584E-01
          2   -1    0    0  501    0  0.00000000000E+00  0.00000000000E+00  0.56693857987E+03  0.56693857987E+03  0.00000000000E+00 0. -1.
         -2   -1    0    0    0  501 -0.00000000000E+00 -0.00000000000E+00 -0.83129783318E+03  0.83129783318E+03  0.00000000000E+00 0.  1.
         23    2    1    2    0    0  0.27026106324E+03 -0.17341113480E+03 -0.29141267739E+03  0.44302592401E+03  0.90764292694E+02 0.  0.
        254    2    1    2    0    0 -0.27026106324E+03  0.17341113480E+03  0.27053424073E+02  0.95521048903E+03  0.89921228118E+03 0.  0.
        -24    2    4    4    0    0 -0.57534256164E+03  0.66729007522E+02  0.14123333106E+03  0.60180802197E+03  0.82184048437E+02 0.  0.
         24    2    4    4    0    0  0.30508149840E+03  0.10668212728E+03 -0.11417990699E+03  0.35340246707E+03  0.86025900873E+02 0.  0.
         13    1    3    3    0    0  0.14645358710E+03 -0.10362598684E+03 -0.22028720401E+03  0.28410112737E+03  0.00000000000E+00 0.  1.
        -13    1    3    3    0    0  0.12380747614E+03 -0.69785147958E+02 -0.71125473376E+02  0.15892479664E+03  0.00000000000E+00 0. -1.
          4    1    6    6  502    0  0.77657326469E+02  0.50325242360E+01  0.34971785701E+01  0.77898760660E+02  0.00000000000E+00 0. -1.
          1    1    5    5  503    0 -0.33145705692E+03  0.60945623190E+02  0.46948781471E+02  0.34026803795E+03  0.00000000000E+00 0. -1.
         -2    1    5    5    0  503 -0.24388550472E+03  0.57833843324E+01  0.94284549590E+02  0.26153998402E+03  0.00000000000E+00 0.  1.
         -3    1    6    6    0  502  0.22742417193E+03  0.10164960304E+03 -0.11767708556E+03  0.27550370641E+03  0.00000000000E+00 0.  1.
<mgrwt>
<rscale>  0 0.13730183E+04</rscale>
<asrwt>0</asrwt>
<pdfrwt beam="1">  1        2 0.87221320E-01 0.13730183E+04</pdfrwt>
<pdfrwt beam="2">  1       -2 0.12789197E+00 0.13730183E+04</pdfrwt>
<totfact> 0.23428417E+01</totfact>
</mgrwt>
</event>
<event>
12    1  0.1504874E-007  0.1486805E+04  0.7818608E-02  0.8893275E-01
         -3   -1    0    0    0  501 -0.00000000000E+00  0.00000000000E+00  0.43511001543E+03  0.43511001543E+03  0.00000000000E+00 0.  1.
          3   -1    0    0  501    0  0.00000000000E+00 -0.00000000000E+00 -0.12701319368E+04  0.12701319368E+04  0.00000000000E+00 0. -1.
         23    2    1    2    0    0  0.24681430537E+03  0.24693976418E+03  0.13025116073E+03  0.38342209033E+03  0.90280596004E+02 0.  0.
        254    2    1    2    0    0 -0.24681430537E+03 -0.24693976418E+03 -0.96527308209E+03  0.13218198619E+04  0.83280194272E+03 0.  0.
        -24    2    4    4    0    0 -0.95412508458E+02 -0.49743111292E+03 -0.85876384447E+03  0.10004323130E+04  0.82753933210E+02 0.  0.
         24    2    4    4    0    0 -0.15140179692E+03  0.25049134874E+03 -0.10650923763E+03  0.32138754889E+03  0.79229533513E+02 0.  0.
         13    1    3    3    0    0 -0.18831561432E+01 -0.54984197821E+01  0.46909446286E+01  0.74688592615E+01  0.00000000000E+00 0. -1.
        -13    1    3    3    0    0  0.24869746152E+03  0.25243818396E+03  0.12556021610E+03  0.37595323107E+03  0.00000000000E+00 0.  1.
          2    1    6    6  502    0 -0.11363295815E+03  0.23743644192E+03 -0.90762390843E+02  0.27843549472E+03  0.00000000000E+00 0. -1.
          1    1    5    5  503    0 -0.71260223899E+02 -0.36460966616E+03 -0.69620851225E+03  0.78912896328E+03  0.00000000000E+00 0. -1.
         -2    1    5    5    0  503 -0.24152284559E+02 -0.13282144676E+03 -0.16255533222E+03  0.21130334971E+03  0.00000000000E+00 0.  1.
         -1    1    6    6    0  502 -0.37768838765E+02  0.13054906817E+02 -0.15746846784E+02  0.42952054168E+02  0.00000000000E+00 0.  1.
<mgrwt>
<rscale>  0 0.14868048E+04</rscale>
<asrwt>0</asrwt>
<pdfrwt beam="1">  1        3 0.19540491E+00 0.14868048E+04</pdfrwt>
<pdfrwt beam="2">  1       -3 0.66940004E-01 0.14868048E+04</pdfrwt>
<totfact> 0.85819485E-01</totfact>
</mgrwt>
</event>
<event>
12    1  0.1504874E-007  0.3543104E+04  0.7818608E-02  0.8103650E-01
         -1   -1    0    0    0  501 -0.00000000000E+00  0.00000000000E+00  0.14872709207E+04  0.14872709207E+04  0.00000000000E+00 0.  1.
          1   -1    0    0  501    0  0.00000000000E+00 -0.00000000000E+00 -0.21101717440E+04  0.21101717440E+04  0.00000000000E+00 0. -1.
         23    2    1    2    0    0  0.38360362559E+03  0.80533439651E+03  0.11261376879E+04  0.14395656426E+04  0.91912542927E+02 0.  0.
        254    2    1    2    0    0 -0.38360362559E+03 -0.80533439651E+03 -0.17490385113E+04  0.21578770221E+04  0.89531128474E+03 0.  0.
        -24    2    4    4    0    0 -0.20817298960E+03 -0.91239454266E+03 -0.16859998778E+04  0.19299877059E+04  0.80356467917E+02 0.  0.
         24    2    4    4    0    0 -0.17543063598E+03  0.10706014616E+03 -0.63038633544E+02  0.22788931619E+03  0.75643163472E+02 0.  0.
         11    1    3    3    0    0  0.29696633490E+03  0.68326305059E+03  0.89961753819E+03  0.11680535584E+04  0.00000000000E+00 0.  1.
        -11    1    3    3    0    0  0.86637290681E+02  0.12207134592E+03  0.22652014973E+03  0.27151208420E+03  0.00000000000E+00 0. -1.
          2    1    6    6  502    0 -0.16369092871E+03  0.99837473027E+02 -0.32615110985E+02  0.19448903987E+03  0.00000000000E+00 0. -1.
          1    1    5    5  503    0 -0.11968574103E+03 -0.51652250431E+03 -0.87264430168E+03  0.10210916958E+04  0.00000000000E+00 0. -1.
         -2    1    5    5    0  503 -0.88487248569E+02 -0.39587203835E+03 -0.81335557608E+03  0.90889601003E+03  0.00000000000E+00 0.  1.
         -1    1    6    6    0  502 -0.11739707270E+02  0.72226731293E+01 -0.30423522559E+02  0.33400276329E+02  0.00000000000E+00 0.  1.
<mgrwt>
<rscale>  0 0.35431043E+04</rscale>
<asrwt>0</asrwt>
<pdfrwt beam="1">  1        1 0.32464181E+00 0.35431043E+04</pdfrwt>
<pdfrwt beam="2">  1       -1 0.22881091E+00 0.35431043E+04</pdfrwt>
<totfact> 0.19600421E-01</totfact>
</mgrwt>
</event>
<event>
12    1  0.1504874E-007  0.2600951E+04  0.7818608E-02  0.8367878E-01
         -1   -1    0    0    0  501 -0.00000000000E+00  0.00000000000E+00  0.11167482596E+04  0.11167482596E+04  0.00000000000E+00 0.  1.
          1   -1    0    0  501    0  0.00000000000E+00 -0.00000000000E+00 -0.15144289845E+04  0.15144289845E+04  0.00000000000E+00 0. -1.
         23    2    1    2    0    0  0.46999681338E+03 -0.83827683201E+03 -0.78060535599E+03  0.12415315605E+04  0.91928462200E+02 0.  0.
        254    2    1    2    0    0 -0.46999681338E+03  0.83827683201E+03  0.38292463112E+03  0.13896456836E+04  0.92783554641E+03 0.  0.
        -24    2    4    4    0    0 -0.26617726823E+03  0.23208295916E+03  0.60760036565E+03  0.70704120831E+03  0.77564346487E+02 0.  0.
         24    2    4    4    0    0 -0.20381954515E+03  0.60619387285E+03 -0.22467573453E+03  0.68260447530E+03  0.80350890143E+02 0.  0.
         11    1    3    3    0    0  0.27171846203E+03 -0.54481279466E+03 -0.53561865986E+03  0.81088794086E+03  0.00000000000E+00 0. -1.
        -11    1    3    3    0    0  0.19827835135E+03 -0.29346403735E+03 -0.24498669613E+03  0.43064361961E+03  0.00000000000E+00 0.  1.
          2    1    6    6  502    0 -0.32296552205E+02  0.13716616079E+03 -0.17768856561E+02  0.14203293708E+03  0.00000000000E+00 0. -1.
          1    1    5    5  503    0 -0.75217054348E+02  0.90758535200E+02  0.14381011829E+03  0.18594640922E+03  0.00000000000E+00 0. -1.
         -2    1    5    5    0  503 -0.19096021388E+03  0.14132442396E+03  0.46379024736E+03  0.52109479909E+03  0.00000000000E+00 0.  1.
         -1    1    6    6    0  502 -0.17152299295E+03  0.46902771206E+03 -0.20690687797E+03  0.54057153823E+03  0.00000000000E+00 0.  1.
<mgrwt>
<rscale>  0 0.26009505E+04</rscale>
<asrwt>0</asrwt>
<pdfrwt beam="1">  1        1 0.23298907E+00 0.26009505E+04</pdfrwt>
<pdfrwt beam="2">  1       -1 0.17180742E+00 0.26009505E+04</pdfrwt>
<totfact> 0.13436854E+00</totfact>
</mgrwt>
</event>
<event>
12    1  0.1504874E-007  0.1139228E+04  0.7818608E-02  0.9167779E-01
         -1   -1    0    0    0  501 -0.00000000000E+00  0.00000000000E+00  0.14023152821E+03  0.14023152821E+03  0.00000000000E+00 0.  1.
          1   -1    0    0  501    0  0.00000000000E+00 -0.00000000000E+00 -0.23137465698E+04  0.23137465698E+04  0.00000000000E+00 0. -1.
         23    2    1    2    0    0  0.94732452578E+02 -0.16988767719E+03 -0.57288476018E+03  0.61220316431E+03  0.93593298436E+02 0.  0.
        254    2    1    2    0    0 -0.94732452578E+02  0.16988767719E+03 -0.16006302814E+04  0.18417749337E+04  0.89010198753E+03 0.  0.
        -24    2    4    4    0    0 -0.35194623578E+03  0.42742203781E+02 -0.21079749704E+03  0.42032390442E+03  0.80892218410E+02 0.  0.
         24    2    4    4    0    0  0.25721378320E+03  0.12714547341E+03 -0.13898327844E+04  0.14214510293E+04  0.81012088444E+02 0.  0.
         11    1    3    3    0    0  0.11064927984E+03 -0.13777018065E+03 -0.51096795644E+03  0.54065898524E+03  0.00000000000E+00 0. -1.
        -11    1    3    3    0    0 -0.15916827265E+02 -0.32117496540E+02 -0.61916803738E+02  0.71544179074E+02  0.00000000000E+00 0.  1.
          4    1    6    6  502    0  0.24659447280E+03  0.10392323824E+03 -0.11739272870E+04  0.12040407587E+04  0.00000000000E+00 0. -1.
          1    1    5    5  503    0 -0.25673203323E+03  0.17385448013E+01 -0.12398759725E+03  0.28510924870E+03  0.00000000000E+00 0. -1.
         -2    1    5    5    0  503 -0.95214202552E+02  0.41003658979E+02 -0.86809899798E+02  0.13521465572E+03  0.00000000000E+00 0.  1.
         -3    1    6    6    0  502  0.10619310404E+02  0.23222235170E+02 -0.21590549737E+03  0.21741027059E+03  0.00000000000E+00 0.  1.
<mgrwt>
<rscale>  0 0.11392282E+04</rscale>
<asrwt>0</asrwt>
<pdfrwt beam="1">  1        1 0.35596103E+00 0.11392282E+04</pdfrwt>
<pdfrwt beam="2">  1       -1 0.21574080E-01 0.11392282E+04</pdfrwt>
<totfact> 0.32771646E+01</totfact>
</mgrwt>
</event>
<event>
12    1  0.1504874E-007  0.1455571E+04  0.7818608E-02  0.8914548E-01
          1   -1    0    0  501    0  0.00000000000E+00  0.00000000000E+00  0.55486737329E+03  0.55486737329E+03  0.00000000000E+00 0. -1.
         -1   -1    0    0    0  501 -0.00000000000E+00 -0.00000000000E+00 -0.95459097347E+03  0.95459097347E+03  0.00000000000E+00 0.  1.
         23    2    1    2    0    0  0.40461579311E+03  0.12178503015E+03 -0.18025558967E+03  0.46828670367E+03  0.90856070896E+02 0.  0.
        254    2    1    2    0    0 -0.40461579311E+03 -0.12178503015E+03 -0.21946801050E+03  0.10411716431E+04  0.92591935348E+03 0.  0.
        -24    2    4    4    0    0  0.14354374926E+03 -0.31801068280E+03  0.10120768932E+03  0.37180145532E+03  0.79105773942E+02 0.  0.
         24    2    4    4    0    0 -0.54815954237E+03  0.19622565266E+03 -0.32067569982E+03  0.66937018778E+03  0.78994640149E+02 0.  0.
         13    1    3    3    0    0  0.15188958962E+03  0.44477656679E+02 -0.20814003835E+02  0.15963061152E+03  0.00000000000E+00 0.  1.
        -13    1    3    3    0    0  0.25272620349E+03  0.77307373468E+02 -0.15944158584E+03  0.30865609215E+03  0.00000000000E+00 0. -1.
          2    1    6    6  502    0 -0.44697072813E+03  0.18123947933E+03 -0.23798992046E+03  0.53783806384E+03  0.00000000000E+00 0. -1.
          3    1    5    5  503    0  0.99548798189E+02 -0.28603137023E+03  0.78542820162E+02  0.31287838305E+03  0.00000000000E+00 0. -1.
         -4    1    5    5    0  503  0.43994951071E+02 -0.31979312571E+02  0.22664869155E+02  0.58923072273E+02  0.00000000000E+00 0.  1.
         -1    1    6    6    0  502 -0.10118881425E+03  0.14986173324E+02 -0.82685779361E+02  0.13153212394E+03  0.00000000000E+00 0.  1.
<mgrwt>
<rscale>  0 0.14555705E+04</rscale>
<asrwt>0</asrwt>
<pdfrwt beam="1">  1        1 0.85364211E-01 0.14555705E+04</pdfrwt>
<pdfrwt beam="2">  1       -1 0.14686015E+00 0.14555705E+04</pdfrwt>
<totfact> 0.13736431E+01</totfact>
</mgrwt>
</event>
<event>
12    1  0.1504874E-007  0.2072747E+04  0.7818608E-02  0.8573345E-01
         -2   -1    0    0    0  501 -0.00000000000E+00  0.00000000000E+00  0.10752536037E+04  0.10752536037E+04  0.00000000000E+00 0.  1.
          2   -1    0    0  501    0  0.00000000000E+00 -0.00000000000E+00 -0.99889878362E+03  0.99889878362E+03  0.00000000000E+00 0. -1.
         23    2    1    2    0    0  0.21770573629E+03 -0.22491488767E+03 -0.75304178096E+03  0.82030124384E+03  0.88542150759E+02 0.  0.
        254    2    1    2    0    0 -0.21770573629E+03  0.22491488767E+03  0.82939660103E+03  0.12538511435E+04  0.88671386245E+03 0.  0.
        -24    2    4    4    0    0 -0.37655654372E+03 -0.22540272006E+03  0.30619840659E+03  0.54101492002E+03  0.79614462597E+02 0.  0.
         24    2    4    4    0    0  0.15885080743E+03  0.45031760773E+03  0.52319819445E+03  0.71283622345E+03  0.79872422889E+02 0.  0.
         11    1    3    3    0    0 -0.43850963985E+01 -0.27416736391E+02 -0.54559694031E+02  0.61218189434E+02  0.00000000000E+00 0.  1.
        -11    1    3    3    0    0  0.22209083269E+03 -0.19749815128E+03 -0.69848208693E+03  0.75908305440E+03  0.00000000000E+00 0. -1.
          4    1    6    6  502    0 -0.25364338040E+01  0.14190438856E+02  0.38606251044E+02  0.41209764268E+02  0.00000000000E+00 0. -1.
          3    1    5    5  503    0 -0.14718143984E+03 -0.12241132660E+03  0.16448241394E+03  0.25239131049E+03  0.00000000000E+00 0. -1.
         -4    1    5    5    0  503 -0.22937510388E+03 -0.10299139346E+03  0.14171599265E+03  0.28862360953E+03  0.00000000000E+00 0.  1.
         -3    1    6    6    0  502  0.16138724124E+03  0.43612716887E+03  0.48459194340E+03  0.67162645918E+03  0.00000000000E+00 0.  1.
<mgrwt>
<rscale>  0 0.20727465E+04</rscale>
<asrwt>0</asrwt>
<pdfrwt beam="1">  1        2 0.15367674E+00 0.20727465E+04</pdfrwt>
<pdfrwt beam="2">  1       -2 0.16542363E+00 0.20727465E+04</pdfrwt>
<totfact> 0.53558930E+00</totfact>
</mgrwt>
</event>
<event>
12    1  0.1504874E-007  0.1893117E+04  0.7818608E-02  0.8658290E-01
         -2   -1    0    0    0  501 -0.00000000000E+00  0.00000000000E+00  0.11223350991E+04  0.11223350991E+04  0.00000000000E+00 0. -1.
          2   -1    0    0  501    0  0.00000000000E+00 -0.00000000000E+00 -0.79831116242E+03  0.79831116242E+03  0.00000000000E+00 0.  1.
         23    2    1    2    0    0 -0.86070862919E+02  0.53448562103E+03 -0.35573739160E+03  0.65387833238E+03  0.89020835965E+02 0.  0.
        254    2    1    2    0    0  0.86070862919E+02 -0.53448562103E+03  0.67976132830E+03  0.12667679292E+04  0.92170627121E+03 0.  0.
        -24    2    4    4    0    0 -0.38092848206E+03 -0.43228554600E+03  0.41640687789E+03  0.71540965174E+03  0.80243255881E+02 0.  0.
         24    2    4    4    0    0  0.46699934498E+03 -0.10220007503E+03  0.26335445042E+03  0.55135827743E+03  0.78148192480E+02 0.  0.
         11    1    3    3    0    0 -0.49755983425E+02  0.94026473172E+02 -0.60465647032E+02  0.12236310725E+03  0.00000000000E+00 0. -1.
        -11    1    3    3    0    0 -0.36314879494E+02  0.44045914786E+03 -0.29527174457E+03  0.53151522513E+03  0.00000000000E+00 0.  1.
          2    1    6    6  502    0  0.13883221394E+03 -0.62780955263E+02  0.63215902139E+02  0.16496085067E+03  0.00000000000E+00 0. -1.
          1    1    5    5  503    0 -0.63058326420E+02 -0.45763624372E+02  0.84328540570E+02  0.11481273710E+03  0.00000000000E+00 0. -1.
         -4    1    5    5    0  503 -0.31787015564E+03 -0.38652192163E+03  0.33207833731E+03  0.60059691463E+03  0.00000000000E+00 0.  1.
         -1    1    6    6    0  502  0.32816713105E+03 -0.39419119768E+02  0.20013854828E+03  0.38639742676E+03  0.00000000000E+00 0.  1.
<mgrwt>
<rscale>  0 0.18931166E+04</rscale>
<asrwt>0</asrwt>
<pdfrwt beam="1">  1        2 0.12281710E+00 0.18931166E+04</pdfrwt>
<pdfrwt beam="2">  1       -2 0.17266694E+00 0.18931166E+04</pdfrwt>
<totfact> 0.66018859E+00</totfact>
</mgrwt>
</event>
<event>
12    1  0.1504874E-007  0.2687489E+04  0.7818608E-02  0.8339076E-01
         -2   -1    0    0    0  501 -0.00000000000E+00  0.00000000000E+00  0.13778259041E+04  0.13778259041E+04  0.00000000000E+00 0.  1.
          2   -1    0    0  501    0  0.00000000000E+00 -0.00000000000E+00 -0.13105065049E+04  0.13105065049E+04  0.00000000000E+00 0. -1.
         23    2    1    2    0    0 -0.29576379791E+03 -0.60172948725E+03 -0.95924702430E+03  0.11737449701E+04  0.89262541332E+02 0.  0.
        254    2    1    2    0    0  0.29576379791E+03  0.60172948725E+03  0.10265664236E+04  0.15145874389E+04  0.88914671916E+03 0.  0.
        -24    2    4    4    0    0  0.57772608128E+03  0.44383988366E+03  0.48658495157E+03  0.88027430053E+03  0.85770984336E+02 0.  0.
         24    2    4    4    0    0 -0.28196228337E+03  0.15788960358E+03  0.53998147199E+03  0.63431313839E+03  0.79632350760E+02 0.  0.
         11    1    3    3    0    0 -0.58887336119E+02 -0.18477228134E+03 -0.22851818499E+03  0.29971498992E+03  0.00000000000E+00 0.  1.
        -11    1    3    3    0    0 -0.23687646179E+03 -0.41695720590E+03 -0.73072883931E+03  0.87402998021E+03  0.00000000000E+00 0. -1.
          4    1    6    6  502    0 -0.13790305029E+02 -0.58693957266E+01  0.50317721305E+02  0.52502337056E+02  0.00000000000E+00 0. -1.
          3    1    5    5  503    0  0.24346451006E+03  0.23925803007E+03  0.23944700878E+03  0.41695832241E+03  0.00000000000E+00 0. -1.
         -4    1    5    5    0  503  0.33426157122E+03  0.20458185359E+03  0.24713794279E+03  0.46331597812E+03  0.00000000000E+00 0.  1.
         -3    1    6    6    0  502 -0.26817197834E+03  0.16375899931E+03  0.48966375068E+03  0.58181080134E+03  0.00000000000E+00 0.  1.
<mgrwt>
<rscale>  0 0.26874894E+04</rscale>
<asrwt>0</asrwt>
<pdfrwt beam="1">  1        2 0.20161639E+00 0.26874894E+04</pdfrwt>
<pdfrwt beam="2">  1       -2 0.21197322E+00 0.26874894E+04</pdfrwt>
<totfact> 0.15919478E+00</totfact>
</mgrwt>
</event>
<event>
12    1  0.1504874E-007  0.1726460E+04  0.7818608E-02  0.8746416E-01
          2   -1    0    0  501    0  0.00000000000E+00  0.00000000000E+00  0.10723765592E+04  0.10723765592E+04  0.00000000000E+00 0.  1.
         -2   -1    0    0    0  501 -0.00000000000E+00 -0.00000000000E+00 -0.69487330259E+03  0.69487330259E+03  0.00000000000E+00 0. -1.
         23    2    1    2    0    0  0.50291810169E+03  0.34166545851E+03 -0.11242477840E+03  0.62503025153E+03  0.91441686212E+02 0.  0.
        254    2    1    2    0    0 -0.50291810169E+03 -0.34166545851E+03  0.48992803501E+03  0.11422196102E+04  0.83365115965E+03 0.  0.
        -24    2    4    4    0    0 -0.30561425841E+03 -0.32286746377E+03 -0.14291006608E+03  0.47433696151E+03  0.83239365435E+02 0.  0.
         24    2    4    4    0    0 -0.19730384328E+03 -0.18797994744E+02  0.63283810109E+03  0.66788264874E+03  0.79378832923E+02 0.  0.
         11    1    3    3    0    0  0.17546231895E+03  0.17117826107E+03 -0.32216662459E+02  0.24723862112E+03  0.00000000000E+00 0. -1.
        -11    1    3    3    0    0  0.32745578274E+03  0.17048719745E+03 -0.80208115944E+02  0.37779163041E+03  0.00000000000E+00 0.  1.
          2    1    6    6  502    0  0.95001907348E+00  0.10555109398E+02  0.61658141363E+02  0.62562283102E+02  0.00000000000E+00 0. -1.
          1    1    5    5  503    0 -0.11392782688E+03 -0.12923927564E+03 -0.13814330873E+02  0.17283858320E+03  0.00000000000E+00 0. -1.
         -2    1    5    5    0  503 -0.19168643154E+03 -0.19362818813E+03 -0.12909573521E+03  0.30149837831E+03  0.00000000000E+00 0.  1.
         -1    1    6    6    0  502 -0.19825386235E+03 -0.29353104143E+02  0.57117995973E+03  0.60532036564E+03  0.00000000000E+00 0.  1.
<mgrwt>
<rscale>  0 0.17264598E+04</rscale>
<asrwt>0</asrwt>
<pdfrwt beam="1">  1        2 0.16498101E+00 0.17264598E+04</pdfrwt>
<pdfrwt beam="2">  1       -2 0.10690359E+00 0.17264598E+04</pdfrwt>
<totfact> 0.15152931E+01</totfact>
</mgrwt>
</event>
<event>
12    1  0.1504874E-007  0.1697108E+04  0.7818608E-02  0.8763015E-01
         -2   -1    0    0    0  501 -0.00000000000E+00  0.00000000000E+00  0.13997081275E+04  0.13997081275E+04  0.00000000000E+00 0.  1.
          2   -1    0    0  501    0  0.00000000000E+00 -0.00000000000E+00 -0.51442442005E+03  0.51442442005E+03  0.00000000000E+00 0. -1.
         23    2    1    2    0    0 -0.47137988821E+03  0.20022217960E+03  0.68867168437E+03  0.86299731754E+03  0.90596694238E+02 0.  0.
        254    2    1    2    0    0  0.47137988821E+03 -0.20022217960E+03  0.19661202305E+03  0.10511352300E+04  0.89662760602E+03 0.  0.
        -24    2    4    4    0    0 -0.17955850802E+03  0.16080980253E+03 -0.59753936724E+02  0.25985376068E+03  0.76500938507E+02 0.  0.
         24    2    4    4    0    0  0.65093839623E+03 -0.36103198214E+03  0.25636595977E+03  0.79128146930E+03  0.79611371759E+02 0.  0.
         11    1    3    3    0    0 -0.38653946650E+03  0.18312651942E+03  0.61628437482E+03  0.75016965543E+03  0.00000000000E+00 0.  1.
        -11    1    3    3    0    0 -0.84840421712E+02  0.17095660189E+02  0.72387309552E+02  0.11282766211E+03  0.00000000000E+00 0. -1.
          2    1    6    6  502    0  0.30928406009E+03 -0.16673855013E+03  0.16286274328E+03  0.38727593144E+03  0.00000000000E+00 0. -1.
          1    1    5    5  503    0 -0.17422762581E+03  0.12332239943E+03 -0.40093315357E+02  0.21718921182E+03  0.00000000000E+00 0. -1.
         -2    1    5    5    0  503 -0.53308822091E+01  0.37487403102E+02 -0.19660621366E+02  0.42664548855E+02  0.00000000000E+00 0.  1.
         -1    1    6    6    0  502  0.34165433614E+03 -0.19429343201E+03  0.93503216491E+02  0.40400553786E+03  0.00000000000E+00 0.  1.
<mgrwt>
<rscale>  0 0.16971082E+04</rscale>
<asrwt>0</asrwt>
<pdfrwt beam="1">  1        2 0.79142219E-01 0.16971082E+04</pdfrwt>
<pdfrwt beam="2">  1       -2 0.21533971E+00 0.16971082E+04</pdfrwt>
<totfact> 0.59947878E+00</totfact>
</mgrwt>
</event>
<event>
12    1  0.1504874E-007  0.1669750E+04  0.7818608E-02  0.8778807E-01
         -1   -1    0    0    0  501 -0.00000000000E+00  0.00000000000E+00  0.32471652660E+03  0.32471652660E+03  0.00000000000E+00 0.  1.
          1   -1    0    0  501    0  0.00000000000E+00 -0.00000000000E+00 -0.21465382143E+04  0.21465382143E+04  0.00000000000E+00 0. -1.
         23    2    1    2    0    0  0.33015306085E+03 -0.22736147053E+03 -0.61016423680E+01  0.41097583978E+03  0.90385999866E+02 0.  0.
        254    2    1    2    0    0 -0.33015306085E+03  0.22736147053E+03 -0.18157200453E+04  0.20602789011E+04  0.88725170358E+03 0.  0.
        -24    2    4    4    0    0  0.95921841067E+02 -0.15950706792E+02  0.45644149038E+02  0.13370277464E+03  0.79609163814E+02 0.  0.
         24    2    4    4    0    0 -0.42607490191E+03  0.24331217732E+03 -0.18613641944E+04  0.19265761265E+04  0.79235531019E+02 0.  0.
         11    1    3    3    0    0  0.24019651723E+03 -0.20136471307E+03  0.19064700147E+02  0.31401525019E+03  0.00000000000E+00 0. -1.
        -11    1    3    3    0    0  0.89956543613E+02 -0.25996757463E+02 -0.25166342515E+02  0.96960589586E+02  0.00000000000E+00 0.  1.
          4    1    6    6  502    0 -0.11544881900E+03  0.36794837875E+02 -0.37331910201E+03  0.39249132708E+03  0.00000000000E+00 0. -1.
          3    1    5    5  503    0  0.96488910539E+02 -0.33842318292E+02  0.22944812051E+02  0.10479445006E+03  0.00000000000E+00 0. -1.
         -4    1    5    5    0  503 -0.56706947216E+00  0.17891611500E+02  0.22699336987E+02  0.28908324571E+02  0.00000000000E+00 0.  1.
         -3    1    6    6    0  502 -0.31062608291E+03  0.20651733945E+03 -0.14880450924E+04  0.15340847994E+04  0.00000000000E+00 0.  1.
<mgrwt>
<rscale>  0 0.16697502E+04</rscale>
<asrwt>0</asrwt>
<pdfrwt beam="1">  1        1 0.33023665E+00 0.16697502E+04</pdfrwt>
<pdfrwt beam="2">  1       -1 0.49956388E-01 0.16697502E+04</pdfrwt>
<totfact> 0.90930857E+00</totfact>
</mgrwt>
</event>
<event>
12    1  0.1504874E-007  0.1494574E+04  0.7818608E-02  0.8888069E-01
          2   -1    0    0  501    0  0.00000000000E+00  0.00000000000E+00  0.10041650375E+04  0.10041650375E+04  0.00000000000E+00 0. -1.
         -2   -1    0    0    0  501 -0.00000000000E+00 -0.00000000000E+00 -0.55612162883E+03  0.55612162883E+03  0.00000000000E+00 0.  1.
         23    2    1    2    0    0  0.42327545700E+03 -0.20688878409E+03  0.10199663419E+03  0.49073081251E+03  0.91914827329E+02 0.  0.
        254    2    1    2    0    0 -0.42327545700E+03  0.20688878409E+03  0.34604677452E+03  0.10695558539E+04  0.89567643315E+03 0.  0.
        -24    2    4    4    0    0 -0.17165683870E+03  0.46108952972E+03  0.46716716551E+03  0.68324100376E+03  0.80644181434E+02 0.  0.
         24    2    4    4    0    0 -0.25161861830E+03 -0.25420074563E+03 -0.12112039099E+03  0.38631485010E+03  0.81480464751E+02 0.  0.
         11    1    3    3    0    0  0.33070801342E+03 -0.18184227301E+03  0.47366869211E+02  0.38036564341E+03  0.00000000000E+00 0. -1.
        -11    1    3    3    0    0  0.92567443582E+02 -0.25046511084E+02  0.54629764976E+02  0.11036516910E+03  0.00000000000E+00 0.  1.
          2    1    6    6  502    0 -0.35620371083E+02 -0.70555975117E+02 -0.27608244451E+01  0.79085893890E+02  0.00000000000E+00 0. -1.
          3    1    5    5  503    0 -0.31060255623E+02  0.17401625765E+03  0.13656020299E+03  0.22337208072E+03  0.00000000000E+00 0. -1.
         -4    1    5    5    0  503 -0.14059658307E+03  0.28707327208E+03  0.33060696252E+03  0.45986892304E+03  0.00000000000E+00 0.  1.
         -1    1    6    6    0  502 -0.21599824722E+03 -0.18364477051E+03 -0.11835956655E+03  0.30722895621E+03  0.00000000000E+00 0.  1.
<mgrwt>
<rscale>  0 0.14945740E+04</rscale>
<asrwt>0</asrwt>
<pdfrwt beam="1">  1        2 0.15448693E+00 0.14945740E+04</pdfrwt>
<pdfrwt beam="2">  1       -2 0.85557174E-01 0.14945740E+04</pdfrwt>
<totfact> 0.28731018E+01</totfact>
</mgrwt>
</event>
<event>
12    1  0.1504874E-007  0.1529726E+04  0.7818608E-02  0.8864922E-01
         -2   -1    0    0    0  501 -0.00000000000E+00  0.00000000000E+00  0.32004448151E+03  0.32004448151E+03  0.00000000000E+00 0.  1.
          2   -1    0    0  501    0  0.00000000000E+00 -0.00000000000E+00 -0.18279194883E+04  0.18279194883E+04  0.00000000000E+00 0. -1.
         23    2    1    2    0    0 -0.30980886838E+03 -0.40014227273E+03 -0.85120684194E+03  0.99446017950E+03  0.91118535350E+02 0.  0.
        254    2    1    2    0    0  0.30980886838E+03  0.40014227273E+03 -0.65666816488E+03  0.11535037903E+04  0.80203649680E+03 0.  0.
        -24    2    4    4    0    0  0.39215953547E+03  0.17833604358E+03  0.13361664693E+02  0.43825193449E+03  0.79330815562E+02 0.  0.
         24    2    4    4    0    0 -0.82350667092E+02  0.22180622915E+03 -0.67002982957E+03  0.71525185585E+03  0.81643181712E+02 0.  0.
         13    1    3    3    0    0 -0.24055749356E+03 -0.30327985751E+03 -0.71866366779E+03  0.81628674318E+03  0.00000000000E+00 0.  1.
        -13    1    3    3    0    0 -0.69251374819E+02 -0.96862415225E+02 -0.13254317415E+03  0.17817343632E+03  0.00000000000E+00 0. -1.
          4    1    6    6  502    0 -0.98005719546E+02  0.17066543962E+03 -0.52829451681E+03  0.56376139441E+03  0.00000000000E+00 0. -1.
          3    1    5    5  503    0  0.25617598477E+03  0.10795431180E+03 -0.28675435883E+02  0.27946833315E+03  0.00000000000E+00 0. -1.
         -2    1    5    5    0  503  0.13598355070E+03  0.70381731778E+02  0.42037100575E+02  0.15878360134E+03  0.00000000000E+00 0.  1.
         -3    1    6    6    0  502  0.15655052453E+02  0.51140789539E+02 -0.14173531277E+03  0.15149046144E+03  0.00000000000E+00 0.  1.
<mgrwt>
<rscale>  0 0.15297262E+04</rscale>
<asrwt>0</asrwt>
<pdfrwt beam="1">  1        2 0.28121838E+00 0.15297262E+04</pdfrwt>
<pdfrwt beam="2">  1       -2 0.49237613E-01 0.15297262E+04</pdfrwt>
<totfact> 0.31342661E+01</totfact>
</mgrwt>
</event>
<event>
12    1  0.1504874E-007  0.1257536E+04  0.7818608E-02  0.9063934E-01
          2   -1    0    0  501    0  0.00000000000E+00  0.00000000000E+00  0.10660460727E+04  0.10660460727E+04  0.00000000000E+00 0. -1.
         -2   -1    0    0    0  501 -0.00000000000E+00 -0.00000000000E+00 -0.37085590937E+03  0.37085590937E+03  0.00000000000E+00 0.  1.
         23    2    1    2    0    0  0.10232681625E+03 -0.11486863546E+03 -0.12278836079E+03  0.21656440094E+03  0.90319308398E+02 0.  0.
        254    2    1    2    0    0 -0.10232681625E+03  0.11486863546E+03  0.81797852416E+03  0.12203375812E+04  0.89245132378E+03 0.  0.
        -24    2    4    4    0    0 -0.15947733886E+03 -0.14895441868E+03 -0.10515090396E+03  0.25502904596E+03  0.79766291302E+02 0.  0.
         24    2    4    4    0    0  0.57150522603E+02  0.26382305415E+03  0.92312942812E+03  0.96530853522E+03  0.82364075729E+02 0.  0.
         13    1    3    3    0    0 -0.11005016672E+02 -0.14358369439E+02 -0.40083254455E+02  0.43976589824E+02  0.00000000000E+00 0. -1.
        -13    1    3    3    0    0  0.11333183292E+03 -0.10051026602E+03 -0.82705106336E+02  0.17258781111E+03  0.00000000000E+00 0.  1.
          2    1    6    6  502    0  0.46696361589E+02  0.66926481886E+02  0.34348195396E+03  0.35304327901E+03  0.00000000000E+00 0. -1.
          1    1    5    5  503    0 -0.13636668192E+03 -0.10390048971E+03 -0.11072704687E+03  0.20408738964E+03  0.00000000000E+00 0. -1.
         -2    1    5    5    0  503 -0.23110656936E+02 -0.45053928967E+02  0.55761429104E+01  0.50941656325E+02  0.00000000000E+00 0.  1.
         -1    1    6    6    0  502  0.10454161014E+02  0.19689657226E+03  0.57964747417E+03  0.61226525621E+03  0.00000000000E+00 0.  1.
<mgrwt>
<rscale>  0 0.12575365E+04</rscale>
<asrwt>0</asrwt>
<pdfrwt beam="1">  1        2 0.16400709E+00 0.12575365E+04</pdfrwt>
<pdfrwt beam="2">  1       -2 0.57054756E-01 0.12575365E+04</pdfrwt>
<totfact> 0.64742644E+01</totfact>
</mgrwt>
</event>
<event>
12    1  0.1504874E-007  0.3376745E+04  0.7818608E-02  0.8143638E-01
         -2   -1    0    0    0  501 -0.00000000000E+00  0.00000000000E+00  0.16414854740E+04  0.16414854740E+04  0.00000000000E+00 0.  1.
          2   -1    0    0  501    0  0.00000000000E+00 -0.00000000000E+00 -0.17365986557E+04  0.17365986557E+04  0.00000000000E+00 0. -1.
         23    2    1    2    0    0  0.84450667181E+03 -0.61739411806E+03 -0.11987584529E+04  0.15934210160E+04  0.87187671400E+02 0.  0.
        254    2    1    2    0    0 -0.84450667181E+03  0.61739411806E+03  0.11036452712E+04  0.17846631136E+04  0.93414267047E+03 0.  0.
        -24    2    4    4    0    0 -0.65167638337E+03 -0.58124683205E+02  0.33161168459E+03  0.73785276032E+03  0.79998744468E+02 0.  0.
         24    2    4    4    0    0 -0.19283028844E+03  0.67551880127E+03  0.77203358661E+03  0.10468103533E+04  0.79163665622E+02 0.  0.
         11    1    3    3    0    0  0.84473109622E+03 -0.61518859435E+03 -0.11869937927E+04  0.15814493022E+04  0.00000000000E+00 0. -1.
        -11    1    3    3    0    0 -0.22442440822E+00 -0.22055237178E+01 -0.11764660228E+02  0.11971713806E+02  0.00000000000E+00 0.  1.
          4    1    6    6  502    0 -0.64439177501E+02  0.11442524836E+03  0.13965444116E+03  0.19170004694E+03  0.00000000000E+00 0. -1.
          1    1    5    5  503    0 -0.66481269923E+02 -0.53060381509E+01  0.63175281083E+02  0.91864190147E+02  0.00000000000E+00 0. -1.
         -2    1    5    5    0  503 -0.58519511344E+03 -0.52818645054E+02  0.26843640351E+03  0.64598857017E+03  0.00000000000E+00 0.  1.
         -3    1    6    6    0  502 -0.12839111094E+03  0.56109355291E+03  0.63237914545E+03  0.85511030639E+03  0.00000000000E+00 0.  1.
<mgrwt>
<rscale>  0 0.33767449E+04</rscale>
<asrwt>0</asrwt>
<pdfrwt beam="1">  1        2 0.26716902E+00 0.33767449E+04</pdfrwt>
<pdfrwt beam="2">  1       -2 0.25253623E+00 0.33767449E+04</pdfrwt>
<totfact> 0.48153095E-01</totfact>
</mgrwt>
</event>
<event>
12    1  0.1504874E-007  0.2209631E+04  0.7818608E-02  0.8514430E-01
         -2   -1    0    0    0  501 -0.00000000000E+00  0.00000000000E+00  0.56523965873E+03  0.56523965873E+03  0.00000000000E+00 0. -1.
          2   -1    0    0  501    0  0.00000000000E+00 -0.00000000000E+00 -0.21594681091E+04  0.21594681091E+04  0.00000000000E+00 0.  1.
         23    2    1    2    0    0 -0.59218048180E+03  0.68449108210E+03 -0.87301979654E+03  0.12606842276E+04  0.89193004441E+02 0.  0.
        254    2    1    2    0    0  0.59218048180E+03 -0.68449108210E+03 -0.72120865382E+03  0.14640235402E+04  0.89667008397E+03 0.  0.
        -24    2    4    4    0    0  0.37068861782E+03 -0.87619108778E+03 -0.44402097087E+03  0.10529104322E+04  0.79654767212E+02 0.  0.
         24    2    4    4    0    0  0.22149186398E+03  0.19170000567E+03 -0.27718768295E+03  0.41111310805E+03  0.79833815167E+02 0.  0.
         11    1    3    3    0    0 -0.71299721756E+02  0.11379141375E+03 -0.97485262697E+02  0.16593827952E+03  0.00000000000E+00 0. -1.
        -11    1    3    3    0    0 -0.52088076004E+03  0.57069966835E+03 -0.77553453385E+03  0.10947459481E+04  0.00000000000E+00 0.  1.
          2    1    6    6  502    0  0.22750518187E+03  0.17993706318E+03 -0.26882408566E+03  0.39547736157E+03  0.00000000000E+00 0. -1.
          1    1    5    5  503    0  0.37358783388E+03 -0.85580587760E+03 -0.43030664815E+03  0.10281708911E+04  0.00000000000E+00 0. -1.
         -2    1    5    5    0  503 -0.28992160595E+01 -0.20385210174E+02 -0.13714322720E+02  0.24739541129E+02  0.00000000000E+00 0.  1.
         -1    1    6    6    0  502 -0.60133178919E+01  0.11762942497E+02 -0.83635972868E+01  0.15635746475E+02  0.00000000000E+00 0.  1.
<mgrwt>
<rscale>  0 0.22096308E+04</rscale>
<asrwt>0</asrwt>
<pdfrwt beam="1">  1        2 0.33222586E+00 0.22096308E+04</pdfrwt>
<pdfrwt beam="2">  1       -2 0.86959948E-01 0.22096308E+04</pdfrwt>
<totfact> 0.56839717E+00</totfact>
</mgrwt>
</event>
<event>
12    1  0.1504874E-007  0.1298885E+04  0.7818608E-02  0.9030450E-01
         -2   -1    0    0    0  501 -0.00000000000E+00  0.00000000000E+00  0.19102600691E+03  0.19102600691E+03  0.00000000000E+00 0.  1.
          2   -1    0    0  501    0  0.00000000000E+00 -0.00000000000E+00 -0.22079474380E+04  0.22079474380E+04  0.00000000000E+00 0. -1.
         23    2    1    2    0    0 -0.92077315071E+01 -0.20220811654E+03 -0.10029504723E+04  0.10272448328E+04  0.91375007045E+02 0.  0.
        254    2    1    2    0    0  0.92077315071E+01  0.20220811654E+03 -0.10139709589E+04  0.13717286122E+04  0.90140411323E+03 0.  0.
        -24    2    4    4    0    0 -0.20545432184E+03 -0.49250653348E+02 -0.10061299591E+04  0.10311399757E+04  0.79467286126E+02 0.  0.
         24    2    4    4    0    0  0.21466205335E+03  0.25145876989E+03 -0.78409997688E+01  0.34058863653E+03  0.81411473124E+02 0.  0.
         11    1    3    3    0    0 -0.10317501434E+02  0.89135262315E+00 -0.12731881627E+02  0.16411768798E+02  0.00000000000E+00 0.  1.
        -11    1    3    3    0    0  0.11097699265E+01 -0.20309946916E+03 -0.99021859063E+03  0.10108330640E+04  0.00000000000E+00 0. -1.
          2    1    6    6  502    0  0.60211534494E+02  0.54347816818E+02  0.31670821238E+02  0.87075570609E+02  0.00000000000E+00 0. -1.
          1    1    5    5  503    0 -0.32101045337E+00 -0.13578355892E+02 -0.28330390723E+02  0.31417922194E+02  0.00000000000E+00 0. -1.
         -2    1    5    5    0  503 -0.20513331139E+03 -0.35672297456E+02 -0.97779956838E+03  0.99972205346E+03  0.00000000000E+00 0.  1.
         -1    1    6    6    0  502  0.15445051886E+03  0.19711095307E+03 -0.39511821007E+02  0.25351306592E+03  0.00000000000E+00 0.  1.
<mgrwt>
<rscale>  0 0.12988847E+04</rscale>
<asrwt>0</asrwt>
<pdfrwt beam="1">  1        2 0.33968423E+00 0.12988847E+04</pdfrwt>
<pdfrwt beam="2">  1       -2 0.29388616E-01 0.12988847E+04</pdfrwt>
<totfact> 0.53501964E+01</totfact>
</mgrwt>
</event>
<event>
12    1  0.1504874E-007  0.1479018E+04  0.7818608E-02  0.8898527E-01
         -1   -1    0    0    0  501 -0.00000000000E+00  0.00000000000E+00  0.53413161628E+03  0.53413161628E+03  0.00000000000E+00 0.  1.
          1   -1    0    0  501    0  0.00000000000E+00 -0.00000000000E+00 -0.10238560190E+04  0.10238560190E+04  0.00000000000E+00 0. -1.
         23    2    1    2    0    0  0.13382765990E+03 -0.27952599602E+03 -0.50741183297E+03  0.60159239832E+03  0.91662535851E+02 0.  0.
        254    2    1    2    0    0 -0.13382765990E+03  0.27952599602E+03  0.17687430226E+02  0.95639523698E+03  0.90461836104E+03 0.  0.
        -24    2    4    4    0    0  0.33001540938E+03 -0.81715387163E+02  0.84044057979E+02  0.35913015229E+03  0.79520360133E+02 0.  0.
         24    2    4    4    0    0 -0.46384306928E+03  0.36124138318E+03 -0.66356627753E+02  0.59726508469E+03  0.81710767341E+02 0.  0.
         11    1    3    3    0    0  0.54941730951E+02 -0.21226223544E+03 -0.35552752044E+03  0.41770045270E+03  0.00000000000E+00 0. -1.
        -11    1    3    3    0    0  0.78885928951E+02 -0.67263760582E+02 -0.15188431252E+03  0.18389194562E+03  0.00000000000E+00 0.  1.
          2    1    6    6  502    0 -0.14293555793E+03  0.13370262898E+03 -0.56651406028E+02  0.20375560980E+03  0.00000000000E+00 0. -1.
          1    1    5    5  503    0  0.98075429941E+02 -0.50058344396E+02  0.55493383669E+02  0.12330508275E+03  0.00000000000E+00 0. -1.
         -2    1    5    5    0  503  0.23193997944E+03 -0.31657042768E+02  0.28550674309E+02  0.23582506954E+03  0.00000000000E+00 0.  1.
         -3    1    6    6    0  502 -0.32090751135E+03  0.22753875420E+03 -0.97052217244E+01  0.39350947490E+03  0.00000000000E+00 0.  1.
<mgrwt>
<rscale>  0 0.14790184E+04</rscale>
<asrwt>0</asrwt>
<pdfrwt beam="1">  1        1 0.15751631E+00 0.14790184E+04</pdfrwt>
<pdfrwt beam="2">  1       -1 0.82174096E-01 0.14790184E+04</pdfrwt>
<totfact> 0.20694485E+01</totfact>
</mgrwt>
</event>
<event>
12    1  0.1504874E-007  0.2862418E+04  0.7818608E-02  0.8284148E-01
          2   -1    0    0  501    0  0.00000000000E+00  0.00000000000E+00  0.37430535573E+04  0.37430535573E+04  0.00000000000E+00 0. -1.
         -2   -1    0    0    0  501 -0.00000000000E+00 -0.00000000000E+00 -0.54724266840E+03  0.54724266840E+03  0.00000000000E+00 0.  1.
         23    2    1    2    0    0 -0.15549067017E+03 -0.12678355067E+04  0.17045718876E+04  0.21320652833E+04  0.92481520794E+02 0.  0.
        254    2    1    2    0    0  0.15549067017E+03  0.12678355067E+04  0.14912390013E+04  0.21582309424E+04  0.89586986859E+03 0.  0.
        -24    2    4    4    0    0 -0.19796261930E+03  0.42738825953E+03  0.92359905474E+02  0.48662276019E+03  0.80133860360E+02 0.  0.
         24    2    4    4    0    0  0.35345328946E+03  0.84044724713E+03  0.13988790958E+04  0.16716081822E+04  0.78296789034E+02 0.  0.
         13    1    3    3    0    0 -0.14412509568E+03 -0.11020930947E+04  0.14301375342E+04  0.18112632606E+04  0.00000000000E+00 0. -1.
        -13    1    3    3    0    0 -0.11365574491E+02 -0.16574241200E+03  0.27443435344E+03  0.32080202270E+03  0.00000000000E+00 0.  1.
          4    1    6    6  502    0  0.28394337530E+03  0.73540902856E+03  0.12297403500E+04  0.14607229745E+04  0.00000000000E+00 0. -1.
          3    1    5    5  503    0 -0.19678706434E+03  0.43026403590E+03  0.87961027918E+02  0.48123739642E+03  0.00000000000E+00 0. -1.
         -4    1    5    5    0  503 -0.11755549595E+01 -0.28757763724E+01  0.43988775566E+01  0.53853637728E+01  0.00000000000E+00 0.  1.
         -3    1    6    6    0  502  0.69509914166E+02  0.10503821857E+03  0.16913874578E+03  0.21088520776E+03  0.00000000000E+00 0.  1.
<mgrwt>
<rscale>  0 0.28624176E+04</rscale>
<asrwt>0</asrwt>
<pdfrwt beam="1">  1        2 0.57585438E+00 0.28624176E+04</pdfrwt>
<pdfrwt beam="2">  1       -2 0.84191182E-01 0.28624176E+04</pdfrwt>
<totfact> 0.57796208E-01</totfact>
</mgrwt>
</event>
<event>
12    1  0.1504874E-007  0.3147713E+04  0.7818608E-02  0.8202764E-01
         -2   -1    0    0    0  501 -0.00000000000E+00  0.00000000000E+00  0.81360308749E+03  0.81360308749E+03  0.00000000000E+00 0. -1.
          2   -1    0    0  501    0  0.00000000000E+00 -0.00000000000E+00 -0.30445122625E+04  0.30445122625E+04  0.00000000000E+00 0.  1.
         23    2    1    2    0    0 -0.70873463407E+03  0.82664778702E+03  0.13293885912E+03  0.11006373816E+04  0.89880811640E+02 0.  0.
        254    2    1    2    0    0  0.70873463407E+03 -0.82664778702E+03 -0.23638480342E+04  0.27574779684E+04  0.91118377523E+03 0.  0.
        -24    2    4    4    0    0  0.57289671188E+03 -0.26469727920E+00 -0.93370135032E+03  0.10981466185E+04  0.76922503634E+02 0.  0.
         24    2    4    4    0    0  0.13583792219E+03 -0.82638308974E+03 -0.14301466838E+04  0.16593313499E+04  0.81853768079E+02 0.  0.
         11    1    3    3    0    0 -0.69315251419E+03  0.79399351255E+03  0.11496478852E+03  0.10602372416E+04  0.00000000000E+00 0. -1.
        -11    1    3    3    0    0 -0.15582119875E+02  0.32654274464E+02  0.17974070595E+02  0.40400140028E+02  0.00000000000E+00 0.  1.
          4    1    6    6  502    0  0.15140412748E+02 -0.33131343993E+03 -0.54479878248E+03  0.63781152465E+03  0.00000000000E+00 0. -1.
          3    1    5    5  503    0  0.25509955953E+03 -0.27834751899E+02 -0.36664886526E+03  0.44752871314E+03  0.00000000000E+00 0. -1.
         -4    1    5    5    0  503  0.31779715234E+03  0.27570054619E+02 -0.56705248506E+03  0.65061790535E+03  0.00000000000E+00 0.  1.
         -3    1    6    6    0  502  0.12069750944E+03 -0.49506964980E+03 -0.88534790136E+03  0.10215198252E+04  0.00000000000E+00 0.  1.
<mgrwt>
<rscale>  0 0.31477132E+04</rscale>
<asrwt>0</asrwt>
<pdfrwt beam="1">  1        2 0.46838650E+00 0.31477132E+04</pdfrwt>
<pdfrwt beam="2">  1       -2 0.12516971E+00 0.31477132E+04</pdfrwt>
<totfact> 0.65913922E-01</totfact>
</mgrwt>
</event>
<event>
12    1  0.1504874E-007  0.1803755E+04  0.7818608E-02  0.8704305E-01
         -1   -1    0    0    0  501 -0.00000000000E+00  0.00000000000E+00  0.16962865653E+04  0.16962865653E+04  0.00000000000E+00 0.  1.
          1   -1    0    0  501    0  0.00000000000E+00 -0.00000000000E+00 -0.47950798340E+03  0.47950798340E+03  0.00000000000E+00 0. -1.
         23    2    1    2    0    0 -0.20724875150E+03 -0.15122743788E+03 -0.29326255392E+03  0.39976306346E+03  0.89363294541E+02 0.  0.
        254    2    1    2    0    0  0.20724875150E+03  0.15122743788E+03  0.15100411358E+04  0.17760314852E+04  0.89902270368E+03 0.  0.
        -24    2    4    4    0    0 -0.21977929058E+03 -0.38948941625E+02  0.11672291869E+04  0.11909020168E+04  0.77483432424E+02 0.  0.
         24    2    4    4    0    0  0.42702804208E+03  0.19017637950E+03  0.34281194891E+03  0.58512946841E+03  0.79601874639E+02 0.  0.
         11    1    3    3    0    0 -0.89329297865E+02 -0.67042393084E+02 -0.19492697824E+03  0.22465736751E+03  0.00000000000E+00 0. -1.
        -11    1    3    3    0    0 -0.11791945363E+03 -0.84185044796E+02 -0.98335575677E+02  0.17510569596E+03  0.00000000000E+00 0.  1.
          4    1    6    6  502    0  0.49987495837E+01  0.11077193321E+02  0.23415753695E+02  0.26381607805E+02  0.00000000000E+00 0. -1.
          3    1    5    5  503    0 -0.11925131211E+02  0.86703534336E+01  0.19529470641E+03  0.19585046881E+03  0.00000000000E+00 0. -1.
         -4    1    5    5    0  503 -0.20785415937E+03 -0.47619295059E+02  0.97193448046E+03  0.99505154798E+03  0.00000000000E+00 0.  1.
         -1    1    6    6    0  502  0.42202929249E+03  0.17909918618E+03  0.31939619522E+03  0.55874786061E+03  0.00000000000E+00 0.  1.
<mgrwt>
<rscale>  0 0.18037549E+04</rscale>
<asrwt>0</asrwt>
<pdfrwt beam="1">  1        1 0.73770460E-01 0.18037549E+04</pdfrwt>
<pdfrwt beam="2">  1       -1 0.26096716E+00 0.18037549E+04</pdfrwt>
<totfact> 0.26200790E+00</totfact>
</mgrwt>
</event>
<event>
12    1  0.1858911E-007  0.2379402E+04  0.7818608E-02  0.8447256E-01
         -1   -1    0    0    0  501 -0.00000000000E+00  0.00000000000E+00  0.51003886409E+03  0.51003886409E+03  0.00000000000E+00 0.  1.
          1   -1    0    0  501    0  0.00000000000E+00 -0.00000000000E+00 -0.27750598136E+04  0.27750598136E+04  0.00000000000E+00 0. -1.
         23    2    1    2    0    0  0.37550928693E+03  0.51642302810E+02 -0.22951343799E+04  0.23280594137E+04  0.92437330607E+02 0.  0.
        254    2    1    2    0    0 -0.37550928693E+03 -0.51642302810E+02  0.30113430400E+02  0.95703926393E+03  0.87826145424E+03 0.  0.
        -24    2    4    4    0    0 -0.51933394740E+03  0.20268331854E+03  0.21439497041E+03  0.60273874915E+03  0.80873480520E+02 0.  0.
         24    2    4    4    0    0  0.14382466048E+03 -0.25432562135E+03 -0.18428154001E+03  0.35430051478E+03  0.78753502478E+02 0.  0.
         13    1    3    3    0    0  0.37079575686E+03  0.48392111938E+02 -0.21128767273E+04  0.21457118526E+04  0.00000000000E+00 0. -1.
        -13    1    3    3    0    0  0.47135300622E+01  0.32501908715E+01 -0.18225765258E+03  0.18234756107E+03  0.00000000000E+00 0.  1.
          2    1    6    6  502    0 -0.22024427651E+01 -0.30878889825E+02 -0.19068840299E+01  0.31016008732E+02  0.00000000000E+00 0. -1.
          1    1    5    5  503    0 -0.16802537033E+02  0.76418214570E+01 -0.73365581790E+01  0.19863226622E+02  0.00000000000E+00 0. -1.
         -2    1    5    5    0  503 -0.50253141037E+03  0.19504149708E+03  0.22173152859E+03  0.58287552253E+03  0.00000000000E+00 0.  1.
         -1    1    6    6    0  502  0.14602710324E+03 -0.22344673152E+03 -0.18237465598E+03  0.32328450605E+03  0.00000000000E+00 0.  1.
<mgrwt>
<rscale>  0 0.23794019E+04</rscale>
<asrwt>0</asrwt>
<pdfrwt beam="1">  1        1 0.42693228E+00 0.23794019E+04</pdfrwt>
<pdfrwt beam="2">  1       -1 0.78467518E-01 0.23794019E+04</pdfrwt>
<totfact> 0.12668538E+00</totfact>
</mgrwt>
</event>
<event>
12    1  0.1504874E-007  0.1663620E+04  0.7818608E-02  0.8782390E-01
          1   -1    0    0  501    0  0.00000000000E+00  0.00000000000E+00  0.12221137996E+04  0.12221137996E+04  0.00000000000E+00 0. -1.
         -1   -1    0    0    0  501 -0.00000000000E+00 -0.00000000000E+00 -0.56615664892E+03  0.56615664892E+03  0.00000000000E+00 0.  1.
         23    2    1    2    0    0 -0.57903798191E+03 -0.30235120890E+02  0.16764955170E+03  0.61048279938E+03  0.91562705922E+02 0.  0.
        254    2    1    2    0    0  0.57903798191E+03  0.30235120890E+02  0.48830759894E+03  0.11777876491E+04  0.90141016643E+03 0.  0.
        -24    2    4    4    0    0  0.65685480529E+03  0.24914938056E+03  0.58086805109E+03  0.91535605445E+03  0.83278836345E+02 0.  0.
         24    2    4    4    0    0 -0.77816823377E+02 -0.21891425967E+03 -0.92560452147E+02  0.26243159464E+03  0.79523540411E+02 0.  0.
         11    1    3    3    0    0 -0.11035514780E+02  0.13025444511E+02  0.17049747421E+01  0.17156681790E+02  0.00000000000E+00 0.  1.
        -11    1    3    3    0    0 -0.56800246713E+03 -0.43260565401E+02  0.16594457696E+03  0.59332611759E+03  0.00000000000E+00 0. -1.
          2    1    6    6  502    0  0.12789098709E+02 -0.22704445984E+02  0.27997654967E+01  0.26208616905E+02  0.00000000000E+00 0. -1.
          3    1    5    5  503    0  0.24119522999E+03  0.11622395253E+03  0.26442705033E+03  0.37630414701E+03  0.00000000000E+00 0. -1.
         -4    1    5    5    0  503  0.41565957530E+03  0.13292542803E+03  0.31644100076E+03  0.53905190745E+03  0.00000000000E+00 0.  1.
         -1    1    6    6    0  502 -0.90605922086E+02 -0.19620981368E+03 -0.95360217643E+02  0.23622297774E+03  0.00000000000E+00 0.  1.
<mgrwt>
<rscale>  0 0.16636200E+04</rscale>
<asrwt>0</asrwt>
<pdfrwt beam="1">  1        1 0.18801751E+00 0.16636200E+04</pdfrwt>
<pdfrwt beam="2">  1       -1 0.87101023E-01 0.16636200E+04</pdfrwt>
<totfact> 0.12758124E+01</totfact>
</mgrwt>
</event>
<event>
12    1  0.1504874E-007  0.3116493E+04  0.7818608E-02  0.8211226E-01
          1   -1    0    0  501    0  0.00000000000E+00  0.00000000000E+00  0.18154947353E+04  0.18154947353E+04  0.00000000000E+00 0. -1.
         -1   -1    0    0    0  501 -0.00000000000E+00 -0.00000000000E+00 -0.13374488936E+04  0.13374488936E+04  0.00000000000E+00 0.  1.
         23    2    1    2    0    0  0.11810839512E+04  0.78372513615E+03  0.38959100679E+03  0.14727658806E+04  0.89854313470E+02 0.  0.
        254    2    1    2    0    0 -0.11810839512E+04 -0.78372513615E+03  0.88454834908E+02  0.16801777483E+04  0.89776868912E+03 0.  0.
        -24    2    4    4    0    0 -0.64399528118E+03 -0.78864640726E+02 -0.28745041199E+03  0.71422441723E+03  0.80865475182E+02 0.  0.
         24    2    4    4    0    0 -0.53708867007E+03 -0.70486049543E+03  0.37590524690E+03  0.96595333108E+03  0.80427144973E+02 0.  0.
         13    1    3    3    0    0  0.74444205588E+03  0.48222732403E+03  0.19964099729E+03  0.90917198285E+03  0.00000000000E+00 0. -1.
        -13    1    3    3    0    0  0.43664189537E+03  0.30149781212E+03  0.18995000950E+03  0.56359389778E+03  0.00000000000E+00 0.  1.
          2    1    6    6  502    0 -0.48823103547E+03 -0.65498658551E+03  0.32348153394E+03  0.87864513542E+03  0.00000000000E+00 0. -1.
          3    1    5    5  503    0 -0.60159693736E+03 -0.73216192791E+02 -0.28901422501E+03  0.67142289817E+03  0.00000000000E+00 0. -1.
         -4    1    5    5    0  503 -0.42398343821E+02 -0.56484479349E+01  0.15638130213E+01  0.42801519062E+02  0.00000000000E+00 0.  1.
         -1    1    6    6    0  502 -0.48857634599E+02 -0.49873909915E+02  0.52423712965E+02  0.87308195663E+02  0.00000000000E+00 0.  1.
<mgrwt>
<rscale>  0 0.31164925E+04</rscale>
<asrwt>0</asrwt>
<pdfrwt beam="1">  1        1 0.27930688E+00 0.31164925E+04</pdfrwt>
<pdfrwt beam="2">  1       -1 0.20576137E+00 0.31164925E+04</pdfrwt>
<totfact> 0.46039280E-01</totfact>
</mgrwt>
</event>
<event>
12    1  0.1504874E-007  0.2652389E+04  0.7818608E-02  0.8350620E-01
          1   -1    0    0  501    0  0.00000000000E+00  0.00000000000E+00  0.10088011026E+04  0.10088011026E+04  0.00000000000E+00 0. -1.
         -1   -1    0    0    0  501 -0.00000000000E+00 -0.00000000000E+00 -0.17434479974E+04  0.17434479974E+04  0.00000000000E+00 0.  1.
         23    2    1    2    0    0  0.73438346999E+03  0.14334778178E+03 -0.12461458619E+04  0.14563893251E+04  0.91228776171E+02 0.  0.
        254    2    1    2    0    0 -0.73438346999E+03 -0.14334778178E+03  0.51149896716E+03  0.12958597749E+04  0.92614993126E+03 0.  0.
        -24    2    4    4    0    0 -0.27514195331E+02 -0.41212534212E+03  0.10544252838E+03  0.43371715625E+03  0.79925692215E+02 0.  0.
         24    2    4    4    0    0 -0.70686927466E+03  0.26877756034E+03  0.40605643878E+03  0.86214261861E+03  0.80638173085E+02 0.  0.
         13    1    3    3    0    0  0.71609378862E+03  0.14297372075E+03 -0.12356687482E+04  0.14353079998E+04  0.00000000000E+00 0.  1.
        -13    1    3    3    0    0  0.18289681371E+02  0.37406103434E+00 -0.10477113704E+02  0.21081325335E+02  0.00000000000E+00 0. -1.
          2    1    6    6  502    0 -0.63360988939E+03  0.21346029538E+03  0.36222561927E+03  0.76041711508E+03  0.00000000000E+00 0. -1.
          3    1    5    5  503    0 -0.52411527211E+02 -0.34167800926E+03  0.93046853780E+02  0.35797841722E+03  0.00000000000E+00 0. -1.
         -4    1    5    5    0  503  0.24897331880E+02 -0.70447332857E+02  0.12395674598E+02  0.75738739032E+02  0.00000000000E+00 0.  1.
         -1    1    6    6    0  502 -0.73259385265E+02  0.55317264954E+02  0.43830819505E+02  0.10172550354E+03  0.00000000000E+00 0.  1.
<mgrwt>
<rscale>  0 0.26523893E+04</rscale>
<asrwt>0</asrwt>
<pdfrwt beam="1">  1        1 0.15520017E+00 0.26523893E+04</pdfrwt>
<pdfrwt beam="2">  1       -1 0.26822276E+00 0.26523893E+04</pdfrwt>
<totfact> 0.69279573E-01</totfact>
</mgrwt>
</event>
<event>
12    1  0.2666568E-007  0.1603054E+04  0.7818608E-02  0.8818674E-01
          2   -1    0    0  501    0  0.00000000000E+00  0.00000000000E+00  0.15338452427E+04  0.15338452427E+04  0.00000000000E+00 0. -1.
         -2   -1    0    0    0  501 -0.00000000000E+00 -0.00000000000E+00 -0.41884644100E+03  0.41884644100E+03  0.00000000000E+00 0.  1.
         23    2    1    2    0    0  0.26318884892E+03  0.40269044919E+02  0.84844647957E+03  0.89373969831E+03  0.89550284531E+02 0.  0.
        254    2    1    2    0    0 -0.26318884892E+03 -0.40269044919E+02  0.26655232208E+03  0.10589519853E+04  0.98966620670E+03 0.  0.
        -24    2    4    4    0    0  0.24565010767E+03 -0.32146412612E+03 -0.42827489548E+01  0.41257513648E+03  0.80726337242E+02 0.  0.
         24    2    4    4    0    0 -0.50883895659E+03  0.28119508120E+03  0.27083507103E+03  0.64637684887E+03  0.80396751322E+02 0.  0.
         11    1    3    3    0    0  0.61752652800E+02  0.12929867677E+02  0.34640445472E+03  0.35210313525E+03  0.00000000000E+00 0. -1.
        -11    1    3    3    0    0  0.20143619612E+03  0.27339177243E+02  0.50204202485E+03  0.54163656306E+03  0.00000000000E+00 0.  1.
          4    1    6    6  502    0 -0.54788392328E+02  0.26891815104E+02  0.30537467072E+01  0.61108616597E+02  0.00000000000E+00 0. -1.
          3    1    5    5  503    0  0.91339272664E+01  0.33466085266E+01 -0.46375917009E+01  0.10776626222E+02  0.00000000000E+00 0. -1.
         -4    1    5    5    0  503  0.23651618040E+03 -0.32481073464E+03  0.35484274607E+00  0.40179851025E+03  0.00000000000E+00 0.  1.
         -1    1    6    6    0  502 -0.45405056426E+03  0.25430326609E+03  0.26778132432E+03  0.58526823227E+03  0.00000000000E+00 0.  1.
<mgrwt>
<rscale>  0 0.16030541E+04</rscale>
<asrwt>0</asrwt>
<pdfrwt beam="1">  1        2 0.23597619E+00 0.16030541E+04</pdfrwt>
<pdfrwt beam="2">  1       -2 0.64437915E-01 0.16030541E+04</pdfrwt>
<totfact> 0.25901913E+01</totfact>
</mgrwt>
</event>
<event>
12    1  0.1504874E-007  0.3572016E+04  0.7818608E-02  0.8096932E-01
         -1   -1    0    0    0  501 -0.00000000000E+00  0.00000000000E+00  0.10943485094E+04  0.10943485094E+04  0.00000000000E+00 0.  1.
          1   -1    0    0  501    0  0.00000000000E+00 -0.00000000000E+00 -0.29148164872E+04  0.29148164872E+04  0.00000000000E+00 0. -1.
         23    2    1    2    0    0  0.27441658780E+03  0.15976032421E+04 -0.38967850056E+03  0.16696485950E+04  0.90755241915E+02 0.  0.
        254    2    1    2    0    0 -0.27441658780E+03 -0.15976032421E+04 -0.14307894772E+04  0.23395164016E+04  0.89360946849E+03 0.  0.
        -24    2    4    4    0    0  0.28067894883E+03 -0.82078683141E+03 -0.50505149949E+03  0.10072040800E+04  0.83134509705E+02 0.  0.
         24    2    4    4    0    0 -0.55509553663E+03 -0.77681641072E+03 -0.92573797773E+03  0.13323123216E+04  0.80563813530E+02 0.  0.
         13    1    3    3    0    0  0.20896658065E+01  0.17700498950E+03 -0.38176657038E+02  0.18108724459E+03  0.00000000000E+00 0. -1.
        -13    1    3    3    0    0  0.27232692199E+03  0.14205982526E+04 -0.35150184352E+03  0.14885613504E+04  0.00000000000E+00 0.  1.
          2    1    6    6  502    0 -0.54288194210E+03 -0.72980971022E+03 -0.87982316494E+03  0.12654769132E+04  0.00000000000E+00 0. -1.
          1    1    5    5  503    0  0.25531562600E+03 -0.78157534820E+03 -0.45920681889E+03  0.94176270700E+03  0.00000000000E+00 0. -1.
         -2    1    5    5    0  503  0.25363322825E+02 -0.39211483217E+02 -0.45844680600E+02  0.65441373000E+02  0.00000000000E+00 0.  1.
         -1    1    6    6    0  502 -0.12213594525E+02 -0.47006700496E+02 -0.45914812795E+02  0.66835408406E+02  0.00000000000E+00 0.  1.
<mgrwt>
<rscale>  0 0.35720163E+04</rscale>
<asrwt>0</asrwt>
<pdfrwt beam="1">  1        1 0.44843331E+00 0.35720163E+04</pdfrwt>
<pdfrwt beam="2">  1       -1 0.16836131E+00 0.35720163E+04</pdfrwt>
<totfact> 0.14134038E-01</totfact>
</mgrwt>
</event>
<event>
12    1  0.1504874E-007  0.1643460E+04  0.7818608E-02  0.8794285E-01
         -1   -1    0    0    0  501 -0.00000000000E+00  0.00000000000E+00  0.56335925605E+03  0.56335925605E+03  0.00000000000E+00 0.  1.
          1   -1    0    0  501    0  0.00000000000E+00 -0.00000000000E+00 -0.11985962703E+04  0.11985962703E+04  0.00000000000E+00 0. -1.
         23    2    1    2    0    0 -0.36322117590E+03  0.25397343460E+03  0.19264688157E+03  0.49196465505E+03  0.92110111995E+02 0.  0.
        254    2    1    2    0    0  0.36322117590E+03 -0.25397343460E+03 -0.82788389583E+03  0.12699908713E+04  0.85501633910E+03 0.  0.
        -24    2    4    4    0    0 -0.34425714485E+02 -0.42994788144E+02 -0.80671808368E+03  0.81202292260E+03  0.74521665657E+02 0.  0.
         24    2    4    4    0    0  0.39764689039E+03 -0.21097864645E+03 -0.21165812148E+02  0.45796794871E+03  0.81557413834E+02 0.  0.
         13    1    3    3    0    0 -0.11389575038E+03  0.91044473530E+02  0.18587440228E+02  0.14699262243E+03  0.00000000000E+00 0. -1.
        -13    1    3    3    0    0 -0.24932542552E+03  0.16292896107E+03  0.17405944135E+03  0.34497203262E+03  0.00000000000E+00 0.  1.
          2    1    6    6  502    0  0.11304557568E+02  0.33193499102E+01  0.94623843135E+01  0.15111182036E+02  0.00000000000E+00 0. -1.
          3    1    5    5  503    0  0.80867725761E+01 -0.19737166202E+02 -0.56983838269E+03  0.57023743652E+03  0.00000000000E+00 0. -1.
         -4    1    5    5    0  503 -0.42512487061E+02 -0.23257621942E+02 -0.23687970100E+03  0.24178548608E+03  0.00000000000E+00 0.  1.
         -1    1    6    6    0  502  0.38634233282E+03 -0.21429799636E+03 -0.30628196462E+02  0.44285676668E+03  0.00000000000E+00 0.  1.
<mgrwt>
<rscale>  0 0.16434601E+04</rscale>
<asrwt>0</asrwt>
<pdfrwt beam="1">  1        1 0.18439942E+00 0.16434601E+04</pdfrwt>
<pdfrwt beam="2">  1       -1 0.86670657E-01 0.16434601E+04</pdfrwt>
<totfact> 0.13439987E+01</totfact>
</mgrwt>
</event>
<event>
12    1  0.1796423E-007  0.1680595E+04  0.7818608E-02  0.8772510E-01
          1   -1    0    0  501    0  0.00000000000E+00  0.00000000000E+00  0.95932451783E+03  0.95932451783E+03  0.00000000000E+00 0. -1.
         -1   -1    0    0    0  501 -0.00000000000E+00 -0.00000000000E+00 -0.73603817667E+03  0.73603817667E+03  0.00000000000E+00 0.  1.
         23    2    1    2    0    0  0.48698411616E+03  0.70747333052E+02 -0.25606560792E+03  0.56030399031E+03  0.78817837244E+02 0.  0.
        254    2    1    2    0    0 -0.48698411616E+03 -0.70747333052E+02  0.47935194908E+03  0.11350587042E+04  0.90356032249E+03 0.  0.
        -24    2    4    4    0    0 -0.56204710635E+03  0.29711438716E+03  0.35028584272E+03  0.73031915198E+03  0.80572844846E+02 0.  0.
         24    2    4    4    0    0  0.75062990189E+02 -0.36786172021E+03  0.12906610636E+03  0.40473955222E+03  0.78735936093E+02 0.  0.
         11    1    3    3    0    0  0.13987945990E+03  0.14766797006E+02 -0.11416996868E+03  0.18116043537E+03  0.00000000000E+00 0. -1.
        -11    1    3    3    0    0  0.34710465626E+03  0.55980536045E+02 -0.14189563924E+03  0.37914355494E+03  0.00000000000E+00 0.  1.
          2    1    6    6  502    0 -0.53635526474E+01 -0.33223725510E+01  0.11916031217E+02  0.13483236122E+02  0.00000000000E+00 0. -1.
          1    1    5    5  503    0 -0.10334214347E+02 -0.34287809693E+01 -0.23376854314E+00  0.10890692027E+02  0.00000000000E+00 0. -1.
         -2    1    5    5    0  503 -0.55171289200E+03  0.30054316813E+03  0.35051961126E+03  0.71942845995E+03  0.00000000000E+00 0.  1.
         -1    1    6    6    0  502  0.80426542836E+02 -0.36453934766E+03  0.11715007514E+03  0.39125631610E+03  0.00000000000E+00 0.  1.
<mgrwt>
<rscale>  0 0.16805945E+04</rscale>
<asrwt>0</asrwt>
<pdfrwt beam="1">  1        1 0.14758839E+00 0.16805945E+04</pdfrwt>
<pdfrwt beam="2">  1       -1 0.11323664E+00 0.16805945E+04</pdfrwt>
<totfact> 0.11064226E+01</totfact>
</mgrwt>
</event>
<event>
12    1  0.1504874E-007  0.1167884E+04  0.7818608E-02  0.9141442E-01
          3   -1    0    0  501    0  0.00000000000E+00  0.00000000000E+00  0.54494281663E+03  0.54494281663E+03  0.00000000000E+00 0. -1.
         -3   -1    0    0    0  501 -0.00000000000E+00 -0.00000000000E+00 -0.62573192053E+03  0.62573192053E+03  0.00000000000E+00 0.  1.
         23    2    1    2    0    0  0.17903392069E+03  0.12031461204E+03 -0.28244133310E+02  0.23631025638E+03  0.92282477086E+02 0.  0.
        254    2    1    2    0    0 -0.17903392069E+03 -0.12031461204E+03 -0.52544970584E+02  0.93436448078E+03  0.90760523268E+03 0.  0.
        -24    2    4    4    0    0  0.32823447816E+03 -0.49128804832E+02  0.15623716813E+03  0.37549366935E+03  0.80211787787E+02 0.  0.
         24    2    4    4    0    0 -0.50726839885E+03 -0.71185807208E+02 -0.20878213871E+03  0.55887081143E+03  0.79736784487E+02 0.  0.
         11    1    3    3    0    0  0.12034913649E+03  0.11427330417E+03  0.95737116751E+01  0.16623464938E+03  0.00000000000E+00 0. -1.
        -11    1    3    3    0    0  0.58684784202E+02  0.60413078728E+01 -0.37817844985E+02  0.70075607004E+02  0.00000000000E+00 0.  1.
          4    1    6    6  502    0 -0.38771237733E+03 -0.84574190812E+02 -0.17650413243E+03  0.43431254881E+03  0.00000000000E+00 0. -1.
          1    1    5    5  503    0  0.28876368922E+03 -0.35325359894E+02  0.10482959811E+03  0.30922741454E+03  0.00000000000E+00 0. -1.
         -2    1    5    5    0  503  0.39470788947E+02 -0.13803444938E+02  0.51407570016E+02  0.66266254815E+02  0.00000000000E+00 0.  1.
         -3    1    6    6    0  502 -0.11955602152E+03  0.13388383604E+02 -0.32278006280E+02  0.12455826262E+03  0.00000000000E+00 0.  1.
<mgrwt>
<rscale>  0 0.11678838E+04</rscale>
<asrwt>0</asrwt>
<pdfrwt beam="1">  1        3 0.83837357E-01 0.11678838E+04</pdfrwt>
<pdfrwt beam="2">  1       -3 0.96266449E-01 0.11678838E+04</pdfrwt>
<totfact> 0.32422888E+00</totfact>
</mgrwt>
</event>
<event>
12    1  0.1504874E-007  0.1574244E+04  0.7818608E-02  0.8836529E-01
         -1   -1    0    0    0  501 -0.00000000000E+00  0.00000000000E+00  0.45075995693E+03  0.45075995693E+03  0.00000000000E+00 0.  1.
          1   -1    0    0  501    0  0.00000000000E+00 -0.00000000000E+00 -0.13744816436E+04  0.13744816436E+04  0.00000000000E+00 0. -1.
         23    2    1    2    0    0 -0.41701936363E+03  0.29210499585E+03 -0.17438422035E+03  0.54608239142E+03  0.92550762632E+02 0.  0.
        254    2    1    2    0    0  0.41701936363E+03 -0.29210499585E+03 -0.74933746631E+03  0.12791592091E+04  0.90305656831E+03 0.  0.
        -24    2    4    4    0    0  0.59739134261E+03 -0.30681918673E+03 -0.21511502421E+03  0.70953500630E+03  0.78428451176E+02 0.  0.
         24    2    4    4    0    0 -0.18037197898E+03  0.14714190878E+02 -0.53422244210E+03  0.56962420280E+03  0.79545939913E+02 0.  0.
         11    1    3    3    0    0 -0.25479757095E+02  0.11479699686E+02  0.10846581283E+02  0.29977489088E+02  0.00000000000E+00 0.  1.
        -11    1    3    3    0    0 -0.39153960654E+03  0.28062529617E+03 -0.18523080163E+03  0.51610490233E+03  0.00000000000E+00 0. -1.
          4    1    6    6  502    0 -0.16507511963E+03  0.84980632656E+01 -0.52563705974E+03  0.55101391159E+03  0.00000000000E+00 0. -1.
          3    1    5    5  503    0  0.54147167597E+03 -0.28302783836E+03 -0.21797269853E+03  0.64869748763E+03  0.00000000000E+00 0. -1.
         -4    1    5    5    0  503  0.55919666645E+02 -0.23791348371E+02  0.28576743191E+01  0.60837518667E+02  0.00000000000E+00 0.  1.
         -3    1    6    6    0  502 -0.15296859349E+02  0.62161276127E+01 -0.85853823629E+01  0.18610291205E+02  0.00000000000E+00 0.  1.
<mgrwt>
<rscale>  0 0.15742443E+04</rscale>
<asrwt>0</asrwt>
<pdfrwt beam="1">  1        1 0.21145871E+00 0.15742443E+04</pdfrwt>
<pdfrwt beam="2">  1       -1 0.69347687E-01 0.15742443E+04</pdfrwt>
<totfact> 0.16194624E+01</totfact>
</mgrwt>
</event>
<event>
12    1  0.1504874E-007  0.5561225E+04  0.7818608E-02  0.7747320E-01
         -1   -1    0    0    0  501 -0.00000000000E+00  0.00000000000E+00  0.32089143731E+04  0.32089143731E+04  0.00000000000E+00 0.  1.
          1   -1    0    0  501    0  0.00000000000E+00 -0.00000000000E+00 -0.24094774378E+04  0.24094774378E+04  0.00000000000E+00 0. -1.
         23    2    1    2    0    0  0.11162930972E+03 -0.17453966398E+04 -0.16956798521E+04  0.24377195038E+04  0.90970793869E+02 0.  0.
        254    2    1    2    0    0 -0.11162930972E+03  0.17453966398E+04  0.24951167874E+04  0.31806723070E+04  0.91224887437E+03 0.  0.
        -24    2    4    4    0    0  0.23606326737E+03  0.91783887699E+02  0.21446668234E+03  0.34117076632E+03  0.79065705069E+02 0.  0.
         24    2    4    4    0    0 -0.34769257709E+03  0.16536127521E+04  0.22806501050E+04  0.28395015407E+04  0.77966888829E+02 0.  0.
         13    1    3    3    0    0  0.75265531573E+02 -0.14638062799E+04 -0.14585643008E+04  0.20678016212E+04  0.00000000000E+00 0. -1.
        -13    1    3    3    0    0  0.36363778144E+02 -0.28159035994E+03 -0.23711555135E+03  0.36991788260E+03  0.00000000000E+00 0.  1.
          2    1    6    6  502    0 -0.32046681878E+03  0.15928823584E+04  0.21818283647E+04  0.27203581019E+04  0.00000000000E+00 0. -1.
          1    1    5    5  503    0  0.22529778662E+03  0.82672628953E+02  0.16888037693E+03  0.29345261619E+03  0.00000000000E+00 0. -1.
         -2    1    5    5    0  503  0.10765480748E+02  0.91112587462E+01  0.45586305409E+02  0.47718150137E+02  0.00000000000E+00 0.  1.
         -1    1    6    6    0  502 -0.27225758303E+02  0.60730393751E+02  0.98821740388E+02  0.11914343882E+03  0.00000000000E+00 0.  1.
<mgrwt>
<rscale>  0 0.55612253E+04</rscale>
<asrwt>0</asrwt>
<pdfrwt beam="1">  1        1 0.37068884E+00 0.55612253E+04</pdfrwt>
<pdfrwt beam="2">  1       -1 0.49367914E+00 0.55612253E+04</pdfrwt>
<totfact> 0.17850262E-03</totfact>
</mgrwt>
</event>
<event>
12    1  0.1504874E-007  0.1615796E+04  0.7818608E-02  0.8810902E-01
         -2   -1    0    0    0  501 -0.00000000000E+00  0.00000000000E+00  0.26613561528E+03  0.26613561528E+03  0.00000000000E+00 0.  1.
          2   -1    0    0  501    0  0.00000000000E+00 -0.00000000000E+00 -0.24525073356E+04  0.24525073356E+04  0.00000000000E+00 0. -1.
         23    2    1    2    0    0 -0.42283256489E+03  0.31380480536E+03 -0.49149002021E+03  0.72604577475E+03  0.91209611695E+02 0.  0.
        254    2    1    2    0    0  0.42283256489E+03 -0.31380480536E+03 -0.16948817001E+04  0.19925971762E+04  0.90584694910E+03 0.  0.
        -24    2    4    4    0    0 -0.19950901516E+03  0.22484625767E+02 -0.90057540304E+03  0.92598954335E+03  0.78173987490E+02 0.  0.
         24    2    4    4    0    0  0.62234158005E+03 -0.33628943113E+03 -0.79430629710E+03  0.10666076328E+04  0.79559568886E+02 0.  0.
         11    1    3    3    0    0 -0.31461239426E+02  0.19180666989E+02 -0.72934638268E+02  0.81713946372E+02  0.00000000000E+00 0. -1.
        -11    1    3    3    0    0 -0.39137132547E+03  0.29462413837E+03 -0.41855538194E+03  0.64433182838E+03  0.00000000000E+00 0.  1.
          2    1    6    6  502    0  0.54614905084E+03 -0.26709026715E+03 -0.65900267835E+03  0.89660500033E+03  0.00000000000E+00 0. -1.
          3    1    5    5  503    0 -0.13193535325E+03  0.30080854005E+02 -0.72857644903E+03  0.74103673140E+03  0.00000000000E+00 0. -1.
         -4    1    5    5    0  503 -0.67573661910E+02 -0.75962282377E+01 -0.17199895401E+03  0.18495281195E+03  0.00000000000E+00 0.  1.
         -1    1    6    6    0  502  0.76192529209E+02 -0.69199163984E+02 -0.13530361875E+03  0.17000263248E+03  0.00000000000E+00 0.  1.
<mgrwt>
<rscale>  0 0.16157965E+04</rscale>
<asrwt>0</asrwt>
<pdfrwt beam="1">  1        2 0.37730882E+00 0.16157965E+04</pdfrwt>
<pdfrwt beam="2">  1       -2 0.40943941E-01 0.16157965E+04</pdfrwt>
<totfact> 0.20102028E+01</totfact>
</mgrwt>
</event>
<event>
12    1  0.1504874E-007  0.1850790E+04  0.7818608E-02  0.8679747E-01
          2   -1    0    0  501    0  0.00000000000E+00  0.00000000000E+00  0.19018752158E+04  0.19018752158E+04  0.00000000000E+00 0.  1.
         -2   -1    0    0    0  501 -0.00000000000E+00 -0.00000000000E+00 -0.45026920011E+03  0.45026920011E+03  0.00000000000E+00 0. -1.
         23    2    1    2    0    0  0.38929937287E+03  0.16909793014E+03  0.12582795933E+04  0.13311679447E+04  0.92695472507E+02 0.  0.
        254    2    1    2    0    0 -0.38929937287E+03 -0.16909793014E+03  0.19332642239E+03  0.10209764711E+04  0.90822339615E+03 0.  0.
        -24    2    4    4    0    0 -0.60238617038E+03  0.60264770656E+02 -0.55700511537E+02  0.61321543661E+03  0.80185309575E+02 0.  0.
         24    2    4    4    0    0  0.21308679751E+03 -0.22936270080E+03  0.24902693393E+03  0.40776103451E+03  0.79002630702E+02 0.  0.
         11    1    3    3    0    0  0.27145316835E+03  0.12808500786E+03  0.75083929051E+03  0.80861129848E+03  0.00000000000E+00 0.  1.
        -11    1    3    3    0    0  0.11784620451E+03  0.41012922285E+02  0.50744030274E+03  0.52255664626E+03  0.00000000000E+00 0. -1.
          2    1    6    6  502    0  0.10622499341E+03 -0.13303099740E+03  0.87355044848E+02  0.19134236163E+03  0.00000000000E+00 0. -1.
          1    1    5    5  503    0 -0.39021042656E+02  0.22715707839E+02  0.46210482900E+01  0.45387214498E+02  0.00000000000E+00 0. -1.
         -2    1    5    5    0  503 -0.56336512772E+03  0.37549062816E+02 -0.60321559827E+02  0.56782822211E+03  0.00000000000E+00 0.  1.
         -1    1    6    6    0  502  0.10686180410E+03 -0.96331703401E+02  0.16167188908E+03  0.21641867289E+03  0.00000000000E+00 0.  1.
<mgrwt>
<rscale>  0 0.18507899E+04</rscale>
<asrwt>0</asrwt>
<pdfrwt beam="1">  1        2 0.29259618E+00 0.18507899E+04</pdfrwt>
<pdfrwt beam="2">  1       -2 0.69272186E-01 0.18507899E+04</pdfrwt>
<totfact> 0.13544840E+01</totfact>
</mgrwt>
</event>
<event>
12    1  0.1504874E-007  0.1247088E+04  0.7818608E-02  0.9072610E-01
         -1   -1    0    0    0  501 -0.00000000000E+00  0.00000000000E+00  0.12158832955E+04  0.12158832955E+04  0.00000000000E+00 0.  1.
          1   -1    0    0  501    0  0.00000000000E+00 -0.00000000000E+00 -0.31977360766E+03  0.31977360766E+03  0.00000000000E+00 0. -1.
         23    2    1    2    0    0  0.18601371480E+03 -0.17091739973E+03  0.40678912525E+02  0.27156379819E+03  0.90984959954E+02 0.  0.
        254    2    1    2    0    0 -0.18601371480E+03  0.17091739973E+03  0.85543077536E+03  0.12640931050E+04  0.89574310330E+03 0.  0.
        -24    2    4    4    0    0 -0.15818293973E+03 -0.13794299690E+03  0.91188629165E+03  0.93909775870E+03  0.79485084637E+02 0.  0.
         24    2    4    4    0    0 -0.27830775068E+02  0.30886039663E+03 -0.56455516292E+02  0.32499534632E+03  0.79154615573E+02 0.  0.
         13    1    3    3    0    0  0.16468428525E+03 -0.17400158147E+03  0.17961152815E+02  0.24025000972E+03  0.00000000000E+00 0. -1.
        -13    1    3    3    0    0  0.21329429542E+02  0.30841817341E+01  0.22717759711E+02  0.31313788462E+02  0.00000000000E+00 0.  1.
          4    1    6    6  502    0 -0.51563803045E+02  0.26396512171E+03 -0.42154615612E+02  0.27223780575E+03  0.00000000000E+00 0. -1.
          3    1    5    5  503    0 -0.13178843523E+03 -0.11422769405E+03  0.85047053573E+03  0.86816835343E+03  0.00000000000E+00 0. -1.
         -4    1    5    5    0  503 -0.26394504499E+02 -0.23715302847E+02  0.61415755918E+02  0.70929405270E+02  0.00000000000E+00 0.  1.
         -3    1    6    6    0  502  0.23733027977E+02  0.44895274920E+02 -0.14300900680E+02  0.52757540573E+02  0.00000000000E+00 0.  1.
<mgrwt>
<rscale>  0 0.12470884E+04</rscale>
<asrwt>0</asrwt>
<pdfrwt beam="1">  1        1 0.49195940E-01 0.12470884E+04</pdfrwt>
<pdfrwt beam="2">  1       -1 0.18705897E+00 0.12470884E+04</pdfrwt>
<totfact> 0.14743425E+01</totfact>
</mgrwt>
</event>
<event>
12    1  0.1504874E-007  0.2136529E+04  0.7818608E-02  0.8545320E-01
          4   -1    0    0  501    0  0.00000000000E+00  0.00000000000E+00  0.16246558859E+04  0.16246558859E+04  0.00000000000E+00 0. -1.
         -4   -1    0    0    0  501 -0.00000000000E+00 -0.00000000000E+00 -0.70241909873E+03  0.70241909873E+03  0.00000000000E+00 0.  1.
         23    2    1    2    0    0 -0.94349593806E+02  0.86753657425E+03  0.49427081461E+03  0.10071555860E+04  0.92396876462E+02 0.  0.
        254    2    1    2    0    0  0.94349593806E+02 -0.86753657425E+03  0.42796597255E+03  0.13199193986E+04  0.89303459707E+03 0.  0.
        -24    2    4    4    0    0 -0.27017576633E+03 -0.43311094445E+03  0.52766614364E+03  0.73846167153E+03  0.79460973200E+02 0.  0.
         24    2    4    4    0    0  0.36452536014E+03 -0.43442562980E+03 -0.99700171088E+02  0.58145772705E+03  0.80923409576E+02 0.  0.
         13    1    3    3    0    0 -0.35379422498E+02  0.34637763544E+03  0.24963434900E+03  0.42842324642E+03  0.00000000000E+00 0.  1.
        -13    1    3    3    0    0 -0.58970171308E+02  0.52115893881E+03  0.24463646560E+03  0.57873233961E+03  0.00000000000E+00 0. -1.
          4    1    6    6  502    0  0.14524511269E+03 -0.22994964988E+03 -0.29916974182E+02  0.27362019220E+03  0.00000000000E+00 0. -1.
          3    1    5    5  503    0 -0.13297587903E+03 -0.15392013389E+03  0.24183789244E+03  0.31600563007E+03  0.00000000000E+00 0. -1.
         -4    1    5    5    0  503 -0.13719988731E+03 -0.27919081057E+03  0.28582825120E+03  0.42245604146E+03  0.00000000000E+00 0.  1.
         -3    1    6    6    0  502  0.21928024745E+03 -0.20447597993E+03 -0.69783196906E+02  0.30783753484E+03  0.00000000000E+00 0.  1.
<mgrwt>
<rscale>  0 0.21365293E+04</rscale>
<asrwt>0</asrwt>
<pdfrwt beam="1">  1        4 0.24994706E+00 0.21365293E+04</pdfrwt>
<pdfrwt beam="2">  1       -4 0.10806448E+00 0.21365293E+04</pdfrwt>
<totfact> 0.79510292E-02</totfact>
</mgrwt>
</event>
<event>
12    1  0.1504874E-007  0.1077509E+04  0.7818608E-02  0.9227395E-01
          2   -1    0    0  501    0  0.00000000000E+00  0.00000000000E+00  0.23072509542E+04  0.23072509542E+04  0.00000000000E+00 0. -1.
         -2   -1    0    0    0  501 -0.00000000000E+00 -0.00000000000E+00 -0.12580173639E+03  0.12580173639E+03  0.00000000000E+00 0.  1.
         23    2    1    2    0    0  0.53367171717E+02 -0.12534782318E+03  0.27612558810E+03  0.32074032525E+03  0.89826967269E+02 0.  0.
        254    2    1    2    0    0 -0.53367171717E+02  0.12534782318E+03  0.19053236297E+04  0.21123123653E+04  0.90169022563E+03 0.  0.
        -24    2    4    4    0    0 -0.25684518886E+03 -0.22351708070E+02  0.10088807714E+03  0.28847053136E+03  0.81041924080E+02 0.  0.
         24    2    4    4    0    0  0.20347801714E+03  0.14769953125E+03  0.18044355526E+04  0.18238418340E+04  0.84811066391E+02 0.  0.
         11    1    3    3    0    0  0.70689152459E+02 -0.12420504970E+03  0.22312401467E+03  0.26496825577E+03  0.00000000000E+00 0.  1.
        -11    1    3    3    0    0 -0.17321980742E+02 -0.11427734793E+01  0.53001573429E+02  0.55772069480E+02  0.00000000000E+00 0. -1.
          4    1    6    6  502    0  0.13381444455E+03  0.10324047385E+03  0.14541865653E+04  0.14639752278E+04  0.00000000000E+00 0. -1.
          3    1    5    5  503    0 -0.80228586480E+02  0.86149764912E+01 -0.39034677068E+01  0.80784162858E+02  0.00000000000E+00 0. -1.
         -4    1    5    5    0  503 -0.17661660238E+03 -0.30966684562E+02  0.10479154485E+03  0.20768636850E+03  0.00000000000E+00 0.  1.
         -3    1    6    6    0  502  0.69663572589E+02  0.44459057399E+02  0.35024898725E+03  0.35986660612E+03  0.00000000000E+00 0.  1.
<mgrwt>
<rscale>  0 0.10775086E+04</rscale>
<asrwt>0</asrwt>
<pdfrwt beam="1">  1        2 0.35496165E+00 0.10775086E+04</pdfrwt>
<pdfrwt beam="2">  1       -2 0.19354115E-01 0.10775086E+04</pdfrwt>
<totfact> 0.10173246E+02</totfact>
</mgrwt>
</event>
<event>
12    1  0.1504874E-007  0.1304390E+04  0.7818608E-02  0.9026091E-01
          2   -1    0    0  501    0  0.00000000000E+00  0.00000000000E+00  0.90573913073E+03  0.90573913073E+03  0.00000000000E+00 0.  1.
         -2   -1    0    0    0  501 -0.00000000000E+00 -0.00000000000E+00 -0.46962529020E+03  0.46962529020E+03  0.00000000000E+00 0. -1.
         23    2    1    2    0    0 -0.75359980144E+02 -0.77532620798E+02 -0.20252134505E+03  0.24653559104E+03  0.89858046681E+02 0.  0.
        254    2    1    2    0    0  0.75359980144E+02  0.77532620798E+02  0.63863518558E+03  0.11288288299E+04  0.92450483668E+03 0.  0.
        -24    2    4    4    0    0 -0.15879677303E+03 -0.26394461672E+03  0.63126470553E+03  0.70708504365E+03  0.81184694972E+02 0.  0.
         24    2    4    4    0    0  0.23415675317E+03  0.34147723752E+03  0.73704800573E+01  0.42174378624E+03  0.79858678053E+02 0.  0.
         11    1    3    3    0    0 -0.51745636327E+02 -0.63890663584E+02 -0.20325535334E+03  0.21925411383E+03  0.00000000000E+00 0. -1.
        -11    1    3    3    0    0 -0.23614343817E+02 -0.13641957214E+02  0.73400828523E+00  0.27281477209E+02  0.00000000000E+00 0.  1.
          2    1    6    6  502    0  0.13428212496E+03  0.12705972147E+03 -0.43245145586E+01  0.18491772044E+03  0.00000000000E+00 0. -1.
          3    1    5    5  503    0 -0.14988923773E+03 -0.19371680367E+03  0.44731353322E+03  0.50998272580E+03  0.00000000000E+00 0. -1.
         -4    1    5    5    0  503 -0.89075352925E+01 -0.70227813052E+02  0.18395117231E+03  0.19710231786E+03  0.00000000000E+00 0.  1.
         -1    1    6    6    0  502  0.99874628206E+02  0.21441751604E+03  0.11694994616E+02  0.23682606580E+03  0.00000000000E+00 0.  1.
<mgrwt>
<rscale>  0 0.13043895E+04</rscale>
<asrwt>0</asrwt>
<pdfrwt beam="1">  1        2 0.13934448E+00 0.13043895E+04</pdfrwt>
<pdfrwt beam="2">  1       -2 0.72250045E-01 0.13043895E+04</pdfrwt>
<totfact> 0.49401068E+01</totfact>
</mgrwt>
</event>
<event>
12    1  0.1504874E-007  0.1202771E+04  0.7818608E-02  0.9110434E-01
          1   -1    0    0  501    0  0.00000000000E+00  0.00000000000E+00  0.21889664041E+04  0.21889664041E+04  0.00000000000E+00 0. -1.
         -1   -1    0    0    0  501 -0.00000000000E+00 -0.00000000000E+00 -0.16522162003E+03  0.16522162003E+03  0.00000000000E+00 0.  1.
         23    2    1    2    0    0  0.34322912733E+02 -0.24616611623E+03  0.42761936092E+03  0.50265797419E+03  0.89615300383E+02 0.  0.
        254    2    1    2    0    0 -0.34322912733E+02  0.24616611623E+03  0.15961254231E+04  0.18515300499E+04  0.90485984566E+03 0.  0.
        -24    2    4    4    0    0  0.25943542830E+03  0.47981499586E+03  0.85268632494E+03  0.10149555756E+04  0.74375264380E+02 0.  0.
         24    2    4    4    0    0 -0.29375834103E+03 -0.23364887964E+03  0.74343909819E+03  0.83657447434E+03  0.79179520819E+02 0.  0.
         13    1    3    3    0    0  0.58515155739E+02 -0.19238651032E+03  0.28960311799E+03  0.35257135271E+03  0.00000000000E+00 0. -1.
        -13    1    3    3    0    0 -0.24192243006E+02 -0.53779605912E+02  0.13801624293E+03  0.15008662147E+03  0.00000000000E+00 0.  1.
          2    1    6    6  502    0 -0.21976030142E+03 -0.19978925599E+03  0.63474072113E+03  0.70078964030E+03  0.00000000000E+00 0. -1.
          1    1    5    5  503    0  0.14225751696E+03  0.24448737231E+03  0.37513516052E+03  0.46982727146E+03  0.00000000000E+00 0. -1.
         -2    1    5    5    0  503  0.11717791134E+03  0.23532762355E+03  0.47755116442E+03  0.54512830412E+03  0.00000000000E+00 0.  1.
         -1    1    6    6    0  502 -0.73998039613E+02 -0.33859623650E+02  0.10869837706E+03  0.13578483404E+03  0.00000000000E+00 0.  1.
<mgrwt>
<rscale>  0 0.12027711E+04</rscale>
<asrwt>0</asrwt>
<pdfrwt beam="1">  1        1 0.33676404E+00 0.12027711E+04</pdfrwt>
<pdfrwt beam="2">  1       -1 0.25418712E-01 0.12027711E+04</pdfrwt>
<totfact> 0.29956336E+01</totfact>
</mgrwt>
</event>
<event>
12    1  0.1504874E-007  0.1136645E+04  0.7818608E-02  0.9170193E-01
         -2   -1    0    0    0  501 -0.00000000000E+00  0.00000000000E+00  0.68119203550E+03  0.68119203550E+03  0.00000000000E+00 0.  1.
          2   -1    0    0  501    0  0.00000000000E+00 -0.00000000000E+00 -0.47415484366E+03  0.47415484366E+03  0.00000000000E+00 0. -1.
         23    2    1    2    0    0 -0.17095080602E+03  0.64251153175E+02  0.91859808842E+02  0.22414640625E+03  0.91929310829E+02 0.  0.
        254    2    1    2    0    0  0.17095080602E+03 -0.64251153175E+02  0.11517738299E+03  0.93120047292E+03  0.90582343889E+03 0.  0.
        -24    2    4    4    0    0 -0.16261951974E+03 -0.19541375095E+03 -0.28358892441E+03  0.38905374570E+03  0.79426045664E+02 0.  0.
         24    2    4    4    0    0  0.33357032576E+03  0.13116259778E+03  0.39876630741E+03  0.54214672722E+03  0.80222918338E+02 0.  0.
         13    1    3    3    0    0 -0.44930902313E+02  0.54529783856E+02  0.50993713262E+01  0.70839867998E+02  0.00000000000E+00 0. -1.
        -13    1    3    3    0    0 -0.12601990371E+03  0.97213693184E+01  0.86760437515E+02  0.15330653825E+03  0.00000000000E+00 0.  1.
          2    1    6    6  502    0  0.28827750147E+03  0.11633972159E+03  0.29777176174E+03  0.43047284556E+03  0.00000000000E+00 0. -1.
          1    1    5    5  503    0 -0.13722562877E+03 -0.13832693350E+03 -0.25343247089E+03  0.31967676022E+03  0.00000000000E+00 0. -1.
         -2    1    5    5    0  503 -0.25393890974E+02 -0.57086817448E+02 -0.30156453527E+02  0.69376985481E+02  0.00000000000E+00 0.  1.
         -1    1    6    6    0  502  0.45292824295E+02  0.14822876188E+02  0.10099454567E+03  0.11167388166E+03  0.00000000000E+00 0.  1.
<mgrwt>
<rscale>  0 0.11366451E+04</rscale>
<asrwt>0</asrwt>
<pdfrwt beam="1">  1        2 0.72946899E-01 0.11366451E+04</pdfrwt>
<pdfrwt beam="2">  1       -2 0.10479877E+00 0.11366451E+04</pdfrwt>
<totfact> 0.47917305E+01</totfact>
</mgrwt>
</event>
<event>
12    1  0.1504874E-007  0.3001702E+04  0.7818608E-02  0.8243245E-01
         -2   -1    0    0    0  501 -0.00000000000E+00  0.00000000000E+00  0.11175939801E+04  0.11175939801E+04  0.00000000000E+00 0.  1.
          2   -1    0    0  501    0  0.00000000000E+00 -0.00000000000E+00 -0.20155387175E+04  0.20155387175E+04  0.00000000000E+00 0. -1.
         23    2    1    2    0    0 -0.79882055202E+03 -0.40691192652E+03 -0.14843737098E+04  0.17363816641E+04  0.89243389429E+02 0.  0.
        254    2    1    2    0    0  0.79882055202E+03  0.40691192652E+03  0.58642897243E+03  0.13967510335E+04  0.89628283455E+03 0.  0.
        -24    2    4    4    0    0  0.70147796185E+03  0.54969767585E+03  0.13106552462E+03  0.90414349945E+03  0.77835917569E+02 0.  0.
         24    2    4    4    0    0  0.97342590173E+02 -0.14278574933E+03  0.45536344781E+03  0.49260753401E+03  0.73776438613E+02 0.  0.
         13    1    3    3    0    0 -0.73498380321E+03 -0.34517252418E+03 -0.13297746980E+04  0.15580905012E+04  0.00000000000E+00 0. -1.
        -13    1    3    3    0    0 -0.63836748812E+02 -0.61739402340E+02 -0.15459901186E+03  0.17829116290E+03  0.00000000000E+00 0.  1.
          2    1    6    6  502    0  0.60713065991E+02 -0.27113893616E+02  0.15463113538E+03  0.16832120377E+03  0.00000000000E+00 0. -1.
          3    1    5    5  503    0  0.13989375669E+03  0.15105453642E+03  0.32779102223E+02  0.20847591150E+03  0.00000000000E+00 0. -1.
         -4    1    5    5    0  503  0.56158420516E+03  0.39864313943E+03  0.98286422395E+02  0.69566758795E+03  0.00000000000E+00 0.  1.
         -1    1    6    6    0  502  0.36629524182E+02 -0.11567185571E+03  0.30073231243E+03  0.32428633025E+03  0.00000000000E+00 0.  1.
<mgrwt>
<rscale>  0 0.30017021E+04</rscale>
<asrwt>0</asrwt>
<pdfrwt beam="1">  1        2 0.31008288E+00 0.30017021E+04</pdfrwt>
<pdfrwt beam="2">  1       -2 0.17193754E+00 0.30017021E+04</pdfrwt>
<totfact> 0.11576077E+00</totfact>
</mgrwt>
</event>
<event>
12    1  0.1504874E-007  0.2153826E+04  0.7818608E-02  0.8537896E-01
          2   -1    0    0  501    0  0.00000000000E+00  0.00000000000E+00  0.38719243526E+04  0.38719243526E+04  0.00000000000E+00 0. -1.
         -2   -1    0    0    0  501 -0.00000000000E+00 -0.00000000000E+00 -0.29952580826E+03  0.29952580826E+03  0.00000000000E+00 0.  1.
         23    2    1    2    0    0 -0.69240220637E+03 -0.49799345987E+03  0.19672043510E+04  0.21460408257E+04  0.90443161057E+02 0.  0.
        254    2    1    2    0    0  0.69240220637E+03  0.49799345987E+03  0.16051941933E+04  0.20254093351E+04  0.89342950210E+03 0.  0.
        -24    2    4    4    0    0  0.56347969700E+03  0.51608147852E+03  0.51659692026E+03  0.92620378239E+03  0.84448843049E+02 0.  0.
         24    2    4    4    0    0  0.12892250937E+03 -0.18088018647E+02  0.10885972730E+04  0.10992055527E+04  0.79124171455E+02 0.  0.
         13    1    3    3    0    0 -0.14400646975E+03 -0.61330240023E+02  0.34431609578E+03  0.37822326143E+03  0.00000000000E+00 0.  1.
        -13    1    3    3    0    0 -0.54839573662E+03 -0.43666321985E+03  0.16228882552E+04  0.17678175643E+04  0.00000000000E+00 0. -1.
          4    1    6    6  502    0  0.12471782245E+03 -0.29887630257E+02  0.78972243622E+03  0.80006832955E+03  0.00000000000E+00 0. -1.
          3    1    5    5  503    0  0.45506898461E+03  0.38760368277E+03  0.36890464070E+03  0.70243507143E+03  0.00000000000E+00 0. -1.
         -4    1    5    5    0  503  0.10841071239E+03  0.12847779575E+03  0.14769227956E+03  0.22376871096E+03  0.00000000000E+00 0.  1.
         -3    1    6    6    0  502  0.42046869190E+01  0.11799611610E+02  0.29887483679E+03  0.29913722318E+03  0.00000000000E+00 0.  1.
<mgrwt>
<rscale>  0 0.21538257E+04</rscale>
<asrwt>0</asrwt>
<pdfrwt beam="1">  1        2 0.59568063E+00 0.21538257E+04</pdfrwt>
<pdfrwt beam="2">  1       -2 0.46080896E-01 0.21538257E+04</pdfrwt>
<totfact> 0.17834009E+00</totfact>
</mgrwt>
</event>
<event>
12    1  0.1504874E-007  0.1600549E+04  0.7818608E-02  0.8820211E-01
          2   -1    0    0  501    0  0.00000000000E+00  0.00000000000E+00  0.18314619346E+04  0.18314619346E+04  0.00000000000E+00 0. -1.
         -2   -1    0    0    0  501 -0.00000000000E+00 -0.00000000000E+00 -0.34968734604E+03  0.34968734604E+03  0.00000000000E+00 0.  1.
         23    2    1    2    0    0  0.34794363847E+03 -0.27949808231E+03  0.76269555389E+02  0.46134896336E+03  0.88554318631E+02 0.  0.
        254    2    1    2    0    0 -0.34794363847E+03  0.27949808231E+03  0.14055050331E+04  0.17198003173E+04  0.88492077582E+03 0.  0.
        -24    2    4    4    0    0 -0.12150370513E+03  0.35951880432E+03  0.14138068289E+04  0.14660325961E+04  0.79905585335E+02 0.  0.
         24    2    4    4    0    0 -0.22643993334E+03 -0.80020722013E+02 -0.83017957364E+01  0.25376772111E+03  0.81552296719E+02 0.  0.
         11    1    3    3    0    0  0.24256513993E+03 -0.20938556462E+03  0.15156305848E+02  0.32079569104E+03  0.00000000000E+00 0.  1.
        -11    1    3    3    0    0  0.10537849854E+03 -0.70112517682E+02  0.61113249541E+02  0.14055327232E+03  0.00000000000E+00 0. -1.
          4    1    6    6  502    0 -0.69476571514E+02  0.13559765990E+02 -0.55480175044E+01  0.71004519161E+02  0.00000000000E+00 0. -1.
          1    1    5    5  503    0 -0.27241381500E+02  0.74866466113E+02  0.43826783010E+03  0.44545007746E+03  0.00000000000E+00 0. -1.
         -2    1    5    5    0  503 -0.94262323632E+02  0.28465233821E+03  0.97553899878E+03  0.10205825187E+04  0.00000000000E+00 0.  1.
         -3    1    6    6    0  502 -0.15696336183E+03 -0.93580488002E+02 -0.27537782320E+01  0.18276320195E+03  0.00000000000E+00 0.  1.
<mgrwt>
<rscale>  0 0.16005487E+04</rscale>
<asrwt>0</asrwt>
<pdfrwt beam="1">  1        2 0.28176337E+00 0.16005487E+04</pdfrwt>
<pdfrwt beam="2">  1       -2 0.53798054E-01 0.16005487E+04</pdfrwt>
<totfact> 0.25869629E+01</totfact>
</mgrwt>
</event>
<event>
12    1  0.1504874E-007  0.1673633E+04  0.7818608E-02  0.8776547E-01
          2   -1    0    0  501    0  0.00000000000E+00  0.00000000000E+00  0.12533240131E+04  0.12533240131E+04  0.00000000000E+00 0. -1.
         -2   -1    0    0    0  501 -0.00000000000E+00 -0.00000000000E+00 -0.55872368265E+03  0.55872368265E+03  0.00000000000E+00 0.  1.
         23    2    1    2    0    0 -0.26613260740E+03  0.12829522425E+03 -0.29133847959E+03  0.42529401279E+03  0.93330907724E+02 0.  0.
        254    2    1    2    0    0  0.26613260740E+03 -0.12829522425E+03  0.98593881002E+03  0.13867536829E+04  0.92936764026E+03 0.  0.
        -24    2    4    4    0    0 -0.18254149874E+03 -0.38996338840E+03  0.55611123131E+03  0.70778848287E+03  0.79448044932E+02 0.  0.
         24    2    4    4    0    0  0.44867410614E+03  0.26166816416E+03  0.42982757871E+03  0.67896520007E+03  0.80394737568E+02 0.  0.
         11    1    3    3    0    0 -0.15947544770E+03  0.10460699855E+03 -0.13141869713E+03  0.23161588141E+03  0.00000000000E+00 0. -1.
        -11    1    3    3    0    0 -0.10665715970E+03  0.23688225695E+02 -0.15991978247E+03  0.19367813138E+03  0.00000000000E+00 0.  1.
          4    1    6    6  502    0  0.34854758874E+02  0.13810762591E+02  0.61598074852E+02  0.72110430625E+02  0.00000000000E+00 0. -1.
          1    1    5    5  503    0 -0.41330566509E+02 -0.47034895326E+02  0.48857512818E+02  0.79420108694E+02  0.00000000000E+00 0. -1.
         -2    1    5    5    0  503 -0.14121093223E+03 -0.34292849308E+03  0.50725371849E+03  0.62836837418E+03  0.00000000000E+00 0.  1.
         -3    1    6    6    0  502  0.41381934727E+03  0.24785740157E+03  0.36822950386E+03  0.60685476944E+03  0.00000000000E+00 0.  1.
<mgrwt>
<rscale>  0 0.16736329E+04</rscale>
<asrwt>0</asrwt>
<pdfrwt beam="1">  1        2 0.19281908E+00 0.16736329E+04</pdfrwt>
<pdfrwt beam="2">  1       -2 0.85957490E-01 0.16736329E+04</pdfrwt>
<totfact> 0.19721414E+01</totfact>
</mgrwt>
</event>
<event>
12    1  0.1504874E-007  0.1480372E+04  0.7818608E-02  0.8897611E-01
          1   -1    0    0  501    0  0.00000000000E+00  0.00000000000E+00  0.10903407506E+04  0.10903407506E+04  0.00000000000E+00 0. -1.
         -1   -1    0    0    0  501 -0.00000000000E+00 -0.00000000000E+00 -0.50248060928E+03  0.50248060928E+03  0.00000000000E+00 0.  1.
         23    2    1    2    0    0  0.22766570418E+03  0.56844507023E+02  0.61430982005E+03  0.66412449443E+03  0.92853746508E+02 0.  0.
        254    2    1    2    0    0 -0.22766570418E+03 -0.56844507023E+02 -0.26449678776E+02  0.92869686542E+03  0.89817331929E+03 0.  0.
        -24    2    4    4    0    0 -0.32658213460E+03 -0.42282323808E+03 -0.31438829702E+02  0.54125134817E+03  0.80803716402E+02 0.  0.
         24    2    4    4    0    0  0.98916430412E+02  0.36597873106E+03  0.49891509258E+01  0.38744551725E+03  0.79776220889E+02 0.  0.
         13    1    3    3    0    0  0.23083100184E+02 -0.10768908375E+02  0.21367261645E+02  0.33246936278E+02  0.00000000000E+00 0.  1.
        -13    1    3    3    0    0  0.20458260400E+03  0.67613415397E+02  0.59294255841E+03  0.63087755815E+03  0.00000000000E+00 0. -1.
          4    1    6    6  502    0  0.95833041472E+02  0.22420721685E+03  0.21036682048E+02  0.24473534669E+03  0.00000000000E+00 0. -1.
          1    1    5    5  503    0 -0.26766275196E+03 -0.30147294174E+03 -0.45098419341E+02  0.40566383967E+03  0.00000000000E+00 0. -1.
         -2    1    5    5    0  503 -0.58919382636E+02 -0.12135029634E+03  0.13659589639E+02  0.13558750850E+03  0.00000000000E+00 0.  1.
         -3    1    6    6    0  502  0.30833889400E+01  0.14177151420E+03 -0.16047531123E+02  0.14271017056E+03  0.00000000000E+00 0.  1.
<mgrwt>
<rscale>  0 0.14803717E+04</rscale>
<asrwt>0</asrwt>
<pdfrwt beam="1">  1        1 0.16774473E+00 0.14803717E+04</pdfrwt>
<pdfrwt beam="2">  1       -1 0.77304709E-01 0.14803717E+04</pdfrwt>
<totfact> 0.20960444E+01</totfact>
</mgrwt>
</event>
<event>
12    1  0.1504874E-007  0.1835712E+04  0.7818608E-02  0.8687535E-01
         -2   -1    0    0    0  501 -0.00000000000E+00  0.00000000000E+00  0.42568222772E+03  0.42568222772E+03  0.00000000000E+00 0.  1.
          2   -1    0    0  501    0  0.00000000000E+00 -0.00000000000E+00 -0.19790817211E+04  0.19790817211E+04  0.00000000000E+00 0. -1.
         23    2    1    2    0    0 -0.58787416609E+03  0.36850108200E+03 -0.70683152466E+03  0.99486641792E+03  0.93591146259E+02 0.  0.
        254    2    1    2    0    0  0.58787416609E+03 -0.36850108200E+03 -0.84656796869E+03  0.14098975309E+04  0.88867577854E+03 0.  0.
        -24    2    4    4    0    0  0.20123233792E+03  0.22261249412E+03 -0.80359256314E+01  0.31063066730E+03  0.79850228575E+02 0.  0.
         24    2    4    4    0    0  0.38664182817E+03 -0.59111357612E+03 -0.83853204306E+03  0.10992668636E+04  0.79652287819E+02 0.  0.
         11    1    3    3    0    0 -0.39584064487E+03  0.27445677445E+03 -0.54033957616E+03  0.72386683495E+03  0.00000000000E+00 0. -1.
        -11    1    3    3    0    0 -0.19203352122E+03  0.94044307543E+02 -0.16649194850E+03  0.27099958297E+03  0.00000000000E+00 0.  1.
          4    1    6    6  502    0 -0.37437771479E+01 -0.67836131663E+01 -0.60403306338E+01  0.98244017166E+01  0.00000000000E+00 0. -1.
          3    1    5    5  503    0  0.72763122562E+02  0.55421484302E+02 -0.35269750844E+02  0.98030445535E+02  0.00000000000E+00 0. -1.
         -4    1    5    5    0  503  0.12846921535E+03  0.16719100982E+03  0.27233825213E+02  0.21260022176E+03  0.00000000000E+00 0.  1.
         -3    1    6    6    0  502  0.39038560532E+03 -0.58432996295E+03 -0.83249171243E+03  0.10894424619E+04  0.00000000000E+00 0.  1.
<mgrwt>
<rscale>  0 0.18357123E+04</rscale>
<asrwt>0</asrwt>
<pdfrwt beam="1">  1        2 0.30447412E+00 0.18357123E+04</pdfrwt>
<pdfrwt beam="2">  1       -2 0.65489572E-01 0.18357123E+04</pdfrwt>
<totfact> 0.13877157E+01</totfact>
</mgrwt>
</event>
<event>
12    1  0.1504874E-007  0.1936160E+04  0.7818608E-02  0.8637064E-01
          1   -1    0    0  501    0  0.00000000000E+00  0.00000000000E+00  0.86587834537E+03  0.86587834537E+03  0.00000000000E+00 0. -1.
         -1   -1    0    0    0  501 -0.00000000000E+00 -0.00000000000E+00 -0.10823442058E+04  0.10823442058E+04  0.00000000000E+00 0.  1.
         23    2    1    2    0    0 -0.44350101116E+03 -0.21785839427E+03 -0.73355619649E+03  0.88922196199E+03  0.91954213717E+02 0.  0.
        254    2    1    2    0    0  0.44350101116E+03  0.21785839427E+03  0.51709033603E+03  0.10590005892E+04  0.78098937604E+03 0.  0.
        -24    2    4    4    0    0  0.28943206157E+03  0.50559933049E+03  0.32681782374E+03  0.67289703755E+03  0.81110615677E+02 0.  0.
         24    2    4    4    0    0  0.15406894959E+03 -0.28774093622E+03  0.19027251229E+03  0.38610355167E+03  0.79625599337E+02 0.  0.
         11    1    3    3    0    0 -0.35351942833E+03 -0.19935770136E+03 -0.54540889640E+03  0.67984582338E+03  0.00000000000E+00 0.  1.
        -11    1    3    3    0    0 -0.89981582833E+02 -0.18500692908E+02 -0.18814730009E+03  0.20937613860E+03  0.00000000000E+00 0. -1.
          2    1    6    6  502    0  0.37040746783E+01  0.30783119320E+01 -0.32335210738E+01  0.58010199196E+01  0.00000000000E+00 0. -1.
          3    1    5    5  503    0  0.33458980202E+01  0.23415413926E+02 -0.53958280115E+00  0.23659412345E+02  0.00000000000E+00 0. -1.
         -4    1    5    5    0  503  0.28608616355E+03  0.48218391656E+03  0.32735740654E+03  0.64923762520E+03  0.00000000000E+00 0.  1.
         -1    1    6    6    0  502  0.15036487491E+03 -0.29081924815E+03  0.19350603337E+03  0.38030253175E+03  0.00000000000E+00 0.  1.
<mgrwt>
<rscale>  0 0.19361595E+04</rscale>
<asrwt>0</asrwt>
<pdfrwt beam="1">  1        1 0.13321205E+00 0.19361595E+04</pdfrwt>
<pdfrwt beam="2">  1       -1 0.16651449E+00 0.19361595E+04</pdfrwt>
<totfact> 0.47300969E+00</totfact>
</mgrwt>
</event>
<event>
12    1  0.1504874E-007  0.1807928E+04  0.7818608E-02  0.8702095E-01
         -1   -1    0    0    0  501 -0.00000000000E+00  0.00000000000E+00  0.48591657929E+03  0.48591657929E+03  0.00000000000E+00 0.  1.
          1   -1    0    0  501    0  0.00000000000E+00 -0.00000000000E+00 -0.16816689801E+04  0.16816689801E+04  0.00000000000E+00 0. -1.
         23    2    1    2    0    0  0.62186354454E+03  0.17618475096E+03 -0.68979389514E+03  0.94899956260E+03  0.83840429056E+02 0.  0.
        254    2    1    2    0    0 -0.62186354454E+03 -0.17618475096E+03 -0.50595850566E+03  0.12185859968E+04  0.90066780091E+03 0.  0.
        -24    2    4    4    0    0 -0.65826408042E+03  0.17872282453E+03 -0.50545261238E+03  0.85292962527E+03  0.82177580496E+02 0.  0.
         24    2    4    4    0    0  0.36400535880E+02 -0.35490757549E+03 -0.50589328635E+00  0.36565637151E+03  0.80124527722E+02 0.  0.
         13    1    3    3    0    0  0.43842748684E+03  0.10634986238E+03 -0.42859167492E+03  0.62226985967E+03  0.00000000000E+00 0. -1.
        -13    1    3    3    0    0  0.18343605769E+03  0.69834888580E+02 -0.26120222022E+03  0.32672970293E+03  0.00000000000E+00 0.  1.
          2    1    6    6  502    0  0.41010231711E+02 -0.13212062286E+03  0.27571325384E+02  0.14105983153E+03  0.00000000000E+00 0. -1.
          1    1    5    5  503    0 -0.63445830929E+03  0.15523661240E+03 -0.48693893099E+03  0.81470563676E+03  0.00000000000E+00 0. -1.
         -2    1    5    5    0  503 -0.23805771126E+02  0.23486212134E+02 -0.18513681383E+02  0.38223988511E+02  0.00000000000E+00 0.  1.
         -1    1    6    6    0  502 -0.46096958302E+01 -0.22278695263E+03 -0.28077218670E+02  0.22459653997E+03  0.00000000000E+00 0.  1.
<mgrwt>
<rscale>  0 0.18079279E+04</rscale>
<asrwt>0</asrwt>
<pdfrwt beam="1">  1        1 0.25871830E+00 0.18079279E+04</pdfrwt>
<pdfrwt beam="2">  1       -1 0.74756397E-01 0.18079279E+04</pdfrwt>
<totfact> 0.83261938E+00</totfact>
</mgrwt>
</event>
<event>
12    1  0.1504874E-007  0.1644309E+04  0.7818608E-02  0.8793780E-01
         -2   -1    0    0    0  501 -0.00000000000E+00  0.00000000000E+00  0.29522508518E+03  0.29522508518E+03  0.00000000000E+00 0.  1.
          2   -1    0    0  501    0  0.00000000000E+00 -0.00000000000E+00 -0.22895680727E+04  0.22895680727E+04  0.00000000000E+00 0. -1.
         23    2    1    2    0    0  0.31710060696E+03  0.34502817516E+03 -0.18950438480E+03  0.51349877944E+03  0.90398274508E+02 0.  0.
        254    2    1    2    0    0 -0.31710060696E+03 -0.34502817516E+03 -0.18048386027E+04  0.20712943784E+04  0.90178754910E+03 0.  0.
        -24    2    4    4    0    0 -0.56695213036E+03 -0.45533602858E+03 -0.12585032477E+04  0.14553040298E+04  0.72895663672E+02 0.  0.
         24    2    4    4    0    0  0.24985152340E+03  0.11030785342E+03 -0.54633535502E+03  0.61599034859E+03  0.79800896861E+02 0.  0.
         11    1    3    3    0    0  0.25349752657E+03  0.29377636357E+03 -0.11975273693E+03  0.40608652498E+03  0.00000000000E+00 0.  1.
        -11    1    3    3    0    0  0.63603080388E+02  0.51251811596E+02 -0.69751647871E+02  0.10741225446E+03  0.00000000000E+00 0. -1.
          2    1    6    6  502    0  0.14010040860E+03  0.95611505267E+02 -0.27734110067E+03  0.32509655574E+03  0.00000000000E+00 0. -1.
          1    1    5    5  503    0 -0.51330567005E+03 -0.43016190566E+03 -0.11252691837E+04  0.13094856669E+04  0.00000000000E+00 0. -1.
         -2    1    5    5    0  503 -0.53646460314E+02 -0.25174122920E+02 -0.13323406399E+03  0.14581836296E+03  0.00000000000E+00 0.  1.
         -1    1    6    6    0  502  0.10975111480E+03  0.14696348151E+02 -0.26899425434E+03  0.29089379285E+03  0.00000000000E+00 0.  1.
<mgrwt>
<rscale>  0 0.16443089E+04</rscale>
<asrwt>0</asrwt>
<pdfrwt beam="1">  1        2 0.35224126E+00 0.16443089E+04</pdfrwt>
<pdfrwt beam="2">  1       -2 0.45419242E-01 0.16443089E+04</pdfrwt>
<totfact> 0.20209676E+01</totfact>
</mgrwt>
</event>
<event>
12    1  0.1504874E-007  0.1270331E+04  0.7818608E-02  0.9053429E-01
         -1   -1    0    0    0  501 -0.00000000000E+00  0.00000000000E+00  0.11451511276E+04  0.11451511276E+04  0.00000000000E+00 0.  1.
          1   -1    0    0  501    0  0.00000000000E+00 -0.00000000000E+00 -0.35229887434E+03  0.35229887434E+03  0.00000000000E+00 0. -1.
         23    2    1    2    0    0 -0.12881202578E+03  0.21054471213E+02 -0.12611078028E+03  0.20324204415E+03  0.91474427370E+02 0.  0.
        254    2    1    2    0    0  0.12881202578E+03 -0.21054471213E+02  0.91896303356E+03  0.12942079578E+04  0.90191205352E+03 0.  0.
        -24    2    4    4    0    0 -0.19315416596E+03 -0.23099727842E+03  0.19193624080E+02  0.31244553010E+03  0.81151337676E+02 0.  0.
         24    2    4    4    0    0  0.32196619174E+03  0.20994280721E+03  0.89976940947E+03  0.98176242772E+03  0.80834790332E+02 0.  0.
         13    1    3    3    0    0 -0.16552183995E+02  0.12994598355E+02 -0.78092051302E+02  0.80877703095E+02  0.00000000000E+00 0. -1.
        -13    1    3    3    0    0 -0.11225984179E+03  0.80598728577E+01 -0.48018728977E+02  0.12236434105E+03  0.00000000000E+00 0.  1.
          4    1    6    6  502    0  0.86802903215E+01  0.28066042814E+02  0.89598790427E+02  0.94292064593E+02  0.00000000000E+00 0. -1.
          3    1    5    5  503    0 -0.36241075565E+02 -0.16453643034E+02  0.24228846021E+02  0.46595867915E+02  0.00000000000E+00 0. -1.
         -4    1    5    5    0  503 -0.15691309040E+03 -0.21454363539E+03 -0.50352219410E+01  0.26584966218E+03  0.00000000000E+00 0.  1.
         -1    1    6    6    0  502  0.31328590142E+03  0.18187676439E+03  0.81017061905E+03  0.88747036313E+03  0.00000000000E+00 0.  1.
<mgrwt>
<rscale>  0 0.12703314E+04</rscale>
<asrwt>0</asrwt>
<pdfrwt beam="1">  1        1 0.54199827E-01 0.12703314E+04</pdfrwt>
<pdfrwt beam="2">  1       -1 0.17617710E+00 0.12703314E+04</pdfrwt>
<totfact> 0.15504652E+01</totfact>
</mgrwt>
</event>
<event>
12    1  0.1504874E-007  0.1365961E+04  0.7818608E-02  0.8978833E-01
          1   -1    0    0  501    0  0.00000000000E+00  0.00000000000E+00  0.70021487311E+03  0.70021487311E+03  0.00000000000E+00 0.  1.
         -1   -1    0    0    0  501 -0.00000000000E+00 -0.00000000000E+00 -0.66617035060E+03  0.66617035060E+03  0.00000000000E+00 0. -1.
         23    2    1    2    0    0  0.34776607736E+03  0.13663281485E+03  0.51282534358E+02  0.38816039425E+03  0.91808619868E+02 0.  0.
        254    2    1    2    0    0 -0.34776607736E+03 -0.13663281485E+03 -0.17238011854E+02  0.97822482945E+03  0.90388987009E+03 0.  0.
        -24    2    4    4    0    0 -0.13758654366E+03  0.35550524417E+03  0.14156624795E+03  0.41405414652E+03  0.78011525176E+02 0.  0.
         24    2    4    4    0    0 -0.21017953369E+03 -0.49213805902E+03 -0.15880425981E+03  0.56417068294E+03  0.81819686073E+02 0.  0.
         13    1    3    3    0    0  0.13006923569E+03  0.65730850868E+02  0.63311338020E+02  0.15889265669E+03  0.00000000000E+00 0. -1.
        -13    1    3    3    0    0  0.21769684167E+03  0.70901963983E+02 -0.12028803662E+02  0.22926773756E+03  0.00000000000E+00 0.  1.
          4    1    6    6  502    0  0.58391591129E+01 -0.12220987629E+02 -0.11187818718E+02  0.17567458707E+02  0.00000000000E+00 0. -1.
          3    1    5    5  503    0  0.85987954531E+01  0.39730214276E+02  0.86412049034E+01  0.41558388225E+02  0.00000000000E+00 0. -1.
         -4    1    5    5    0  503 -0.14618533912E+03  0.31577502989E+03  0.13292504305E+03  0.37249575830E+03  0.00000000000E+00 0.  1.
         -3    1    6    6    0  502 -0.21601869280E+03 -0.47991707139E+03 -0.14761644109E+03  0.54660322423E+03  0.00000000000E+00 0.  1.
<mgrwt>
<rscale>  0 0.13659610E+04</rscale>
<asrwt>0</asrwt>
<pdfrwt beam="1">  1        1 0.10772537E+00 0.13659610E+04</pdfrwt>
<pdfrwt beam="2">  1       -1 0.10248775E+00 0.13659610E+04</pdfrwt>
<totfact> 0.23988213E+01</totfact>
</mgrwt>
</event>
<event>
12    1  0.1504874E-007  0.1463819E+04  0.7818608E-02  0.8908876E-01
         -2   -1    0    0    0  501 -0.00000000000E+00  0.00000000000E+00  0.31088484910E+03  0.31088484910E+03  0.00000000000E+00 0. -1.
          2   -1    0    0  501    0  0.00000000000E+00 -0.00000000000E+00 -0.17231195151E+04  0.17231195151E+04  0.00000000000E+00 0.  1.
         23    2    1    2    0    0  0.25525756248E+03 -0.19655114666E+02  0.65359636247E+02  0.27859508254E+03  0.88320955799E+02 0.  0.
        254    2    1    2    0    0 -0.25525756248E+03  0.19655114666E+02 -0.14775943023E+04  0.17554092817E+04  0.91248785053E+03 0.  0.
        -24    2    4    4    0    0 -0.50940138412E+03 -0.19487213184E+03 -0.11811485845E+04  0.13035777023E+04  0.82084889895E+02 0.  0.
         24    2    4    4    0    0  0.25414382164E+03  0.21452724651E+03 -0.29644571776E+03  0.45183157945E+03  0.75237563976E+02 0.  0.
         13    1    3    3    0    0  0.10005384387E+03  0.29616247518E+02  0.34987233448E+01  0.10440371093E+03  0.00000000000E+00 0.  1.
        -13    1    3    3    0    0  0.15520371860E+03 -0.49271362183E+02  0.61860912902E+02  0.17419137161E+03  0.00000000000E+00 0. -1.
          2    1    6    6  502    0  0.23787778938E+03  0.16897538319E+03 -0.24272731365E+03  0.37954587549E+03  0.00000000000E+00 0. -1.
          3    1    5    5  503    0 -0.39196388616E+03 -0.14441274607E+03 -0.81600376033E+03  0.91670762305E+03  0.00000000000E+00 0. -1.
         -4    1    5    5    0  503 -0.11743749796E+03 -0.50459385768E+02 -0.36514482421E+03  0.38687007921E+03  0.00000000000E+00 0.  1.
         -1    1    6    6    0  502  0.16266032262E+02  0.45551863318E+02 -0.53718404106E+02  0.72285703960E+02  0.00000000000E+00 0.  1.
<mgrwt>
<rscale>  0 0.14638193E+04</rscale>
<asrwt>0</asrwt>
<pdfrwt beam="1">  1        2 0.26509531E+00 0.14638193E+04</pdfrwt>
<pdfrwt beam="2">  1       -2 0.47828438E-01 0.14638193E+04</pdfrwt>
<totfact> 0.38200310E+01</totfact>
</mgrwt>
</event>
<event>
12    1  0.1504874E-007  0.1879756E+04  0.7818608E-02  0.8664999E-01
          2   -1    0    0  501    0  0.00000000000E+00  0.00000000000E+00  0.20852910169E+04  0.20852910169E+04  0.00000000000E+00 0. -1.
         -2   -1    0    0    0  501 -0.00000000000E+00 -0.00000000000E+00 -0.42361969973E+03  0.42361969973E+03  0.00000000000E+00 0.  1.
         23    2    1    2    0    0  0.38266292840E+03 -0.60480175880E+03  0.65745251985E+03  0.97612909921E+03  0.91477419394E+02 0.  0.
        254    2    1    2    0    0 -0.38266292840E+03  0.60480175880E+03  0.10042187974E+04  0.15327816175E+04  0.91035597961E+03 0.  0.
        -24    2    4    4    0    0 -0.46766213252E+03  0.60888243791E+03  0.31519948240E+03  0.83371650051E+03  0.79289319151E+02 0.  0.
         24    2    4    4    0    0  0.84999204119E+02 -0.40806791068E+01  0.68901931495E+03  0.69906511694E+03  0.81871269092E+02 0.  0.
         13    1    3    3    0    0  0.24100580911E+03 -0.38476807501E+03  0.35607031530E+03  0.57698903023E+03  0.00000000000E+00 0.  1.
        -13    1    3    3    0    0  0.14165711929E+03 -0.22003368379E+03  0.30138220455E+03  0.39914006898E+03  0.00000000000E+00 0. -1.
          2    1    6    6  502    0 -0.16285721023E+02  0.15150544098E+01  0.79888759942E+02  0.81545901578E+02  0.00000000000E+00 0. -1.
          1    1    5    5  503    0 -0.35422301880E+03  0.40759258752E+03  0.20347642994E+03  0.57706873246E+03  0.00000000000E+00 0. -1.
         -2    1    5    5    0  503 -0.11343911372E+03  0.20128985039E+03  0.11172305246E+03  0.25664776804E+03  0.00000000000E+00 0.  1.
         -1    1    6    6    0  502  0.10128492514E+03 -0.55957335166E+01  0.60913055501E+03  0.61751921536E+03  0.00000000000E+00 0.  1.
<mgrwt>
<rscale>  0 0.18797557E+04</rscale>
<asrwt>0</asrwt>
<pdfrwt beam="1">  1        2 0.32081400E+00 0.18797557E+04</pdfrwt>
<pdfrwt beam="2">  1       -2 0.65172262E-01 0.18797557E+04</pdfrwt>
<totfact> 0.12194058E+01</totfact>
</mgrwt>
</event>
<event>
12    1  0.1504874E-007  0.3556321E+04  0.7818608E-02  0.8100571E-01
         -1   -1    0    0    0  501 -0.00000000000E+00  0.00000000000E+00  0.16521484910E+04  0.16521484910E+04  0.00000000000E+00 0.  1.
          1   -1    0    0  501    0  0.00000000000E+00 -0.00000000000E+00 -0.19137841048E+04  0.19137841048E+04  0.00000000000E+00 0. -1.
         23    2    1    2    0    0 -0.13341882035E+04  0.25788894206E+02 -0.11386003668E+04  0.17561267621E+04  0.82747688923E+02 0.  0.
        254    2    1    2    0    0  0.13341882035E+04 -0.25788894206E+02  0.87696475302E+03  0.18098058338E+04  0.85182553878E+03 0.  0.
        -24    2    4    4    0    0  0.61704804540E+03 -0.29606075294E+03  0.67932970447E+02  0.69258233811E+03  0.81579083268E+02 0.  0.
         24    2    4    4    0    0  0.71714015805E+03  0.27027185874E+03  0.80903178258E+03  0.11172234956E+04  0.79492327070E+02 0.  0.
         11    1    3    3    0    0 -0.11572507198E+04  0.20424569826E+01 -0.10112576479E+04  0.15368394290E+04  0.00000000000E+00 0. -1.
        -11    1    3    3    0    0 -0.17693748367E+03  0.23746437223E+02 -0.12734271888E+03  0.21928733310E+03  0.00000000000E+00 0.  1.
          2    1    6    6  502    0  0.62815213617E+03  0.26201660463E+03  0.72777435185E+03  0.99643530371E+03  0.00000000000E+00 0. -1.
          1    1    5    5  503    0  0.37472284087E+03 -0.21921527108E+03  0.25834208648E+02  0.43490222910E+03  0.00000000000E+00 0. -1.
         -2    1    5    5    0  503  0.24232520453E+03 -0.76845481864E+02  0.42098761799E+02  0.25768010901E+03  0.00000000000E+00 0.  1.
         -1    1    6    6    0  502  0.88988021888E+02  0.82552541011E+01  0.81257430732E+02  0.12078819193E+03  0.00000000000E+00 0.  1.
<mgrwt>
<rscale>  0 0.35563214E+04</rscale>
<asrwt>0</asrwt>
<pdfrwt beam="1">  1        1 0.29442832E+00 0.35563214E+04</pdfrwt>
<pdfrwt beam="2">  1       -1 0.25417669E+00 0.35563214E+04</pdfrwt>
<totfact> 0.18130163E-01</totfact>
</mgrwt>
</event>
<event>
12    1  0.1504874E-007  0.1762586E+04  0.7818608E-02  0.8726453E-01
         -2   -1    0    0    0  501 -0.00000000000E+00  0.00000000000E+00  0.15110231798E+04  0.15110231798E+04  0.00000000000E+00 0.  1.
          2   -1    0    0  501    0  0.00000000000E+00 -0.00000000000E+00 -0.51400774436E+03  0.51400774436E+03  0.00000000000E+00 0. -1.
         23    2    1    2    0    0 -0.42120482408E+03  0.46345105590E+02  0.93808516443E+03  0.10334373538E+04  0.91802047629E+02 0.  0.
        254    2    1    2    0    0  0.42120482408E+03 -0.46345105590E+02  0.58930271014E+02  0.99159357033E+03  0.89455221158E+03 0.  0.
        -24    2    4    4    0    0 -0.20840119217E+02  0.33440426069E+03 -0.13688640857E+03  0.37095876449E+03  0.81314180578E+02 0.  0.
         24    2    4    4    0    0  0.44204494330E+03 -0.38074936628E+03  0.19581667958E+03  0.62063480584E+03  0.80433689459E+02 0.  0.
         11    1    3    3    0    0 -0.72978601421E+02  0.43204161652E+02  0.20465992872E+03  0.22153591644E+03  0.00000000000E+00 0. -1.
        -11    1    3    3    0    0 -0.34822622266E+03  0.31409439376E+01  0.73342523572E+03  0.81190143741E+03  0.00000000000E+00 0.  1.
          2    1    6    6  502    0  0.16029437980E+03 -0.96904106589E+02  0.40781243734E+02  0.19169716719E+03  0.00000000000E+00 0. -1.
          1    1    5    5  503    0  0.93233515566E+01  0.33252126515E+01  0.29015942886E+01  0.10315094418E+02  0.00000000000E+00 0. -1.
         -2    1    5    5    0  503 -0.30163470774E+02  0.33107904804E+03 -0.13978800286E+03  0.36064367007E+03  0.00000000000E+00 0.  1.
         -1    1    6    6    0  502  0.28175056350E+03 -0.28384525969E+03  0.15503543585E+03  0.42893763865E+03  0.00000000000E+00 0.  1.
<mgrwt>
<rscale>  0 0.17625863E+04</rscale>
<asrwt>0</asrwt>
<pdfrwt beam="1">  1        2 0.79078115E-01 0.17625863E+04</pdfrwt>
<pdfrwt beam="2">  1       -2 0.23246510E+00 0.17625863E+04</pdfrwt>
<totfact> 0.46564343E+00</totfact>
</mgrwt>
</event>
<event>
12    1  0.1504874E-007  0.2105373E+04  0.7818608E-02  0.8558880E-01
          1   -1    0    0  501    0  0.00000000000E+00  0.00000000000E+00  0.13683594030E+04  0.13683594030E+04  0.00000000000E+00 0. -1.
         -1   -1    0    0    0  501 -0.00000000000E+00 -0.00000000000E+00 -0.80983758413E+03  0.80983758413E+03  0.00000000000E+00 0.  1.
         23    2    1    2    0    0  0.24933073074E+03  0.73248958688E+03 -0.11116135291E+03  0.78708618707E+03  0.91874976556E+02 0.  0.
        254    2    1    2    0    0 -0.24933073074E+03 -0.73248958688E+03  0.66968317179E+03  0.13911108001E+04  0.94234117988E+03 0.  0.
        -24    2    4    4    0    0 -0.35076881542E+03  0.75219794900E+02  0.67528766224E+02  0.37535534012E+03  0.87376871522E+02 0.  0.
         24    2    4    4    0    0  0.10143808467E+03 -0.80770938178E+03  0.60215440557E+03  0.10157554599E+04  0.80530092655E+02 0.  0.
         11    1    3    3    0    0  0.13797923950E+03  0.42485286636E+03 -0.18636284639E+02  0.44708560667E+03  0.00000000000E+00 0. -1.
        -11    1    3    3    0    0  0.11135149124E+03  0.30763672052E+03 -0.92525068267E+02  0.34000058040E+03  0.00000000000E+00 0.  1.
          4    1    6    6  502    0 -0.67968957492E+01 -0.11237788476E+02  0.17225376425E+02  0.21661008163E+02  0.00000000000E+00 0. -1.
          1    1    5    5  503    0 -0.13086966029E+03  0.25750220518E+02 -0.17361786090E+02  0.13450417636E+03  0.00000000000E+00 0. -1.
         -2    1    5    5    0  503 -0.21989915512E+03  0.49469574382E+02  0.84890552315E+02  0.24085116376E+03  0.00000000000E+00 0.  1.
         -3    1    6    6    0  502  0.10823498042E+03 -0.79647159331E+03  0.58492902914E+03  0.99409445178E+03  0.00000000000E+00 0.  1.
<mgrwt>
<rscale>  0 0.21053730E+04</rscale>
<asrwt>0</asrwt>
<pdfrwt beam="1">  1        1 0.21051683E+00 0.21053730E+04</pdfrwt>
<pdfrwt beam="2">  1       -1 0.12459040E+00 0.21053730E+04</pdfrwt>
<totfact> 0.41949989E+00</totfact>
</mgrwt>
</event>
<event>
12    1  0.1504874E-007  0.1567223E+04  0.7818608E-02  0.8840941E-01
          2   -1    0    0  501    0  0.00000000000E+00  0.00000000000E+00  0.45393384128E+03  0.45393384128E+03  0.00000000000E+00 0. -1.
         -2   -1    0    0    0  501 -0.00000000000E+00 -0.00000000000E+00 -0.13527229375E+04  0.13527229375E+04  0.00000000000E+00 0.  1.
         23    2    1    2    0    0  0.77360562917E+02  0.15117921582E+02  0.28964566507E+03  0.31465108371E+03  0.94326480566E+02 0.  0.
        254    2    1    2    0    0 -0.77360562917E+02 -0.15117921582E+02 -0.11884347613E+04  0.14920056951E+04  0.89860480973E+03 0.  0.
        -24    2    4    4    0    0  0.70607030743E+02  0.23807451033E+03  0.41284875294E+01  0.26130587874E+03  0.81233568177E+02 0.  0.
         24    2    4    4    0    0 -0.14796759366E+03 -0.25319243191E+03 -0.11925632489E+04  0.12306998164E+04  0.80088196001E+02 0.  0.
         11    1    3    3    0    0  0.23318216342E+02 -0.22523652976E+02  0.20426120313E+03  0.20681801967E+03  0.00000000000E+00 0. -1.
        -11    1    3    3    0    0  0.54042346575E+02  0.37641574559E+02  0.85384461948E+02  0.10783306404E+03  0.00000000000E+00 0.  1.
          2    1    6    6  502    0 -0.15621541593E+03 -0.23266318613E+03 -0.11334940240E+04  0.11676232769E+04  0.00000000000E+00 0. -1.
          3    1    5    5  503    0  0.44163648123E+02  0.22478892134E+03 -0.82342478212E+01  0.22923413753E+03  0.00000000000E+00 0. -1.
         -4    1    5    5    0  503  0.26443382620E+02  0.13285588990E+02  0.12362735351E+02  0.32071741215E+02  0.00000000000E+00 0.  1.
         -1    1    6    6    0  502  0.82478222664E+01 -0.20529245775E+02 -0.59069224884E+02  0.63076539479E+02  0.00000000000E+00 0.  1.
<mgrwt>
<rscale>  0 0.15672227E+04</rscale>
<asrwt>0</asrwt>
<pdfrwt beam="1">  1        2 0.69835976E-01 0.15672227E+04</pdfrwt>
<pdfrwt beam="2">  1       -2 0.20811122E+00 0.15672227E+04</pdfrwt>
<totfact> 0.77883936E+00</totfact>
</mgrwt>
</event>
<event>
12    1  0.1504874E-007  0.1266095E+04  0.7818608E-02  0.9056893E-01
         -2   -1    0    0    0  501 -0.00000000000E+00  0.00000000000E+00  0.22742344946E+04  0.22742344946E+04  0.00000000000E+00 0.  1.
          2   -1    0    0  501    0  0.00000000000E+00 -0.00000000000E+00 -0.17621263733E+03  0.17621263733E+03  0.00000000000E+00 0. -1.
         23    2    1    2    0    0 -0.28714952561E+03 -0.22842292867E+02  0.33667477679E+03  0.45247733941E+03  0.91701782668E+02 0.  0.
        254    2    1    2    0    0  0.28714952561E+03  0.22842292867E+02  0.17613470805E+04  0.19979697925E+04  0.89808860003E+03 0.  0.
        -24    2    4    4    0    0 -0.10220738527E+03 -0.23628910682E+03  0.13291090847E+04  0.13563415842E+04  0.82780687819E+02 0.  0.
         24    2    4    4    0    0  0.38935691088E+03  0.25913139969E+03  0.43223799571E+03  0.64162820829E+03  0.78161284424E+02 0.  0.
         13    1    3    3    0    0 -0.29412279184E+03 -0.21738053441E+02  0.33162494877E+03  0.44379710037E+03  0.00000000000E+00 0. -1.
        -13    1    3    3    0    0  0.69732662323E+01 -0.11042394263E+01  0.50498280198E+01  0.86802390339E+01  0.00000000000E+00 0.  1.
          2    1    6    6  502    0  0.28345777466E+03  0.14596564733E+03  0.27883167623E+03  0.42355800534E+03  0.00000000000E+00 0. -1.
          3    1    5    5  503    0 -0.90415745881E+02 -0.23321759106E+03  0.11534039956E+04  0.11802144843E+04  0.00000000000E+00 0. -1.
         -4    1    5    5    0  503 -0.11791639393E+02 -0.30715157651E+01  0.17570508918E+03  0.17612709993E+03  0.00000000000E+00 0.  1.
         -3    1    6    6    0  502  0.10589913622E+03  0.11316575236E+03  0.15340631948E+03  0.21807020296E+03  0.00000000000E+00 0.  1.
<mgrwt>
<rscale>  0 0.12660946E+04</rscale>
<asrwt>0</asrwt>
<pdfrwt beam="1">  1        2 0.27109638E-01 0.12660946E+04</pdfrwt>
<pdfrwt beam="2">  1       -2 0.34988221E+00 0.12660946E+04</pdfrwt>
<totfact> 0.30982172E+00</totfact>
</mgrwt>
</event>
<event>
12    1  0.1504874E-007  0.1227061E+04  0.7818608E-02  0.9089495E-01
          1   -1    0    0  501    0  0.00000000000E+00  0.00000000000E+00  0.13445159973E+04  0.13445159973E+04  0.00000000000E+00 0. -1.
         -1   -1    0    0    0  501 -0.00000000000E+00 -0.00000000000E+00 -0.27996650467E+03  0.27996650467E+03  0.00000000000E+00 0.  1.
         23    2    1    2    0    0 -0.10951302416E+03  0.24837135894E+03  0.17512638149E+03  0.33628005551E+03  0.93453688199E+02 0.  0.
        254    2    1    2    0    0  0.10951302416E+03 -0.24837135894E+03  0.88942311110E+03  0.12882024464E+04  0.89146544407E+03 0.  0.
        -24    2    4    4    0    0 -0.52518798125E+02 -0.53368505668E+03  0.74262970123E+03  0.92008946292E+03  0.86531975304E+02 0.  0.
         24    2    4    4    0    0  0.16203182229E+03  0.28531369774E+03  0.14679340987E+03  0.36811298349E+03  0.79376607880E+02 0.  0.
         11    1    3    3    0    0  0.10483886220E+02  0.22991447522E+02 -0.22695134955E+01  0.25370636983E+02  0.00000000000E+00 0. -1.
        -11    1    3    3    0    0 -0.11999691038E+03  0.22537991142E+03  0.17739589498E+03  0.31090941853E+03  0.00000000000E+00 0.  1.
          4    1    6    6  502    0  0.16816653282E+03  0.28378555574E+03  0.14820726106E+03  0.36163464524E+03  0.00000000000E+00 0. -1.
          1    1    5    5  503    0 -0.34678292101E+02 -0.33161800603E+03  0.53048659357E+03  0.62656931925E+03  0.00000000000E+00 0. -1.
         -2    1    5    5    0  503 -0.17840506024E+02 -0.20206705065E+03  0.21214310766E+03  0.29352014367E+03  0.00000000000E+00 0.  1.
         -3    1    6    6    0  502 -0.61347105293E+01  0.15281419985E+01 -0.14138511907E+01  0.64783382464E+01  0.00000000000E+00 0.  1.
<mgrwt>
<rscale>  0 0.12270606E+04</rscale>
<asrwt>0</asrwt>
<pdfrwt beam="1">  1        1 0.20684861E+00 0.12270606E+04</pdfrwt>
<pdfrwt beam="2">  1       -1 0.43071771E-01 0.12270606E+04</pdfrwt>
<totfact> 0.44120513E+01</totfact>
</mgrwt>
</event>
<event>
12    1  0.1504874E-007  0.1987917E+04  0.7818608E-02  0.8612291E-01
          1   -1    0    0  501    0  0.00000000000E+00  0.00000000000E+00  0.10890396750E+04  0.10890396750E+04  0.00000000000E+00 0. -1.
         -1   -1    0    0    0  501 -0.00000000000E+00 -0.00000000000E+00 -0.90717818317E+03  0.90717818317E+03  0.00000000000E+00 0.  1.
         23    2    1    2    0    0  0.37057018438E+02  0.75727845382E+03  0.28015450247E+02  0.76405734744E+03  0.90304404569E+02 0.  0.
        254    2    1    2    0    0 -0.37057018438E+02 -0.75727845382E+03  0.15384604154E+03  0.12321605107E+04  0.95901357673E+03 0.  0.
        -24    2    4    4    0    0 -0.41417703267E+03 -0.41734446382E+03  0.34186032075E+03  0.68502260581E+03  0.81660735355E+02 0.  0.
         24    2    4    4    0    0  0.37712001423E+03 -0.33993399000E+03 -0.18801427921E+03  0.54713790487E+03  0.78967683706E+02 0.  0.
         13    1    3    3    0    0  0.22092479904E+02  0.27737988149E+03 -0.32404699337E+02  0.28013878857E+03  0.00000000000E+00 0. -1.
        -13    1    3    3    0    0  0.14964538534E+02  0.47989857233E+03  0.60420149584E+02  0.48391855887E+03  0.00000000000E+00 0.  1.
          2    1    6    6  502    0  0.34582332216E+03 -0.33493007048E+03 -0.16928148475E+03  0.51032160775E+03  0.00000000000E+00 0. -1.
          1    1    5    5  503    0 -0.30751294724E+03 -0.33829651856E+03  0.23185005782E+03  0.51260432743E+03  0.00000000000E+00 0. -1.
         -2    1    5    5    0  503 -0.10666408543E+03 -0.79047945258E+02  0.11001026292E+03  0.17241827838E+03  0.00000000000E+00 0.  1.
         -1    1    6    6    0  502  0.31296692077E+02 -0.50039195193E+01 -0.18732794456E+02  0.36816297120E+02  0.00000000000E+00 0.  1.
<mgrwt>
<rscale>  0 0.19879165E+04</rscale>
<asrwt>0</asrwt>
<pdfrwt beam="1">  1        1 0.16754456E+00 0.19879165E+04</pdfrwt>
<pdfrwt beam="2">  1       -1 0.13956588E+00 0.19879165E+04</pdfrwt>
<totfact> 0.50716098E+00</totfact>
</mgrwt>
</event>
<event>
12    1  0.1504874E-007  0.2690336E+04  0.7818608E-02  0.8338148E-01
         -1   -1    0    0    0  501 -0.00000000000E+00  0.00000000000E+00  0.67225248253E+03  0.67225248253E+03  0.00000000000E+00 0.  1.
          1   -1    0    0  501    0  0.00000000000E+00 -0.00000000000E+00 -0.26916620225E+04  0.26916620225E+04  0.00000000000E+00 0. -1.
         23    2    1    2    0    0  0.20239984486E+03 -0.67674024543E+03  0.30541931583E+03  0.77486132314E+03  0.90476818216E+02 0.  0.
        254    2    1    2    0    0 -0.20239984486E+03  0.67674024543E+03 -0.23248288558E+04  0.25890531819E+04  0.89410520239E+03 0.  0.
        -24    2    4    4    0    0  0.29746009308E+03  0.20204231223E+03 -0.12993920126E+04  0.13505997297E+04  0.79977649184E+02 0.  0.
         24    2    4    4    0    0 -0.49985993794E+03  0.47469793320E+03 -0.10254368432E+04  0.12384534523E+04  0.83953252954E+02 0.  0.
         11    1    3    3    0    0  0.17056605117E+03 -0.60857187895E+03  0.24308363211E+03  0.67715741291E+03  0.00000000000E+00 0.  1.
        -11    1    3    3    0    0  0.31833793695E+02 -0.68168366478E+02  0.62335683722E+02  0.97703910231E+02  0.00000000000E+00 0. -1.
          2    1    6    6  502    0 -0.80608244379E+02  0.39240302417E+02 -0.14515694834E+03  0.17061075595E+03  0.00000000000E+00 0. -1.
          3    1    5    5  503    0  0.14375978422E+02  0.34733872601E+02 -0.18130549871E+03  0.18516153629E+03  0.00000000000E+00 0. -1.
         -2    1    5    5    0  503  0.28308411466E+03  0.16730843963E+03 -0.11180865139E+04  0.11654381934E+04  0.00000000000E+00 0.  1.
         -1    1    6    6    0  502 -0.41925169356E+03  0.43545763078E+03 -0.88027989487E+03  0.10678426963E+04  0.00000000000E+00 0.  1.
<mgrwt>
<rscale>  0 0.26903356E+04</rscale>
<asrwt>0</asrwt>
<pdfrwt beam="1">  1        1 0.41410185E+00 0.26903356E+04</pdfrwt>
<pdfrwt beam="2">  1       -1 0.10342346E+00 0.26903356E+04</pdfrwt>
<totfact> 0.76624228E-01</totfact>
</mgrwt>
</event>
<event>
12    1  0.1504874E-007  0.2515491E+04  0.7818608E-02  0.8397488E-01
          1   -1    0    0  501    0  0.00000000000E+00  0.00000000000E+00  0.17690861649E+04  0.17690861649E+04  0.00000000000E+00 0. -1.
         -1   -1    0    0    0  501 -0.00000000000E+00 -0.00000000000E+00 -0.89420371406E+03  0.89420371406E+03  0.00000000000E+00 0.  1.
         23    2    1    2    0    0  0.91152596204E+03  0.44970830171E+01 -0.25655436938E+03  0.95152003297E+03  0.93115119419E+02 0.  0.
        254    2    1    2    0    0 -0.91152596204E+03 -0.44970830171E+01  0.11314368202E+04  0.17117698460E+04  0.90504526088E+03 0.  0.
        -24    2    4    4    0    0 -0.46910615189E+03 -0.42660071933E+03  0.39483053728E+03  0.75123646566E+03  0.80101926893E+02 0.  0.
         24    2    4    4    0    0 -0.44241981015E+03  0.42210363631E+03  0.73660628289E+03  0.96053338029E+03  0.78286591833E+02 0.  0.
         11    1    3    3    0    0  0.69304967800E+03  0.22877246591E+02 -0.15832127897E+03  0.71127129280E+03  0.00000000000E+00 0.  1.
        -11    1    3    3    0    0  0.21847628404E+03 -0.18380163574E+02 -0.98233090410E+02  0.24024874016E+03  0.00000000000E+00 0. -1.
          2    1    6    6  502    0 -0.69055144417E+02  0.33224158399E+02  0.10787907925E+03  0.13232669198E+03  0.00000000000E+00 0. -1.
          3    1    5    5  503    0 -0.31837271726E+03 -0.33435537043E+03  0.30114521971E+03  0.55121968777E+03  0.00000000000E+00 0. -1.
         -4    1    5    5    0  503 -0.15073343463E+03 -0.92245348900E+02  0.93685317579E+02  0.20001677789E+03  0.00000000000E+00 0.  1.
         -1    1    6    6    0  502 -0.37336466573E+03  0.38887947792E+03  0.62872720364E+03  0.82820668831E+03  0.00000000000E+00 0.  1.
<mgrwt>
<rscale>  0 0.25154907E+04</rscale>
<asrwt>0</asrwt>
<pdfrwt beam="1">  1        1 0.27216710E+00 0.25154907E+04</pdfrwt>
<pdfrwt beam="2">  1       -1 0.13756980E+00 0.25154907E+04</pdfrwt>
<totfact> 0.16645134E+00</totfact>
</mgrwt>
</event>
<event>
12    1  0.1504874E-007  0.1616290E+04  0.7818608E-02  0.8810603E-01
         -1   -1    0    0    0  501 -0.00000000000E+00  0.00000000000E+00  0.94654337714E+03  0.94654337714E+03  0.00000000000E+00 0.  1.
          1   -1    0    0  501    0  0.00000000000E+00 -0.00000000000E+00 -0.68998238585E+03  0.68998238585E+03  0.00000000000E+00 0. -1.
         23    2    1    2    0    0  0.19324901136E+03  0.39693138201E+02 -0.43814066438E+03  0.48939972081E+03  0.92866136658E+02 0.  0.
        254    2    1    2    0    0 -0.19324901136E+03 -0.39693138201E+02  0.69470165567E+03  0.11471260422E+04  0.89127270834E+03 0.  0.
        -24    2    4    4    0    0  0.24138906929E+03  0.45802827441E+02 -0.65218419135E+02  0.26389644093E+03  0.70861185200E+02 0.  0.
         24    2    4    4    0    0 -0.43463808065E+03 -0.85495965642E+02  0.75992007480E+03  0.88322960124E+03  0.79976165960E+02 0.  0.
         11    1    3    3    0    0  0.19557966672E+03  0.54521736643E+02 -0.40782857637E+03  0.45557455318E+03  0.00000000000E+00 0. -1.
        -11    1    3    3    0    0 -0.23306553543E+01 -0.14828598442E+02 -0.30312088011E+02  0.33825167638E+02  0.00000000000E+00 0.  1.
          2    1    6    6  502    0 -0.27326154355E+03 -0.71943400429E+02  0.41354767983E+03  0.50086865298E+03  0.00000000000E+00 0. -1.
          1    1    5    5  503    0  0.55851192887E+02  0.24456962740E+02  0.11402556044E+02  0.62028356884E+02  0.00000000000E+00 0. -1.
         -2    1    5    5    0  503  0.18553787640E+03  0.21345864700E+02 -0.76620975179E+02  0.20186808405E+03  0.00000000000E+00 0.  1.
         -1    1    6    6    0  502 -0.16137653710E+03 -0.13552565213E+02  0.34637239498E+03  0.38236094826E+03  0.00000000000E+00 0.  1.
<mgrwt>
<rscale>  0 0.16162899E+04</rscale>
<asrwt>0</asrwt>
<pdfrwt beam="1">  1        1 0.10615114E+00 0.16162899E+04</pdfrwt>
<pdfrwt beam="2">  1       -1 0.14562206E+00 0.16162899E+04</pdfrwt>
<totfact> 0.10081298E+01</totfact>
</mgrwt>
</event>
<event>
12    1  0.1504874E-007  0.1571936E+04  0.7818608E-02  0.8837976E-01
         -2   -1    0    0    0  501 -0.00000000000E+00  0.00000000000E+00  0.14808930043E+04  0.14808930043E+04  0.00000000000E+00 0.  1.
          2   -1    0    0  501    0  0.00000000000E+00 -0.00000000000E+00 -0.41714425246E+03  0.41714425246E+03  0.00000000000E+00 0. -1.
         23    2    1    2    0    0 -0.29066904980E+03 -0.11240856724E+03 -0.14826840545E+03  0.35759093432E+03  0.93613961315E+02 0.  0.
        254    2    1    2    0    0  0.29066904980E+03  0.11240856724E+03  0.12120171573E+04  0.15404463225E+04  0.89825670064E+03 0.  0.
        -24    2    4    4    0    0  0.57895129921E+03  0.22944280001E+03  0.75112504729E+03  0.97886623791E+03  0.78496303799E+02 0.  0.
         24    2    4    4    0    0 -0.28828224941E+03 -0.11703423277E+03  0.46089211003E+03  0.56158008455E+03  0.78402725167E+02 0.  0.
         13    1    3    3    0    0 -0.10570071345E+03 -0.45544772671E+02 -0.67631001675E+01  0.11529400099E+03  0.00000000000E+00 0.  1.
        -13    1    3    3    0    0 -0.18496833635E+03 -0.66863794572E+02 -0.14150530528E+03  0.24229693333E+03  0.00000000000E+00 0. -1.
          4    1    6    6  502    0 -0.37612315776E+02  0.27839256767E+01  0.94585815664E+02  0.10182785996E+03  0.00000000000E+00 0. -1.
          1    1    5    5  503    0  0.13009041387E+03  0.58679124084E+02  0.12457447907E+03  0.18943483370E+03  0.00000000000E+00 0. -1.
         -2    1    5    5    0  503  0.44886088534E+03  0.17076367592E+03  0.62655056822E+03  0.78943140421E+03  0.00000000000E+00 0.  1.
         -3    1    6    6    0  502 -0.25066993364E+03 -0.11981815844E+03  0.36630629436E+03  0.45975222458E+03  0.00000000000E+00 0.  1.
<mgrwt>
<rscale>  0 0.15719364E+04</rscale>
<asrwt>0</asrwt>
<pdfrwt beam="1">  1        2 0.64176040E-01 0.15719364E+04</pdfrwt>
<pdfrwt beam="2">  1       -2 0.22782969E+00 0.15719364E+04</pdfrwt>
<totfact> 0.64255352E+00</totfact>
</mgrwt>
</event>
<event>
12    1  0.1504874E-007  0.1149334E+04  0.7818608E-02  0.9158398E-01
         -1   -1    0    0    0  501 -0.00000000000E+00  0.00000000000E+00  0.37443680752E+03  0.37443680752E+03  0.00000000000E+00 0.  1.
          1   -1    0    0  501    0  0.00000000000E+00 -0.00000000000E+00 -0.88197011231E+03  0.88197011231E+03  0.00000000000E+00 0. -1.
         23    2    1    2    0    0  0.11961948184E+03  0.49437242646E+02 -0.27826419909E+03  0.32034551703E+03  0.91855453786E+02 0.  0.
        254    2    1    2    0    0 -0.11961948184E+03 -0.49437242646E+02 -0.22926910570E+03  0.93606140281E+03  0.89827265660E+03 0.  0.
        -24    2    4    4    0    0 -0.22823940098E+03 -0.41991851942E+03 -0.24194650773E+03  0.54167615592E+03  0.80312876804E+02 0.  0.
         24    2    4    4    0    0  0.10861991914E+03  0.37048127677E+03  0.12677402030E+02  0.39438524689E+03  0.79525739049E+02 0.  0.
         13    1    3    3    0    0  0.77383382028E+02 -0.78127457087E+01 -0.19993393028E+03  0.21452925975E+03  0.00000000000E+00 0.  1.
        -13    1    3    3    0    0  0.42236099808E+02  0.57249988354E+02 -0.78330268806E+02  0.10581625728E+03  0.00000000000E+00 0. -1.
          4    1    6    6  502    0  0.90806589667E+02  0.19925054763E+03  0.31433004502E+02  0.22121177914E+03  0.00000000000E+00 0. -1.
          3    1    5    5  503    0 -0.19304753941E+03 -0.38148778211E+03 -0.18924249295E+03  0.46756069286E+03  0.00000000000E+00 0. -1.
         -4    1    5    5    0  503 -0.35191861567E+02 -0.38430737311E+02 -0.52704014778E+02  0.74115463059E+02  0.00000000000E+00 0.  1.
         -3    1    6    6    0  502  0.17813329474E+02  0.17123072914E+03 -0.18755602473E+02  0.17317346776E+03  0.00000000000E+00 0.  1.
<mgrwt>
<rscale>  0 0.11493338E+04</rscale>
<asrwt>0</asrwt>
<pdfrwt beam="1">  1        1 0.13568771E+00 0.11493338E+04</pdfrwt>
<pdfrwt beam="2">  1       -1 0.57605663E-01 0.11493338E+04</pdfrwt>
<totfact> 0.57084876E+01</totfact>
</mgrwt>
</event>
<event>
12    1  0.1504874E-007  0.3185230E+04  0.7818608E-02  0.8192729E-01
         -2   -1    0    0    0  501 -0.00000000000E+00  0.00000000000E+00  0.10071066811E+04  0.10071066811E+04  0.00000000000E+00 0.  1.
          2   -1    0    0  501    0  0.00000000000E+00 -0.00000000000E+00 -0.25185240571E+04  0.25185240571E+04  0.00000000000E+00 0. -1.
         23    2    1    2    0    0 -0.14397343720E+04 -0.19491241625E+03 -0.51680540017E+03  0.15449855461E+04  0.95218716556E+02 0.  0.
        254    2    1    2    0    0  0.14397343720E+04  0.19491241625E+03 -0.99461197583E+03  0.19806451921E+04  0.90712539528E+03 0.  0.
        -24    2    4    4    0    0  0.14706723405E+04  0.32827177489E+03 -0.73929238595E+03  0.16799784034E+04  0.71656909659E+02 0.  0.
         24    2    4    4    0    0 -0.30937968513E+02 -0.13335935864E+03 -0.25531958988E+03  0.30066678872E+03  0.80439719230E+02 0.  0.
         13    1    3    3    0    0 -0.19101125302E+03 -0.41480363545E+02 -0.39762171093E+02  0.19946666285E+03  0.00000000000E+00 0. -1.
        -13    1    3    3    0    0 -0.12487231190E+04 -0.15343205270E+03 -0.47704322908E+03  0.13455188832E+04  0.00000000000E+00 0.  1.
          4    1    6    6  502    0 -0.41241307963E+02 -0.93743410231E+02 -0.23189737277E+03  0.25350555012E+03  0.00000000000E+00 0. -1.
          1    1    5    5  503    0  0.11992712584E+04  0.25568288174E+03 -0.62927350270E+03  0.13782635555E+04  0.00000000000E+00 0. -1.
         -2    1    5    5    0  503  0.27140108210E+03  0.72588893148E+02 -0.11001888325E+03  0.30171484790E+03  0.00000000000E+00 0.  1.
         -3    1    6    6    0  502  0.10303339450E+02 -0.39615948409E+02 -0.23422217119E+02  0.47161238607E+02  0.00000000000E+00 0.  1.
<mgrwt>
<rscale>  0 0.31852299E+04</rscale>
<asrwt>0</asrwt>
<pdfrwt beam="1">  1        2 0.38746523E+00 0.31852299E+04</pdfrwt>
<pdfrwt beam="2">  1       -2 0.15493949E+00 0.31852299E+04</pdfrwt>
<totfact> 0.78664290E-01</totfact>
</mgrwt>
</event>
<event>
12    1  0.1504874E-007  0.2183087E+04  0.7818608E-02  0.8525501E-01
         -1   -1    0    0    0  501 -0.00000000000E+00  0.00000000000E+00  0.89292099109E+03  0.89292099109E+03  0.00000000000E+00 0.  1.
          1   -1    0    0  501    0  0.00000000000E+00 -0.00000000000E+00 -0.13343479639E+04  0.13343479639E+04  0.00000000000E+00 0. -1.
         23    2    1    2    0    0 -0.45328505774E+03 -0.13663565642E+03 -0.97244294270E+03  0.10853872617E+04  0.91014201474E+02 0.  0.
        254    2    1    2    0    0  0.45328505774E+03  0.13663565642E+03  0.53101596994E+03  0.11418816932E+04  0.89318486041E+03 0.  0.
        -24    2    4    4    0    0  0.38431694151E+03 -0.66508866017E+02 -0.14849915668E+03  0.42483233692E+03  0.79420237736E+02 0.  0.
         24    2    4    4    0    0  0.68968116220E+02  0.20314452243E+03  0.67951512662E+03  0.71704935633E+03  0.79966705932E+02 0.  0.
         13    1    3    3    0    0 -0.38911080478E+03 -0.92017749972E+02 -0.75531791921E+03  0.85462251538E+03  0.00000000000E+00 0. -1.
        -13    1    3    3    0    0 -0.64174252953E+02 -0.44617906445E+02 -0.21712502349E+03  0.23076474632E+03  0.00000000000E+00 0.  1.
          4    1    6    6  502    0  0.78119114054E+02  0.19509209177E+03  0.66801559965E+03  0.70029162613E+03  0.00000000000E+00 0. -1.
          1    1    5    5  503    0  0.32394103181E+03 -0.80745459571E+02 -0.10857932630E+03  0.35106565117E+03  0.00000000000E+00 0. -1.
         -2    1    5    5    0  503  0.60375909703E+02  0.14236593554E+02 -0.39919830377E+02  0.73766685745E+02  0.00000000000E+00 0.  1.
         -3    1    6    6    0  502 -0.91509978332E+01  0.80524306617E+01  0.11499526970E+02  0.16757730200E+02  0.00000000000E+00 0.  1.
<mgrwt>
<rscale>  0 0.21830871E+04</rscale>
<asrwt>0</asrwt>
<pdfrwt beam="1">  1        1 0.20528430E+00 0.21830871E+04</pdfrwt>
<pdfrwt beam="2">  1       -1 0.13737246E+00 0.21830871E+04</pdfrwt>
<totfact> 0.34380536E+00</totfact>
</mgrwt>
</event>
<event>
12    1  0.1504874E-007  0.3251831E+04  0.7818608E-02  0.8175261E-01
          2   -1    0    0  501    0  0.00000000000E+00  0.00000000000E+00  0.18779404866E+04  0.18779404866E+04  0.00000000000E+00 0. -1.
         -2   -1    0    0    0  501 -0.00000000000E+00 -0.00000000000E+00 -0.14077129024E+04  0.14077129024E+04  0.00000000000E+00 0.  1.
         23    2    1    2    0    0  0.47331612435E+03 -0.55290759243E+03 -0.11070546387E+04  0.13276312762E+04  0.85439295897E+02 0.  0.
        254    2    1    2    0    0 -0.47331612435E+03  0.55290759243E+03  0.15772822229E+04  0.19580221128E+04  0.90349124190E+03 0.  0.
        -24    2    4    4    0    0  0.12037852821E+02  0.37395696955E+03  0.13198660139E+04  0.13741935949E+04  0.79831176494E+02 0.  0.
         24    2    4    4    0    0 -0.48535397717E+03  0.17895062288E+03  0.25741620898E+03  0.58382851785E+03  0.83670932959E+02 0.  0.
         11    1    3    3    0    0  0.32480933934E+03 -0.43058806223E+03 -0.84683250689E+03  0.10040082076E+04  0.00000000000E+00 0.  1.
        -11    1    3    3    0    0  0.14850678501E+03 -0.12231953019E+03 -0.26022213176E+03  0.32362306859E+03  0.00000000000E+00 0. -1.
          2    1    6    6  502    0 -0.22625071463E+03  0.45231979078E+02  0.90377534858E+02  0.24779712793E+03  0.00000000000E+00 0. -1.
          1    1    5    5  503    0 -0.26288745116E+02  0.11572992272E+03  0.33861253258E+03  0.35880769272E+03  0.00000000000E+00 0. -1.
         -2    1    5    5    0  503  0.38326597937E+02  0.25822704683E+03  0.98125348131E+03  0.10153859022E+04  0.00000000000E+00 0.  1.
         -1    1    6    6    0  502 -0.25910326254E+03  0.13371864380E+03  0.16703867412E+03  0.33603138992E+03  0.00000000000E+00 0.  1.
<mgrwt>
<rscale>  0 0.32518309E+04</rscale>
<asrwt>0</asrwt>
<pdfrwt beam="1">  1        2 0.28891392E+00 0.32518309E+04</pdfrwt>
<pdfrwt beam="2">  1       -2 0.21657121E+00 0.32518309E+04</pdfrwt>
<totfact> 0.68065798E-01</totfact>
</mgrwt>
</event>
<event>
12    1  0.1504874E-007  0.3968175E+04  0.7818608E-02  0.8010998E-01
         -2   -1    0    0    0  501 -0.00000000000E+00  0.00000000000E+00  0.14637068785E+04  0.14637068785E+04  0.00000000000E+00 0.  1.
          2   -1    0    0  501    0  0.00000000000E+00 -0.00000000000E+00 -0.26894746802E+04  0.26894746802E+04  0.00000000000E+00 0. -1.
         23    2    1    2    0    0 -0.61626908484E+03  0.13713576776E+04  0.60160600137E+03  0.16219748263E+04  0.91995061831E+02 0.  0.
        254    2    1    2    0    0  0.61626908484E+03 -0.13713576776E+04 -0.18273738031E+04  0.25312067325E+04  0.89850044036E+03 0.  0.
        -24    2    4    4    0    0  0.11387652849E+03 -0.10745777966E+04 -0.79917373558E+03  0.13463434884E+04  0.79226412413E+02 0.  0.
         24    2    4    4    0    0  0.50239255636E+03 -0.29677988105E+03 -0.10282000675E+04  0.11848632441E+04  0.78923696650E+02 0.  0.
         13    1    3    3    0    0 -0.47415447669E+03  0.11334372549E+04  0.47412447642E+03  0.13169269143E+04  0.00000000000E+00 0.  1.
        -13    1    3    3    0    0 -0.14211460815E+03  0.23792042273E+03  0.12748152496E+03  0.30504791199E+03  0.00000000000E+00 0. -1.
          4    1    6    6  502    0  0.45483877313E+03 -0.27584138446E+03 -0.97391250435E+03  0.11097172365E+04  0.00000000000E+00 0. -1.
          3    1    5    5  503    0  0.11344641122E+03 -0.95166454483E+03 -0.73425838737E+03  0.12073404133E+04  0.00000000000E+00 0. -1.
         -4    1    5    5    0  503  0.43011726983E+00 -0.12291325172E+03 -0.64915348216E+02  0.13900307509E+03  0.00000000000E+00 0.  1.
         -3    1    6    6    0  502  0.47553783224E+02 -0.20938496593E+02 -0.54287563160E+02  0.75146007561E+02  0.00000000000E+00 0.  1.
<mgrwt>
<rscale>  0 0.39681747E+04</rscale>
<asrwt>0</asrwt>
<pdfrwt beam="1">  1        2 0.41376533E+00 0.39681747E+04</pdfrwt>
<pdfrwt beam="2">  1       -2 0.22518568E+00 0.39681747E+04</pdfrwt>
<totfact> 0.19527295E-01</totfact>
</mgrwt>
</event>
<event>
12    1  0.1504874E-007  0.2562659E+04  0.7818608E-02  0.8380997E-01
         -2   -1    0    0    0  501 -0.00000000000E+00  0.00000000000E+00  0.93053331513E+03  0.93053331513E+03  0.00000000000E+00 0.  1.
          2   -1    0    0  501    0  0.00000000000E+00 -0.00000000000E+00 -0.17643706950E+04  0.17643706950E+04  0.00000000000E+00 0. -1.
         23    2    1    2    0    0  0.31573212538E+03  0.96216320714E+03 -0.87144266463E+03  0.13392320745E+04  0.93195597964E+02 0.  0.
        254    2    1    2    0    0 -0.31573212538E+03 -0.96216320714E+03  0.37605284739E+02  0.13556719356E+04  0.90054840374E+03 0.  0.
        -24    2    4    4    0    0 -0.29282492339E+03 -0.82253310074E+02  0.29874313030E+03  0.43423205435E+03  0.82449841381E+02 0.  0.
         24    2    4    4    0    0 -0.22907201995E+02 -0.87990989707E+03 -0.26113784556E+03  0.92143988130E+03  0.78053274116E+02 0.  0.
         11    1    3    3    0    0  0.21224508675E+03  0.76482436082E+03 -0.69511613267E+03  0.10550785363E+04  0.00000000000E+00 0. -1.
        -11    1    3    3    0    0  0.10348703864E+03  0.19733884632E+03 -0.17632653196E+03  0.28415353825E+03  0.00000000000E+00 0.  1.
          4    1    6    6  502    0 -0.39148473256E+02 -0.82462077437E+03 -0.23640542654E+03  0.85873136089E+03  0.00000000000E+00 0. -1.
          3    1    5    5  503    0 -0.14798238582E+03 -0.34502198485E+02  0.20514147602E+03  0.25528849053E+03  0.00000000000E+00 0. -1.
         -4    1    5    5    0  503 -0.14484253757E+03 -0.47751111588E+02  0.93601654283E+02  0.17894356382E+03  0.00000000000E+00 0.  1.
         -3    1    6    6    0  502  0.16241271260E+02 -0.55289122692E+02 -0.24732419021E+02  0.62708520401E+02  0.00000000000E+00 0.  1.
<mgrwt>
<rscale>  0 0.25626593E+04</rscale>
<asrwt>0</asrwt>
<pdfrwt beam="1">  1        2 0.27144164E+00 0.25626593E+04</pdfrwt>
<pdfrwt beam="2">  1       -2 0.14315897E+00 0.25626593E+04</pdfrwt>
<totfact> 0.27155927E+00</totfact>
</mgrwt>
</event>
<event>
12    1  0.1504874E-007  0.2747584E+04  0.7818608E-02  0.8319729E-01
         -2   -1    0    0    0  501 -0.00000000000E+00  0.00000000000E+00  0.11875520548E+04  0.11875520548E+04  0.00000000000E+00 0.  1.
          2   -1    0    0  501    0  0.00000000000E+00 -0.00000000000E+00 -0.15892394521E+04  0.15892394521E+04  0.00000000000E+00 0. -1.
         23    2    1    2    0    0  0.95918586512E+02  0.47958858199E+03 -0.13115553515E+04  0.14027923320E+04  0.91887450032E+02 0.  0.
        254    2    1    2    0    0 -0.95918586512E+02 -0.47958858199E+03  0.90986795412E+03  0.13739991750E+04  0.90598479884E+03 0.  0.
        -24    2    4    4    0    0  0.13428841751E+03  0.25400685357E+01 -0.12869091979E+03  0.20342176974E+03  0.82336095024E+02 0.  0.
         24    2    4    4    0    0 -0.23020700402E+03 -0.48212865053E+03  0.10385588739E+04  0.11705774052E+04  0.78763105170E+02 0.  0.
         13    1    3    3    0    0  0.10155020517E+03  0.46934553299E+03 -0.13018748091E+04  0.13876151095E+04  0.00000000000E+00 0. -1.
        -13    1    3    3    0    0 -0.56316186540E+01  0.10243048999E+02 -0.96805423142E+01  0.15177222439E+02  0.00000000000E+00 0.  1.
          2    1    6    6  502    0  0.53340079860E+01 -0.14078017046E+02  0.18856517168E+02  0.24129037379E+02  0.00000000000E+00 0. -1.
          1    1    5    5  503    0  0.26878542861E+02  0.94046714353E+01  0.78717278231E+01  0.29544339729E+02  0.00000000000E+00 0. -1.
         -2    1    5    5    0  503  0.10740987465E+03 -0.68646028996E+01 -0.13656264762E+03  0.17387743001E+03  0.00000000000E+00 0.  1.
         -1    1    6    6    0  502 -0.23554101200E+03 -0.46805063348E+03  0.10197023567E+04  0.11464483679E+04  0.00000000000E+00 0.  1.
<mgrwt>
<rscale>  0 0.27475841E+04</rscale>
<asrwt>0</asrwt>
<pdfrwt beam="1">  1        2 0.24449838E+00 0.27475841E+04</pdfrwt>
<pdfrwt beam="2">  1       -2 0.18270032E+00 0.27475841E+04</pdfrwt>
<totfact> 0.17169875E+00</totfact>
</mgrwt>
</event>
<event>
12    1  0.1504874E-007  0.1656095E+04  0.7818608E-02  0.8786809E-01
         -1   -1    0    0    0  501 -0.00000000000E+00  0.00000000000E+00  0.68944608530E+03  0.68944608530E+03  0.00000000000E+00 0.  1.
          1   -1    0    0  501    0  0.00000000000E+00 -0.00000000000E+00 -0.99451270206E+03  0.99451270206E+03  0.00000000000E+00 0. -1.
         23    2    1    2    0    0  0.40411710366E+03  0.19873489349E+03 -0.48592921246E+03  0.66857100208E+03  0.89742932479E+02 0.  0.
        254    2    1    2    0    0 -0.40411710366E+03 -0.19873489349E+03  0.18086259570E+03  0.10153877853E+04  0.89190519935E+03 0.  0.
        -24    2    4    4    0    0 -0.44600853106E+02  0.21216473704E+03 -0.23079645179E+03  0.32691553185E+03  0.81262851670E+02 0.  0.
         24    2    4    4    0    0 -0.35951625056E+03 -0.41089963052E+03  0.41165904749E+03  0.68847225344E+03  0.80252299645E+02 0.  0.
         11    1    3    3    0    0  0.32837928832E+03  0.14686054463E+03 -0.33293844436E+03  0.49015200122E+03  0.00000000000E+00 0.  1.
        -11    1    3    3    0    0  0.75737815347E+02  0.51874348859E+02 -0.15299076810E+03  0.17841900086E+03  0.00000000000E+00 0. -1.
          4    1    6    6  502    0 -0.24300767299E+03 -0.33070786939E+03  0.30402660809E+03  0.51073731255E+03  0.00000000000E+00 0. -1.
          1    1    5    5  503    0 -0.38868350001E+02  0.17710386538E+03 -0.22795866985E+03  0.29127595665E+03  0.00000000000E+00 0. -1.
         -2    1    5    5    0  503 -0.57325031058E+01  0.35060871663E+02 -0.28377819399E+01  0.35639575194E+02  0.00000000000E+00 0.  1.
         -3    1    6    6    0  502 -0.11650857757E+03 -0.80191761132E+02  0.10763243940E+03  0.17773494089E+03  0.00000000000E+00 0.  1.
<mgrwt>
<rscale>  0 0.16560953E+04</rscale>
<asrwt>0</asrwt>
<pdfrwt beam="1">  1        1 0.15300195E+00 0.16560953E+04</pdfrwt>
<pdfrwt beam="2">  1       -1 0.10606863E+00 0.16560953E+04</pdfrwt>
<totfact> 0.12138173E+01</totfact>
</mgrwt>
</event>
<event>
12    1  0.1589752E-007  0.1991061E+04  0.7818608E-02  0.8610811E-01
          2   -1    0    0  501    0  0.00000000000E+00  0.00000000000E+00  0.98184517722E+03  0.98184517722E+03  0.00000000000E+00 0. -1.
         -2   -1    0    0    0  501 -0.00000000000E+00 -0.00000000000E+00 -0.10094065570E+04  0.10094065570E+04  0.00000000000E+00 0.  1.
         23    2    1    2    0    0  0.18921425260E+03 -0.17576081425E+03  0.73233948597E+03  0.78189380068E+03  0.91339452711E+02 0.  0.
        254    2    1    2    0    0 -0.18921425260E+03  0.17576081425E+03 -0.75990086573E+03  0.12093579335E+04  0.90465650300E+03 0.  0.
        -24    2    4    4    0    0  0.84992832879E+02  0.48174291070E+03 -0.26815200088E+03  0.56345967843E+03  0.79254652797E+02 0.  0.
         24    2    4    4    0    0 -0.27420708548E+03 -0.30598209645E+03 -0.49174886485E+03  0.64589825509E+03  0.80950854050E+02 0.  0.
         11    1    3    3    0    0  0.19572837793E+03 -0.16426761667E+03  0.71927040050E+03  0.76331078654E+03  0.00000000000E+00 0. -1.
        -11    1    3    3    0    0 -0.65141253353E+01 -0.11493197582E+02  0.13069085471E+02  0.18583014142E+02  0.00000000000E+00 0.  1.
          4    1    6    6  502    0 -0.24809559587E+03 -0.22972145895E+03 -0.40077389998E+03  0.52435016192E+03  0.00000000000E+00 0. -1.
          1    1    5    5  503    0  0.94833260685E+02  0.33617818844E+03 -0.19894634971E+03  0.40198105898E+03  0.00000000000E+00 0. -1.
         -2    1    5    5    0  503 -0.98404278052E+01  0.14556472226E+03 -0.69205651173E+02  0.16147861945E+03  0.00000000000E+00 0.  1.
         -3    1    6    6    0  502 -0.26111489602E+02 -0.76260637500E+02 -0.90974964864E+02  0.12154809317E+03  0.00000000000E+00 0.  1.
<mgrwt>
<rscale>  0 0.19910610E+04</rscale>
<asrwt>0</asrwt>
<pdfrwt beam="1">  1        2 0.15105310E+00 0.19910610E+04</pdfrwt>
<pdfrwt beam="2">  1       -2 0.15529332E+00 0.19910610E+04</pdfrwt>
<totfact> 0.65704753E+00</totfact>
</mgrwt>
</event>
<event>
12    1  0.1504874E-007  0.1499404E+04  0.7818608E-02  0.8884849E-01
          2   -1    0    0  501    0  0.00000000000E+00  0.00000000000E+00  0.12872982160E+04  0.12872982160E+04  0.00000000000E+00 0. -1.
         -2   -1    0    0    0  501 -0.00000000000E+00 -0.00000000000E+00 -0.43661460431E+03  0.43661460431E+03  0.00000000000E+00 0.  1.
         23    2    1    2    0    0  0.73217974459E+02  0.46650983654E+03  0.28702750660E+03  0.56004683951E+03  0.90969080111E+02 0.  0.
        254    2    1    2    0    0 -0.73217974459E+02 -0.46650983654E+03  0.56365610514E+03  0.11638659808E+04  0.90215492966E+03 0.  0.
        -24    2    4    4    0    0 -0.44430433122E+03 -0.68492063994E+02  0.33983645680E+03  0.56955442542E+03  0.82498027679E+02 0.  0.
         24    2    4    4    0    0  0.37108635676E+03 -0.39801777254E+03  0.22381964834E+03  0.59431155541E+03  0.83592813570E+02 0.  0.
         13    1    3    3    0    0  0.70515821290E+02  0.23656403371E+03  0.11208524316E+03  0.27110537588E+03  0.00000000000E+00 0. -1.
        -13    1    3    3    0    0  0.27021531691E+01  0.22994580283E+03  0.17494226344E+03  0.28894146363E+03  0.00000000000E+00 0.  1.
          4    1    6    6  502    0  0.28845340788E+03 -0.33669821544E+03  0.20967903665E+03  0.49044505830E+03  0.00000000000E+00 0. -1.
          1    1    5    5  503    0 -0.42911191531E+03 -0.49100397357E+02  0.31503514601E+03  0.53459800608E+03  0.00000000000E+00 0. -1.
         -2    1    5    5    0  503 -0.15192415914E+02 -0.19391666637E+02  0.24801310794E+02  0.34956419344E+02  0.00000000000E+00 0.  1.
         -3    1    6    6    0  502  0.82632948882E+02 -0.61319557106E+02  0.14140611688E+02  0.10386649712E+03  0.00000000000E+00 0.  1.
<mgrwt>
<rscale>  0 0.14994041E+04</rscale>
<asrwt>0</asrwt>
<pdfrwt beam="1">  1        2 0.19804588E+00 0.14994041E+04</pdfrwt>
<pdfrwt beam="2">  1       -2 0.67171478E-01 0.14994041E+04</pdfrwt>
<totfact> 0.33043242E+01</totfact>
</mgrwt>
</event>
<event>
12    1  0.1504874E-007  0.1628241E+04  0.7818608E-02  0.8803384E-01
          1   -1    0    0  501    0  0.00000000000E+00  0.00000000000E+00  0.93096297461E+03  0.93096297461E+03  0.00000000000E+00 0. -1.
         -1   -1    0    0    0  501 -0.00000000000E+00 -0.00000000000E+00 -0.71194251213E+03  0.71194251213E+03  0.00000000000E+00 0.  1.
         23    2    1    2    0    0  0.79690319586E+02  0.42442913711E+03 -0.27267496937E+03  0.51872722874E+03  0.90750534175E+02 0.  0.
        254    2    1    2    0    0 -0.79690319586E+02 -0.42442913711E+03  0.49169543185E+03  0.11241782580E+04  0.91406877125E+03 0.  0.
        -24    2    4    4    0    0 -0.28433559331E+03 -0.13811665579E+03  0.65243705769E+03  0.72912325090E+03  0.77612244659E+02 0.  0.
         24    2    4    4    0    0  0.20464527372E+03 -0.28631248132E+03 -0.16074162584E+03  0.39505500709E+03  0.79850255696E+02 0.  0.
         13    1    3    3    0    0  0.13134222761E+02  0.11980648899E+03 -0.12525821846E+03  0.17382670654E+03  0.00000000000E+00 0.  1.
        -13    1    3    3    0    0  0.66556096825E+02  0.30462264811E+03 -0.14741675091E+03  0.34490052220E+03  0.00000000000E+00 0. -1.
          4    1    6    6  502    0  0.57988777133E+01  0.15619155082E+01 -0.14783848489E+02  0.15957090554E+02  0.00000000000E+00 0. -1.
          3    1    5    5  503    0 -0.10095718126E+03 -0.91573002006E+02  0.27382480593E+03  0.30587250855E+03  0.00000000000E+00 0. -1.
         -4    1    5    5    0  503 -0.18337841205E+03 -0.46543653783E+02  0.37861225176E+03  0.42325074234E+03  0.00000000000E+00 0.  1.
         -3    1    6    6    0  502  0.19884639601E+03 -0.28787439683E+03 -0.14595777735E+03  0.37909791654E+03  0.00000000000E+00 0.  1.
<mgrwt>
<rscale>  0 0.16282409E+04</rscale>
<asrwt>0</asrwt>
<pdfrwt beam="1">  1        1 0.14322507E+00 0.16282409E+04</pdfrwt>
<pdfrwt beam="2">  1       -1 0.10952962E+00 0.16282409E+04</pdfrwt>
<totfact> 0.12675197E+01</totfact>
</mgrwt>
</event>
<event>
12    1  0.1504874E-007  0.1303721E+04  0.7818608E-02  0.9026620E-01
         -2   -1    0    0    0  501 -0.00000000000E+00  0.00000000000E+00  0.71612974043E+03  0.71612974043E+03  0.00000000000E+00 0.  1.
          2   -1    0    0  501    0  0.00000000000E+00 -0.00000000000E+00 -0.59335871517E+03  0.59335871517E+03  0.00000000000E+00 0. -1.
         23    2    1    2    0    0 -0.65190436880E+02 -0.33915010556E+01  0.34733030990E+03  0.36743523475E+03  0.10054358367E+03 0.  0.
        254    2    1    2    0    0  0.65190436880E+02  0.33915010556E+01 -0.22455928464E+03  0.94205322085E+03  0.91256567065E+03 0.  0.
        -24    2    4    4    0    0  0.15508280522E+02 -0.43773612282E+03 -0.20667452616E+03  0.49054205689E+03  0.77869954573E+02 0.  0.
         24    2    4    4    0    0  0.49682156358E+02  0.44112762388E+03 -0.17884758482E+02  0.45151116396E+03  0.80501983743E+02 0.  0.
         11    1    3    3    0    0 -0.54301079649E+02  0.39092449755E+02  0.27346079435E+03  0.28152732181E+03  0.00000000000E+00 0.  1.
        -11    1    3    3    0    0 -0.10889357230E+02 -0.42483950810E+02  0.73869515552E+02  0.85907912937E+02  0.00000000000E+00 0. -1.
          2    1    6    6  502    0  0.15962969086E+02  0.36959335785E+03 -0.31452805630E+02  0.37127260272E+03  0.00000000000E+00 0. -1.
          3    1    5    5  503    0 -0.18176736372E+02 -0.33915680150E+03 -0.14354757469E+03  0.36873247205E+03  0.00000000000E+00 0. -1.
         -4    1    5    5    0  503  0.33685016894E+02 -0.98579321324E+02 -0.63126951469E+02  0.12180958483E+03  0.00000000000E+00 0.  1.
         -1    1    6    6    0  502  0.33719187272E+02  0.71534266026E+02  0.13568047149E+02  0.80238561238E+02  0.00000000000E+00 0.  1.
<mgrwt>
<rscale>  0 0.13037206E+04</rscale>
<asrwt>0</asrwt>
<pdfrwt beam="1">  1        2 0.91285956E-01 0.13037206E+04</pdfrwt>
<pdfrwt beam="2">  1       -2 0.11017381E+00 0.13037206E+04</pdfrwt>
<totfact> 0.32241754E+01</totfact>
</mgrwt>
</event>
<event>
12    1  0.1504874E-007  0.1532052E+04  0.7818608E-02  0.8863414E-01
         -2   -1    0    0    0  501 -0.00000000000E+00  0.00000000000E+00  0.19296890904E+03  0.19296890904E+03  0.00000000000E+00 0.  1.
          2   -1    0    0  501    0  0.00000000000E+00 -0.00000000000E+00 -0.30408809046E+04  0.30408809046E+04  0.00000000000E+00 0. -1.
         23    2    1    2    0    0  0.38905241669E+03  0.13321877258E+03 -0.38688498555E+03  0.57190407625E+03  0.91023382115E+02 0.  0.
        254    2    1    2    0    0 -0.38905241669E+03 -0.13321877258E+03 -0.24610270100E+04  0.26619457374E+04  0.92746543897E+03 0.  0.
        -24    2    4    4    0    0 -0.12950399025E+03 -0.44660970175E+03 -0.19375393669E+04  0.19941572919E+04  0.79831054187E+02 0.  0.
         24    2    4    4    0    0 -0.25954842644E+03  0.31339092918E+03 -0.52348764308E+03  0.66778844549E+03  0.79516258209E+02 0.  0.
         13    1    3    3    0    0  0.18104544615E+03  0.74349926368E+02 -0.24390213228E+03  0.31271970717E+03  0.00000000000E+00 0. -1.
        -13    1    3    3    0    0  0.20800697054E+03  0.58868846207E+02 -0.14298285327E+03  0.25918436908E+03  0.00000000000E+00 0.  1.
          4    1    6    6  502    0 -0.40133158709E+02  0.61363493378E+02 -0.14784248395E+03  0.16502590345E+03  0.00000000000E+00 0. -1.
          1    1    5    5  503    0 -0.46317879123E+02 -0.13495780548E+03 -0.45136140830E+03  0.47337730838E+03  0.00000000000E+00 0. -1.
         -2    1    5    5    0  503 -0.83186111129E+02 -0.31165189628E+03 -0.14861779586E+04  0.15207799835E+04  0.00000000000E+00 0.  1.
         -3    1    6    6    0  502 -0.21941526773E+03  0.25202743580E+03 -0.37564515913E+03  0.50276254205E+03  0.00000000000E+00 0.  1.
<mgrwt>
<rscale>  0 0.15320515E+04</rscale>
<asrwt>0</asrwt>
<pdfrwt beam="1">  1        2 0.46782783E+00 0.15320515E+04</pdfrwt>
<pdfrwt beam="2">  1       -2 0.29687525E-01 0.15320515E+04</pdfrwt>
<totfact> 0.16660090E+01</totfact>
</mgrwt>
</event>
<event>
12    1  0.1504874E-007  0.2023543E+04  0.7818608E-02  0.8595692E-01
          2   -1    0    0  501    0  0.00000000000E+00  0.00000000000E+00  0.22415091075E+04  0.22415091075E+04  0.00000000000E+00 0. -1.
         -2   -1    0    0    0  501 -0.00000000000E+00 -0.00000000000E+00 -0.45669307819E+03  0.45669307819E+03  0.00000000000E+00 0.  1.
         23    2    1    2    0    0 -0.73198577434E+02 -0.68359087295E+02 -0.34805949158E+03  0.37390360648E+03  0.92884340470E+02 0.  0.
        254    2    1    2    0    0  0.73198577434E+02  0.68359087295E+02  0.21328755209E+04  0.23242985792E+04  0.91824555599E+03 0.  0.
        -24    2    4    4    0    0 -0.27025511863E+03  0.25162193841E+02  0.17195829290E+03  0.33146164782E+03  0.81401500797E+02 0.  0.
         24    2    4    4    0    0  0.34345369607E+03  0.43196893453E+02  0.19609172280E+04  0.19928369314E+04  0.79851406173E+02 0.  0.
         13    1    3    3    0    0 -0.44499780389E+02 -0.80495039940E+02 -0.17141725872E+03  0.19453420907E+03  0.00000000000E+00 0.  1.
        -13    1    3    3    0    0 -0.28698797046E+02  0.12135952646E+02 -0.17664223286E+03  0.17936939742E+03  0.00000000000E+00 0. -1.
          4    1    6    6  502    0  0.28918282710E+02 -0.13084541076E+02  0.10789544794E+03  0.11246732848E+03  0.00000000000E+00 0. -1.
          1    1    5    5  503    0 -0.19829945244E+02  0.18357004637E+02 -0.99562065279E+00  0.27040665822E+02  0.00000000000E+00 0. -1.
         -2    1    5    5    0  503 -0.25042517339E+03  0.68051892042E+01  0.17295391355E+03  0.30442098200E+03  0.00000000000E+00 0.  1.
         -3    1    6    6    0  502  0.31453541336E+03  0.56281434529E+02  0.18530217801E+04  0.18803696029E+04  0.00000000000E+00 0.  1.
<mgrwt>
<rscale>  0 0.20235431E+04</rscale>
<asrwt>0</asrwt>
<pdfrwt beam="1">  1        2 0.34484755E+00 0.20235431E+04</pdfrwt>
<pdfrwt beam="2">  1       -2 0.70260475E-01 0.20235431E+04</pdfrwt>
<totfact> 0.83663123E+00</totfact>
</mgrwt>
</event>
<event>
12    1  0.1504874E-007  0.1636253E+04  0.7818608E-02  0.8798581E-01
         -2   -1    0    0    0  501 -0.00000000000E+00  0.00000000000E+00  0.11577965796E+04  0.11577965796E+04  0.00000000000E+00 0.  1.
          2   -1    0    0  501    0  0.00000000000E+00 -0.00000000000E+00 -0.57810723392E+03  0.57810723392E+03  0.00000000000E+00 0. -1.
         23    2    1    2    0    0  0.45548764755E+03 -0.20594456456E+03 -0.80517817319E+02  0.51463349223E+03  0.92099683400E+02 0.  0.
        254    2    1    2    0    0 -0.45548764755E+03  0.20594456456E+03  0.66020716303E+03  0.12212703213E+04  0.89763329866E+03 0.  0.
        -24    2    4    4    0    0 -0.58514239885E+03  0.44090458120E+03  0.55254138884E+03  0.92130224748E+03  0.81898523582E+02 0.  0.
         24    2    4    4    0    0  0.12965475131E+03 -0.23496001665E+03  0.10766577419E+03  0.29996807383E+03  0.79827078291E+02 0.  0.
         11    1    3    3    0    0  0.36821928253E+03 -0.13536469062E+03 -0.36258095556E+02  0.39398437657E+03  0.00000000000E+00 0. -1.
        -11    1    3    3    0    0  0.87268365019E+02 -0.70579873939E+02 -0.44259721762E+02  0.12064911566E+03  0.00000000000E+00 0.  1.
          4    1    6    6  502    0  0.11292268019E+03 -0.14286496011E+03  0.45823493774E+02  0.18778104566E+03  0.00000000000E+00 0. -1.
          3    1    5    5  503    0 -0.49466942421E+03  0.39449087358E+03  0.44654171771E+03  0.77441616347E+03  0.00000000000E+00 0. -1.
         -4    1    5    5    0  503 -0.90472974636E+02  0.46413707626E+02  0.10599967113E+03  0.14688608400E+03  0.00000000000E+00 0.  1.
         -3    1    6    6    0  502  0.16732071111E+02 -0.92095056539E+02  0.61842280412E+02  0.11218702817E+03  0.00000000000E+00 0.  1.
<mgrwt>
<rscale>  0 0.16362525E+04</rscale>
<asrwt>0</asrwt>
<pdfrwt beam="1">  1        2 0.88939575E-01 0.16362525E+04</pdfrwt>
<pdfrwt beam="2">  1       -2 0.17812255E+00 0.16362525E+04</pdfrwt>
<totfact> 0.92592697E+00</totfact>
</mgrwt>
</event>
<event>
12    1  0.1504874E-007  0.1956715E+04  0.7818608E-02  0.8627130E-01
          1   -1    0    0  501    0  0.00000000000E+00  0.00000000000E+00  0.10173263378E+04  0.10173263378E+04  0.00000000000E+00 0. -1.
         -1   -1    0    0    0  501 -0.00000000000E+00 -0.00000000000E+00 -0.94088112495E+03  0.94088112495E+03  0.00000000000E+00 0.  1.
         23    2    1    2    0    0  0.67271791093E+02  0.63654218212E+03  0.45500496496E+03  0.79091495387E+03  0.93837639707E+02 0.  0.
        254    2    1    2    0    0 -0.67271791093E+02 -0.63654218212E+03 -0.37855975215E+03  0.11672925088E+04  0.89975156113E+03 0.  0.
        -24    2    4    4    0    0 -0.26563491575E+03 -0.79084815934E+02  0.18959017306E+03  0.34307837350E+03  0.70299502610E+02 0.  0.
         24    2    4    4    0    0  0.19836312466E+03 -0.55745736619E+03 -0.56814992521E+03  0.82421413534E+03  0.80174553534E+02 0.  0.
         11    1    3    3    0    0  0.36895821022E+02  0.58186989702E+03  0.42530487548E+03  0.72167729338E+03  0.00000000000E+00 0. -1.
        -11    1    3    3    0    0  0.30375970071E+02  0.54672285099E+02  0.29700089474E+02  0.69237660492E+02  0.00000000000E+00 0.  1.
          2    1    6    6  502    0  0.23728050926E+01 -0.74736248920E+02 -0.53926113939E+02  0.92190904492E+02  0.00000000000E+00 0. -1.
          3    1    5    5  503    0 -0.77568754858E+02  0.72552332770E+01  0.38836278921E+02  0.87050598508E+02  0.00000000000E+00 0. -1.
         -4    1    5    5    0  503 -0.18806616089E+03 -0.86340049212E+02  0.15075389414E+03  0.25602777500E+03  0.00000000000E+00 0.  1.
         -1    1    6    6    0  502  0.19599031957E+03 -0.48272111727E+03 -0.51422381127E+03  0.73202323084E+03  0.00000000000E+00 0.  1.
<mgrwt>
<rscale>  0 0.19567147E+04</rscale>
<asrwt>0</asrwt>
<pdfrwt beam="1">  1        1 0.15651174E+00 0.19567147E+04</pdfrwt>
<pdfrwt beam="2">  1       -1 0.14475094E+00 0.19567147E+04</pdfrwt>
<totfact> 0.52423829E+00</totfact>
</mgrwt>
</event>
<event>
12    1  0.1504874E-007  0.1413530E+04  0.7818608E-02  0.8944083E-01
         -2   -1    0    0    0  501 -0.00000000000E+00  0.00000000000E+00  0.10166535327E+04  0.10166535327E+04  0.00000000000E+00 0.  1.
          2   -1    0    0  501    0  0.00000000000E+00 -0.00000000000E+00 -0.49133432672E+03  0.49133432672E+03  0.00000000000E+00 0. -1.
         23    2    1    2    0    0  0.28685750257E+03 -0.48636518621E+02 -0.16720826576E+03  0.34649683165E+03  0.86305923749E+02 0.  0.
        254    2    1    2    0    0 -0.28685750257E+03  0.48636518621E+02  0.69252747176E+03  0.11614910278E+04  0.88589749450E+03 0.  0.
        -24    2    4    4    0    0 -0.44174544281E+03 -0.29444594637E+03  0.48792519077E+03  0.72522443216E+03  0.77730519345E+02 0.  0.
         24    2    4    4    0    0  0.15488794024E+03  0.34308246499E+03  0.20460228099E+03  0.43626659562E+03  0.82283639043E+02 0.  0.
         13    1    3    3    0    0  0.26277135362E+03 -0.49774997825E+02 -0.11926618808E+03  0.29283230408E+03  0.00000000000E+00 0. -1.
        -13    1    3    3    0    0  0.24086148949E+02  0.11384792034E+01 -0.47942077684E+02  0.53664527565E+02  0.00000000000E+00 0.  1.
          4    1    6    6  502    0  0.10569459011E+03  0.20212571505E+03  0.79703920449E+02  0.24161718895E+03  0.00000000000E+00 0. -1.
          1    1    5    5  503    0 -0.11927720588E+03 -0.82947852605E+02  0.18262593565E+03  0.23336587254E+03  0.00000000000E+00 0. -1.
         -2    1    5    5    0  503 -0.32246823693E+03 -0.21149809376E+03  0.30529925512E+03  0.49185855962E+03  0.00000000000E+00 0.  1.
         -3    1    6    6    0  502  0.49193350128E+02  0.14095674994E+03  0.12489836054E+03  0.19464940667E+03  0.00000000000E+00 0.  1.
<mgrwt>
<rscale>  0 0.14135300E+04</rscale>
<asrwt>0</asrwt>
<pdfrwt beam="1">  1        2 0.75589897E-01 0.14135300E+04</pdfrwt>
<pdfrwt beam="2">  1       -2 0.15640824E+00 0.14135300E+04</pdfrwt>
<totfact> 0.16354978E+01</totfact>
</mgrwt>
</event>
<event>
12    1  0.1504874E-007  0.1511129E+04  0.7818608E-02  0.8877086E-01
         -2   -1    0    0    0  501 -0.00000000000E+00  0.00000000000E+00  0.66099356760E+03  0.66099356760E+03  0.00000000000E+00 0.  1.
          2   -1    0    0  501    0  0.00000000000E+00 -0.00000000000E+00 -0.86366654283E+03  0.86366654283E+03  0.00000000000E+00 0. -1.
         23    2    1    2    0    0  0.22296985459E+03 -0.62157257955E+02  0.35279704647E+03  0.43261306382E+03  0.95442266397E+02 0.  0.
        254    2    1    2    0    0 -0.22296985459E+03  0.62157257955E+02 -0.55547002171E+03  0.10920470466E+04  0.91128520576E+03 0.  0.
        -24    2    4    4    0    0  0.15956308368E+03  0.38337196809E+03 -0.34100931308E+03  0.54279288163E+03  0.76826539299E+02 0.  0.
         24    2    4    4    0    0 -0.38253293827E+03 -0.32121471014E+03 -0.21446070862E+03  0.54925416499E+03  0.78590096956E+02 0.  0.
         11    1    3    3    0    0  0.17347043718E+03 -0.71330755264E+02  0.32464853879E+03  0.37493565176E+03  0.00000000000E+00 0.  1.
        -11    1    3    3    0    0  0.49499417414E+02  0.91734973094E+01  0.28148507678E+02  0.57677412058E+02  0.00000000000E+00 0. -1.
          4    1    6    6  502    0 -0.21650030288E+03 -0.20756375243E+03 -0.92026215904E+02  0.31372586263E+03  0.00000000000E+00 0. -1.
          1    1    5    5  503    0  0.16866436281E+01  0.51075316399E+02 -0.65998562256E+02  0.83470611186E+02  0.00000000000E+00 0. -1.
         -2    1    5    5    0  503  0.15787644005E+03  0.33229665170E+03 -0.27501075083E+03  0.45932227044E+03  0.00000000000E+00 0.  1.
         -3    1    6    6    0  502 -0.16603263540E+03 -0.11365095771E+03 -0.12243449272E+03  0.23552830236E+03  0.00000000000E+00 0.  1.
<mgrwt>
<rscale>  0 0.15111294E+04</rscale>
<asrwt>0</asrwt>
<pdfrwt beam="1">  1        2 0.13287177E+00 0.15111294E+04</pdfrwt>
<pdfrwt beam="2">  1       -2 0.10169132E+00 0.15111294E+04</pdfrwt>
<totfact> 0.23796058E+01</totfact>
</mgrwt>
</event>
<event>
12    1  0.1504874E-007  0.1240192E+04  0.7818608E-02  0.9078386E-01
         -2   -1    0    0    0  501 -0.00000000000E+00  0.00000000000E+00  0.43327596631E+03  0.43327596631E+03  0.00000000000E+00 0.  1.
          2   -1    0    0  501    0  0.00000000000E+00 -0.00000000000E+00 -0.88746940126E+03  0.88746940126E+03  0.00000000000E+00 0. -1.
         23    2    1    2    0    0  0.20164668189E+03 -0.12884006617E+03 -0.25940967237E+03  0.36560040391E+03  0.95441763651E+02 0.  0.
        254    2    1    2    0    0 -0.20164668189E+03  0.12884006617E+03 -0.19478376257E+03  0.95514496366E+03  0.90393586082E+03 0.  0.
        -24    2    4    4    0    0 -0.20445289688E+03  0.22542723894E+03  0.30630310947E+03  0.43870805159E+03  0.77619150713E+02 0.  0.
         24    2    4    4    0    0  0.28062149936E+01 -0.96587172762E+02 -0.50108687204E+03  0.51643691208E+03  0.79259535934E+02 0.  0.
         11    1    3    3    0    0  0.74193509377E+02 -0.19782545935E+02 -0.32404646648E+02  0.83343188575E+02  0.00000000000E+00 0.  1.
        -11    1    3    3    0    0  0.12745317251E+03 -0.10905752024E+03 -0.22700502572E+03  0.28225721533E+03  0.00000000000E+00 0. -1.
          4    1    6    6  502    0  0.74247581940E+01  0.21802791038E+01 -0.24874556270E+01  0.81282277716E+01  0.00000000000E+00 0. -1.
          1    1    5    5  503    0 -0.16438362080E+02 -0.32536741329E+01  0.84989311522E+01  0.18789304776E+02  0.00000000000E+00 0. -1.
         -2    1    5    5    0  503 -0.18801453480E+03  0.22868091307E+03  0.29780417832E+03  0.41991874681E+03  0.00000000000E+00 0.  1.
         -3    1    6    6    0  502 -0.46185432005E+01 -0.98767451866E+02 -0.49859941642E+03  0.50830868430E+03  0.00000000000E+00 0.  1.
<mgrwt>
<rscale>  0 0.12401922E+04</rscale>
<asrwt>0</asrwt>
<pdfrwt beam="1">  1        2 0.13653375E+00 0.12401922E+04</pdfrwt>
<pdfrwt beam="2">  1       -2 0.66657841E-01 0.12401922E+04</pdfrwt>
<totfact> 0.60867846E+01</totfact>
</mgrwt>
</event>
<event>
12    1  0.1504874E-007  0.1784131E+04  0.7818608E-02  0.8714784E-01
         -2   -1    0    0    0  501 -0.00000000000E+00  0.00000000000E+00  0.48802419632E+03  0.48802419632E+03  0.00000000000E+00 0.  1.
          2   -1    0    0  501    0  0.00000000000E+00 -0.00000000000E+00 -0.16306169596E+04  0.16306169596E+04  0.00000000000E+00 0. -1.
         23    2    1    2    0    0  0.51998847095E+03  0.55091684910E+02 -0.88880578173E+03  0.10351000032E+04  0.89628094488E+02 0.  0.
        254    2    1    2    0    0 -0.51998847095E+03 -0.55091684910E+02 -0.25378698157E+03  0.10835411527E+04  0.91445639262E+03 0.  0.
        -24    2    4    4    0    0 -0.24917365533E+03 -0.38170174671E+03  0.15635076123E+03  0.48836766805E+03  0.79206595098E+02 0.  0.
         24    2    4    4    0    0 -0.27081481562E+03  0.32661006180E+03 -0.41013774280E+03  0.59517348469E+03  0.77483623939E+02 0.  0.
         13    1    3    3    0    0  0.51375501952E+03  0.55426037278E+02 -0.88961957489E+03  0.10288047695E+04  0.00000000000E+00 0. -1.
        -13    1    3    3    0    0  0.62334514254E+01 -0.33435236834E+00  0.81379315991E+00  0.62952337118E+01  0.00000000000E+00 0.  1.
          4    1    6    6  502    0 -0.79386243837E+02  0.10561694663E+03 -0.17893915329E+03  0.22243276671E+03  0.00000000000E+00 0. -1.
          3    1    5    5  503    0 -0.14867668324E+03 -0.15656229859E+03  0.80230982554E+02  0.23033349743E+03  0.00000000000E+00 0. -1.
         -4    1    5    5    0  503 -0.10049697209E+03 -0.22513944812E+03  0.76119778675E+02  0.25803417062E+03  0.00000000000E+00 0.  1.
         -3    1    6    6    0  502 -0.19142857179E+03  0.22099311517E+03 -0.23119858951E+03  0.37274071798E+03  0.00000000000E+00 0.  1.
<mgrwt>
<rscale>  0 0.17841306E+04</rscale>
<asrwt>0</asrwt>
<pdfrwt beam="1">  1        2 0.25086415E+00 0.17841306E+04</pdfrwt>
<pdfrwt beam="2">  1       -2 0.75080644E-01 0.17841306E+04</pdfrwt>
<totfact> 0.16142076E+01</totfact>
</mgrwt>
</event>
<event>
12    1  0.1504874E-007  0.1627131E+04  0.7818608E-02  0.8804052E-01
         -1   -1    0    0    0  501 -0.00000000000E+00  0.00000000000E+00  0.90775715474E+03  0.90775715474E+03  0.00000000000E+00 0. -1.
          1   -1    0    0  501    0  0.00000000000E+00 -0.00000000000E+00 -0.72914739436E+03  0.72914739436E+03  0.00000000000E+00 0.  1.
         23    2    1    2    0    0  0.20922904188E+02 -0.51316185998E+03 -0.16028293220E+03  0.54433214770E+03  0.82668048309E+02 0.  0.
        254    2    1    2    0    0 -0.20922904188E+02  0.51316185998E+03  0.33889269258E+03  0.10925724014E+04  0.90282519501E+03 0.  0.
        -24    2    4    4    0    0  0.29217004362E+03  0.62346981829E+03  0.18323722197E+03  0.71782708707E+03  0.87303486252E+02 0.  0.
         24    2    4    4    0    0 -0.31309294781E+03 -0.11030795831E+03  0.15565547062E+03  0.37474531432E+03  0.77526675647E+02 0.  0.
         13    1    3    3    0    0  0.88969788237E+01 -0.50574856984E+03 -0.15313135903E+03  0.52849785737E+03  0.00000000000E+00 0.  1.
        -13    1    3    3    0    0  0.12025925364E+02 -0.74132901411E+01 -0.71515731661E+01  0.15834290333E+02  0.00000000000E+00 0. -1.
          4    1    6    6  502    0 -0.10244978621E+03  0.60317504220E+00  0.55007923609E+02  0.11628496969E+03  0.00000000000E+00 0. -1.
          1    1    5    5  503    0  0.29744948385E+03  0.61388228983E+03  0.17531975605E+03  0.70431859131E+03  0.00000000000E+00 0. -1.
         -2    1    5    5    0  503 -0.52794402296E+01  0.95875284657E+01  0.79174659162E+01  0.13508495762E+02  0.00000000000E+00 0.  1.
         -3    1    6    6    0  502 -0.21064316159E+03 -0.11091113336E+03  0.10064754701E+03  0.25846034463E+03  0.00000000000E+00 0.  1.
<mgrwt>
<rscale>  0 0.16271309E+04</rscale>
<asrwt>0</asrwt>
<pdfrwt beam="1">  1        1 0.11217652E+00 0.16271309E+04</pdfrwt>
<pdfrwt beam="2">  1       -1 0.13965495E+00 0.16271309E+04</pdfrwt>
<totfact> 0.10337591E+01</totfact>
</mgrwt>
</event>
<event>
12    1  0.1504874E-007  0.1873621E+04  0.7818608E-02  0.8668099E-01
          1   -1    0    0  501    0  0.00000000000E+00  0.00000000000E+00  0.31178643299E+04  0.31178643299E+04  0.00000000000E+00 0. -1.
         -1   -1    0    0    0  501 -0.00000000000E+00 -0.00000000000E+00 -0.28147925197E+03  0.28147925197E+03  0.00000000000E+00 0.  1.
         23    2    1    2    0    0  0.65976524630E+03 -0.33531967036E+02  0.59274220427E+03  0.89220644233E+03  0.90963959746E+02 0.  0.
        254    2    1    2    0    0 -0.65976524630E+03  0.33531967036E+02  0.22436428736E+04  0.25071371395E+04  0.90298877008E+03 0.  0.
        -24    2    4    4    0    0  0.12893817877E+03 -0.17546399504E+03  0.20353185471E+03  0.30845244711E+03  0.79404211154E+02 0.  0.
         24    2    4    4    0    0 -0.78870342507E+03  0.20899596208E+03  0.20401110189E+04  0.21986846924E+04  0.80181058756E+02 0.  0.
         11    1    3    3    0    0  0.13436372048E+03  0.29701558895E+02  0.12675731218E+03  0.18709144335E+03  0.00000000000E+00 0. -1.
        -11    1    3    3    0    0  0.52540152582E+03 -0.63233525931E+02  0.46598489209E+03  0.70511499898E+03  0.00000000000E+00 0.  1.
          2    1    6    6  502    0 -0.77207270214E+03  0.19274467761E+03  0.19636348015E+04  0.21187516139E+04  0.00000000000E+00 0. -1.
          1    1    5    5  503    0  0.13779586330E+03 -0.17153705347E+03  0.20190565580E+03  0.29862778588E+03  0.00000000000E+00 0. -1.
         -2    1    5    5    0  503 -0.88576845364E+01 -0.39269415732E+01  0.16261989127E+01  0.98246612343E+01  0.00000000000E+00 0.  1.
         -1    1    6    6    0  502 -0.16630722930E+02  0.16251284474E+02  0.76476217466E+02  0.79933078448E+02  0.00000000000E+00 0.  1.
<mgrwt>
<rscale>  0 0.18736212E+04</rscale>
<asrwt>0</asrwt>
<pdfrwt beam="1">  1        1 0.47967141E+00 0.18736212E+04</pdfrwt>
<pdfrwt beam="2">  1       -1 0.43304502E-01 0.18736212E+04</pdfrwt>
<totfact> 0.24226562E+00</totfact>
</mgrwt>
</event>
<event>
12    1  0.1504874E-007  0.2156060E+04  0.7818608E-02  0.8536943E-01
          1   -1    0    0  501    0  0.00000000000E+00  0.00000000000E+00  0.15566274848E+04  0.15566274848E+04  0.00000000000E+00 0. -1.
         -1   -1    0    0    0  501 -0.00000000000E+00 -0.00000000000E+00 -0.74658113383E+03  0.74658113383E+03  0.00000000000E+00 0.  1.
         23    2    1    2    0    0 -0.14338087084E+03 -0.85653847752E+03  0.42992852775E+03  0.97325290491E+03  0.90368359258E+02 0.  0.
        254    2    1    2    0    0  0.14338087084E+03  0.85653847752E+03  0.38011782321E+03  0.13299557137E+04  0.93277886089E+03 0.  0.
        -24    2    4    4    0    0  0.52809531853E+02  0.23493058797E+02  0.47232849863E+03  0.48254459108E+03  0.80089333216E+02 0.  0.
         24    2    4    4    0    0  0.90571338989E+02  0.83304541872E+03 -0.92210675419E+02  0.84741112264E+03  0.86226243151E+02 0.  0.
         11    1    3    3    0    0 -0.10898003080E+03 -0.65399035251E+03  0.36990032001E+03  0.75921424844E+03  0.00000000000E+00 0.  1.
        -11    1    3    3    0    0 -0.34400840045E+02 -0.20254812501E+03  0.60028207735E+02  0.21403865648E+03  0.00000000000E+00 0. -1.
          2    1    6    6  502    0  0.65646929017E+01  0.22600927091E+03  0.90228153774E+01  0.22628454858E+03  0.00000000000E+00 0. -1.
          3    1    5    5  503    0  0.13786227725E+02  0.46871661245E+02  0.17252377738E+03  0.17930830005E+03  0.00000000000E+00 0. -1.
         -4    1    5    5    0  503  0.39023304129E+02 -0.23378602448E+02  0.29980472125E+03  0.30323629103E+03  0.00000000000E+00 0.  1.
         -1    1    6    6    0  502  0.84006646087E+02  0.60703614781E+03 -0.10123349080E+03  0.62112657406E+03  0.00000000000E+00 0.  1.
<mgrwt>
<rscale>  0 0.21560600E+04</rscale>
<asrwt>0</asrwt>
<pdfrwt beam="1">  1        1 0.23948115E+00 0.21560600E+04</pdfrwt>
<pdfrwt beam="2">  1       -1 0.11485864E+00 0.21560600E+04</pdfrwt>
<totfact> 0.37660031E+00</totfact>
</mgrwt>
</event>
<event>
12    1  0.1504874E-007  0.2708772E+04  0.7818608E-02  0.8332164E-01
         -1   -1    0    0    0  501 -0.00000000000E+00  0.00000000000E+00  0.80073029369E+03  0.80073029369E+03  0.00000000000E+00 0.  1.
          1   -1    0    0  501    0  0.00000000000E+00 -0.00000000000E+00 -0.22908602271E+04  0.22908602271E+04  0.00000000000E+00 0. -1.
         23    2    1    2    0    0 -0.88211948550E+03 -0.35668475448E+03  0.17683086034E+03  0.97203635086E+03  0.90701231781E+02 0.  0.
        254    2    1    2    0    0  0.88211948550E+03  0.35668475448E+03 -0.16669607937E+04  0.21195541699E+04  0.89910666251E+03 0.  0.
        -24    2    4    4    0    0  0.32849153730E+03  0.58978348850E+03 -0.10772495857E+04  0.12738443005E+04  0.80382700495E+02 0.  0.
         24    2    4    4    0    0  0.55362794820E+03 -0.23309873402E+03 -0.58971120798E+03  0.84570986941E+03  0.81406078209E+02 0.  0.
         13    1    3    3    0    0 -0.41484517375E+03 -0.19518670265E+03  0.12324113340E+03  0.47474492524E+03  0.00000000000E+00 0.  1.
        -13    1    3    3    0    0 -0.46727431175E+03 -0.16149805183E+03  0.53589726940E+02  0.49729142562E+03  0.00000000000E+00 0. -1.
          2    1    6    6  502    0  0.28056782411E+03 -0.15188838863E+03 -0.34788124127E+03  0.47202727098E+03  0.00000000000E+00 0. -1.
          1    1    5    5  503    0  0.89304327110E+02  0.18060887070E+03 -0.39062545658E+03  0.43952596549E+03  0.00000000000E+00 0. -1.
         -2    1    5    5    0  503  0.23918721019E+03  0.40917461780E+03 -0.68662412915E+03  0.83431833499E+03  0.00000000000E+00 0.  1.
         -1    1    6    6    0  502  0.27306012409E+03 -0.81210345392E+02 -0.24182996672E+03  0.37368259843E+03  0.00000000000E+00 0.  1.
<mgrwt>
<rscale>  0 0.27087718E+04</rscale>
<asrwt>0</asrwt>
<pdfrwt beam="1">  1        1 0.35244003E+00 0.27087718E+04</pdfrwt>
<pdfrwt beam="2">  1       -1 0.12318928E+00 0.27087718E+04</pdfrwt>
<totfact> 0.95570776E-01</totfact>
</mgrwt>
</event>
<event>
12    1  0.1504874E-007  0.1659269E+04  0.7818608E-02  0.8784942E-01
         -1   -1    0    0    0  501 -0.00000000000E+00  0.00000000000E+00  0.10161521175E+04  0.10161521175E+04  0.00000000000E+00 0.  1.
          1   -1    0    0  501    0  0.00000000000E+00 -0.00000000000E+00 -0.67735307702E+03  0.67735307702E+03  0.00000000000E+00 0. -1.
         23    2    1    2    0    0 -0.32370679126E+03  0.21109425333E+03 -0.32140712747E+03  0.51100143363E+03  0.92049188405E+02 0.  0.
        254    2    1    2    0    0  0.32370679126E+03 -0.21109425333E+03  0.66020616796E+03  0.11825037609E+04  0.90171840938E+03 0.  0.
        -24    2    4    4    0    0 -0.98137594802E+02 -0.20784173810E+02 -0.17968066631E+03  0.22034503049E+03  0.78764339783E+02 0.  0.
         24    2    4    4    0    0  0.42184438606E+03 -0.19031007952E+03  0.83988683427E+03  0.96215873041E+03  0.78542445172E+02 0.  0.
         11    1    3    3    0    0 -0.22671224710E+03  0.19272558828E+03 -0.25652686006E+03  0.39287100338E+03  0.00000000000E+00 0. -1.
        -11    1    3    3    0    0 -0.96994544160E+02  0.18368665053E+02 -0.64880267414E+02  0.11813043026E+03  0.00000000000E+00 0.  1.
          4    1    6    6  502    0  0.62607601799E+02 -0.10003300514E+02  0.16339028872E+03  0.17526027579E+03  0.00000000000E+00 0. -1.
          1    1    5    5  503    0 -0.60164973712E+02  0.19875706029E+02 -0.55346418158E+02  0.84131407660E+02  0.00000000000E+00 0. -1.
         -4    1    5    5    0  503 -0.37972621090E+02 -0.40659879839E+02 -0.12433424815E+03  0.13621362283E+03  0.00000000000E+00 0.  1.
         -3    1    6    6    0  502  0.35923678427E+03 -0.18030677901E+03  0.67649654555E+03  0.78689845461E+03  0.00000000000E+00 0.  1.
<mgrwt>
<rscale>  0 0.16592694E+04</rscale>
<asrwt>0</asrwt>
<pdfrwt beam="1">  1        1 0.10420816E+00 0.16592694E+04</pdfrwt>
<pdfrwt beam="2">  1       -1 0.15633110E+00 0.16592694E+04</pdfrwt>
<totfact> 0.85227941E+00</totfact>
</mgrwt>
</event>
<event>
12    1  0.1504874E-007  0.3543389E+04  0.7818608E-02  0.8103584E-01
          2   -1    0    0  501    0  0.00000000000E+00  0.00000000000E+00  0.43692996872E+04  0.43692996872E+04  0.00000000000E+00 0. -1.
         -2   -1    0    0    0  501 -0.00000000000E+00 -0.00000000000E+00 -0.71839908769E+03  0.71839908769E+03  0.00000000000E+00 0.  1.
         23    2    1    2    0    0  0.13624300658E+04 -0.44712351472E+02  0.30765624245E+04  0.33662673317E+04  0.91129128671E+02 0.  0.
        254    2    1    2    0    0 -0.13624300658E+04  0.44712351472E+02  0.57433817497E+03  0.17214314431E+04  0.88048111595E+03 0.  0.
        -24    2    4    4    0    0 -0.67105296554E+03 -0.12172346025E+03  0.71612762953E+03  0.99206110879E+03  0.78852891273E+02 0.  0.
         24    2    4    4    0    0 -0.69137710028E+03  0.16643581172E+03 -0.14178945456E+03  0.72937033434E+03  0.78572647776E+02 0.  0.
         13    1    3    3    0    0  0.12209749629E+04 -0.67612742478E+02  0.27637132014E+04  0.30221618095E+04  0.00000000000E+00 0. -1.
        -13    1    3    3    0    0  0.14145510291E+03  0.22900391005E+02  0.31284922311E+03  0.34410552226E+03  0.00000000000E+00 0.  1.
          2    1    6    6  502    0 -0.29989848616E+03  0.50407040170E+02 -0.27392970610E+02  0.30533644810E+03  0.00000000000E+00 0. -1.
          1    1    5    5  503    0 -0.18605638085E+03 -0.41281704180E+02  0.25211701869E+03  0.31604453337E+03  0.00000000000E+00 0. -1.
         -2    1    5    5    0  503 -0.48499658469E+03 -0.80441756073E+02  0.46401061084E+03  0.67601657542E+03  0.00000000000E+00 0.  1.
         -1    1    6    6    0  502 -0.39147861412E+03  0.11602877155E+03 -0.11439648395E+03  0.42403388624E+03  0.00000000000E+00 0.  1.
<mgrwt>
<rscale>  0 0.35433887E+04</rscale>
<asrwt>0</asrwt>
<pdfrwt beam="1">  1        2 0.67219994E+00 0.35433887E+04</pdfrwt>
<pdfrwt beam="2">  1       -2 0.11052294E+00 0.35433887E+04</pdfrwt>
<totfact> 0.86806637E-02</totfact>
</mgrwt>
</event>
<event>
12    1  0.1504874E-007  0.2233493E+04  0.7818608E-02  0.8504616E-01
         -2   -1    0    0    0  501 -0.00000000000E+00  0.00000000000E+00  0.42422233910E+03  0.42422233910E+03  0.00000000000E+00 0.  1.
          2   -1    0    0  501    0  0.00000000000E+00 -0.00000000000E+00 -0.29397853604E+04  0.29397853604E+04  0.00000000000E+00 0. -1.
         23    2    1    2    0    0 -0.16856212497E+03  0.41927278415E+03  0.17255538117E+03  0.49347896432E+03  0.97689667553E+02 0.  0.
        254    2    1    2    0    0  0.16856212497E+03 -0.41927278415E+03 -0.26881184024E+04  0.28705287352E+04  0.89986210964E+03 0.  0.
        -24    2    4    4    0    0  0.44146336207E+03 -0.28430880734E+03 -0.82476393171E+03  0.98078606952E+03  0.77358730244E+02 0.  0.
         24    2    4    4    0    0 -0.27290123710E+03 -0.13496397682E+03 -0.18633544707E+04  0.18897426656E+04  0.79668679541E+02 0.  0.
         13    1    3    3    0    0  0.37133495402E+01 -0.33257811766E+01  0.56903858194E+01  0.75650694654E+01  0.00000000000E+00 0. -1.
        -13    1    3    3    0    0 -0.17227547451E+03  0.42259856533E+03  0.16686499535E+03  0.48591389485E+03  0.00000000000E+00 0.  1.
          4    1    6    6  502    0 -0.81152517065E+02 -0.26976021160E+02 -0.34077320219E+03  0.35134002345E+03  0.00000000000E+00 0. -1.
          1    1    5    5  503    0  0.13870128583E+03 -0.12686926735E+03 -0.25794413573E+03  0.31916928870E+03  0.00000000000E+00 0. -1.
         -2    1    5    5    0  503  0.30276207624E+03 -0.15743953999E+03 -0.56681979598E+03  0.66161678082E+03  0.00000000000E+00 0.  1.
         -3    1    6    6    0  502 -0.19174872004E+03 -0.10798795566E+03 -0.15225812685E+04  0.15384026422E+04  0.00000000000E+00 0.  1.
<mgrwt>
<rscale>  0 0.22334929E+04</rscale>
<asrwt>0</asrwt>
<pdfrwt beam="1">  1        2 0.45227465E+00 0.22334929E+04</pdfrwt>
<pdfrwt beam="2">  1       -2 0.65264978E-01 0.22334929E+04</pdfrwt>
<totfact> 0.37483591E+00</totfact>
</mgrwt>
</event>
<event>
12    1  0.1504874E-007  0.1742838E+04  0.7818608E-02  0.8737303E-01
         -1   -1    0    0    0  501 -0.00000000000E+00  0.00000000000E+00  0.11559750157E+04  0.11559750157E+04  0.00000000000E+00 0.  1.
          1   -1    0    0  501    0  0.00000000000E+00 -0.00000000000E+00 -0.65690948665E+03  0.65690948665E+03  0.00000000000E+00 0. -1.
         23    2    1    2    0    0 -0.27986618677E+03 -0.41591178561E+03  0.60325313450E+03  0.78963337584E+03  0.91097903661E+02 0.  0.
        254    2    1    2    0    0  0.27986618677E+03  0.41591178561E+03 -0.10418760543E+03  0.10232511265E+04  0.88593459969E+03 0.  0.
        -24    2    4    4    0    0 -0.11309561555E+03  0.39233366476E+03 -0.35682308352E+03  0.54838392327E+03  0.81767301571E+02 0.  0.
         24    2    4    4    0    0  0.39296180232E+03  0.23578120853E+02  0.25263547809E+03  0.47486720327E+03  0.81849068965E+02 0.  0.
         13    1    3    3    0    0 -0.27751289676E+03 -0.40778905359E+03  0.60540212967E+03  0.78090784264E+03  0.00000000000E+00 0.  1.
        -13    1    3    3    0    0 -0.23532900022E+01 -0.81227320254E+01 -0.21489951654E+01  0.87255331993E+01  0.00000000000E+00 0. -1.
          4    1    6    6  502    0  0.10260926752E+02 -0.12206646480E+02  0.20000215133E+02  0.25579238485E+02  0.00000000000E+00 0. -1.
          3    1    5    5  503    0  0.37820142453E+00 -0.27918469643E+01 -0.10440807779E+02  0.10814245830E+02  0.00000000000E+00 0. -1.
         -4    1    5    5    0  503 -0.11347381697E+03  0.39512551172E+03 -0.34638227574E+03  0.53756967744E+03  0.00000000000E+00 0.  1.
         -3    1    6    6    0  502  0.38270087556E+03  0.35784767333E+02  0.23263526296E+03  0.44928796479E+03  0.00000000000E+00 0.  1.
<mgrwt>
<rscale>  0 0.17428379E+04</rscale>
<asrwt>0</asrwt>
<pdfrwt beam="1">  1        1 0.10106300E+00 0.17428379E+04</pdfrwt>
<pdfrwt beam="2">  1       -1 0.17784231E+00 0.17428379E+04</pdfrwt>
<totfact> 0.61312574E+00</totfact>
</mgrwt>
</event>
<event>
12    1  0.1613237E-007  0.2625595E+04  0.7818608E-02  0.8359559E-01
         -1   -1    0    0    0  501 -0.00000000000E+00  0.00000000000E+00  0.12022886249E+04  0.12022886249E+04  0.00000000000E+00 0.  1.
          1   -1    0    0  501    0  0.00000000000E+00 -0.00000000000E+00 -0.14334635738E+04  0.14334635738E+04  0.00000000000E+00 0. -1.
         23    2    1    2    0    0  0.10345022489E+04 -0.29672452245E+03  0.29587418802E+03  0.11199165028E+04  0.91820982706E+02 0.  0.
        254    2    1    2    0    0 -0.10345022489E+04  0.29672452245E+03 -0.52704913698E+03  0.15158356959E+04  0.92829775342E+03 0.  0.
        -24    2    4    4    0    0 -0.11097956445E+04  0.48989370155E+02 -0.27862410288E+03  0.11481880830E+04  0.81597501896E+02 0.  0.
         24    2    4    4    0    0  0.75293395622E+02  0.24773515229E+03 -0.24842503409E+03  0.36764761288E+03  0.80049788158E+02 0.  0.
         13    1    3    3    0    0  0.71354016646E+01 -0.10482517752E+02 -0.14139511940E+01  0.12759168990E+02  0.00000000000E+00 0. -1.
        -13    1    3    3    0    0  0.10273668472E+04 -0.28624200470E+03  0.29728813921E+03  0.11071573338E+04  0.00000000000E+00 0.  1.
          4    1    6    6  502    0  0.94307913863E+01  0.15623061368E+03 -0.12351319039E+03  0.19938017122E+03  0.00000000000E+00 0. -1.
          3    1    5    5  503    0 -0.55833710973E+03 -0.16118833626E+02 -0.13720953968E+03  0.57517527996E+03  0.00000000000E+00 0. -1.
         -4    1    5    5    0  503 -0.55145853480E+03  0.65108203781E+02 -0.14141456321E+03  0.57301280307E+03  0.00000000000E+00 0.  1.
         -3    1    6    6    0  502  0.65862604236E+02  0.91504538617E+02 -0.12491184370E+03  0.16826744166E+03  0.00000000000E+00 0.  1.
<mgrwt>
<rscale>  0 0.26255948E+04</rscale>
<asrwt>0</asrwt>
<pdfrwt beam="1">  1        1 0.22053286E+00 0.26255948E+04</pdfrwt>
<pdfrwt beam="2">  1       -1 0.18496748E+00 0.26255948E+04</pdfrwt>
<totfact> 0.12267269E+00</totfact>
</mgrwt>
</event>
<event>
12    1  0.1504874E-007  0.1632248E+04  0.7818608E-02  0.8800978E-01
          2   -1    0    0  501    0  0.00000000000E+00  0.00000000000E+00  0.70538974649E+03  0.70538974649E+03  0.00000000000E+00 0. -1.
         -2   -1    0    0    0  501 -0.00000000000E+00 -0.00000000000E+00 -0.94424134283E+03  0.94424134283E+03  0.00000000000E+00 0.  1.
         23    2    1    2    0    0  0.33676224423E+03 -0.11446183605E+03  0.35690460501E+03  0.51208139984E+03  0.91302474982E+02 0.  0.
        254    2    1    2    0    0 -0.33676224423E+03  0.11446183605E+03 -0.59575620135E+03  0.11375496895E+04  0.90143414820E+03 0.  0.
        -24    2    4    4    0    0 -0.36361235987E+03  0.23809111584E+03 -0.78208507616E+03  0.89874414645E+03  0.84750496869E+02 0.  0.
         24    2    4    4    0    0  0.26850115645E+02 -0.12362927979E+03  0.18632887481E+03  0.23880554304E+03  0.79400946255E+02 0.  0.
         13    1    3    3    0    0  0.27191426173E+03 -0.69719297238E+02  0.31813472159E+03  0.42427331665E+03  0.00000000000E+00 0. -1.
        -13    1    3    3    0    0  0.64847982494E+02 -0.44742538817E+02  0.38769883419E+02  0.87808083191E+02  0.00000000000E+00 0.  1.
          2    1    6    6  502    0  0.51265273568E+02 -0.70178025503E+02  0.84373752748E+02  0.12112808795E+03  0.00000000000E+00 0. -1.
          1    1    5    5  503    0 -0.32495439181E+03  0.20400404186E+03 -0.62453588495E+03  0.73297890655E+03  0.00000000000E+00 0. -1.
         -2    1    5    5    0  503 -0.38657968065E+02  0.34087073981E+02 -0.15754919121E+03  0.16576523990E+03  0.00000000000E+00 0.  1.
         -1    1    6    6    0  502 -0.24415157924E+02 -0.53451254283E+02  0.10195512207E+03  0.11767745509E+03  0.00000000000E+00 0.  1.
<mgrwt>
<rscale>  0 0.16322477E+04</rscale>
<asrwt>0</asrwt>
<pdfrwt beam="1">  1        2 0.10852150E+00 0.16322477E+04</pdfrwt>
<pdfrwt beam="2">  1       -2 0.14526790E+00 0.16322477E+04</pdfrwt>
<totfact> 0.12650384E+01</totfact>
</mgrwt>
</event>
<event>
12    1  0.1504874E-007  0.2255442E+04  0.7818608E-02  0.8495700E-01
          1   -1    0    0  501    0  0.00000000000E+00  0.00000000000E+00  0.81488465668E+03  0.81488465668E+03  0.00000000000E+00 0. -1.
         -1   -1    0    0    0  501 -0.00000000000E+00 -0.00000000000E+00 -0.15606557740E+04  0.15606557740E+04  0.00000000000E+00 0.  1.
         23    2    1    2    0    0  0.24706583986E+02 -0.51108443592E+03 -0.11560414112E+04  0.12674908547E+04  0.91014320658E+02 0.  0.
        254    2    1    2    0    0 -0.24706583986E+02  0.51108443592E+03  0.41027029384E+03  0.11080495760E+04  0.89310381974E+03 0.  0.
        -24    2    4    4    0    0  0.37193700600E+02  0.65402752833E+03 -0.20454333293E+01  0.66027972241E+03  0.82642294593E+02 0.  0.
         24    2    4    4    0    0 -0.61900284586E+02 -0.14294309240E+03  0.41231572716E+03  0.44776985355E+03  0.78925344349E+02 0.  0.
         11    1    3    3    0    0  0.42768476651E+02 -0.24299818738E+03 -0.63494323610E+03  0.68119760330E+03  0.00000000000E+00 0. -1.
        -11    1    3    3    0    0 -0.18061892665E+02 -0.26808624854E+03 -0.52109817506E+03  0.58629325143E+03  0.00000000000E+00 0.  1.
          4    1    6    6  502    0 -0.70955921834E+02 -0.12376652070E+03  0.39629378363E+03  0.42119076133E+03  0.00000000000E+00 0. -1.
          3    1    5    5  503    0  0.32571362899E+02  0.52070694805E+03 -0.34907044833E+02  0.52289111793E+03  0.00000000000E+00 0. -1.
         -4    1    5    5    0  503  0.46223377006E+01  0.13332058027E+03  0.32861611503E+02  0.13738860448E+03  0.00000000000E+00 0.  1.
         -3    1    6    6    0  502  0.90556372488E+01 -0.19176571702E+02  0.16021943535E+02  0.26579092213E+02  0.00000000000E+00 0.  1.
<mgrwt>
<rscale>  0 0.22554418E+04</rscale>
<asrwt>0</asrwt>
<pdfrwt beam="1">  1        1 0.12536687E+00 0.22554418E+04</pdfrwt>
<pdfrwt beam="2">  1       -1 0.24010088E+00 0.22554418E+04</pdfrwt>
<totfact> 0.15762006E+00</totfact>
</mgrwt>
</event>
<event>
12    1  0.1504874E-007  0.2598106E+04  0.7818608E-02  0.8368845E-01
         -1   -1    0    0    0  501 -0.00000000000E+00  0.00000000000E+00  0.14190695445E+04  0.14190695445E+04  0.00000000000E+00 0.  1.
          1   -1    0    0  501    0  0.00000000000E+00 -0.00000000000E+00 -0.11891867666E+04  0.11891867666E+04  0.00000000000E+00 0. -1.
         23    2    1    2    0    0  0.62871846972E+02  0.40239805525E+03 -0.96073225010E+03  0.10476068991E+04  0.92718361778E+02 0.  0.
        254    2    1    2    0    0 -0.62871846972E+02 -0.40239805525E+03  0.11906150280E+04  0.15606494120E+04  0.92313887258E+03 0.  0.
        -24    2    4    4    0    0 -0.37877270806E+03  0.69897504342E+02  0.27478152144E+03  0.47986580518E+03  0.80074221645E+02 0.  0.
         24    2    4    4    0    0  0.31590086109E+03 -0.47229555960E+03  0.91583350659E+03  0.10807836068E+04  0.80534112246E+02 0.  0.
         11    1    3    3    0    0  0.25670793374E+02  0.20590716525E+02 -0.56838974266E+02  0.65678278259E+02  0.00000000000E+00 0.  1.
        -11    1    3    3    0    0  0.37201053598E+02  0.38180733873E+03 -0.90389327584E+03  0.98192862083E+03  0.00000000000E+00 0. -1.
          4    1    6    6  502    0  0.22982938685E+03 -0.27349468089E+03  0.57308209750E+03  0.67531028276E+03  0.00000000000E+00 0. -1.
          1    1    5    5  503    0 -0.24981909884E+03  0.74115365892E+01  0.18158462860E+03  0.30892958803E+03  0.00000000000E+00 0. -1.
         -2    1    5    5    0  503 -0.12895360923E+03  0.62485967753E+02  0.93196892837E+02  0.17093621715E+03  0.00000000000E+00 0.  1.
         -3    1    6    6    0  502  0.86071474245E+02 -0.19880087871E+03  0.34275140910E+03  0.40547332402E+03  0.00000000000E+00 0.  1.
<mgrwt>
<rscale>  0 0.25981060E+04</rscale>
<asrwt>0</asrwt>
<pdfrwt beam="1">  1        1 0.18295181E+00 0.25981060E+04</pdfrwt>
<pdfrwt beam="2">  1       -1 0.21831839E+00 0.25981060E+04</pdfrwt>
<totfact> 0.10827564E+00</totfact>
</mgrwt>
</event>
<event>
12    1  0.1504874E-007  0.1679094E+04  0.7818608E-02  0.8773378E-01
          3   -1    0    0  501    0  0.00000000000E+00  0.00000000000E+00  0.11324822258E+04  0.11324822258E+04  0.00000000000E+00 0. -1.
         -3   -1    0    0    0  501 -0.00000000000E+00 -0.00000000000E+00 -0.62238428853E+03  0.62238428853E+03  0.00000000000E+00 0.  1.
         23    2    1    2    0    0 -0.46120781350E+03  0.40111198936E+02 -0.18948914365E+03  0.51028908346E+03  0.10083282018E+03 0.  0.
        254    2    1    2    0    0  0.46120781350E+03 -0.40111198936E+02  0.69958708091E+03  0.12445774309E+04  0.91936355273E+03 0.  0.
        -24    2    4    4    0    0 -0.81973468183E+02 -0.35316345754E+03  0.13014894793E+03  0.39399107559E+03  0.82741415084E+02 0.  0.
         24    2    4    4    0    0  0.54318128169E+03  0.31305225860E+03  0.56943813298E+03  0.85058635527E+03  0.78674894877E+02 0.  0.
         13    1    3    3    0    0 -0.72679830487E+02  0.31585691858E+02 -0.31654388477E+01  0.79309732649E+02  0.00000000000E+00 0. -1.
        -13    1    3    3    0    0 -0.38852798302E+03  0.85255070777E+01 -0.18632370480E+03  0.43097935082E+03  0.00000000000E+00 0.  1.
          2    1    6    6  502    0  0.44448506985E+03  0.23536594147E+03  0.48865768173E+03  0.70124919511E+03  0.00000000000E+00 0. -1.
          3    1    5    5  503    0 -0.79500575031E+02 -0.35685928883E+03  0.13260317968E+03  0.38891193954E+03  0.00000000000E+00 0. -1.
         -4    1    5    5    0  503 -0.24728931522E+01  0.36958312932E+01 -0.24542317539E+01  0.50791360477E+01  0.00000000000E+00 0.  1.
         -1    1    6    6    0  502  0.98696211834E+02  0.77686317133E+02  0.80780451246E+02  0.14933716016E+03  0.00000000000E+00 0.  1.
<mgrwt>
<rscale>  0 0.16790940E+04</rscale>
<asrwt>0</asrwt>
<pdfrwt beam="1">  1        3 0.17422803E+00 0.16790940E+04</pdfrwt>
<pdfrwt beam="2">  1       -3 0.95751429E-01 0.16790940E+04</pdfrwt>
<totfact> 0.52392220E-01</totfact>
</mgrwt>
</event>
<event>
12    1  0.1504874E-007  0.1758129E+04  0.7818608E-02  0.8728889E-01
         -2   -1    0    0    0  501 -0.00000000000E+00  0.00000000000E+00  0.51006022384E+03  0.51006022384E+03  0.00000000000E+00 0.  1.
          2   -1    0    0  501    0  0.00000000000E+00 -0.00000000000E+00 -0.15150252670E+04  0.15150252670E+04  0.00000000000E+00 0. -1.
         23    2    1    2    0    0 -0.55119726918E+03 -0.67085866243E+02 -0.39997656059E+02  0.56390467212E+03  0.89831641150E+02 0.  0.
        254    2    1    2    0    0  0.55119726918E+03  0.67085866243E+02 -0.96496738712E+03  0.14611808187E+04  0.94634474894E+03 0.  0.
        -24    2    4    4    0    0 -0.51345614952E+02  0.38234700835E+03 -0.48831500298E+03  0.62692891800E+03  0.75912575505E+02 0.  0.
         24    2    4    4    0    0  0.60254288413E+03 -0.31526114210E+03 -0.47665238414E+03  0.83425190074E+03  0.79568986686E+02 0.  0.
         11    1    3    3    0    0 -0.17514890055E+03 -0.61305224436E+02 -0.27585526605E+02  0.18760711389E+03  0.00000000000E+00 0. -1.
        -11    1    3    3    0    0 -0.37604836863E+03 -0.57806418069E+01 -0.12412129454E+02  0.37629755823E+03  0.00000000000E+00 0.  1.
          4    1    6    6  502    0  0.62081288068E+02 -0.54744538073E+02 -0.38293680800E+02  0.91200091920E+02  0.00000000000E+00 0. -1.
          3    1    5    5  503    0 -0.20527314423E+02  0.29369391777E+02 -0.25146124899E+02  0.43775100322E+02  0.00000000000E+00 0. -1.
         -4    1    5    5    0  503 -0.30818300529E+02  0.35297761657E+03 -0.46316887808E+03  0.58315381767E+03  0.00000000000E+00 0.  1.
         -3    1    6    6    0  502  0.54046159606E+03 -0.26051660403E+03 -0.43835870334E+03  0.74305180882E+03  0.00000000000E+00 0.  1.
<mgrwt>
<rscale>  0 0.17581287E+04</rscale>
<asrwt>0</asrwt>
<pdfrwt beam="1">  1        2 0.23308080E+00 0.17581287E+04</pdfrwt>
<pdfrwt beam="2">  1       -2 0.78470806E-01 0.17581287E+04</pdfrwt>
<totfact> 0.17020513E+01</totfact>
</mgrwt>
</event>
<event>
12    1  0.1504874E-007  0.1528793E+04  0.7818608E-02  0.8865528E-01
          2   -1    0    0  501    0  0.00000000000E+00  0.00000000000E+00  0.89619730157E+03  0.89619730157E+03  0.00000000000E+00 0. -1.
         -2   -1    0    0    0  501 -0.00000000000E+00 -0.00000000000E+00 -0.65197927886E+03  0.65197927886E+03  0.00000000000E+00 0.  1.
         23    2    1    2    0    0 -0.33568540943E+03  0.12863263157E+03  0.43397327348E+03  0.57059829591E+03  0.89546441528E+02 0.  0.
        254    2    1    2    0    0  0.33568540943E+03 -0.12863263157E+03 -0.18975525078E+03  0.97757828452E+03  0.88905635319E+03 0.  0.
        -24    2    4    4    0    0 -0.39839975016E+02 -0.39452820236E+03  0.11395879894E+03  0.42029581422E+03  0.80138864040E+02 0.  0.
         24    2    4    4    0    0  0.37552538445E+03  0.26589557079E+03 -0.30371404972E+03  0.55728247029E+03  0.81251207778E+02 0.  0.
         11    1    3    3    0    0 -0.46905056640E+01 -0.10271174755E+02  0.16883045007E+02  0.20310959676E+02  0.00000000000E+00 0.  1.
        -11    1    3    3    0    0 -0.33099490377E+03  0.13890380633E+03  0.41709022848E+03  0.55028733624E+03  0.00000000000E+00 0. -1.
          4    1    6    6  502    0  0.26342153776E+03  0.17761136022E+03 -0.25197991521E+03  0.40550040629E+03  0.00000000000E+00 0. -1.
          1    1    5    5  503    0  0.96434791389E+01 -0.23901201602E+03  0.88860432631E+02  0.25517820631E+03  0.00000000000E+00 0. -1.
         -2    1    5    5    0  503 -0.49483454155E+02 -0.15551618634E+03  0.25098366313E+02  0.16511760791E+03  0.00000000000E+00 0.  1.
         -3    1    6    6    0  502  0.11210384669E+03  0.88284210567E+02 -0.51734134516E+02  0.15178206400E+03  0.00000000000E+00 0.  1.
<mgrwt>
<rscale>  0 0.15287931E+04</rscale>
<asrwt>0</asrwt>
<pdfrwt beam="1">  1        2 0.13787651E+00 0.15287931E+04</pdfrwt>
<pdfrwt beam="2">  1       -2 0.10030450E+00 0.15287931E+04</pdfrwt>
<totfact> 0.23325509E+01</totfact>
</mgrwt>
</event>
<event>
12    1  0.1504874E-007  0.2101720E+04  0.7818608E-02  0.8560486E-01
         -2   -1    0    0    0  501 -0.00000000000E+00  0.00000000000E+00  0.65566383125E+03  0.65566383125E+03  0.00000000000E+00 0.  1.
          2   -1    0    0  501    0  0.00000000000E+00 -0.00000000000E+00 -0.16842581986E+04  0.16842581986E+04  0.00000000000E+00 0. -1.
         23    2    1    2    0    0 -0.75671323244E+02 -0.49660275006E+03  0.35140232064E+03  0.61966611763E+03  0.90344152254E+02 0.  0.
        254    2    1    2    0    0  0.75671323244E+02  0.49660275006E+03 -0.13799966880E+04  0.17202559122E+04  0.89585105019E+03 0.  0.
        -24    2    4    4    0    0  0.52797140114E+02  0.38671380200E+03 -0.71863303695E+02  0.40492420560E+03  0.80400094517E+02 0.  0.
         24    2    4    4    0    0  0.22874183129E+02  0.10988894806E+03 -0.13081333843E+04  0.13153317066E+04  0.79282647324E+02 0.  0.
         13    1    3    3    0    0 -0.62817525978E+02 -0.21861816975E+03  0.11685218325E+03  0.25572324581E+03  0.00000000000E+00 0. -1.
        -13    1    3    3    0    0 -0.12853797266E+02 -0.27798458031E+03  0.23455013740E+03  0.36394287182E+03  0.00000000000E+00 0.  1.
          2    1    6    6  502    0  0.36805152708E+02  0.10042549816E+03 -0.12559936702E+04  0.12605395668E+04  0.00000000000E+00 0. -1.
          3    1    5    5  503    0 -0.78170676758E+00  0.23679521848E+03 -0.20698266059E+02  0.23769940004E+03  0.00000000000E+00 0. -1.
         -4    1    5    5    0  503  0.53578846882E+02  0.14991858352E+03 -0.51165037636E+02  0.16722480556E+03  0.00000000000E+00 0.  1.
         -1    1    6    6    0  502 -0.13930969579E+02  0.94634499013E+01 -0.52139714133E+02  0.54792139831E+02  0.00000000000E+00 0.  1.
<mgrwt>
<rscale>  0 0.21017204E+04</rscale>
<asrwt>0</asrwt>
<pdfrwt beam="1">  1        2 0.25911664E+00 0.21017204E+04</pdfrwt>
<pdfrwt beam="2">  1       -2 0.10087136E+00 0.21017204E+04</pdfrwt>
<totfact> 0.74610725E+00</totfact>
</mgrwt>
</event>
<event>
12    1  0.1504874E-007  0.2243670E+04  0.7818608E-02  0.8500468E-01
         -1   -1    0    0    0  501 -0.00000000000E+00  0.00000000000E+00  0.37581561512E+03  0.37581561512E+03  0.00000000000E+00 0.  1.
          1   -1    0    0  501    0  0.00000000000E+00 -0.00000000000E+00 -0.33487532359E+04  0.33487532359E+04  0.00000000000E+00 0. -1.
         23    2    1    2    0    0 -0.27908116121E+03 -0.50678372899E+02  0.23553896943E+03  0.37998145232E+03  0.91938598912E+02 0.  0.
        254    2    1    2    0    0  0.27908116121E+03  0.50678372899E+02 -0.32084765902E+04  0.33445873987E+04  0.90082642364E+03 0.  0.
        -24    2    4    4    0    0 -0.21797514541E+03 -0.13531490829E+03 -0.20531027207E+04  0.20706238407E+04  0.80181165742E+02 0.  0.
         24    2    4    4    0    0  0.49705630662E+03  0.18599328119E+03 -0.11553738695E+04  0.12739635580E+04  0.80224037765E+02 0.  0.
         11    1    3    3    0    0 -0.76087449985E+02 -0.33741460442E+02  0.24712921939E+02  0.86824620407E+02  0.00000000000E+00 0. -1.
        -11    1    3    3    0    0 -0.20299371122E+03 -0.16936912456E+02  0.21082604749E+03  0.29315683191E+03  0.00000000000E+00 0.  1.
          2    1    6    6  502    0  0.35491116843E+03  0.12204899254E+03 -0.89493612916E+03  0.97044761287E+03  0.00000000000E+00 0. -1.
          3    1    5    5  503    0 -0.65879019325E+02 -0.10463977529E+02 -0.36031968704E+03  0.36644210577E+03  0.00000000000E+00 0. -1.
         -4    1    5    5    0  503 -0.15209612609E+03 -0.12485093076E+03 -0.16927830337E+04  0.17041817349E+04  0.00000000000E+00 0.  1.
         -1    1    6    6    0  502  0.14214513819E+03  0.63944288650E+02 -0.26043774030E+03  0.30351594511E+03  0.00000000000E+00 0.  1.
<mgrwt>
<rscale>  0 0.22436700E+04</rscale>
<asrwt>0</asrwt>
<pdfrwt beam="1">  1        1 0.51519278E+00 0.22436700E+04</pdfrwt>
<pdfrwt beam="2">  1       -1 0.57817790E-01 0.22436700E+04</pdfrwt>
<totfact> 0.90362381E-01</totfact>
</mgrwt>
</event>
<event>
12    1  0.1504874E-007  0.2106759E+04  0.7818608E-02  0.8558272E-01
          1   -1    0    0  501    0  0.00000000000E+00  0.00000000000E+00  0.28076257920E+04  0.28076257920E+04  0.00000000000E+00 0. -1.
         -1   -1    0    0    0  501 -0.00000000000E+00 -0.00000000000E+00 -0.39521237354E+03  0.39521237354E+03  0.00000000000E+00 0.  1.
         23    2    1    2    0    0 -0.12605518992E+03  0.59443553571E+03  0.19151729561E+04  0.20113267214E+04  0.91127445269E+02 0.  0.
        254    2    1    2    0    0  0.12605518992E+03 -0.59443553571E+03  0.49724046231E+03  0.11915114441E+04  0.89621868264E+03 0.  0.
        -24    2    4    4    0    0  0.34296532131E+03 -0.52879522398E+03  0.64803321082E+03  0.90756567244E+03  0.80491036402E+02 0.  0.
         24    2    4    4    0    0 -0.21691013140E+03 -0.65640311732E+02 -0.15079274851E+03  0.28394577169E+03  0.80796612730E+02 0.  0.
         11    1    3    3    0    0 -0.52660192692E+02  0.21497484164E+03  0.56110561831E+03  0.60318056445E+03  0.00000000000E+00 0.  1.
        -11    1    3    3    0    0 -0.73394997225E+02  0.37946069407E+03  0.13540673378E+04  0.14081461569E+04  0.00000000000E+00 0. -1.
          2    1    6    6  502    0 -0.36383031085E+02 -0.10402792425E+02 -0.67958901545E+02  0.77784030112E+02  0.00000000000E+00 0. -1.
          3    1    5    5  503    0  0.15684599765E+02 -0.21368351071E+02  0.55874431123E+02  0.61843068735E+02  0.00000000000E+00 0. -1.
         -4    1    5    5    0  503  0.32728072155E+03 -0.50742687291E+03  0.59215877970E+03  0.84572260371E+03  0.00000000000E+00 0.  1.
         -1    1    6    6    0  502 -0.18052710031E+03 -0.55237519307E+02 -0.82833846964E+02  0.20616174157E+03  0.00000000000E+00 0.  1.
<mgrwt>
<rscale>  0 0.21067591E+04</rscale>
<asrwt>0</asrwt>
<pdfrwt beam="1">  1        1 0.43194242E+00 0.21067591E+04</pdfrwt>
<pdfrwt beam="2">  1       -1 0.60801905E-01 0.21067591E+04</pdfrwt>
<totfact> 0.20768600E+00</totfact>
</mgrwt>
</event>
<event>
12    1  0.1504874E-007  0.1666107E+04  0.7818608E-02  0.8780934E-01
          2   -1    0    0  501    0  0.00000000000E+00  0.00000000000E+00  0.83356354386E+03  0.83356354386E+03  0.00000000000E+00 0. -1.
         -2   -1    0    0    0  501 -0.00000000000E+00 -0.00000000000E+00 -0.83254421745E+03  0.83254421745E+03  0.00000000000E+00 0.  1.
         23    2    1    2    0    0  0.26175784190E+03 -0.40607911093E+03 -0.31689622220E+03  0.58491280671E+03  0.91007492480E+02 0.  0.
        254    2    1    2    0    0 -0.26175784190E+03  0.40607911093E+03  0.31791554860E+03  0.10811949546E+04  0.91350688102E+03 0.  0.
        -24    2    4    4    0    0 -0.26315509353E+03 -0.19744780867E+03 -0.87109843487E+02  0.34999093865E+03  0.81665732748E+02 0.  0.
         24    2    4    4    0    0  0.13972516325E+01  0.60352691960E+03  0.40502539209E+03  0.73120401595E+03  0.79793794873E+02 0.  0.
         13    1    3    3    0    0  0.19080472152E+03 -0.24523049228E+03 -0.16103166861E+03  0.34996519025E+03  0.00000000000E+00 0. -1.
        -13    1    3    3    0    0  0.70953120381E+02 -0.16084861865E+03 -0.15586455359E+03  0.23494761646E+03  0.00000000000E+00 0.  1.
          4    1    6    6  502    0  0.33380752391E+01  0.60488654853E+03  0.40613157147E+03  0.72858886396E+03  0.00000000000E+00 0. -1.
          3    1    5    5  503    0 -0.22988310137E+03 -0.13551530454E+03 -0.53919578691E+02  0.27224613685E+03  0.00000000000E+00 0. -1.
         -4    1    5    5    0  503 -0.33271992156E+02 -0.61932504137E+02 -0.33190264796E+02  0.77744801807E+02  0.00000000000E+00 0.  1.
         -3    1    6    6    0  502 -0.19408236066E+01 -0.13596289292E+01 -0.11061793786E+01  0.26151519869E+01  0.00000000000E+00 0.  1.
<mgrwt>
<rscale>  0 0.16661074E+04</rscale>
<asrwt>0</asrwt>
<pdfrwt beam="1">  1        2 0.12824054E+00 0.16661074E+04</pdfrwt>
<pdfrwt beam="2">  1       -2 0.12808373E+00 0.16661074E+04</pdfrwt>
<totfact> 0.14020766E+01</totfact>
</mgrwt>
</event>
<event>
12    1  0.1504874E-007  0.1575300E+04  0.7818608E-02  0.8835868E-01
          1   -1    0    0  501    0  0.00000000000E+00  0.00000000000E+00  0.46914499924E+03  0.46914499924E+03  0.00000000000E+00 0. -1.
         -1   -1    0    0    0  501 -0.00000000000E+00 -0.00000000000E+00 -0.13223891705E+04  0.13223891705E+04  0.00000000000E+00 0.  1.
         23    2    1    2    0    0  0.33808380056E+02  0.66707714996E+02  0.30031606451E+03  0.32275206020E+03  0.91576350425E+02 0.  0.
        254    2    1    2    0    0 -0.33808380056E+02 -0.66707714996E+02 -0.11535602358E+04  0.14687821096E+04  0.90610525988E+03 0.  0.
        -24    2    4    4    0    0  0.13471506744E+02  0.34320486840E+03 -0.15443243314E+03  0.38490648774E+03  0.79577413312E+02 0.  0.
         24    2    4    4    0    0 -0.47279886800E+02 -0.40991258340E+03 -0.99912780267E+03  0.10838756218E+04  0.79159862542E+02 0.  0.
         11    1    3    3    0    0  0.28565084328E+02  0.78221066845E+02  0.29858895338E+03  0.30998364864E+03  0.00000000000E+00 0. -1.
        -11    1    3    3    0    0  0.52432957278E+01 -0.11513351849E+02  0.17271111263E+01  0.12768411558E+02  0.00000000000E+00 0.  1.
          4    1    6    6  502    0 -0.12056762638E+02 -0.12687862009E+03 -0.22092099852E+03  0.25504830395E+03  0.00000000000E+00 0. -1.
          3    1    5    5  503    0 -0.33135602576E+01  0.12726904775E+03 -0.17114900802E+02  0.12845742496E+03  0.00000000000E+00 0. -1.
         -4    1    5    5    0  503  0.16785067002E+02  0.21593582065E+03 -0.13731753234E+03  0.25644906278E+03  0.00000000000E+00 0.  1.
         -3    1    6    6    0  502 -0.35223124163E+02 -0.28303396331E+03 -0.77820680415E+03  0.82882731789E+03  0.00000000000E+00 0.  1.
<mgrwt>
<rscale>  0 0.15752997E+04</rscale>
<asrwt>0</asrwt>
<pdfrwt beam="1">  1        1 0.72176153E-01 0.15752997E+04</pdfrwt>
<pdfrwt beam="2">  1       -1 0.20344449E+00 0.15752997E+04</pdfrwt>
<totfact> 0.66276716E+00</totfact>
</mgrwt>
</event>
<event>
12    1  0.1504874E-007  0.1884454E+04  0.7818608E-02  0.8662634E-01
         -1   -1    0    0    0  501 -0.00000000000E+00  0.00000000000E+00  0.45451948896E+03  0.45451948896E+03  0.00000000000E+00 0.  1.
          1   -1    0    0  501    0  0.00000000000E+00 -0.00000000000E+00 -0.19532533645E+04  0.19532533645E+04  0.00000000000E+00 0. -1.
         23    2    1    2    0    0  0.57685246267E+03 -0.32933805150E+03 -0.22082932861E+03  0.70588584383E+03  0.91032501292E+02 0.  0.
        254    2    1    2    0    0 -0.57685246267E+03  0.32933805150E+03 -0.12779045469E+04  0.17018870096E+04  0.90672876132E+03 0.  0.
        -24    2    4    4    0    0 -0.56918397302E+03 -0.18448212967E+03 -0.70270377728E+03  0.92646031319E+03  0.80821172973E+02 0.  0.
         24    2    4    4    0    0 -0.76684896539E+01  0.51382018117E+03 -0.57520076961E+03  0.77542669640E+03  0.79753694726E+02 0.  0.
         11    1    3    3    0    0  0.15444598564E+03 -0.67495507674E+02 -0.19498949147E+02  0.16967443842E+03  0.00000000000E+00 0. -1.
        -11    1    3    3    0    0  0.42240647704E+03 -0.26184254383E+03 -0.20133037946E+03  0.53621140541E+03  0.00000000000E+00 0.  1.
          4    1    6    6  502    0 -0.32522727387E+02  0.10707790699E+03 -0.13989702973E+03  0.17914961594E+03  0.00000000000E+00 0. -1.
          1    1    5    5  503    0 -0.52672305374E+02 -0.27552360115E+02 -0.39690348076E+02  0.71476066146E+02  0.00000000000E+00 0. -1.
         -2    1    5    5    0  503 -0.51651166765E+03 -0.15692976956E+03 -0.66301342921E+03  0.85498424705E+03  0.00000000000E+00 0.  1.
         -3    1    6    6    0  502  0.24854237733E+02  0.40674227418E+03 -0.43530373987E+03  0.59627708046E+03  0.00000000000E+00 0.  1.
<mgrwt>
<rscale>  0 0.18844540E+04</rscale>
<asrwt>0</asrwt>
<pdfrwt beam="1">  1        1 0.30050051E+00 0.18844540E+04</pdfrwt>
<pdfrwt beam="2">  1       -1 0.69926076E-01 0.18844540E+04</pdfrwt>
<totfact> 0.62101669E+00</totfact>
</mgrwt>
</event>
<event>
12    1  0.1504874E-007  0.1594112E+04  0.7818608E-02  0.8824174E-01
          1   -1    0    0  501    0  0.00000000000E+00  0.00000000000E+00  0.16478318876E+04  0.16478318876E+04  0.00000000000E+00 0. -1.
         -1   -1    0    0    0  501 -0.00000000000E+00 -0.00000000000E+00 -0.38553564170E+03  0.38553564170E+03  0.00000000000E+00 0.  1.
         23    2    1    2    0    0  0.44720227646E+03  0.24624840380E+03  0.23166840000E+03  0.56778327372E+03  0.89885738093E+02 0.  0.
        254    2    1    2    0    0 -0.44720227646E+03 -0.24624840380E+03  0.10306278459E+04  0.14655842556E+04  0.90835857512E+03 0.  0.
        -24    2    4    4    0    0 -0.18384457340E+03 -0.34251303725E+03  0.17449794643E+01  0.39597834152E+03  0.75377676683E+02 0.  0.
         24    2    4    4    0    0 -0.26335770306E+03  0.96264633452E+02  0.10288828664E+04  0.10696059140E+04  0.82660142337E+02 0.  0.
         13    1    3    3    0    0 -0.23174169489E+01  0.52314798320E+01 -0.28539697565E+01  0.63940555142E+01  0.00000000000E+00 0. -1.
        -13    1    3    3    0    0  0.44951969341E+03  0.24101692397E+03  0.23452236976E+03  0.56138921821E+03  0.00000000000E+00 0.  1.
          4    1    6    6  502    0 -0.22776372977E+03  0.50916291804E+02  0.78213898235E+03  0.81621698897E+03  0.00000000000E+00 0. -1.
          3    1    5    5  503    0 -0.13721409911E+03 -0.30469698090E+03 -0.12019170814E+02  0.33438364139E+03  0.00000000000E+00 0. -1.
         -2    1    5    5    0  503 -0.46630474292E+02 -0.37816056351E+02  0.13764150279E+02  0.61594700125E+02  0.00000000000E+00 0.  1.
         -3    1    6    6    0  502 -0.35593973288E+02  0.45348341648E+02  0.24674388407E+03  0.25338892507E+03  0.00000000000E+00 0.  1.
<mgrwt>
<rscale>  0 0.15941116E+04</rscale>
<asrwt>0</asrwt>
<pdfrwt beam="1">  1        1 0.25351260E+00 0.15941116E+04</pdfrwt>
<pdfrwt beam="2">  1       -1 0.59313176E-01 0.15941116E+04</pdfrwt>
<totfact> 0.14312157E+01</totfact>
</mgrwt>
</event>
<event>
12    1  0.1504874E-007  0.1896240E+04  0.7818608E-02  0.8656730E-01
         -2   -1    0    0    0  501 -0.00000000000E+00  0.00000000000E+00  0.13218887008E+04  0.13218887008E+04  0.00000000000E+00 0.  1.
          2   -1    0    0  501    0  0.00000000000E+00 -0.00000000000E+00 -0.68003568347E+03  0.68003568347E+03  0.00000000000E+00 0. -1.
         23    2    1    2    0    0  0.29749124795E+03  0.66512992618E+03  0.27998980095E+03  0.78612131462E+03  0.93239323034E+02 0.  0.
        254    2    1    2    0    0 -0.29749124795E+03 -0.66512992618E+03  0.36186321643E+03  0.12158030697E+04  0.90351162448E+03 0.  0.
        -24    2    4    4    0    0 -0.29597497021E+03  0.58722258153E+02  0.37411162998E+03  0.48725498167E+03  0.80052600690E+02 0.  0.
         24    2    4    4    0    0 -0.15162777355E+01 -0.72385218434E+03 -0.12248413556E+02  0.72854808802E+03  0.81657878137E+02 0.  0.
         13    1    3    3    0    0  0.24035945705E+03  0.58937592676E+03  0.21807652538E+03  0.67282540273E+03  0.00000000000E+00 0.  1.
        -13    1    3    3    0    0  0.57131790904E+02  0.75753999425E+02  0.61913275570E+02  0.11329591190E+03  0.00000000000E+00 0. -1.
          2    1    6    6  502    0 -0.32807692098E+02 -0.30364065457E+03  0.19129541216E+02  0.30600642332E+03  0.00000000000E+00 0. -1.
          3    1    5    5  503    0 -0.68314689364E+02  0.49442934242E+02  0.10004278604E+03  0.13084364550E+03  0.00000000000E+00 0. -1.
         -4    1    5    5    0  503 -0.22766028085E+03  0.92793239113E+01  0.27406884395E+03  0.35641133617E+03  0.00000000000E+00 0.  1.
         -1    1    6    6    0  502  0.31291414363E+02 -0.42021152977E+03 -0.31377954772E+02  0.42254166470E+03  0.00000000000E+00 0.  1.
<mgrwt>
<rscale>  0 0.18962399E+04</rscale>
<asrwt>0</asrwt>
<pdfrwt beam="1">  1        2 0.10462087E+00 0.18962399E+04</pdfrwt>
<pdfrwt beam="2">  1       -2 0.20336749E+00 0.18962399E+04</pdfrwt>
<totfact> 0.50296143E+00</totfact>
</mgrwt>
</event>
<event>
12    1  0.1504874E-007  0.1166770E+04  0.7818608E-02  0.9142451E-01
         -1   -1    0    0    0  501 -0.00000000000E+00  0.00000000000E+00  0.53235793108E+03  0.53235793108E+03  0.00000000000E+00 0.  1.
          1   -1    0    0  501    0  0.00000000000E+00 -0.00000000000E+00 -0.63930276825E+03  0.63930276825E+03  0.00000000000E+00 0. -1.
         23    2    1    2    0    0 -0.20159764201E+03  0.41719113688E+02 -0.85648318250E+02  0.24070456436E+03  0.90669505193E+02 0.  0.
        254    2    1    2    0    0  0.20159764201E+03 -0.41719113688E+02 -0.21296518927E+02  0.93095613497E+03  0.90765835523E+03 0.  0.
        -24    2    4    4    0    0 -0.35440104344E+03 -0.58286209855E+02 -0.36604123949E+01  0.36866167968E+03  0.83070172707E+02 0.  0.
         24    2    4    4    0    0  0.55599868545E+03  0.16567096168E+02 -0.17636106532E+02  0.56229445530E+03  0.80343109886E+02 0.  0.
         13    1    3    3    0    0 -0.10065348368E+03  0.58859087182E+02 -0.72928611901E+02  0.13752853651E+03  0.00000000000E+00 0. -1.
        -13    1    3    3    0    0 -0.10094415833E+03 -0.17139973494E+02 -0.12719706350E+02  0.10317602785E+03  0.00000000000E+00 0.  1.
          2    1    6    6  502    0  0.47797132119E+03  0.30128075152E+02  0.81988984382E+01  0.47899009043E+03  0.00000000000E+00 0. -1.
          1    1    5    5  503    0 -0.32900909487E+03 -0.75158466258E+02 -0.95129865397E+01  0.33761853692E+03  0.00000000000E+00 0. -1.
         -2    1    5    5    0  503 -0.25391948568E+02  0.16872256403E+02  0.58525741448E+01  0.31043142759E+02  0.00000000000E+00 0.  1.
         -1    1    6    6    0  502  0.78027364262E+02 -0.13560978984E+02 -0.25835004971E+02  0.83304364871E+02  0.00000000000E+00 0.  1.
<mgrwt>
<rscale>  0 0.11667697E+04</rscale>
<asrwt>0</asrwt>
<pdfrwt beam="1">  1        1 0.98354272E-01 0.11667697E+04</pdfrwt>
<pdfrwt beam="2">  1       -1 0.81901220E-01 0.11667697E+04</pdfrwt>
<totfact> 0.45958919E+01</totfact>
</mgrwt>
</event>
<event>
12    1  0.1504874E-007  0.3795116E+04  0.7818608E-02  0.8047204E-01
          2   -1    0    0  501    0  0.00000000000E+00  0.00000000000E+00  0.26367370691E+04  0.26367370691E+04  0.00000000000E+00 0. -1.
         -2   -1    0    0    0  501 -0.00000000000E+00 -0.00000000000E+00 -0.13655994243E+04  0.13655994243E+04  0.00000000000E+00 0.  1.
         23    2    1    2    0    0  0.83013185022E+03 -0.11750792843E+04 -0.52257680303E+03  0.15334256970E+04  0.91529447644E+02 0.  0.
        254    2    1    2    0    0 -0.83013185022E+03  0.11750792843E+04  0.17937144479E+04  0.24689107965E+04  0.89898764581E+03 0.  0.
        -24    2    4    4    0    0 -0.78644204228E+03  0.10032048663E+04  0.18650792910E+04  0.22603171507E+04  0.74844976548E+02 0.  0.
         24    2    4    4    0    0 -0.43689807932E+02  0.17187441800E+03 -0.71364843094E+02  0.20859364578E+03  0.83479059351E+02 0.  0.
         11    1    3    3    0    0  0.65364776386E+03 -0.98593157830E+03 -0.42650869202E+03  0.12574681470E+04  0.00000000000E+00 0.  1.
        -11    1    3    3    0    0  0.17648408636E+03 -0.18914770604E+03 -0.96068111014E+02  0.27595754998E+03  0.00000000000E+00 0. -1.
          4    1    6    6  502    0  0.14678412401E+00  0.10806595184E+03 -0.76610385375E+01  0.10833726508E+03  0.00000000000E+00 0. -1.
          3    1    5    5  503    0 -0.46552577038E+03  0.54817587021E+03  0.10938122150E+04  0.13090592764E+04  0.00000000000E+00 0. -1.
         -4    1    5    5    0  503 -0.32091627190E+03  0.45502899612E+03  0.77126707596E+03  0.95125787426E+03  0.00000000000E+00 0.  1.
         -1    1    6    6    0  502 -0.43836592056E+02  0.63808466156E+02 -0.63703804556E+02  0.10025638070E+03  0.00000000000E+00 0.  1.
<mgrwt>
<rscale>  0 0.37951161E+04</rscale>
<asrwt>0</asrwt>
<pdfrwt beam="1">  1        2 0.40565186E+00 0.37951161E+04</pdfrwt>
<pdfrwt beam="2">  1       -2 0.21009222E+00 0.37951161E+04</pdfrwt>
<totfact> 0.26553487E-01</totfact>
</mgrwt>
</event>
<event>
12    1  0.1504874E-007  0.1334740E+04  0.7818608E-02  0.9002461E-01
          2   -1    0    0  501    0  0.00000000000E+00  0.00000000000E+00  0.11091148635E+04  0.11091148635E+04  0.00000000000E+00 0. -1.
         -2   -1    0    0    0  501 -0.00000000000E+00 -0.00000000000E+00 -0.40156590314E+03  0.40156590314E+03  0.00000000000E+00 0.  1.
         23    2    1    2    0    0 -0.18597257212E+03  0.15660881871E+03  0.49343986234E+03  0.55684564560E+03  0.86498876335E+02 0.  0.
        254    2    1    2    0    0  0.18597257212E+03 -0.15660881871E+03  0.21410909800E+03  0.95383512101E+03  0.89713243869E+03 0.  0.
        -24    2    4    4    0    0  0.30966285548E+03  0.26992158711E+03 -0.64212293750E+02  0.42372857897E+03  0.81694202454E+02 0.  0.
         24    2    4    4    0    0 -0.12369028336E+03 -0.42653040582E+03  0.27832139175E+03  0.53010654204E+03  0.79515253411E+02 0.  0.
         13    1    3    3    0    0 -0.19103851694E+03  0.13631293549E+03  0.47061278817E+03  0.52588337845E+03  0.00000000000E+00 0. -1.
        -13    1    3    3    0    0  0.50659448236E+01  0.20295883215E+02  0.22827074167E+02  0.30962267156E+02  0.00000000000E+00 0.  1.
          4    1    6    6  502    0 -0.87941547033E+02 -0.26843931517E+03  0.21930325498E+03  0.35761333765E+03  0.00000000000E+00 0. -1.
          1    1    5    5  503    0  0.30695583693E+03  0.25935601327E+03 -0.74537901688E+02  0.40870934200E+03  0.00000000000E+00 0. -1.
         -2    1    5    5    0  503  0.27070185458E+01  0.10565573837E+02  0.10325607937E+02  0.15019236971E+02  0.00000000000E+00 0.  1.
         -3    1    6    6    0  502 -0.35748736329E+02 -0.15809109066E+03  0.59018136765E+02  0.17249320439E+03  0.00000000000E+00 0.  1.
<mgrwt>
<rscale>  0 0.13347400E+04</rscale>
<asrwt>0</asrwt>
<pdfrwt beam="1">  1        2 0.17063305E+00 0.13347400E+04</pdfrwt>
<pdfrwt beam="2">  1       -2 0.61779370E-01 0.13347400E+04</pdfrwt>
<totfact> 0.51189932E+01</totfact>
</mgrwt>
</event>
<event>
12    1  0.1504874E-007  0.1337507E+04  0.7818608E-02  0.9000340E-01
          1   -1    0    0  501    0  0.00000000000E+00  0.00000000000E+00  0.79143887596E+03  0.79143887596E+03  0.00000000000E+00 0. -1.
         -1   -1    0    0    0  501 -0.00000000000E+00 -0.00000000000E+00 -0.56508611619E+03  0.56508611619E+03  0.00000000000E+00 0.  1.
         23    2    1    2    0    0  0.31335989160E+03 -0.12731530205E+03  0.18859530219E+03  0.39804387806E+03  0.92017025884E+02 0.  0.
        254    2    1    2    0    0 -0.31335989160E+03  0.12731530205E+03  0.37757457569E+02  0.95848111409E+03  0.89602277463E+03 0.  0.
        -24    2    4    4    0    0 -0.18700108333E+03 -0.24296907827E+03 -0.29987778137E+03  0.43643406305E+03  0.80898884223E+02 0.  0.
         24    2    4    4    0    0 -0.12635880827E+03  0.37028438031E+03  0.33763523894E+03  0.52204705104E+03  0.73881649875E+02 0.  0.
         11    1    3    3    0    0  0.46174585067E+01 -0.23307159685E+02  0.20815100153E+02  0.31588178327E+02  0.00000000000E+00 0.  1.
        -11    1    3    3    0    0  0.30874243310E+03 -0.10400814236E+03  0.16778020204E+03  0.36645569973E+03  0.00000000000E+00 0. -1.
          2    1    6    6  502    0 -0.11360920859E+03  0.36604506848E+03  0.31677754944E+03  0.49723642291E+03  0.00000000000E+00 0. -1.
          3    1    5    5  503    0 -0.99785326296E+02 -0.17833647856E+03 -0.22832208489E+03  0.30641799128E+03  0.00000000000E+00 0. -1.
         -4    1    5    5    0  503 -0.87215757038E+02 -0.64632599704E+02 -0.71555696482E+02  0.13001607177E+03  0.00000000000E+00 0.  1.
         -1    1    6    6    0  502 -0.12749599678E+02  0.42393118332E+01  0.20857689506E+02  0.24810628131E+02  0.00000000000E+00 0.  1.
<mgrwt>
<rscale>  0 0.13375068E+04</rscale>
<asrwt>0</asrwt>
<pdfrwt beam="1">  1        1 0.12175983E+00 0.13375068E+04</pdfrwt>
<pdfrwt beam="2">  1       -1 0.86936326E-01 0.13375068E+04</pdfrwt>
<totfact> 0.28740780E+01</totfact>
</mgrwt>
</event>
<event>
12    1  0.2028505E-007  0.1664567E+04  0.7818608E-02  0.8781835E-01
         -2   -1    0    0    0  501 -0.00000000000E+00  0.00000000000E+00  0.48826947340E+03  0.48826947340E+03  0.00000000000E+00 0.  1.
          2   -1    0    0  501    0  0.00000000000E+00 -0.00000000000E+00 -0.14186756265E+04  0.14186756265E+04  0.00000000000E+00 0. -1.
         23    2    1    2    0    0 -0.19651384541E+03  0.35987481171E+03  0.17522981894E+03  0.45519273215E+03  0.91473287940E+02 0.  0.
        254    2    1    2    0    0  0.19651384541E+03 -0.35987481171E+03 -0.11056359721E+04  0.14517523678E+04  0.84677415118E+03 0.  0.
        -24    2    4    4    0    0 -0.58546678339E+02 -0.22643224448E+02 -0.10044494506E+04  0.10096950122E+04  0.81393424745E+02 0.  0.
         24    2    4    4    0    0  0.25506052375E+03 -0.33723158727E+03 -0.10118652144E+03  0.44205735561E+03  0.79968614461E+02 0.  0.
         13    1    3    3    0    0 -0.17707233458E+03  0.32738882810E+03  0.18563360361E+03  0.41593015186E+03  0.00000000000E+00 0.  1.
        -13    1    3    3    0    0 -0.19441510838E+02  0.32485983617E+02 -0.10403784673E+02  0.39262580286E+02  0.00000000000E+00 0. -1.
          4    1    6    6  502    0  0.28453793726E+02 -0.88515583700E+02 -0.33653183009E+02  0.98879541169E+02  0.00000000000E+00 0. -1.
          3    1    5    5  503    0  0.15933138907E+02  0.12538100154E+02 -0.17810170692E+03  0.17925202057E+03  0.00000000000E+00 0. -1.
         -4    1    5    5    0  503 -0.74479817246E+02 -0.35181324602E+02 -0.82634774372E+03  0.83044299162E+03  0.00000000000E+00 0.  1.
         -3    1    6    6    0  502  0.22660673003E+03 -0.24871600357E+03 -0.67533338428E+02  0.34317781444E+03  0.00000000000E+00 0.  1.
<mgrwt>
<rscale>  0 0.16645672E+04</rscale>
<asrwt>0</asrwt>
<pdfrwt beam="1">  1        2 0.21825779E+00 0.16645672E+04</pdfrwt>
<pdfrwt beam="2">  1       -2 0.75118381E-01 0.16645672E+04</pdfrwt>
<totfact> 0.21436830E+01</totfact>
</mgrwt>
</event>
<event>
12    1  0.1504874E-007  0.2191677E+04  0.7818608E-02  0.8521900E-01
          1   -1    0    0  501    0  0.00000000000E+00  0.00000000000E+00  0.11521543118E+04  0.11521543118E+04  0.00000000000E+00 0. -1.
         -1   -1    0    0    0  501 -0.00000000000E+00 -0.00000000000E+00 -0.10422757579E+04  0.10422757579E+04  0.00000000000E+00 0.  1.
         23    2    1    2    0    0  0.86070502586E+03  0.48491127080E+02  0.33427452399E+03  0.92917533010E+03  0.91993509175E+02 0.  0.
        254    2    1    2    0    0 -0.86070502586E+03 -0.48491127080E+02 -0.22439597004E+03  0.12652547396E+04  0.89852739175E+03 0.  0.
        -24    2    4    4    0    0 -0.32647232487E+03 -0.38006990472E+03  0.15050052760E+03  0.52876575767E+03  0.76847292029E+02 0.  0.
         24    2    4    4    0    0 -0.53423270099E+03  0.33157877764E+03 -0.37489649764E+03  0.73648898192E+03  0.80743866394E+02 0.  0.
         13    1    3    3    0    0  0.25843105216E+03  0.56839565125E+02  0.98801409865E+02  0.28245187816E+03  0.00000000000E+00 0.  1.
        -13    1    3    3    0    0  0.60227397370E+03 -0.83484380454E+01  0.23547311412E+03  0.64672345194E+03  0.00000000000E+00 0. -1.
          4    1    6    6  502    0 -0.94999643075E+02  0.36664985558E+02 -0.35090440518E+02  0.10770604610E+03  0.00000000000E+00 0. -1.
          1    1    5    5  503    0 -0.73593367946E+02 -0.11356719309E+03  0.71220466842E+02  0.15292431477E+03  0.00000000000E+00 0. -1.
         -2    1    5    5    0  503 -0.25287895693E+03 -0.26650271163E+03  0.79280060760E+02  0.37584144290E+03  0.00000000000E+00 0.  1.
         -3    1    6    6    0  502 -0.43923305791E+03  0.29491379208E+03 -0.33980605712E+03  0.62878293582E+03  0.00000000000E+00 0.  1.
<mgrwt>
<rscale>  0 0.21916774E+04</rscale>
<asrwt>0</asrwt>
<pdfrwt beam="1">  1        1 0.17725451E+00 0.21916774E+04</pdfrwt>
<pdfrwt beam="2">  1       -1 0.16035012E+00 0.21916774E+04</pdfrwt>
<totfact> 0.30715855E+00</totfact>
</mgrwt>
</event>
<event>
12    1  0.3057814E-007  0.1415383E+04  0.7818608E-02  0.8942758E-01
          1   -1    0    0  501    0  0.00000000000E+00  0.00000000000E+00  0.13789469962E+04  0.13789469962E+04  0.00000000000E+00 0. -1.
         -1   -1    0    0    0  501 -0.00000000000E+00 -0.00000000000E+00 -0.36319538329E+03  0.36319538329E+03  0.00000000000E+00 0.  1.
         23    2    1    2    0    0  0.36459088035E+03  0.17200099730E+03  0.34685275013E+03  0.54671338996E+03  0.12679845184E+03 0.  0.
        254    2    1    2    0    0 -0.36459088035E+03 -0.17200099730E+03  0.66889886282E+03  0.11954289896E+04  0.90504912978E+03 0.  0.
        -24    2    4    4    0    0 -0.46005849570E+03  0.26329768865E+03  0.32493625914E+03  0.62691771243E+03  0.80391251631E+02 0.  0.
         24    2    4    4    0    0  0.95467615355E+02 -0.43529868595E+03  0.34396260368E+03  0.56851127713E+03  0.79346001337E+02 0.  0.
         11    1    3    3    0    0  0.35982828899E+03  0.13780838389E+03  0.29905188012E+03  0.48774950049E+03  0.00000000000E+00 0. -1.
        -11    1    3    3    0    0  0.47625913584E+01  0.34192613407E+02  0.47800870008E+02  0.58963889471E+02  0.00000000000E+00 0.  1.
          4    1    6    6  502    0  0.72842734302E+02 -0.38395681251E+03  0.26714951382E+03  0.47338964981E+03  0.00000000000E+00 0. -1.
          1    1    5    5  503    0 -0.41498281061E+03  0.26121697966E+03  0.28855423043E+03  0.56895394143E+03  0.00000000000E+00 0. -1.
         -2    1    5    5    0  503 -0.45075685086E+02  0.20807089976E+01  0.36382028710E+02  0.57963771004E+02  0.00000000000E+00 0.  1.
         -3    1    6    6    0  502  0.22624881053E+02 -0.51341873435E+02  0.76813089855E+02  0.95121627317E+02  0.00000000000E+00 0.  1.
<mgrwt>
<rscale>  0 0.14153829E+04</rscale>
<asrwt>0</asrwt>
<pdfrwt beam="1">  1        1 0.21214569E+00 0.14153829E+04</pdfrwt>
<pdfrwt beam="2">  1       -1 0.55876213E-01 0.14153829E+04</pdfrwt>
<totfact> 0.25081047E+01</totfact>
</mgrwt>
</event>
<event>
12    1  0.1504874E-007  0.1416752E+04  0.7818608E-02  0.8941781E-01
         -4   -1    0    0    0  501 -0.00000000000E+00  0.00000000000E+00  0.11225044974E+04  0.11225044974E+04  0.00000000000E+00 0.  1.
          4   -1    0    0  501    0  0.00000000000E+00 -0.00000000000E+00 -0.44703276162E+03  0.44703276162E+03  0.00000000000E+00 0. -1.
         23    2    1    2    0    0  0.10687530860E+02 -0.15903335266E+03  0.62163216549E+03  0.64829153242E+03  0.91921331958E+02 0.  0.
        254    2    1    2    0    0 -0.10687530860E+02  0.15903335266E+03  0.53839570314E+02  0.92124572662E+03  0.90575336539E+03 0.  0.
        -24    2    4    4    0    0 -0.70772410200E+02  0.23398862004E+03 -0.38627467770E+03  0.46399191091E+03  0.79504455245E+02 0.  0.
         24    2    4    4    0    0  0.60084879339E+02 -0.74955267385E+02  0.44011424801E+03  0.45725381571E+03  0.78434787209E+02 0.  0.
         13    1    3    3    0    0 -0.17695833178E+02 -0.95326656804E+02  0.48816989202E+03  0.49770488996E+03  0.00000000000E+00 0.  1.
        -13    1    3    3    0    0  0.28383364038E+02 -0.63706695854E+02  0.13346227346E+03  0.15058664246E+03  0.00000000000E+00 0. -1.
          4    1    6    6  502    0 -0.14721810422E+00 -0.60498965511E+02  0.18119426628E+03  0.19102750753E+03  0.00000000000E+00 0. -1.
          3    1    5    5  503    0 -0.30610963924E+02  0.45081491746E+02 -0.40343291222E+02  0.67800834486E+02  0.00000000000E+00 0. -1.
         -4    1    5    5    0  503 -0.40161446276E+02  0.18890712830E+03 -0.34593138648E+03  0.39619107642E+03  0.00000000000E+00 0.  1.
         -3    1    6    6    0  502  0.60232097443E+02 -0.14456301875E+02  0.25891998174E+03  0.26622630818E+03  0.00000000000E+00 0.  1.
<mgrwt>
<rscale>  0 0.14167516E+04</rscale>
<asrwt>0</asrwt>
<pdfrwt beam="1">  1        4 0.68774271E-01 0.14167516E+04</pdfrwt>
<pdfrwt beam="2">  1       -4 0.17269300E+00 0.14167516E+04</pdfrwt>
<totfact> 0.76541915E-01</totfact>
</mgrwt>
</event>
<event>
12    1  0.1504874E-007  0.1313524E+04  0.7818608E-02  0.9018909E-01
          2   -1    0    0  501    0  0.00000000000E+00  0.00000000000E+00  0.17560624065E+04  0.17560624065E+04  0.00000000000E+00 0. -1.
         -2   -1    0    0    0  501 -0.00000000000E+00 -0.00000000000E+00 -0.24562682350E+03  0.24562682350E+03  0.00000000000E+00 0.  1.
         23    2    1    2    0    0 -0.29152944835E+03 -0.12278095119E+03  0.60007601231E+03  0.68426239412E+03  0.89773170977E+02 0.  0.
        254    2    1    2    0    0  0.29152944835E+03  0.12278095119E+03  0.91035957071E+03  0.13174268359E+04  0.89821731154E+03 0.  0.
        -24    2    4    4    0    0  0.59891680037E+03  0.14877337914E+03  0.50401837630E+03  0.80091313528E+03  0.81194054581E+02 0.  0.
         24    2    4    4    0    0 -0.30738735202E+03 -0.25992427947E+02  0.40634119441E+03  0.51651370063E+03  0.80688575209E+02 0.  0.
         11    1    3    3    0    0 -0.23342518941E+03 -0.10207083510E+03  0.39434166119E+03  0.46947962701E+03  0.00000000000E+00 0.  1.
        -11    1    3    3    0    0 -0.58104258936E+02 -0.20710116089E+02  0.20573435112E+03  0.21478276711E+03  0.00000000000E+00 0. -1.
          2    1    6    6  502    0 -0.14738463143E+03 -0.52580028278E+02  0.19078895436E+03  0.24675354924E+03  0.00000000000E+00 0. -1.
          3    1    5    5  503    0  0.51605403125E+03  0.15632811410E+03  0.43867617698E+03  0.69511655906E+03  0.00000000000E+00 0. -1.
         -4    1    5    5    0  503  0.82862769119E+02 -0.75547349655E+01  0.65342199324E+02  0.10579657622E+03  0.00000000000E+00 0.  1.
         -1    1    6    6    0  502 -0.16000272060E+03  0.26587600331E+02  0.21555224005E+03  0.26976015139E+03  0.00000000000E+00 0.  1.
<mgrwt>
<rscale>  0 0.13135236E+04</rscale>
<asrwt>0</asrwt>
<pdfrwt beam="1">  1        2 0.27016344E+00 0.13135236E+04</pdfrwt>
<pdfrwt beam="2">  1       -2 0.37788743E-01 0.13135236E+04</pdfrwt>
<totfact> 0.59062979E+01</totfact>
</mgrwt>
</event>
<event>
12    1  0.1504874E-007  0.1674862E+04  0.7818608E-02  0.8775833E-01
         -1   -1    0    0    0  501 -0.00000000000E+00  0.00000000000E+00  0.30619571319E+03  0.30619571319E+03  0.00000000000E+00 0.  1.
          1   -1    0    0  501    0  0.00000000000E+00 -0.00000000000E+00 -0.22903338320E+04  0.22903338320E+04  0.00000000000E+00 0. -1.
         23    2    1    2    0    0 -0.79651417630E+02  0.12881339445E+03  0.17243454292E+03  0.24680114753E+03  0.90773872400E+02 0.  0.
        254    2    1    2    0    0  0.79651417630E+02 -0.12881339445E+03 -0.21565726617E+04  0.23497283976E+04  0.92058712708E+03 0.  0.
        -24    2    4    4    0    0  0.10914318397E+03  0.48510362327E+02  0.36545063828E+02  0.14783178738E+03  0.79077214229E+02 0.  0.
         24    2    4    4    0    0 -0.29491766340E+02 -0.17732375678E+03 -0.21931177255E+04  0.22018966102E+04  0.79182354311E+02 0.  0.
         13    1    3    3    0    0 -0.21012362732E+02 -0.96033617015E+01  0.91301969600E+01  0.24841586908E+02  0.00000000000E+00 0. -1.
        -13    1    3    3    0    0 -0.58639054898E+02  0.13841675615E+03  0.16330434596E+03  0.22195956062E+03  0.00000000000E+00 0.  1.
          2    1    6    6  502    0 -0.54286159553E+02 -0.89579679743E+02 -0.10936617463E+04  0.10986662466E+04  0.00000000000E+00 0. -1.
          1    1    5    5  503    0 -0.57965384390E+01  0.25294997577E+02  0.54229896240E+01  0.26511234916E+02  0.00000000000E+00 0. -1.
         -2    1    5    5    0  503  0.11493972241E+03  0.23215364749E+02  0.31122074204E+02  0.12132055247E+03  0.00000000000E+00 0.  1.
         -1    1    6    6    0  502  0.24794393213E+02 -0.87744077032E+02 -0.10994559792E+04  0.11032303636E+04  0.00000000000E+00 0.  1.
<mgrwt>
<rscale>  0 0.16748617E+04</rscale>
<asrwt>0</asrwt>
<pdfrwt beam="1">  1        1 0.35235905E+00 0.16748617E+04</pdfrwt>
<pdfrwt beam="2">  1       -1 0.47107033E-01 0.16748617E+04</pdfrwt>
<totfact> 0.81066087E+00</totfact>
</mgrwt>
</event>
<event>
12    1  0.1504874E-007  0.1612090E+04  0.7818608E-02  0.8813155E-01
         -1   -1    0    0    0  501 -0.00000000000E+00  0.00000000000E+00  0.37128135279E+03  0.37128135279E+03  0.00000000000E+00 0.  1.
          1   -1    0    0  501    0  0.00000000000E+00 -0.00000000000E+00 -0.17499087338E+04  0.17499087338E+04  0.00000000000E+00 0. -1.
         23    2    1    2    0    0 -0.21654265115E+03  0.40469880700E+02 -0.11339075909E+04  0.11587313884E+04  0.91561316873E+02 0.  0.
        254    2    1    2    0    0  0.21654265115E+03 -0.40469880700E+02 -0.24471979008E+03  0.96245869816E+03  0.90438401080E+03 0.  0.
        -24    2    4    4    0    0  0.55829969793E+03 -0.10233544424E+03 -0.17422846638E+03  0.59915788153E+03  0.80395974042E+02 0.  0.
         24    2    4    4    0    0 -0.34175704678E+03  0.61865563538E+02 -0.70491323697E+02  0.36330081664E+03  0.79957674291E+02 0.  0.
         13    1    3    3    0    0 -0.97701928950E+01 -0.70466149244E+01 -0.12234215981E+02  0.17169376569E+02  0.00000000000E+00 0.  1.
        -13    1    3    3    0    0 -0.20677245826E+03  0.47516495625E+02 -0.11216733749E+04  0.11415620118E+04  0.00000000000E+00 0. -1.
          4    1    6    6  502    0 -0.31130092747E+03  0.33699575944E+02 -0.50192458183E+02  0.31711703159E+03  0.00000000000E+00 0. -1.
          1    1    5    5  503    0  0.47882776928E+03 -0.10815459577E+03 -0.12910516938E+03  0.50758407578E+03  0.00000000000E+00 0. -1.
         -2    1    5    5    0  503  0.79471928649E+02  0.58191515322E+01 -0.45123296994E+02  0.91573805749E+02  0.00000000000E+00 0.  1.
         -3    1    6    6    0  502 -0.30456119303E+02  0.28165987594E+02 -0.20298865514E+02  0.46183785048E+02  0.00000000000E+00 0.  1.
<mgrwt>
<rscale>  0 0.16120899E+04</rscale>
<asrwt>0</asrwt>
<pdfrwt beam="1">  1        1 0.26921672E+00 0.16120899E+04</pdfrwt>
<pdfrwt beam="2">  1       -1 0.57120209E-01 0.16120899E+04</pdfrwt>
<totfact> 0.13109924E+01</totfact>
</mgrwt>
</event>
<event>
12    1  0.1504874E-007  0.1213216E+04  0.7818608E-02  0.9101367E-01
         -1   -1    0    0    0  501 -0.00000000000E+00  0.00000000000E+00  0.68866568522E+03  0.68866568522E+03  0.00000000000E+00 0.  1.
          1   -1    0    0  501    0  0.00000000000E+00 -0.00000000000E+00 -0.53432795698E+03  0.53432795698E+03  0.00000000000E+00 0. -1.
         23    2    1    2    0    0  0.24022526703E+03 -0.50419659325E+02  0.13181944727E+03  0.29678931180E+03  0.10226049070E+03 0.  0.
        254    2    1    2    0    0 -0.24022526703E+03  0.50419659325E+02  0.22518280965E+02  0.92620433040E+03  0.89280292770E+03 0.  0.
        -24    2    4    4    0    0  0.69348996744E+02 -0.36786409264E+03 -0.76373413564E+02  0.39044808163E+03  0.80520383415E+02 0.  0.
         24    2    4    4    0    0 -0.30957426377E+03  0.41828375197E+03  0.98891694529E+02  0.53575624877E+03  0.80359622306E+02 0.  0.
         11    1    3    3    0    0  0.22498951739E+03 -0.25060995439E+02  0.13990133761E+03  0.26612162763E+03  0.00000000000E+00 0.  1.
        -11    1    3    3    0    0  0.15235749631E+02 -0.25358663886E+02 -0.80818903386E+01  0.30667684170E+02  0.00000000000E+00 0. -1.
          2    1    6    6  502    0 -0.30423138174E+03  0.39814875485E+03  0.10869710522E+03  0.51273211847E+03  0.00000000000E+00 0. -1.
          1    1    5    5  503    0  0.81629161565E+02 -0.34250922281E+03 -0.58086722286E+02  0.35686125460E+03  0.00000000000E+00 0. -1.
         -2    1    5    5    0  503 -0.12280164821E+02 -0.25354869834E+02 -0.18286691278E+02  0.33586827035E+02  0.00000000000E+00 0.  1.
         -1    1    6    6    0  502 -0.53428820287E+01  0.20134997115E+02 -0.98054106893E+01  0.23024130298E+02  0.00000000000E+00 0.  1.
<mgrwt>
<rscale>  0 0.12132161E+04</rscale>
<asrwt>0</asrwt>
<pdfrwt beam="1">  1        1 0.82204301E-01 0.12132161E+04</pdfrwt>
<pdfrwt beam="2">  1       -1 0.10594857E+00 0.12132161E+04</pdfrwt>
<totfact> 0.33323576E+01</totfact>
</mgrwt>
</event>
<event>
12    1  0.1627902E-007  0.1868700E+04  0.7818608E-02  0.8670595E-01
          2   -1    0    0  501    0  0.00000000000E+00  0.00000000000E+00  0.13012790628E+04  0.13012790628E+04  0.00000000000E+00 0. -1.
         -2   -1    0    0    0  501 -0.00000000000E+00 -0.00000000000E+00 -0.67088590193E+03  0.67088590193E+03  0.00000000000E+00 0.  1.
         23    2    1    2    0    0  0.52190200622E+02  0.59249835210E+03 -0.15534305898E+03  0.62158942412E+03  0.91999086567E+02 0.  0.
        254    2    1    2    0    0 -0.52190200622E+02 -0.59249835210E+03  0.78573621983E+03  0.13505755406E+04  0.92352302051E+03 0.  0.
        -24    2    4    4    0    0 -0.44600907232E+03 -0.44298459467E+03  0.62853883260E+03  0.89288627552E+03  0.83817618766E+02 0.  0.
         24    2    4    4    0    0  0.39381887170E+03 -0.14951375743E+03  0.15719738722E+03  0.45768926507E+03  0.85561541859E+02 0.  0.
         11    1    3    3    0    0  0.14775549926E+02  0.89104470263E+02 -0.58471961876E+02  0.10759597493E+03  0.00000000000E+00 0. -1.
        -11    1    3    3    0    0  0.37414650697E+02  0.50339388183E+03 -0.96871097108E+02  0.51399344919E+03  0.00000000000E+00 0.  1.
          4    1    6    6  502    0  0.50976428814E+00  0.59341818087E+01  0.62782935431E+01  0.86539784598E+01  0.00000000000E+00 0. -1.
          3    1    5    5  503    0 -0.63167920828E+01 -0.16794250400E+02  0.43054089857E+01  0.18452242554E+02  0.00000000000E+00 0. -1.
         -4    1    5    5    0  503 -0.43969228024E+03 -0.42619034427E+03  0.62423342362E+03  0.87443403296E+03  0.00000000000E+00 0.  1.
         -3    1    6    6    0  502  0.39330910741E+03 -0.15544793924E+03  0.15091909368E+03  0.44903528661E+03  0.00000000000E+00 0.  1.
<mgrwt>
<rscale>  0 0.18686998E+04</rscale>
<asrwt>0</asrwt>
<pdfrwt beam="1">  1        2 0.20019678E+00 0.18686998E+04</pdfrwt>
<pdfrwt beam="2">  1       -2 0.10321322E+00 0.18686998E+04</pdfrwt>
<totfact> 0.11870628E+01</totfact>
</mgrwt>
</event>
<event>
12    1  0.1504874E-007  0.1429621E+04  0.7818608E-02  0.8932652E-01
          3   -1    0    0  501    0  0.00000000000E+00  0.00000000000E+00  0.33220691371E+04  0.33220691371E+04  0.00000000000E+00 0. -1.
         -3   -1    0    0    0  501 -0.00000000000E+00 -0.00000000000E+00 -0.15380590000E+03  0.15380590000E+03  0.00000000000E+00 0.  1.
         23    2    1    2    0    0 -0.32835489903E+03 -0.17453842353E+03  0.14507683775E+04  0.15005915082E+04  0.93623653782E+02 0.  0.
        254    2    1    2    0    0  0.32835489903E+03  0.17453842353E+03  0.17174948596E+04  0.19752835289E+04  0.90203981369E+03 0.  0.
        -24    2    4    4    0    0  0.14102569401E+03  0.23661792465E+03  0.45721409455E+02  0.28994774866E+03  0.78121450512E+02 0.  0.
         24    2    4    4    0    0  0.18732920502E+03 -0.62079501123E+02  0.16717734502E+04  0.16853357802E+04  0.81142638440E+02 0.  0.
         13    1    3    3    0    0 -0.25814377612E+03 -0.12560270332E+03  0.12462752155E+04  0.12789121006E+04  0.00000000000E+00 0. -1.
        -13    1    3    3    0    0 -0.70211122915E+02 -0.48935720204E+02  0.20449316199E+03  0.22167940769E+03  0.00000000000E+00 0.  1.
          4    1    6    6  502    0  0.12212383270E+03 -0.73863369845E+01  0.78355302340E+03  0.79304736868E+03  0.00000000000E+00 0. -1.
          3    1    5    5  503    0  0.19484104797E+02  0.10216784163E+03  0.46728563739E+01  0.10411404223E+03  0.00000000000E+00 0. -1.
         -4    1    5    5    0  503  0.12154158922E+03  0.13445008302E+03  0.41048553081E+02  0.18583370643E+03  0.00000000000E+00 0.  1.
         -3    1    6    6    0  502  0.65205372319E+02 -0.54693164138E+02  0.88822042678E+03  0.89228841152E+03  0.00000000000E+00 0.  1.
<mgrwt>
<rscale>  0 0.14296207E+04</rscale>
<asrwt>0</asrwt>
<pdfrwt beam="1">  1        3 0.51108751E+00 0.14296207E+04</pdfrwt>
<pdfrwt beam="2">  1       -3 0.23662449E-01 0.14296207E+04</pdfrwt>
<totfact> 0.13226263E-01</totfact>
</mgrwt>
</event>
<event>
12    1  0.1504874E-007  0.1618354E+04  0.7818608E-02  0.8809351E-01
          1   -1    0    0  501    0  0.00000000000E+00  0.00000000000E+00  0.80024172358E+03  0.80024172358E+03  0.00000000000E+00 0. -1.
         -1   -1    0    0    0  501 -0.00000000000E+00 -0.00000000000E+00 -0.81821251097E+03  0.81821251097E+03  0.00000000000E+00 0.  1.
         23    2    1    2    0    0 -0.51244635478E+02 -0.68456777321E+02 -0.56308389774E+03  0.57686342670E+03  0.91627474817E+02 0.  0.
        254    2    1    2    0    0  0.51244635478E+02  0.68456777321E+02  0.54511311035E+03  0.10415908078E+04  0.88343124514E+03 0.  0.
        -24    2    4    4    0    0 -0.32312001209E+03  0.27780852674E+03  0.37533150731E+03  0.57358784627E+03  0.80902146265E+02 0.  0.
         24    2    4    4    0    0  0.37436464757E+03 -0.20935174942E+03  0.16978160303E+03  0.46800296157E+03  0.78891919594E+02 0.  0.
         11    1    3    3    0    0 -0.15812744661E+02 -0.81072014978E+02 -0.45464192223E+03  0.46208439917E+03  0.00000000000E+00 0.  1.
        -11    1    3    3    0    0 -0.35431890817E+02  0.12615237657E+02 -0.10844197551E+03  0.11477902753E+03  0.00000000000E+00 0. -1.
          2    1    6    6  502    0  0.36371141108E+03 -0.21485761405E+03  0.17144115860E+03  0.45589675995E+03  0.00000000000E+00 0. -1.
          3    1    5    5  503    0 -0.16047277111E+03  0.12884132129E+03  0.23406067294E+03  0.31166648032E+03  0.00000000000E+00 0. -1.
         -4    1    5    5    0  503 -0.16264724098E+03  0.14896720545E+03  0.14127083437E+03  0.26192136595E+03  0.00000000000E+00 0.  1.
         -1    1    6    6    0  502  0.10653236489E+02  0.55058646373E+01 -0.16595555681E+01  0.12106201625E+02  0.00000000000E+00 0.  1.
<mgrwt>
<rscale>  0 0.16183545E+04</rscale>
<asrwt>0</asrwt>
<pdfrwt beam="1">  1        1 0.12311411E+00 0.16183545E+04</pdfrwt>
<pdfrwt beam="2">  1       -1 0.12587885E+00 0.16183545E+04</pdfrwt>
<totfact> 0.11646078E+01</totfact>
</mgrwt>
</event>
<event>
12    1  0.1504874E-007  0.2035785E+04  0.7818608E-02  0.8590070E-01
         -2   -1    0    0    0  501 -0.00000000000E+00  0.00000000000E+00  0.11424162212E+04  0.11424162212E+04  0.00000000000E+00 0.  1.
          2   -1    0    0  501    0  0.00000000000E+00 -0.00000000000E+00 -0.90694215988E+03  0.90694215988E+03  0.00000000000E+00 0. -1.
         23    2    1    2    0    0 -0.48377494539E+03  0.48065306395E+03  0.54883834808E+03  0.87930876997E+03  0.83035022440E+02 0.  0.
        254    2    1    2    0    0  0.48377494539E+03 -0.48065306395E+03 -0.31336428673E+03  0.11700496111E+04  0.89763764997E+03 0.  0.
        -24    2    4    4    0    0 -0.29568755394E+02 -0.25824851018E+03 -0.50546667184E+03  0.57414643876E+03  0.81123193336E+02 0.  0.
         24    2    4    4    0    0  0.51334370078E+03 -0.22240455377E+03  0.19210238511E+03  0.59590317237E+03  0.72192269737E+02 0.  0.
         11    1    3    3    0    0 -0.37356058255E+03  0.36705912118E+03  0.46417547854E+03  0.69981339095E+03  0.00000000000E+00 0.  1.
        -11    1    3    3    0    0 -0.11021436284E+03  0.11359394278E+03  0.84662869540E+02  0.17949537902E+03  0.00000000000E+00 0. -1.
          4    1    6    6  502    0  0.49169002726E+03 -0.20664536864E+03  0.19720576262E+03  0.56864004792E+03  0.00000000000E+00 0. -1.
          1    1    5    5  503    0 -0.47759667654E+02 -0.16801062718E+03 -0.38293401767E+03  0.42088836832E+03  0.00000000000E+00 0. -1.
         -4    1    5    5    0  503  0.18190912260E+02 -0.90237883002E+02 -0.12253265417E+03  0.15325807044E+03  0.00000000000E+00 0.  1.
         -3    1    6    6    0  502  0.21653673520E+02 -0.15759185135E+02 -0.51033775090E+01  0.27263124454E+02  0.00000000000E+00 0.  1.
<mgrwt>
<rscale>  0 0.20357853E+04</rscale>
<asrwt>0</asrwt>
<pdfrwt beam="1">  1        2 0.13952956E+00 0.20357853E+04</pdfrwt>
<pdfrwt beam="2">  1       -2 0.17575634E+00 0.20357853E+04</pdfrwt>
<totfact> 0.52136264E+00</totfact>
</mgrwt>
</event>
<event>
12    1  0.1504874E-007  0.1752148E+04  0.7818608E-02  0.8732169E-01
         -2   -1    0    0    0  501 -0.00000000000E+00  0.00000000000E+00  0.13931953028E+04  0.13931953028E+04  0.00000000000E+00 0.  1.
          2   -1    0    0  501    0  0.00000000000E+00 -0.00000000000E+00 -0.55089564839E+03  0.55089564839E+03  0.00000000000E+00 0. -1.
         23    2    1    2    0    0  0.29235788556E+02  0.12911023706E+03 -0.39176056649E+03  0.42357647809E+03  0.91741521045E+02 0.  0.
        254    2    1    2    0    0 -0.29235788556E+02 -0.12911023706E+03  0.12340602209E+04  0.15205144731E+04  0.87837090652E+03 0.  0.
        -24    2    4    4    0    0  0.14445466445E+03  0.34198668534E+03  0.54846026756E+03  0.66710609941E+03  0.79998998378E+02 0.  0.
         24    2    4    4    0    0 -0.17369045300E+03 -0.47109692240E+03  0.68559995330E+03  0.85340837365E+03  0.78472112883E+02 0.  0.
         11    1    3    3    0    0  0.51356931404E+02  0.50177711649E+02 -0.12121096457E+03  0.14088092518E+03  0.00000000000E+00 0. -1.
        -11    1    3    3    0    0 -0.22121142848E+02  0.78932525413E+02 -0.27054960193E+03  0.28269555290E+03  0.00000000000E+00 0.  1.
          2    1    6    6  502    0 -0.73839464361E+02 -0.13286031230E+03  0.16229305667E+03  0.22235819150E+03  0.00000000000E+00 0. -1.
          1    1    5    5  503    0  0.55728432323E+02  0.13425375236E+03  0.28603328544E+03  0.32085007180E+03  0.00000000000E+00 0. -1.
         -2    1    5    5    0  503  0.88726232126E+02  0.20773293298E+03  0.26242698212E+03  0.34625602761E+03  0.00000000000E+00 0.  1.
         -1    1    6    6    0  502 -0.99850988644E+02 -0.33823661010E+03  0.52330689662E+03  0.63105018216E+03  0.00000000000E+00 0.  1.
<mgrwt>
<rscale>  0 0.17521475E+04</rscale>
<asrwt>0</asrwt>
<pdfrwt beam="1">  1        2 0.84753177E-01 0.17521475E+04</pdfrwt>
<pdfrwt beam="2">  1       -2 0.21433774E+00 0.17521475E+04</pdfrwt>
<totfact> 0.55876255E+00</totfact>
</mgrwt>
</event>
<event>
12    1  0.1858860E-007  0.2579569E+04  0.7818608E-02  0.8375174E-01
          1   -1    0    0  501    0  0.00000000000E+00  0.00000000000E+00  0.17601947400E+04  0.17601947400E+04  0.00000000000E+00 0. -1.
         -1   -1    0    0    0  501 -0.00000000000E+00 -0.00000000000E+00 -0.94509088795E+03  0.94509088795E+03  0.00000000000E+00 0.  1.
         23    2    1    2    0    0 -0.87509378398E+03  0.21756620618E+03  0.10649893967E+04  0.13986101784E+04  0.93722095444E+02 0.  0.
        254    2    1    2    0    0  0.87509378398E+03 -0.21756620618E+03 -0.24988554457E+03  0.13066754496E+04  0.91204920942E+03 0.  0.
        -24    2    4    4    0    0  0.88794530921E+02  0.57889850643E+02 -0.43044851603E+03  0.45071572150E+03  0.81382019664E+02 0.  0.
         24    2    4    4    0    0  0.78629925306E+03 -0.27545605682E+03  0.18056297146E+03  0.85595972812E+03  0.76951380079E+02 0.  0.
         13    1    3    3    0    0 -0.11240920351E+03  0.57343366287E+02  0.17285454106E+03  0.21401584767E+03  0.00000000000E+00 0.  1.
        -13    1    3    3    0    0 -0.76268458047E+03  0.16022283989E+03  0.89213485560E+03  0.11845943307E+04  0.00000000000E+00 0. -1.
          2    1    6    6  502    0  0.64326583883E+03 -0.20496411763E+03  0.12187836557E+03  0.68604341328E+03  0.00000000000E+00 0. -1.
          1    1    5    5  503    0  0.50034232957E+02  0.57486072024E+02 -0.37737913860E+03  0.38499751583E+03  0.00000000000E+00 0. -1.
         -2    1    5    5    0  503  0.38760297965E+02  0.40377861939E+00 -0.53069377425E+02  0.65718205665E+02  0.00000000000E+00 0.  1.
         -1    1    6    6    0  502  0.14303341424E+03 -0.70491939197E+02  0.58684605888E+02  0.16991631484E+03  0.00000000000E+00 0.  1.
<mgrwt>
<rscale>  0 0.25795690E+04</rscale>
<asrwt>0</asrwt>
<pdfrwt beam="1">  1        1 0.27079919E+00 0.25795690E+04</pdfrwt>
<pdfrwt beam="2">  1       -1 0.14539860E+00 0.25795690E+04</pdfrwt>
<totfact> 0.14510946E+00</totfact>
</mgrwt>
</event>
<event>
12    1  0.1504874E-007  0.1332604E+04  0.7818608E-02  0.9004102E-01
          1   -1    0    0  501    0  0.00000000000E+00  0.00000000000E+00  0.97615021868E+03  0.97615021868E+03  0.00000000000E+00 0. -1.
         -1   -1    0    0    0  501 -0.00000000000E+00 -0.00000000000E+00 -0.45480504045E+03  0.45480504045E+03  0.00000000000E+00 0.  1.
         23    2    1    2    0    0  0.29924038333E+03 -0.11778296809E+03  0.32765795097E+03  0.46698512681E+03  0.85426818026E+02 0.  0.
        254    2    1    2    0    0 -0.29924038333E+03  0.11778296809E+03  0.19368722727E+03  0.96397013232E+03  0.88786600308E+03 0.  0.
        -24    2    4    4    0    0 -0.38773529295E+03  0.40062664550E+03 -0.58859200383E+02  0.56629486564E+03  0.79906838849E+02 0.  0.
         24    2    4    4    0    0  0.88494909619E+02 -0.28284367742E+03  0.25254642765E+03  0.39767526669E+03  0.80833314503E+02 0.  0.
         11    1    3    3    0    0  0.25162406067E+03 -0.81276777466E+02  0.30289162388E+03  0.40207451831E+03  0.00000000000E+00 0. -1.
        -11    1    3    3    0    0  0.47616322659E+02 -0.36506190620E+02  0.24766327096E+02  0.64910608493E+02  0.00000000000E+00 0.  1.
          4    1    6    6  502    0  0.30726702870E+02 -0.68669246473E+02  0.23494091375E+02  0.78813501445E+02  0.00000000000E+00 0. -1.
          3    1    5    5  503    0 -0.34737518612E+03  0.38790167829E+03 -0.50427765541E+02  0.52314452256E+03  0.00000000000E+00 0. -1.
         -4    1    5    5    0  503 -0.40360106829E+02  0.12724967209E+02 -0.84314348428E+01  0.43150343072E+02  0.00000000000E+00 0.  1.
         -3    1    6    6    0  502  0.57768206749E+02 -0.21417443094E+03  0.22905233628E+03  0.31886176524E+03  0.00000000000E+00 0.  1.
<mgrwt>
<rscale>  0 0.13326035E+04</rscale>
<asrwt>0</asrwt>
<pdfrwt beam="1">  1        1 0.15017696E+00 0.13326035E+04</pdfrwt>
<pdfrwt beam="2">  1       -1 0.69970006E-01 0.13326035E+04</pdfrwt>
<totfact> 0.31983586E+01</totfact>
</mgrwt>
</event>
<event>
12    1  0.1504874E-007  0.1614516E+04  0.7818608E-02  0.8811680E-01
         -2   -1    0    0    0  501 -0.00000000000E+00  0.00000000000E+00  0.23484807385E+03  0.23484807385E+03  0.00000000000E+00 0.  1.
          2   -1    0    0  501    0  0.00000000000E+00 -0.00000000000E+00 -0.27748378321E+04  0.27748378321E+04  0.00000000000E+00 0. -1.
         23    2    1    2    0    0  0.37017038020E+03 -0.17157132203E+03 -0.13862613954E+04  0.14478982485E+04  0.90696486283E+02 0.  0.
        254    2    1    2    0    0 -0.37017038020E+03  0.17157132203E+03 -0.11537283629E+04  0.15617876575E+04  0.97037555766E+03 0.  0.
        -24    2    4    4    0    0  0.14345871969E+03  0.40842884092E+03 -0.72288149129E+03  0.84636319635E+03  0.79865432596E+02 0.  0.
         24    2    4    4    0    0 -0.51362909989E+03 -0.23685751889E+03 -0.43084687159E+03  0.71542446117E+03  0.79289320608E+02 0.  0.
         13    1    3    3    0    0  0.16664950842E+03 -0.63969663689E+02 -0.75947326212E+03  0.78016909219E+03  0.00000000000E+00 0. -1.
        -13    1    3    3    0    0  0.20352087178E+03 -0.10760165834E+03 -0.62678813326E+03  0.66772915627E+03  0.00000000000E+00 0.  1.
          2    1    6    6  502    0 -0.50738607944E+03 -0.23652110510E+03 -0.43408147757E+03  0.70838520308E+03  0.00000000000E+00 0. -1.
          1    1    5    5  503    0  0.81434101355E+02  0.31456984450E+03 -0.49337253271E+03  0.59076404424E+03  0.00000000000E+00 0. -1.
         -2    1    5    5    0  503  0.62024618337E+02  0.93858996428E+02 -0.22950895858E+03  0.25559915211E+03  0.00000000000E+00 0.  1.
         -1    1    6    6    0  502 -0.62430204507E+01 -0.33641378908E+00  0.32346059791E+01  0.70392580878E+01  0.00000000000E+00 0.  1.
<mgrwt>
<rscale>  0 0.16145158E+04</rscale>
<asrwt>0</asrwt>
<pdfrwt beam="1">  1        2 0.42689812E+00 0.16145158E+04</pdfrwt>
<pdfrwt beam="2">  1       -2 0.36130473E-01 0.16145158E+04</pdfrwt>
<totfact> 0.16596681E+01</totfact>
</mgrwt>
</event>
<event>
12    1  0.1504874E-007  0.1349713E+04  0.7818608E-02  0.8991045E-01
         -2   -1    0    0    0  501 -0.00000000000E+00  0.00000000000E+00  0.45204954624E+03  0.45204954624E+03  0.00000000000E+00 0.  1.
          2   -1    0    0  501    0  0.00000000000E+00 -0.00000000000E+00 -0.10074808302E+04  0.10074808302E+04  0.00000000000E+00 0. -1.
         23    2    1    2    0    0  0.12971837603E+03 -0.28495288072E+03 -0.38075278580E+03  0.50193218093E+03  0.94542207760E+02 0.  0.
        254    2    1    2    0    0 -0.12971837603E+03  0.28495288072E+03 -0.17467849816E+03  0.95759819550E+03  0.88795085731E+03 0.  0.
        -24    2    4    4    0    0 -0.55452821234E+02 -0.30320380820E+03 -0.16122542783E+03  0.35803921717E+03  0.84799043418E+02 0.  0.
         24    2    4    4    0    0 -0.74265554791E+02  0.58815668893E+03 -0.13453070332E+02  0.59955897833E+03  0.88579456076E+02 0.  0.
         13    1    3    3    0    0 -0.88842825881E+00  0.55495556760E+01 -0.19609130231E+02  0.20398648519E+02  0.00000000000E+00 0.  1.
        -13    1    3    3    0    0  0.13060680428E+03 -0.29050243640E+03 -0.36114365557E+03  0.48153353241E+03  0.00000000000E+00 0. -1.
          2    1    6    6  502    0 -0.29804281819E+02  0.38840664713E+03  0.28772078430E+02  0.39060958929E+03  0.00000000000E+00 0. -1.
          1    1    5    5  503    0 -0.51994790643E+02 -0.11173854766E+03 -0.94310080234E+02  0.15518811978E+03  0.00000000000E+00 0. -1.
         -2    1    5    5    0  503 -0.34580305908E+01 -0.19146526054E+03 -0.66915347594E+02  0.20285109739E+03  0.00000000000E+00 0.  1.
         -1    1    6    6    0  502 -0.44461272972E+02  0.19975004180E+03 -0.42225148762E+02  0.20894938904E+03  0.00000000000E+00 0.  1.
<mgrwt>
<rscale>  0 0.13497129E+04</rscale>
<asrwt>0</asrwt>
<pdfrwt beam="1">  1        2 0.15499705E+00 0.13497129E+04</pdfrwt>
<pdfrwt beam="2">  1       -2 0.69546084E-01 0.13497129E+04</pdfrwt>
<totfact> 0.45891475E+01</totfact>
</mgrwt>
</event>
<event>
12    1  0.1504874E-007  0.2010988E+04  0.7818608E-02  0.8601501E-01
          2   -1    0    0  501    0  0.00000000000E+00  0.00000000000E+00  0.16261625284E+04  0.16261625284E+04  0.00000000000E+00 0.  1.
         -2   -1    0    0    0  501 -0.00000000000E+00 -0.00000000000E+00 -0.62172017105E+03  0.62172017105E+03  0.00000000000E+00 0. -1.
         23    2    1    2    0    0 -0.67840998789E+03 -0.13193527897E+03 -0.45716072517E+02  0.69888812749E+03  0.93314660920E+02 0.  0.
        254    2    1    2    0    0  0.67840998789E+03  0.13193527897E+03  0.10501584299E+04  0.15489945720E+04  0.90493338245E+03 0.  0.
        -24    2    4    4    0    0  0.35264365793E+03  0.51446251972E+03  0.59979535669E+03  0.86935077269E+03  0.83588649826E+02 0.  0.
         24    2    4    4    0    0  0.32576632996E+03 -0.38252724075E+03  0.45036307318E+03  0.67964379930E+03  0.81473950306E+02 0.  0.
         13    1    3    3    0    0 -0.20242973824E+02 -0.28489170008E+01  0.15122580165E+02  0.25428070083E+02  0.00000000000E+00 0.  1.
        -13    1    3    3    0    0 -0.65816701407E+03 -0.12908636197E+03 -0.60838652681E+02  0.67346005740E+03  0.00000000000E+00 0. -1.
          4    1    6    6  502    0  0.23818716314E+03 -0.23620875688E+03  0.33273467609E+03  0.47248287396E+03  0.00000000000E+00 0. -1.
          1    1    5    5  503    0  0.28105225010E+03  0.45835219711E+03  0.52677017372E+03  0.75270440400E+03  0.00000000000E+00 0. -1.
         -2    1    5    5    0  503  0.71591407833E+02  0.56110322615E+02  0.73025182975E+02  0.11664636869E+03  0.00000000000E+00 0.  1.
         -1    1    6    6    0  502  0.87579166825E+02 -0.14631848387E+03  0.11762839709E+03  0.20716092534E+03  0.00000000000E+00 0.  1.
<mgrwt>
<rscale>  0 0.20109879E+04</rscale>
<asrwt>0</asrwt>
<pdfrwt beam="1">  1        2 0.25017885E+00 0.20109879E+04</pdfrwt>
<pdfrwt beam="2">  1       -2 0.95649257E-01 0.20109879E+04</pdfrwt>
<totfact> 0.91809256E+00</totfact>
</mgrwt>
</event>
<event>
12    1  0.1504874E-007  0.1797534E+04  0.7818608E-02  0.8707612E-01
          2   -1    0    0  501    0  0.00000000000E+00  0.00000000000E+00  0.18501095510E+04  0.18501095510E+04  0.00000000000E+00 0.  1.
         -2   -1    0    0    0  501 -0.00000000000E+00 -0.00000000000E+00 -0.43661294988E+03  0.43661294988E+03  0.00000000000E+00 0. -1.
         23    2    1    2    0    0  0.34617390170E+03 -0.55405937824E+02  0.12543476760E+04  0.13063258705E+04  0.10096038507E+03 0.  0.
        254    2    1    2    0    0 -0.34617390170E+03  0.55405937824E+02  0.15914892506E+03  0.98039663037E+03  0.90163350888E+03 0.  0.
        -24    2    4    4    0    0 -0.18479114530E+03 -0.35392342062E+03 -0.15250216206E+03  0.43500665173E+03  0.81020507069E+02 0.  0.
         24    2    4    4    0    0 -0.16138275640E+03  0.40932935845E+03  0.31165108712E+03  0.54538997865E+03  0.82029939386E+02 0.  0.
         13    1    3    3    0    0  0.27228256751E+03 -0.33127629095E+02  0.11009997379E+04  0.11346522195E+04  0.00000000000E+00 0.  1.
        -13    1    3    3    0    0  0.73891334188E+02 -0.22278308730E+02  0.15334793811E+03  0.17167365095E+03  0.00000000000E+00 0. -1.
          4    1    6    6  502    0 -0.25279546645E+02  0.10055160521E+03  0.11495571870E+03  0.15480470939E+03  0.00000000000E+00 0. -1.
          3    1    5    5  503    0 -0.29813393162E+02 -0.12915124209E+03 -0.30748002768E+02  0.13606734149E+03  0.00000000000E+00 0. -1.
         -4    1    5    5    0  503 -0.15497775214E+03 -0.22477217853E+03 -0.12175415929E+03  0.29893931024E+03  0.00000000000E+00 0.  1.
         -3    1    6    6    0  502 -0.13610320975E+03  0.30877775324E+03  0.19669536842E+03  0.39058526926E+03  0.00000000000E+00 0.  1.
<mgrwt>
<rscale>  0 0.17975336E+04</rscale>
<asrwt>0</asrwt>
<pdfrwt beam="1">  1        2 0.28463223E+00 0.17975336E+04</pdfrwt>
<pdfrwt beam="2">  1       -2 0.67171224E-01 0.17975336E+04</pdfrwt>
<totfact> 0.15539686E+01</totfact>
</mgrwt>
</event>
<event>
12    1  0.1504874E-007  0.1895531E+04  0.7818608E-02  0.8657084E-01
          2   -1    0    0  501    0  0.00000000000E+00  0.00000000000E+00  0.11013721739E+04  0.11013721739E+04  0.00000000000E+00 0. -1.
         -2   -1    0    0    0  501 -0.00000000000E+00 -0.00000000000E+00 -0.81558232232E+03  0.81558232232E+03  0.00000000000E+00 0.  1.
         23    2    1    2    0    0 -0.42785248006E+03 -0.57642453796E+03 -0.17914853552E+02  0.72376489256E+03  0.90507928178E+02 0.  0.
        254    2    1    2    0    0  0.42785248006E+03  0.57642453796E+03  0.30370470514E+03  0.11931896037E+04  0.90340571711E+03 0.  0.
        -24    2    4    4    0    0 -0.20782148460E+03  0.38134146164E+03 -0.36010364630E+02  0.44223361357E+03  0.75251197877E+02 0.  0.
         24    2    4    4    0    0  0.63567396466E+03  0.19508307633E+03  0.33971506977E+03  0.75095599009E+03  0.79936064500E+02 0.  0.
         13    1    3    3    0    0 -0.25654792373E+03 -0.32792726407E+03 -0.53796816022E+02  0.41981808573E+03  0.00000000000E+00 0.  1.
        -13    1    3    3    0    0 -0.17130455633E+03 -0.24849727389E+03  0.35881962470E+02  0.30394680683E+03  0.00000000000E+00 0. -1.
          4    1    6    6  502    0  0.48996365773E+03  0.17043902600E+03  0.29393395906E+03  0.59624744844E+03  0.00000000000E+00 0. -1.
          1    1    5    5  503    0 -0.18824043789E+03  0.37252681116E+03 -0.25080390796E+02  0.41813839036E+03  0.00000000000E+00 0. -1.
         -2    1    5    5    0  503 -0.19581046712E+02  0.88146504765E+01 -0.10929973835E+02  0.24095223207E+02  0.00000000000E+00 0.  1.
         -3    1    6    6    0  502  0.14571030693E+03  0.24644050330E+02  0.45781110706E+02  0.15470854165E+03  0.00000000000E+00 0.  1.
<mgrwt>
<rscale>  0 0.18955312E+04</rscale>
<asrwt>0</asrwt>
<pdfrwt beam="1">  1        2 0.16944187E+00 0.18955312E+04</pdfrwt>
<pdfrwt beam="2">  1       -2 0.12547420E+00 0.18955312E+04</pdfrwt>
<totfact> 0.96762936E+00</totfact>
</mgrwt>
</event>
<event>
12    1  0.1504874E-007  0.1418579E+04  0.7818608E-02  0.8940479E-01
          2   -1    0    0  501    0  0.00000000000E+00  0.00000000000E+00  0.18010358263E+04  0.18010358263E+04  0.00000000000E+00 0. -1.
         -2   -1    0    0    0  501 -0.00000000000E+00 -0.00000000000E+00 -0.27933472531E+03  0.27933472531E+03  0.00000000000E+00 0.  1.
         23    2    1    2    0    0  0.27310055483E+03  0.30101185939E+03  0.59760553500E+03  0.72786592651E+03  0.86396637478E+02 0.  0.
        254    2    1    2    0    0 -0.27310055483E+03 -0.30101185939E+03  0.92409556602E+03  0.13525046251E+04  0.90006893811E+03 0.  0.
        -24    2    4    4    0    0 -0.58094330667E+02 -0.15679947119E+03 -0.15414506719E+03  0.24076729346E+03  0.79038993153E+02 0.  0.
         24    2    4    4    0    0 -0.21500622416E+03 -0.14421238819E+03  0.10782406332E+04  0.11117373317E+04  0.79574758507E+02 0.  0.
         11    1    3    3    0    0  0.38322995664E+02  0.42087750851E+02  0.14672187121E+03  0.15737642218E+03  0.00000000000E+00 0.  1.
        -11    1    3    3    0    0  0.23477755917E+03  0.25892410854E+03  0.45088366379E+03  0.57048950432E+03  0.00000000000E+00 0. -1.
          4    1    6    6  502    0 -0.19833255770E+03 -0.12569262935E+03  0.10393824146E+04  0.10655750768E+04  0.00000000000E+00 0. -1.
          3    1    5    5  503    0 -0.22824202645E+02 -0.89816945073E+02 -0.33899940139E+02  0.98677422900E+02  0.00000000000E+00 0. -1.
         -4    1    5    5    0  503 -0.35270128022E+02 -0.66982526122E+02 -0.12024512705E+03  0.14208987056E+03  0.00000000000E+00 0.  1.
         -3    1    6    6    0  502 -0.16673666461E+02 -0.18519758845E+02  0.38858218573E+02  0.46162254836E+02  0.00000000000E+00 0.  1.
<mgrwt>
<rscale>  0 0.14185794E+04</rscale>
<asrwt>0</asrwt>
<pdfrwt beam="1">  1        2 0.27708243E+00 0.14185794E+04</pdfrwt>
<pdfrwt beam="2">  1       -2 0.42974574E-01 0.14185794E+04</pdfrwt>
<totfact> 0.43001696E+01</totfact>
</mgrwt>
</event>
<event>
12    1  0.1504874E-007  0.2858397E+04  0.7818608E-02  0.8285364E-01
         -2   -1    0    0    0  501 -0.00000000000E+00  0.00000000000E+00  0.10650051594E+04  0.10650051594E+04  0.00000000000E+00 0. -1.
          2   -1    0    0  501    0  0.00000000000E+00 -0.00000000000E+00 -0.19179332975E+04  0.19179332975E+04  0.00000000000E+00 0.  1.
         23    2    1    2    0    0 -0.45134921247E+03  0.69994321715E+03  0.63282469286E+03  0.10498180537E+04  0.89522260976E+02 0.  0.
        254    2    1    2    0    0  0.45134921247E+03 -0.69994321715E+03 -0.14857528310E+04  0.19331204031E+04  0.91425182487E+03 0.  0.
        -24    2    4    4    0    0 -0.27422550158E+03 -0.15021530007E+03 -0.36976816805E+03  0.49070134362E+03  0.79341341296E+02 0.  0.
         24    2    4    4    0    0  0.72557471405E+03 -0.54972791709E+03 -0.11159846630E+04  0.14424190595E+04  0.80570011539E+02 0.  0.
         11    1    3    3    0    0 -0.13467868361E+03  0.26752036895E+03  0.26347408201E+03  0.39890360679E+03  0.00000000000E+00 0.  1.
        -11    1    3    3    0    0 -0.31667052886E+03  0.43242284820E+03  0.36935061085E+03  0.65091444694E+03  0.00000000000E+00 0. -1.
          2    1    6    6  502    0  0.44483012884E+03 -0.32677100961E+03 -0.73645794918E+03  0.92033876760E+03  0.00000000000E+00 0. -1.
          1    1    5    5  503    0 -0.26343070050E+03 -0.11823352432E+03 -0.33435467499E+03  0.44177816710E+03  0.00000000000E+00 0. -1.
         -2    1    5    5    0  503 -0.10794801077E+02 -0.31981775744E+02 -0.35413493064E+02  0.48923176522E+02  0.00000000000E+00 0.  1.
         -1    1    6    6    0  502  0.28074458521E+03 -0.22295690747E+03 -0.37952671379E+03  0.52208029190E+03  0.00000000000E+00 0.  1.
<mgrwt>
<rscale>  0 0.28583974E+04</rscale>
<asrwt>0</asrwt>
<pdfrwt beam="1">  1        2 0.29506666E+00 0.28583974E+04</pdfrwt>
<pdfrwt beam="2">  1       -2 0.16384695E+00 0.28583974E+04</pdfrwt>
<totfact> 0.15171158E+00</totfact>
</mgrwt>
</event>
<event>
12    1  0.1504874E-007  0.1466796E+04  0.7818608E-02  0.8906838E-01
         -1   -1    0    0    0  501 -0.00000000000E+00  0.00000000000E+00  0.43316940339E+03  0.43316940339E+03  0.00000000000E+00 0. -1.
          1   -1    0    0  501    0  0.00000000000E+00 -0.00000000000E+00 -0.12417150402E+04  0.12417150402E+04  0.00000000000E+00 0.  1.
         23    2    1    2    0    0  0.14840370163E+03 -0.41587310900E+03 -0.15598231050E+03  0.47722223046E+03  0.91850283642E+02 0.  0.
        254    2    1    2    0    0 -0.14840370163E+03  0.41587310900E+03 -0.65256332628E+03  0.11976622131E+04  0.90198768308E+03 0.  0.
        -24    2    4    4    0    0 -0.23308220333E+03 -0.20903129170E+03 -0.60401298803E+02  0.32886785437E+03  0.80525488658E+02 0.  0.
         24    2    4    4    0    0  0.84678501701E+02  0.62490440070E+03 -0.59216202747E+03  0.86879435872E+03  0.80447574845E+02 0.  0.
         11    1    3    3    0    0  0.68988521247E+02 -0.14100486997E+03 -0.13388627146E+02  0.15754696048E+03  0.00000000000E+00 0.  1.
        -11    1    3    3    0    0  0.79415180383E+02 -0.27486823903E+03 -0.14259368335E+03  0.31967526998E+03  0.00000000000E+00 0. -1.
          4    1    6    6  502    0  0.11880373552E+02  0.94992535604E+01 -0.80875028784E+01  0.17227501176E+02  0.00000000000E+00 0. -1.
          1    1    5    5  503    0 -0.93906889721E+02 -0.40878748264E+02 -0.38809329049E+02  0.10952506571E+03  0.00000000000E+00 0. -1.
         -2    1    5    5    0  503 -0.13917531361E+03 -0.16815254344E+03 -0.21591969755E+02  0.21934278867E+03  0.00000000000E+00 0.  1.
         -3    1    6    6    0  502  0.72798128149E+02  0.61540514714E+03 -0.58407452459E+03  0.85156685755E+03  0.00000000000E+00 0.  1.
<mgrwt>
<rscale>  0 0.14667965E+04</rscale>
<asrwt>0</asrwt>
<pdfrwt beam="1">  1        1 0.19103308E+00 0.14667965E+04</pdfrwt>
<pdfrwt beam="2">  1       -1 0.66641447E-01 0.14667965E+04</pdfrwt>
<totfact> 0.22048013E+01</totfact>
</mgrwt>
</event>
<event>
12    1  0.1504874E-007  0.1404315E+04  0.7818608E-02  0.8950701E-01
         -1   -1    0    0    0  501 -0.00000000000E+00  0.00000000000E+00  0.37026236589E+03  0.37026236589E+03  0.00000000000E+00 0.  1.
          1   -1    0    0  501    0  0.00000000000E+00 -0.00000000000E+00 -0.13315571436E+04  0.13315571436E+04  0.00000000000E+00 0. -1.
         23    2    1    2    0    0 -0.17364035796E+03 -0.30292893089E+02 -0.73415039990E+03  0.76041756928E+03  0.90495506551E+02 0.  0.
        254    2    1    2    0    0  0.17364035796E+03  0.30292893089E+02 -0.22714437780E+03  0.94140194021E+03  0.89642312073E+03 0.  0.
        -24    2    4    4    0    0  0.61267976056E+02 -0.42945814306E+02  0.33789936901E+03  0.35535423624E+03  0.80638339381E+02 0.  0.
         24    2    4    4    0    0  0.11237238191E+03  0.73238707394E+02 -0.56504374682E+03  0.58604770397E+03  0.78651224029E+02 0.  0.
         13    1    3    3    0    0 -0.13874163492E+01 -0.17342839210E+02 -0.24519211624E+02  0.30064775646E+02  0.00000000000E+00 0.  1.
        -13    1    3    3    0    0 -0.17225294161E+03 -0.12950053879E+02 -0.70963118828E+03  0.73035279363E+03  0.00000000000E+00 0. -1.
          2    1    6    6  502    0  0.17462830520E+02  0.55830820574E+02 -0.19093681434E+03  0.19969701562E+03  0.00000000000E+00 0. -1.
          1    1    5    5  503    0  0.45976118531E+00 -0.28351035231E+02  0.30442483879E+02  0.41602132202E+02  0.00000000000E+00 0. -1.
         -2    1    5    5    0  503  0.60808214871E+02 -0.14594779074E+02  0.30745688513E+03  0.31375210404E+03  0.00000000000E+00 0.  1.
         -1    1    6    6    0  502  0.94909551387E+02  0.17407886821E+02 -0.37410693247E+03  0.38635068835E+03  0.00000000000E+00 0.  1.
<mgrwt>
<rscale>  0 0.14043155E+04</rscale>
<asrwt>0</asrwt>
<pdfrwt beam="1">  1        1 0.20485495E+00 0.14043155E+04</pdfrwt>
<pdfrwt beam="2">  1       -1 0.56963440E-01 0.14043155E+04</pdfrwt>
<totfact> 0.26118017E+01</totfact>
</mgrwt>
</event>
<event>
12    1  0.1504874E-007  0.2110167E+04  0.7818608E-02  0.8556778E-01
         -4   -1    0    0    0  501 -0.00000000000E+00  0.00000000000E+00  0.17010265386E+04  0.17010265386E+04  0.00000000000E+00 0. -1.
          4   -1    0    0  501    0  0.00000000000E+00 -0.00000000000E+00 -0.65442913601E+03  0.65442913601E+03  0.00000000000E+00 0.  1.
         23    2    1    2    0    0 -0.71807975513E+03  0.44857181039E+03  0.59496731799E+03  0.10392002705E+04  0.95372370218E+02 0.  0.
        254    2    1    2    0    0  0.71807975513E+03 -0.44857181039E+03  0.45163008455E+03  0.13162554040E+04  0.90094580945E+03 0.  0.
        -24    2    4    4    0    0  0.43362395082E+03 -0.67204210246E+03  0.10759214799E+03  0.81091557127E+03  0.79609517130E+02 0.  0.
         24    2    4    4    0    0  0.28445580431E+03  0.22347029207E+03  0.34403793656E+03  0.50533983276E+03  0.78435761846E+02 0.  0.
         11    1    3    3    0    0 -0.52246946056E+03  0.31469898128E+03  0.47778079013E+03  0.77478014266E+03  0.00000000000E+00 0. -1.
        -11    1    3    3    0    0 -0.19561029457E+03  0.13387282911E+03  0.11718652786E+03  0.26442012788E+03  0.00000000000E+00 0.  1.
          4    1    6    6  502    0  0.70430275195E+02  0.35255834444E+02  0.11657449172E+03  0.14068763146E+03  0.00000000000E+00 0. -1.
          3    1    5    5  503    0  0.33504987575E+03 -0.47476078098E+03  0.51519378129E+02  0.58336135004E+03  0.00000000000E+00 0. -1.
         -4    1    5    5    0  503  0.98574075067E+02 -0.19728132148E+03  0.56072769857E+02  0.22755422123E+03  0.00000000000E+00 0.  1.
         -3    1    6    6    0  502  0.21402552912E+03  0.18821445762E+03  0.22746344484E+03  0.36465220129E+03  0.00000000000E+00 0.  1.
<mgrwt>
<rscale>  0 0.21101671E+04</rscale>
<asrwt>0</asrwt>
<pdfrwt beam="1">  1        4 0.10068141E+00 0.21101671E+04</pdfrwt>
<pdfrwt beam="2">  1       -4 0.26169639E+00 0.21101671E+04</pdfrwt>
<totfact> 0.79932323E-02</totfact>
</mgrwt>
</event>
<event>
12    1  0.1504874E-007  0.1360771E+04  0.7818608E-02  0.8982715E-01
          3   -1    0    0  501    0  0.00000000000E+00  0.00000000000E+00  0.62138790481E+03  0.62138790481E+03  0.00000000000E+00 0. -1.
         -3   -1    0    0    0  501 -0.00000000000E+00 -0.00000000000E+00 -0.74498435175E+03  0.74498435175E+03  0.00000000000E+00 0.  1.
         23    2    1    2    0    0  0.11245332180E+03 -0.37925929898E+02  0.32090534030E+03  0.35559788782E+03  0.96878762613E+02 0.  0.
        254    2    1    2    0    0 -0.11245332180E+03  0.37925929898E+02 -0.44450178725E+03  0.10107743687E+04  0.89999936660E+03 0.  0.
        -24    2    4    4    0    0 -0.67146632301E+02 -0.12278457109E+03  0.24716187931E+03  0.29503362729E+03  0.79819330499E+02 0.  0.
         24    2    4    4    0    0 -0.45306689501E+02  0.16071050099E+03 -0.69166366656E+03  0.71574074144E+03  0.77495935924E+02 0.  0.
         13    1    3    3    0    0 -0.13258159554E+02  0.10992318351E+02  0.24573697433E+02  0.30007940000E+02  0.00000000000E+00 0.  1.
        -13    1    3    3    0    0  0.12571148136E+03 -0.48918248249E+02  0.29633164287E+03  0.32558994782E+03  0.00000000000E+00 0. -1.
          4    1    6    6  502    0  0.21304691868E+02  0.28357960968E+02 -0.15423314261E+03  0.15825904753E+03  0.00000000000E+00 0. -1.
          1    1    5    5  503    0 -0.20273998100E+02 -0.32371735650E+02  0.14140707390E+02  0.40729889190E+02  0.00000000000E+00 0. -1.
         -2    1    5    5    0  503 -0.46872634202E+02 -0.90412835439E+02  0.23302117192E+03  0.25430373810E+03  0.00000000000E+00 0.  1.
         -3    1    6    6    0  502 -0.66611381369E+02  0.13235254002E+03 -0.53743052395E+03  0.55748169392E+03  0.00000000000E+00 0.  1.
<mgrwt>
<rscale>  0 0.13607708E+04</rscale>
<asrwt>0</asrwt>
<pdfrwt beam="1">  1        3 0.95598139E-01 0.13607708E+04</pdfrwt>
<pdfrwt beam="2">  1       -3 0.11461298E+00 0.13607708E+04</pdfrwt>
<totfact> 0.15699192E+00</totfact>
</mgrwt>
</event>
<event>
12    1  0.1504874E-007  0.2352347E+04  0.7818608E-02  0.8457563E-01
          2   -1    0    0  501    0  0.00000000000E+00  0.00000000000E+00  0.10962027672E+04  0.10962027672E+04  0.00000000000E+00 0. -1.
         -2   -1    0    0    0  501 -0.00000000000E+00 -0.00000000000E+00 -0.12619786386E+04  0.12619786386E+04  0.00000000000E+00 0.  1.
         23    2    1    2    0    0 -0.13071592088E+03  0.29438609851E+03 -0.10219055178E+04  0.10755394580E+04  0.93511557815E+02 0.  0.
        254    2    1    2    0    0  0.13071592088E+03 -0.29438609851E+03  0.85612964635E+03  0.12826419478E+04  0.89914546538E+03 0.  0.
        -24    2    4    4    0    0  0.25218578858E+03 -0.28868107626E+03 -0.22542424860E+02  0.39197812625E+03  0.78767092027E+02 0.  0.
         24    2    4    4    0    0 -0.12146986769E+03 -0.57050222423E+01  0.87867207121E+03  0.89066382154E+03  0.80187020436E+02 0.  0.
         13    1    3    3    0    0 -0.10196856550E+03  0.15727437466E+03 -0.69604576621E+03  0.72084154010E+03  0.00000000000E+00 0.  1.
        -13    1    3    3    0    0 -0.28747355383E+02  0.13711172384E+03 -0.32585975155E+03  0.35469791786E+03  0.00000000000E+00 0. -1.
          2    1    6    6  502    0 -0.83402793475E+02 -0.40535461598E+02  0.50459684693E+03  0.51304690579E+03  0.00000000000E+00 0. -1.
          1    1    5    5  503    0  0.67366044713E+02 -0.31024401665E+02 -0.72620955824E+01  0.74521376203E+02  0.00000000000E+00 0. -1.
         -2    1    5    5    0  503  0.18481974386E+03 -0.25765667460E+03 -0.15280329277E+02  0.31745675005E+03  0.00000000000E+00 0.  1.
         -1    1    6    6    0  502 -0.38067074218E+02  0.34830439356E+02  0.37407522427E+03  0.37761691575E+03  0.00000000000E+00 0.  1.
<mgrwt>
<rscale>  0 0.23523473E+04</rscale>
<asrwt>0</asrwt>
<pdfrwt beam="1">  1        2 0.16864658E+00 0.23523473E+04</pdfrwt>
<pdfrwt beam="2">  1       -2 0.19415056E+00 0.23523473E+04</pdfrwt>
<totfact> 0.28747844E+00</totfact>
</mgrwt>
</event>
<event>
12    1  0.1504874E-007  0.2671817E+04  0.7818608E-02  0.8344208E-01
          2   -1    0    0  501    0  0.00000000000E+00  0.00000000000E+00  0.18652009698E+04  0.18652009698E+04  0.00000000000E+00 0. -1.
         -2   -1    0    0    0  501 -0.00000000000E+00 -0.00000000000E+00 -0.95681434056E+03  0.95681434056E+03  0.00000000000E+00 0.  1.
         23    2    1    2    0    0 -0.14551572045E+03 -0.11637179929E+04  0.55285402287E+03  0.12998133020E+04  0.91938335787E+02 0.  0.
        254    2    1    2    0    0  0.14551572045E+03  0.11637179929E+04  0.35553260637E+03  0.15222020084E+04  0.90292919337E+03 0.  0.
        -24    2    4    4    0    0 -0.17278957613E+03  0.11284147147E+04  0.21916310453E+03  0.11652019520E+04  0.80542638880E+02 0.  0.
         24    2    4    4    0    0  0.31830529658E+03  0.35303278181E+02  0.13636950184E+03  0.35700005633E+03  0.79295749618E+02 0.  0.
         13    1    3    3    0    0 -0.10907192761E+03 -0.77337389811E+03  0.32159770924E+03  0.84464723894E+03  0.00000000000E+00 0. -1.
        -13    1    3    3    0    0 -0.36443792845E+02 -0.39034409478E+03  0.23125631363E+03  0.45516606305E+03  0.00000000000E+00 0.  1.
          2    1    6    6  502    0  0.14533318383E+03  0.81694496563E+01  0.20389985355E+02  0.14698376010E+03  0.00000000000E+00 0. -1.
          1    1    5    5  503    0 -0.66219400702E+02  0.63044024334E+03  0.14852790082E+03  0.65107637553E+03  0.00000000000E+00 0. -1.
         -2    1    5    5    0  503 -0.10657017542E+03  0.49797447136E+03  0.70635203707E+02  0.51412557651E+03  0.00000000000E+00 0.  1.
         -1    1    6    6    0  502  0.17297211275E+03  0.27133828525E+02  0.11597951648E+03  0.21001629623E+03  0.00000000000E+00 0.  1.
<mgrwt>
<rscale>  0 0.26718166E+04</rscale>
<asrwt>0</asrwt>
<pdfrwt beam="1">  1        2 0.28695400E+00 0.26718166E+04</pdfrwt>
<pdfrwt beam="2">  1       -2 0.14720221E+00 0.26718166E+04</pdfrwt>
<totfact> 0.21987077E+00</totfact>
</mgrwt>
</event>
<event>
12    1  0.1504874E-007  0.2239142E+04  0.7818608E-02  0.8502311E-01
          2   -1    0    0  501    0  0.00000000000E+00  0.00000000000E+00  0.16938572242E+04  0.16938572242E+04  0.00000000000E+00 0. -1.
         -2   -1    0    0    0  501 -0.00000000000E+00 -0.00000000000E+00 -0.73999085638E+03  0.73999085638E+03  0.00000000000E+00 0.  1.
         23    2    1    2    0    0  0.50887113224E+03  0.71853471442E+03  0.73921928679E+03  0.11533122012E+04  0.91879891437E+02 0.  0.
        254    2    1    2    0    0 -0.50887113224E+03 -0.71853471442E+03  0.21464708103E+03  0.12805358794E+04  0.90468602503E+03 0.  0.
        -24    2    4    4    0    0 -0.58192155787E+03 -0.87127670855E+03  0.89138511316E+02  0.10545636767E+04  0.80019195407E+02 0.  0.
         24    2    4    4    0    0  0.73050425629E+02  0.15274199413E+03  0.12550856971E+03  0.22597220266E+03  0.81514132832E+02 0.  0.
         13    1    3    3    0    0  0.29826257530E+03  0.34196333221E+03  0.38388238834E+03  0.59436114651E+03  0.00000000000E+00 0. -1.
        -13    1    3    3    0    0  0.21060855694E+03  0.37657138221E+03  0.35533689845E+03  0.55895105471E+03  0.00000000000E+00 0.  1.
          4    1    6    6  502    0  0.14893968491E+02  0.97482951165E+02  0.34077948630E+02  0.10433629593E+03  0.00000000000E+00 0. -1.
          3    1    5    5  503    0 -0.19645072717E+03 -0.36090176114E+03  0.47138691485E+02  0.41360007934E+03  0.00000000000E+00 0. -1.
         -2    1    5    5    0  503 -0.38547083070E+03 -0.51037494741E+03  0.41999819830E+02  0.64096359735E+03  0.00000000000E+00 0.  1.
         -3    1    6    6    0  502  0.58156457138E+02  0.55259042961E+02  0.91430621083E+02  0.12163590674E+03  0.00000000000E+00 0.  1.
<mgrwt>
<rscale>  0 0.22391417E+04</rscale>
<asrwt>0</asrwt>
<pdfrwt beam="1">  1        2 0.26059342E+00 0.22391417E+04</pdfrwt>
<pdfrwt beam="2">  1       -2 0.11384475E+00 0.22391417E+04</pdfrwt>
<totfact> 0.54433765E+00</totfact>
</mgrwt>
</event>
<event>
12    1  0.1504874E-007  0.1852452E+04  0.7818608E-02  0.8678893E-01
         -2   -1    0    0    0  501 -0.00000000000E+00  0.00000000000E+00  0.87283501852E+03  0.87283501852E+03  0.00000000000E+00 0.  1.
          2   -1    0    0  501    0  0.00000000000E+00 -0.00000000000E+00 -0.98288317900E+03  0.98288317900E+03  0.00000000000E+00 0. -1.
         23    2    1    2    0    0 -0.13350729193E+03 -0.29510869710E+03 -0.67054916681E+03  0.75034176504E+03  0.91995864830E+02 0.  0.
        254    2    1    2    0    0  0.13350729193E+03  0.29510869710E+03  0.56050100633E+03  0.11053764325E+04  0.89598121592E+03 0.  0.
        -24    2    4    4    0    0 -0.23401048574E+03 -0.87307218572E+02  0.49999444949E+03  0.56415786959E+03  0.76786681409E+02 0.  0.
         24    2    4    4    0    0  0.36751777767E+03  0.38241591568E+03  0.60506556834E+02  0.54121856289E+03  0.89136075365E+02 0.  0.
         13    1    3    3    0    0 -0.12101844415E+03 -0.28636570279E+03 -0.57573677773E+03  0.65431155942E+03  0.00000000000E+00 0. -1.
        -13    1    3    3    0    0 -0.12488847781E+02 -0.87429943177E+01 -0.94812389076E+02  0.96030205617E+02  0.00000000000E+00 0.  1.
          4    1    6    6  502    0  0.36609041264E+02  0.34930971505E+02 -0.20488202086E+02  0.54590851772E+02  0.00000000000E+00 0. -1.
          1    1    5    5  503    0 -0.16128477608E+03 -0.26401523237E+02  0.35605225321E+03  0.39176909837E+03  0.00000000000E+00 0. -1.
         -2    1    5    5    0  503 -0.72725709656E+02 -0.60905695336E+02  0.14394219629E+03  0.17238877122E+03  0.00000000000E+00 0.  1.
         -3    1    6    6    0  502  0.33090873640E+03  0.34748494417E+03  0.80994758919E+02  0.48662771112E+03  0.00000000000E+00 0.  1.
<mgrwt>
<rscale>  0 0.18524523E+04</rscale>
<asrwt>0</asrwt>
<pdfrwt beam="1">  1        2 0.15121280E+00 0.18524523E+04</pdfrwt>
<pdfrwt beam="2">  1       -2 0.13428231E+00 0.18524523E+04</pdfrwt>
<totfact> 0.97142843E+00</totfact>
</mgrwt>
</event>
<event>
12    1  0.1504874E-007  0.1530398E+04  0.7818608E-02  0.8864486E-01
          2   -1    0    0  501    0  0.00000000000E+00  0.00000000000E+00  0.12795226798E+04  0.12795226798E+04  0.00000000000E+00 0. -1.
         -2   -1    0    0    0  501 -0.00000000000E+00 -0.00000000000E+00 -0.45761587194E+03  0.45761587194E+03  0.00000000000E+00 0.  1.
         23    2    1    2    0    0  0.17782416999E+03 -0.36803018759E+03  0.53985049171E+03  0.68341192933E+03  0.92442724650E+02 0.  0.
        254    2    1    2    0    0 -0.17782416999E+03  0.36803018759E+03  0.28205631615E+03  0.10537266224E+04  0.92936342456E+03 0.  0.
        -24    2    4    4    0    0  0.32789384327E+02 -0.16976616653E+03  0.41471518175E+03  0.45573586100E+03  0.76228590512E+02 0.  0.
         24    2    4    4    0    0 -0.21061355432E+03  0.53779635411E+03 -0.13265886559E+03  0.59799076141E+03  0.80072394463E+02 0.  0.
         13    1    3    3    0    0  0.58990412261E+02 -0.18867594727E+03  0.20019128457E+03  0.28134504124E+03  0.00000000000E+00 0. -1.
        -13    1    3    3    0    0  0.11883375773E+03 -0.17935424032E+03  0.33965920715E+03  0.40206688809E+03  0.00000000000E+00 0.  1.
          4    1    6    6  502    0 -0.96834568045E+02  0.28287823328E+03 -0.10738070935E+03  0.31769111598E+03  0.00000000000E+00 0. -1.
          3    1    5    5  503    0  0.33096126254E+02 -0.15430103477E+03  0.29081521662E+03  0.33087407442E+03  0.00000000000E+00 0. -1.
         -4    1    5    5    0  503 -0.30674192742E+00 -0.15465131755E+02  0.12389996512E+03  0.12486178658E+03  0.00000000000E+00 0.  1.
         -3    1    6    6    0  502 -0.11377898627E+03  0.25491812084E+03 -0.25278156241E+02  0.28029964544E+03  0.00000000000E+00 0.  1.
<mgrwt>
<rscale>  0 0.15303985E+04</rscale>
<asrwt>0</asrwt>
<pdfrwt beam="1">  1        2 0.19684964E+00 0.15303985E+04</pdfrwt>
<pdfrwt beam="2">  1       -2 0.70402443E-01 0.15303985E+04</pdfrwt>
<totfact> 0.30074409E+01</totfact>
</mgrwt>
</event>
<event>
12    1  0.1504874E-007  0.1803186E+04  0.7818608E-02  0.8704607E-01
          2   -1    0    0  501    0  0.00000000000E+00  0.00000000000E+00  0.54640797071E+03  0.54640797071E+03  0.00000000000E+00 0. -1.
         -2   -1    0    0    0  501 -0.00000000000E+00 -0.00000000000E+00 -0.14876605750E+04  0.14876605750E+04  0.00000000000E+00 0.  1.
         23    2    1    2    0    0  0.97036547306E+01  0.67903758990E+02 -0.11138447747E+04  0.11197272529E+04  0.91836035194E+02 0.  0.
        254    2    1    2    0    0 -0.97036547306E+01 -0.67903758990E+02  0.17259217038E+03  0.91434129284E+03  0.89528032543E+03 0.  0.
        -24    2    4    4    0    0 -0.17613801892E+03 -0.43119049392E+03  0.11114304059E+01  0.47224490089E+03  0.77872764070E+02 0.  0.
         24    2    4    4    0    0  0.16643436419E+03  0.36328673493E+03  0.17148073998E+03  0.44209639195E+03  0.79786754722E+02 0.  0.
         11    1    3    3    0    0  0.25818212878E+02  0.74788398586E+01 -0.88859844991E+02  0.92836335632E+02  0.00000000000E+00 0. -1.
        -11    1    3    3    0    0 -0.16114558147E+02  0.60424919131E+02 -0.10249849297E+04  0.10268909172E+04  0.00000000000E+00 0.  1.
          4    1    6    6  502    0  0.41896094903E+02  0.12175341175E+03  0.94300515087E+02  0.15959875685E+03  0.00000000000E+00 0. -1.
          1    1    5    5  503    0 -0.91784402406E+02 -0.13367605020E+03 -0.13063579083E+02  0.16267857887E+03  0.00000000000E+00 0. -1.
         -2    1    5    5    0  503 -0.84353616517E+02 -0.29751444371E+03  0.14175009489E+02  0.30956632203E+03  0.00000000000E+00 0.  1.
         -3    1    6    6    0  502  0.12453826929E+03  0.24153332318E+03  0.77180224890E+02  0.28249763510E+03  0.00000000000E+00 0.  1.
<mgrwt>
<rscale>  0 0.18031856E+04</rscale>
<asrwt>0</asrwt>
<pdfrwt beam="1">  1        2 0.84062766E-01 0.18031856E+04</pdfrwt>
<pdfrwt beam="2">  1       -2 0.22887085E+00 0.18031856E+04</pdfrwt>
<totfact> 0.45482035E+00</totfact>
</mgrwt>
</event>
<event>
12    1  0.1504874E-007  0.1083421E+04  0.7818608E-02  0.9221503E-01
          1   -1    0    0  501    0  0.00000000000E+00  0.00000000000E+00  0.96069602518E+03  0.96069602518E+03  0.00000000000E+00 0. -1.
         -1   -1    0    0    0  501 -0.00000000000E+00 -0.00000000000E+00 -0.30545604134E+03  0.30545604134E+03  0.00000000000E+00 0.  1.
         23    2    1    2    0    0 -0.79191692447E+02 -0.67471286965E+02  0.17035198678E+02  0.14403449564E+03  0.98142952998E+02 0.  0.
        254    2    1    2    0    0  0.79191692447E+02  0.67471286965E+02  0.63820478516E+03  0.11221175709E+04  0.91707076955E+03 0.  0.
        -24    2    4    4    0    0 -0.79703293401E+01  0.32428678297E+03  0.74767874928E+03  0.81886155523E+03  0.79279825541E+02 0.  0.
         24    2    4    4    0    0  0.87162021787E+02 -0.25681549601E+03 -0.10947396413E+03  0.30325601566E+03  0.80176338030E+02 0.  0.
         13    1    3    3    0    0  0.14593336752E+02 -0.38756035744E+01 -0.19785093423E+02  0.24888465248E+02  0.00000000000E+00 0.  1.
        -13    1    3    3    0    0 -0.93785029199E+02 -0.63595683390E+02  0.36820292102E+02  0.11914603039E+03  0.00000000000E+00 0. -1.
          2    1    6    6  502    0  0.56204069890E+02 -0.22621279810E+03 -0.67217816126E+02  0.24258887506E+03  0.00000000000E+00 0. -1.
          1    1    5    5  503    0 -0.59787502815E+01  0.83638222928E+02  0.11797781225E+03  0.14474067145E+03  0.00000000000E+00 0. -1.
         -2    1    5    5    0  503 -0.19915790585E+01  0.24064856004E+03  0.62970093703E+03  0.67412088377E+03  0.00000000000E+00 0.  1.
         -1    1    6    6    0  502  0.30957951897E+02 -0.30602697905E+02 -0.42256148000E+02  0.60667140599E+02  0.00000000000E+00 0.  1.
<mgrwt>
<rscale>  0 0.10834213E+04</rscale>
<asrwt>0</asrwt>
<pdfrwt beam="1">  1        1 0.14779939E+00 0.10834213E+04</pdfrwt>
<pdfrwt beam="2">  1       -1 0.46993238E-01 0.10834213E+04</pdfrwt>
<totfact> 0.73156014E+01</totfact>
</mgrwt>
</event>
<event>
12    1  0.1504874E-007  0.1856962E+04  0.7818608E-02  0.8676581E-01
          1   -1    0    0  501    0  0.00000000000E+00  0.00000000000E+00  0.97253141187E+03  0.97253141187E+03  0.00000000000E+00 0. -1.
         -1   -1    0    0    0  501 -0.00000000000E+00 -0.00000000000E+00 -0.88642566520E+03  0.88642566520E+03  0.00000000000E+00 0.  1.
         23    2    1    2    0    0  0.97421185641E+02  0.55536421109E+03  0.46308833145E+03  0.73554275483E+03  0.93016380748E+02 0.  0.
        254    2    1    2    0    0 -0.97421185641E+02 -0.55536421109E+03 -0.37698258478E+03  0.11234143222E+04  0.89555768984E+03 0.  0.
        -24    2    4    4    0    0 -0.10526235523E+03 -0.78567247206E+03 -0.19826771199E+03  0.82103151940E+03  0.80132848683E+02 0.  0.
         24    2    4    4    0    0  0.78411695923E+01  0.23030826097E+03 -0.17871487278E+03  0.30238280285E+03  0.79956079749E+02 0.  0.
         13    1    3    3    0    0  0.62289753921E+02  0.32173572550E+03  0.20949108507E+03  0.38894781813E+03  0.00000000000E+00 0.  1.
        -13    1    3    3    0    0  0.35131431720E+02  0.23362848560E+03  0.25359724638E+03  0.34659493670E+03  0.00000000000E+00 0. -1.
          2    1    6    6  502    0 -0.95111259361E+01  0.83874913666E+02 -0.11273779896E+03  0.14083775763E+03  0.00000000000E+00 0. -1.
          3    1    5    5  503    0  0.10227896227E+02 -0.27695999747E+02 -0.12888784299E+02  0.32214888234E+02  0.00000000000E+00 0. -1.
         -4    1    5    5    0  503 -0.11549025146E+03 -0.75797647232E+03 -0.18537892769E+03  0.78881663117E+03  0.00000000000E+00 0.  1.
         -1    1    6    6    0  502  0.17352295528E+02  0.14643334731E+03 -0.65977073822E+02  0.16154504522E+03  0.00000000000E+00 0.  1.
<mgrwt>
<rscale>  0 0.18569618E+04</rscale>
<asrwt>0</asrwt>
<pdfrwt beam="1">  1        1 0.14962022E+00 0.18569618E+04</pdfrwt>
<pdfrwt beam="2">  1       -1 0.13637318E+00 0.18569618E+04</pdfrwt>
<totfact> 0.67034214E+00</totfact>
</mgrwt>
</event>
<event>
12    1  0.1504874E-007  0.2106729E+04  0.7818608E-02  0.8558285E-01
          1   -1    0    0  501    0  0.00000000000E+00  0.00000000000E+00  0.28482344804E+04  0.28482344804E+04  0.00000000000E+00 0. -1.
         -1   -1    0    0    0  501 -0.00000000000E+00 -0.00000000000E+00 -0.38956665989E+03  0.38956665989E+03  0.00000000000E+00 0.  1.
         23    2    1    2    0    0 -0.28368615428E+03 -0.58763162528E+03  0.15043217927E+03  0.67568041752E+03  0.90141138747E+02 0.  0.
        254    2    1    2    0    0  0.28368615428E+03  0.58763162528E+03  0.23082356413E+04  0.25621207228E+04  0.90040105587E+03 0.  0.
        -24    2    4    4    0    0  0.25355916074E+03 -0.16882664628E+03  0.10015113659E+04  0.10498205487E+04  0.79394482873E+02 0.  0.
         24    2    4    4    0    0  0.30126993544E+02  0.75645827156E+03  0.13067242753E+04  0.15123001741E+04  0.79917034807E+02 0.  0.
         11    1    3    3    0    0 -0.11182057882E+03 -0.21986372925E+03  0.10174849417E+03  0.26682701766E+03  0.00000000000E+00 0. -1.
        -11    1    3    3    0    0 -0.17186557546E+03 -0.36776789603E+03  0.48683685100E+02  0.40885339985E+03  0.00000000000E+00 0.  1.
          2    1    6    6  502    0  0.33487924513E+02  0.57045202010E+03  0.10475040450E+04  0.11932316090E+04  0.00000000000E+00 0. -1.
          3    1    5    5  503    0  0.20663142422E+03 -0.15761687562E+03  0.75073099299E+03  0.79444109208E+03  0.00000000000E+00 0. -1.
         -4    1    5    5    0  503  0.46927736518E+02 -0.11209770662E+02  0.25078037295E+03  0.25537945663E+03  0.00000000000E+00 0.  1.
         -1    1    6    6    0  502 -0.33609309691E+01  0.18600625146E+03  0.25922023030E+03  0.31906856510E+03  0.00000000000E+00 0.  1.
<mgrwt>
<rscale>  0 0.21067294E+04</rscale>
<asrwt>0</asrwt>
<pdfrwt beam="1">  1        1 0.43818991E+00 0.21067294E+04</pdfrwt>
<pdfrwt beam="2">  1       -1 0.59933334E-01 0.21067294E+04</pdfrwt>
<totfact> 0.19989142E+00</totfact>
</mgrwt>
</event>
<event>
12    1  0.1504874E-007  0.1713777E+04  0.7818608E-02  0.8753546E-01
          2   -1    0    0  501    0  0.00000000000E+00  0.00000000000E+00  0.29895316509E+03  0.29895316509E+03  0.00000000000E+00 0. -1.
         -2   -1    0    0    0  501 -0.00000000000E+00 -0.00000000000E+00 -0.24560960515E+04  0.24560960515E+04  0.00000000000E+00 0.  1.
         23    2    1    2    0    0 -0.37227150988E+03  0.84190577667E+02 -0.93265337617E+01  0.39202460826E+03  0.89006622289E+02 0.  0.
        254    2    1    2    0    0  0.37227150988E+03 -0.84190577667E+02 -0.21478163527E+04  0.23630246083E+04  0.90834799741E+03 0.  0.
        -24    2    4    4    0    0  0.18095662364E+03  0.22955964627E+03 -0.18681724787E+04  0.18925545739E+04  0.79066263391E+02 0.  0.
         24    2    4    4    0    0  0.19131488624E+03 -0.31375022394E+03 -0.27964387394E+03  0.47047003446E+03  0.90004268656E+02 0.  0.
         11    1    3    3    0    0 -0.35451176952E+03  0.97386540199E+02  0.90948802858E+00  0.36764597115E+03  0.00000000000E+00 0. -1.
        -11    1    3    3    0    0 -0.17759740367E+02 -0.13195962533E+02 -0.10236021790E+02  0.24378637107E+02  0.00000000000E+00 0.  1.
          2    1    6    6  502    0  0.96864408963E+02 -0.82336434936E+02 -0.11275635742E+03  0.16992939234E+03  0.00000000000E+00 0. -1.
          3    1    5    5  503    0 -0.56375394858E+01 -0.12230866013E+01 -0.26285081328E+02  0.26910653889E+02  0.00000000000E+00 0. -1.
         -4    1    5    5    0  503  0.18659416313E+03  0.23078273287E+03 -0.18418873974E+04  0.18656439200E+04  0.00000000000E+00 0.  1.
         -1    1    6    6    0  502  0.94450477275E+02 -0.23141378900E+03 -0.16688751652E+03  0.30054064213E+03  0.00000000000E+00 0.  1.
<mgrwt>
<rscale>  0 0.17137768E+04</rscale>
<asrwt>0</asrwt>
<pdfrwt beam="1">  1        2 0.45992794E-01 0.17137768E+04</pdfrwt>
<pdfrwt beam="2">  1       -2 0.37786094E+00 0.17137768E+04</pdfrwt>
<totfact> 0.10887460E+00</totfact>
</mgrwt>
</event>
<event>
12    1  0.1504874E-007  0.1607408E+04  0.7818608E-02  0.8816010E-01
         -2   -1    0    0    0  501 -0.00000000000E+00  0.00000000000E+00  0.56217250356E+03  0.56217250356E+03  0.00000000000E+00 0.  1.
          2   -1    0    0  501    0  0.00000000000E+00 -0.00000000000E+00 -0.11490070605E+04  0.11490070605E+04  0.00000000000E+00 0. -1.
         23    2    1    2    0    0  0.21649627716E+03 -0.26841302950E+03 -0.65776227838E+03  0.74777141330E+03  0.87147456987E+02 0.  0.
        254    2    1    2    0    0 -0.21649627716E+03  0.26841302950E+03  0.70927721410E+02  0.96340815078E+03  0.89677663378E+03 0.  0.
        -24    2    4    4    0    0  0.30921245196E+03  0.13418291375E+03  0.20011887385E+03  0.39999515702E+03  0.79568631889E+02 0.  0.
         24    2    4    4    0    0 -0.52570872912E+03  0.13423011575E+03 -0.12919115244E+03  0.56341299376E+03  0.79727384390E+02 0.  0.
         13    1    3    3    0    0  0.16385243685E+03 -0.24357256911E+03 -0.50260431701E+03  0.58205353445E+03  0.00000000000E+00 0. -1.
        -13    1    3    3    0    0  0.52643840313E+02 -0.24840460387E+02 -0.15515796137E+03  0.16571787885E+03  0.00000000000E+00 0.  1.
          4    1    6    6  502    0 -0.62533842616E+02 -0.57876288683E+01 -0.29453471097E+02  0.69364869206E+02  0.00000000000E+00 0. -1.
          3    1    5    5  503    0  0.49499991729E+02  0.28893743124E+02  0.71524734888E+02  0.91656343336E+02  0.00000000000E+00 0. -1.
         -4    1    5    5    0  503  0.25971246023E+03  0.10528917062E+03  0.12859413896E+03  0.30833881368E+03  0.00000000000E+00 0.  1.
         -3    1    6    6    0  502 -0.46317488651E+03  0.14001774462E+03 -0.99737681342E+02  0.49404812456E+03  0.00000000000E+00 0.  1.
<mgrwt>
<rscale>  0 0.16074081E+04</rscale>
<asrwt>0</asrwt>
<pdfrwt beam="1">  1        2 0.17677031E+00 0.16074081E+04</pdfrwt>
<pdfrwt beam="2">  1       -2 0.86488079E-01 0.16074081E+04</pdfrwt>
<totfact> 0.22568712E+01</totfact>
</mgrwt>
</event>
<event>
12    1  0.1504874E-007  0.2099144E+04  0.7818608E-02  0.8561621E-01
         -2   -1    0    0    0  501 -0.00000000000E+00  0.00000000000E+00  0.12808784759E+04  0.12808784759E+04  0.00000000000E+00 0. -1.
          2   -1    0    0  501    0  0.00000000000E+00 -0.00000000000E+00 -0.86003577335E+03  0.86003577335E+03  0.00000000000E+00 0.  1.
         23    2    1    2    0    0  0.78554249936E+03 -0.60241295789E+02 -0.18064513011E+03  0.81320839355E+03  0.89270355074E+02 0.  0.
        254    2    1    2    0    0 -0.78554249936E+03  0.60241295789E+02  0.60148783262E+03  0.13277058557E+04  0.88335111611E+03 0.  0.
        -24    2    4    4    0    0 -0.44673925352E+03  0.43219185195E+03  0.14307458047E+03  0.64281365751E+03  0.79832983004E+02 0.  0.
         24    2    4    4    0    0 -0.33880324584E+03 -0.37195055616E+03  0.45841325215E+03  0.68489219815E+03  0.76156140368E+02 0.  0.
         11    1    3    3    0    0  0.92578612055E+02  0.71666257574E+01 -0.47713412113E+02  0.10439698094E+03  0.00000000000E+00 0. -1.
        -11    1    3    3    0    0  0.69296388730E+03 -0.67407921547E+02 -0.13293171800E+03  0.70881141261E+03  0.00000000000E+00 0.  1.
          2    1    6    6  502    0 -0.16280745013E+03 -0.23057154751E+03  0.23496130558E+03  0.36725511496E+03  0.00000000000E+00 0. -1.
          1    1    5    5  503    0 -0.42603807054E+03  0.41083747441E+03  0.15325544674E+03  0.61137803353E+03  0.00000000000E+00 0. -1.
         -2    1    5    5    0  503 -0.20701182976E+02  0.21354377540E+02 -0.10180866268E+02  0.31435623975E+02  0.00000000000E+00 0.  1.
         -1    1    6    6    0  502 -0.17599579570E+03 -0.14137900865E+03  0.22345194657E+03  0.31763708319E+03  0.00000000000E+00 0.  1.
<mgrwt>
<rscale>  0 0.20991439E+04</rscale>
<asrwt>0</asrwt>
<pdfrwt beam="1">  1        2 0.13231319E+00 0.20991439E+04</pdfrwt>
<pdfrwt beam="2">  1       -2 0.19705823E+00 0.20991439E+04</pdfrwt>
<totfact> 0.40014471E+00</totfact>
</mgrwt>
</event>
<event>
12    1  0.1504874E-007  0.1872009E+04  0.7818608E-02  0.8668916E-01
          1   -1    0    0  501    0  0.00000000000E+00  0.00000000000E+00  0.22452425401E+04  0.22452425401E+04  0.00000000000E+00 0. -1.
         -1   -1    0    0    0  501 -0.00000000000E+00 -0.00000000000E+00 -0.39020471555E+03  0.39020471555E+03  0.00000000000E+00 0.  1.
         23    2    1    2    0    0  0.50688401965E+03  0.46988912063E+03  0.50924857489E+03  0.86336142921E+03  0.91277879880E+02 0.  0.
        254    2    1    2    0    0 -0.50688401965E+03 -0.46988912063E+03  0.13457892497E+04  0.17720858264E+04  0.92272004245E+03 0.  0.
        -24    2    4    4    0    0 -0.25418963699E+03 -0.51355854146E+03  0.13844500746E+04  0.15004831651E+04  0.79956067320E+02 0.  0.
         24    2    4    4    0    0 -0.25269438266E+03  0.43669420835E+02 -0.38660824961E+02  0.27160266130E+03  0.80696201253E+02 0.  0.
         13    1    3    3    0    0  0.21811629614E+03  0.24442596905E+03  0.19913742990E+03  0.38337251985E+03  0.00000000000E+00 0. -1.
        -13    1    3    3    0    0  0.28876772351E+03  0.22546315157E+03  0.31011114499E+03  0.47998890935E+03  0.00000000000E+00 0.  1.
          4    1    6    6  502    0 -0.14389119702E+03  0.42904310461E+02  0.13848980776E+02  0.15078876186E+03  0.00000000000E+00 0. -1.
          1    1    5    5  503    0 -0.25965338593E+03 -0.50902069753E+03  0.13651502230E+04  0.14799179311E+04  0.00000000000E+00 0. -1.
         -2    1    5    5    0  503  0.54637489401E+01 -0.45378439343E+01  0.19299851629E+02  0.20565234084E+02  0.00000000000E+00 0.  1.
         -3    1    6    6    0  502 -0.10880318564E+03  0.76511037401E+00 -0.52509805737E+02  0.12081389944E+03  0.00000000000E+00 0.  1.
<mgrwt>
<rscale>  0 0.18720088E+04</rscale>
<asrwt>0</asrwt>
<pdfrwt beam="1">  1        1 0.34542192E+00 0.18720088E+04</pdfrwt>
<pdfrwt beam="2">  1       -1 0.60031496E-01 0.18720088E+04</pdfrwt>
<totfact> 0.53554686E+00</totfact>
</mgrwt>
</event>
<event>
12    1  0.1504874E-007  0.1142441E+04  0.7818608E-02  0.9164785E-01
          2   -1    0    0  501    0  0.00000000000E+00  0.00000000000E+00  0.10683229576E+04  0.10683229576E+04  0.00000000000E+00 0. -1.
         -2   -1    0    0    0  501 -0.00000000000E+00 -0.00000000000E+00 -0.30542556330E+03  0.30542556330E+03  0.00000000000E+00 0.  1.
         23    2    1    2    0    0 -0.31647565384E+02  0.15521251773E+03  0.14925245886E+03  0.24037110198E+03  0.10202684027E+03 0.  0.
        254    2    1    2    0    0  0.31647565384E+02 -0.15521251773E+03  0.61364493541E+03  0.11333774189E+04  0.93962320791E+03 0.  0.
        -24    2    4    4    0    0  0.40052562386E+03  0.18204139541E+03  0.30900737909E+03  0.54272942884E+03  0.74228212903E+02 0.  0.
         24    2    4    4    0    0 -0.36887805847E+03 -0.33725391314E+03  0.30463755632E+03  0.59064799005E+03  0.79055572069E+02 0.  0.
         13    1    3    3    0    0 -0.40474113201E+02  0.16772661893E+03  0.14183676715E+03  0.22335630964E+03  0.00000000000E+00 0. -1.
        -13    1    3    3    0    0  0.88265478172E+01 -0.12514101197E+02  0.74156917094E+01  0.17014792348E+02  0.00000000000E+00 0.  1.
          4    1    6    6  502    0 -0.25172288881E+02 -0.15009811897E+02  0.42097109365E+02  0.51294299855E+02  0.00000000000E+00 0. -1.
          3    1    5    5  503    0  0.41645057312E+01  0.50064479256E+00  0.18206231761E+02  0.18683164297E+02  0.00000000000E+00 0. -1.
         -4    1    5    5    0  503  0.39636111813E+03  0.18154075062E+03  0.29080114733E+03  0.52404626454E+03  0.00000000000E+00 0.  1.
         -3    1    6    6    0  502 -0.34370576959E+03 -0.32224410125E+03  0.26254044696E+03  0.53935369020E+03  0.00000000000E+00 0.  1.
<mgrwt>
<rscale>  0 0.11424415E+04</rscale>
<asrwt>0</asrwt>
<pdfrwt beam="1">  1        2 0.16435738E+00 0.11424415E+04</pdfrwt>
<pdfrwt beam="2">  1       -2 0.46988549E-01 0.11424415E+04</pdfrwt>
<totfact> 0.96887282E+01</totfact>
</mgrwt>
</event>
<event>
12    1  0.1504874E-007  0.1273443E+04  0.7818608E-02  0.9050894E-01
          2   -1    0    0  501    0  0.00000000000E+00  0.00000000000E+00  0.59171148898E+03  0.59171148898E+03  0.00000000000E+00 0. -1.
         -2   -1    0    0    0  501 -0.00000000000E+00 -0.00000000000E+00 -0.68515527945E+03  0.68515527945E+03  0.00000000000E+00 0.  1.
         23    2    1    2    0    0 -0.27989318533E+03  0.93268271665E+02  0.12273964419E+03  0.33248920172E+03  0.91896046215E+02 0.  0.
        254    2    1    2    0    0  0.27989318533E+03 -0.93268271665E+02 -0.21618343466E+03  0.94437756670E+03  0.87067476441E+03 0.  0.
        -24    2    4    4    0    0 -0.61504109131E+02  0.14643453352E+03 -0.43275337138E+03  0.46790270966E+03  0.80197488878E+02 0.  0.
         24    2    4    4    0    0  0.34139729446E+03 -0.23970280518E+03  0.21656993672E+03  0.47647485704E+03  0.78206166158E+02 0.  0.
         13    1    3    3    0    0 -0.23758015720E+03  0.11207881924E+03  0.10342788026E+03  0.28231776287E+03  0.00000000000E+00 0. -1.
        -13    1    3    3    0    0 -0.42313028133E+02 -0.18810547579E+02  0.19311763935E+02  0.50171438850E+02  0.00000000000E+00 0.  1.
          2    1    6    6  502    0  0.84743948071E+01 -0.23058498241E+02  0.26499752420E+02  0.36135115702E+02  0.00000000000E+00 0. -1.
          3    1    5    5  503    0 -0.10891499477E+02  0.48071947230E+02 -0.53052496782E+02  0.72416188012E+02  0.00000000000E+00 0. -1.
         -4    1    5    5    0  503 -0.50612609654E+02  0.98362586289E+02 -0.37970087460E+03  0.39548652165E+03  0.00000000000E+00 0.  1.
         -1    1    6    6    0  502  0.33292289965E+03 -0.21664430694E+03  0.19007018430E+03  0.44033974134E+03  0.00000000000E+00 0.  1.
<mgrwt>
<rscale>  0 0.12734430E+04</rscale>
<asrwt>0</asrwt>
<pdfrwt beam="1">  1        2 0.91032537E-01 0.12734430E+04</pdfrwt>
<pdfrwt beam="2">  1       -2 0.10540850E+00 0.12734430E+04</pdfrwt>
<totfact> 0.36073563E+01</totfact>
</mgrwt>
</event>
<event>
12    1  0.1504874E-007  0.2176842E+04  0.7818608E-02  0.8528129E-01
         -2   -1    0    0    0  501 -0.00000000000E+00  0.00000000000E+00  0.58203357784E+03  0.58203357784E+03  0.00000000000E+00 0.  1.
          2   -1    0    0  501    0  0.00000000000E+00 -0.00000000000E+00 -0.20353822519E+04  0.20353822519E+04  0.00000000000E+00 0. -1.
         23    2    1    2    0    0  0.44370304294E+03 -0.76793357356E+03 -0.46287189504E+03  0.10045315423E+04  0.90768191306E+02 0.  0.
        254    2    1    2    0    0 -0.44370304294E+03  0.76793357356E+03 -0.99047677905E+03  0.16128842875E+04  0.91310301237E+03 0.  0.
        -24    2    4    4    0    0  0.15127618269E+03  0.44875849823E+03 -0.75241284234E+03  0.89269077055E+03  0.80641511159E+02 0.  0.
         24    2    4    4    0    0 -0.59497922562E+03  0.31917507533E+03 -0.23806393671E+03  0.72019351692E+03  0.78302338512E+02 0.  0.
         13    1    3    3    0    0  0.41731157981E+03 -0.74618713186E+03 -0.45826380266E+03  0.97002572297E+03  0.00000000000E+00 0.  1.
        -13    1    3    3    0    0  0.26391463123E+02 -0.21746441708E+02 -0.46080923796E+01  0.34505819337E+02  0.00000000000E+00 0. -1.
          2    1    6    6  502    0 -0.57858638892E+03  0.32216338588E+03 -0.22643731181E+03  0.69987521233E+03  0.00000000000E+00 0. -1.
          3    1    5    5  503    0  0.48420430679E+02  0.26836730040E+03 -0.42201186257E+03  0.50245353833E+03  0.00000000000E+00 0. -1.
         -4    1    5    5    0  503  0.10285575201E+03  0.18039119782E+03 -0.33040097977E+03  0.39023723221E+03  0.00000000000E+00 0.  1.
         -3    1    6    6    0  502 -0.16392836701E+02 -0.29883105502E+01 -0.11626624897E+02  0.20318304594E+02  0.00000000000E+00 0.  1.
<mgrwt>
<rscale>  0 0.21768425E+04</rscale>
<asrwt>0</asrwt>
<pdfrwt beam="1">  1        2 0.31313573E+00 0.21768425E+04</pdfrwt>
<pdfrwt beam="2">  1       -2 0.89543627E-01 0.21768425E+04</pdfrwt>
<totfact> 0.62515565E+00</totfact>
</mgrwt>
</event>
<event>
12    1  0.1504874E-007  0.3145051E+04  0.7818608E-02  0.8203482E-01
          2   -1    0    0  501    0  0.00000000000E+00  0.00000000000E+00  0.21311399833E+04  0.21311399833E+04  0.00000000000E+00 0.  1.
         -2   -1    0    0    0  501 -0.00000000000E+00 -0.00000000000E+00 -0.11603349778E+04  0.11603349778E+04  0.00000000000E+00 0. -1.
         23    2    1    2    0    0 -0.48638647223E+01 -0.14365362272E+04  0.55848690897E+03  0.15441272354E+04  0.93601829008E+02 0.  0.
        254    2    1    2    0    0  0.48638647223E+01  0.14365362272E+04  0.41231809654E+03  0.17473477257E+04  0.90529435669E+03 0.  0.
        -24    2    4    4    0    0 -0.13886728453E+03  0.11883914551E+04 -0.47055565410E+02  0.11999869743E+04  0.78715556451E+02 0.  0.
         24    2    4    4    0    0  0.14373114925E+03  0.24814477210E+03  0.45937366195E+03  0.54736075138E+03  0.79656510543E+02 0.  0.
         11    1    3    3    0    0  0.21477968875E+02 -0.12747936669E+03  0.66923317699E+02  0.14557136577E+03  0.00000000000E+00 0. -1.
        -11    1    3    3    0    0 -0.26341833598E+02 -0.13090568605E+04  0.49156359127E+03  0.13985558697E+04  0.00000000000E+00 0.  1.
          4    1    6    6  502    0  0.14203747550E+03  0.18470304809E+03  0.34020072767E+03  0.41234257060E+03  0.00000000000E+00 0. -1.
          1    1    5    5  503    0 -0.11195575175E+03  0.65241343196E+03 -0.94382423655E+01  0.66201696124E+03  0.00000000000E+00 0. -1.
         -2    1    5    5    0  503 -0.26911532773E+02  0.53597802318E+03 -0.37617323044E+02  0.53797001303E+03  0.00000000000E+00 0.  1.
         -3    1    6    6    0  502  0.16936737453E+01  0.63441724009E+02  0.11917293429E+03  0.13501818078E+03  0.00000000000E+00 0.  1.
<mgrwt>
<rscale>  0 0.31450509E+04</rscale>
<asrwt>0</asrwt>
<pdfrwt beam="1">  1        2 0.32786769E+00 0.31450509E+04</pdfrwt>
<pdfrwt beam="2">  1       -2 0.17851307E+00 0.31450509E+04</pdfrwt>
<totfact> 0.88661315E-01</totfact>
</mgrwt>
</event>
<event>
12    1  0.1504874E-007  0.1925829E+04  0.7818608E-02  0.8642105E-01
          2   -1    0    0  501    0  0.00000000000E+00  0.00000000000E+00  0.22967348290E+04  0.22967348290E+04  0.00000000000E+00 0. -1.
         -2   -1    0    0    0  501 -0.00000000000E+00 -0.00000000000E+00 -0.40370549956E+03  0.40370549956E+03  0.00000000000E+00 0.  1.
         23    2    1    2    0    0 -0.43825346292E+03  0.32746869809E+03  0.14627914956E+04  0.15643823874E+04  0.90727329286E+02 0.  0.
        254    2    1    2    0    0  0.43825346292E+03 -0.32746869809E+03  0.43023783381E+03  0.11360579412E+04  0.89789821587E+03 0.  0.
        -24    2    4    4    0    0  0.71651033658E+02 -0.56887967661E+03  0.36735160602E+03  0.68569030537E+03  0.80411661817E+02 0.  0.
         24    2    4    4    0    0  0.36660242927E+03  0.24141097852E+03  0.62886227786E+02  0.45036763580E+03  0.78738351749E+02 0.  0.
         11    1    3    3    0    0 -0.28444647946E+03  0.20542488737E+03  0.10543382320E+04  0.11111877840E+04  0.00000000000E+00 0. -1.
        -11    1    3    3    0    0 -0.15380698347E+03  0.12204381072E+03  0.40845326366E+03  0.45319460334E+03  0.00000000000E+00 0.  1.
          2    1    6    6  502    0  0.51697550195E+02  0.71167117440E+02  0.13891664140E+02  0.89052645291E+02  0.00000000000E+00 0. -1.
          3    1    5    5  503    0 -0.28266986353E+01 -0.37380335041E+02  0.42932876348E+01  0.37732108233E+02  0.00000000000E+00 0. -1.
         -4    1    5    5    0  503  0.74477732293E+02 -0.53149934157E+03  0.36305831839E+03  0.64795819714E+03  0.00000000000E+00 0.  1.
         -1    1    6    6    0  502  0.31490487907E+03  0.17024386108E+03  0.48994563646E+02  0.36131499051E+03  0.00000000000E+00 0.  1.
<mgrwt>
<rscale>  0 0.19258292E+04</rscale>
<asrwt>0</asrwt>
<pdfrwt beam="1">  1        2 0.35334381E+00 0.19258292E+04</pdfrwt>
<pdfrwt beam="2">  1       -2 0.62108540E-01 0.19258292E+04</pdfrwt>
<totfact> 0.10244016E+01</totfact>
</mgrwt>
</event>
<event>
12    1  0.1504874E-007  0.1746574E+04  0.7818608E-02  0.8735238E-01
         -2   -1    0    0    0  501 -0.00000000000E+00  0.00000000000E+00  0.48960276970E+03  0.48960276970E+03  0.00000000000E+00 0.  1.
          2   -1    0    0  501    0  0.00000000000E+00 -0.00000000000E+00 -0.15576511804E+04  0.15576511804E+04  0.00000000000E+00 0. -1.
         23    2    1    2    0    0  0.28729572955E+03  0.39472659417E+03 -0.85949424884E+03  0.99264686065E+03  0.90936823183E+02 0.  0.
        254    2    1    2    0    0 -0.28729572955E+03 -0.39472659417E+03 -0.20855416187E+03  0.10546070895E+04  0.91123726568E+03 0.  0.
        -24    2    4    4    0    0  0.62843647922E+02  0.24441851225E+03  0.66048993608E+02  0.27186557132E+03  0.76542054432E+02 0.  0.
         24    2    4    4    0    0 -0.35013937747E+03 -0.63914510642E+03 -0.27460315548E+03  0.78274151816E+03  0.78570608585E+02 0.  0.
         13    1    3    3    0    0  0.80704926469E+02  0.15993716044E+03 -0.38099552598E+03  0.42101160466E+03  0.00000000000E+00 0.  1.
        -13    1    3    3    0    0  0.20659080308E+03  0.23478943373E+03 -0.47849872287E+03  0.57163525599E+03  0.00000000000E+00 0. -1.
          2    1    6    6  502    0 -0.31780806412E+03 -0.55363991712E+03 -0.21496524483E+03  0.67359422499E+03  0.00000000000E+00 0. -1.
          3    1    5    5  503    0  0.24993371192E+02  0.20314830702E+03  0.34426706026E+02  0.20755505616E+03  0.00000000000E+00 0. -1.
         -4    1    5    5    0  503  0.37850276729E+02  0.41270205228E+02  0.31622287582E+02  0.64310515159E+02  0.00000000000E+00 0.  1.
         -1    1    6    6    0  502 -0.32331313346E+02 -0.85505189296E+02 -0.59637910650E+02  0.10914729317E+03  0.00000000000E+00 0.  1.
<mgrwt>
<rscale>  0 0.17465742E+04</rscale>
<asrwt>0</asrwt>
<pdfrwt beam="1">  1        2 0.23963865E+00 0.17465742E+04</pdfrwt>
<pdfrwt beam="2">  1       -2 0.75323502E-01 0.17465742E+04</pdfrwt>
<totfact> 0.17661388E+01</totfact>
</mgrwt>
</event>
<event>
12    1  0.1504874E-007  0.1679233E+04  0.7818608E-02  0.8773298E-01
         -1   -1    0    0    0  501 -0.00000000000E+00  0.00000000000E+00  0.15139368320E+04  0.15139368320E+04  0.00000000000E+00 0.  1.
          1   -1    0    0  501    0  0.00000000000E+00 -0.00000000000E+00 -0.46564432509E+03  0.46564432509E+03  0.00000000000E+00 0. -1.
         23    2    1    2    0    0  0.51550533367E+02  0.58728026535E+03  0.46359977496E+03  0.75561093649E+03  0.92019391650E+02 0.  0.
        254    2    1    2    0    0 -0.51550533367E+02 -0.58728026535E+03  0.58469273200E+03  0.12239702206E+04  0.89926744776E+03 0.  0.
        -24    2    4    4    0    0  0.98322644090E+02 -0.74711991883E+03  0.63092915114E+03  0.98606784920E+03  0.80016835761E+02 0.  0.
         24    2    4    4    0    0 -0.14987317746E+03  0.15983965348E+03 -0.46236419147E+02  0.23790237144E+03  0.80305963265E+02 0.  0.
         13    1    3    3    0    0  0.53181798735E+01  0.39071219464E+02  0.57234921538E+01  0.39844718470E+02  0.00000000000E+00 0.  1.
        -13    1    3    3    0    0  0.46232353494E+02  0.54820904589E+03  0.45787628281E+03  0.71576621802E+03  0.00000000000E+00 0. -1.
          4    1    6    6  502    0 -0.59567968984E+02  0.38793123577E+02  0.18712016701E+02  0.73507747447E+02  0.00000000000E+00 0. -1.
          3    1    5    5  503    0  0.27410382574E+02 -0.34891704138E+03  0.33899637590E+03  0.48725042197E+03  0.00000000000E+00 0. -1.
         -4    1    5    5    0  503  0.70912261516E+02 -0.39820287745E+03  0.29193277524E+03  0.49881742723E+03  0.00000000000E+00 0.  1.
         -1    1    6    6    0  502 -0.90305208474E+02  0.12104652990E+03 -0.64948435848E+02  0.16439462399E+03  0.00000000000E+00 0.  1.
<mgrwt>
<rscale>  0 0.16792333E+04</rscale>
<asrwt>0</asrwt>
<pdfrwt beam="1">  1        1 0.71637589E-01 0.16792333E+04</pdfrwt>
<pdfrwt beam="2">  1       -1 0.23291336E+00 0.16792333E+04</pdfrwt>
<totfact> 0.42067336E+00</totfact>
</mgrwt>
</event>
<event>
12    1  0.1504874E-007  0.1448237E+04  0.7818608E-02  0.8919624E-01
          2   -1    0    0  501    0  0.00000000000E+00  0.00000000000E+00  0.14390472896E+04  0.14390472896E+04  0.00000000000E+00 0. -1.
         -2   -1    0    0    0  501 -0.00000000000E+00 -0.00000000000E+00 -0.36437135519E+03  0.36437135519E+03  0.00000000000E+00 0.  1.
         23    2    1    2    0    0  0.33050137410E+03 -0.24122163103E+03  0.53443826077E+03  0.67913044213E+03  0.90414983797E+02 0.  0.
        254    2    1    2    0    0 -0.33050137410E+03  0.24122163103E+03  0.54023767367E+03  0.11242882027E+04  0.89707758031E+03 0.  0.
        -24    2    4    4    0    0 -0.79408723461E+02 -0.28348521153E+02 -0.23505839845E+03  0.26229436173E+03  0.80227785091E+02 0.  0.
         24    2    4    4    0    0 -0.25109265063E+03  0.26957015218E+03  0.77529607211E+03  0.86199384096E+03  0.78954393645E+02 0.  0.
         13    1    3    3    0    0  0.29501279550E+03 -0.23591658571E+03  0.45093925697E+03  0.58824773556E+03  0.00000000000E+00 0. -1.
        -13    1    3    3    0    0  0.35488578593E+02 -0.53050453209E+01  0.83499003800E+02  0.90882706562E+02  0.00000000000E+00 0.  1.
          4    1    6    6  502    0 -0.13945754318E+03  0.18687948289E+03  0.41801195498E+03  0.47865054265E+03  0.00000000000E+00 0. -1.
          1    1    5    5  503    0 -0.21969065553E+01  0.96522300089E+01  0.20000713664E+01  0.10099120161E+02  0.00000000000E+00 0. -1.
         -2    1    5    5    0  503 -0.77211816906E+02 -0.38000751161E+02 -0.23705846981E+03  0.25219524157E+03  0.00000000000E+00 0.  1.
         -3    1    6    6    0  502 -0.11163510745E+03  0.82690669287E+02  0.35728411713E+03  0.38334329831E+03  0.00000000000E+00 0.  1.
<mgrwt>
<rscale>  0 0.14482370E+04</rscale>
<asrwt>0</asrwt>
<pdfrwt beam="1">  1        2 0.22139189E+00 0.14482370E+04</pdfrwt>
<pdfrwt beam="2">  1       -2 0.56057132E-01 0.14482370E+04</pdfrwt>
<totfact> 0.39830119E+01</totfact>
</mgrwt>
</event>
<event>
12    1  0.1504874E-007  0.1646802E+04  0.7818608E-02  0.8792301E-01
          2   -1    0    0  501    0  0.00000000000E+00  0.00000000000E+00  0.13949820978E+04  0.13949820978E+04  0.00000000000E+00 0. -1.
         -2   -1    0    0    0  501 -0.00000000000E+00 -0.00000000000E+00 -0.48602000183E+03  0.48602000183E+03  0.00000000000E+00 0.  1.
         23    2    1    2    0    0  0.29127297609E+03  0.55458812728E+02 -0.23795327126E+03  0.39081487329E+03  0.90547663543E+02 0.  0.
        254    2    1    2    0    0 -0.29127297609E+03 -0.55458812728E+02  0.11469153672E+04  0.14901872263E+04  0.90406165909E+03 0.  0.
        -24    2    4    4    0    0 -0.45317244557E+03 -0.41054347972E+02  0.16411294224E+03  0.49089452971E+03  0.83628084836E+02 0.  0.
         24    2    4    4    0    0  0.16189946949E+03 -0.14404464756E+02  0.98280242494E+03  0.99929269659E+03  0.79160344594E+02 0.  0.
         11    1    3    3    0    0  0.54225944168E+02  0.19745784607E+02 -0.73381585545E+01  0.58173856685E+02  0.00000000000E+00 0. -1.
        -11    1    3    3    0    0  0.23704703192E+03  0.35713028121E+02 -0.23061511271E+03  0.33264101661E+03  0.00000000000E+00 0.  1.
          2    1    6    6  502    0  0.12932015624E+02 -0.11948337939E+02  0.29566313682E+03  0.29618691781E+03  0.00000000000E+00 0. -1.
          3    1    5    5  503    0 -0.45063168476E+02 -0.24117382843E+02  0.37049509814E+02  0.63126884017E+02  0.00000000000E+00 0. -1.
         -4    1    5    5    0  503 -0.40810927710E+03 -0.16936965129E+02  0.12706343243E+03  0.42776764569E+03  0.00000000000E+00 0.  1.
         -1    1    6    6    0  502  0.14896745386E+03 -0.24561268162E+01  0.68713928812E+03  0.70310577878E+03  0.00000000000E+00 0.  1.
<mgrwt>
<rscale>  0 0.16468020E+04</rscale>
<asrwt>0</asrwt>
<pdfrwt beam="1">  1        2 0.21461263E+00 0.16468020E+04</pdfrwt>
<pdfrwt beam="2">  1       -2 0.74772309E-01 0.16468020E+04</pdfrwt>
<totfact> 0.22375631E+01</totfact>
</mgrwt>
</event>
<event>
12    1  0.1504874E-007  0.2297218E+04  0.7818608E-02  0.8479019E-01
         -1   -1    0    0    0  501 -0.00000000000E+00  0.00000000000E+00  0.77703906230E+03  0.77703906230E+03  0.00000000000E+00 0.  1.
          1   -1    0    0  501    0  0.00000000000E+00 -0.00000000000E+00 -0.16978584313E+04  0.16978584313E+04  0.00000000000E+00 0. -1.
         23    2    1    2    0    0  0.88250884705E+03  0.20482002401E+03  0.30231027632E+02  0.91108151910E+03  0.91556059560E+02 0.  0.
        254    2    1    2    0    0 -0.88250884705E+03 -0.20482002401E+03 -0.95105039663E+03  0.15638159745E+04  0.84867569650E+03 0.  0.
        -24    2    4    4    0    0 -0.90716278451E+03 -0.35109009122E+03 -0.53059820109E+03  0.11110097022E+04  0.81237537638E+02 0.  0.
         24    2    4    4    0    0  0.24653937454E+02  0.14627006722E+03 -0.42045219554E+03  0.45280627236E+03  0.79061509950E+02 0.  0.
         11    1    3    3    0    0  0.26538816509E+03  0.35656025188E+02 -0.24316351538E+02  0.26887453441E+03  0.00000000000E+00 0. -1.
        -11    1    3    3    0    0  0.61712068196E+03  0.16916399882E+03  0.54547379170E+02  0.64220698469E+03  0.00000000000E+00 0.  1.
          4    1    6    6  502    0  0.10784920977E+02  0.14994443377E+03 -0.35018834476E+03  0.38109254066E+03  0.00000000000E+00 0. -1.
          3    1    5    5  503    0 -0.45754768707E+03 -0.17576711482E+03 -0.22113669076E+03  0.53772241966E+03  0.00000000000E+00 0. -1.
         -4    1    5    5    0  503 -0.44961509743E+03 -0.17532297640E+03 -0.30946151033E+03  0.57328728250E+03  0.00000000000E+00 0.  1.
         -3    1    6    6    0  502  0.13869016477E+02 -0.36743665553E+01 -0.70263850782E+02  0.71713731700E+02  0.00000000000E+00 0.  1.
<mgrwt>
<rscale>  0 0.22972177E+04</rscale>
<asrwt>0</asrwt>
<pdfrwt beam="1">  1        1 0.26120899E+00 0.22972177E+04</pdfrwt>
<pdfrwt beam="2">  1       -1 0.11954447E+00 0.22972177E+04</pdfrwt>
<totfact> 0.27014888E+00</totfact>
</mgrwt>
</event>
<event>
12    1  0.1504874E-007  0.1388793E+04  0.7818608E-02  0.8961971E-01
         -1   -1    0    0    0  501 -0.00000000000E+00  0.00000000000E+00  0.17493679676E+03  0.17493679676E+03  0.00000000000E+00 0.  1.
          1   -1    0    0  501    0  0.00000000000E+00 -0.00000000000E+00 -0.27563474487E+04  0.27563474487E+04  0.00000000000E+00 0. -1.
         23    2    1    2    0    0 -0.37978292317E+03 -0.76946888732E+02 -0.61754808233E+03  0.73539714746E+03  0.96371355142E+02 0.  0.
        254    2    1    2    0    0  0.37978292317E+03  0.76946888732E+02 -0.19638625696E+04  0.21958870980E+04  0.90277796963E+03 0.  0.
        -24    2    4    4    0    0  0.28476762841E+03  0.35080375999E+03 -0.17914095933E+04  0.18495795190E+04  0.87408157262E+02 0.  0.
         24    2    4    4    0    0  0.95015294760E+02 -0.27385687126E+03 -0.17245297629E+03  0.34630757897E+03  0.78507439439E+02 0.  0.
         13    1    3    3    0    0 -0.53468886420E+02 -0.29303001430E+02 -0.49377895850E+02  0.78458678974E+02  0.00000000000E+00 0. -1.
        -13    1    3    3    0    0 -0.32631403675E+03 -0.47643887302E+02 -0.56817018648E+03  0.65693846849E+03  0.00000000000E+00 0.  1.
          2    1    6    6  502    0  0.79838480928E+02 -0.13720075895E+03 -0.12061310842E+03  0.19936336979E+03  0.00000000000E+00 0. -1.
          3    1    5    5  503    0  0.11562146574E+02 -0.10589397726E+01 -0.21126083631E+02  0.24106347637E+02  0.00000000000E+00 0. -1.
         -4    1    5    5    0  503  0.27320548183E+03  0.35186269977E+03 -0.17702835097E+04  0.18254731714E+04  0.00000000000E+00 0.  1.
         -1    1    6    6    0  502  0.15176813832E+02 -0.13665611231E+03 -0.51839867870E+02  0.14694420918E+03  0.00000000000E+00 0.  1.
<mgrwt>
<rscale>  0 0.13887931E+04</rscale>
<asrwt>0</asrwt>
<pdfrwt beam="1">  1        1 0.42405342E+00 0.13887931E+04</pdfrwt>
<pdfrwt beam="2">  1       -1 0.26913355E-01 0.13887931E+04</pdfrwt>
<totfact> 0.10836693E+01</totfact>
</mgrwt>
</event>
<event>
12    1  0.1504874E-007  0.1241081E+04  0.7818608E-02  0.9077639E-01
          1   -1    0    0  501    0  0.00000000000E+00  0.00000000000E+00  0.19495845804E+04  0.19495845804E+04  0.00000000000E+00 0. -1.
         -1   -1    0    0    0  501 -0.00000000000E+00 -0.00000000000E+00 -0.19751413110E+03  0.19751413110E+03  0.00000000000E+00 0.  1.
         23    2    1    2    0    0  0.10531363901E+03  0.36860281500E+02 -0.40416133461E+02  0.14926583294E+03  0.90538290931E+02 0.  0.
        254    2    1    2    0    0 -0.10531363901E+03 -0.36860281500E+02  0.17924865827E+04  0.19978328785E+04  0.87514479850E+03 0.  0.
        -24    2    4    4    0    0  0.26950491341E+02  0.78555515558E+02  0.18009763617E+04  0.18047326879E+04  0.81528653816E+02 0.  0.
         24    2    4    4    0    0 -0.13226413035E+03 -0.11541579706E+03 -0.84897789474E+01  0.19310019064E+03  0.80006255336E+02 0.  0.
         11    1    3    3    0    0  0.26184272234E+02 -0.13397426979E+02  0.21927548702E+02  0.36686844429E+02  0.00000000000E+00 0. -1.
        -11    1    3    3    0    0  0.79129366773E+02  0.50257708479E+02 -0.62343682163E+02  0.11257898851E+03  0.00000000000E+00 0.  1.
          2    1    6    6  502    0 -0.20258082713E+02 -0.58601600171E+02  0.18370667339E+02  0.64668530804E+02  0.00000000000E+00 0. -1.
          1    1    5    5  503    0 -0.22336575493E+01  0.55368812253E+02  0.47324853755E+03  0.47648176554E+03  0.00000000000E+00 0. -1.
         -2    1    5    5    0  503  0.29184148890E+02  0.23186703306E+02  0.13277278241E+04  0.13282509223E+04  0.00000000000E+00 0.  1.
         -1    1    6    6    0  502 -0.11200604763E+03 -0.56814196887E+02 -0.26860446286E+02  0.12843165984E+03  0.00000000000E+00 0.  1.
<mgrwt>
<rscale>  0 0.12410810E+04</rscale>
<asrwt>0</asrwt>
<pdfrwt beam="1">  1        1 0.29993608E+00 0.12410810E+04</pdfrwt>
<pdfrwt beam="2">  1       -1 0.30386791E-01 0.12410810E+04</pdfrwt>
<totfact> 0.31784507E+01</totfact>
</mgrwt>
</event>
<event>
12    1  0.1504874E-007  0.1351718E+04  0.7818608E-02  0.8989529E-01
         -1   -1    0    0    0  501 -0.00000000000E+00  0.00000000000E+00  0.29189512561E+03  0.29189512561E+03  0.00000000000E+00 0.  1.
          1   -1    0    0  501    0  0.00000000000E+00 -0.00000000000E+00 -0.15648957430E+04  0.15648957430E+04  0.00000000000E+00 0. -1.
         23    2    1    2    0    0  0.14351048289E+03 -0.29994540157E+03 -0.12839926410E+03  0.36880017098E+03  0.94682059907E+02 0.  0.
        254    2    1    2    0    0 -0.14351048289E+03  0.29994540157E+03 -0.11446013533E+04  0.14879906976E+04  0.89075336410E+03 0.  0.
        -24    2    4    4    0    0  0.24296078659E+03  0.42738739109E+03 -0.41077700550E+03  0.64546728182E+03  0.78742223526E+02 0.  0.
         24    2    4    4    0    0 -0.38647126948E+03 -0.12744198952E+03 -0.73382434776E+03  0.84252341579E+03  0.75802572289E+02 0.  0.
         11    1    3    3    0    0  0.43149666885E+02 -0.41576694011E+02  0.69859580311E+01  0.60326767250E+02  0.00000000000E+00 0.  1.
        -11    1    3    3    0    0  0.10036081600E+03 -0.25836870756E+03 -0.13538522213E+03  0.30847340373E+03  0.00000000000E+00 0. -1.
          4    1    6    6  502    0 -0.10503252609E+03 -0.87442745945E+00 -0.17228486394E+03  0.20177876624E+03  0.00000000000E+00 0. -1.
          1    1    5    5  503    0  0.19887557008E+03  0.28098632293E+03 -0.26790396390E+03  0.43620790905E+03  0.00000000000E+00 0. -1.
         -2    1    5    5    0  503  0.44085216510E+02  0.14640106816E+03 -0.14287304160E+03  0.20925937276E+03  0.00000000000E+00 0.  1.
         -3    1    6    6    0  502 -0.28143874338E+03 -0.12656756206E+03 -0.56153948382E+03  0.64074464956E+03  0.00000000000E+00 0.  1.
<mgrwt>
<rscale>  0 0.13517181E+04</rscale>
<asrwt>0</asrwt>
<pdfrwt beam="1">  1        1 0.24075319E+00 0.13517181E+04</pdfrwt>
<pdfrwt beam="2">  1       -1 0.44906942E-01 0.13517181E+04</pdfrwt>
<totfact> 0.28384779E+01</totfact>
</mgrwt>
</event>
<event>
12    1  0.1504874E-007  0.1430996E+04  0.7818608E-02  0.8931683E-01
         -2   -1    0    0    0  501 -0.00000000000E+00  0.00000000000E+00  0.23126700009E+03  0.23126700009E+03  0.00000000000E+00 0.  1.
          2   -1    0    0  501    0  0.00000000000E+00 -0.00000000000E+00 -0.22136194468E+04  0.22136194468E+04  0.00000000000E+00 0. -1.
         23    2    1    2    0    0 -0.46524722258E+02  0.24871741152E+03 -0.10353432087E+04  0.10700965703E+04  0.95635816724E+02 0.  0.
        254    2    1    2    0    0  0.46524722258E+02 -0.24871741152E+03 -0.94700923800E+03  0.13747898766E+04  0.96394803140E+03 0.  0.
        -24    2    4    4    0    0  0.25932356104E+03 -0.52557629577E+03 -0.78123813401E+03  0.98002886087E+03  0.81513153023E+02 0.  0.
         24    2    4    4    0    0 -0.21279883879E+03  0.27685888425E+03 -0.16577110398E+03  0.39476101568E+03  0.80137463212E+02 0.  0.
         13    1    3    3    0    0 -0.76172041771E+02  0.16758450247E+03 -0.69626082123E+03  0.72018461286E+03  0.00000000000E+00 0.  1.
        -13    1    3    3    0    0  0.29647319513E+02  0.81132909050E+02 -0.33908238747E+03  0.34991195746E+03  0.00000000000E+00 0. -1.
          2    1    6    6  502    0 -0.20103292296E+03  0.26594103230E+03 -0.13425497720E+03  0.35939291545E+03  0.00000000000E+00 0. -1.
          1    1    5    5  503    0  0.21565643138E+03 -0.37716856014E+03 -0.53451879490E+03  0.68882084844E+03  0.00000000000E+00 0. -1.
         -2    1    5    5    0  503  0.43667129669E+02 -0.14840773563E+03 -0.24671933911E+03  0.29120801243E+03  0.00000000000E+00 0.  1.
         -3    1    6    6    0  502 -0.11765915823E+02  0.10917851950E+02 -0.31516126783E+02  0.35368100228E+02  0.00000000000E+00 0.  1.
<mgrwt>
<rscale>  0 0.14309956E+04</rscale>
<asrwt>0</asrwt>
<pdfrwt beam="1">  1        2 0.34055683E+00 0.14309956E+04</pdfrwt>
<pdfrwt beam="2">  1       -2 0.35579539E-01 0.14309956E+04</pdfrwt>
<totfact> 0.36627180E+01</totfact>
</mgrwt>
</event>
<event>
12    1  0.1504874E-007  0.1675752E+04  0.7818608E-02  0.8775316E-01
         -1   -1    0    0    0  501 -0.00000000000E+00  0.00000000000E+00  0.26401333107E+03  0.26401333107E+03  0.00000000000E+00 0.  1.
          1   -1    0    0  501    0  0.00000000000E+00 -0.00000000000E+00 -0.26590947493E+04  0.26590947493E+04  0.00000000000E+00 0. -1.
         23    2    1    2    0    0 -0.35940832226E+03 -0.10878255573E+02 -0.16936996383E+04  0.17339929264E+04  0.93916587108E+02 0.  0.
        254    2    1    2    0    0  0.35940832226E+03  0.10878255573E+02 -0.70138177989E+03  0.11891151540E+04  0.89037394934E+03 0.  0.
        -24    2    4    4    0    0 -0.18520523719E+03 -0.25111153286E+03 -0.38708217301E+03  0.50329720220E+03  0.78214341834E+02 0.  0.
         24    2    4    4    0    0  0.54461355946E+03  0.26198978843E+03 -0.31429960689E+03  0.68581795176E+03  0.79494916113E+02 0.  0.
         13    1    3    3    0    0 -0.14474565611E+03 -0.42333287782E+02 -0.82051638409E+03  0.83426048018E+03  0.00000000000E+00 0. -1.
        -13    1    3    3    0    0 -0.21466266615E+03  0.31455032210E+02 -0.87318325422E+03  0.89973244620E+03  0.00000000000E+00 0.  1.
          2    1    6    6  502    0  0.44763484673E+03  0.20365092599E+03 -0.22106111616E+03  0.53918333871E+03  0.00000000000E+00 0. -1.
          3    1    5    5  503    0 -0.17198042375E+03 -0.19939734249E+03 -0.28448196652E+03  0.38764230371E+03  0.00000000000E+00 0. -1.
         -4    1    5    5    0  503 -0.13224813443E+02 -0.51714190363E+02 -0.10260020649E+03  0.11565489850E+03  0.00000000000E+00 0.  1.
         -1    1    6    6    0  502  0.96978712731E+02  0.58338862434E+02 -0.93238490731E+02  0.14663461306E+03  0.00000000000E+00 0.  1.
<mgrwt>
<rscale>  0 0.16757523E+04</rscale>
<asrwt>0</asrwt>
<pdfrwt beam="1">  1        1 0.40909148E+00 0.16757523E+04</pdfrwt>
<pdfrwt beam="2">  1       -1 0.40617438E-01 0.16757523E+04</pdfrwt>
<totfact> 0.59360141E+00</totfact>
</mgrwt>
</event>
<event>
12    1  0.1504874E-007  0.1905320E+04  0.7818608E-02  0.8652213E-01
         -1   -1    0    0    0  501 -0.00000000000E+00  0.00000000000E+00  0.66206470584E+03  0.66206470584E+03  0.00000000000E+00 0.  1.
          1   -1    0    0  501    0  0.00000000000E+00 -0.00000000000E+00 -0.13708040667E+04  0.13708040667E+04  0.00000000000E+00 0. -1.
         23    2    1    2    0    0 -0.57232625799E+03  0.51541526211E+03 -0.58537659876E+02  0.77758542515E+03  0.89455004218E+02 0.  0.
        254    2    1    2    0    0  0.57232625799E+03 -0.51541526211E+03 -0.65020170098E+03  0.12552833474E+04  0.74817363779E+03 0.  0.
        -24    2    4    4    0    0 -0.33238051700E+02 -0.59588515466E+02 -0.45782810245E+03  0.46977006756E+03  0.80136045084E+02 0.  0.
         24    2    4    4    0    0  0.60556430969E+03 -0.45582674664E+03 -0.19237359852E+03  0.78551327983E+03  0.74413407796E+02 0.  0.
         11    1    3    3    0    0 -0.10037376901E+03  0.67549682170E+02 -0.37300340132E+02  0.12660635229E+03  0.00000000000E+00 0.  1.
        -11    1    3    3    0    0 -0.47195248898E+03  0.44786557994E+03 -0.21237319744E+02  0.65097907286E+03  0.00000000000E+00 0. -1.
          4    1    6    6  502    0  0.17130758477E+03 -0.88746243960E+02 -0.45080225773E+02  0.19812726004E+03  0.00000000000E+00 0. -1.
          1    1    5    5  503    0 -0.27023011706E+02 -0.35506204935E+02 -0.83998751500E+02  0.95114268142E+02  0.00000000000E+00 0. -1.
         -2    1    5    5    0  503 -0.62150399940E+01 -0.24082310531E+02 -0.37382935095E+03  0.37465579942E+03  0.00000000000E+00 0.  1.
         -3    1    6    6    0  502  0.43425672492E+03 -0.36708050268E+03 -0.14729337275E+03  0.58738601979E+03  0.00000000000E+00 0.  1.
<mgrwt>
<rscale>  0 0.19053199E+04</rscale>
<asrwt>0</asrwt>
<pdfrwt beam="1">  1        1 0.21089293E+00 0.19053199E+04</pdfrwt>
<pdfrwt beam="2">  1       -1 0.10185611E+00 0.19053199E+04</pdfrwt>
<totfact> 0.68828936E+00</totfact>
</mgrwt>
</event>
<event>
12    1  0.1504874E-007  0.1223655E+04  0.7818608E-02  0.9092400E-01
          2   -1    0    0  501    0  0.00000000000E+00  0.00000000000E+00  0.32831264422E+04  0.32831264422E+04  0.00000000000E+00 0. -1.
         -2   -1    0    0    0  501 -0.00000000000E+00 -0.00000000000E+00 -0.11401722578E+03  0.11401722578E+03  0.00000000000E+00 0.  1.
         23    2    1    2    0    0  0.26462085045E+03 -0.33051213791E+02  0.63669818734E+03  0.69626948274E+03  0.91049621692E+02 0.  0.
        254    2    1    2    0    0 -0.26462085045E+03  0.33051213791E+02  0.25324110291E+04  0.27008741853E+04  0.90027727231E+03 0.  0.
        -24    2    4    4    0    0 -0.22521586435E+03 -0.37856832124E+03  0.78734169636E+03  0.90568778239E+03  0.79544031484E+02 0.  0.
         24    2    4    4    0    0 -0.39404986099E+02  0.41161953503E+03  0.17450693328E+04  0.17951864029E+04  0.80273597152E+02 0.  0.
         13    1    3    3    0    0  0.54296536505E+02 -0.42894081780E+02  0.12362009596E+03  0.14166843069E+03  0.00000000000E+00 0. -1.
        -13    1    3    3    0    0  0.21032431394E+03  0.98428679889E+01  0.51307809138E+03  0.55460105205E+03  0.00000000000E+00 0.  1.
          4    1    6    6  502    0 -0.44928595907E+02  0.20644892932E+03  0.10185275838E+04  0.10402106412E+04  0.00000000000E+00 0. -1.
          3    1    5    5  503    0 -0.17968529138E+03 -0.35016387142E+03  0.68021927070E+03  0.78587517903E+03  0.00000000000E+00 0. -1.
         -4    1    5    5    0  503 -0.45530572968E+02 -0.28404449818E+02  0.10712242566E+03  0.11981260336E+03  0.00000000000E+00 0.  1.
         -3    1    6    6    0  502  0.55236098072E+01  0.20517060571E+03  0.72654174900E+03  0.75497576170E+03  0.00000000000E+00 0.  1.
<mgrwt>
<rscale>  0 0.12236551E+04</rscale>
<asrwt>0</asrwt>
<pdfrwt beam="1">  1        2 0.50509630E+00 0.12236551E+04</pdfrwt>
<pdfrwt beam="2">  1       -2 0.17541114E-01 0.12236551E+04</pdfrwt>
<totfact> 0.30850547E+01</totfact>
</mgrwt>
</event>
<event>
12    1  0.1504874E-007  0.1188489E+04  0.7818608E-02  0.9122992E-01
          3   -1    0    0  501    0  0.00000000000E+00  0.00000000000E+00  0.25975800146E+03  0.25975800146E+03  0.00000000000E+00 0. -1.
         -3   -1    0    0    0  501 -0.00000000000E+00 -0.00000000000E+00 -0.13594434271E+04  0.13594434271E+04  0.00000000000E+00 0.  1.
         23    2    1    2    0    0  0.60983410183E+02 -0.21488809560E+03 -0.41058345539E+03  0.47604295464E+03  0.90234421756E+02 0.  0.
        254    2    1    2    0    0 -0.60983410183E+02  0.21488809560E+03 -0.68910197019E+03  0.11431584739E+04  0.88433811470E+03 0.  0.
        -24    2    4    4    0    0  0.15231845969E+03 -0.29062693005E+03 -0.38037227953E+03  0.50864843207E+03  0.79845042289E+02 0.  0.
         24    2    4    4    0    0 -0.21330186987E+03  0.50551502566E+03 -0.30872969066E+03  0.63451004180E+03  0.79030642136E+02 0.  0.
         11    1    3    3    0    0  0.72292559902E+02 -0.15655574734E+03 -0.24090763131E+03  0.29626407657E+03  0.00000000000E+00 0. -1.
        -11    1    3    3    0    0 -0.11309149719E+02 -0.58332348259E+02 -0.16967582409E+03  0.17977887807E+03  0.00000000000E+00 0.  1.
          2    1    6    6  502    0 -0.20252311475E+03  0.49249692895E+03 -0.31216273210E+03  0.61726364573E+03  0.00000000000E+00 0. -1.
          1    1    5    5  503    0  0.12424956722E+03 -0.22909929248E+03 -0.24681795240E+03  0.35894782684E+03  0.00000000000E+00 0. -1.
         -2    1    5    5    0  503  0.28068892466E+02 -0.61527637580E+02 -0.13355432714E+03  0.14970060523E+03  0.00000000000E+00 0.  1.
         -1    1    6    6    0  502 -0.10778755119E+02  0.13018096713E+02  0.34330414389E+01  0.17246396072E+02  0.00000000000E+00 0.  1.
<mgrwt>
<rscale>  0 0.11884886E+04</rscale>
<asrwt>0</asrwt>
<pdfrwt beam="1">  1        3 0.39962769E-01 0.11884886E+04</pdfrwt>
<pdfrwt beam="2">  1       -3 0.20914514E+00 0.11884886E+04</pdfrwt>
<totfact> 0.20717520E+00</totfact>
</mgrwt>
</event>
<event>
12    1  0.1504874E-007  0.2085221E+04  0.7818608E-02  0.8567782E-01
          2   -1    0    0  501    0  0.00000000000E+00  0.00000000000E+00  0.14742225876E+04  0.14742225876E+04  0.00000000000E+00 0. -1.
         -2   -1    0    0    0  501 -0.00000000000E+00 -0.00000000000E+00 -0.73736271656E+03  0.73736271656E+03  0.00000000000E+00 0.  1.
         23    2    1    2    0    0  0.65349164793E+03  0.29518078924E+03  0.77578229691E+03  0.10608976144E+04  0.97378353269E+02 0.  0.
        254    2    1    2    0    0 -0.65349164793E+03 -0.29518078924E+03 -0.38922425884E+02  0.11506876898E+04  0.89910186964E+03 0.  0.
        -24    2    4    4    0    0 -0.22381235814E+03 -0.41334426497E+03  0.31885165220E+03  0.57365458452E+03  0.80422342661E+02 0.  0.
         24    2    4    4    0    0 -0.42967928979E+03  0.11816347573E+03 -0.35777407808E+03  0.57703310528E+03  0.79862472857E+02 0.  0.
         13    1    3    3    0    0  0.29502690686E+03  0.16169591548E+03  0.42361210573E+03  0.54095624682E+03  0.00000000000E+00 0.  1.
        -13    1    3    3    0    0  0.35846474107E+03  0.13348487376E+03  0.35217019118E+03  0.51994136753E+03  0.00000000000E+00 0. -1.
          4    1    6    6  502    0 -0.86148372817E+02  0.28943048990E+02 -0.35322828930E+02  0.97503561306E+02  0.00000000000E+00 0. -1.
          1    1    5    5  503    0 -0.51216773322E+02 -0.13485098988E+03  0.60557975995E+02  0.15644556816E+03  0.00000000000E+00 0. -1.
         -2    1    5    5    0  503 -0.17259558482E+03 -0.27849327509E+03  0.25829367620E+03  0.41720901636E+03  0.00000000000E+00 0.  1.
         -3    1    6    6    0  502 -0.34353091698E+03  0.89220426740E+02 -0.32245124915E+03  0.47952954398E+03  0.00000000000E+00 0.  1.
<mgrwt>
<rscale>  0 0.20852211E+04</rscale>
<asrwt>0</asrwt>
<pdfrwt beam="1">  1        2 0.22680347E+00 0.20852211E+04</pdfrwt>
<pdfrwt beam="2">  1       -2 0.11344042E+00 0.20852211E+04</pdfrwt>
<totfact> 0.73852071E+00</totfact>
</mgrwt>
</event>
<event>
12    1  0.1504874E-007  0.1001313E+04  0.7818608E-02  0.9307106E-01
         -2   -1    0    0    0  501 -0.00000000000E+00  0.00000000000E+00  0.38850318175E+03  0.38850318175E+03  0.00000000000E+00 0.  1.
          2   -1    0    0  501    0  0.00000000000E+00 -0.00000000000E+00 -0.64518673021E+03  0.64518673021E+03  0.00000000000E+00 0. -1.
         23    2    1    2    0    0  0.93173864664E+01 -0.37426246898E+02 -0.64751103923E+01  0.99205309971E+02  0.91171425483E+02 0.  0.
        254    2    1    2    0    0 -0.93173864664E+01  0.37426246898E+02 -0.25020843807E+03  0.93448460198E+03  0.89953858795E+03 0.  0.
        -24    2    4    4    0    0 -0.17386203179E+03 -0.36415655873E+03 -0.27163827613E+03  0.49272178258E+03  0.78418088538E+02 0.  0.
         24    2    4    4    0    0  0.16454464533E+03  0.40158280563E+03  0.21429838060E+02  0.44176281940E+03  0.79696051093E+02 0.  0.
         11    1    3    3    0    0  0.32360356718E+02 -0.55774532558E+02 -0.18961206677E+02  0.67212487884E+02  0.00000000000E+00 0. -1.
        -11    1    3    3    0    0 -0.23042970251E+02  0.18348285660E+02  0.12486096285E+02  0.31992822087E+02  0.00000000000E+00 0.  1.
          2    1    6    6  502    0  0.79698519696E+02  0.13200584037E+03 -0.22240351869E+02  0.15579483042E+03  0.00000000000E+00 0. -1.
          1    1    5    5  503    0 -0.14698805052E+03 -0.22634881018E+03 -0.16403245481E+03  0.31582577016E+03  0.00000000000E+00 0. -1.
         -2    1    5    5    0  503 -0.26873981269E+02 -0.13780774855E+03 -0.10760582132E+03  0.17689601243E+03  0.00000000000E+00 0.  1.
         -1    1    6    6    0  502  0.84846125630E+02  0.26957696526E+03  0.43670189929E+02  0.28596798898E+03  0.00000000000E+00 0.  1.
<mgrwt>
<rscale>  0 0.10013133E+04</rscale>
<asrwt>0</asrwt>
<pdfrwt beam="1">  1        2 0.99259497E-01 0.10013133E+04</pdfrwt>
<pdfrwt beam="2">  1       -2 0.59769720E-01 0.10013133E+04</pdfrwt>
<totfact> 0.11835514E+02</totfact>
</mgrwt>
</event>
<event>
12    1  0.1504874E-007  0.1221859E+04  0.7818608E-02  0.9093936E-01
          2   -1    0    0  501    0  0.00000000000E+00  0.00000000000E+00  0.27229082453E+04  0.27229082453E+04  0.00000000000E+00 0. -1.
         -2   -1    0    0    0  501 -0.00000000000E+00 -0.00000000000E+00 -0.13707217318E+03  0.13707217318E+03  0.00000000000E+00 0.  1.
         23    2    1    2    0    0  0.13950412003E+03 -0.22432935282E+03  0.34726264259E+03  0.44593602457E+03  0.92100689630E+02 0.  0.
        254    2    1    2    0    0 -0.13950412003E+03  0.22432935282E+03  0.22385734295E+04  0.24140443939E+04  0.86406844537E+03 0.  0.
        -24    2    4    4    0    0 -0.32354527772E+03  0.44437582111E+03  0.10342406841E+04  0.11739264950E+04  0.79361237721E+02 0.  0.
         24    2    4    4    0    0  0.18404115770E+03 -0.22004646830E+03  0.12043327455E+04  0.12401178989E+04  0.71996148076E+02 0.  0.
         13    1    3    3    0    0 -0.85662309447E+01 -0.42986190224E+02  0.37705828000E+02  0.57818010410E+02  0.00000000000E+00 0.  1.
        -13    1    3    3    0    0  0.14807035097E+03 -0.18134316259E+03  0.30955681459E+03  0.38811801416E+03  0.00000000000E+00 0. -1.
          2    1    6    6  502    0  0.68507568022E+02 -0.35749919958E+02  0.36178134726E+03  0.36994200475E+03  0.00000000000E+00 0. -1.
          3    1    5    5  503    0 -0.21164635462E+03  0.22982887496E+03  0.54816399083E+03  0.63095106944E+03  0.00000000000E+00 0. -1.
         -4    1    5    5    0  503 -0.11189892311E+03  0.21454694616E+03  0.48607669322E+03  0.54297542559E+03  0.00000000000E+00 0.  1.
         -1    1    6    6    0  502  0.11553358967E+03 -0.18429654834E+03  0.84255139821E+03  0.87017589411E+03  0.00000000000E+00 0.  1.
<mgrwt>
<rscale>  0 0.12218592E+04</rscale>
<asrwt>0</asrwt>
<pdfrwt beam="1">  1        2 0.41890892E+00 0.12218592E+04</pdfrwt>
<pdfrwt beam="2">  1       -2 0.21088029E-01 0.12218592E+04</pdfrwt>
<totfact> 0.49806907E+01</totfact>
</mgrwt>
</event>
<event>
12    1  0.1504874E-007  0.1147995E+04  0.7818608E-02  0.9159636E-01
          1   -1    0    0  501    0  0.00000000000E+00  0.00000000000E+00  0.93754006598E+03  0.93754006598E+03  0.00000000000E+00 0. -1.
         -1   -1    0    0    0  501 -0.00000000000E+00 -0.00000000000E+00 -0.35142279811E+03  0.35142279811E+03  0.00000000000E+00 0.  1.
         23    2    1    2    0    0  0.59975348684E+02  0.16009281876E+03 -0.20228667920E+02  0.19354246600E+03  0.88446221342E+02 0.  0.
        254    2    1    2    0    0 -0.59975348684E+02 -0.16009281876E+03  0.60634593579E+03  0.10954203981E+04  0.89613821571E+03 0.  0.
        -24    2    4    4    0    0 -0.31828875812E+03  0.74404770063E+02  0.65380547314E+03  0.73535159900E+03  0.80228262361E+02 0.  0.
         24    2    4    4    0    0  0.25831340944E+03 -0.23449758882E+03 -0.47459537349E+02  0.36006879910E+03  0.75380340541E+02 0.  0.
         11    1    3    3    0    0  0.70278032046E+02  0.16563542381E+03 -0.14486485479E+02  0.18051025918E+03  0.00000000000E+00 0. -1.
        -11    1    3    3    0    0 -0.10302683363E+02 -0.55426050498E+01 -0.57421824418E+01  0.13032206813E+02  0.00000000000E+00 0.  1.
          4    1    6    6  502    0  0.17449906891E+03 -0.16647981218E+03  0.23571207310E+01  0.24118666823E+03  0.00000000000E+00 0. -1.
          3    1    5    5  503    0 -0.49289274803E+02  0.43489108276E+02  0.12189179390E+03  0.13848590026E+03  0.00000000000E+00 0. -1.
         -4    1    5    5    0  503 -0.26899948332E+03  0.30915661787E+02  0.53191367924E+03  0.59686569874E+03  0.00000000000E+00 0.  1.
         -3    1    6    6    0  502  0.83814340534E+02 -0.68017776642E+02 -0.49816658080E+02  0.11888213087E+03  0.00000000000E+00 0.  1.
<mgrwt>
<rscale>  0 0.11479947E+04</rscale>
<asrwt>0</asrwt>
<pdfrwt beam="1">  1        1 0.14423693E+00 0.11479947E+04</pdfrwt>
<pdfrwt beam="2">  1       -1 0.54065046E-01 0.11479947E+04</pdfrwt>
<totfact> 0.58183410E+01</totfact>
</mgrwt>
</event>
<event>
12    1  0.1504874E-007  0.2045925E+04  0.7818608E-02  0.8585445E-01
         -2   -1    0    0    0  501 -0.00000000000E+00  0.00000000000E+00  0.70833727274E+03  0.70833727274E+03  0.00000000000E+00 0.  1.
          2   -1    0    0  501    0  0.00000000000E+00 -0.00000000000E+00 -0.14773359909E+04  0.14773359909E+04  0.00000000000E+00 0. -1.
         23    2    1    2    0    0  0.43644022307E+03  0.21825581064E+03 -0.10125210169E+04  0.11276129348E+04  0.90534268738E+02 0.  0.
        254    2    1    2    0    0 -0.43644022307E+03 -0.21825581064E+03  0.24352229871E+03  0.10580603289E+04  0.90668234923E+03 0.  0.
        -24    2    4    4    0    0 -0.10528099337E+03  0.37383384446E+02 -0.32206076858E+03  0.35003232619E+03  0.79485128925E+02 0.  0.
         24    2    4    4    0    0 -0.33115922970E+03 -0.25563919509E+03  0.56558306729E+03  0.70802800270E+03  0.80010081373E+02 0.  0.
         11    1    3    3    0    0  0.25222849419E+03  0.14934420827E+03 -0.51418772507E+03  0.59187154218E+03  0.00000000000E+00 0.  1.
        -11    1    3    3    0    0  0.18421172888E+03  0.68911602370E+02 -0.49833329180E+03  0.53574139257E+03  0.00000000000E+00 0. -1.
          2    1    6    6  502    0 -0.19464995427E+03 -0.13371198641E+03  0.37978203878E+03  0.44721571640E+03  0.00000000000E+00 0. -1.
          1    1    5    5  503    0 -0.87166889808E+02  0.74626208886E+01 -0.28882125115E+03  0.30178050385E+03  0.00000000000E+00 0. -1.
         -2    1    5    5    0  503 -0.18114103564E+02  0.29920763557E+02 -0.33239517431E+02  0.48251822337E+02  0.00000000000E+00 0.  1.
         -1    1    6    6    0  502 -0.13650927542E+03 -0.12192720868E+03  0.18580102851E+03  0.26081228631E+03  0.00000000000E+00 0.  1.
<mgrwt>
<rscale>  0 0.20459249E+04</rscale>
<asrwt>0</asrwt>
<pdfrwt beam="1">  1        2 0.22728246E+00 0.20459249E+04</pdfrwt>
<pdfrwt beam="2">  1       -2 0.10897497E+00 0.20459249E+04</pdfrwt>
<totfact> 0.81346184E+00</totfact>
</mgrwt>
</event>
<event>
12    1  0.1504874E-007  0.2140331E+04  0.7818608E-02  0.8543683E-01
         -1   -1    0    0    0  501 -0.00000000000E+00  0.00000000000E+00  0.89367288586E+03  0.89367288586E+03  0.00000000000E+00 0.  1.
          1   -1    0    0  501    0  0.00000000000E+00 -0.00000000000E+00 -0.12815134279E+04  0.12815134279E+04  0.00000000000E+00 0. -1.
         23    2    1    2    0    0 -0.15775496614E+03  0.77604068527E+03 -0.43449820107E+03  0.90769621558E+03  0.89431306091E+02 0.  0.
        254    2    1    2    0    0  0.15775496614E+03 -0.77604068527E+03  0.46657659053E+02  0.12674900982E+04  0.98854865194E+03 0.  0.
        -24    2    4    4    0    0  0.11584442926E+03  0.17107006853E+03 -0.18470742178E+03  0.28837796999E+03  0.79750371662E+02 0.  0.
         24    2    4    4    0    0  0.41910536880E+02 -0.94711075381E+03  0.23136508083E+03  0.97911212817E+03  0.79721300898E+02 0.  0.
         13    1    3    3    0    0 -0.15337838196E+03  0.60176918276E+03 -0.31487553173E+03  0.69627413987E+03  0.00000000000E+00 0. -1.
        -13    1    3    3    0    0 -0.43765841764E+01  0.17427150251E+03 -0.11962266935E+03  0.21142207571E+03  0.00000000000E+00 0.  1.
          4    1    6    6  502    0 -0.46675937889E+01 -0.58091496689E+03  0.16637687865E+03  0.60428904585E+03  0.00000000000E+00 0. -1.
          1    1    5    5  503    0  0.96352057440E+02  0.91050490382E+02 -0.14653703780E+03  0.19760317360E+03  0.00000000000E+00 0. -1.
         -2    1    5    5    0  503  0.19492371816E+02  0.80019578152E+02 -0.38170383983E+02  0.90774796392E+02  0.00000000000E+00 0.  1.
         -3    1    6    6    0  502  0.46578130669E+02 -0.36619578692E+03  0.64988202181E+02  0.37482308231E+03  0.00000000000E+00 0.  1.
<mgrwt>
<rscale>  0 0.21403306E+04</rscale>
<asrwt>0</asrwt>
<pdfrwt beam="1">  1        1 0.19715591E+00 0.21403306E+04</pdfrwt>
<pdfrwt beam="2">  1       -1 0.13748814E+00 0.21403306E+04</pdfrwt>
<totfact> 0.37561173E+00</totfact>
</mgrwt>
</event>
<event>
12    1  0.1504874E-007  0.1365701E+04  0.7818608E-02  0.8979027E-01
          2   -1    0    0  501    0  0.00000000000E+00  0.00000000000E+00  0.37818354349E+03  0.37818354349E+03  0.00000000000E+00 0. -1.
         -2   -1    0    0    0  501 -0.00000000000E+00 -0.00000000000E+00 -0.12329594406E+04  0.12329594406E+04  0.00000000000E+00 0.  1.
         23    2    1    2    0    0  0.27470465546E+03 -0.38905172959E+02  0.59094102046E+02  0.29810046735E+03  0.91627045807E+02 0.  0.
        254    2    1    2    0    0 -0.27470465546E+03  0.38905172959E+02 -0.91386999916E+03  0.13130425168E+04  0.90108047101E+03 0.  0.
        -24    2    4    4    0    0 -0.17028632908E+03 -0.31010696721E+03 -0.42130800512E+02  0.36492567388E+03  0.78942878873E+02 0.  0.
         24    2    4    4    0    0 -0.10441832638E+03  0.34901214017E+03 -0.87173919865E+03  0.94811684287E+03  0.79269517515E+02 0.  0.
         13    1    3    3    0    0  0.25268526039E+03 -0.61444571788E+02  0.58683836359E+02  0.26658782581E+03  0.00000000000E+00 0. -1.
        -13    1    3    3    0    0  0.22019395064E+02  0.22539398828E+02  0.41026568705E+00  0.31512641534E+02  0.00000000000E+00 0.  1.
          2    1    6    6  502    0 -0.20241936748E+02  0.12549228896E+03 -0.39402920681E+03  0.41402544174E+03  0.00000000000E+00 0. -1.
          1    1    5    5  503    0 -0.54925118850E+02 -0.40751853457E+02 -0.19065579181E+02  0.70999848946E+02  0.00000000000E+00 0. -1.
         -2    1    5    5    0  503 -0.11536121023E+03 -0.26935511375E+03 -0.23065221331E+02  0.29392582494E+03  0.00000000000E+00 0.  1.
         -1    1    6    6    0  502 -0.84176389629E+02  0.22351985121E+03 -0.47770999184E+03  0.53409140113E+03  0.00000000000E+00 0.  1.
<mgrwt>
<rscale>  0 0.13657012E+04</rscale>
<asrwt>0</asrwt>
<pdfrwt beam="1">  1        2 0.58182085E-01 0.13657012E+04</pdfrwt>
<pdfrwt beam="2">  1       -2 0.18968606E+00 0.13657012E+04</pdfrwt>
<totfact> 0.12859094E+01</totfact>
</mgrwt>
</event>
<event>
12    1  0.1504874E-007  0.1809938E+04  0.7818608E-02  0.8701032E-01
         -2   -1    0    0    0  501 -0.00000000000E+00  0.00000000000E+00  0.50355828138E+03  0.50355828138E+03  0.00000000000E+00 0.  1.
          2   -1    0    0  501    0  0.00000000000E+00 -0.00000000000E+00 -0.16263643373E+04  0.16263643373E+04  0.00000000000E+00 0. -1.
         23    2    1    2    0    0 -0.20733135287E+02 -0.46930033698E+03 -0.99462219075E+03  0.11036651750E+04  0.90171208801E+02 0.  0.
        254    2    1    2    0    0  0.20733135287E+02  0.46930033698E+03 -0.12818386522E+03  0.10262574438E+04  0.90338284708E+03 0.  0.
        -24    2    4    4    0    0  0.60266483459E+02 -0.23764001978E+03 -0.17656195499E+03  0.31220914545E+03  0.78712124368E+02 0.  0.
         24    2    4    4    0    0 -0.39533348173E+02  0.70694035676E+03  0.48378089774E+02  0.71404829832E+03  0.78720893857E+02 0.  0.
         11    1    3    3    0    0 -0.76221781098E+01 -0.19778341489E+02 -0.10174482536E+03  0.10392925420E+03  0.00000000000E+00 0.  1.
        -11    1    3    3    0    0 -0.13110957177E+02 -0.44952199549E+03 -0.89287736539E+03  0.99973592076E+03  0.00000000000E+00 0. -1.
          2    1    6    6  502    0 -0.47484996737E+02  0.30861013743E+03  0.46138778297E+02  0.31563242657E+03  0.00000000000E+00 0. -1.
          1    1    5    5  503    0  0.64877883723E+02 -0.96819562104E+02 -0.76999961151E+02  0.13968593852E+03  0.00000000000E+00 0. -1.
         -2    1    5    5    0  503 -0.46114002640E+01 -0.14082045768E+03 -0.99561993841E+02  0.17252320693E+03  0.00000000000E+00 0.  1.
         -1    1    6    6    0  502  0.79516485642E+01  0.39833021934E+03  0.22393114774E+01  0.39841587176E+03  0.00000000000E+00 0.  1.
<mgrwt>
<rscale>  0 0.18099384E+04</rscale>
<asrwt>0</asrwt>
<pdfrwt beam="1">  1        2 0.25020990E+00 0.18099384E+04</pdfrwt>
<pdfrwt beam="2">  1       -2 0.77470503E-01 0.18099384E+04</pdfrwt>
<totfact> 0.15105459E+01</totfact>
</mgrwt>
</event>
<event>
12    1  0.1504874E-007  0.1722804E+04  0.7818608E-02  0.8748464E-01
         -2   -1    0    0    0  501 -0.00000000000E+00  0.00000000000E+00  0.29194199339E+03  0.29194199339E+03  0.00000000000E+00 0. -1.
          2   -1    0    0  501    0  0.00000000000E+00 -0.00000000000E+00 -0.25416472359E+04  0.25416472359E+04  0.00000000000E+00 0.  1.
         23    2    1    2    0    0 -0.26574528115E+03 -0.71011512117E+02 -0.17348467249E+04  0.17589829969E+04  0.93085096306E+02 0.  0.
        254    2    1    2    0    0  0.26574528115E+03  0.71011512117E+02 -0.51485851760E+03  0.10746062324E+04  0.90223947611E+03 0.  0.
        -24    2    4    4    0    0  0.36241113544E+03  0.26297449309E+02 -0.73179507328E+03  0.82006648583E+03  0.70367783648E+02 0.  0.
         24    2    4    4    0    0 -0.96665854283E+02  0.44714062808E+02  0.21693655568E+03  0.25453974657E+03  0.79908563954E+02 0.  0.
         11    1    3    3    0    0 -0.24328678709E+03 -0.87117177373E+02 -0.14544903449E+04  0.14772677573E+04  0.00000000000E+00 0. -1.
        -11    1    3    3    0    0 -0.22458494059E+02  0.16105665256E+02 -0.28035638006E+03  0.28171523964E+03  0.00000000000E+00 0.  1.
          4    1    6    6  502    0 -0.11876770686E+02 -0.14992276402E+02  0.82859939877E+02  0.85038789208E+02  0.00000000000E+00 0. -1.
          1    1    5    5  503    0  0.16478250177E+01 -0.75305198322E+01 -0.17477144122E+02  0.19101691624E+02  0.00000000000E+00 0. -1.
         -2    1    5    5    0  503  0.36076331042E+03  0.33827969141E+02 -0.71431792916E+03  0.80096479420E+03  0.00000000000E+00 0.  1.
         -3    1    6    6    0  502 -0.84789083597E+02  0.59706339210E+02  0.13407661581E+03  0.16950095736E+03  0.00000000000E+00 0.  1.
<mgrwt>
<rscale>  0 0.17228042E+04</rscale>
<asrwt>0</asrwt>
<pdfrwt beam="1">  1        2 0.39102265E+00 0.17228042E+04</pdfrwt>
<pdfrwt beam="2">  1       -2 0.44914153E-01 0.17228042E+04</pdfrwt>
<totfact> 0.14726479E+01</totfact>
</mgrwt>
</event>
<event>
12    1  0.1504874E-007  0.1385554E+04  0.7818608E-02  0.8964342E-01
         -2   -1    0    0    0  501 -0.00000000000E+00  0.00000000000E+00  0.81582791222E+03  0.81582791222E+03  0.00000000000E+00 0.  1.
          2   -1    0    0  501    0  0.00000000000E+00 -0.00000000000E+00 -0.58828592733E+03  0.58828592733E+03  0.00000000000E+00 0. -1.
         23    2    1    2    0    0 -0.18668682283E+03  0.29324360218E+03 -0.19240653550E+03  0.40979726759E+03  0.10034812196E+03 0.  0.
        254    2    1    2    0    0  0.18668682283E+03 -0.29324360218E+03  0.41994852040E+03  0.99431657196E+03  0.83154368824E+03 0.  0.
        -24    2    4    4    0    0 -0.20867592890E+03 -0.37249150921E+03  0.41922735116E+02  0.43592346499E+03  0.77305781647E+02 0.  0.
         24    2    4    4    0    0  0.39536275172E+03  0.79247907029E+02  0.37802578528E+03  0.55839310697E+03  0.79419338689E+02 0.  0.
         11    1    3    3    0    0 -0.79330219316E+02  0.11118491056E+03 -0.13208091099E+03  0.19000193442E+03  0.00000000000E+00 0. -1.
        -11    1    3    3    0    0 -0.10735660351E+03  0.18205869161E+03 -0.60325624507E+02  0.21979533317E+03  0.00000000000E+00 0.  1.
          4    1    6    6  502    0  0.25784060227E+03  0.86194872201E+02  0.27234739446E+03  0.38481740533E+03  0.00000000000E+00 0. -1.
          1    1    5    5  503    0 -0.58810207278E+02 -0.18177952850E+03  0.26470997914E+02  0.19288118413E+03  0.00000000000E+00 0. -1.
         -2    1    5    5    0  503 -0.14986572162E+03 -0.19071198071E+03  0.15451737202E+02  0.24304228086E+03  0.00000000000E+00 0.  1.
         -3    1    6    6    0  502  0.13752214945E+03 -0.69469651718E+01  0.10567839082E+03  0.17357570164E+03  0.00000000000E+00 0.  1.
<mgrwt>
<rscale>  0 0.13855542E+04</rscale>
<asrwt>0</asrwt>
<pdfrwt beam="1">  1        2 0.90505528E-01 0.13855542E+04</pdfrwt>
<pdfrwt beam="2">  1       -2 0.12551199E+00 0.13855542E+04</pdfrwt>
<totfact> 0.23478396E+01</totfact>
</mgrwt>
</event>
<event>
12    1  0.1504874E-007  0.2540122E+04  0.7818608E-02  0.8388830E-01
          2   -1    0    0  501    0  0.00000000000E+00  0.00000000000E+00  0.29016279247E+04  0.29016279247E+04  0.00000000000E+00 0. -1.
         -2   -1    0    0    0  501 -0.00000000000E+00 -0.00000000000E+00 -0.55591398563E+03  0.55591398563E+03  0.00000000000E+00 0.  1.
         23    2    1    2    0    0  0.78249768628E+03 -0.70008047994E+03  0.54960537444E+03  0.11886209429E+04  0.91314680719E+02 0.  0.
        254    2    1    2    0    0 -0.78249768628E+03  0.70008047994E+03  0.17961085646E+04  0.22689209674E+04  0.90530717051E+03 0.  0.
        -24    2    4    4    0    0 -0.15216948290E+02  0.27985297815E+03  0.25554310820E+02  0.29240165366E+03  0.79350232329E+02 0.  0.
         24    2    4    4    0    0 -0.76728073799E+03  0.42022750180E+03  0.17705542538E+04  0.19765193137E+04  0.80345178943E+02 0.  0.
         13    1    3    3    0    0  0.54860062105E+02 -0.46318930788E+02  0.65518459772E+02  0.97199477027E+02  0.00000000000E+00 0. -1.
        -13    1    3    3    0    0  0.72763762417E+03 -0.65376154915E+03  0.48408691467E+03  0.10914214659E+04  0.00000000000E+00 0.  1.
          4    1    6    6  502    0 -0.55913801573E+03  0.32139722690E+03  0.12276425545E+04  0.13867363627E+04  0.00000000000E+00 0. -1.
          3    1    5    5  503    0  0.30638418049E+02  0.69633444852E+02  0.44343624222E+01  0.76204939948E+02  0.00000000000E+00 0. -1.
         -4    1    5    5    0  503 -0.45855366338E+02  0.21021953329E+03  0.21119948398E+02  0.21619671371E+03  0.00000000000E+00 0.  1.
         -3    1    6    6    0  502 -0.20814272226E+03  0.98830274899E+02  0.54291169931E+03  0.58978295102E+03  0.00000000000E+00 0.  1.
<mgrwt>
<rscale>  0 0.25401225E+04</rscale>
<asrwt>0</asrwt>
<pdfrwt beam="1">  1        2 0.44640429E+00 0.25401225E+04</pdfrwt>
<pdfrwt beam="2">  1       -2 0.85525230E-01 0.25401225E+04</pdfrwt>
<totfact> 0.21168869E+00</totfact>
</mgrwt>
</event>
<event>
12    1  0.1504874E-007  0.1812228E+04  0.7818608E-02  0.8699823E-01
          2   -1    0    0  501    0  0.00000000000E+00  0.00000000000E+00  0.12702324716E+04  0.12702324716E+04  0.00000000000E+00 0. -1.
         -2   -1    0    0    0  501 -0.00000000000E+00 -0.00000000000E+00 -0.64637224421E+03  0.64637224421E+03  0.00000000000E+00 0.  1.
         23    2    1    2    0    0 -0.28022849159E+03 -0.38203690069E+03 -0.27276132758E+03  0.55450029907E+03  0.92691093743E+02 0.  0.
        254    2    1    2    0    0  0.28022849159E+03  0.38203690069E+03  0.89662155494E+03  0.13621044167E+04  0.90935033306E+03 0.  0.
        -24    2    4    4    0    0 -0.17035516597E+03  0.48488690772E+02  0.75327499259E+03  0.77798421143E+03  0.80400143420E+02 0.  0.
         24    2    4    4    0    0  0.45058365757E+03  0.33354820992E+03  0.14334656235E+03  0.58412020527E+03  0.79800604411E+02 0.  0.
         13    1    3    3    0    0 -0.14367549707E+03 -0.12464489331E+03 -0.12694255921E+03  0.22867752672E+03  0.00000000000E+00 0. -1.
        -13    1    3    3    0    0 -0.13655299452E+03 -0.25739200738E+03 -0.14581876837E+03  0.32582277236E+03  0.00000000000E+00 0.  1.
          4    1    6    6  502    0  0.95952938812E+02  0.11419813429E+03  0.32623373869E+02  0.15268419979E+03  0.00000000000E+00 0. -1.
          3    1    5    5  503    0 -0.71845962865E+01  0.11418057475E+02  0.18748318443E+03  0.18796790924E+03  0.00000000000E+00 0. -1.
         -4    1    5    5    0  503 -0.16317056969E+03  0.37070633298E+02  0.56579180817E+03  0.59001630219E+03  0.00000000000E+00 0.  1.
         -1    1    6    6    0  502  0.35463071876E+03  0.21935007563E+03  0.11072318848E+03  0.43143600549E+03  0.00000000000E+00 0.  1.
<mgrwt>
<rscale>  0 0.18122285E+04</rscale>
<asrwt>0</asrwt>
<pdfrwt beam="1">  1        2 0.19542038E+00 0.18122285E+04</pdfrwt>
<pdfrwt beam="2">  1       -2 0.99441884E-01 0.18122285E+04</pdfrwt>
<totfact> 0.13587581E+01</totfact>
</mgrwt>
</event>
<event>
12    1  0.1504874E-007  0.2888911E+04  0.7818608E-02  0.8276184E-01
          2   -1    0    0  501    0  0.00000000000E+00  0.00000000000E+00  0.28175551819E+04  0.28175551819E+04  0.00000000000E+00 0. -1.
         -2   -1    0    0    0  501 -0.00000000000E+00 -0.00000000000E+00 -0.74051842422E+03  0.74051842422E+03  0.00000000000E+00 0.  1.
         23    2    1    2    0    0  0.70989286151E+03 -0.63587593526E+02  0.22757711872E+04  0.23865589166E+04  0.92399723263E+02 0.  0.
        254    2    1    2    0    0 -0.70989286151E+03  0.63587593526E+02 -0.19873442950E+03  0.11715146896E+04  0.90827310737E+03 0.  0.
        -24    2    4    4    0    0  0.22798694796E+02 -0.30974593333E+03  0.56717102914E+01  0.32002030115E+03  0.76931795444E+02 0.  0.
         24    2    4    4    0    0 -0.73269155631E+03  0.37333352686E+03 -0.20440613979E+03  0.85149438844E+03  0.83940363381E+02 0.  0.
         13    1    3    3    0    0  0.60158192323E+02 -0.32114872275E+02  0.21953441076E+03  0.22988199284E+03  0.00000000000E+00 0.  1.
        -13    1    3    3    0    0  0.64973466919E+03 -0.31472721251E+02  0.20562367765E+04  0.21566769237E+04  0.00000000000E+00 0. -1.
          4    1    6    6  502    0 -0.19200852588E+03  0.71364621725E+02 -0.22705085482E+02  0.20609634677E+03  0.00000000000E+00 0. -1.
          3    1    5    5  503    0 -0.99926742399E+01 -0.97605347993E+02 -0.29596795022E+02  0.10248232907E+03  0.00000000000E+00 0. -1.
         -4    1    5    5    0  503  0.32791369036E+02 -0.21214058534E+03  0.35268505313E+02  0.21753797208E+03  0.00000000000E+00 0.  1.
         -3    1    6    6    0  502 -0.54068303042E+03  0.30196890513E+03 -0.18170105431E+03  0.64539804167E+03  0.00000000000E+00 0.  1.
<mgrwt>
<rscale>  0 0.28889109E+04</rscale>
<asrwt>0</asrwt>
<pdfrwt beam="1">  1        2 0.43347002E+00 0.28889109E+04</pdfrwt>
<pdfrwt beam="2">  1       -2 0.11392591E+00 0.28889109E+04</pdfrwt>
<totfact> 0.11754783E+00</totfact>
</mgrwt>
</event>
<event>
12    1  0.1504874E-007  0.2855041E+04  0.7818608E-02  0.8286381E-01
         -1   -1    0    0    0  501 -0.00000000000E+00  0.00000000000E+00  0.65591471884E+03  0.65591471884E+03  0.00000000000E+00 0.  1.
          1   -1    0    0  501    0  0.00000000000E+00 -0.00000000000E+00 -0.31068296917E+04  0.31068296917E+04  0.00000000000E+00 0. -1.
         23    2    1    2    0    0 -0.79444911238E+03  0.89734017943E+03 -0.17158236269E+04  0.20949236305E+04  0.91024771254E+02 0.  0.
        254    2    1    2    0    0  0.79444911238E+03 -0.89734017943E+03 -0.73509134592E+03  0.16678207801E+04  0.89716112142E+03 0.  0.
        -24    2    4    4    0    0  0.97546855508E+03 -0.78870558181E+03 -0.70175796478E+03  0.14395097912E+04  0.78286660623E+02 0.  0.
         24    2    4    4    0    0 -0.18101944271E+03 -0.10863459762E+03 -0.33333381144E+02  0.22831098882E+03  0.80282494225E+02 0.  0.
         13    1    3    3    0    0 -0.66363840542E+03  0.77031550725E+03 -0.15038941946E+04  0.18153511127E+04  0.00000000000E+00 0. -1.
        -13    1    3    3    0    0 -0.13081070695E+03  0.12702467218E+03 -0.21192943229E+03  0.27957251772E+03  0.00000000000E+00 0.  1.
          2    1    6    6  502    0 -0.77634383902E+02 -0.87984221314E+02 -0.36352048650E+02  0.12284051532E+03  0.00000000000E+00 0. -1.
          1    1    5    5  503    0  0.40214077633E+03 -0.33014695357E+03 -0.24734058059E+03  0.57610031917E+03  0.00000000000E+00 0. -1.
         -2    1    5    5    0  503  0.57332777876E+03 -0.45855862824E+03 -0.45441738419E+03  0.86340947208E+03  0.00000000000E+00 0.  1.
         -1    1    6    6    0  502 -0.10338505880E+03 -0.20650376305E+02  0.30186675062E+01  0.10547047349E+03  0.00000000000E+00 0.  1.
<mgrwt>
<rscale>  0 0.28550414E+04</rscale>
<asrwt>0</asrwt>
<pdfrwt beam="1">  1        1 0.47797380E+00 0.28550414E+04</pdfrwt>
<pdfrwt beam="2">  1       -1 0.10090996E+00 0.28550414E+04</pdfrwt>
<totfact> 0.40096589E-01</totfact>
</mgrwt>
</event>
<event>
12    1  0.1504874E-007  0.2452858E+04  0.7818608E-02  0.8419975E-01
          1   -1    0    0  501    0  0.00000000000E+00  0.00000000000E+00  0.92157391772E+03  0.92157391772E+03  0.00000000000E+00 0. -1.
         -1   -1    0    0    0  501 -0.00000000000E+00 -0.00000000000E+00 -0.16321293053E+04  0.16321293053E+04  0.00000000000E+00 0.  1.
         23    2    1    2    0    0  0.24310461849E+03 -0.47926808930E+03 -0.12549993566E+04  0.13683596568E+04  0.92666111761E+02 0.  0.
        254    2    1    2    0    0 -0.24310461849E+03  0.47926808930E+03  0.54444396910E+03  0.11853435662E+04  0.90544043284E+03 0.  0.
        -24    2    4    4    0    0  0.30725163735E+03  0.20647091760E+02  0.80907426954E+02  0.32831513401E+03  0.80093348243E+02 0.  0.
         24    2    4    4    0    0 -0.55035625585E+03  0.45862099754E+03  0.46353654214E+03  0.85702843215E+03  0.80039864379E+02 0.  0.
         13    1    3    3    0    0  0.24035530729E+03 -0.46064108623E+03 -0.11533488759E+04  0.12649800447E+04  0.00000000000E+00 0.  1.
        -13    1    3    3    0    0  0.27493112056E+01 -0.18627003067E+02 -0.10165048079E+03  0.10337961211E+03  0.00000000000E+00 0. -1.
          4    1    6    6  502    0 -0.53795263004E+03  0.43442932063E+03  0.45769879917E+03  0.82922256213E+03  0.00000000000E+00 0. -1.
          3    1    5    5  503    0  0.18823143972E+03  0.44557852717E+02  0.26345857859E+02  0.19521931607E+03  0.00000000000E+00 0. -1.
         -4    1    5    5    0  503  0.11902019763E+03 -0.23910760957E+02  0.54561569095E+02  0.13309581795E+03  0.00000000000E+00 0.  1.
         -3    1    6    6    0  502 -0.12403625810E+02  0.24191676909E+02  0.58377429765E+01  0.27805870027E+02  0.00000000000E+00 0.  1.
<mgrwt>
<rscale>  0 0.24528578E+04</rscale>
<asrwt>0</asrwt>
<pdfrwt beam="1">  1        1 0.14178060E+00 0.24528578E+04</pdfrwt>
<pdfrwt beam="2">  1       -1 0.25109681E+00 0.24528578E+04</pdfrwt>
<totfact> 0.10688435E+00</totfact>
</mgrwt>
</event>
<event>
12    1  0.1504874E-007  0.2078291E+04  0.7818608E-02  0.8570867E-01
          1   -1    0    0  501    0  0.00000000000E+00  0.00000000000E+00  0.12679878971E+04  0.12679878971E+04  0.00000000000E+00 0. -1.
         -1   -1    0    0    0  501 -0.00000000000E+00 -0.00000000000E+00 -0.85160372168E+03  0.85160372168E+03  0.00000000000E+00 0.  1.
         23    2    1    2    0    0  0.79148129950E+02 -0.84555879355E+03  0.13741935909E+03  0.86519327239E+03  0.91876104152E+02 0.  0.
        254    2    1    2    0    0 -0.79148129950E+02  0.84555879355E+03  0.27896481634E+03  0.12543983464E+04  0.88003394415E+03 0.  0.
        -24    2    4    4    0    0  0.25192465093E+03  0.84190755186E+03  0.17840979691E+03  0.90028882632E+03  0.80097187982E+02 0.  0.
         24    2    4    4    0    0 -0.33107278088E+03  0.36512416836E+01  0.10055501942E+03  0.35410952007E+03  0.75231127017E+02 0.  0.
         13    1    3    3    0    0  0.10637248762E+02 -0.16393059796E+03  0.63630571998E+02  0.17616821989E+03  0.00000000000E+00 0. -1.
        -13    1    3    3    0    0  0.68510881188E+02 -0.68162819559E+03  0.73788787090E+02  0.68902505249E+03  0.00000000000E+00 0.  1.
          2    1    6    6  502    0 -0.39585038812E+02  0.11323118190E+02  0.37695256074E+02  0.55822223476E+02  0.00000000000E+00 0. -1.
          1    1    5    5  503    0  0.40801685438E+02  0.24281133786E+03  0.69257694514E+02  0.25577089666E+03  0.00000000000E+00 0. -1.
         -2    1    5    5    0  503  0.21112296549E+03  0.59909621400E+03  0.10915210240E+03  0.64451792966E+03  0.00000000000E+00 0.  1.
         -3    1    6    6    0  502 -0.29148774207E+03 -0.76718765063E+01  0.62859763348E+02  0.29828729660E+03  0.00000000000E+00 0.  1.
<mgrwt>
<rscale>  0 0.20782908E+04</rscale>
<asrwt>0</asrwt>
<pdfrwt beam="1">  1        1 0.19507506E+00 0.20782908E+04</pdfrwt>
<pdfrwt beam="2">  1       -1 0.13101596E+00 0.20782908E+04</pdfrwt>
<totfact> 0.43699606E+00</totfact>
</mgrwt>
</event>
<event>
12    1  0.1504874E-007  0.3016420E+04  0.7818608E-02  0.8239057E-01
         -2   -1    0    0    0  501 -0.00000000000E+00  0.00000000000E+00  0.10475148585E+04  0.10475148585E+04  0.00000000000E+00 0.  1.
          2   -1    0    0  501    0  0.00000000000E+00 -0.00000000000E+00 -0.21715186373E+04  0.21715186373E+04  0.00000000000E+00 0. -1.
         23    2    1    2    0    0 -0.79696823189E+03 -0.10785780754E+04 -0.72912671083E+03  0.15290005899E+04  0.87909134768E+02 0.  0.
        254    2    1    2    0    0  0.79696823189E+03  0.10785780754E+04 -0.39487706794E+03  0.16900329059E+04  0.94962850460E+03 0.  0.
        -24    2    4    4    0    0  0.10020396394E+04  0.91132762577E+03 -0.40261644052E+03  0.14152927234E+04  0.79699526146E+02 0.  0.
         24    2    4    4    0    0 -0.20507140747E+03  0.16725044965E+03  0.77393725801E+01  0.27474018245E+03  0.73452534978E+02 0.  0.
         13    1    3    3    0    0 -0.36535269358E+03 -0.44179467023E+03 -0.27710521947E+03  0.63675146173E+03  0.00000000000E+00 0. -1.
        -13    1    3    3    0    0 -0.43161553830E+03 -0.63678340519E+03 -0.45202149136E+03  0.89224912815E+03  0.00000000000E+00 0.  1.
          2    1    6    6  502    0 -0.10517202468E+03  0.39246473125E+02  0.37140217177E+01  0.11231756045E+03  0.00000000000E+00 0. -1.
          1    1    5    5  503    0  0.46290073398E+03  0.44093931750E+03 -0.15147744735E+03  0.65700075212E+03  0.00000000000E+00 0. -1.
         -2    1    5    5    0  503  0.53913890538E+03  0.47038830828E+03 -0.25113899317E+03  0.75829197131E+03  0.00000000000E+00 0.  1.
         -1    1    6    6    0  502 -0.99899382791E+02  0.12800397652E+03  0.40253508624E+01  0.16242262200E+03  0.00000000000E+00 0.  1.
<mgrwt>
<rscale>  0 0.30164204E+04</rscale>
<asrwt>0</asrwt>
<pdfrwt beam="1">  1        2 0.33407979E+00 0.30164204E+04</pdfrwt>
<pdfrwt beam="2">  1       -2 0.16115613E+00 0.30164204E+04</pdfrwt>
<totfact> 0.11312687E+00</totfact>
</mgrwt>
</event>
<event>
12    1  0.1504874E-007  0.2008625E+04  0.7818608E-02  0.8602599E-01
         -2   -1    0    0    0  501 -0.00000000000E+00  0.00000000000E+00  0.76926986073E+03  0.76926986073E+03  0.00000000000E+00 0.  1.
          2   -1    0    0  501    0  0.00000000000E+00 -0.00000000000E+00 -0.13111703061E+04  0.13111703061E+04  0.00000000000E+00 0. -1.
         23    2    1    2    0    0  0.75386151038E+03 -0.15991489203E+03 -0.44783679925E+03  0.89605952763E+03  0.92113673036E+02 0.  0.
        254    2    1    2    0    0 -0.75386151038E+03  0.15991489203E+03 -0.94063646162E+02  0.11843806393E+04  0.89444372633E+03 0.  0.
        -24    2    4    4    0    0 -0.72213555432E+03  0.11243398908E+03 -0.41788351801E+03  0.84613476967E+03  0.84830732002E+02 0.  0.
         24    2    4    4    0    0 -0.31725956056E+02  0.47480902945E+02  0.32381987185E+03  0.33824586958E+03  0.79309434834E+02 0.  0.
         13    1    3    3    0    0  0.66627438192E+03 -0.14913176194E+03 -0.36130638888E+03  0.77246627180E+03  0.00000000000E+00 0.  1.
        -13    1    3    3    0    0  0.87587128458E+02 -0.10783130087E+02 -0.86530410375E+02  0.12359325583E+03  0.00000000000E+00 0. -1.
          2    1    6    6  502    0  0.25701636364E+02  0.11366670798E+02  0.67870501736E+02  0.73458698073E+02  0.00000000000E+00 0. -1.
          1    1    5    5  503    0 -0.18873859435E+03  0.12688733635E+02 -0.14741939197E+03  0.23982439010E+03  0.00000000000E+00 0. -1.
         -2    1    5    5    0  503 -0.53339695997E+03  0.99745255450E+02 -0.27046412605E+03  0.60631037957E+03  0.00000000000E+00 0.  1.
         -1    1    6    6    0  502 -0.57427592420E+02  0.36114232147E+02  0.25594937011E+03  0.26478717151E+03  0.00000000000E+00 0.  1.
<mgrwt>
<rscale>  0 0.20086252E+04</rscale>
<asrwt>0</asrwt>
<pdfrwt beam="1">  1        2 0.20171851E+00 0.20086252E+04</pdfrwt>
<pdfrwt beam="2">  1       -2 0.11834921E+00 0.20086252E+04</pdfrwt>
<totfact> 0.83109432E+00</totfact>
</mgrwt>
</event>
<event>
12    1  0.1504874E-007  0.1528358E+04  0.7818608E-02  0.8865811E-01
          2   -1    0    0  501    0  0.00000000000E+00  0.00000000000E+00  0.10318571733E+04  0.10318571733E+04  0.00000000000E+00 0. -1.
         -2   -1    0    0    0  501 -0.00000000000E+00 -0.00000000000E+00 -0.56594041515E+03  0.56594041515E+03  0.00000000000E+00 0.  1.
         23    2    1    2    0    0  0.10593657074E+03 -0.22465170867E+03  0.59733558352E+03  0.65346635987E+03  0.92290502816E+02 0.  0.
        254    2    1    2    0    0 -0.10593657074E+03  0.22465170867E+03 -0.13141882533E+03  0.94433122862E+03  0.90155399975E+03 0.  0.
        -24    2    4    4    0    0 -0.58523485357E+02  0.63689364347E+02  0.38155388975E+03  0.39916992960E+03  0.79195507714E+02 0.  0.
         24    2    4    4    0    0 -0.47413085380E+02  0.16096234433E+03 -0.51297271508E+03  0.54516129902E+03  0.76830713696E+02 0.  0.
         11    1    3    3    0    0  0.11095406991E+03 -0.13595717062E+03  0.37453415421E+03  0.41360729024E+03  0.00000000000E+00 0. -1.
        -11    1    3    3    0    0 -0.50174991736E+01 -0.88694538050E+02  0.22280142931E+03  0.23985906962E+03  0.00000000000E+00 0.  1.
          2    1    6    6  502    0 -0.53926119261E+02  0.66816289680E+02 -0.18637530055E+03  0.20520281567E+03  0.00000000000E+00 0. -1.
          1    1    5    5  503    0 -0.36826539320E+02  0.32506088658E+02  0.71202961756E+02  0.86502610140E+02  0.00000000000E+00 0. -1.
         -2    1    5    5    0  503 -0.21696946036E+02  0.31183275689E+02  0.31035092800E+03  0.31266731946E+03  0.00000000000E+00 0.  1.
         -1    1    6    6    0  502  0.65130338815E+01  0.94146054647E+02 -0.32659741454E+03  0.33995848334E+03  0.00000000000E+00 0.  1.
<mgrwt>
<rscale>  0 0.15283582E+04</rscale>
<asrwt>0</asrwt>
<pdfrwt beam="1">  1        2 0.15874726E+00 0.15283582E+04</pdfrwt>
<pdfrwt beam="2">  1       -2 0.87067756E-01 0.15283582E+04</pdfrwt>
<totfact> 0.26434797E+01</totfact>
</mgrwt>
</event>
<event>
12    1  0.1504874E-007  0.1748231E+04  0.7818608E-02  0.8734325E-01
         -2   -1    0    0    0  501 -0.00000000000E+00  0.00000000000E+00  0.79458387366E+03  0.79458387366E+03  0.00000000000E+00 0.  1.
          2   -1    0    0  501    0  0.00000000000E+00 -0.00000000000E+00 -0.96160735425E+03  0.96160735425E+03  0.00000000000E+00 0. -1.
         23    2    1    2    0    0 -0.38228271599E+03 -0.27588671186E+03  0.40508475149E+03  0.62859152560E+03  0.93702174174E+02 0.  0.
        254    2    1    2    0    0  0.38228271599E+03  0.27588671186E+03 -0.57210823208E+03  0.11275997023E+04  0.84965858245E+03 0.  0.
        -24    2    4    4    0    0  0.26635883776E+03 -0.86363957371E+02  0.13503220327E+03  0.32056943468E+03  0.78264314618E+02 0.  0.
         24    2    4    4    0    0  0.11592387823E+03  0.36225066923E+03 -0.70714043535E+03  0.80703026764E+03  0.81156421053E+02 0.  0.
         11    1    3    3    0    0 -0.11901178737E+03 -0.40354644939E+02  0.83453608022E+02  0.15085359655E+03  0.00000000000E+00 0. -1.
        -11    1    3    3    0    0 -0.26327092862E+03 -0.23553206692E+03  0.32163114347E+03  0.47773792905E+03  0.00000000000E+00 0.  1.
          4    1    6    6  502    0  0.58432114021E+02  0.27944002343E+03 -0.56143791013E+03  0.62985201879E+03  0.00000000000E+00 0. -1.
          3    1    5    5  503    0  0.19132420170E+03 -0.32657120567E+02  0.11675500529E+03  0.22650202855E+03  0.00000000000E+00 0. -1.
         -4    1    5    5    0  503  0.75034636063E+02 -0.53706836805E+02  0.18277197984E+02  0.94067406123E+02  0.00000000000E+00 0.  1.
         -3    1    6    6    0  502  0.57491764209E+02  0.82810645808E+02 -0.14570252522E+03  0.17717824885E+03  0.00000000000E+00 0.  1.
<mgrwt>
<rscale>  0 0.17482308E+04</rscale>
<asrwt>0</asrwt>
<pdfrwt beam="1">  1        2 0.14793959E+00 0.17482308E+04</pdfrwt>
<pdfrwt beam="2">  1       -2 0.12224367E+00 0.17482308E+04</pdfrwt>
<totfact> 0.12822403E+01</totfact>
</mgrwt>
</event>
<event>
12    1  0.1504874E-007  0.2327200E+04  0.7818608E-02  0.8467273E-01
         -1   -1    0    0    0  501 -0.00000000000E+00  0.00000000000E+00  0.81007876584E+03  0.81007876584E+03  0.00000000000E+00 0.  1.
          1   -1    0    0  501    0  0.00000000000E+00 -0.00000000000E+00 -0.16713989871E+04  0.16713989871E+04  0.00000000000E+00 0. -1.
         23    2    1    2    0    0 -0.16333614822E+03 -0.70334509775E+03 -0.10703764714E+04  0.12943631470E+04  0.91088649787E+02 0.  0.
        254    2    1    2    0    0  0.16333614822E+03  0.70334509775E+03  0.20905625011E+03  0.11871146059E+04  0.91878373297E+03 0.  0.
        -24    2    4    4    0    0 -0.32229211394E+03  0.41691383761E+03  0.29736377852E+03  0.61079168830E+03  0.83378144763E+02 0.  0.
         24    2    4    4    0    0  0.48562826217E+03  0.28643126014E+03 -0.88307528409E+02  0.57632291759E+03  0.80450046406E+02 0.  0.
         13    1    3    3    0    0 -0.11161730793E+03 -0.54686977108E+03 -0.88520495472E+03  0.10464763647E+04  0.00000000000E+00 0.  1.
        -13    1    3    3    0    0 -0.51718840297E+02 -0.15647532667E+03 -0.18517151664E+03  0.24788678237E+03  0.00000000000E+00 0. -1.
          2    1    6    6  502    0  0.21252834969E+03  0.11273514735E+03 -0.76511219500E+02  0.25245094490E+03  0.00000000000E+00 0. -1.
          1    1    5    5  503    0 -0.11011591270E+03  0.12618932480E+03  0.13869771952E+03  0.21745417293E+03  0.00000000000E+00 0. -1.
         -2    1    5    5    0  503 -0.21217620124E+03  0.29072451281E+03  0.15866605899E+03  0.39333751537E+03  0.00000000000E+00 0.  1.
         -1    1    6    6    0  502  0.27309991248E+03  0.17369611279E+03 -0.11796308909E+02  0.32387197269E+03  0.00000000000E+00 0.  1.
<mgrwt>
<rscale>  0 0.23271999E+04</rscale>
<asrwt>0</asrwt>
<pdfrwt beam="1">  1        1 0.25713831E+00 0.23271999E+04</pdfrwt>
<pdfrwt beam="2">  1       -1 0.12462750E+00 0.23271999E+04</pdfrwt>
<totfact> 0.25345428E+00</totfact>
</mgrwt>
</event>
<event>
12    1  0.1504874E-007  0.1712807E+04  0.7818608E-02  0.8754093E-01
         -2   -1    0    0    0  501 -0.00000000000E+00  0.00000000000E+00  0.68655486250E+03  0.68655486250E+03  0.00000000000E+00 0.  1.
          2   -1    0    0  501    0  0.00000000000E+00 -0.00000000000E+00 -0.10682718014E+04  0.10682718014E+04  0.00000000000E+00 0. -1.
         23    2    1    2    0    0 -0.39976233809E+03 -0.38855165874E+03  0.11387133539E+03  0.57672229686E+03  0.94125491822E+02 0.  0.
        254    2    1    2    0    0  0.39976233809E+03  0.38855165874E+03 -0.49558827426E+03  0.11781043670E+04  0.91188806524E+03 0.  0.
        -24    2    4    4    0    0 -0.98257538009E+01  0.25904717162E+03 -0.65792411791E+03  0.71171691901E+03  0.80466423506E+02 0.  0.
         24    2    4    4    0    0  0.40958809189E+03  0.12950448712E+03  0.16233584365E+03  0.46638744801E+03  0.81427933318E+02 0.  0.
         13    1    3    3    0    0 -0.20238603938E+03 -0.24677341835E+03  0.34208041948E+02  0.32097884521E+03  0.00000000000E+00 0. -1.
        -13    1    3    3    0    0 -0.19737629870E+03 -0.14177824039E+03  0.79663293442E+02  0.25574345165E+03  0.00000000000E+00 0.  1.
          4    1    6    6  502    0  0.13412584182E+01 -0.10161670045E+01 -0.57588261575E+01  0.59996373422E+01  0.00000000000E+00 0. -1.
          3    1    5    5  503    0 -0.98548507261E+01  0.71104816113E+02 -0.10081643048E+03  0.12376172919E+03  0.00000000000E+00 0. -1.
         -4    1    5    5    0  503  0.29096925177E-01  0.18794235551E+03 -0.55710768743E+03  0.58795518982E+03  0.00000000000E+00 0.  1.
         -3    1    6    6    0  502  0.40824683347E+03  0.13052065413E+03  0.16809466981E+03  0.46038781067E+03  0.00000000000E+00 0.  1.
<mgrwt>
<rscale>  0 0.17128073E+04</rscale>
<asrwt>0</asrwt>
<pdfrwt beam="1">  1        2 0.16434951E+00 0.17128073E+04</pdfrwt>
<pdfrwt beam="2">  1       -2 0.10562383E+00 0.17128073E+04</pdfrwt>
<totfact> 0.15708142E+01</totfact>
</mgrwt>
</event>
<event>
12    1  0.1504874E-007  0.2136344E+04  0.7818608E-02  0.8545400E-01
          2   -1    0    0  501    0  0.00000000000E+00  0.00000000000E+00  0.28688876316E+04  0.28688876316E+04  0.00000000000E+00 0. -1.
         -2   -1    0    0    0  501 -0.00000000000E+00 -0.00000000000E+00 -0.39771211613E+03  0.39771211613E+03  0.00000000000E+00 0.  1.
         23    2    1    2    0    0  0.53427465002E+03 -0.40690674801E+03  0.18832501055E+04  0.20015823930E+04  0.93159072600E+02 0.  0.
        254    2    1    2    0    0 -0.53427465002E+03  0.40690674801E+03  0.58792540995E+03  0.12650173547E+04  0.89643188077E+03 0.  0.
        -24    2    4    4    0    0 -0.11584477910E+03 -0.25163659344E+03  0.64337223243E+01  0.28847503933E+03  0.80221365796E+02 0.  0.
         24    2    4    4    0    0 -0.41842987092E+03  0.65854334146E+03  0.58149168763E+03  0.97654231540E+03  0.82093979844E+02 0.  0.
         11    1    3    3    0    0  0.28848121834E+03 -0.25967448117E+03  0.11803970313E+04  0.12425737004E+04  0.00000000000E+00 0. -1.
        -11    1    3    3    0    0  0.24579343168E+03 -0.14723226684E+03  0.70285307421E+03  0.75900869256E+03  0.00000000000E+00 0.  1.
          2    1    6    6  502    0 -0.36035822078E+03  0.50510368145E+03  0.45852622018E+03  0.77151414173E+03  0.00000000000E+00 0. -1.
          1    1    5    5  503    0 -0.69221816009E+02 -0.22004170285E+03 -0.61967893597E+01  0.23075617219E+03  0.00000000000E+00 0. -1.
         -2    1    5    5    0  503 -0.46622963091E+02 -0.31594890594E+02  0.12630511684E+02  0.57718867144E+02  0.00000000000E+00 0.  1.
         -1    1    6    6    0  502 -0.58071650145E+02  0.15343966000E+03  0.12296546744E+03  0.20502817366E+03  0.00000000000E+00 0.  1.
<mgrwt>
<rscale>  0 0.21363440E+04</rscale>
<asrwt>0</asrwt>
<pdfrwt beam="1">  1        2 0.44136732E+00 0.21363440E+04</pdfrwt>
<pdfrwt beam="2">  1       -2 0.61186481E-01 0.21363440E+04</pdfrwt>
<totfact> 0.47981129E+00</totfact>
</mgrwt>
</event>
<event>
12    1  0.1504874E-007  0.1104015E+04  0.7818608E-02  0.9201287E-01
         -2   -1    0    0    0  501 -0.00000000000E+00  0.00000000000E+00  0.12863046368E+04  0.12863046368E+04  0.00000000000E+00 0.  1.
          2   -1    0    0  501    0  0.00000000000E+00 -0.00000000000E+00 -0.23688985449E+03  0.23688985449E+03  0.00000000000E+00 0. -1.
         23    2    1    2    0    0  0.11009657815E+03  0.94393855180E+02  0.78489009804E+02  0.18844461846E+03  0.91210707442E+02 0.  0.
        254    2    1    2    0    0 -0.11009657815E+03 -0.94393855180E+02  0.97092577250E+03  0.13347498728E+04  0.90433893584E+03 0.  0.
        -24    2    4    4    0    0 -0.34665726049E+03 -0.34966069189E+03  0.31939157173E+03  0.59186508157E+03  0.76546998538E+02 0.  0.
         24    2    4    4    0    0  0.23656068234E+03  0.25526683671E+03  0.65153420077E+03  0.74288479126E+03  0.79113108580E+02 0.  0.
         11    1    3    3    0    0 -0.14599725211E+02  0.90925731188E+01 -0.19058363380E+01  0.17304885850E+02  0.00000000000E+00 0.  1.
        -11    1    3    3    0    0  0.12469630336E+03  0.85301282061E+02  0.80394846142E+02  0.17113973261E+03  0.00000000000E+00 0. -1.
          2    1    6    6  502    0  0.92843861821E+02  0.12694547197E+03  0.36674362088E+03  0.39904388103E+03  0.00000000000E+00 0. -1.
          3    1    5    5  503    0 -0.15129865962E+03 -0.20227419561E+03  0.14374456506E+03  0.29063488193E+03  0.00000000000E+00 0. -1.
         -4    1    5    5    0  503 -0.19535860087E+03 -0.14738649628E+03  0.17564700667E+03  0.30123019963E+03  0.00000000000E+00 0.  1.
         -1    1    6    6    0  502  0.14371682052E+03  0.12832136474E+03  0.28479057989E+03  0.34384091023E+03  0.00000000000E+00 0.  1.
<mgrwt>
<rscale>  0 0.11040154E+04</rscale>
<asrwt>0</asrwt>
<pdfrwt beam="1">  1        2 0.36444594E-01 0.11040154E+04</pdfrwt>
<pdfrwt beam="2">  1       -2 0.19789302E+00 0.11040154E+04</pdfrwt>
<totfact> 0.19485243E+01</totfact>
</mgrwt>
</event>
<event>
12    1  0.1504874E-007  0.1807593E+04  0.7818608E-02  0.8702272E-01
         -2   -1    0    0    0  501 -0.00000000000E+00  0.00000000000E+00  0.36449890418E+03  0.36449890418E+03  0.00000000000E+00 0.  1.
          2   -1    0    0  501    0  0.00000000000E+00 -0.00000000000E+00 -0.22410166890E+04  0.22410166890E+04  0.00000000000E+00 0. -1.
         23    2    1    2    0    0  0.68073028023E+03 -0.99798360634E+01 -0.68787293995E+03  0.97191910357E+03  0.89242651302E+02 0.  0.
        254    2    1    2    0    0 -0.68073028023E+03  0.99798360634E+01 -0.11886448449E+04  0.16335964896E+04  0.89009415912E+03 0.  0.
        -24    2    4    4    0    0 -0.72970436945E+03  0.22061637531E+03 -0.51881753618E+03  0.92544391298E+03  0.78324634554E+02 0.  0.
         24    2    4    4    0    0  0.48974089211E+02 -0.21063653925E+03 -0.66982730869E+03  0.70815257664E+03  0.77751110942E+02 0.  0.
         13    1    3    3    0    0  0.90233218720E+02  0.28776994991E+02 -0.10200067810E+03  0.13919154979E+03  0.00000000000E+00 0. -1.
        -13    1    3    3    0    0  0.59049706151E+03 -0.38756831055E+02 -0.58587226185E+03  0.83272755378E+03  0.00000000000E+00 0.  1.
          4    1    6    6  502    0  0.45729955896E+02 -0.16801337929E+03 -0.61169478257E+03  0.63599546500E+03  0.00000000000E+00 0. -1.
          1    1    5    5  503    0 -0.63971412790E+03  0.16713396081E+03 -0.43655117325E+03  0.79230351076E+03  0.00000000000E+00 0. -1.
         -2    1    5    5    0  503 -0.89990241545E+02  0.53482414497E+02 -0.82266362935E+02  0.13314040222E+03  0.00000000000E+00 0.  1.
         -3    1    6    6    0  502  0.32441333155E+01 -0.42623159961E+02 -0.58132526121E+02  0.72157111633E+02  0.00000000000E+00 0.  1.
<mgrwt>
<rscale>  0 0.18075930E+04</rscale>
<asrwt>0</asrwt>
<pdfrwt beam="1">  1        2 0.34477179E+00 0.18075930E+04</pdfrwt>
<pdfrwt beam="2">  1       -2 0.56076757E-01 0.18075930E+04</pdfrwt>
<totfact> 0.13797426E+01</totfact>
</mgrwt>
</event>
<event>
12    1  0.1504874E-007  0.1216509E+04  0.7818608E-02  0.9098528E-01
          2   -1    0    0  501    0  0.00000000000E+00  0.00000000000E+00  0.18530796953E+04  0.18530796953E+04  0.00000000000E+00 0. -1.
         -2   -1    0    0    0  501 -0.00000000000E+00 -0.00000000000E+00 -0.19965329462E+03  0.19965329462E+03  0.00000000000E+00 0.  1.
         23    2    1    2    0    0 -0.14386957948E+03  0.13906212766E+03  0.67076519421E+03  0.70558208189E+03  0.88788497369E+02 0.  0.
        254    2    1    2    0    0  0.14386957948E+03 -0.13906212766E+03  0.98266120648E+03  0.13471509080E+04  0.89953087276E+03 0.  0.
        -24    2    4    4    0    0  0.30932260433E+03  0.18204938392E+03  0.89515902459E+03  0.96770357672E+03  0.79486359545E+02 0.  0.
         24    2    4    4    0    0 -0.16545302485E+03 -0.32111151158E+03  0.87502181892E+02  0.37944733132E+03  0.76395936462E+02 0.  0.
         13    1    3    3    0    0 -0.74413055694E+02  0.10750499087E+03  0.52528599169E+03  0.54131321708E+03  0.00000000000E+00 0. -1.
        -13    1    3    3    0    0 -0.69456523786E+02  0.31557136788E+02  0.14547920253E+03  0.16426886481E+03  0.00000000000E+00 0.  1.
          2    1    6    6  502    0 -0.12951562597E+03 -0.29816210240E+03  0.66065949666E+02  0.33172224283E+03  0.00000000000E+00 0. -1.
          3    1    5    5  503    0  0.27973123828E+03  0.13363014221E+03  0.73126359908E+03  0.79426257114E+03  0.00000000000E+00 0. -1.
         -4    1    5    5    0  503  0.29591366053E+02  0.48419241715E+02  0.16389542551E+03  0.17344100558E+03  0.00000000000E+00 0.  1.
         -1    1    6    6    0  502 -0.35937398876E+02 -0.22949409178E+02  0.21436232226E+02  0.47725088493E+02  0.00000000000E+00 0.  1.
<mgrwt>
<rscale>  0 0.12165089E+04</rscale>
<asrwt>0</asrwt>
<pdfrwt beam="1">  1        2 0.28508917E+00 0.12165089E+04</pdfrwt>
<pdfrwt beam="2">  1       -2 0.30715893E-01 0.12165089E+04</pdfrwt>
<totfact> 0.78010860E+01</totfact>
</mgrwt>
</event>
<event>
12    1  0.1504874E-007  0.1479621E+04  0.7818608E-02  0.8898119E-01
          1   -1    0    0  501    0  0.00000000000E+00  0.00000000000E+00  0.15565471817E+04  0.15565471817E+04  0.00000000000E+00 0. -1.
         -1   -1    0    0    0  501 -0.00000000000E+00 -0.00000000000E+00 -0.35162430959E+03  0.35162430959E+03  0.00000000000E+00 0.  1.
         23    2    1    2    0    0 -0.20837945442E+03 -0.16899779854E+03  0.86233192483E+03  0.90791004564E+03  0.93284776065E+02 0.  0.
        254    2    1    2    0    0  0.20837945442E+03  0.16899779854E+03  0.34259094723E+03  0.10002614456E+04  0.90065095876E+03 0.  0.
        -24    2    4    4    0    0 -0.31511032455E+03  0.13492196101E+03  0.30935668933E+03  0.46855799884E+03  0.79665455746E+02 0.  0.
         24    2    4    4    0    0  0.52348977898E+03  0.34075837538E+02  0.33234257906E+02  0.53170344678E+03  0.80008299696E+02 0.  0.
         13    1    3    3    0    0 -0.16572112249E+03 -0.17398915737E+03  0.75460123570E+03  0.79193354661E+03  0.00000000000E+00 0. -1.
        -13    1    3    3    0    0 -0.42658331931E+02  0.49913588286E+01  0.10773068913E+03  0.11597649902E+03  0.00000000000E+00 0.  1.
          4    1    6    6  502    0  0.13973056449E+03  0.20074224620E+02 -0.24804253762E+02  0.14332779267E+03  0.00000000000E+00 0. -1.
          3    1    5    5  503    0 -0.35815505341E+01  0.11274492224E+02 -0.85848449202E+00  0.11860804136E+02  0.00000000000E+00 0. -1.
         -4    1    5    5    0  503 -0.31152877402E+03  0.12364746878E+03  0.31021517382E+03  0.45669719470E+03  0.00000000000E+00 0.  1.
         -3    1    6    6    0  502  0.38375921449E+03  0.14001612918E+02  0.58038511668E+02  0.38837565411E+03  0.00000000000E+00 0.  1.
<mgrwt>
<rscale>  0 0.14796213E+04</rscale>
<asrwt>0</asrwt>
<pdfrwt beam="1">  1        1 0.23946879E+00 0.14796213E+04</pdfrwt>
<pdfrwt beam="2">  1       -1 0.54096049E-01 0.14796213E+04</pdfrwt>
<totfact> 0.19984575E+01</totfact>
</mgrwt>
</event>
<event>
12    1  0.1504874E-007  0.9918543E+03  0.7818608E-02  0.9317524E-01
          2   -1    0    0  501    0  0.00000000000E+00  0.00000000000E+00  0.11536064398E+04  0.11536064398E+04  0.00000000000E+00 0. -1.
         -2   -1    0    0    0  501 -0.00000000000E+00 -0.00000000000E+00 -0.21319552932E+03  0.21319552932E+03  0.00000000000E+00 0.  1.
         23    2    1    2    0    0  0.19692208574E+03  0.75269188414E+02  0.28267272255E+03  0.36400263397E+03  0.90278961488E+02 0.  0.
        254    2    1    2    0    0 -0.19692208574E+03 -0.75269188414E+02  0.65773818797E+03  0.10027993352E+04  0.72700978270E+03 0.  0.
        -24    2    4    4    0    0 -0.42066523699E+03 -0.17463388507E+03  0.26443071860E+03  0.53278004357E+03  0.80465734692E+02 0.  0.
         24    2    4    4    0    0  0.22374315125E+03  0.99364696659E+02  0.39330746937E+03  0.47001929160E+03  0.79328609884E+02 0.  0.
         13    1    3    3    0    0  0.12860341366E+03  0.39988110481E+01  0.18306380247E+03  0.22375697591E+03  0.00000000000E+00 0. -1.
        -13    1    3    3    0    0  0.68318672081E+02  0.71270377366E+02  0.99608920078E+02  0.14024565806E+03  0.00000000000E+00 0.  1.
          4    1    6    6  502    0  0.14886449168E+03  0.91718254658E+02  0.32161095744E+03  0.36606895944E+03  0.00000000000E+00 0. -1.
          3    1    5    5  503    0 -0.21509211418E+03 -0.10723187267E+03  0.96825966249E+02  0.25911109555E+03  0.00000000000E+00 0. -1.
         -4    1    5    5    0  503 -0.20557312281E+03 -0.67402012402E+02  0.16760475235E+03  0.27366894802E+03  0.00000000000E+00 0.  1.
         -3    1    6    6    0  502  0.74878659567E+02  0.76464420007E+01  0.71696511925E+02  0.10395033216E+03  0.00000000000E+00 0.  1.
<mgrwt>
<rscale>  0 0.99185429E+03</rscale>
<asrwt>0</asrwt>
<pdfrwt beam="1">  1        2 0.17747791E+00 0.99185429E+03</pdfrwt>
<pdfrwt beam="2">  1       -2 0.32799313E-01 0.99185429E+03</pdfrwt>
<totfact> 0.17467541E+02</totfact>
</mgrwt>
</event>
<event>
12    1  0.1504874E-007  0.2081499E+04  0.7818608E-02  0.8569437E-01
          2   -1    0    0  501    0  0.00000000000E+00  0.00000000000E+00  0.12357691374E+04  0.12357691374E+04  0.00000000000E+00 0. -1.
         -2   -1    0    0    0  501 -0.00000000000E+00 -0.00000000000E+00 -0.87650619065E+03  0.87650619065E+03  0.00000000000E+00 0.  1.
         23    2    1    2    0    0 -0.13717472091E+03 -0.53424443317E+03 -0.49956488506E+03  0.74966725390E+03  0.90564334868E+02 0.  0.
        254    2    1    2    0    0  0.13717472091E+03  0.53424443317E+03  0.85882783181E+03  0.13626080742E+04  0.90270787115E+03 0.  0.
        -24    2    4    4    0    0  0.43969206376E+03  0.56985990243E+03  0.70795691597E+03  0.10127031510E+04  0.79342660390E+02 0.  0.
         24    2    4    4    0    0 -0.30251734286E+03 -0.35615469259E+02  0.15087091583E+03  0.34990492319E+03  0.82983237172E+02 0.  0.
         11    1    3    3    0    0 -0.12015866571E+03 -0.52656768514E+03 -0.47920937735E+03  0.72204796193E+03  0.00000000000E+00 0.  1.
        -11    1    3    3    0    0 -0.17016055201E+02 -0.76767480297E+01 -0.20355507712E+02  0.27619291973E+02  0.00000000000E+00 0. -1.
          2    1    6    6  502    0 -0.21412500078E+03 -0.17869705422E+02  0.14568157428E+03  0.25959962137E+03  0.00000000000E+00 0. -1.
          3    1    5    5  503    0  0.32253233565E+03  0.39389721525E+03  0.45259810959E+03  0.68119539967E+03  0.00000000000E+00 0. -1.
         -4    1    5    5    0  503  0.11715972811E+03  0.17596268718E+03  0.25535880638E+03  0.33150775129E+03  0.00000000000E+00 0.  1.
         -3    1    6    6    0  502 -0.88392342076E+02 -0.17745763838E+02  0.51893415562E+01  0.90305301825E+02  0.00000000000E+00 0.  1.
<mgrwt>
<rscale>  0 0.20814988E+04</rscale>
<asrwt>0</asrwt>
<pdfrwt beam="1">  1        2 0.19011833E+00 0.20814988E+04</pdfrwt>
<pdfrwt beam="2">  1       -2 0.13484711E+00 0.20814988E+04</pdfrwt>
<totfact> 0.65863994E+00</totfact>
</mgrwt>
</event>
<event>
12    1  0.1504874E-007  0.2080274E+04  0.7818608E-02  0.8569983E-01
         -2   -1    0    0    0  501 -0.00000000000E+00  0.00000000000E+00  0.29756567359E+03  0.29756567359E+03  0.00000000000E+00 0.  1.
          2   -1    0    0  501    0  0.00000000000E+00 -0.00000000000E+00 -0.36357838497E+04  0.36357838497E+04  0.00000000000E+00 0. -1.
         23    2    1    2    0    0 -0.68538417694E+03 -0.36055805054E+03 -0.72380669758E+03  0.10639051423E+04  0.90798890262E+02 0.  0.
        254    2    1    2    0    0  0.68538417694E+03  0.36055805054E+03 -0.26144114785E+04  0.28694443810E+04  0.89376176854E+03 0.  0.
        -24    2    4    4    0    0  0.60428716794E+03  0.63606012309E+03 -0.20463624172E+04  0.22279534230E+04  0.80261142110E+02 0.  0.
         24    2    4    4    0    0  0.81097009004E+02 -0.27550207255E+03 -0.56804906134E+03  0.64149095805E+03  0.79704430994E+02 0.  0.
         11    1    3    3    0    0 -0.30373566406E+03 -0.15511718291E+03 -0.38056645906E+03  0.51102595220E+03  0.00000000000E+00 0.  1.
        -11    1    3    3    0    0 -0.38164851288E+03 -0.20544086762E+03 -0.34324023852E+03  0.55287919007E+03  0.00000000000E+00 0. -1.
          2    1    6    6  502    0  0.60001092026E+02 -0.22635300017E+03 -0.51697088230E+03  0.56753387993E+03  0.00000000000E+00 0. -1.
          1    1    5    5  503    0  0.48498680775E+03  0.47136760943E+03 -0.16233188653E+04  0.17585686695E+04  0.00000000000E+00 0. -1.
         -2    1    5    5    0  503  0.11930036019E+03  0.16469251366E+03 -0.42304355185E+03  0.46938475344E+03  0.00000000000E+00 0.  1.
         -1    1    6    6    0  502  0.21095916978E+02 -0.49149072378E+02 -0.51078179044E+02  0.73957078114E+02  0.00000000000E+00 0.  1.
<mgrwt>
<rscale>  0 0.20802735E+04</rscale>
<asrwt>0</asrwt>
<pdfrwt beam="1">  1        2 0.55935140E+00 0.20802735E+04</pdfrwt>
<pdfrwt beam="2">  1       -2 0.45779331E-01 0.20802735E+04</pdfrwt>
<totfact> 0.27324117E+00</totfact>
</mgrwt>
</event>
<event>
12    1  0.1504874E-007  0.1234238E+04  0.7818608E-02  0.9083405E-01
          1   -1    0    0  501    0  0.00000000000E+00  0.00000000000E+00  0.14008760684E+04  0.14008760684E+04  0.00000000000E+00 0. -1.
         -1   -1    0    0    0  501 -0.00000000000E+00 -0.00000000000E+00 -0.27185543124E+03  0.27185543124E+03  0.00000000000E+00 0.  1.
         23    2    1    2    0    0 -0.14429650657E+02 -0.13407287107E+03  0.58950813005E+03  0.61189453262E+03  0.93334527830E+02 0.  0.
        254    2    1    2    0    0  0.14429650657E+02  0.13407287107E+03  0.53951250710E+03  0.10608369670E+04  0.90339226013E+03 0.  0.
        -24    2    4    4    0    0 -0.12048405519E+03 -0.25911011388E+03  0.56334597296E+03  0.63685244704E+03  0.81042552907E+02 0.  0.
         24    2    4    4    0    0  0.13491370584E+03  0.39318298496E+03 -0.23833465859E+02  0.42398451996E+03  0.80001696168E+02 0.  0.
         11    1    3    3    0    0 -0.48167854816E+02 -0.37211545996E+02  0.19560905933E+03  0.20486030725E+03  0.00000000000E+00 0.  1.
        -11    1    3    3    0    0  0.33738204159E+02 -0.96861325078E+02  0.39389907072E+03  0.40703422538E+03  0.00000000000E+00 0. -1.
          2    1    6    6  502    0  0.52078372143E+02  0.19748126882E+03 -0.48886171144E+02  0.21000206215E+03  0.00000000000E+00 0. -1.
          3    1    5    5  503    0 -0.92630124008E+02 -0.20396438008E+03  0.50235141311E+03  0.55003522657E+03  0.00000000000E+00 0. -1.
         -4    1    5    5    0  503 -0.27853931178E+02 -0.55145733806E+02  0.60994559849E+02  0.86817220471E+02  0.00000000000E+00 0.  1.
         -1    1    6    6    0  502  0.82835333699E+02  0.19570171614E+03  0.25052705284E+02  0.21398245781E+03  0.00000000000E+00 0.  1.
<mgrwt>
<rscale>  0 0.12342379E+04</rscale>
<asrwt>0</asrwt>
<pdfrwt beam="1">  1        1 0.21551939E+00 0.12342379E+04</pdfrwt>
<pdfrwt beam="2">  1       -1 0.41823913E-01 0.12342379E+04</pdfrwt>
<totfact> 0.42487877E+01</totfact>
</mgrwt>
</event>
<event>
12    1  0.1504874E-007  0.2822682E+04  0.7818608E-02  0.8296261E-01
         -2   -1    0    0    0  501 -0.00000000000E+00  0.00000000000E+00  0.52378665644E+03  0.52378665644E+03  0.00000000000E+00 0.  1.
          2   -1    0    0  501    0  0.00000000000E+00 -0.00000000000E+00 -0.38028513654E+04  0.38028513654E+04  0.00000000000E+00 0. -1.
         23    2    1    2    0    0 -0.36180169219E+03  0.11862596000E+04 -0.10838193754E+04  0.16496236598E+04  0.92094938395E+02 0.  0.
        254    2    1    2    0    0  0.36180169219E+03 -0.11862596000E+04 -0.21952453336E+04  0.26770143620E+04  0.89955073052E+03 0.  0.
        -24    2    4    4    0    0 -0.13595690270E+03  0.65922489183E+02 -0.15625371473E+03  0.23167102660E+03  0.80163503097E+02 0.  0.
         24    2    4    4    0    0  0.49775859489E+03 -0.12521820891E+04 -0.20389916189E+04  0.24453433354E+04  0.80582895797E+02 0.  0.
         11    1    3    3    0    0 -0.73973965650E+02  0.35732707119E+03 -0.35226945794E+03  0.50719676103E+03  0.00000000000E+00 0. -1.
        -11    1    3    3    0    0 -0.28782772654E+03  0.82893252876E+03 -0.73154991742E+03  0.11424268988E+04  0.00000000000E+00 0.  1.
          4    1    6    6  502    0  0.29055188518E+03 -0.78282380291E+03 -0.12005225398E+04  0.14623569581E+04  0.00000000000E+00 0. -1.
          3    1    5    5  503    0 -0.10500763102E+02  0.95993923659E+00 -0.59526553193E+02  0.60453271575E+02  0.00000000000E+00 0. -1.
         -4    1    5    5    0  503 -0.12545613959E+03  0.64962549946E+02 -0.96727161539E+02  0.17121775503E+03  0.00000000000E+00 0.  1.
         -3    1    6    6    0  502  0.20720670971E+03 -0.46935828623E+03 -0.83846907906E+03  0.98298637729E+03  0.00000000000E+00 0.  1.
<mgrwt>
<rscale>  0 0.28226816E+04</rscale>
<asrwt>0</asrwt>
<pdfrwt beam="1">  1        2 0.58505405E+00 0.28226816E+04</pdfrwt>
<pdfrwt beam="2">  1       -2 0.80582564E-01 0.28226816E+04</pdfrwt>
<totfact> 0.57727862E-01</totfact>
</mgrwt>
</event>
<event>
12    1  0.1504874E-007  0.1250291E+04  0.7818608E-02  0.9069941E-01
          2   -1    0    0  501    0  0.00000000000E+00  0.00000000000E+00  0.17463434801E+04  0.17463434801E+04  0.00000000000E+00 0. -1.
         -2   -1    0    0    0  501 -0.00000000000E+00 -0.00000000000E+00 -0.22378580688E+03  0.22378580688E+03  0.00000000000E+00 0.  1.
         23    2    1    2    0    0 -0.37950580042E+02  0.15137074245E+03  0.99262084091E+03  0.10099953184E+04  0.10218151065E+03 0.  0.
        254    2    1    2    0    0  0.37950580042E+02 -0.15137074245E+03  0.52993683227E+03  0.96013396857E+03  0.78528392522E+03 0.  0.
        -24    2    4    4    0    0 -0.29219880097E+03 -0.27324658478E+03  0.14571170999E+03  0.43309636195E+03  0.79351880392E+02 0.  0.
         24    2    4    4    0    0  0.33014938101E+03  0.12187584234E+03  0.38422512228E+03  0.52703760662E+03  0.79292871495E+02 0.  0.
         11    1    3    3    0    0  0.41473102910E+01  0.68823872104E+02  0.69177714126E+03  0.69520467398E+03  0.00000000000E+00 0. -1.
        -11    1    3    3    0    0 -0.42097890333E+02  0.82546870343E+02  0.30084369965E+03  0.31479064439E+03  0.00000000000E+00 0.  1.
          4    1    6    6  502    0  0.63235093737E+02  0.32028906058E+02  0.37007824083E+02  0.79963159934E+02  0.00000000000E+00 0. -1.
          1    1    5    5  503    0 -0.87448968160E+02 -0.10145512258E+03  0.12665016883E+02  0.13453946106E+03  0.00000000000E+00 0. -1.
         -4    1    5    5    0  503 -0.20474983281E+03 -0.17179146220E+03  0.13304669311E+03  0.29855690089E+03  0.00000000000E+00 0.  1.
         -3    1    6    6    0  502  0.26691428728E+03  0.89846936278E+02  0.34721729820E+03  0.44707444668E+03  0.00000000000E+00 0.  1.
<mgrwt>
<rscale>  0 0.12502910E+04</rscale>
<asrwt>0</asrwt>
<pdfrwt beam="1">  1        2 0.26866822E+00 0.12502910E+04</pdfrwt>
<pdfrwt beam="2">  1       -2 0.34428587E-01 0.12502910E+04</pdfrwt>
<totfact> 0.71854499E+01</totfact>
</mgrwt>
</event>
<event>
12    1  0.1504874E-007  0.2231357E+04  0.7818608E-02  0.8505489E-01
          1   -1    0    0  501    0  0.00000000000E+00  0.00000000000E+00  0.26012590520E+04  0.26012590520E+04  0.00000000000E+00 0. -1.
         -1   -1    0    0    0  501 -0.00000000000E+00 -0.00000000000E+00 -0.47851383576E+03  0.47851383576E+03  0.00000000000E+00 0.  1.
         23    2    1    2    0    0 -0.21259088125E+03  0.25329179758E+03  0.20925557979E+04  0.21204916371E+04  0.91342204757E+02 0.  0.
        254    2    1    2    0    0  0.21259088125E+03 -0.25329179758E+03  0.30189418353E+02  0.95928125063E+03  0.89997638820E+03 0.  0.
        -24    2    4    4    0    0  0.15389182501E+03 -0.39110090773E+03  0.37897840436E+03  0.57132426869E+03  0.78384789292E+02 0.  0.
         24    2    4    4    0    0  0.58699056240E+02  0.13780911015E+03 -0.34878898600E+03  0.38795698194E+03  0.80124484627E+02 0.  0.
         11    1    3    3    0    0 -0.49496579390E+02  0.12544852248E+03  0.74798068916E+03  0.76004102160E+03  0.00000000000E+00 0.  1.
        -11    1    3    3    0    0 -0.16309430186E+03  0.12784327510E+03  0.13445751087E+04  0.13604506155E+04  0.00000000000E+00 0. -1.
          4    1    6    6  502    0  0.69796616652E+02  0.12287839798E+03 -0.33823136535E+03  0.36656667182E+03  0.00000000000E+00 0. -1.
          1    1    5    5  503    0  0.13473266749E+03 -0.34709103776E+03  0.29676480438E+03  0.47612438427E+03  0.00000000000E+00 0. -1.
         -4    1    5    5    0  503  0.19159157524E+02 -0.44009869974E+02  0.82213599976E+02  0.95199884418E+02  0.00000000000E+00 0.  1.
         -3    1    6    6    0  502 -0.11097560413E+02  0.14930712176E+02 -0.10557620656E+02  0.21390310122E+02  0.00000000000E+00 0.  1.
<mgrwt>
<rscale>  0 0.22313569E+04</rscale>
<asrwt>0</asrwt>
<pdfrwt beam="1">  1        1 0.40019369E+00 0.22313569E+04</pdfrwt>
<pdfrwt beam="2">  1       -1 0.73617515E-01 0.22313569E+04</pdfrwt>
<totfact> 0.19463040E+00</totfact>
</mgrwt>
</event>
<event>
12    1  0.1504874E-007  0.2089466E+04  0.7818608E-02  0.8565898E-01
         -2   -1    0    0    0  501 -0.00000000000E+00  0.00000000000E+00  0.15904150307E+04  0.15904150307E+04  0.00000000000E+00 0.  1.
          2   -1    0    0  501    0  0.00000000000E+00 -0.00000000000E+00 -0.68627784078E+03  0.68627784078E+03  0.00000000000E+00 0. -1.
         23    2    1    2    0    0 -0.20186769977E+02  0.84835187964E+03  0.37198614249E+03  0.93099273685E+03  0.90914072039E+02 0.  0.
        254    2    1    2    0    0  0.20186769977E+02 -0.84835187964E+03  0.53215104742E+03  0.13457001346E+04  0.89867441137E+03 0.  0.
        -24    2    4    4    0    0  0.19419075849E+03 -0.20766262945E+03 -0.19784011468E+03  0.35549114745E+03  0.79996416093E+02 0.  0.
         24    2    4    4    0    0 -0.17400398851E+03 -0.64068925019E+03  0.72999116210E+03  0.99020898716E+03  0.82865180738E+02 0.  0.
         13    1    3    3    0    0 -0.49909358986E+02  0.61585498363E+03  0.29135791664E+03  0.68312351779E+03  0.00000000000E+00 0.  1.
        -13    1    3    3    0    0  0.29722589009E+02  0.23249689601E+03  0.80628225850E+02  0.24786921906E+03  0.00000000000E+00 0. -1.
          2    1    6    6  502    0 -0.41581474320E+01 -0.13952904038E+03  0.14052722237E+03  0.19807459082E+03  0.00000000000E+00 0. -1.
          1    1    5    5  503    0  0.93060250433E+02 -0.11500897062E+03 -0.56013576777E+02  0.15819227009E+03  0.00000000000E+00 0. -1.
         -2    1    5    5    0  503  0.10113050806E+03 -0.92653658831E+02 -0.14182653790E+03  0.19729887736E+03  0.00000000000E+00 0.  1.
         -1    1    6    6    0  502 -0.16984584108E+03 -0.50116020981E+03  0.58946393973E+03  0.79213439634E+03  0.00000000000E+00 0.  1.
<mgrwt>
<rscale>  0 0.20894656E+04</rscale>
<asrwt>0</asrwt>
<pdfrwt beam="1">  1        2 0.10558121E+00 0.20894656E+04</pdfrwt>
<pdfrwt beam="2">  1       -2 0.24467923E+00 0.20894656E+04</pdfrwt>
<totfact> 0.26846589E+00</totfact>
</mgrwt>
</event>
<event>
12    1  0.1504874E-007  0.1468293E+04  0.7818608E-02  0.8905816E-01
         -1   -1    0    0    0  501 -0.00000000000E+00  0.00000000000E+00  0.84726241476E+03  0.84726241476E+03  0.00000000000E+00 0.  1.
          1   -1    0    0  501    0  0.00000000000E+00 -0.00000000000E+00 -0.63613223381E+03  0.63613223381E+03  0.00000000000E+00 0. -1.
         23    2    1    2    0    0  0.48655790500E+01 -0.40496114974E+03 -0.13950056365E+03  0.43832977180E+03  0.93034267512E+02 0.  0.
        254    2    1    2    0    0 -0.48655790500E+01  0.40496114974E+03  0.35063074459E+03  0.10450648768E+04  0.89733019059E+03 0.  0.
        -24    2    4    4    0    0  0.14730730430E+03 -0.25419334287E+03  0.10369267529E+03  0.32057812594E+03  0.75527918407E+02 0.  0.
         24    2    4    4    0    0 -0.15217288335E+03  0.65915449261E+03  0.24693806930E+03  0.72448675083E+03  0.79129074984E+02 0.  0.
         11    1    3    3    0    0  0.20204092110E+02 -0.14775122404E+03 -0.87390960624E+01  0.14938206500E+03  0.00000000000E+00 0. -1.
        -11    1    3    3    0    0 -0.15338513060E+02 -0.25720992570E+03 -0.13076146759E+03  0.28894770680E+03  0.00000000000E+00 0.  1.
          2    1    6    6  502    0 -0.11786517155E+03  0.60285305235E+03  0.23381818463E+03  0.65726322341E+03  0.00000000000E+00 0. -1.
          3    1    5    5  503    0  0.77290157400E+02 -0.18525170960E+03  0.43636346419E+02  0.20541688117E+03  0.00000000000E+00 0. -1.
         -4    1    5    5    0  503  0.70017146900E+02 -0.68941633270E+02  0.60056328875E+02  0.11516124476E+03  0.00000000000E+00 0.  1.
         -1    1    6    6    0  502 -0.34307711804E+02  0.56301440265E+02  0.13119884663E+02  0.67223527419E+02  0.00000000000E+00 0.  1.
<mgrwt>
<rscale>  0 0.14682928E+04</rscale>
<asrwt>0</asrwt>
<pdfrwt beam="1">  1        1 0.97866498E-01 0.14682928E+04</pdfrwt>
<pdfrwt beam="2">  1       -1 0.13034806E+00 0.14682928E+04</pdfrwt>
<totfact> 0.15364876E+01</totfact>
</mgrwt>
</event>
<event>
12    1  0.1504874E-007  0.1781951E+04  0.7818608E-02  0.8715957E-01
         -2   -1    0    0    0  501 -0.00000000000E+00  0.00000000000E+00  0.54053311881E+03  0.54053311881E+03  0.00000000000E+00 0.  1.
          2   -1    0    0  501    0  0.00000000000E+00 -0.00000000000E+00 -0.14686190162E+04  0.14686190162E+04  0.00000000000E+00 0. -1.
         23    2    1    2    0    0  0.59493671684E+03 -0.30512395426E+01 -0.66519358926E+03  0.89683376969E+03  0.88709030896E+02 0.  0.
        254    2    1    2    0    0 -0.59493671684E+03  0.30512395426E+01 -0.26289230813E+03  0.11123183653E+04  0.90231966233E+03 0.  0.
        -24    2    4    4    0    0 -0.14723958533E+03  0.11367638971E+03  0.31145323587E+03  0.37147592498E+03  0.79933895440E+02 0.  0.
         24    2    4    4    0    0 -0.44769713151E+03 -0.11062515017E+03 -0.57434554400E+03  0.74084244033E+03  0.79398186841E+02 0.  0.
         13    1    3    3    0    0  0.14641814369E+03  0.23666057294E+02 -0.12316523431E+03  0.19279011907E+03  0.00000000000E+00 0.  1.
        -13    1    3    3    0    0  0.44851857316E+03 -0.26717296836E+02 -0.54202835494E+03  0.70404365062E+03  0.00000000000E+00 0. -1.
          2    1    6    6  502    0 -0.13434093713E+03 -0.49205883495E+02 -0.23303401328E+03  0.27344754105E+03  0.00000000000E+00 0. -1.
          3    1    5    5  503    0 -0.94515889025E+02  0.10361413243E+03  0.26775766833E+03  0.30226364430E+03  0.00000000000E+00 0. -1.
         -4    1    5    5    0  503 -0.52723696308E+02  0.10062257276E+02  0.43695567537E+02  0.69212280675E+02  0.00000000000E+00 0.  1.
         -1    1    6    6    0  502 -0.31335619438E+03 -0.61419266670E+02 -0.34131153072E+03  0.46739489928E+03  0.00000000000E+00 0.  1.
<mgrwt>
<rscale>  0 0.17819509E+04</rscale>
<asrwt>0</asrwt>
<pdfrwt beam="1">  1        2 0.22594138E+00 0.17819509E+04</pdfrwt>
<pdfrwt beam="2">  1       -2 0.83158943E-01 0.17819509E+04</pdfrwt>
<totfact> 0.15833586E+01</totfact>
</mgrwt>
</event>
<event>
12    1  0.1504874E-007  0.1184695E+04  0.7818608E-02  0.9126359E-01
          1   -1    0    0  501    0  0.00000000000E+00  0.00000000000E+00  0.21205029111E+04  0.21205029111E+04  0.00000000000E+00 0. -1.
         -1   -1    0    0    0  501 -0.00000000000E+00 -0.00000000000E+00 -0.16546819715E+03  0.16546819715E+03  0.00000000000E+00 0.  1.
         23    2    1    2    0    0 -0.23686660253E+03  0.24580920672E+02  0.33612301455E+03  0.42196436890E+03  0.91461678644E+02 0.  0.
        254    2    1    2    0    0  0.23686660253E+03 -0.24580920672E+02  0.16189116994E+04  0.18640067394E+04  0.89271273363E+03 0.  0.
        -24    2    4    4    0    0  0.42840063493E+03 -0.13588852428E+03  0.35372121388E+03  0.57744772374E+03  0.79588827484E+02 0.  0.
         24    2    4    4    0    0 -0.19153403240E+03  0.11130760360E+03  0.12651904856E+04  0.12865590156E+04  0.73840827283E+02 0.  0.
         11    1    3    3    0    0 -0.10971582284E+03  0.24369368086E+02  0.86497838859E+02  0.14182138065E+03  0.00000000000E+00 0.  1.
        -11    1    3    3    0    0 -0.12715077969E+03  0.21155258630E+00  0.24962517569E+03  0.28014298825E+03  0.00000000000E+00 0. -1.
          4    1    6    6  502    0 -0.16458565342E+03  0.91639108655E+02  0.11821854873E+04  0.11971001169E+04  0.00000000000E+00 0. -1.
          1    1    5    5  503    0  0.31862061465E+03 -0.77603847866E+02  0.22006786912E+03  0.39493204517E+03  0.00000000000E+00 0. -1.
         -2    1    5    5    0  503  0.10978002029E+03 -0.58284676411E+02  0.13365334476E+03  0.18251567857E+03  0.00000000000E+00 0.  1.
         -3    1    6    6    0  502 -0.26948378977E+02  0.19668494949E+02  0.83004998246E+02  0.89458898702E+02  0.00000000000E+00 0.  1.
<mgrwt>
<rscale>  0 0.11846954E+04</rscale>
<asrwt>0</asrwt>
<pdfrwt beam="1">  1        1 0.32623120E+00 0.11846954E+04</pdfrwt>
<pdfrwt beam="2">  1       -1 0.25456647E-01 0.11846954E+04</pdfrwt>
<totfact> 0.33297774E+01</totfact>
</mgrwt>
</event>
<event>
12    1  0.1504874E-007  0.1606144E+04  0.7818608E-02  0.8816782E-01
          1   -1    0    0  501    0  0.00000000000E+00  0.00000000000E+00  0.11075621424E+04  0.11075621424E+04  0.00000000000E+00 0. -1.
         -1   -1    0    0    0  501 -0.00000000000E+00 -0.00000000000E+00 -0.58229230420E+03  0.58229230420E+03  0.00000000000E+00 0.  1.
         23    2    1    2    0    0 -0.22486004869E+02  0.47451610881E+03 -0.10191405322E+03  0.49458537558E+03  0.92504386674E+02 0.  0.
        254    2    1    2    0    0  0.22486004869E+02 -0.47451610881E+03  0.62718389139E+03  0.11952690710E+04  0.89979851108E+03 0.  0.
        -24    2    4    4    0    0 -0.13171074738E+02 -0.54110659845E+03 -0.11624345609E+02  0.54713968768E+03  0.79100469809E+02 0.  0.
         24    2    4    4    0    0  0.35657079606E+02  0.66590489641E+02  0.63880823700E+03  0.64812938333E+03  0.79309603640E+02 0.  0.
         13    1    3    3    0    0 -0.27716481169E+02  0.36039864830E+03 -0.37406465392E+02  0.36339322047E+03  0.00000000000E+00 0. -1.
        -13    1    3    3    0    0  0.52304763007E+01  0.11411746051E+03 -0.64507587829E+02  0.13119215511E+03  0.00000000000E+00 0.  1.
          4    1    6    6  502    0  0.13645311377E+02 -0.17577063457E+02  0.11255409213E+03  0.11473260800E+03  0.00000000000E+00 0. -1.
          1    1    5    5  503    0 -0.13859167950E+02 -0.84679513808E+02  0.24639493395E+02  0.89273743227E+02  0.00000000000E+00 0. -1.
         -2    1    5    5    0  503  0.68809321189E+00 -0.45642708464E+03 -0.36263839005E+02  0.45786594445E+03  0.00000000000E+00 0.  1.
         -3    1    6    6    0  502  0.22011768229E+02  0.84167553099E+02  0.52625414487E+03  0.53339677533E+03  0.00000000000E+00 0.  1.
<mgrwt>
<rscale>  0 0.16061443E+04</rscale>
<asrwt>0</asrwt>
<pdfrwt beam="1">  1        1 0.17039418E+00 0.16061443E+04</pdfrwt>
<pdfrwt beam="2">  1       -1 0.89583432E-01 0.16061443E+04</pdfrwt>
<totfact> 0.14648351E+01</totfact>
</mgrwt>
</event>
<event>
12    1  0.1504874E-007  0.1187736E+04  0.7818608E-02  0.9123660E-01
          1   -1    0    0  501    0  0.00000000000E+00  0.00000000000E+00  0.59727730981E+03  0.59727730981E+03  0.00000000000E+00 0. -1.
         -1   -1    0    0    0  501 -0.00000000000E+00 -0.00000000000E+00 -0.59047793528E+03  0.59047793528E+03  0.00000000000E+00 0.  1.
         23    2    1    2    0    0 -0.44557154575E+02  0.40380569665E+02 -0.24246062061E+03  0.26587638708E+03  0.91033896037E+02 0.  0.
        254    2    1    2    0    0  0.44557154575E+02 -0.40380569665E+02  0.24925999514E+03  0.92187885801E+03  0.88550220397E+03 0.  0.
        -24    2    4    4    0    0  0.14918499097E+03  0.89402945020E+02  0.54273425744E+03  0.57538612084E+03  0.79118049390E+02 0.  0.
         24    2    4    4    0    0 -0.10462783639E+03 -0.12978351469E+03 -0.29347426230E+03  0.34649273717E+03  0.78353873216E+02 0.  0.
         11    1    3    3    0    0 -0.48451335899E+02  0.41467008993E+02 -0.24962905108E+03  0.25764647858E+03  0.00000000000E+00 0.  1.
        -11    1    3    3    0    0  0.38941813239E+01 -0.10864393284E+01  0.71684304610E+01  0.82299084972E+01  0.00000000000E+00 0. -1.
          4    1    6    6  502    0 -0.10284431777E+03 -0.70628724172E+02 -0.19033560836E+03  0.22758078607E+03  0.00000000000E+00 0. -1.
          3    1    5    5  503    0  0.11659194671E+03  0.38393992611E+02  0.27925658520E+03  0.30504429364E+03  0.00000000000E+00 0. -1.
         -4    1    5    5    0  503  0.32593044263E+02  0.51008952410E+02  0.26347767225E+03  0.27034182720E+03  0.00000000000E+00 0.  1.
         -3    1    6    6    0  502 -0.17835186199E+01 -0.59154790514E+02 -0.10313865394E+03  0.11891195111E+03  0.00000000000E+00 0.  1.
<mgrwt>
<rscale>  0 0.11877358E+04</rscale>
<asrwt>0</asrwt>
<pdfrwt beam="1">  1        1 0.91888817E-01 0.11877358E+04</pdfrwt>
<pdfrwt beam="2">  1       -1 0.90842759E-01 0.11877358E+04</pdfrwt>
<totfact> 0.40431711E+01</totfact>
</mgrwt>
</event>
<event>
12    1  0.1504874E-007  0.1593616E+04  0.7818608E-02  0.8824480E-01
         -1   -1    0    0    0  501 -0.00000000000E+00  0.00000000000E+00  0.92330145333E+03  0.92330145333E+03  0.00000000000E+00 0.  1.
          1   -1    0    0  501    0  0.00000000000E+00 -0.00000000000E+00 -0.68764413573E+03  0.68764413573E+03  0.00000000000E+00 0. -1.
         23    2    1    2    0    0 -0.49142572601E+03  0.71313406040E+02  0.29112152953E+03  0.58161347914E+03  0.83292545231E+02 0.  0.
        254    2    1    2    0    0  0.49142572601E+03 -0.71313406040E+02 -0.55464211927E+02  0.10293321099E+04  0.89992414549E+03 0.  0.
        -24    2    4    4    0    0  0.68168481465E+03  0.10752854062E+02  0.17647823928E+03  0.70863072729E+03  0.78759941137E+02 0.  0.
         24    2    4    4    0    0 -0.19025908864E+03 -0.82066260102E+02 -0.23194245121E+03  0.32070138263E+03  0.78222019199E+02 0.  0.
         13    1    3    3    0    0 -0.44401462844E+02  0.20820813729E+02  0.70017624174E+01  0.49538074891E+02  0.00000000000E+00 0. -1.
        -13    1    3    3    0    0 -0.44702426317E+03  0.50492592311E+02  0.28411976711E+03  0.53207540424E+03  0.00000000000E+00 0.  1.
          2    1    6    6  502    0 -0.13298389765E+03 -0.85099861164E+02 -0.20080298734E+03  0.25543794379E+03  0.00000000000E+00 0. -1.
          1    1    5    5  503    0  0.52541381335E+03 -0.19049618973E+01  0.10271746231E+03  0.53536359719E+03  0.00000000000E+00 0. -1.
         -2    1    5    5    0  503  0.15627100130E+03  0.12657815960E+02  0.73760776976E+02  0.17326713010E+03  0.00000000000E+00 0.  1.
         -1    1    6    6    0  502 -0.57275190987E+02  0.30336010620E+01 -0.31139463870E+02  0.65263438832E+02  0.00000000000E+00 0.  1.
<mgrwt>
<rscale>  0 0.15936158E+04</rscale>
<asrwt>0</asrwt>
<pdfrwt beam="1">  1        1 0.10579141E+00 0.15936158E+04</pdfrwt>
<pdfrwt beam="2">  1       -1 0.14204638E+00 0.15936158E+04</pdfrwt>
<totfact> 0.10843877E+01</totfact>
</mgrwt>
</event>
<event>
12    1  0.1504874E-007  0.1447577E+04  0.7818608E-02  0.8920082E-01
         -2   -1    0    0    0  501 -0.00000000000E+00  0.00000000000E+00  0.13207685545E+04  0.13207685545E+04  0.00000000000E+00 0. -1.
          2   -1    0    0  501    0  0.00000000000E+00 -0.00000000000E+00 -0.39664033853E+03  0.39664033853E+03  0.00000000000E+00 0.  1.
         23    2    1    2    0    0  0.34923638350E+03  0.31862577812E+03  0.36337595034E+03  0.60373569973E+03  0.94690420910E+02 0.  0.
        254    2    1    2    0    0 -0.34923638350E+03 -0.31862577812E+03  0.56075226561E+03  0.11136731933E+04  0.83805515330E+03 0.  0.
        -24    2    4    4    0    0 -0.10228255375E+03 -0.65425957466E+02 -0.21350799078E+03  0.25866405204E+03  0.81111978030E+02 0.  0.
         24    2    4    4    0    0 -0.24695382975E+03 -0.25319982065E+03  0.77426025638E+03  0.85500914123E+03  0.80407361373E+02 0.  0.
         13    1    3    3    0    0  0.28048231339E+03  0.20034658319E+03  0.27393022677E+03  0.44028042275E+03  0.00000000000E+00 0. -1.
        -13    1    3    3    0    0  0.68754070109E+02  0.11827919493E+03  0.89445723567E+02  0.16345527699E+03  0.00000000000E+00 0.  1.
          4    1    6    6  502    0 -0.88583100781E+02 -0.91964597061E+02  0.37600906284E+03  0.39709856231E+03  0.00000000000E+00 0. -1.
          1    1    5    5  503    0 -0.87642877047E+02 -0.57821452582E+02 -0.21765192510E+03  0.24165461877E+03  0.00000000000E+00 0. -1.
         -2    1    5    5    0  503 -0.14639676700E+02 -0.76045048842E+01  0.41439343188E+01  0.17009433267E+02  0.00000000000E+00 0.  1.
         -3    1    6    6    0  502 -0.15837072897E+03 -0.16123522359E+03  0.39825119355E+03  0.45791057891E+03  0.00000000000E+00 0.  1.
<mgrwt>
<rscale>  0 0.14475774E+04</rscale>
<asrwt>0</asrwt>
<pdfrwt beam="1">  1        2 0.61021591E-01 0.14475774E+04</pdfrwt>
<pdfrwt beam="2">  1       -2 0.20319516E+00 0.14475774E+04</pdfrwt>
<totfact> 0.98600550E+00</totfact>
</mgrwt>
</event>
<event>
12    1  0.1504874E-007  0.1856860E+04  0.7818608E-02  0.8676633E-01
         -1   -1    0    0    0  501 -0.00000000000E+00  0.00000000000E+00  0.11813796373E+04  0.11813796373E+04  0.00000000000E+00 0.  1.
          1   -1    0    0  501    0  0.00000000000E+00 -0.00000000000E+00 -0.72964005536E+03  0.72964005536E+03  0.00000000000E+00 0. -1.
         23    2    1    2    0    0  0.68356989211E+02 -0.63933131221E+02 -0.54820157875E+03  0.56297907872E+03  0.87523419109E+02 0.  0.
        254    2    1    2    0    0 -0.68356989211E+02  0.63933131221E+02  0.99994116072E+03  0.13480406140E+04  0.89920578779E+03 0.  0.
        -24    2    4    4    0    0  0.18892356073E+03  0.19134033264E+03  0.10116079813E+04  0.10498175516E+04  0.80392469978E+02 0.  0.
         24    2    4    4    0    0 -0.25728054994E+03 -0.12740720142E+03 -0.11666820572E+02  0.29822306234E+03  0.79843621269E+02 0.  0.
         11    1    3    3    0    0  0.40518549142E+02 -0.54105512085E+01 -0.75503347076E+02  0.85859084020E+02  0.00000000000E+00 0.  1.
        -11    1    3    3    0    0  0.27838440068E+02 -0.58522580012E+02 -0.47269823167E+03  0.47711999470E+03  0.00000000000E+00 0. -1.
          2    1    6    6  502    0 -0.22533727241E+03 -0.89217707004E+02  0.12909369965E+02  0.24270009768E+03  0.00000000000E+00 0. -1.
          1    1    5    5  503    0 -0.76681368677E+01  0.13624563016E+02  0.54649129187E+02  0.56841502102E+02  0.00000000000E+00 0. -1.
         -2    1    5    5    0  503  0.19659169759E+03  0.17771576963E+03  0.95695885211E+03  0.99297604954E+03  0.00000000000E+00 0.  1.
         -1    1    6    6    0  502 -0.31943277524E+02 -0.38189494418E+02 -0.24576190536E+02  0.55522964656E+02  0.00000000000E+00 0.  1.
<mgrwt>
<rscale>  0 0.18568596E+04</rscale>
<asrwt>0</asrwt>
<pdfrwt beam="1">  1        1 0.11225232E+00 0.18568596E+04</pdfrwt>
<pdfrwt beam="2">  1       -1 0.18175071E+00 0.18568596E+04</pdfrwt>
<totfact> 0.48529454E+00</totfact>
</mgrwt>
</event>
<event>
12    1  0.1504874E-007  0.1425180E+04  0.7818608E-02  0.8935791E-01
         -1   -1    0    0    0  501 -0.00000000000E+00  0.00000000000E+00  0.60952107860E+03  0.60952107860E+03  0.00000000000E+00 0.  1.
          1   -1    0    0  501    0  0.00000000000E+00 -0.00000000000E+00 -0.83308768448E+03  0.83308768448E+03  0.00000000000E+00 0. -1.
         23    2    1    2    0    0 -0.17347194551E+03 -0.28858098367E+03 -0.28288801902E+03  0.44892567659E+03  0.90206051802E+02 0.  0.
        254    2    1    2    0    0  0.17347194551E+03  0.28858098367E+03  0.59321413136E+02  0.99368308650E+03  0.93301422621E+03 0.  0.
        -24    2    4    4    0    0 -0.24077314920E+03 -0.21043396855E+03 -0.42128944782E+02  0.33265750595E+03  0.81437115511E+02 0.  0.
         24    2    4    4    0    0  0.41424509471E+03  0.49901495222E+03  0.10145035792E+03  0.66102558054E+03  0.77767100908E+02 0.  0.
         13    1    3    3    0    0 -0.18340119616E+03 -0.26839281903E+03 -0.27235230107E+03  0.42408310501E+03  0.00000000000E+00 0. -1.
        -13    1    3    3    0    0  0.99292506463E+01 -0.20188164639E+02 -0.10535717953E+02  0.24842571579E+02  0.00000000000E+00 0.  1.
          2    1    6    6  502    0  0.19603273189E+03  0.18277488441E+03  0.59282088290E+02  0.27449928294E+03  0.00000000000E+00 0. -1.
          3    1    5    5  503    0 -0.20556893846E+03 -0.19650815781E+03 -0.60233941422E+02  0.29069257343E+03  0.00000000000E+00 0. -1.
         -4    1    5    5    0  503 -0.35204210739E+02 -0.13925810738E+02  0.18104996641E+02  0.41964932525E+02  0.00000000000E+00 0.  1.
         -1    1    6    6    0  502  0.21821236282E+03  0.31624006781E+03  0.42168269628E+02  0.38652629760E+03  0.00000000000E+00 0.  1.
<mgrwt>
<rscale>  0 0.14251800E+04</rscale>
<asrwt>0</asrwt>
<pdfrwt beam="1">  1        1 0.12816734E+00 0.14251800E+04</pdfrwt>
<pdfrwt beam="2">  1       -1 0.93772474E-01 0.14251800E+04</pdfrwt>
<totfact> 0.22218457E+01</totfact>
</mgrwt>
</event>
<event>
12    1  0.1504874E-007  0.1373847E+04  0.7818608E-02  0.8972970E-01
          2   -1    0    0  501    0  0.00000000000E+00  0.00000000000E+00  0.12518225643E+04  0.12518225643E+04  0.00000000000E+00 0. -1.
         -2   -1    0    0    0  501 -0.00000000000E+00 -0.00000000000E+00 -0.37694173807E+03  0.37694173807E+03  0.00000000000E+00 0.  1.
         23    2    1    2    0    0 -0.25904285723E+03 -0.38515548877E+02  0.57451431993E+03  0.63881397248E+03  0.97107869109E+02 0.  0.
        254    2    1    2    0    0  0.25904285723E+03  0.38515548877E+02  0.30036650634E+03  0.98995032993E+03  0.90619808442E+03 0.  0.
        -24    2    4    4    0    0 -0.33398625795E+03  0.84256051415E+01  0.89355308365E+02  0.35504110260E+03  0.80324355465E+02 0.  0.
         24    2    4    4    0    0  0.59302911519E+03  0.30089943735E+02  0.21101119797E+03  0.63490922733E+03  0.77427805741E+02 0.  0.
         13    1    3    3    0    0 -0.62137755621E+02 -0.60270119805E+01  0.58509169305E+02  0.85561372358E+02  0.00000000000E+00 0.  1.
        -13    1    3    3    0    0 -0.19690510161E+03 -0.32488536897E+02  0.51600515063E+03  0.55325260012E+03  0.00000000000E+00 0. -1.
          2    1    6    6  502    0  0.71483990980E+02  0.25567437757E+02  0.41315576856E+02  0.86432816284E+02  0.00000000000E+00 0. -1.
          1    1    5    5  503    0 -0.88381360086E+01 -0.15038530590E+02  0.70787746380E+01  0.18824959516E+02  0.00000000000E+00 0. -1.
         -2    1    5    5    0  503 -0.32514812195E+03  0.23464135732E+02  0.82276533727E+02  0.33621614309E+03  0.00000000000E+00 0.  1.
         -1    1    6    6    0  502  0.52154512421E+03  0.45225059783E+01  0.16969562112E+03  0.54847641104E+03  0.00000000000E+00 0.  1.
<mgrwt>
<rscale>  0 0.13738474E+04</rscale>
<asrwt>0</asrwt>
<pdfrwt beam="1">  1        2 0.19258808E+00 0.13738474E+04</pdfrwt>
<pdfrwt beam="2">  1       -2 0.57991037E-01 0.13738474E+04</pdfrwt>
<totfact> 0.47876433E+01</totfact>
</mgrwt>
</event>
<event>
12    1  0.1504874E-007  0.1927397E+04  0.7818608E-02  0.8641338E-01
          2   -1    0    0  501    0  0.00000000000E+00  0.00000000000E+00  0.93659194752E+03  0.93659194752E+03  0.00000000000E+00 0. -1.
         -2   -1    0    0    0  501 -0.00000000000E+00 -0.00000000000E+00 -0.99158970126E+03  0.99158970126E+03  0.00000000000E+00 0.  1.
         23    2    1    2    0    0 -0.60131632931E+03 -0.27140348619E+03 -0.37964304702E+03  0.76617089463E+03  0.87451794801E+02 0.  0.
        254    2    1    2    0    0  0.60131632931E+03  0.27140348619E+03  0.32464529329E+03  0.11620107541E+04  0.89979622476E+03 0.  0.
        -24    2    4    4    0    0 -0.35029887678E+02  0.11340043492E+02 -0.24898765578E+03  0.26272995194E+03  0.75342453475E+02 0.  0.
         24    2    4    4    0    0  0.63634621698E+03  0.26006344270E+03  0.57363294907E+03  0.89928080221E+03  0.84152830411E+02 0.  0.
         11    1    3    3    0    0 -0.28281873632E+03 -0.10240917529E+03 -0.21544969056E+03  0.36999006197E+03  0.00000000000E+00 0. -1.
        -11    1    3    3    0    0 -0.31849759299E+03 -0.16899431090E+03 -0.16419335646E+03  0.39618083266E+03  0.00000000000E+00 0.  1.
          4    1    6    6  502    0  0.44557160788E+03  0.17128634552E+03  0.34789597560E+03  0.59068153835E+03  0.00000000000E+00 0. -1.
          1    1    5    5  503    0  0.52859649200E+01  0.62288298481E+01 -0.19492767277E+03  0.19509878871E+03  0.00000000000E+00 0. -1.
         -2    1    5    5    0  503 -0.40315852598E+02  0.51112136441E+01 -0.54059983016E+02  0.67631163226E+02  0.00000000000E+00 0.  1.
         -3    1    6    6    0  502  0.19077460910E+03  0.88777097179E+02  0.22573697347E+03  0.30859926386E+03  0.00000000000E+00 0.  1.
<mgrwt>
<rscale>  0 0.19273971E+04</rscale>
<asrwt>0</asrwt>
<pdfrwt beam="1">  1        2 0.14409107E+00 0.19273971E+04</pdfrwt>
<pdfrwt beam="2">  1       -2 0.15255226E+00 0.19273971E+04</pdfrwt>
<totfact> 0.74166809E+00</totfact>
</mgrwt>
</event>
<event>
12    1  0.1504874E-007  0.1799852E+04  0.7818608E-02  0.8706378E-01
          3   -1    0    0  501    0  0.00000000000E+00  0.00000000000E+00  0.63297126349E+03  0.63297126349E+03  0.00000000000E+00 0. -1.
         -3   -1    0    0    0  501 -0.00000000000E+00 -0.00000000000E+00 -0.12794683173E+04  0.12794683173E+04  0.00000000000E+00 0.  1.
         23    2    1    2    0    0 -0.53380062484E+03 -0.14341169883E+03 -0.64448828124E+03  0.85401346215E+03  0.91999056679E+02 0.  0.
        254    2    1    2    0    0  0.53380062484E+03  0.14341169883E+03 -0.20087726106E+01  0.10584261187E+04  0.90263602360E+03 0.  0.
        -24    2    4    4    0    0  0.65790439987E+03 -0.16294701209E+03  0.12760671798E+03  0.69441156983E+03  0.80833320667E+02 0.  0.
         24    2    4    4    0    0 -0.12410377503E+03  0.30635871092E+03 -0.12961549059E+03  0.36401454885E+03  0.80305726059E+02 0.  0.
         13    1    3    3    0    0 -0.48387174678E+03 -0.13344311079E+03 -0.53688398716E+03  0.73497166395E+03  0.00000000000E+00 0.  1.
        -13    1    3    3    0    0 -0.49928878061E+02 -0.99685880389E+01 -0.10760429408E+03  0.11904179819E+03  0.00000000000E+00 0. -1.
          2    1    6    6  502    0 -0.38580256544E+02  0.16005470950E+03 -0.29731946043E+02  0.16730192719E+03  0.00000000000E+00 0. -1.
          1    1    5    5  503    0  0.17709960968E+03 -0.79439067829E+02  0.24560896462E+02  0.19564783383E+03  0.00000000000E+00 0. -1.
         -2    1    5    5    0  503  0.48080479019E+03 -0.83507944263E+02  0.10304582151E+03  0.49876373601E+03  0.00000000000E+00 0.  1.
         -1    1    6    6    0  502 -0.85523518482E+02  0.14630400142E+03 -0.99883544545E+02  0.19671262165E+03  0.00000000000E+00 0.  1.
<mgrwt>
<rscale>  0 0.17998519E+04</rscale>
<asrwt>0</asrwt>
<pdfrwt beam="1">  1        3 0.97380196E-01 0.17998519E+04</pdfrwt>
<pdfrwt beam="2">  1       -3 0.19684128E+00 0.17998519E+04</pdfrwt>
<totfact> 0.35247617E-01</totfact>
</mgrwt>
</event>
<event>
12    1  0.1504874E-007  0.2361659E+04  0.7818608E-02  0.8453999E-01
         -2   -1    0    0    0  501 -0.00000000000E+00  0.00000000000E+00  0.12863432959E+04  0.12863432959E+04  0.00000000000E+00 0.  1.
          2   -1    0    0  501    0  0.00000000000E+00 -0.00000000000E+00 -0.10839706134E+04  0.10839706134E+04  0.00000000000E+00 0. -1.
         23    2    1    2    0    0  0.88126978950E+03  0.36698032320E+03 -0.21794613124E+03  0.98350273386E+03  0.92011476885E+02 0.  0.
        254    2    1    2    0    0 -0.88126978950E+03 -0.36698032320E+03  0.42031881381E+03  0.13868111755E+04  0.91392906269E+03 0.  0.
        -24    2    4    4    0    0 -0.83769718543E+03 -0.32549065132E+03  0.66538103670E+03  0.11210809030E+04  0.80060779771E+02 0.  0.
         24    2    4    4    0    0 -0.43572604075E+02 -0.41489671885E+02 -0.24506222289E+03  0.26573027248E+03  0.83289374624E+02 0.  0.
         13    1    3    3    0    0  0.59157479387E+02  0.44711905576E+01 -0.25825490550E+02  0.64703592440E+02  0.00000000000E+00 0. -1.
        -13    1    3    3    0    0  0.82211231011E+03  0.36250913265E+03 -0.19212064069E+03  0.91879914142E+03  0.00000000000E+00 0.  1.
          2    1    6    6  502    0 -0.28883587828E+02 -0.87754189185E+00 -0.20433609546E+03  0.20636926039E+03  0.00000000000E+00 0. -1.
          1    1    5    5  503    0 -0.51875586024E+03 -0.17187588373E+03  0.43785402050E+03  0.70026074088E+03  0.00000000000E+00 0. -1.
         -2    1    5    5    0  503 -0.31894132518E+03 -0.15361476759E+03  0.22752701620E+03  0.42082016210E+03  0.00000000000E+00 0.  1.
         -1    1    6    6    0  502 -0.14689016247E+02 -0.40612129994E+02 -0.40726127428E+02  0.59361012089E+02  0.00000000000E+00 0.  1.
<mgrwt>
<rscale>  0 0.23616590E+04</rscale>
<asrwt>0</asrwt>
<pdfrwt beam="1">  1        2 0.16676471E+00 0.23616590E+04</pdfrwt>
<pdfrwt beam="2">  1       -2 0.19789897E+00 0.23616590E+04</pdfrwt>
<totfact> 0.27604878E+00</totfact>
</mgrwt>
</event>
<event>
12    1  0.1504874E-007  0.2285764E+04  0.7818608E-02  0.8483555E-01
          2   -1    0    0  501    0  0.00000000000E+00  0.00000000000E+00  0.14186902367E+04  0.14186902367E+04  0.00000000000E+00 0. -1.
         -2   -1    0    0    0  501 -0.00000000000E+00 -0.00000000000E+00 -0.92069416407E+03  0.92069416407E+03  0.00000000000E+00 0.  1.
         23    2    1    2    0    0 -0.50251007838E+03  0.63671784912E+03 -0.32166152879E+03  0.87749570959E+03  0.92771671298E+02 0.  0.
        254    2    1    2    0    0  0.50251007838E+03 -0.63671784912E+03  0.81965760137E+03  0.14618886911E+04  0.89852877724E+03 0.  0.
        -24    2    4    4    0    0  0.50221555760E+03 -0.84303764031E+03  0.68893004419E+03  0.12018234232E+04  0.82595432852E+02 0.  0.
         24    2    4    4    0    0  0.29452078450E+00  0.20631979119E+03  0.13072755718E+03  0.26006526793E+03  0.89310169609E+02 0.  0.
         13    1    3    3    0    0 -0.13930450026E+03  0.19814271514E+03 -0.53403635457E+02  0.24802868309E+03  0.00000000000E+00 0.  1.
        -13    1    3    3    0    0 -0.36320557812E+03  0.43857513398E+03 -0.26825789333E+03  0.62946702651E+03  0.00000000000E+00 0. -1.
          2    1    6    6  502    0 -0.13949022309E+02  0.49309760329E+01  0.32153439945E+02  0.35393974746E+02  0.00000000000E+00 0. -1.
          1    1    5    5  503    0  0.22189261120E+03 -0.45172151246E+03  0.34269096240E+03  0.60887252478E+03  0.00000000000E+00 0. -1.
         -2    1    5    5    0  503  0.28032294640E+03 -0.39131612785E+03  0.34623908180E+03  0.59295089844E+03  0.00000000000E+00 0.  1.
         -1    1    6    6    0  502  0.14243543093E+02  0.20138881516E+03  0.98574117234E+02  0.22467129318E+03  0.00000000000E+00 0.  1.
<mgrwt>
<rscale>  0 0.22857645E+04</rscale>
<asrwt>0</asrwt>
<pdfrwt beam="1">  1        2 0.21826003E+00 0.22857645E+04</pdfrwt>
<pdfrwt beam="2">  1       -2 0.14164526E+00 0.22857645E+04</pdfrwt>
<totfact> 0.44654234E+00</totfact>
</mgrwt>
</event>
<event>
12    1  0.1504874E-007  0.1975898E+04  0.7818608E-02  0.8617973E-01
          2   -1    0    0  501    0  0.00000000000E+00  0.00000000000E+00  0.35893206629E+04  0.35893206629E+04  0.00000000000E+00 0. -1.
         -2   -1    0    0    0  501 -0.00000000000E+00 -0.00000000000E+00 -0.27192970213E+03  0.27192970213E+03  0.00000000000E+00 0.  1.
         23    2    1    2    0    0 -0.71799141688E+03  0.12863033128E+03  0.18161872153E+04  0.19592830173E+04  0.90534546511E+02 0.  0.
        254    2    1    2    0    0  0.71799141688E+03 -0.12863033128E+03  0.15012037454E+04  0.19019673477E+04  0.91203600231E+03 0.  0.
        -24    2    4    4    0    0  0.37622258313E+03 -0.50433139784E+03  0.65336091571E+03  0.91051697445E+03  0.79164914442E+02 0.  0.
         24    2    4    4    0    0  0.34176883375E+03  0.37570106656E+03  0.84784282973E+03  0.99145037324E+03  0.78607579412E+02 0.  0.
         11    1    3    3    0    0 -0.17986948426E+03  0.11699468541E+01  0.38414568164E+03  0.42417249424E+03  0.00000000000E+00 0.  1.
        -11    1    3    3    0    0 -0.53812193261E+03  0.12746038442E+03  0.14320415337E+04  0.15351105231E+04  0.00000000000E+00 0. -1.
          4    1    6    6  502    0  0.31701542946E+01  0.99851647431E+01  0.47261228895E+02  0.48408440895E+02  0.00000000000E+00 0. -1.
          1    1    5    5  503    0  0.15221036414E+03 -0.15518679848E+03  0.25925806925E+03  0.33832777575E+03  0.00000000000E+00 0. -1.
         -2    1    5    5    0  503  0.22401221900E+03 -0.34914459935E+03  0.39410284646E+03  0.57218919870E+03  0.00000000000E+00 0.  1.
         -3    1    6    6    0  502  0.33859867945E+03  0.36571590181E+03  0.80058160084E+03  0.94304193235E+03  0.00000000000E+00 0.  1.
<mgrwt>
<rscale>  0 0.19758977E+04</rscale>
<asrwt>0</asrwt>
<pdfrwt beam="1">  1        2 0.55220314E+00 0.19758977E+04</pdfrwt>
<pdfrwt beam="2">  1       -2 0.41835341E-01 0.19758977E+04</pdfrwt>
<totfact> 0.35654543E+00</totfact>
</mgrwt>
</event>
<event>
12    1  0.1504874E-007  0.1465331E+04  0.7818608E-02  0.8907841E-01
          3   -1    0    0  501    0  0.00000000000E+00  0.00000000000E+00  0.12740685899E+04  0.12740685899E+04  0.00000000000E+00 0. -1.
         -3   -1    0    0    0  501 -0.00000000000E+00 -0.00000000000E+00 -0.42132618964E+03  0.42132618964E+03  0.00000000000E+00 0.  1.
         23    2    1    2    0    0 -0.61082500663E+02  0.33813424508E+03  0.54612491208E+03  0.65164443817E+03  0.91226172877E+02 0.  0.
        254    2    1    2    0    0  0.61082500663E+02 -0.33813424508E+03  0.30661748817E+03  0.10437503414E+04  0.93666143909E+03 0.  0.
        -24    2    4    4    0    0 -0.20975235984E+03 -0.39813286453E+03 -0.16905815524E+03  0.48727640982E+03  0.79698239874E+02 0.  0.
         24    2    4    4    0    0  0.27083486051E+03  0.59998619451E+02  0.47567564341E+03  0.55647393155E+03  0.80278034123E+02 0.  0.
         11    1    3    3    0    0 -0.41721006025E+02  0.60632707138E+02  0.79057820538E+02  0.10801438102E+03  0.00000000000E+00 0.  1.
        -11    1    3    3    0    0 -0.19361494638E+02  0.27750153794E+03  0.46706709154E+03  0.54363005715E+03  0.00000000000E+00 0. -1.
          4    1    6    6  502    0  0.18137606891E+03  0.73344958613E+02  0.35895448614E+03  0.40880934975E+03  0.00000000000E+00 0. -1.
          1    1    5    5  503    0 -0.16539795118E+03 -0.36504197990E+03 -0.15833697239E+03  0.43090918552E+03  0.00000000000E+00 0. -1.
         -2    1    5    5    0  503 -0.44354408662E+02 -0.33090884628E+02 -0.10721182848E+02  0.56367224296E+02  0.00000000000E+00 0.  1.
         -3    1    6    6    0  502  0.89458791598E+02 -0.13346339162E+02  0.11672115727E+03  0.14766458180E+03  0.00000000000E+00 0.  1.
<mgrwt>
<rscale>  0 0.14653306E+04</rscale>
<asrwt>0</asrwt>
<pdfrwt beam="1">  1        3 0.19601055E+00 0.14653306E+04</pdfrwt>
<pdfrwt beam="2">  1       -3 0.64819414E-01 0.14653306E+04</pdfrwt>
<totfact> 0.91309329E-01</totfact>
</mgrwt>
</event>
<event>
12    1  0.1504874E-007  0.1353551E+04  0.7818608E-02  0.8988145E-01
         -2   -1    0    0    0  501 -0.00000000000E+00  0.00000000000E+00  0.63297865523E+03  0.63297865523E+03  0.00000000000E+00 0.  1.
          2   -1    0    0  501    0  0.00000000000E+00 -0.00000000000E+00 -0.72360243170E+03  0.72360243170E+03  0.00000000000E+00 0. -1.
         23    2    1    2    0    0  0.31879738878E+03 -0.18497879266E+03 -0.61897275095E+02  0.38490144862E+03  0.92026755095E+02 0.  0.
        254    2    1    2    0    0 -0.31879738878E+03  0.18497879266E+03 -0.28726501370E+02  0.97167963831E+03  0.89860290384E+03 0.  0.
        -24    2    4    4    0    0  0.49756531360E+02 -0.19489051688E+03 -0.30103110422E+03  0.37135210107E+03  0.82611326563E+02 0.  0.
         24    2    4    4    0    0 -0.36855392014E+03  0.37986930954E+03  0.27230460286E+03  0.60032753724E+03  0.78170779996E+02 0.  0.
         13    1    3    3    0    0  0.12785601634E+03 -0.51837752098E+02 -0.64066001543E+02  0.15211431889E+03  0.00000000000E+00 0. -1.
        -13    1    3    3    0    0  0.19094137244E+03 -0.13314104057E+03  0.21687264481E+01  0.23278712973E+03  0.00000000000E+00 0.  1.
          2    1    6    6  502    0 -0.98538615574E+02  0.14828358994E+03  0.11040798674E+03  0.20949416541E+03  0.00000000000E+00 0. -1.
          1    1    5    5  503    0  0.11064263815E+01 -0.43550221593E+02 -0.18835977525E+02  0.47461985098E+02  0.00000000000E+00 0. -1.
         -2    1    5    5    0  503  0.48650104979E+02 -0.15134029529E+03 -0.28219512670E+03  0.32389011597E+03  0.00000000000E+00 0.  1.
         -1    1    6    6    0  502 -0.27001530457E+03  0.23158571961E+03  0.16189661611E+03  0.39083337183E+03  0.00000000000E+00 0.  1.
<mgrwt>
<rscale>  0 0.13535507E+04</rscale>
<asrwt>0</asrwt>
<pdfrwt beam="1">  1        2 0.11132345E+00 0.13535507E+04</pdfrwt>
<pdfrwt beam="2">  1       -2 0.97381332E-01 0.13535507E+04</pdfrwt>
<totfact> 0.33738343E+01</totfact>
</mgrwt>
</event>
<event>
12    1  0.1504874E-007  0.2146279E+04  0.7818608E-02  0.8541126E-01
          2   -1    0    0  501    0  0.00000000000E+00  0.00000000000E+00  0.76612033985E+03  0.76612033985E+03  0.00000000000E+00 0. -1.
         -2   -1    0    0    0  501 -0.00000000000E+00 -0.00000000000E+00 -0.15031958508E+04  0.15031958508E+04  0.00000000000E+00 0.  1.
         23    2    1    2    0    0  0.24343745407E+03 -0.73070460340E+03 -0.75698874494E+03  0.10837481761E+04  0.91033717272E+02 0.  0.
        254    2    1    2    0    0 -0.24343745407E+03  0.73070460340E+03  0.19913234008E+02  0.11855680146E+04  0.90110153080E+03 0.  0.
        -24    2    4    4    0    0  0.13365469420E+03 -0.11734107403E+03 -0.14053718157E+03  0.24040386026E+03  0.80067544532E+02 0.  0.
         24    2    4    4    0    0 -0.37709214827E+03  0.84804567743E+03  0.16045041558E+03  0.94516415431E+03  0.78809792811E+02 0.  0.
         11    1    3    3    0    0  0.14655086203E+01 -0.46406219903E+02 -0.24254092919E+02  0.52382687832E+02  0.00000000000E+00 0. -1.
        -11    1    3    3    0    0  0.24197194545E+03 -0.68429838350E+03 -0.73273465202E+03  0.10313654882E+04  0.00000000000E+00 0.  1.
          4    1    6    6  502    0 -0.32043747179E+03  0.66296024190E+03  0.10479738409E+03  0.74376000658E+03  0.00000000000E+00 0. -1.
          1    1    5    5  503    0  0.13693860078E+03 -0.10107081304E+03 -0.10194656827E+03  0.19839504130E+03  0.00000000000E+00 0. -1.
         -2    1    5    5    0  503 -0.32839065784E+01 -0.16270260989E+02 -0.38590613301E+02  0.42008818955E+02  0.00000000000E+00 0.  1.
         -3    1    6    6    0  502 -0.56654676483E+02  0.18508543552E+03  0.55653031490E+02  0.20140414773E+03  0.00000000000E+00 0.  1.
<mgrwt>
<rscale>  0 0.21462795E+04</rscale>
<asrwt>0</asrwt>
<pdfrwt beam="1">  1        2 0.11786467E+00 0.21462795E+04</pdfrwt>
<pdfrwt beam="2">  1       -2 0.23126090E+00 0.21462795E+04</pdfrwt>
<totfact> 0.28103896E+00</totfact>
</mgrwt>
</event>
<event>
12    1  0.1504874E-007  0.3253315E+04  0.7818608E-02  0.8174877E-01
          2   -1    0    0  501    0  0.00000000000E+00  0.00000000000E+00  0.18923596590E+04  0.18923596590E+04  0.00000000000E+00 0. -1.
         -2   -1    0    0    0  501 -0.00000000000E+00 -0.00000000000E+00 -0.13982620123E+04  0.13982620123E+04  0.00000000000E+00 0.  1.
         23    2    1    2    0    0 -0.13651954135E+04 -0.58457845486E+03  0.47368971128E+02  0.14886200253E+04  0.90858535503E+02 0.  0.
        254    2    1    2    0    0  0.13651954135E+04  0.58457845486E+03  0.44672867556E+03  0.18020016460E+04  0.91768891014E+03 0.  0.
        -24    2    4    4    0    0 -0.11787592250E+03 -0.13766354236E+02  0.49779138451E+02  0.15232336621E+03  0.81487420217E+02 0.  0.
         24    2    4    4    0    0  0.14830713360E+04  0.59834480910E+03  0.39694953711E+03  0.16496782798E+04  0.79701905136E+02 0.  0.
         11    1    3    3    0    0 -0.10645362548E+03 -0.56511676224E+02  0.26678864068E+02  0.12344110221E+03  0.00000000000E+00 0. -1.
        -11    1    3    3    0    0 -0.12587417880E+04 -0.52806677864E+03  0.20690107060E+02  0.13651789231E+04  0.00000000000E+00 0.  1.
          2    1    6    6  502    0  0.29289967250E+03  0.14933138276E+03  0.96177972559E+02  0.34254967878E+03  0.00000000000E+00 0. -1.
          3    1    5    5  503    0 -0.54779836917E+02 -0.43970598839E+02  0.42237851422E+02  0.81965115675E+02  0.00000000000E+00 0. -1.
         -4    1    5    5    0  503 -0.63096085581E+02  0.30204244603E+02  0.75412870298E+01  0.70358250531E+02  0.00000000000E+00 0.  1.
         -1    1    6    6    0  502  0.11901716635E+04  0.44901342634E+03  0.30077156455E+03  0.13071286010E+04  0.00000000000E+00 0.  1.
<mgrwt>
<rscale>  0 0.32533150E+04</rscale>
<asrwt>0</asrwt>
<pdfrwt beam="1">  1        2 0.29113226E+00 0.32533150E+04</pdfrwt>
<pdfrwt beam="2">  1       -2 0.21511723E+00 0.32533150E+04</pdfrwt>
<totfact> 0.68257939E-01</totfact>
</mgrwt>
</event>
<event>
12    1  0.1504874E-007  0.2095423E+04  0.7818608E-02  0.8563262E-01
          1   -1    0    0  501    0  0.00000000000E+00  0.00000000000E+00  0.19350339126E+04  0.19350339126E+04  0.00000000000E+00 0. -1.
         -1   -1    0    0    0  501 -0.00000000000E+00 -0.00000000000E+00 -0.56727635536E+03  0.56727635536E+03  0.00000000000E+00 0.  1.
         23    2    1    2    0    0 -0.42361950057E+03 -0.12645323112E+03  0.14233690144E+04  0.14932841687E+04  0.92056267661E+02 0.  0.
        254    2    1    2    0    0  0.42361950057E+03  0.12645323112E+03 -0.55611457163E+02  0.10090260993E+04  0.90531604088E+03 0.  0.
        -24    2    4    4    0    0 -0.21819509187E+03  0.43784194962E+02 -0.23456689572E+03  0.33289950040E+03  0.79210447255E+02 0.  0.
         24    2    4    4    0    0  0.64181459244E+03  0.82669036155E+02  0.17895543856E+03  0.67612659885E+03  0.79762071637E+02 0.  0.
         13    1    3    3    0    0 -0.51296068073E+02 -0.32268183651E+02  0.11887020242E+03  0.13342656145E+03  0.00000000000E+00 0.  1.
        -13    1    3    3    0    0 -0.37232343250E+03 -0.94185047466E+02  0.13044988120E+04  0.13598576073E+04  0.00000000000E+00 0. -1.
          2    1    6    6  502    0  0.41659394184E+03  0.40546727432E+02  0.78102676757E+02  0.42578700967E+03  0.00000000000E+00 0. -1.
          3    1    5    5  503    0 -0.43924468628E+02  0.94197515908E+01 -0.90430657813E+01  0.45824313449E+02  0.00000000000E+00 0. -1.
         -4    1    5    5    0  503 -0.17427062325E+03  0.34364443371E+02 -0.22552382994E+03  0.28707518695E+03  0.00000000000E+00 0.  1.
         -1    1    6    6    0  502  0.22522065060E+03  0.42122308724E+02  0.10085276180E+03  0.25033958918E+03  0.00000000000E+00 0.  1.
<mgrwt>
<rscale>  0 0.20954226E+04</rscale>
<asrwt>0</asrwt>
<pdfrwt beam="1">  1        1 0.29769752E+00 0.20954226E+04</pdfrwt>
<pdfrwt beam="2">  1       -1 0.87273286E-01 0.20954226E+04</pdfrwt>
<totfact> 0.39219313E+00</totfact>
</mgrwt>
</event>
<event>
12    1  0.1504874E-007  0.2006067E+04  0.7818608E-02  0.8603789E-01
          2   -1    0    0  501    0  0.00000000000E+00  0.00000000000E+00  0.25990542663E+04  0.25990542663E+04  0.00000000000E+00 0. -1.
         -2   -1    0    0    0  501 -0.00000000000E+00 -0.00000000000E+00 -0.38709314585E+03  0.38709314585E+03  0.00000000000E+00 0.  1.
         23    2    1    2    0    0  0.41844797061E+03  0.17702754284E+03  0.18607387892E+04  0.19175620112E+04  0.90872273429E+02 0.  0.
        254    2    1    2    0    0 -0.41844797061E+03 -0.17702754284E+03  0.35122233124E+03  0.10685854010E+04  0.90115491351E+03 0.  0.
        -24    2    4    4    0    0  0.45459269349E+02  0.31237011585E+03  0.16045883022E+03  0.36307570863E+03  0.80220318892E+02 0.  0.
         24    2    4    4    0    0 -0.46390723996E+03 -0.48939765869E+03  0.19076350102E+03  0.70550969232E+03  0.81444564102E+02 0.  0.
         11    1    3    3    0    0  0.37349582538E+03  0.13013719160E+03  0.16647376553E+04  0.17110775205E+04  0.00000000000E+00 0. -1.
        -11    1    3    3    0    0  0.44952145232E+02  0.46890351243E+02  0.19600113389E+03  0.20648449066E+03  0.00000000000E+00 0.  1.
          2    1    6    6  502    0 -0.33832417673E+03 -0.30482925192E+03  0.14181805130E+03  0.47696591185E+03  0.00000000000E+00 0. -1.
          1    1    5    5  503    0  0.64610395388E+02  0.21691003071E+03  0.13026711357E+03  0.26113978152E+03  0.00000000000E+00 0. -1.
         -2    1    5    5    0  503 -0.19151126038E+02  0.95460085137E+02  0.30191716648E+02  0.10193592712E+03  0.00000000000E+00 0.  1.
         -1    1    6    6    0  502 -0.12558306323E+03 -0.18456840677E+03  0.48945449722E+02  0.22854378048E+03  0.00000000000E+00 0.  1.
<mgrwt>
<rscale>  0 0.20060669E+04</rscale>
<asrwt>0</asrwt>
<pdfrwt beam="1">  1        2 0.39985449E+00 0.20060669E+04</pdfrwt>
<pdfrwt beam="2">  1       -2 0.59552793E-01 0.20060669E+04</pdfrwt>
<totfact> 0.74513072E+00</totfact>
</mgrwt>
</event>
<event>
12    1  0.1504874E-007  0.1691760E+04  0.7818608E-02  0.8766078E-01
         -2   -1    0    0    0  501 -0.00000000000E+00  0.00000000000E+00  0.34349134392E+03  0.34349134392E+03  0.00000000000E+00 0. -1.
          2   -1    0    0  501    0  0.00000000000E+00 -0.00000000000E+00 -0.20830592216E+04  0.20830592216E+04  0.00000000000E+00 0.  1.
         23    2    1    2    0    0  0.33938958480E+03 -0.23478680911E+03  0.44029831231E+01  0.42230860145E+03  0.89526714394E+02 0.  0.
        254    2    1    2    0    0 -0.33938958480E+03  0.23478680911E+03 -0.17439708608E+04  0.20042419641E+04  0.89735241195E+03 0.  0.
        -24    2    4    4    0    0  0.30027848064E+03  0.79392652807E+02 -0.48071653419E+03  0.57749763102E+03  0.77102323785E+02 0.  0.
         24    2    4    4    0    0 -0.63966806544E+03  0.15539415630E+03 -0.12632543266E+04  0.14267443331E+04  0.80407216445E+02 0.  0.
         11    1    3    3    0    0  0.44868687540E+02 -0.45182193998E+02 -0.29922039695E+02  0.70355939590E+02  0.00000000000E+00 0.  1.
        -11    1    3    3    0    0  0.29452089726E+03 -0.18960461511E+03  0.34325022818E+02  0.35195266186E+03  0.00000000000E+00 0. -1.
          2    1    6    6  502    0 -0.75740510077E+02  0.30122950028E+02 -0.21367694603E+03  0.22869598652E+03  0.00000000000E+00 0. -1.
          1    1    5    5  503    0  0.46126971705E+02 -0.66521620467E+01 -0.39470528619E+02  0.61072673169E+02  0.00000000000E+00 0. -1.
         -2    1    5    5    0  503  0.25415150893E+03  0.86044814854E+02 -0.44124600558E+03  0.51642495785E+03  0.00000000000E+00 0.  1.
         -1    1    6    6    0  502 -0.56392755536E+03  0.12527120628E+03 -0.10495773806E+04  0.11980483466E+04  0.00000000000E+00 0.  1.
<mgrwt>
<rscale>  0 0.16917598E+04</rscale>
<asrwt>0</asrwt>
<pdfrwt beam="1">  1        2 0.32047065E+00 0.16917598E+04</pdfrwt>
<pdfrwt beam="2">  1       -2 0.52844823E-01 0.16917598E+04</pdfrwt>
<totfact> 0.19318682E+01</totfact>
</mgrwt>
</event>
<event>
12    1  0.1504874E-007  0.1128268E+04  0.7818608E-02  0.9178069E-01
         -2   -1    0    0    0  501 -0.00000000000E+00  0.00000000000E+00  0.17644081828E+03  0.17644081828E+03  0.00000000000E+00 0.  1.
          2   -1    0    0  501    0  0.00000000000E+00 -0.00000000000E+00 -0.18037062143E+04  0.18037062143E+04  0.00000000000E+00 0. -1.
         23    2    1    2    0    0 -0.67109927516E+02 -0.11409009623E+03 -0.98375454255E+02  0.18856806993E+03  0.91432459055E+02 0.  0.
        254    2    1    2    0    0  0.67109927516E+02  0.11409009623E+03 -0.15288899417E+04  0.17915789626E+04  0.92451632378E+03 0.  0.
        -24    2    4    4    0    0  0.29163585257E+03  0.41568453706E+03 -0.11093193348E+04  0.12226062366E+04  0.79570839650E+02 0.  0.
         24    2    4    4    0    0 -0.22452592505E+03 -0.30159444083E+03 -0.41957060696E+03  0.56897272597E+03  0.79494470980E+02 0.  0.
         11    1    3    3    0    0  0.17947788056E+02 -0.32753893050E+01 -0.97621152711E+00  0.18270310894E+02  0.00000000000E+00 0. -1.
        -11    1    3    3    0    0 -0.85057715572E+02 -0.11081470692E+03 -0.97399242728E+02  0.17029775904E+03  0.00000000000E+00 0.  1.
          2    1    6    6  502    0 -0.76771108873E+02 -0.76130950393E+02 -0.75457294924E+02  0.13184660831E+03  0.00000000000E+00 0. -1.
          1    1    5    5  503    0  0.70162151812E+02  0.84360166832E+02 -0.32174391985E+03  0.33993898754E+03  0.00000000000E+00 0. -1.
         -2    1    5    5    0  503  0.22147370076E+03  0.33132437023E+03 -0.78757541493E+03  0.88266724910E+03  0.00000000000E+00 0.  1.
         -1    1    6    6    0  502 -0.14775481618E+03 -0.22546349044E+03 -0.34411331203E+03  0.43712611766E+03  0.00000000000E+00 0.  1.
<mgrwt>
<rscale>  0 0.11282684E+04</rscale>
<asrwt>0</asrwt>
<pdfrwt beam="1">  1        2 0.27749325E+00 0.11282684E+04</pdfrwt>
<pdfrwt beam="2">  1       -2 0.27144742E-01 0.11282684E+04</pdfrwt>
<totfact> 0.10511777E+02</totfact>
</mgrwt>
</event>
<event>
12    1  0.1504874E-007  0.1156231E+04  0.7818608E-02  0.9152055E-01
          2   -1    0    0  501    0  0.00000000000E+00  0.00000000000E+00  0.48843696275E+03  0.48843696275E+03  0.00000000000E+00 0. -1.
         -2   -1    0    0    0  501 -0.00000000000E+00 -0.00000000000E+00 -0.68425888320E+03  0.68425888320E+03  0.00000000000E+00 0.  1.
         23    2    1    2    0    0 -0.12083716658E+03 -0.93659160944E+02 -0.16401242995E+03  0.24247239301E+03  0.92299105849E+02 0.  0.
        254    2    1    2    0    0  0.12083716658E+03  0.93659160944E+02 -0.31809490507E+02  0.93022345294E+03  0.91702244763E+03 0.  0.
        -24    2    4    4    0    0  0.13929296307E+03 -0.33123446174E+03  0.22069114286E+03  0.42945005338E+03  0.81264811658E+02 0.  0.
         24    2    4    4    0    0 -0.18455796487E+02  0.42489362268E+03 -0.25250063336E+03  0.50077339956E+03  0.78372321874E+02 0.  0.
         11    1    3    3    0    0 -0.79287800146E+02 -0.59113935846E+01 -0.91984016600E+02  0.12158354797E+03  0.00000000000E+00 0.  1.
        -11    1    3    3    0    0 -0.41549366435E+02 -0.87747767359E+02 -0.72028413348E+02  0.12088884505E+03  0.00000000000E+00 0. -1.
          2    1    6    6  502    0 -0.34980305111E+02  0.95927182630E+02 -0.74292311949E+02  0.12627348783E+03  0.00000000000E+00 0. -1.
          3    1    5    5  503    0  0.10366510495E+03 -0.16704559398E+03  0.88159431516E+02  0.21545943891E+03  0.00000000000E+00 0. -1.
         -4    1    5    5    0  503  0.35627858114E+02 -0.16418886776E+03  0.13253171134E+03  0.21399061447E+03  0.00000000000E+00 0.  1.
         -1    1    6    6    0  502  0.16524508624E+02  0.32896644005E+03 -0.17820832141E+03  0.37449991173E+03  0.00000000000E+00 0.  1.
<mgrwt>
<rscale>  0 0.11562307E+04</rscale>
<asrwt>0</asrwt>
<pdfrwt beam="1">  1        2 0.75144148E-01 0.11562307E+04</pdfrwt>
<pdfrwt beam="2">  1       -2 0.10527060E+00 0.11562307E+04</pdfrwt>
<totfact> 0.45746501E+01</totfact>
</mgrwt>
</event>
<event>
12    1  0.1504874E-007  0.4048435E+04  0.7818608E-02  0.7994846E-01
          1   -1    0    0  501    0  0.00000000000E+00  0.00000000000E+00  0.38409535906E+04  0.38409535906E+04  0.00000000000E+00 0. -1.
         -1   -1    0    0    0  501 -0.00000000000E+00 -0.00000000000E+00 -0.10667808898E+04  0.10667808898E+04  0.00000000000E+00 0.  1.
         23    2    1    2    0    0  0.32242235437E+03  0.14951521827E+04  0.27325472070E+04  0.31329821496E+04  0.96574773261E+02 0.  0.
        254    2    1    2    0    0 -0.32242235437E+03 -0.14951521827E+04  0.41625493814E+02  0.17747523308E+04  0.89920905789E+03 0.  0.
        -24    2    4    4    0    0  0.12249075062E+03 -0.82578963723E+03 -0.31051140595E+03  0.89362746972E+03  0.72251037774E+02 0.  0.
         24    2    4    4    0    0 -0.44491310499E+03 -0.66936254549E+03  0.35213689977E+03  0.88112486106E+03  0.79917058977E+02 0.  0.
         13    1    3    3    0    0  0.15043287988E+03  0.77071756497E+03  0.13089730646E+04  0.15264488528E+04  0.00000000000E+00 0.  1.
        -13    1    3    3    0    0  0.17198947449E+03  0.72443461775E+03  0.14235741424E+04  0.16065332967E+04  0.00000000000E+00 0. -1.
          4    1    6    6  502    0 -0.12153200472E+03 -0.20822715806E+03  0.69230733783E+02  0.25084152771E+03  0.00000000000E+00 0. -1.
          3    1    5    5  503    0  0.29187339754E+02 -0.10853995833E+03 -0.19942074609E+02  0.11415125796E+03  0.00000000000E+00 0. -1.
         -4    1    5    5    0  503  0.93303410869E+02 -0.71724967891E+03 -0.29056933134E+03  0.77947621175E+03  0.00000000000E+00 0.  1.
         -3    1    6    6    0  502 -0.32338110028E+03 -0.46113538743E+03  0.28290616598E+03  0.63028333335E+03  0.00000000000E+00 0.  1.
<mgrwt>
<rscale>  0 0.40484347E+04</rscale>
<asrwt>0</asrwt>
<pdfrwt beam="1">  1        1 0.59091593E+00 0.40484347E+04</pdfrwt>
<pdfrwt beam="2">  1       -1 0.16412014E+00 0.40484347E+04</pdfrwt>
<totfact> 0.27845095E-02</totfact>
</mgrwt>
</event>
<event>
12    1  0.1504874E-007  0.1639575E+04  0.7818608E-02  0.8796598E-01
          2   -1    0    0  501    0  0.00000000000E+00  0.00000000000E+00  0.64077451624E+03  0.64077451624E+03  0.00000000000E+00 0. -1.
         -2   -1    0    0    0  501 -0.00000000000E+00 -0.00000000000E+00 -0.10488112247E+04  0.10488112247E+04  0.00000000000E+00 0.  1.
         23    2    1    2    0    0  0.41431557110E+03  0.23328236569E+03  0.17328688203E+03  0.51415728113E+03  0.90836730793E+02 0.  0.
        254    2    1    2    0    0 -0.41431557110E+03 -0.23328236569E+03 -0.58132359052E+03  0.11754284598E+04  0.90422170550E+03 0.  0.
        -24    2    4    4    0    0 -0.33419030373E+03 -0.12261726843E+03 -0.81523146886E+03  0.89329600334E+03  0.81591961265E+02 0.  0.
         24    2    4    4    0    0 -0.80125267372E+02 -0.11066509726E+03  0.23390787834E+03  0.28213245649E+03  0.78860669767E+02 0.  0.
         11    1    3    3    0    0  0.33002406105E+03  0.22294567532E+03  0.13081183152E+03  0.41920447311E+03  0.00000000000E+00 0. -1.
        -11    1    3    3    0    0  0.84291510049E+02  0.10336690370E+02  0.42475050516E+02  0.94952808018E+02  0.00000000000E+00 0.  1.
          4    1    6    6  502    0 -0.58157078400E+02 -0.90468573767E+02  0.10679999971E+03  0.15156862652E+03  0.00000000000E+00 0. -1.
          3    1    5    5  503    0 -0.23590592709E+03 -0.88175640515E+02 -0.65949531464E+03  0.70594661275E+03  0.00000000000E+00 0. -1.
         -4    1    5    5    0  503 -0.98284376642E+02 -0.34441627912E+02 -0.15573615421E+03  0.18734939059E+03  0.00000000000E+00 0.  1.
         -3    1    6    6    0  502 -0.21968188972E+02 -0.20196523492E+02  0.12710787863E+03  0.13056382997E+03  0.00000000000E+00 0.  1.
<mgrwt>
<rscale>  0 0.16395750E+04</rscale>
<asrwt>0</asrwt>
<pdfrwt beam="1">  1        2 0.98580695E-01 0.16395750E+04</pdfrwt>
<pdfrwt beam="2">  1       -2 0.16135557E+00 0.16395750E+04</pdfrwt>
<totfact> 0.10761605E+01</totfact>
</mgrwt>
</event>
<event>
12    1  0.1504874E-007  0.1622337E+04  0.7818608E-02  0.8806942E-01
         -2   -1    0    0    0  501 -0.00000000000E+00  0.00000000000E+00  0.32811444470E+03  0.32811444470E+03  0.00000000000E+00 0.  1.
          2   -1    0    0  501    0  0.00000000000E+00 -0.00000000000E+00 -0.20053803188E+04  0.20053803188E+04  0.00000000000E+00 0. -1.
         23    2    1    2    0    0 -0.36346064817E+03 -0.22057388312E+03 -0.10814955771E+04  0.11659481000E+04  0.95109452238E+02 0.  0.
        254    2    1    2    0    0  0.36346064817E+03  0.22057388312E+03 -0.59577029694E+03  0.11675466634E+04  0.90965184765E+03 0.  0.
        -24    2    4    4    0    0 -0.27624470086E+03 -0.58640927296E+02 -0.10939133546E+03  0.31319317405E+03  0.79834872646E+02 0.  0.
         24    2    4    4    0    0  0.63970534902E+03  0.27921481042E+03 -0.48637896148E+03  0.85435348940E+03  0.78559192679E+02 0.  0.
         11    1    3    3    0    0 -0.31086314808E+03 -0.17603424485E+03 -0.80006458874E+03  0.87620048982E+03  0.00000000000E+00 0. -1.
        -11    1    3    3    0    0 -0.52597500083E+02 -0.44539638266E+02 -0.28143098840E+03  0.28974761021E+03  0.00000000000E+00 0.  1.
          2    1    6    6  502    0  0.75400077360E+02  0.24589047100E+02 -0.28260374940E+02  0.84192883873E+02  0.00000000000E+00 0. -1.
          3    1    5    5  503    0 -0.20858472838E+03 -0.81484196125E+01 -0.71424606869E+02  0.22062515750E+03  0.00000000000E+00 0. -1.
         -4    1    5    5    0  503 -0.67659972481E+02 -0.50492507683E+02 -0.37966728593E+02  0.92568016552E+02  0.00000000000E+00 0.  1.
         -1    1    6    6    0  502  0.56430527166E+03  0.25462576332E+03 -0.45811858654E+03  0.77016060553E+03  0.00000000000E+00 0.  1.
<mgrwt>
<rscale>  0 0.16223369E+04</rscale>
<asrwt>0</asrwt>
<pdfrwt beam="1">  1        2 0.30852004E+00 0.16223369E+04</pdfrwt>
<pdfrwt beam="2">  1       -2 0.50479146E-01 0.16223369E+04</pdfrwt>
<totfact> 0.23577915E+01</totfact>
</mgrwt>
</event>
<event>
12    1  0.1504874E-007  0.1578282E+04  0.7818608E-02  0.8834002E-01
          2   -1    0    0  501    0  0.00000000000E+00  0.00000000000E+00  0.90130677032E+03  0.90130677032E+03  0.00000000000E+00 0.  1.
         -2   -1    0    0    0  501 -0.00000000000E+00 -0.00000000000E+00 -0.69093405057E+03  0.69093405057E+03  0.00000000000E+00 0. -1.
         23    2    1    2    0    0  0.30754502597E+02  0.26522587537E+03  0.50509295578E+03  0.57865628055E+03  0.91834593993E+02 0.  0.
        254    2    1    2    0    0 -0.30754502597E+02 -0.26522587537E+03 -0.29472023603E+03  0.10135845403E+04  0.93231056976E+03 0.  0.
        -24    2    4    4    0    0  0.39196314360E+03  0.53324929501E+02 -0.14154128046E+01  0.40328855590E+03  0.78492049780E+02 0.  0.
         24    2    4    4    0    0 -0.42271764620E+03 -0.31855080488E+03 -0.29330482322E+03  0.61029598444E+03  0.79174778811E+02 0.  0.
         13    1    3    3    0    0 -0.26638258130E+02  0.13122838148E+03  0.20230916534E+03  0.24260973452E+03  0.00000000000E+00 0. -1.
        -13    1    3    3    0    0  0.57392760728E+02  0.13399749390E+03  0.30278379043E+03  0.33604654604E+03  0.00000000000E+00 0.  1.
          4    1    6    6  502    0 -0.35879334359E+03 -0.23787225948E+03 -0.21645486242E+03  0.48183875176E+03  0.00000000000E+00 0. -1.
          1    1    5    5  503    0  0.23058403090E+02 -0.15763960638E+02  0.12635082404E+01  0.27960487498E+02  0.00000000000E+00 0. -1.
         -2    1    5    5    0  503  0.36890474051E+03  0.69088890140E+02 -0.26789210451E+01  0.37532806840E+03  0.00000000000E+00 0.  1.
         -3    1    6    6    0  502 -0.63924302609E+02 -0.80678545391E+02 -0.76849960807E+02  0.12845723267E+03  0.00000000000E+00 0.  1.
<mgrwt>
<rscale>  0 0.15782820E+04</rscale>
<asrwt>0</asrwt>
<pdfrwt beam="1">  1        2 0.13866258E+00 0.15782820E+04</pdfrwt>
<pdfrwt beam="2">  1       -2 0.10629755E+00 0.15782820E+04</pdfrwt>
<totfact> 0.20062182E+01</totfact>
</mgrwt>
</event>
<event>
12    1  0.1504874E-007  0.1584243E+04  0.7818608E-02  0.8830287E-01
         -2   -1    0    0    0  501 -0.00000000000E+00  0.00000000000E+00  0.46796387664E+03  0.46796387664E+03  0.00000000000E+00 0.  1.
          2   -1    0    0  501    0  0.00000000000E+00 -0.00000000000E+00 -0.13408216121E+04  0.13408216121E+04  0.00000000000E+00 0. -1.
         23    2    1    2    0    0 -0.35631363909E+03 -0.35524575220E+02  0.16772684929E+03  0.40449205273E+03  0.85206337242E+02 0.  0.
        254    2    1    2    0    0  0.35631363909E+03  0.35524575220E+02 -0.10405845848E+04  0.14042934361E+04  0.87235449883E+03 0.  0.
        -24    2    4    4    0    0 -0.49454533137E+01 -0.37179031343E+03 -0.54879954823E+03  0.66665617277E+03  0.70689559945E+02 0.  0.
         24    2    4    4    0    0  0.36125909240E+03  0.40731488865E+03 -0.49178503656E+03  0.73763726330E+03  0.76437292331E+02 0.  0.
         11    1    3    3    0    0 -0.13903112098E+03 -0.33030549887E+01  0.11016301326E+03  0.17741604286E+03  0.00000000000E+00 0. -1.
        -11    1    3    3    0    0 -0.21728251811E+03 -0.32221520231E+02  0.57563836026E+02  0.22707600987E+03  0.00000000000E+00 0.  1.
          4    1    6    6  502    0  0.29564202704E+02  0.27647766217E+02 -0.67512495417E+02  0.78717076266E+02  0.00000000000E+00 0. -1.
          3    1    5    5  503    0  0.13293314836E+02 -0.15403839226E+03 -0.17364045825E+03  0.23249848871E+03  0.00000000000E+00 0. -1.
         -4    1    5    5    0  503 -0.18238768149E+02 -0.21775192117E+03 -0.37515908998E+03  0.43415768406E+03  0.00000000000E+00 0.  1.
         -3    1    6    6    0  502  0.33169488970E+03  0.37966712243E+03 -0.42427254114E+03  0.65892018703E+03  0.00000000000E+00 0.  1.
<mgrwt>
<rscale>  0 0.15842425E+04</rscale>
<asrwt>0</asrwt>
<pdfrwt beam="1">  1        2 0.20628025E+00 0.15842425E+04</pdfrwt>
<pdfrwt beam="2">  1       -2 0.71994442E-01 0.15842425E+04</pdfrwt>
<totfact> 0.26265757E+01</totfact>
</mgrwt>
</event>
<event>
12    1  0.1504874E-007  0.4029005E+04  0.7818608E-02  0.7998721E-01
         -2   -1    0    0    0  501 -0.00000000000E+00  0.00000000000E+00  0.34796545325E+04  0.34796545325E+04  0.00000000000E+00 0.  1.
          2   -1    0    0  501    0  0.00000000000E+00 -0.00000000000E+00 -0.11662707640E+04  0.11662707640E+04  0.00000000000E+00 0. -1.
         23    2    1    2    0    0  0.25606822797E+03  0.97467268555E+03 -0.77541037558E+03  0.12748368324E+04  0.91596492137E+02 0.  0.
        254    2    1    2    0    0 -0.25606822797E+03 -0.97467268555E+03  0.30887941441E+04  0.33710884640E+04  0.89890510440E+03 0.  0.
        -24    2    4    4    0    0  0.56329422437E+02 -0.94363894103E+03  0.27170407841E+04  0.28778734467E+04  0.78851114635E+02 0.  0.
         24    2    4    4    0    0 -0.31239765040E+03 -0.31033744521E+02  0.37175336000E+03  0.49321501732E+03  0.80654245769E+02 0.  0.
         11    1    3    3    0    0  0.33276364823E+02  0.82193602046E+02 -0.40686718685E+02  0.97562870758E+02  0.00000000000E+00 0.  1.
        -11    1    3    3    0    0  0.22279186314E+03  0.89247908350E+03 -0.73472365689E+03  0.11772739616E+04  0.00000000000E+00 0. -1.
          4    1    6    6  502    0 -0.14344532360E+02 -0.10045639716E+02  0.17013640254E+01  0.17594747099E+02  0.00000000000E+00 0. -1.
          1    1    5    5  503    0  0.10164713969E+02 -0.14217643092E+02  0.64989335200E+02  0.67298413614E+02  0.00000000000E+00 0. -1.
         -2    1    5    5    0  503  0.46164708468E+02 -0.92942129794E+03  0.26520514489E+04  0.28105750331E+04  0.00000000000E+00 0.  1.
         -3    1    6    6    0  502 -0.29805311804E+03 -0.20988104805E+02  0.37005199597E+03  0.47562027022E+03  0.00000000000E+00 0.  1.
<mgrwt>
<rscale>  0 0.40290045E+04</rscale>
<asrwt>0</asrwt>
<pdfrwt beam="1">  1        2 0.17942627E+00 0.40290045E+04</pdfrwt>
<pdfrwt beam="2">  1       -2 0.53533146E+00 0.40290045E+04</pdfrwt>
<totfact> 0.15989582E-02</totfact>
</mgrwt>
</event>
<event>
12    1  0.1504874E-007  0.1726676E+04  0.7818608E-02  0.8746295E-01
          2   -1    0    0  501    0  0.00000000000E+00  0.00000000000E+00  0.16064216142E+04  0.16064216142E+04  0.00000000000E+00 0. -1.
         -2   -1    0    0    0  501 -0.00000000000E+00 -0.00000000000E+00 -0.46398298050E+03  0.46398298050E+03  0.00000000000E+00 0.  1.
         23    2    1    2    0    0 -0.13988963723E+03 -0.58767680598E+02 -0.30767949856E+03  0.35658849205E+03  0.97293000462E+02 0.  0.
        254    2    1    2    0    0  0.13988963723E+03  0.58767680598E+02  0.14501181322E+04  0.17138161026E+04  0.90072209103E+03 0.  0.
        -24    2    4    4    0    0 -0.71697084925E+02  0.44936712084E+03  0.71545341271E+03  0.85189680612E+03  0.82360799128E+02 0.  0.
         24    2    4    4    0    0  0.21158672216E+03 -0.39059944024E+03  0.73466471951E+03  0.86191929648E+03  0.76392145231E+02 0.  0.
         13    1    3    3    0    0 -0.14289274249E+03 -0.23708638538E+02 -0.25419182640E+03  0.29256438608E+03  0.00000000000E+00 0.  1.
        -13    1    3    3    0    0  0.30031052529E+01 -0.35059042060E+02 -0.53487672164E+02  0.64024105967E+02  0.00000000000E+00 0. -1.
          4    1    6    6  502    0  0.10011398179E+03 -0.26246007320E+03  0.45820423841E+03  0.53745625261E+03  0.00000000000E+00 0. -1.
          3    1    5    5  503    0 -0.18426940001E+01  0.74102282021E+02  0.69614490747E+02  0.10168933594E+03  0.00000000000E+00 0. -1.
         -4    1    5    5    0  503 -0.69854390925E+02  0.37526483882E+03  0.64583892197E+03  0.75020747018E+03  0.00000000000E+00 0.  1.
         -3    1    6    6    0  502  0.11147274037E+03 -0.12813936704E+03  0.27646048109E+03  0.32446304387E+03  0.00000000000E+00 0.  1.
<mgrwt>
<rscale>  0 0.17266758E+04</rscale>
<asrwt>0</asrwt>
<pdfrwt beam="1">  1        2 0.24714178E+00 0.17266758E+04</pdfrwt>
<pdfrwt beam="2">  1       -2 0.71381998E-01 0.17266758E+04</pdfrwt>
<totfact> 0.18702343E+01</totfact>
</mgrwt>
</event>
<event>
12    1  0.1504874E-007  0.2069781E+04  0.7818608E-02  0.8574673E-01
         -1   -1    0    0    0  501 -0.00000000000E+00  0.00000000000E+00  0.99321439286E+03  0.99321439286E+03  0.00000000000E+00 0.  1.
          1   -1    0    0  501    0  0.00000000000E+00 -0.00000000000E+00 -0.10783151178E+04  0.10783151178E+04  0.00000000000E+00 0. -1.
         23    2    1    2    0    0 -0.46036153763E+03 -0.59647975402E+03  0.32267212485E+03  0.82445628005E+03  0.88825757973E+02 0.  0.
        254    2    1    2    0    0  0.46036153763E+03  0.59647975402E+03 -0.40777284981E+03  0.12470732306E+04  0.90619650364E+03 0.  0.
        -24    2    4    4    0    0 -0.66875069139E+02  0.26154157424E+03  0.22163679726E+03  0.35760054434E+03  0.76674699125E+02 0.  0.
         24    2    4    4    0    0  0.52723660677E+03  0.33493817977E+03 -0.62940964707E+03  0.88947268628E+03  0.69592614685E+02 0.  0.
         13    1    3    3    0    0 -0.44765707904E+03 -0.58465731717E+03  0.29817862317E+03  0.79443787060E+03  0.00000000000E+00 0. -1.
        -13    1    3    3    0    0 -0.12704458592E+02 -0.11822436850E+02  0.24493501687E+02  0.30018409453E+02  0.00000000000E+00 0.  1.
          4    1    6    6  502    0  0.30703133431E+03  0.20814476885E+03 -0.41867171479E+03  0.55935542352E+03  0.00000000000E+00 0. -1.
          3    1    5    5  503    0 -0.69381506059E+02  0.19271275021E+03  0.19773991411E+03  0.28469821058E+03  0.00000000000E+00 0. -1.
         -4    1    5    5    0  503  0.25064369203E+01  0.68828824029E+02  0.23896883149E+02  0.72902333759E+02  0.00000000000E+00 0.  1.
         -3    1    6    6    0  502  0.22020527246E+03  0.12679341093E+03 -0.21073793228E+03  0.33011726276E+03  0.00000000000E+00 0.  1.
<mgrwt>
<rscale>  0 0.20697808E+04</rscale>
<asrwt>0</asrwt>
<pdfrwt beam="1">  1        1 0.16589463E+00 0.20697808E+04</pdfrwt>
<pdfrwt beam="2">  1       -1 0.15280221E+00 0.20697808E+04</pdfrwt>
<totfact> 0.40290429E+00</totfact>
</mgrwt>
</event>
<event>
12    1  0.1504874E-007  0.4485413E+04  0.7818608E-02  0.7913195E-01
          2   -1    0    0  501    0  0.00000000000E+00  0.00000000000E+00  0.31309881848E+04  0.31309881848E+04  0.00000000000E+00 0. -1.
         -2   -1    0    0    0  501 -0.00000000000E+00 -0.00000000000E+00 -0.16064363544E+04  0.16064363544E+04  0.00000000000E+00 0.  1.
         23    2    1    2    0    0 -0.13272160389E+04 -0.14054929340E+04 -0.25866005858E+03  0.19527448626E+04  0.96926111260E+02 0.  0.
        254    2    1    2    0    0  0.13272160389E+04  0.14054929340E+04  0.17832118890E+04  0.27846796766E+04  0.91525048955E+03 0.  0.
        -24    2    4    4    0    0  0.50118569838E+03  0.86289605414E+03  0.39001138368E+03  0.10745605481E+04  0.82430501378E+02 0.  0.
         24    2    4    4    0    0  0.82603034054E+03  0.54259687984E+03  0.13932005054E+04  0.17101191285E+04  0.82233132798E+02 0.  0.
         13    1    3    3    0    0 -0.50325751029E+03 -0.46896072384E+03 -0.76899539224E+02  0.69217470432E+03  0.00000000000E+00 0. -1.
        -13    1    3    3    0    0 -0.82395852863E+03 -0.93653221014E+03 -0.18176051935E+03  0.12605701583E+04  0.00000000000E+00 0.  1.
          4    1    6    6  502    0  0.76814445650E+03  0.52396400547E+03  0.12871822945E+04  0.15878987513E+04  0.00000000000E+00 0. -1.
          3    1    5    5  503    0  0.24752577454E+03  0.37160835774E+03  0.14161838804E+03  0.46842026903E+03  0.00000000000E+00 0. -1.
         -4    1    5    5    0  503  0.25365992384E+03  0.49128769640E+03  0.24839299564E+03  0.60614027904E+03  0.00000000000E+00 0.  1.
         -3    1    6    6    0  502  0.57885884041E+02  0.18632874373E+02  0.10601821089E+03  0.12222037727E+03  0.00000000000E+00 0.  1.
<mgrwt>
<rscale>  0 0.44854134E+04</rscale>
<asrwt>0</asrwt>
<pdfrwt beam="1">  1        2 0.48169049E+00 0.44854134E+04</pdfrwt>
<pdfrwt beam="2">  1       -2 0.24714406E+00 0.44854134E+04</pdfrwt>
<totfact> 0.72915242E-02</totfact>
</mgrwt>
</event>
<event>
12    1  0.1504874E-007  0.2285788E+04  0.7818608E-02  0.8483546E-01
         -2   -1    0    0    0  501 -0.00000000000E+00  0.00000000000E+00  0.63503702424E+03  0.63503702424E+03  0.00000000000E+00 0.  1.
          2   -1    0    0  501    0  0.00000000000E+00 -0.00000000000E+00 -0.20568987913E+04  0.20568987913E+04  0.00000000000E+00 0. -1.
         23    2    1    2    0    0 -0.41927282933E+03 -0.64047558940E+03  0.89287382052E+02  0.77660765172E+03  0.95647906838E+02 0.  0.
        254    2    1    2    0    0  0.41927282933E+03  0.64047558940E+03 -0.15111491491E+04  0.19153281638E+04  0.89381851526E+03 0.  0.
        -24    2    4    4    0    0  0.59574186052E+03  0.51970026524E+03 -0.65777492501E+03  0.10317156815E+04  0.82296205567E+02 0.  0.
         24    2    4    4    0    0 -0.17646903120E+03  0.12077532416E+03 -0.85337422409E+03  0.88361248228E+03  0.82434547460E+02 0.  0.
         13    1    3    3    0    0 -0.13606127162E+03 -0.20258481478E+03 -0.16117061915E+02  0.24456703887E+03  0.00000000000E+00 0. -1.
        -13    1    3    3    0    0 -0.28321155771E+03 -0.43789077462E+03  0.10540444397E+03  0.53204061285E+03  0.00000000000E+00 0.  1.
          4    1    6    6  502    0 -0.77982888793E+02  0.11194810407E+02 -0.23206513183E+03  0.24507321383E+03  0.00000000000E+00 0. -1.
          3    1    5    5  503    0  0.56863084875E+03  0.46797047396E+03 -0.60952358775E+03  0.95595837288E+03  0.00000000000E+00 0. -1.
         -2    1    5    5    0  503  0.27111011770E+02  0.51729791284E+02 -0.48251337259E+02  0.75757308643E+02  0.00000000000E+00 0.  1.
         -3    1    6    6    0  502 -0.98486142403E+02  0.10958051375E+03 -0.62130909225E+03  0.63853926845E+03  0.00000000000E+00 0.  1.
<mgrwt>
<rscale>  0 0.22857882E+04</rscale>
<asrwt>0</asrwt>
<pdfrwt beam="1">  1        2 0.31644596E+00 0.22857882E+04</pdfrwt>
<pdfrwt beam="2">  1       -2 0.97698006E-01 0.22857882E+04</pdfrwt>
<totfact> 0.49193654E+00</totfact>
</mgrwt>
</event>
<event>
12    1  0.1504874E-007  0.1367280E+04  0.7818608E-02  0.8977849E-01
         -2   -1    0    0    0  501 -0.00000000000E+00  0.00000000000E+00  0.14086366615E+03  0.14086366615E+03  0.00000000000E+00 0.  1.
          2   -1    0    0  501    0  0.00000000000E+00 -0.00000000000E+00 -0.33178448212E+04  0.33178448212E+04  0.00000000000E+00 0. -1.
         23    2    1    2    0    0 -0.16860427703E+03  0.46480226722E+02 -0.17461627964E+04  0.17575272051E+04  0.96070553937E+02 0.  0.
        254    2    1    2    0    0  0.16860427703E+03 -0.46480226722E+02 -0.14308183586E+04  0.17011812823E+04  0.90343166095E+03 0.  0.
        -24    2    4    4    0    0  0.52742349599E+03 -0.98443062097E+02 -0.94446024480E+03  0.10887351448E+04  0.73976218715E+02 0.  0.
         24    2    4    4    0    0 -0.35881921896E+03  0.51962835375E+02 -0.48635811382E+03  0.61244613745E+03  0.84229972307E+02 0.  0.
         13    1    3    3    0    0 -0.10771327666E+03  0.99364745051E+01 -0.13989888328E+04  0.14031645085E+04  0.00000000000E+00 0. -1.
        -13    1    3    3    0    0 -0.60891000363E+02  0.36543752217E+02 -0.34717396360E+03  0.35436269662E+03  0.00000000000E+00 0.  1.
          4    1    6    6  502    0 -0.80085828464E+01 -0.82256727470E+01 -0.24620411315E+01  0.11741411239E+02  0.00000000000E+00 0. -1.
          3    1    5    5  503    0  0.23538814590E+03 -0.72827235183E+02 -0.47880692429E+03  0.53848626368E+03  0.00000000000E+00 0. -1.
         -4    1    5    5    0  503  0.29203535008E+03 -0.25615826914E+02 -0.46565332051E+03  0.55024888113E+03  0.00000000000E+00 0.  1.
         -3    1    6    6    0  502 -0.35081063612E+03  0.60188508122E+02 -0.48389607269E+03  0.60070472621E+03  0.00000000000E+00 0.  1.
<mgrwt>
<rscale>  0 0.13672802E+04</rscale>
<asrwt>0</asrwt>
<pdfrwt beam="1">  1        2 0.51043766E+00 0.13672802E+04</pdfrwt>
<pdfrwt beam="2">  1       -2 0.21671334E-01 0.13672802E+04</pdfrwt>
<totfact> 0.19901452E+01</totfact>
</mgrwt>
</event>
<event>
12    1  0.1600600E-007  0.1860950E+04  0.7818608E-02  0.8674542E-01
         -1   -1    0    0    0  501 -0.00000000000E+00  0.00000000000E+00  0.57606925443E+03  0.57606925443E+03  0.00000000000E+00 0.  1.
          1   -1    0    0  501    0  0.00000000000E+00 -0.00000000000E+00 -0.15029164256E+04  0.15029164256E+04  0.00000000000E+00 0. -1.
         23    2    1    2    0    0  0.33865339774E+03  0.30836504345E+03 -0.95639421648E+03  0.10639675213E+04  0.86958986556E+02 0.  0.
        254    2    1    2    0    0 -0.33865339774E+03 -0.30836504345E+03  0.29547045359E+02  0.10150181586E+04  0.90532519607E+03 0.  0.
        -24    2    4    4    0    0 -0.13897211670E+03  0.29288122172E+03 -0.12929014607E+03  0.35695981739E+03  0.74911348299E+02 0.  0.
         24    2    4    4    0    0 -0.19968128104E+03 -0.60124626517E+03  0.15883719143E+03  0.65805834125E+03  0.80261084725E+02 0.  0.
         11    1    3    3    0    0  0.24325023374E+03  0.23394568821E+03 -0.78190441011E+03  0.85163123932E+03  0.00000000000E+00 0. -1.
        -11    1    3    3    0    0  0.95403164002E+02  0.74419355242E+02 -0.17448980637E+03  0.21233628203E+03  0.00000000000E+00 0.  1.
          2    1    6    6  502    0 -0.16502157137E+03 -0.52249505813E+03  0.10915008485E+03  0.55870112387E+03  0.00000000000E+00 0. -1.
          3    1    5    5  503    0 -0.12743095865E+03  0.27191577646E+03 -0.13928501954E+03  0.33102440299E+03  0.00000000000E+00 0. -1.
         -4    1    5    5    0  503 -0.11541158048E+02  0.20965445262E+02  0.99948734712E+01  0.25935414395E+02  0.00000000000E+00 0.  1.
         -1    1    6    6    0  502 -0.34659709672E+02 -0.78751207042E+02  0.49687106580E+02  0.99357217380E+02  0.00000000000E+00 0.  1.
<mgrwt>
<rscale>  0 0.18609502E+04</rscale>
<asrwt>0</asrwt>
<pdfrwt beam="1">  1        1 0.23121791E+00 0.18609502E+04</pdfrwt>
<pdfrwt beam="2">  1       -1 0.88626040E-01 0.18609502E+04</pdfrwt>
<totfact> 0.76376730E+00</totfact>
</mgrwt>
</event>
<event>
12    1  0.1504874E-007  0.2249053E+04  0.7818608E-02  0.8498284E-01
          1   -1    0    0  501    0  0.00000000000E+00  0.00000000000E+00  0.10929521284E+04  0.10929521284E+04  0.00000000000E+00 0. -1.
         -1   -1    0    0    0  501 -0.00000000000E+00 -0.00000000000E+00 -0.11570127280E+04  0.11570127280E+04  0.00000000000E+00 0.  1.
         23    2    1    2    0    0  0.88054305726E+03 -0.23779302729E+03  0.14989608735E+03  0.92869094934E+03  0.89980235897E+02 0.  0.
        254    2    1    2    0    0 -0.88054305726E+03  0.23779302729E+03 -0.21395668689E+03  0.13212739071E+04  0.93171115379E+03 0.  0.
        -24    2    4    4    0    0 -0.25118600028E+03 -0.21394414045E+03  0.24377348062E+03  0.41847081224E+03  0.82618453575E+02 0.  0.
         24    2    4    4    0    0 -0.62935705698E+03  0.45173716775E+03 -0.45773016751E+03  0.90280309482E+03  0.73346764593E+02 0.  0.
         13    1    3    3    0    0  0.69162261628E+03 -0.20043330679E+03  0.83112047608E+02  0.72486065301E+03  0.00000000000E+00 0.  1.
        -13    1    3    3    0    0  0.18892044098E+03 -0.37359720507E+02  0.66784039740E+02  0.20383029633E+03  0.00000000000E+00 0. -1.
          2    1    6    6  502    0 -0.51501869872E+03  0.40097423275E+03 -0.39400567906E+03  0.76240741766E+03  0.00000000000E+00 0. -1.
          3    1    5    5  503    0 -0.21476021635E+03 -0.16062229950E+03  0.22798591129E+03  0.35199296778E+03  0.00000000000E+00 0. -1.
         -4    1    5    5    0  503 -0.36425783925E+02 -0.53321840959E+02  0.15787569330E+02  0.66477844453E+02  0.00000000000E+00 0.  1.
         -1    1    6    6    0  502 -0.11433835826E+03  0.50762934993E+02 -0.63724488446E+02  0.14039567717E+03  0.00000000000E+00 0.  1.
<mgrwt>
<rscale>  0 0.22490527E+04</rscale>
<asrwt>0</asrwt>
<pdfrwt beam="1">  1        1 0.16814648E+00 0.22490527E+04</pdfrwt>
<pdfrwt beam="2">  1       -1 0.17800196E+00 0.22490527E+04</pdfrwt>
<totfact> 0.25068508E+00</totfact>
</mgrwt>
</event>
<event>
12    1  0.1504874E-007  0.2073417E+04  0.7818608E-02  0.8573045E-01
         -2   -1    0    0    0  501 -0.00000000000E+00  0.00000000000E+00  0.58607409895E+03  0.58607409895E+03  0.00000000000E+00 0.  1.
          2   -1    0    0  501    0  0.00000000000E+00 -0.00000000000E+00 -0.18338372771E+04  0.18338372771E+04  0.00000000000E+00 0. -1.
         23    2    1    2    0    0 -0.77551617161E+03  0.25996471839E+03 -0.83141537961E+03  0.11698845192E+04  0.91494631790E+02 0.  0.
        254    2    1    2    0    0  0.77551617161E+03 -0.25996471839E+03 -0.41634779849E+03  0.12500268568E+04  0.84865462120E+03 0.  0.
        -24    2    4    4    0    0  0.93433234603E+03 -0.28811545676E+03 -0.42718537314E+03  0.10699968967E+04  0.80115957230E+02 0.  0.
         24    2    4    4    0    0 -0.15881617442E+03  0.28150738368E+02  0.10837574647E+02  0.18002996009E+03  0.79235674894E+02 0.  0.
         13    1    3    3    0    0 -0.51437277808E+03  0.15066980534E+03 -0.59731266751E+03  0.80253546204E+03  0.00000000000E+00 0. -1.
        -13    1    3    3    0    0 -0.26114339353E+03  0.10929491306E+03 -0.23410271211E+03  0.36734905719E+03  0.00000000000E+00 0.  1.
          2    1    6    6  502    0 -0.53832427530E+02 -0.36115906263E+01  0.39257814410E+02  0.66724432053E+02  0.00000000000E+00 0. -1.
          3    1    5    5  503    0  0.52977993672E+03 -0.18952207094E+03 -0.27888774995E+03  0.62798389613E+03  0.00000000000E+00 0. -1.
         -4    1    5    5    0  503  0.40455240931E+03 -0.98593385816E+02 -0.14829762319E+03  0.44201300054E+03  0.00000000000E+00 0.  1.
         -1    1    6    6    0  502 -0.10498374690E+03  0.31762328994E+02 -0.28420239763E+02  0.11330552804E+03  0.00000000000E+00 0.  1.
<mgrwt>
<rscale>  0 0.20734170E+04</rscale>
<asrwt>0</asrwt>
<pdfrwt beam="1">  1        2 0.28212882E+00 0.20734170E+04</pdfrwt>
<pdfrwt beam="2">  1       -2 0.90165245E-01 0.20734170E+04</pdfrwt>
<totfact> 0.80308571E+00</totfact>
</mgrwt>
</event>
<event>
12    1  0.1504874E-007  0.1810326E+04  0.7818608E-02  0.8700827E-01
         -2   -1    0    0    0  501 -0.00000000000E+00  0.00000000000E+00  0.90357765242E+03  0.90357765242E+03  0.00000000000E+00 0.  1.
          2   -1    0    0  501    0  0.00000000000E+00 -0.00000000000E+00 -0.90675160032E+03  0.90675160032E+03  0.00000000000E+00 0. -1.
         23    2    1    2    0    0 -0.40371576951E+03  0.50942070842E+03 -0.18426700031E+03  0.68162657071E+03  0.90358031087E+02 0.  0.
        254    2    1    2    0    0  0.40371576951E+03 -0.50942070842E+03  0.18109305241E+03  0.11287026820E+04  0.90480891356E+03 0.  0.
        -24    2    4    4    0    0  0.58591771152E+03 -0.43094087476E+03 -0.13769336381E+03  0.74479127318E+03  0.82127802520E+02 0.  0.
         24    2    4    4    0    0 -0.18220194201E+03 -0.78479833655E+02  0.31878641622E+03  0.38391140885E+03  0.80040981450E+02 0.  0.
         13    1    3    3    0    0 -0.61016301708E+02  0.82937916144E+02 -0.64692684731E+02  0.12160111211E+03  0.00000000000E+00 0. -1.
        -13    1    3    3    0    0 -0.34269946780E+03  0.42648279227E+03 -0.11957431557E+03  0.56002545860E+03  0.00000000000E+00 0.  1.
          2    1    6    6  502    0 -0.10083304462E+01 -0.21248303442E+02  0.16753270337E+02  0.27077281925E+02  0.00000000000E+00 0. -1.
          1    1    5    5  503    0  0.29262715060E+03 -0.19084706486E+03 -0.29413248149E+02  0.35059719138E+03  0.00000000000E+00 0. -1.
         -2    1    5    5    0  503  0.29329056092E+03 -0.24009380990E+03 -0.10828011566E+03  0.39419408180E+03  0.00000000000E+00 0.  1.
         -1    1    6    6    0  502 -0.18119361157E+03 -0.57231530213E+02  0.30203314588E+03  0.35683412692E+03  0.00000000000E+00 0.  1.
<mgrwt>
<rscale>  0 0.18103265E+04</rscale>
<asrwt>0</asrwt>
<pdfrwt beam="1">  1        2 0.13950025E+00 0.18103265E+04</pdfrwt>
<pdfrwt beam="2">  1       -2 0.13901195E+00 0.18103265E+04</pdfrwt>
<totfact> 0.10011079E+01</totfact>
</mgrwt>
</event>
<event>
12    1  0.1504874E-007  0.1214625E+04  0.7818608E-02  0.9100150E-01
          1   -1    0    0  501    0  0.00000000000E+00  0.00000000000E+00  0.78114559536E+03  0.78114559536E+03  0.00000000000E+00 0. -1.
         -1   -1    0    0    0  501 -0.00000000000E+00 -0.00000000000E+00 -0.47216381783E+03  0.47216381783E+03  0.00000000000E+00 0.  1.
         23    2    1    2    0    0  0.94131903310E+02 -0.30755962972E+02  0.31877687081E+03  0.34625240277E+03  0.92007002906E+02 0.  0.
        254    2    1    2    0    0 -0.94131903310E+02  0.30755962972E+02 -0.97950932750E+01  0.90705701042E+03  0.90158179430E+03 0.  0.
        -24    2    4    4    0    0 -0.14302158013E+03  0.35567576155E+00 -0.43819714108E+03  0.46803326994E+03  0.81136356990E+02 0.  0.
         24    2    4    4    0    0  0.48889676819E+02  0.30400287211E+02  0.42840204781E+03  0.43902374048E+03  0.76805938424E+02 0.  0.
         13    1    3    3    0    0  0.86519376766E+02  0.24788391951E+01  0.14264870887E+03  0.16685443159E+03  0.00000000000E+00 0.  1.
        -13    1    3    3    0    0  0.76125265444E+01 -0.33234802168E+02  0.17612816194E+03  0.17939797118E+03  0.00000000000E+00 0. -1.
          2    1    6    6  502    0  0.10021750873E+02 -0.25076611779E+02  0.92580294680E+02  0.96438492895E+02  0.00000000000E+00 0. -1.
          3    1    5    5  503    0 -0.95618594320E+02  0.38949360491E+02 -0.26911974713E+03  0.28824539295E+03  0.00000000000E+00 0. -1.
         -4    1    5    5    0  503 -0.47402985810E+02 -0.38593684730E+02 -0.16907739396E+03  0.17978787699E+03  0.00000000000E+00 0.  1.
         -1    1    6    6    0  502  0.38867925946E+02  0.55476898990E+02  0.33582175313E+03  0.34258524759E+03  0.00000000000E+00 0.  1.
<mgrwt>
<rscale>  0 0.12146254E+04</rscale>
<asrwt>0</asrwt>
<pdfrwt beam="1">  1        1 0.12017625E+00 0.12146254E+04</pdfrwt>
<pdfrwt beam="2">  1       -1 0.72640588E-01 0.12146254E+04</pdfrwt>
<totfact> 0.43418517E+01</totfact>
</mgrwt>
</event>
<event>
12    1  0.1504874E-007  0.1722738E+04  0.7818608E-02  0.8748501E-01
          1   -1    0    0  501    0  0.00000000000E+00  0.00000000000E+00  0.17858504189E+04  0.17858504189E+04  0.00000000000E+00 0. -1.
         -1   -1    0    0    0  501 -0.00000000000E+00 -0.00000000000E+00 -0.41546407655E+03  0.41546407655E+03  0.00000000000E+00 0.  1.
         23    2    1    2    0    0  0.54457800129E+03  0.68275459201E+02  0.87214291004E+03  0.10342867505E+04  0.88820543807E+02 0.  0.
        254    2    1    2    0    0 -0.54457800129E+03 -0.68275459201E+02  0.49824343226E+03  0.11670277449E+04  0.90137700307E+03 0.  0.
        -24    2    4    4    0    0 -0.41614229644E+03 -0.23277712979E+03  0.71048499481E+03  0.85959265952E+03  0.82164526382E+02 0.  0.
         24    2    4    4    0    0 -0.12843570485E+03  0.16450167059E+03 -0.21224156255E+03  0.30743508534E+03  0.76898120395E+02 0.  0.
         13    1    3    3    0    0  0.36089628412E+03  0.82034401503E+02  0.54354594259E+03  0.65758494708E+03  0.00000000000E+00 0. -1.
        -13    1    3    3    0    0  0.18368171717E+03 -0.13758942302E+02  0.32859696745E+03  0.37670180346E+03  0.00000000000E+00 0.  1.
          2    1    6    6  502    0 -0.23935132325E+02  0.82815410413E+02 -0.57478634122E+02  0.10361021254E+03  0.00000000000E+00 0. -1.
          1    1    5    5  503    0 -0.18314404272E+03 -0.10697772387E+03  0.24490326421E+03  0.32398083680E+03  0.00000000000E+00 0. -1.
         -2    1    5    5    0  503 -0.23299825372E+03 -0.12579940591E+03  0.46558173060E+03  0.53561182272E+03  0.00000000000E+00 0.  1.
         -1    1    6    6    0  502 -0.10450057252E+03  0.81686260174E+02 -0.15476292843E+03  0.20382487281E+03  0.00000000000E+00 0.  1.
<mgrwt>
<rscale>  0 0.17227382E+04</rscale>
<asrwt>0</asrwt>
<pdfrwt beam="1">  1        1 0.27474621E+00 0.17227382E+04</pdfrwt>
<pdfrwt beam="2">  1       -1 0.63917551E-01 0.17227382E+04</pdfrwt>
<totfact> 0.98206616E+00</totfact>
</mgrwt>
</event>
<event>
12    1  0.1504874E-007  0.3486182E+04  0.7818608E-02  0.8117072E-01
         -1   -1    0    0    0  501 -0.00000000000E+00  0.00000000000E+00  0.20975207970E+04  0.20975207970E+04  0.00000000000E+00 0.  1.
          1   -1    0    0  501    0  0.00000000000E+00 -0.00000000000E+00 -0.14485510644E+04  0.14485510644E+04  0.00000000000E+00 0. -1.
         23    2    1    2    0    0  0.12155566413E+04 -0.10710763772E+04  0.42951724309E+03  0.16785529585E+04  0.90952835175E+02 0.  0.
        254    2    1    2    0    0 -0.12155566413E+04  0.10710763772E+04  0.21945248956E+03  0.18675189030E+04  0.90259897170E+03 0.  0.
        -24    2    4    4    0    0  0.56745807936E+02  0.34849449076E+03 -0.81870188183E+02  0.37136583647E+03  0.80878674392E+02 0.  0.
         24    2    4    4    0    0 -0.12723024492E+04  0.72258188643E+03  0.30132267774E+03  0.14961530665E+04  0.82465370245E+02 0.  0.
         13    1    3    3    0    0  0.11457068674E+03 -0.10041707444E+03  0.13395957208E+02  0.15293620490E+03  0.00000000000E+00 0. -1.
        -13    1    3    3    0    0  0.11009859546E+04 -0.97065930275E+03  0.41612128588E+03  0.15256167536E+04  0.00000000000E+00 0.  1.
          2    1    6    6  502    0 -0.10538352367E+04  0.57265039888E+03  0.26952969147E+03  0.12292857439E+04  0.00000000000E+00 0. -1.
          1    1    5    5  503    0  0.73122618662E+02  0.23863866476E+03 -0.72472329178E+02  0.25989915001E+03  0.00000000000E+00 0. -1.
         -2    1    5    5    0  503 -0.16376810726E+02  0.10985582600E+03 -0.93978590048E+01  0.11146668646E+03  0.00000000000E+00 0.  1.
         -1    1    6    6    0  502 -0.21846721254E+03  0.14993148755E+03  0.31792986273E+02  0.26686732263E+03  0.00000000000E+00 0.  1.
<mgrwt>
<rscale>  0 0.34861819E+04</rscale>
<asrwt>0</asrwt>
<pdfrwt beam="1">  1        1 0.22285401E+00 0.34861819E+04</pdfrwt>
<pdfrwt beam="2">  1       -1 0.32269551E+00 0.34861819E+04</pdfrwt>
<totfact> 0.13633664E-01</totfact>
</mgrwt>
</event>
<event>
12    1  0.1504874E-007  0.1779668E+04  0.7818608E-02  0.8717187E-01
         -2   -1    0    0    0  501 -0.00000000000E+00  0.00000000000E+00  0.80160122200E+03  0.80160122200E+03  0.00000000000E+00 0.  1.
          2   -1    0    0  501    0  0.00000000000E+00 -0.00000000000E+00 -0.98777898444E+03  0.98777898444E+03  0.00000000000E+00 0. -1.
         23    2    1    2    0    0 -0.54235060209E+03  0.93084807919E+02  0.28724070236E+03  0.62715049481E+03  0.89451467276E+02 0.  0.
        254    2    1    2    0    0  0.54235060209E+03 -0.93084807919E+02 -0.47341846480E+03  0.11622297116E+04  0.90765847251E+03 0.  0.
        -24    2    4    4    0    0  0.58154310094E+02  0.36159480114E+03 -0.27379591709E+03  0.46414557467E+03  0.79587601299E+02 0.  0.
         24    2    4    4    0    0  0.48419629200E+03 -0.45467960906E+03 -0.19962254770E+03  0.69808413695E+03  0.79326569535E+02 0.  0.
         13    1    3    3    0    0 -0.26478263885E+03  0.28854925755E+02  0.18569487232E+03  0.32469222070E+03  0.00000000000E+00 0. -1.
        -13    1    3    3    0    0 -0.27756796324E+03  0.64229882164E+02  0.10154583004E+03  0.30245827411E+03  0.00000000000E+00 0.  1.
          4    1    6    6  502    0  0.10308044476E+03 -0.59657931778E+02 -0.49900808739E+02  0.12913069979E+03  0.00000000000E+00 0. -1.
          3    1    5    5  503    0  0.36670344118E+02  0.10980173426E+03 -0.12721801001E+03  0.17200452626E+03  0.00000000000E+00 0. -1.
         -4    1    5    5    0  503  0.21483965976E+02  0.25179306688E+03 -0.14657790709E+03  0.29214104842E+03  0.00000000000E+00 0.  1.
         -3    1    6    6    0  502  0.38111584723E+03 -0.39502167728E+03 -0.14972173896E+03  0.56895343715E+03  0.00000000000E+00 0.  1.
<mgrwt>
<rscale>  0 0.17796683E+04</rscale>
<asrwt>0</asrwt>
<pdfrwt beam="1">  1        2 0.15196600E+00 0.17796683E+04</pdfrwt>
<pdfrwt beam="2">  1       -2 0.12332327E+00 0.17796683E+04</pdfrwt>
<totfact> 0.12030769E+01</totfact>
</mgrwt>
</event>
<event>
12    1  0.1504874E-007  0.1825361E+04  0.7818608E-02  0.8692928E-01
          1   -1    0    0  501    0  0.00000000000E+00  0.00000000000E+00  0.80380139010E+03  0.80380139010E+03  0.00000000000E+00 0. -1.
         -1   -1    0    0    0  501 -0.00000000000E+00 -0.00000000000E+00 -0.10363079441E+04  0.10363079441E+04  0.00000000000E+00 0.  1.
         23    2    1    2    0    0  0.21028581187E+03 -0.58456168317E+03 -0.38892472452E+03  0.73856462511E+03  0.91009779769E+02 0.  0.
        254    2    1    2    0    0 -0.21028581187E+03  0.58456168317E+03  0.15641817053E+03  0.11015447091E+04  0.89610357544E+03 0.  0.
        -24    2    4    4    0    0 -0.13263441399E+03  0.81552999635E+03  0.77786589636E+02  0.83336390598E+03  0.75918268766E+02 0.  0.
         24    2    4    4    0    0 -0.77651397882E+02 -0.23096831318E+03  0.78631580896E+02  0.26818080310E+03  0.79761622035E+02 0.  0.
         13    1    3    3    0    0  0.97657979250E+02 -0.38187155734E+03 -0.21740147707E+03  0.45014038860E+03  0.00000000000E+00 0.  1.
        -13    1    3    3    0    0  0.11262783262E+03 -0.20269012583E+03 -0.17152324745E+03  0.28842423651E+03  0.00000000000E+00 0. -1.
          4    1    6    6  502    0 -0.53902978076E+01 -0.40704570461E+02 -0.15570572161E+02  0.43913096956E+02  0.00000000000E+00 0. -1.
          1    1    5    5  503    0 -0.36506154825E+02  0.41043408480E+03  0.62240140391E+02  0.41672853560E+03  0.00000000000E+00 0. -1.
         -2    1    5    5    0  503 -0.96128259162E+02  0.40509591155E+03  0.15546449245E+02  0.41663537037E+03  0.00000000000E+00 0.  1.
         -3    1    6    6    0  502 -0.72261100075E+02 -0.19026374272E+03  0.94202153057E+02  0.22426770614E+03  0.00000000000E+00 0.  1.
<mgrwt>
<rscale>  0 0.18253611E+04</rscale>
<asrwt>0</asrwt>
<pdfrwt beam="1">  1        1 0.12366175E+00 0.18253611E+04</pdfrwt>
<pdfrwt beam="2">  1       -1 0.15943199E+00 0.18253611E+04</pdfrwt>
<totfact> 0.60978954E+00</totfact>
</mgrwt>
</event>
<event>
12    1  0.1504874E-007  0.1428933E+04  0.7818608E-02  0.8933137E-01
         -2   -1    0    0    0  501 -0.00000000000E+00  0.00000000000E+00  0.53795131603E+03  0.53795131603E+03  0.00000000000E+00 0.  1.
          2   -1    0    0  501    0  0.00000000000E+00 -0.00000000000E+00 -0.94890089334E+03  0.94890089334E+03  0.00000000000E+00 0. -1.
         23    2    1    2    0    0 -0.43557584419E+02 -0.31694207773E+03 -0.41276576743E+03  0.53028017503E+03  0.92043149988E+02 0.  0.
        254    2    1    2    0    0  0.43557584419E+02  0.31694207773E+03  0.18161901235E+01  0.95657203435E+03  0.90148611445E+03 0.  0.
        -24    2    4    4    0    0 -0.84630665173E+02 -0.54033854619E+02  0.38270928087E+03  0.40387043465E+03  0.81011896542E+02 0.  0.
         24    2    4    4    0    0  0.12818824959E+03  0.37097593235E+03 -0.38089309075E+03  0.55270159970E+03  0.79650122484E+02 0.  0.
         11    1    3    3    0    0 -0.68965685778E+02 -0.27156444860E+03 -0.36011938190E+03  0.45627785918E+03  0.00000000000E+00 0. -1.
        -11    1    3    3    0    0  0.25408101359E+02 -0.45377629131E+02 -0.52646385536E+02  0.74002315844E+02  0.00000000000E+00 0.  1.
          4    1    6    6  502    0  0.11701928498E+03  0.22414737075E+03 -0.22882960348E+03  0.34102572381E+03  0.00000000000E+00 0. -1.
          1    1    5    5  503    0 -0.16605303167E+02  0.18931524679E+02  0.43145991926E+02  0.49957135018E+02  0.00000000000E+00 0. -1.
         -2    1    5    5    0  503 -0.68025362007E+02 -0.72965379298E+02  0.33956328895E+03  0.35391329963E+03  0.00000000000E+00 0.  1.
         -3    1    6    6    0  502  0.11168964610E+02  0.14682856161E+03 -0.15206348727E+03  0.21167587589E+03  0.00000000000E+00 0.  1.
<mgrwt>
<rscale>  0 0.14289331E+04</rscale>
<asrwt>0</asrwt>
<pdfrwt beam="1">  1        2 0.14598475E+00 0.14289331E+04</pdfrwt>
<pdfrwt beam="2">  1       -2 0.82761742E-01 0.14289331E+04</pdfrwt>
<totfact> 0.33826336E+01</totfact>
</mgrwt>
</event>
<event>
12    1  0.1504874E-007  0.1400696E+04  0.7818608E-02  0.8953315E-01
         -2   -1    0    0    0  501 -0.00000000000E+00  0.00000000000E+00  0.68677679138E+03  0.68677679138E+03  0.00000000000E+00 0.  1.
          2   -1    0    0  501    0  0.00000000000E+00 -0.00000000000E+00 -0.71418771540E+03  0.71418771540E+03  0.00000000000E+00 0. -1.
         23    2    1    2    0    0 -0.24116345592E+03 -0.20683437625E+03 -0.23274407518E+03  0.40402744494E+03  0.90155976284E+02 0.  0.
        254    2    1    2    0    0  0.24116345592E+03  0.20683437625E+03  0.20533315117E+03  0.99693706185E+03  0.92237819285E+03 0.  0.
        -24    2    4    4    0    0  0.46987669047E+03 -0.18808210606E+03  0.91197071394E+02  0.51996165652E+03  0.76708771026E+02 0.  0.
         24    2    4    4    0    0 -0.22871323455E+03  0.39491648231E+03  0.11413607978E+03  0.47697540533E+03  0.78801782497E+02 0.  0.
         13    1    3    3    0    0 -0.21836284547E+03 -0.15679421013E+03 -0.15999658462E+03  0.31283488249E+03  0.00000000000E+00 0. -1.
        -13    1    3    3    0    0 -0.22800610445E+02 -0.50040166118E+02 -0.72747490563E+02  0.91192562444E+02  0.00000000000E+00 0.  1.
          2    1    6    6  502    0 -0.22647018419E+02  0.10449464956E+03  0.22269274271E+02  0.10921510796E+03  0.00000000000E+00 0. -1.
          1    1    5    5  503    0  0.21301734647E+03 -0.12454124204E+03  0.56017809757E+02  0.25303143258E+03  0.00000000000E+00 0. -1.
         -2    1    5    5    0  503  0.25685934400E+03 -0.63540864020E+02  0.35179261636E+02  0.26693022393E+03  0.00000000000E+00 0.  1.
         -1    1    6    6    0  502 -0.20606621613E+03  0.29042183275E+03  0.91866805506E+02  0.36776029737E+03  0.00000000000E+00 0.  1.
<mgrwt>
<rscale>  0 0.14006963E+04</rscale>
<asrwt>0</asrwt>
<pdfrwt beam="1">  1        2 0.10987503E+00 0.14006963E+04</pdfrwt>
<pdfrwt beam="2">  1       -2 0.10565797E+00 0.14006963E+04</pdfrwt>
<totfact> 0.28152043E+01</totfact>
</mgrwt>
</event>
<event>
12    1  0.1504874E-007  0.2055747E+04  0.7818608E-02  0.8580992E-01
          2   -1    0    0  501    0  0.00000000000E+00  0.00000000000E+00  0.11000891918E+04  0.11000891918E+04  0.00000000000E+00 0. -1.
         -2   -1    0    0    0  501 -0.00000000000E+00 -0.00000000000E+00 -0.96039829576E+03  0.96039829576E+03  0.00000000000E+00 0.  1.
         23    2    1    2    0    0  0.87311558007E+02 -0.55816709823E+03  0.66631301063E+03  0.87838015295E+03  0.91677953973E+02 0.  0.
        254    2    1    2    0    0 -0.87311558007E+02  0.55816709823E+03 -0.52662211463E+03  0.11821073346E+04  0.89491512511E+03 0.  0.
        -24    2    4    4    0    0  0.14534373162E+03  0.61822512621E+03 -0.49324840578E+02  0.64183480360E+03  0.78688424955E+02 0.  0.
         24    2    4    4    0    0 -0.23265528962E+03 -0.60058027981E+02 -0.47729727405E+03  0.54027253098E+03  0.79663475930E+02 0.  0.
         13    1    3    3    0    0  0.32311696245E+02 -0.14139957666E+03  0.23451342798E+03  0.27574342041E+03  0.00000000000E+00 0.  1.
        -13    1    3    3    0    0  0.54999861762E+02 -0.41676752157E+03  0.43179958265E+03  0.60263673254E+03  0.00000000000E+00 0. -1.
          2    1    6    6  502    0 -0.77634227854E+02 -0.58966512402E+02 -0.16599899781E+03  0.19250919508E+03  0.00000000000E+00 0. -1.
          3    1    5    5  503    0  0.10119066208E+02  0.15380303732E+03  0.10227479460E+02  0.15447449992E+03  0.00000000000E+00 0. -1.
         -4    1    5    5    0  503  0.13522466541E+03  0.46442208889E+03 -0.59552320039E+02  0.48736030368E+03  0.00000000000E+00 0.  1.
         -1    1    6    6    0  502 -0.15502106177E+03 -0.10915155788E+01 -0.31129827625E+03  0.34776333590E+03  0.00000000000E+00 0.  1.
<mgrwt>
<rscale>  0 0.20557469E+04</rscale>
<asrwt>0</asrwt>
<pdfrwt beam="1">  1        2 0.16924449E+00 0.20557469E+04</pdfrwt>
<pdfrwt beam="2">  1       -2 0.14775358E+00 0.20557469E+04</pdfrwt>
<totfact> 0.62824956E+00</totfact>
</mgrwt>
</event>
<event>
12    1  0.1504874E-007  0.1256324E+04  0.7818608E-02  0.9064936E-01
         -1   -1    0    0    0  501 -0.00000000000E+00  0.00000000000E+00  0.29498203881E+03  0.29498203881E+03  0.00000000000E+00 0.  1.
          1   -1    0    0  501    0  0.00000000000E+00 -0.00000000000E+00 -0.13376668574E+04  0.13376668574E+04  0.00000000000E+00 0. -1.
         23    2    1    2    0    0  0.70668328931E+01  0.21017565361E+03 -0.29708116884E+01  0.22913527026E+03  0.90941744293E+02 0.  0.
        254    2    1    2    0    0 -0.70668328931E+01 -0.21017565361E+03 -0.10397140069E+04  0.14035136260E+04  0.91903293554E+03 0.  0.
        -24    2    4    4    0    0 -0.35160513347E+03 -0.39727237937E+03 -0.51495754396E+03  0.74354156287E+03  0.78875029862E+02 0.  0.
         24    2    4    4    0    0  0.34453830057E+03  0.18709672576E+03 -0.52475646299E+03  0.65997206313E+03  0.80510578875E+02 0.  0.
         13    1    3    3    0    0  0.20958766796E+02  0.41257066238E+01 -0.72949910001E+01  0.22572289526E+02  0.00000000000E+00 0. -1.
        -13    1    3    3    0    0 -0.13891933903E+02  0.20604994699E+03  0.43241793117E+01  0.20656298073E+03  0.00000000000E+00 0.  1.
          4    1    6    6  502    0  0.87839303752E+02  0.62674597085E+02 -0.20353027631E+03  0.23036584334E+03  0.00000000000E+00 0. -1.
          3    1    5    5  503    0 -0.15746747048E+02 -0.76332353999E+01 -0.29402747727E+01  0.17744620058E+02  0.00000000000E+00 0. -1.
         -4    1    5    5    0  503 -0.33585838642E+03 -0.38963914397E+03 -0.51201726919E+03  0.72579694281E+03  0.00000000000E+00 0.  1.
         -3    1    6    6    0  502  0.25669899682E+03  0.12442212867E+03 -0.32122618668E+03  0.42960621979E+03  0.00000000000E+00 0.  1.
<mgrwt>
<rscale>  0 0.12563243E+04</rscale>
<asrwt>0</asrwt>
<pdfrwt beam="1">  1        1 0.20579490E+00 0.12563243E+04</pdfrwt>
<pdfrwt beam="2">  1       -1 0.45381853E-01 0.12563243E+04</pdfrwt>
<totfact> 0.40391854E+01</totfact>
</mgrwt>
</event>
<event>
12    1  0.1504874E-007  0.1264756E+04  0.7818608E-02  0.9057990E-01
          2   -1    0    0  501    0  0.00000000000E+00  0.00000000000E+00  0.39584699417E+03  0.39584699417E+03  0.00000000000E+00 0. -1.
         -2   -1    0    0    0  501 -0.00000000000E+00 -0.00000000000E+00 -0.10102444348E+04  0.10102444348E+04  0.00000000000E+00 0.  1.
         23    2    1    2    0    0  0.21567161445E+03 -0.20309297998E+03 -0.21249311377E+03  0.37543533435E+03  0.89651341752E+02 0.  0.
        254    2    1    2    0    0 -0.21567161445E+03  0.20309297998E+03 -0.40190432683E+03  0.10306560946E+04  0.90164510402E+03 0.  0.
        -24    2    4    4    0    0 -0.54776336227E+03  0.32905380538E+02 -0.32108857939E+03  0.64052983633E+03  0.77801865705E+02 0.  0.
         24    2    4    4    0    0  0.33209174782E+03  0.17018759944E+03 -0.80815747442E+02  0.39012625826E+03  0.80115943328E+02 0.  0.
         11    1    3    3    0    0  0.15553267770E+02 -0.62393867410E+02 -0.53801225378E+02  0.83841938675E+02  0.00000000000E+00 0. -1.
        -11    1    3    3    0    0  0.20011834668E+03 -0.14069911257E+03 -0.15869188839E+03  0.29159339567E+03  0.00000000000E+00 0.  1.
          2    1    6    6  502    0  0.12369279979E+02  0.54258178741E-01  0.10939695082E+02  0.16512993661E+02  0.00000000000E+00 0. -1.
          3    1    5    5  503    0 -0.43354475472E+02 -0.12363839627E+02 -0.10001353286E+02  0.46179022741E+02  0.00000000000E+00 0. -1.
         -4    1    5    5    0  503 -0.50440888680E+03  0.45269220165E+02 -0.31108722610E+03  0.59435081359E+03  0.00000000000E+00 0.  1.
         -3    1    6    6    0  502  0.31972246784E+03  0.17013334126E+03 -0.91755442524E+02  0.37361326460E+03  0.00000000000E+00 0.  1.
<mgrwt>
<rscale>  0 0.12647565E+04</rscale>
<asrwt>0</asrwt>
<pdfrwt beam="1">  1        2 0.60899538E-01 0.12647565E+04</pdfrwt>
<pdfrwt beam="2">  1       -2 0.15542222E+00 0.12647565E+04</pdfrwt>
<totfact> 0.21520445E+01</totfact>
</mgrwt>
</event>
<event>
12    1  0.1504874E-007  0.2839856E+04  0.7818608E-02  0.8291001E-01
          2   -1    0    0  501    0  0.00000000000E+00  0.00000000000E+00  0.19193599145E+04  0.19193599145E+04  0.00000000000E+00 0. -1.
         -2   -1    0    0    0  501 -0.00000000000E+00 -0.00000000000E+00 -0.10504517756E+04  0.10504517756E+04  0.00000000000E+00 0.  1.
         23    2    1    2    0    0 -0.13487363093E+03 -0.62710200221E+03  0.15456008542E+04  0.16759110527E+04  0.91367601605E+02 0.  0.
        254    2    1    2    0    0  0.13487363093E+03  0.62710200221E+03 -0.67669271521E+03  0.12939006375E+04  0.89711649822E+03 0.  0.
        -24    2    4    4    0    0  0.34749984177E+03  0.67010250415E+03 -0.73411520181E+03  0.10559117323E+04  0.78936371288E+02 0.  0.
         24    2    4    4    0    0 -0.21262621085E+03 -0.43000501945E+02  0.57422486601E+02  0.23798890521E+03  0.79261770924E+02 0.  0.
         13    1    3    3    0    0 -0.10815047734E+03 -0.57350211526E+03  0.13357199410E+04  0.14576518661E+04  0.00000000000E+00 0. -1.
        -13    1    3    3    0    0 -0.26723153590E+02 -0.53599886951E+02  0.20988091315E+03  0.21825918658E+03  0.00000000000E+00 0.  1.
          2    1    6    6  502    0 -0.76517128768E+02 -0.44817712093E+02  0.49687394873E+02  0.10164809650E+03  0.00000000000E+00 0. -1.
          1    1    5    5  503    0  0.26235671195E+03  0.54533705151E+03 -0.62186273136E+03  0.86771930986E+03  0.00000000000E+00 0. -1.
         -2    1    5    5    0  503  0.85143129820E+02  0.12476545265E+03 -0.11225247045E+03  0.18819242241E+03  0.00000000000E+00 0.  1.
         -1    1    6    6    0  502 -0.13610908208E+03  0.18172101486E+01  0.77350917279E+01  0.13634080872E+03  0.00000000000E+00 0.  1.
<mgrwt>
<rscale>  0 0.28398557E+04</rscale>
<asrwt>0</asrwt>
<pdfrwt beam="1">  1        2 0.29528614E+00 0.28398557E+04</pdfrwt>
<pdfrwt beam="2">  1       -2 0.16160797E+00 0.28398557E+04</pdfrwt>
<totfact> 0.15749703E+00</totfact>
</mgrwt>
</event>
<event>
12    1  0.1504874E-007  0.1963521E+04  0.7818608E-02  0.8623868E-01
         -2   -1    0    0    0  501 -0.00000000000E+00  0.00000000000E+00  0.58447904664E+03  0.58447904664E+03  0.00000000000E+00 0.  1.
          2   -1    0    0  501    0  0.00000000000E+00 -0.00000000000E+00 -0.16490815029E+04  0.16490815029E+04  0.00000000000E+00 0. -1.
         23    2    1    2    0    0 -0.69046644777E+03  0.23224654734E+02 -0.85356416199E+03  0.11019652635E+04  0.92045440639E+02 0.  0.
        254    2    1    2    0    0  0.69046644777E+03 -0.23224654734E+02 -0.21103829425E+03  0.11315952861E+04  0.87102665272E+03 0.  0.
        -24    2    4    4    0    0  0.29627027985E+03 -0.43305678049E+03 -0.41522918981E+02  0.53286078803E+03  0.83079556859E+02 0.  0.
         24    2    4    4    0    0  0.39419616791E+03  0.40983212576E+03 -0.16951537527E+03  0.59873449804E+03  0.79965908927E+02 0.  0.
         13    1    3    3    0    0 -0.57313568591E+03 -0.64659299278E+00 -0.65751728972E+03  0.87224647825E+03  0.00000000000E+00 0. -1.
        -13    1    3    3    0    0 -0.11733076186E+03  0.23871247726E+02 -0.19604687227E+03  0.22971878520E+03  0.00000000000E+00 0.  1.
          2    1    6    6  502    0  0.21750459575E+03  0.21267132496E+03 -0.13096299326E+03  0.33119276447E+03  0.00000000000E+00 0. -1.
          1    1    5    5  503    0  0.21574684082E+03 -0.35687316693E+03 -0.57136967619E+02  0.42091541866E+03  0.00000000000E+00 0. -1.
         -4    1    5    5    0  503  0.80523439028E+02 -0.76183613565E+02  0.15614048638E+02  0.11194536937E+03  0.00000000000E+00 0.  1.
         -3    1    6    6    0  502  0.17669157216E+03  0.19716080080E+03 -0.38552382014E+02  0.26754173358E+03  0.00000000000E+00 0.  1.
<mgrwt>
<rscale>  0 0.19635209E+04</rscale>
<asrwt>0</asrwt>
<pdfrwt beam="1">  1        2 0.25370485E+00 0.19635209E+04</pdfrwt>
<pdfrwt beam="2">  1       -2 0.89919853E-01 0.19635209E+04</pdfrwt>
<totfact> 0.10330678E+01</totfact>
</mgrwt>
</event>
<event>
12    1  0.1504874E-007  0.1137556E+04  0.7818608E-02  0.9169341E-01
         -2   -1    0    0    0  501 -0.00000000000E+00  0.00000000000E+00  0.92906509924E+02  0.92906509924E+02  0.00000000000E+00 0.  1.
          2   -1    0    0  501    0  0.00000000000E+00 -0.00000000000E+00 -0.34820843411E+04  0.34820843411E+04  0.00000000000E+00 0. -1.
         23    2    1    2    0    0 -0.78472674814E+02 -0.12238601231E+03 -0.18656134639E+03  0.24541504096E+03  0.65476023580E+02 0.  0.
        254    2    1    2    0    0  0.78472674814E+02  0.12238601231E+03 -0.32026164848E+04  0.33295758101E+04  0.89899189629E+03 0.  0.
        -24    2    4    4    0    0  0.39680727705E+03  0.28079988846E+03 -0.12550067670E+04  0.13482022154E+04  0.79389142483E+02 0.  0.
         24    2    4    4    0    0 -0.31833460224E+03 -0.15841387615E+03 -0.19476097178E+04  0.19813735946E+04  0.78903951760E+02 0.  0.
         13    1    3    3    0    0 -0.46951405259E+02 -0.11736905120E+03 -0.15985535141E+03  0.20379809128E+03  0.00000000000E+00 0.  1.
        -13    1    3    3    0    0 -0.31521269555E+02 -0.50169611082E+01 -0.26705994979E+02  0.41616949683E+02  0.00000000000E+00 0. -1.
          2    1    6    6  502    0 -0.22595516554E+03 -0.14975553583E+03 -0.14884916599E+04  0.15129738527E+04  0.00000000000E+00 0. -1.
          3    1    5    5  503    0  0.12351012040E+03  0.10915615372E+03 -0.33771075718E+03  0.37579032884E+03  0.00000000000E+00 0. -1.
         -4    1    5    5    0  503  0.27329715665E+03  0.17164373474E+03 -0.91729600982E+03  0.97241188657E+03  0.00000000000E+00 0.  1.
         -1    1    6    6    0  502 -0.92379436704E+02 -0.86583403172E+01 -0.45911805788E+03  0.46839974194E+03  0.00000000000E+00 0.  1.
<mgrwt>
<rscale>  0 0.11375558E+04</rscale>
<asrwt>0</asrwt>
<pdfrwt beam="1">  1        2 0.53570517E+00 0.11375558E+04</pdfrwt>
<pdfrwt beam="2">  1       -2 0.14293312E-01 0.11375558E+04</pdfrwt>
<totfact> 0.32507579E+01</totfact>
</mgrwt>
</event>
<event>
12    1  0.1732044E-007  0.1785434E+04  0.7818608E-02  0.8714084E-01
         -1   -1    0    0    0  501 -0.00000000000E+00  0.00000000000E+00  0.96179417595E+03  0.96179417595E+03  0.00000000000E+00 0.  1.
          1   -1    0    0  501    0  0.00000000000E+00 -0.00000000000E+00 -0.82860134068E+03  0.82860134068E+03  0.00000000000E+00 0. -1.
         23    2    1    2    0    0  0.52124547663E+03  0.39434905146E+02 -0.35805565485E+03  0.64049721362E+03  0.93706296624E+02 0.  0.
        254    2    1    2    0    0 -0.52124547663E+03 -0.39434905146E+02  0.49124849012E+03  0.11498983030E+04  0.89871523274E+03 0.  0.
        -24    2    4    4    0    0  0.57046496326E+02 -0.69367627684E+02  0.54945095369E+03  0.56219837816E+03  0.78131270169E+02 0.  0.
         24    2    4    4    0    0 -0.57829197296E+03  0.29932722538E+02 -0.58202463570E+02  0.58769992485E+03  0.81768582224E+02 0.  0.
         13    1    3    3    0    0  0.50055667798E+03  0.48756657867E+02 -0.31971967597E+03  0.59594871488E+03  0.00000000000E+00 0. -1.
        -13    1    3    3    0    0  0.20688798649E+02 -0.93217527213E+01 -0.38335978880E+02  0.44548498740E+02  0.00000000000E+00 0.  1.
          2    1    6    6  502    0 -0.20189744908E+03 -0.23427489172E+02 -0.94632425953E+00  0.20325433015E+03  0.00000000000E+00 0. -1.
          3    1    5    5  503    0  0.17272037321E+02  0.15281233536E+02  0.16119005155E+03  0.16283142231E+03  0.00000000000E+00 0. -1.
         -4    1    5    5    0  503  0.39774459005E+02 -0.84648861220E+02  0.38826090214E+03  0.39936695585E+03  0.00000000000E+00 0.  1.
         -1    1    6    6    0  502 -0.37639452388E+03  0.53360211710E+02 -0.57256139311E+02  0.38444559470E+03  0.00000000000E+00 0.  1.
<mgrwt>
<rscale>  0 0.17854343E+04</rscale>
<asrwt>0</asrwt>
<pdfrwt beam="1">  1        1 0.12747713E+00 0.17854343E+04</pdfrwt>
<pdfrwt beam="2">  1       -1 0.14796833E+00 0.17854343E+04</pdfrwt>
<totfact> 0.71425634E+00</totfact>
</mgrwt>
</event>
<event>
12    1  0.1504874E-007  0.1260287E+04  0.7818608E-02  0.9061665E-01
         -1   -1    0    0    0  501 -0.00000000000E+00  0.00000000000E+00  0.24916797105E+03  0.24916797105E+03  0.00000000000E+00 0.  1.
          1   -1    0    0  501    0  0.00000000000E+00 -0.00000000000E+00 -0.15936273270E+04  0.15936273270E+04  0.00000000000E+00 0. -1.
         23    2    1    2    0    0 -0.25078152452E+03 -0.14089373392E+03 -0.47999376900E+03  0.56724718898E+03  0.92913604133E+02 0.  0.
        254    2    1    2    0    0  0.25078152452E+03  0.14089373392E+03 -0.86446558698E+03  0.12755481091E+04  0.89273725712E+03 0.  0.
        -24    2    4    4    0    0 -0.45635273058E+01 -0.35218496930E+03 -0.45611744333E+03  0.58152742916E+03  0.77948382751E+02 0.  0.
         24    2    4    4    0    0  0.25534505182E+03  0.49307870322E+03 -0.40834814364E+03  0.69402067993E+03  0.81171390878E+02 0.  0.
         11    1    3    3    0    0 -0.22907393688E+03 -0.12035377392E+03 -0.46853085609E+03  0.53523925730E+03  0.00000000000E+00 0. -1.
        -11    1    3    3    0    0 -0.21707587638E+02 -0.20539959997E+02 -0.11462912910E+02  0.32007931675E+02  0.00000000000E+00 0.  1.
          2    1    6    6  502    0  0.20072827671E+03  0.34838561679E+03 -0.25437284692E+03  0.47578348469E+03  0.00000000000E+00 0. -1.
          3    1    5    5  503    0 -0.35669447430E+02 -0.27419121581E+03 -0.35915311959E+03  0.45325941316E+03  0.00000000000E+00 0. -1.
         -4    1    5    5    0  503  0.31105920124E+02 -0.77993753482E+02 -0.96964323746E+02  0.12826801600E+03  0.00000000000E+00 0.  1.
         -1    1    6    6    0  502  0.54616775116E+02  0.14469308643E+03 -0.15397529673E+03  0.21823719524E+03  0.00000000000E+00 0.  1.
<mgrwt>
<rscale>  0 0.12602871E+04</rscale>
<asrwt>0</asrwt>
<pdfrwt beam="1">  1        1 0.24517343E+00 0.12602871E+04</pdfrwt>
<pdfrwt beam="2">  1       -1 0.38333535E-01 0.12602871E+04</pdfrwt>
<totfact> 0.36565024E+01</totfact>
</mgrwt>
</event>
<event>
12    1  0.1504874E-007  0.2084757E+04  0.7818608E-02  0.8567988E-01
         -1   -1    0    0    0  501 -0.00000000000E+00  0.00000000000E+00  0.37727572489E+03  0.37727572489E+03  0.00000000000E+00 0.  1.
          1   -1    0    0  501    0  0.00000000000E+00 -0.00000000000E+00 -0.28799978325E+04  0.28799978325E+04  0.00000000000E+00 0. -1.
         23    2    1    2    0    0 -0.22514262976E+03  0.83481934444E+03 -0.95678668002E+03  0.12923243367E+04  0.83957718975E+02 0.  0.
        254    2    1    2    0    0  0.22514262976E+03 -0.83481934444E+03 -0.15459354276E+04  0.19649492207E+04  0.85058600510E+03 0.  0.
        -24    2    4    4    0    0  0.30496415295E+02 -0.39453711835E+03 -0.13978399411E+04  0.14550904346E+04  0.82110308380E+02 0.  0.
         24    2    4    4    0    0  0.19464621446E+03 -0.44028222610E+03 -0.14809548653E+03  0.50985878617E+03  0.79297675119E+02 0.  0.
         13    1    3    3    0    0 -0.18934722456E+03  0.77424146381E+03 -0.89727772569E+03  0.12001706265E+04  0.00000000000E+00 0.  1.
        -13    1    3    3    0    0 -0.35795405203E+02  0.60577880636E+02 -0.59508954329E+02  0.92153710188E+02  0.00000000000E+00 0. -1.
          4    1    6    6  502    0  0.10894616417E+03 -0.19342304377E+03 -0.33438944140E+02  0.22449922836E+03  0.00000000000E+00 0. -1.
          1    1    5    5  503    0  0.50571409502E+02 -0.27119768650E+03 -0.87158687284E+03  0.91420420560E+03  0.00000000000E+00 0. -1.
         -2    1    5    5    0  503 -0.20074994207E+02 -0.12333943185E+03 -0.52625306825E+03  0.54088622897E+03  0.00000000000E+00 0.  1.
         -3    1    6    6    0  502  0.85700050293E+02 -0.24685918233E+03 -0.11465654239E+03  0.28535955781E+03  0.00000000000E+00 0.  1.
<mgrwt>
<rscale>  0 0.20847573E+04</rscale>
<asrwt>0</asrwt>
<pdfrwt beam="1">  1        1 0.44307660E+00 0.20847573E+04</pdfrwt>
<pdfrwt beam="2">  1       -1 0.58042417E-01 0.20847573E+04</pdfrwt>
<totfact> 0.20247455E+00</totfact>
</mgrwt>
</event>
<event>
12    1  0.1504874E-007  0.2446446E+04  0.7818608E-02  0.8422317E-01
         -2   -1    0    0    0  501 -0.00000000000E+00  0.00000000000E+00  0.49150614128E+03  0.49150614128E+03  0.00000000000E+00 0. -1.
          2   -1    0    0  501    0  0.00000000000E+00 -0.00000000000E+00 -0.30442652703E+04  0.30442652703E+04  0.00000000000E+00 0.  1.
         23    2    1    2    0    0 -0.10261921404E+04 -0.17723291789E+03 -0.91657848007E+03  0.13905150977E+04  0.94521481081E+02 0.  0.
        254    2    1    2    0    0  0.10261921404E+04  0.17723291789E+03 -0.16361806490E+04  0.21452563140E+04  0.91681825911E+03 0.  0.
        -24    2    4    4    0    0  0.10106277410E+04  0.42958533863E+03 -0.14534635009E+04  0.18233094773E+04  0.77390615825E+02 0.  0.
         24    2    4    4    0    0  0.15564399486E+02 -0.25235242075E+03 -0.18271714806E+03  0.32194683671E+03  0.79625465025E+02 0.  0.
         13    1    3    3    0    0 -0.39572141820E+03 -0.80719604861E+02 -0.29707982299E+03  0.50136565165E+03  0.00000000000E+00 0. -1.
        -13    1    3    3    0    0 -0.63047072224E+03 -0.96513313025E+02 -0.61949865708E+03  0.88914944600E+03  0.00000000000E+00 0.  1.
          4    1    6    6  502    0 -0.24988940761E+02 -0.16911598955E+03 -0.13471912810E+03  0.21765548134E+03  0.00000000000E+00 0. -1.
          1    1    5    5  503    0  0.10746186812E+03  0.44550974253E+02 -0.11722732661E+03  0.16515171362E+03  0.00000000000E+00 0. -1.
         -2    1    5    5    0  503  0.90316587284E+03  0.38503436438E+03 -0.13362361743E+04  0.16581577636E+04  0.00000000000E+00 0.  1.
         -3    1    6    6    0  502  0.40553340247E+02 -0.83236431198E+02 -0.47998019969E+02  0.10429135537E+03  0.00000000000E+00 0.  1.
<mgrwt>
<rscale>  0 0.24464465E+04</rscale>
<asrwt>0</asrwt>
<pdfrwt beam="1">  1        2 0.46834851E+00 0.24464465E+04</pdfrwt>
<pdfrwt beam="2">  1       -2 0.75616328E-01 0.24464465E+04</pdfrwt>
<totfact> 0.22945466E+00</totfact>
</mgrwt>
</event>
<event>
12    1  0.1504874E-007  0.2081869E+04  0.7818608E-02  0.8569273E-01
          2   -1    0    0  501    0  0.00000000000E+00  0.00000000000E+00  0.10173995671E+04  0.10173995671E+04  0.00000000000E+00 0.  1.
         -2   -1    0    0    0  501 -0.00000000000E+00 -0.00000000000E+00 -0.10650135530E+04  0.10650135530E+04  0.00000000000E+00 0. -1.
         23    2    1    2    0    0 -0.13149733568E+03  0.63665842508E+03  0.52276271579E+03  0.83911292490E+03  0.90576730993E+02 0.  0.
        254    2    1    2    0    0  0.13149733568E+03 -0.63665842508E+03 -0.57037670170E+03  0.12433001952E+04  0.89321906271E+03 0.  0.
        -24    2    4    4    0    0  0.14276155455E+03  0.20027066119E+03 -0.82533035954E+02  0.27134711608E+03  0.79550965999E+02 0.  0.
         24    2    4    4    0    0 -0.11264218873E+02 -0.83692908627E+03 -0.48784366575E+03  0.97195307910E+03  0.78257061616E+02 0.  0.
         13    1    3    3    0    0  0.83633869553E+01  0.69535862099E+02  0.35897972472E+02  0.78700996098E+02  0.00000000000E+00 0. -1.
        -13    1    3    3    0    0 -0.13986072263E+03  0.56712256298E+03  0.48686474331E+03  0.76041192880E+03  0.00000000000E+00 0.  1.
          2    1    6    6  502    0 -0.20853024607E+02 -0.75202160782E+03 -0.46129591043E+03  0.88247677830E+03  0.00000000000E+00 0. -1.
          3    1    5    5  503    0  0.58151797108E+02  0.76198879137E+02  0.76764738321E+01  0.96160433335E+02  0.00000000000E+00 0. -1.
         -4    1    5    5    0  503  0.84609757441E+02  0.12407178205E+03 -0.90209509786E+02  0.17518668275E+03  0.00000000000E+00 0.  1.
         -1    1    6    6    0  502  0.95888057343E+01 -0.84907478455E+02 -0.26547755317E+02  0.89476300803E+02  0.00000000000E+00 0.  1.
<mgrwt>
<rscale>  0 0.20818687E+04</rscale>
<asrwt>0</asrwt>
<pdfrwt beam="1">  1        2 0.15652301E+00 0.20818687E+04</pdfrwt>
<pdfrwt beam="2">  1       -2 0.16384824E+00 0.20818687E+04</pdfrwt>
<totfact> 0.53469145E+00</totfact>
</mgrwt>
</event>
<event>
12    1  0.1504874E-007  0.1468884E+04  0.7818608E-02  0.8905413E-01
         -1   -1    0    0    0  501 -0.00000000000E+00  0.00000000000E+00  0.65424302700E+03  0.65424302700E+03  0.00000000000E+00 0.  1.
          1   -1    0    0  501    0  0.00000000000E+00 -0.00000000000E+00 -0.82447171699E+03  0.82447171699E+03  0.00000000000E+00 0. -1.
         23    2    1    2    0    0  0.99147964887E+02  0.16154843412E+03  0.35923162033E+03  0.41564350822E+03  0.88226715744E+02 0.  0.
        254    2    1    2    0    0 -0.99147964887E+02 -0.16154843412E+03 -0.52946031032E+03  0.10630712358E+04  0.90214412186E+03 0.  0.
        -24    2    4    4    0    0 -0.36732434227E+03  0.18219628102E+03 -0.44733365301E+03  0.61245915063E+03  0.82922595437E+02 0.  0.
         24    2    4    4    0    0  0.26817637738E+03 -0.34374471514E+03 -0.82126657308E+02  0.45061208514E+03  0.78914288049E+02 0.  0.
         13    1    3    3    0    0  0.26841448021E+02 -0.48646151273E+01  0.55550288143E+02  0.61886689400E+02  0.00000000000E+00 0. -1.
        -13    1    3    3    0    0  0.72306516866E+02  0.16641304924E+03  0.30368133219E+03  0.35375681882E+03  0.00000000000E+00 0.  1.
          2    1    6    6  502    0  0.23298307457E+03 -0.28514673488E+03 -0.40173647332E+02  0.37041017182E+03  0.00000000000E+00 0. -1.
          1    1    5    5  503    0 -0.34542210856E+03  0.16545218375E+03 -0.37922765576E+03  0.53898466869E+03  0.00000000000E+00 0. -1.
         -2    1    5    5    0  503 -0.21902233709E+02  0.16744097273E+02 -0.68105997253E+02  0.73474481943E+02  0.00000000000E+00 0.  1.
         -1    1    6    6    0  502  0.35193302811E+02 -0.58597980265E+02 -0.41953009976E+02  0.80201913318E+02  0.00000000000E+00 0.  1.
<mgrwt>
<rscale>  0 0.14688838E+04</rscale>
<asrwt>0</asrwt>
<pdfrwt beam="1">  1        1 0.12684180E+00 0.14688838E+04</pdfrwt>
<pdfrwt beam="2">  1       -1 0.10065277E+00 0.14688838E+04</pdfrwt>
<totfact> 0.19180987E+01</totfact>
</mgrwt>
</event>
<event>
12    1  0.1504874E-007  0.3179600E+04  0.7818608E-02  0.8194226E-01
         -2   -1    0    0    0  501 -0.00000000000E+00  0.00000000000E+00  0.67564232512E+03  0.67564232512E+03  0.00000000000E+00 0. -1.
          2   -1    0    0  501    0  0.00000000000E+00 -0.00000000000E+00 -0.37408318882E+04  0.37408318882E+04  0.00000000000E+00 0.  1.
         23    2    1    2    0    0  0.63001293685E+02  0.19761099118E+03 -0.33521048201E+04  0.33594922041E+04  0.81005418997E+02 0.  0.
        254    2    1    2    0    0 -0.63001293685E+02 -0.19761099118E+03  0.28691525698E+03  0.10569820092E+04  0.99592737501E+03 0.  0.
        -24    2    4    4    0    0 -0.25807761238E+03  0.11340753536E+03  0.53290872542E+03  0.60799732495E+03  0.78763661861E+02 0.  0.
         24    2    4    4    0    0  0.19507631869E+03 -0.31101852654E+03 -0.24599346843E+03  0.44898468428E+03  0.79291653000E+02 0.  0.
         13    1    3    3    0    0  0.75942681077E+02  0.15625485368E+03 -0.29363881009E+04  0.29415230662E+04  0.00000000000E+00 0.  1.
        -13    1    3    3    0    0 -0.12941387392E+02  0.41356137499E+02 -0.41571671920E+03  0.41796913790E+03  0.00000000000E+00 0. -1.
          4    1    6    6  502    0  0.54220850522E+02 -0.13798148121E+03 -0.13166869767E+03  0.19828120368E+03  0.00000000000E+00 0. -1.
          1    1    5    5  503    0 -0.18300145652E+03  0.10765029441E+03  0.43885765239E+03  0.48751836687E+03  0.00000000000E+00 0. -1.
         -2    1    5    5    0  503 -0.75076155857E+02  0.57572409530E+01  0.94051073026E+02  0.12047895808E+03  0.00000000000E+00 0.  1.
         -3    1    6    6    0  502  0.14085546817E+03 -0.17303704533E+03 -0.11432477076E+03  0.25070348059E+03  0.00000000000E+00 0.  1.
<mgrwt>
<rscale>  0 0.31796002E+04</rscale>
<asrwt>0</asrwt>
<pdfrwt beam="1">  1        2 0.57551259E+00 0.31796002E+04</pdfrwt>
<pdfrwt beam="2">  1       -2 0.10394497E+00 0.31796002E+04</pdfrwt>
<totfact> 0.34526067E-01</totfact>
</mgrwt>
</event>
<event>
12    1  0.1504874E-007  0.1233110E+04  0.7818608E-02  0.9084359E-01
          2   -1    0    0  501    0  0.00000000000E+00  0.00000000000E+00  0.30662174907E+03  0.30662174907E+03  0.00000000000E+00 0. -1.
         -2   -1    0    0    0  501 -0.00000000000E+00 -0.00000000000E+00 -0.12397685354E+04  0.12397685354E+04  0.00000000000E+00 0.  1.
         23    2    1    2    0    0  0.26544367285E+02 -0.50879626815E+02  0.11645578295E+03  0.16510961001E+03  0.10200928427E+03 0.  0.
        254    2    1    2    0    0 -0.26544367285E+02  0.50879626815E+02 -0.10496025692E+04  0.13812806744E+04  0.89609006707E+03 0.  0.
        -24    2    4    4    0    0  0.34612163444E+03 -0.13918937590E+03 -0.19900182943E+03  0.43000123739E+03  0.78265368146E+02 0.  0.
         24    2    4    4    0    0 -0.37266600172E+03  0.19006900272E+03 -0.85060073981E+03  0.95127943703E+03  0.80029832609E+02 0.  0.
         13    1    3    3    0    0  0.18951848979E+02 -0.82121501934E+02  0.91577723754E+02  0.12445719404E+03  0.00000000000E+00 0. -1.
        -13    1    3    3    0    0  0.75925183064E+01  0.31241875119E+02  0.24878059199E+02  0.40652415976E+02  0.00000000000E+00 0.  1.
          4    1    6    6  502    0 -0.13240225304E+02  0.26947424596E+02 -0.43812881155E+02  0.53113424043E+02  0.00000000000E+00 0. -1.
          3    1    5    5  503    0  0.15850255550E+02  0.17058941217E+01 -0.28164265135E+02  0.32363042292E+02  0.00000000000E+00 0. -1.
         -4    1    5    5    0  503  0.33027137889E+03 -0.14089527003E+03 -0.17083756430E+03  0.39763819510E+03  0.00000000000E+00 0.  1.
         -3    1    6    6    0  502 -0.35942577642E+03  0.16312157812E+03 -0.80678785866E+03  0.89816601298E+03  0.00000000000E+00 0.  1.
<mgrwt>
<rscale>  0 0.12331099E+04</rscale>
<asrwt>0</asrwt>
<pdfrwt beam="1">  1        2 0.47172577E-01 0.12331099E+04</pdfrwt>
<pdfrwt beam="2">  1       -2 0.19073362E+00 0.12331099E+04</pdfrwt>
<totfact> 0.16152679E+01</totfact>
</mgrwt>
</event>
<event>
12    1  0.1504874E-007  0.1727206E+04  0.7818608E-02  0.8745998E-01
          2   -1    0    0  501    0  0.00000000000E+00  0.00000000000E+00  0.28521709097E+04  0.28521709097E+04  0.00000000000E+00 0. -1.
         -2   -1    0    0    0  501 -0.00000000000E+00 -0.00000000000E+00 -0.26148863801E+03  0.26148863801E+03  0.00000000000E+00 0.  1.
         23    2    1    2    0    0  0.20756461944E+03  0.47980535916E+02  0.19720950347E+04  0.19854872009E+04  0.87266236782E+02 0.  0.
        254    2    1    2    0    0 -0.20756461944E+03 -0.47980535916E+02  0.61858723700E+03  0.11281723468E+04  0.91909600762E+03 0.  0.
        -24    2    4    4    0    0 -0.15957609995E+03 -0.96950991028E+02 -0.21070435568E+03  0.29221482639E+03  0.78288906782E+02 0.  0.
         24    2    4    4    0    0 -0.47988519497E+02  0.48970455112E+02  0.82929159267E+03  0.83595752040E+03  0.79996417169E+02 0.  0.
         11    1    3    3    0    0  0.21408107464E+03  0.38292316285E+02  0.18207204516E+04  0.18336629927E+04  0.00000000000E+00 0. -1.
        -11    1    3    3    0    0 -0.65164551976E+01  0.96882196314E+01  0.15137458310E+03  0.15182420820E+03  0.00000000000E+00 0.  1.
          2    1    6    6  502    0  0.16431870782E+02 -0.82852270692E+01  0.18841537568E+03  0.18931192556E+03  0.00000000000E+00 0. -1.
          1    1    5    5  503    0  0.77154374179E+01 -0.12204847509E+02 -0.20809622985E+02  0.25328377091E+02  0.00000000000E+00 0. -1.
         -2    1    5    5    0  503 -0.16729153737E+03 -0.84746143519E+02 -0.18989473269E+03  0.26688644930E+03  0.00000000000E+00 0.  1.
         -3    1    6    6    0  502 -0.64420390279E+02  0.57255682181E+02  0.64087621699E+03  0.64664559485E+03  0.00000000000E+00 0.  1.
<mgrwt>
<rscale>  0 0.17272062E+04</rscale>
<asrwt>0</asrwt>
<pdfrwt beam="1">  1        2 0.43879550E+00 0.17272062E+04</pdfrwt>
<pdfrwt beam="2">  1       -2 0.40229023E-01 0.17272062E+04</pdfrwt>
<totfact> 0.11978127E+01</totfact>
</mgrwt>
</event>
<event>
12    1  0.1504874E-007  0.2537748E+04  0.7818608E-02  0.8389660E-01
         -1   -1    0    0    0  501 -0.00000000000E+00  0.00000000000E+00  0.20087075969E+04  0.20087075969E+04  0.00000000000E+00 0.  1.
          1   -1    0    0  501    0  0.00000000000E+00 -0.00000000000E+00 -0.80153115609E+03  0.80153115609E+03  0.00000000000E+00 0. -1.
         23    2    1    2    0    0 -0.50486966461E+03  0.67217597103E+03  0.13262136606E+04  0.15729091430E+04  0.92122657589E+02 0.  0.
        254    2    1    2    0    0  0.50486966461E+03 -0.67217597103E+03 -0.11903721983E+03  0.12373296100E+04  0.90005599264E+03 0.  0.
        -24    2    4    4    0    0  0.47712572919E+03  0.34751810313E+02 -0.19195491075E+03  0.52162305462E+03  0.79920420271E+02 0.  0.
         24    2    4    4    0    0  0.27743935422E+02 -0.70692778135E+03  0.72917690913E+02  0.71570655542E+03  0.80014185180E+02 0.  0.
         11    1    3    3    0    0 -0.50393796302E+03  0.65014903613E+03  0.12773095037E+04  0.15192652198E+04  0.00000000000E+00 0.  1.
        -11    1    3    3    0    0 -0.93170158990E+00  0.22026934901E+02  0.48904156898E+02  0.53643923149E+02  0.00000000000E+00 0. -1.
          2    1    6    6  502    0  0.11401694551E+02 -0.72106969120E+02 -0.15265746088E+02  0.74581878750E+02  0.00000000000E+00 0. -1.
          3    1    5    5  503    0  0.56455453192E+02 -0.16031173623E+02 -0.63471592265E+01  0.59029680272E+02  0.00000000000E+00 0. -1.
         -4    1    5    5    0  503  0.42067027600E+03  0.50782983936E+02 -0.18560775152E+03  0.46259337435E+03  0.00000000000E+00 0.  1.
         -1    1    6    6    0  502  0.16342240871E+02 -0.63482081223E+03  0.88183437001E+02  0.64112467667E+03  0.00000000000E+00 0.  1.
<mgrwt>
<rscale>  0 0.25377484E+04</rscale>
<asrwt>0</asrwt>
<pdfrwt beam="1">  1        1 0.12331249E+00 0.25377484E+04</pdfrwt>
<pdfrwt beam="2">  1       -1 0.30903194E+00 0.25377484E+04</pdfrwt>
<totfact> 0.56318837E-01</totfact>
</mgrwt>
</event>
<event>
12    1  0.1504874E-007  0.1360775E+04  0.7818608E-02  0.8982711E-01
         -1   -1    0    0    0  501 -0.00000000000E+00  0.00000000000E+00  0.19211498354E+03  0.19211498354E+03  0.00000000000E+00 0.  1.
          1   -1    0    0  501    0  0.00000000000E+00 -0.00000000000E+00 -0.24096357066E+04  0.24096357066E+04  0.00000000000E+00 0. -1.
         23    2    1    2    0    0  0.36133526395E+03 -0.94596865037E+02 -0.63158911353E+03  0.74106175154E+03  0.10371099952E+03 0.  0.
        254    2    1    2    0    0 -0.36133526395E+03  0.94596865037E+02 -0.15859316095E+04  0.18606889386E+04  0.89859474531E+03 0.  0.
        -24    2    4    4    0    0  0.14339260281E+03 -0.12988144616E+03 -0.35205561895E+02  0.21254450769E+03  0.80654247039E+02 0.  0.
         24    2    4    4    0    0 -0.50472786676E+03  0.22447831119E+03 -0.15507260477E+04  0.16481444309E+04  0.80548486403E+02 0.  0.
         11    1    3    3    0    0  0.16010298639E+03 -0.31713132120E+02 -0.18181202918E+03  0.24432417595E+03  0.00000000000E+00 0.  1.
        -11    1    3    3    0    0  0.20123227756E+03 -0.62883732917E+02 -0.44977708435E+03  0.49673757559E+03  0.00000000000E+00 0. -1.
          4    1    6    6  502    0 -0.18533658006E+03  0.46694605017E+02 -0.59249004905E+03  0.62255481065E+03  0.00000000000E+00 0. -1.
          3    1    5    5  503    0  0.49134771859E+02 -0.44163069063E+02  0.26252892841E+02  0.71090202259E+02  0.00000000000E+00 0. -1.
         -4    1    5    5    0  503  0.94257830951E+02 -0.85718377093E+02 -0.61458454736E+02  0.14145430543E+03  0.00000000000E+00 0.  1.
         -3    1    6    6    0  502 -0.31939128670E+03  0.17778370618E+03 -0.95823599861E+03  0.10255896203E+04  0.00000000000E+00 0.  1.
<mgrwt>
<rscale>  0 0.13607750E+04</rscale>
<asrwt>0</asrwt>
<pdfrwt beam="1">  1        1 0.37071320E+00 0.13607750E+04</pdfrwt>
<pdfrwt beam="2">  1       -1 0.29556150E-01 0.13607750E+04</pdfrwt>
<totfact> 0.16080457E+01</totfact>
</mgrwt>
</event>
<event>
12    1  0.1504874E-007  0.1743750E+04  0.7818608E-02  0.8736798E-01
         -2   -1    0    0    0  501 -0.00000000000E+00  0.00000000000E+00  0.47960385157E+03  0.47960385157E+03  0.00000000000E+00 0.  1.
          2   -1    0    0  501    0  0.00000000000E+00 -0.00000000000E+00 -0.15849873033E+04  0.15849873033E+04  0.00000000000E+00 0. -1.
         23    2    1    2    0    0  0.50411776810E+03  0.34710085599E+03 -0.21521493033E+03  0.65545459692E+03  0.93217670233E+02 0.  0.
        254    2    1    2    0    0 -0.50411776810E+03 -0.34710085599E+03 -0.89016852141E+03  0.14091365580E+04  0.90479396227E+03 0.  0.
        -24    2    4    4    0    0 -0.27962048423E+03 -0.53451467864E+03 -0.92171304295E+03  0.11042657890E+04  0.77165033039E+02 0.  0.
         24    2    4    4    0    0 -0.22449728387E+03  0.18741382265E+03  0.31544521541E+02  0.30487076897E+03  0.80175791539E+02 0.  0.
         11    1    3    3    0    0  0.23031974767E+03  0.19230528913E+03 -0.65500864731E+02  0.30711377969E+03  0.00000000000E+00 0.  1.
        -11    1    3    3    0    0  0.27379802043E+03  0.15479556686E+03 -0.14971406560E+03  0.34834081723E+03  0.00000000000E+00 0. -1.
          2    1    6    6  502    0 -0.13981854544E+03  0.16368458577E+03  0.20723119862E+02  0.21626677268E+03  0.00000000000E+00 0. -1.
          3    1    5    5  503    0 -0.16912222237E+03 -0.27826932877E+03 -0.55463092483E+03  0.64315752986E+03  0.00000000000E+00 0. -1.
         -4    1    5    5    0  503 -0.11049826186E+03 -0.25624534987E+03 -0.36708211812E+03  0.46110825914E+03  0.00000000000E+00 0.  1.
         -1    1    6    6    0  502 -0.84678738425E+02  0.23729236878E+02  0.10821401678E+02  0.88603996288E+02  0.00000000000E+00 0.  1.
<mgrwt>
<rscale>  0 0.17437500E+04</rscale>
<asrwt>0</asrwt>
<pdfrwt beam="1">  1        2 0.24384421E+00 0.17437500E+04</pdfrwt>
<pdfrwt beam="2">  1       -2 0.73785206E-01 0.17437500E+04</pdfrwt>
<totfact> 0.17849876E+01</totfact>
</mgrwt>
</event>
<event>
12    1  0.1504874E-007  0.2453528E+04  0.7818608E-02  0.8419731E-01
         -2   -1    0    0    0  501 -0.00000000000E+00  0.00000000000E+00  0.72479943737E+03  0.72479943737E+03  0.00000000000E+00 0.  1.
          2   -1    0    0  501    0  0.00000000000E+00 -0.00000000000E+00 -0.20763668727E+04  0.20763668727E+04  0.00000000000E+00 0. -1.
         23    2    1    2    0    0  0.58229729089E+03  0.12505935423E+03 -0.15867154835E+04  0.16972096981E+04  0.90248306862E+02 0.  0.
        254    2    1    2    0    0 -0.58229729089E+03 -0.12505935423E+03  0.23514804808E+03  0.11039566120E+04  0.89928617224E+03 0.  0.
        -24    2    4    4    0    0 -0.43748585175E+03 -0.32504450802E+03  0.49230285627E+03  0.73870575435E+03  0.79223017682E+02 0.  0.
         24    2    4    4    0    0 -0.14481143914E+03  0.19998515379E+03 -0.25715480819E+03  0.36525085765E+03  0.79468100468E+02 0.  0.
         13    1    3    3    0    0  0.54425931642E+02 -0.85618565158E+01 -0.10442255195E+03  0.11806590015E+03  0.00000000000E+00 0.  1.
        -13    1    3    3    0    0  0.52787135925E+03  0.13362121074E+03 -0.14822929315E+04  0.15791437980E+04  0.00000000000E+00 0. -1.
          2    1    6    6  502    0 -0.14664918801E+03  0.19443206593E+03 -0.26196284786E+03  0.35767911075E+03  0.00000000000E+00 0. -1.
          3    1    5    5  503    0 -0.13491186932E+03 -0.12858949618E+03  0.12865292831E+03  0.22646864457E+03  0.00000000000E+00 0. -1.
         -4    1    5    5    0  503 -0.30257398243E+03 -0.19645501184E+03  0.36364992796E+03  0.51223710978E+03  0.00000000000E+00 0.  1.
         -1    1    6    6    0  502  0.18377488677E+01  0.55530878602E+01  0.48080396666E+01  0.75717469001E+01  0.00000000000E+00 0.  1.
<mgrwt>
<rscale>  0 0.24535277E+04</rscale>
<asrwt>0</asrwt>
<pdfrwt beam="1">  1        2 0.31944105E+00 0.24535277E+04</pdfrwt>
<pdfrwt beam="2">  1       -2 0.11150761E+00 0.24535277E+04</pdfrwt>
<totfact> 0.34470491E+00</totfact>
</mgrwt>
</event>
<event>
12    1  0.1504874E-007  0.2672410E+04  0.7818608E-02  0.8344013E-01
         -1   -1    0    0    0  501 -0.00000000000E+00  0.00000000000E+00  0.71920866306E+03  0.71920866306E+03  0.00000000000E+00 0.  1.
          1   -1    0    0  501    0  0.00000000000E+00 -0.00000000000E+00 -0.24825109262E+04  0.24825109262E+04  0.00000000000E+00 0. -1.
         23    2    1    2    0    0 -0.73092503414E+03 -0.84568289911E+02  0.32845556402E+03  0.81103486072E+03  0.92148177334E+02 0.  0.
        254    2    1    2    0    0  0.73092503414E+03  0.84568289911E+02 -0.20917578272E+04  0.23906847286E+04  0.89359916216E+03 0.  0.
        -24    2    4    4    0    0  0.39538942304E+03 -0.39290179706E+03 -0.90800594280E+03  0.10683726708E+04  0.78998440377E+02 0.  0.
         24    2    4    4    0    0  0.33553561110E+03  0.47747008697E+03 -0.11837518844E+04  0.13223120578E+04  0.81724072652E+02 0.  0.
         11    1    3    3    0    0 -0.43824274871E+02 -0.88423678448E+00 -0.22948195112E+01  0.43893224297E+02  0.00000000000E+00 0. -1.
        -11    1    3    3    0    0 -0.68710075926E+03 -0.83684053126E+02  0.33075038353E+03  0.76714163642E+03  0.00000000000E+00 0.  1.
          4    1    6    6  502    0  0.28042422872E+03  0.33855370540E+03 -0.86774654667E+03  0.97274890324E+03  0.00000000000E+00 0. -1.
          3    1    5    5  503    0  0.17182767516E+03 -0.21099178024E+03 -0.38930885354E+03  0.47497754129E+03  0.00000000000E+00 0. -1.
         -4    1    5    5    0  503  0.22356174788E+03 -0.18191001682E+03 -0.51869708926E+03  0.59339512952E+03  0.00000000000E+00 0.  1.
         -1    1    6    6    0  502  0.55111382379E+02  0.13891638157E+03 -0.31600533772E+03  0.34956315453E+03  0.00000000000E+00 0.  1.
<mgrwt>
<rscale>  0 0.26724097E+04</rscale>
<asrwt>0</asrwt>
<pdfrwt beam="1">  1        1 0.38192475E+00 0.26724097E+04</pdfrwt>
<pdfrwt beam="2">  1       -1 0.11064749E+00 0.26724097E+04</pdfrwt>
<totfact> 0.91730170E-01</totfact>
</mgrwt>
</event>
<event>
12    1  0.1504874E-007  0.1581205E+04  0.7818608E-02  0.8832178E-01
         -2   -1    0    0    0  501 -0.00000000000E+00  0.00000000000E+00  0.70100350960E+03  0.70100350960E+03  0.00000000000E+00 0.  1.
          2   -1    0    0  501    0  0.00000000000E+00 -0.00000000000E+00 -0.89165361069E+03  0.89165361069E+03  0.00000000000E+00 0. -1.
         23    2    1    2    0    0  0.40190820978E+03 -0.16983561218E+03 -0.44938714887E+03  0.63297838316E+03  0.91315276471E+02 0.  0.
        254    2    1    2    0    0 -0.40190820978E+03  0.16983561218E+03  0.25873704779E+03  0.95967873713E+03  0.81465580115E+03 0.  0.
        -24    2    4    4    0    0 -0.16614310152E+03 -0.30911716096E+03  0.21012605875E+03  0.41649379854E+03  0.78467663892E+02 0.  0.
         24    2    4    4    0    0 -0.23576510826E+03  0.47895277314E+03  0.48610989044E+02  0.54318493860E+03  0.87783279132E+02 0.  0.
         13    1    3    3    0    0  0.30381307829E+03 -0.15347705814E+03 -0.30117667932E+03  0.45449420907E+03  0.00000000000E+00 0. -1.
        -13    1    3    3    0    0  0.98095131495E+02 -0.16358554039E+02 -0.14821046956E+03  0.17848417409E+03  0.00000000000E+00 0.  1.
          2    1    6    6  502    0 -0.71591070664E+02  0.14114117169E+03  0.54981623135E+02  0.16753832585E+03  0.00000000000E+00 0. -1.
          1    1    5    5  503    0 -0.25178710639E+02 -0.31469560905E+02  0.56161881389E+02  0.69126388985E+02  0.00000000000E+00 0. -1.
         -2    1    5    5    0  503 -0.14096439088E+03 -0.27764760005E+03  0.15396417736E+03  0.34736740955E+03  0.00000000000E+00 0.  1.
         -1    1    6    6    0  502 -0.16417403760E+03  0.33781160145E+03 -0.63706340919E+01  0.37564661275E+03  0.00000000000E+00 0.  1.
<mgrwt>
<rscale>  0 0.15812050E+04</rscale>
<asrwt>0</asrwt>
<pdfrwt beam="1">  1        2 0.13717748E+00 0.15812050E+04</pdfrwt>
<pdfrwt beam="2">  1       -2 0.10784669E+00 0.15812050E+04</pdfrwt>
<totfact> 0.19664185E+01</totfact>
</mgrwt>
</event>
<event>
12    1  0.1504874E-007  0.1474964E+04  0.7818608E-02  0.8901275E-01
          2   -1    0    0  501    0  0.00000000000E+00  0.00000000000E+00  0.53225283393E+03  0.53225283393E+03  0.00000000000E+00 0. -1.
         -2   -1    0    0    0  501 -0.00000000000E+00 -0.00000000000E+00 -0.10218443627E+04  0.10218443627E+04  0.00000000000E+00 0.  1.
         23    2    1    2    0    0 -0.86830663810E+02  0.39784332465E+03 -0.38051729784E+03  0.56364449698E+03  0.84159550062E+02 0.  0.
        254    2    1    2    0    0  0.86830663810E+02 -0.39784332465E+03 -0.10907423091E+03  0.99045269963E+03  0.89625916297E+03 0.  0.
        -24    2    4    4    0    0  0.44392742992E+03 -0.98735689778E+02 -0.21268661060E+03  0.50739816245E+03  0.73464286953E+02 0.  0.
         24    2    4    4    0    0 -0.35709676611E+03 -0.29910763488E+03  0.10361237969E+03  0.48305453718E+03  0.74984552118E+02 0.  0.
         13    1    3    3    0    0 -0.72626176836E+02  0.39358528445E+03 -0.35990526167E+03  0.53825248265E+03  0.00000000000E+00 0.  1.
        -13    1    3    3    0    0 -0.14204486974E+02  0.42580402022E+01 -0.20612036173E+02  0.25392014330E+02  0.00000000000E+00 0. -1.
          2    1    6    6  502    0 -0.62528823157E+02 -0.90209645819E+02  0.37077366204E+02  0.11585493088E+03  0.00000000000E+00 0. -1.
          1    1    5    5  503    0  0.23510333486E+03 -0.89375944868E+02 -0.11042886725E+03  0.27469286905E+03  0.00000000000E+00 0. -1.
         -2    1    5    5    0  503  0.20882409506E+03 -0.93597449101E+01 -0.10225774335E+03  0.23270529340E+03  0.00000000000E+00 0.  1.
         -1    1    6    6    0  502 -0.29456794295E+03 -0.20889798906E+03  0.66535013489E+02  0.36719960630E+03  0.00000000000E+00 0.  1.
<mgrwt>
<rscale>  0 0.14749638E+04</rscale>
<asrwt>0</asrwt>
<pdfrwt beam="1">  1        2 0.81885052E-01 0.14749638E+04</pdfrwt>
<pdfrwt beam="2">  1       -2 0.15720682E+00 0.14749638E+04</pdfrwt>
<totfact> 0.14624834E+01</totfact>
</mgrwt>
</event>
<event>
12    1  0.1504874E-007  0.1128677E+04  0.7818608E-02  0.9177683E-01
          2   -1    0    0  501    0  0.00000000000E+00  0.00000000000E+00  0.72352191516E+03  0.72352191516E+03  0.00000000000E+00 0. -1.
         -2   -1    0    0    0  501 -0.00000000000E+00 -0.00000000000E+00 -0.44017759811E+03  0.44017759811E+03  0.00000000000E+00 0.  1.
         23    2    1    2    0    0 -0.11911194180E+03  0.13962239832E+03  0.31174891115E+02  0.20825875799E+03  0.93368986569E+02 0.  0.
        254    2    1    2    0    0  0.11911194180E+03 -0.13962239832E+03  0.25216942593E+03  0.95544075528E+03  0.90310328794E+03 0.  0.
        -24    2    4    4    0    0  0.17504642758E+03 -0.14813662981E+03  0.57143878208E+03  0.62138540830E+03  0.83617169854E+02 0.  0.
         24    2    4    4    0    0 -0.55934485777E+02  0.85142314920E+01 -0.31926935615E+03  0.33405534698E+03  0.80367246030E+02 0.  0.
         13    1    3    3    0    0 -0.49343632821E+02  0.79918725349E+02  0.60665399368E+02  0.11181273381E+03  0.00000000000E+00 0.  1.
        -13    1    3    3    0    0 -0.69768308978E+02  0.59703672967E+02 -0.29490508252E+02  0.96446024181E+02  0.00000000000E+00 0. -1.
          2    1    6    6  502    0 -0.43850491736E+02  0.35966985001E+02 -0.12223714097E+03  0.13475313825E+03  0.00000000000E+00 0. -1.
          3    1    5    5  503    0  0.63135222132E+02 -0.83011989161E+02  0.16860846890E+03  0.19825706142E+03  0.00000000000E+00 0. -1.
         -4    1    5    5    0  503  0.11191120544E+03 -0.65124640647E+02  0.40283031317E+03  0.42312834688E+03  0.00000000000E+00 0.  1.
         -1    1    6    6    0  502 -0.12083994041E+02 -0.27452753509E+02 -0.19703221518E+03  0.19930220873E+03  0.00000000000E+00 0.  1.
<mgrwt>
<rscale>  0 0.11286773E+04</rscale>
<asrwt>0</asrwt>
<pdfrwt beam="1">  1        2 0.11131106E+00 0.11286773E+04</pdfrwt>
<pdfrwt beam="2">  1       -2 0.67719631E-01 0.11286773E+04</pdfrwt>
<totfact> 0.77832898E+01</totfact>
</mgrwt>
</event>
<event>
12    1  0.1504874E-007  0.1814978E+04  0.7818608E-02  0.8698375E-01
         -2   -1    0    0    0  501 -0.00000000000E+00  0.00000000000E+00  0.46513987207E+03  0.46513987207E+03  0.00000000000E+00 0. -1.
          2   -1    0    0  501    0  0.00000000000E+00 -0.00000000000E+00 -0.17705127083E+04  0.17705127083E+04  0.00000000000E+00 0.  1.
         23    2    1    2    0    0 -0.62663252331E+02 -0.34647871706E+03  0.22122800536E+03  0.42600726162E+03  0.92553617058E+02 0.  0.
        254    2    1    2    0    0  0.62663252331E+02  0.34647871706E+03 -0.15266008416E+04  0.18096453187E+04  0.90572173735E+03 0.  0.
        -24    2    4    4    0    0  0.14017261042E+03 -0.12179416182E+03 -0.12249703148E+04  0.12415404788E+04  0.79926902169E+02 0.  0.
         24    2    4    4    0    0 -0.77509358089E+02  0.46827287889E+03 -0.30163052677E+03  0.56810483996E+03  0.80467041797E+02 0.  0.
         11    1    3    3    0    0 -0.42983441529E+02 -0.60302179600E+02  0.69222438446E+02  0.10136900461E+03  0.00000000000E+00 0.  1.
        -11    1    3    3    0    0 -0.19679810802E+02 -0.28617653746E+03  0.15200556692E+03  0.32463825702E+03  0.00000000000E+00 0. -1.
          4    1    6    6  502    0 -0.29661209326E+02  0.99088903792E+02 -0.31403699087E+02  0.10809528440E+03  0.00000000000E+00 0. -1.
          1    1    5    5  503    0  0.11340652739E+03 -0.51684340240E+02 -0.85502503642E+03  0.86406025506E+03  0.00000000000E+00 0. -1.
         -2    1    5    5    0  503  0.26766083027E+02 -0.70109821584E+02 -0.36994527838E+03  0.37748022369E+03  0.00000000000E+00 0.  1.
         -3    1    6    6    0  502 -0.47848148763E+02  0.36918397509E+03 -0.27022682769E+03  0.46000955556E+03  0.00000000000E+00 0.  1.
<mgrwt>
<rscale>  0 0.18149777E+04</rscale>
<asrwt>0</asrwt>
<pdfrwt beam="1">  1        2 0.27238658E+00 0.18149777E+04</pdfrwt>
<pdfrwt beam="2">  1       -2 0.71559979E-01 0.18149777E+04</pdfrwt>
<totfact> 0.14963889E+01</totfact>
</mgrwt>
</event>
<event>
12    1  0.1504874E-007  0.1319958E+04  0.7818608E-02  0.9013886E-01
         -2   -1    0    0    0  501 -0.00000000000E+00  0.00000000000E+00  0.10306666358E+04  0.10306666358E+04  0.00000000000E+00 0.  1.
          2   -1    0    0  501    0  0.00000000000E+00 -0.00000000000E+00 -0.42261247960E+03  0.42261247960E+03  0.00000000000E+00 0. -1.
         23    2    1    2    0    0 -0.92086837480E+02 -0.31225273162E+03  0.23399761792E+03  0.41132236262E+03  0.91920872229E+02 0.  0.
        254    2    1    2    0    0  0.92086837480E+02  0.31225273162E+03  0.37405653828E+03  0.10419567528E+04  0.91639174309E+03 0.  0.
        -24    2    4    4    0    0  0.30743196798E+03  0.41452339644E+03 -0.75260121210E+02  0.52684786159E+03  0.74568909694E+02 0.  0.
         24    2    4    4    0    0 -0.21534513050E+03 -0.10227066482E+03  0.44931665949E+03  0.51510889119E+03  0.81356592725E+02 0.  0.
         13    1    3    3    0    0 -0.59148945321E+02 -0.18746587379E+03  0.19405171355E+03  0.27622114167E+03  0.00000000000E+00 0.  1.
        -13    1    3    3    0    0 -0.32937892159E+02 -0.12478685783E+03  0.39945904371E+02  0.13510122095E+03  0.00000000000E+00 0. -1.
          4    1    6    6  502    0 -0.48625279869E+02 -0.32229694707E+02  0.50301679006E+02  0.77028760694E+02  0.00000000000E+00 0. -1.
          3    1    5    5  503    0  0.45473118537E+02  0.31680240225E+02  0.65351234115E+01  0.55804569420E+02  0.00000000000E+00 0. -1.
         -4    1    5    5    0  503  0.26195884944E+03  0.38284315621E+03 -0.81795244621E+02  0.47104329217E+03  0.00000000000E+00 0.  1.
         -3    1    6    6    0  502 -0.16671985063E+03 -0.70040970109E+02  0.39901498048E+03  0.43808013050E+03  0.00000000000E+00 0.  1.
<mgrwt>
<rscale>  0 0.13199585E+04</rscale>
<asrwt>0</asrwt>
<pdfrwt beam="1">  1        2 0.65017305E-01 0.13199585E+04</pdfrwt>
<pdfrwt beam="2">  1       -2 0.15856410E+00 0.13199585E+04</pdfrwt>
<totfact> 0.18858066E+01</totfact>
</mgrwt>
</event>
<event>
12    1  0.1504874E-007  0.1067437E+04  0.7818608E-02  0.9237524E-01
          1   -1    0    0  501    0  0.00000000000E+00  0.00000000000E+00  0.12108311538E+04  0.12108311538E+04  0.00000000000E+00 0. -1.
         -1   -1    0    0    0  501 -0.00000000000E+00 -0.00000000000E+00 -0.23525622824E+03  0.23525622824E+03  0.00000000000E+00 0.  1.
         23    2    1    2    0    0  0.41441088402E+02  0.11378995750E+03  0.58286356934E+01  0.15291974651E+03  0.93193120153E+02 0.  0.
        254    2    1    2    0    0 -0.41441088402E+02 -0.11378995750E+03  0.96974628989E+03  0.12931676355E+04  0.84688201577E+03 0.  0.
        -24    2    4    4    0    0  0.35625543100E+03 -0.20689465932E+03  0.62480786572E+03  0.75234398890E+03  0.76897830893E+02 0.  0.
         24    2    4    4    0    0 -0.39769651941E+03  0.93104701817E+02  0.34493842417E+03  0.54082364665E+03  0.81711035067E+02 0.  0.
         13    1    3    3    0    0 -0.28077263093E+02  0.45119736379E+02  0.13722162448E+02  0.54885526835E+02  0.00000000000E+00 0. -1.
        -13    1    3    3    0    0  0.69518351494E+02  0.68670221123E+02 -0.78935267541E+01  0.98034219680E+02  0.00000000000E+00 0.  1.
          4    1    6    6  502    0 -0.76299701358E+01 -0.42760813727E+01  0.26637568166E+02  0.28036785729E+02  0.00000000000E+00 0. -1.
          3    1    5    5  503    0  0.48145164168E+01 -0.39975228311E+01  0.40264969938E+02  0.40748344276E+02  0.00000000000E+00 0. -1.
         -4    1    5    5    0  503  0.35144091459E+03 -0.20289713649E+03  0.58454289578E+03  0.71159564462E+03  0.00000000000E+00 0.  1.
         -3    1    6    6    0  502 -0.39006654927E+03  0.97380783189E+02  0.31830085601E+03  0.51278686092E+03  0.00000000000E+00 0.  1.
<mgrwt>
<rscale>  0 0.10674372E+04</rscale>
<asrwt>0</asrwt>
<pdfrwt beam="1">  1        1 0.18628171E+00 0.10674372E+04</pdfrwt>
<pdfrwt beam="2">  1       -1 0.36193266E-01 0.10674372E+04</pdfrwt>
<totfact> 0.76477546E+01</totfact>
</mgrwt>
</event>
<event>
12    1  0.1504874E-007  0.1699292E+04  0.7818608E-02  0.8761768E-01
          2   -1    0    0  501    0  0.00000000000E+00  0.00000000000E+00  0.20891244089E+04  0.20891244089E+04  0.00000000000E+00 0.  1.
         -2   -1    0    0    0  501 -0.00000000000E+00 -0.00000000000E+00 -0.34555062268E+03  0.34555062268E+03  0.00000000000E+00 0. -1.
         23    2    1    2    0    0 -0.70235540995E+02 -0.57222466355E+03  0.38327446098E+03  0.69821362770E+03  0.90713067862E+02 0.  0.
        254    2    1    2    0    0  0.70235540995E+02  0.57222466355E+03  0.13602993252E+04  0.17364614038E+04  0.91241978063E+03 0.  0.
        -24    2    4    4    0    0  0.10892885135E+03  0.52332868728E+02 -0.10567704108E+03  0.17844770175E+03  0.77921251541E+02 0.  0.
         24    2    4    4    0    0 -0.38693310355E+02  0.51989179482E+03  0.14659763663E+04  0.15580137021E+04  0.80841442474E+02 0.  0.
         13    1    3    3    0    0 -0.38409341372E+02 -0.24103160369E+03  0.11027013571E+03  0.26782646305E+03  0.00000000000E+00 0.  1.
        -13    1    3    3    0    0 -0.31826199623E+02 -0.33119305986E+03  0.27300432527E+03  0.43038716465E+03  0.00000000000E+00 0. -1.
          2    1    6    6  502    0 -0.26936427634E+02  0.50865038253E+03  0.13919120280E+04  0.14821841574E+04  0.00000000000E+00 0. -1.
          3    1    5    5  503    0  0.38081736298E+02  0.52682004462E+02 -0.80022125438E+02  0.10309778268E+03  0.00000000000E+00 0. -1.
         -4    1    5    5    0  503  0.70847115053E+02 -0.34913573326E+00 -0.25654915640E+02  0.75349919068E+02  0.00000000000E+00 0.  1.
         -1    1    6    6    0  502 -0.11756882722E+02  0.11241412293E+02  0.74064338324E+02  0.75829544724E+02  0.00000000000E+00 0.  1.
<mgrwt>
<rscale>  0 0.16992919E+04</rscale>
<asrwt>0</asrwt>
<pdfrwt beam="1">  1        2 0.32140375E+00 0.16992919E+04</pdfrwt>
<pdfrwt beam="2">  1       -2 0.53161636E-01 0.16992919E+04</pdfrwt>
<totfact> 0.18922060E+01</totfact>
</mgrwt>
</event>
<event>
12    1  0.1504874E-007  0.1220256E+04  0.7818608E-02  0.9095309E-01
          2   -1    0    0  501    0  0.00000000000E+00  0.00000000000E+00  0.12374552259E+04  0.12374552259E+04  0.00000000000E+00 0. -1.
         -2   -1    0    0    0  501 -0.00000000000E+00 -0.00000000000E+00 -0.30082412347E+03  0.30082412347E+03  0.00000000000E+00 0.  1.
         23    2    1    2    0    0  0.73147357009E+02  0.62485329010E+01  0.53800708894E+03  0.55072107698E+03  0.91937461763E+02 0.  0.
        254    2    1    2    0    0 -0.73147357009E+02 -0.62485329010E+01  0.39862401349E+03  0.98755827239E+03  0.90054464477E+03 0.  0.
        -24    2    4    4    0    0 -0.45147921930E+03  0.15189498443E+03  0.17658352158E+03  0.51437184347E+03  0.80567248344E+02 0.  0.
         24    2    4    4    0    0  0.37833186229E+03 -0.15814351733E+03  0.22204049191E+03  0.47318642892E+03  0.80368192512E+02 0.  0.
         13    1    3    3    0    0  0.35932217897E+02 -0.21863851209E+02  0.44187490508E+03  0.44387226092E+03  0.00000000000E+00 0. -1.
        -13    1    3    3    0    0  0.37215139112E+02  0.28112384110E+02  0.96132183864E+02  0.10684881606E+03  0.00000000000E+00 0.  1.
          2    1    6    6  502    0  0.32011157630E+02 -0.41226268781E+02  0.23792678419E+02  0.57362104186E+02  0.00000000000E+00 0. -1.
          3    1    5    5  503    0 -0.19207182575E+02  0.26296683599E+02  0.67881487761E+01  0.33264251000E+02  0.00000000000E+00 0. -1.
         -4    1    5    5    0  503 -0.43227203672E+03  0.12559830083E+03  0.16979537280E+03  0.48110759247E+03  0.00000000000E+00 0.  1.
         -1    1    6    6    0  502  0.34632070466E+03 -0.11691724855E+03  0.19824781349E+03  0.41582432473E+03  0.00000000000E+00 0.  1.
<mgrwt>
<rscale>  0 0.12202563E+04</rscale>
<asrwt>0</asrwt>
<pdfrwt beam="1">  1        2 0.19037772E+00 0.12202563E+04</pdfrwt>
<pdfrwt beam="2">  1       -2 0.46280635E-01 0.12202563E+04</pdfrwt>
<totfact> 0.78453907E+01</totfact>
</mgrwt>
</event>
<event>
12    1  0.1504874E-007  0.1902126E+04  0.7818608E-02  0.8653799E-01
          1   -1    0    0  501    0  0.00000000000E+00  0.00000000000E+00  0.12081603342E+04  0.12081603342E+04  0.00000000000E+00 0. -1.
         -1   -1    0    0    0  501 -0.00000000000E+00 -0.00000000000E+00 -0.74867647101E+03  0.74867647101E+03  0.00000000000E+00 0.  1.
         23    2    1    2    0    0 -0.11755840641E+03 -0.18816528789E+03  0.89632630349E+03  0.92796596676E+03  0.92162023877E+02 0.  0.
        254    2    1    2    0    0  0.11755840641E+03  0.18816528789E+03 -0.43684244027E+03  0.10288708385E+04  0.90471969701E+03 0.  0.
        -24    2    4    4    0    0 -0.20345982291E+03  0.37670827742E+03  0.17739884374E+02  0.43620509752E+03  0.81579150457E+02 0.  0.
         24    2    4    4    0    0  0.32101822932E+03 -0.18854298952E+03 -0.45458232465E+03  0.59266574096E+03  0.77501149456E+02 0.  0.
         11    1    3    3    0    0 -0.72519339606E+02 -0.15018496258E+03  0.77930136135E+03  0.79694741947E+03  0.00000000000E+00 0. -1.
        -11    1    3    3    0    0 -0.45039066808E+02 -0.37980325314E+02  0.11702494215E+03  0.13101854729E+03  0.00000000000E+00 0.  1.
          2    1    6    6  502    0  0.79827513519E+02 -0.65091381728E+02 -0.17685735942E+03  0.20466520337E+03  0.00000000000E+00 0. -1.
          1    1    5    5  503    0 -0.86137282355E+02  0.24331584939E+03  0.14748850068E+02  0.25853387119E+03  0.00000000000E+00 0. -1.
         -2    1    5    5    0  503 -0.11732254055E+03  0.13339242803E+03  0.29910343061E+01  0.17767122632E+03  0.00000000000E+00 0.  1.
         -1    1    6    6    0  502  0.24119071580E+03 -0.12345160780E+03 -0.27772496523E+03  0.38800053759E+03  0.00000000000E+00 0.  1.
<mgrwt>
<rscale>  0 0.19021264E+04</rscale>
<asrwt>0</asrwt>
<pdfrwt beam="1">  1        1 0.18587082E+00 0.19021264E+04</pdfrwt>
<pdfrwt beam="2">  1       -1 0.11518099E+00 0.19021264E+04</pdfrwt>
<totfact> 0.67426677E+00</totfact>
</mgrwt>
</event>
<event>
12    1  0.1504874E-007  0.1905338E+04  0.7818608E-02  0.8652204E-01
         -1   -1    0    0    0  501 -0.00000000000E+00  0.00000000000E+00  0.11710410806E+04  0.11710410806E+04  0.00000000000E+00 0.  1.
          1   -1    0    0  501    0  0.00000000000E+00 -0.00000000000E+00 -0.77501788512E+03  0.77501788512E+03  0.00000000000E+00 0. -1.
         23    2    1    2    0    0 -0.60429038463E+02  0.72250176149E+03  0.21075009688E+03  0.76031603540E+03  0.89467347700E+02 0.  0.
        254    2    1    2    0    0  0.60429038463E+02 -0.72250176149E+03  0.18527309860E+03  0.11857429303E+04  0.91978242628E+03 0.  0.
        -24    2    4    4    0    0  0.46281934643E+03 -0.38357080289E+03  0.23706292401E+03  0.65111796111E+03  0.80171447993E+02 0.  0.
         24    2    4    4    0    0 -0.40239030797E+03 -0.33893095860E+03 -0.51789825405E+02  0.53462496922E+03  0.79683856920E+02 0.  0.
         11    1    3    3    0    0 -0.10805177451E+02  0.71940719848E+02 -0.55159302125E+01  0.72956456316E+02  0.00000000000E+00 0. -1.
        -11    1    3    3    0    0 -0.49623861013E+02  0.65056104165E+03  0.21626602709E+03  0.68735957909E+03  0.00000000000E+00 0.  1.
          2    1    6    6  502    0 -0.11220855908E+03 -0.92355058940E+02 -0.50423913898E+02  0.15382713914E+03  0.00000000000E+00 0. -1.
          3    1    5    5  503    0  0.11759642818E+03 -0.71187597728E+02  0.25862580322E+02  0.13987661367E+03  0.00000000000E+00 0. -1.
         -4    1    5    5    0  503  0.34522291825E+03 -0.31238320517E+03  0.21120034369E+03  0.51124134743E+03  0.00000000000E+00 0.  1.
         -3    1    6    6    0  502 -0.29018174888E+03 -0.24657589966E+03 -0.13659115073E+01  0.38079783008E+03  0.00000000000E+00 0.  1.
<mgrwt>
<rscale>  0 0.19053375E+04</rscale>
<asrwt>0</asrwt>
<pdfrwt beam="1">  1        1 0.11923352E+00 0.19053375E+04</pdfrwt>
<pdfrwt beam="2">  1       -1 0.18016017E+00 0.19053375E+04</pdfrwt>
<totfact> 0.45144742E+00</totfact>
</mgrwt>
</event>
<event>
12    1  0.1504874E-007  0.1323249E+04  0.7818608E-02  0.9011329E-01
         -2   -1    0    0    0  501 -0.00000000000E+00  0.00000000000E+00  0.74315643294E+03  0.74315643294E+03  0.00000000000E+00 0.  1.
          2   -1    0    0  501    0  0.00000000000E+00 -0.00000000000E+00 -0.58903790495E+03  0.58903790495E+03  0.00000000000E+00 0. -1.
         23    2    1    2    0    0  0.21527166552E+03  0.14484822171E+03 -0.19307941366E+03  0.33514650100E+03  0.87867057801E+02 0.  0.
        254    2    1    2    0    0 -0.21527166552E+03 -0.14484822171E+03  0.34719794165E+03  0.99704783688E+03  0.89790594220E+03 0.  0.
        -24    2    4    4    0    0 -0.46620883398E+03 -0.80944400738E+02 -0.84371546704E+02  0.48751952327E+03  0.81572389834E+02 0.  0.
         24    2    4    4    0    0  0.25093716846E+03 -0.63903820969E+02  0.43156948835E+03  0.50952831362E+03  0.79458909229E+02 0.  0.
         11    1    3    3    0    0  0.13274966516E+03  0.95846500096E+02 -0.67525366428E+02  0.17711211221E+03  0.00000000000E+00 0.  1.
        -11    1    3    3    0    0  0.82522000367E+02  0.49001721611E+02 -0.12555404723E+03  0.15803438879E+03  0.00000000000E+00 0. -1.
          4    1    6    6  502    0  0.18480020851E+03 -0.14345849290E+02  0.33092823879E+03  0.37930254373E+03  0.00000000000E+00 0. -1.
          1    1    5    5  503    0 -0.46336468643E+03 -0.72629030472E+02 -0.89293947447E+02  0.47744656010E+03  0.00000000000E+00 0. -1.
         -2    1    5    5    0  503 -0.28441475471E+01 -0.83153702655E+01  0.49224007437E+01  0.10072963169E+02  0.00000000000E+00 0.  1.
         -3    1    6    6    0  502  0.66136959946E+02 -0.49557971680E+02  0.10064124956E+03  0.13022576988E+03  0.00000000000E+00 0.  1.
<mgrwt>
<rscale>  0 0.13232495E+04</rscale>
<asrwt>0</asrwt>
<pdfrwt beam="1">  1        2 0.90621216E-01 0.13232495E+04</pdfrwt>
<pdfrwt beam="2">  1       -2 0.11433176E+00 0.13232495E+04</pdfrwt>
<totfact> 0.29681123E+01</totfact>
</mgrwt>
</event>
<event>
12    1  0.1504874E-007  0.1020845E+04  0.7818608E-02  0.9285973E-01
          1   -1    0    0  501    0  0.00000000000E+00  0.00000000000E+00  0.74138533357E+03  0.74138533357E+03  0.00000000000E+00 0. -1.
         -1   -1    0    0    0  501 -0.00000000000E+00 -0.00000000000E+00 -0.35141145609E+03  0.35141145609E+03  0.00000000000E+00 0.  1.
         23    2    1    2    0    0 -0.14160276510E+02  0.52627463969E+02 -0.52037143038E+01  0.10779714026E+03  0.92860009751E+02 0.  0.
        254    2    1    2    0    0  0.14160276510E+02 -0.52627463969E+02  0.39517759178E+03  0.98499964941E+03  0.90060469513E+03 0.  0.
        -24    2    4    4    0    0 -0.31114554982E+03  0.17566731406E+03  0.44442792211E+03  0.57632899847E+03  0.83476811888E+02 0.  0.
         24    2    4    4    0    0  0.32530582633E+03 -0.22829477803E+03 -0.49250330334E+02  0.40867065094E+03  0.81509015340E+02 0.  0.
         13    1    3    3    0    0  0.13795391433E+02  0.20429256677E+02 -0.43814422906E+02  0.50272964979E+02  0.00000000000E+00 0.  1.
        -13    1    3    3    0    0 -0.27955667943E+02  0.32198207291E+02  0.38610708602E+02  0.57524175280E+02  0.00000000000E+00 0. -1.
          4    1    6    6  502    0  0.21204108983E+03 -0.17398086826E+03 -0.65542022209E+02  0.28200447332E+03  0.00000000000E+00 0. -1.
          3    1    5    5  503    0 -0.31767582129E+02  0.43572945264E+02  0.99801322623E+02  0.11343758121E+03  0.00000000000E+00 0. -1.
         -4    1    5    5    0  503 -0.27937796769E+03  0.13209436879E+03  0.34462659949E+03  0.46289141726E+03  0.00000000000E+00 0.  1.
         -3    1    6    6    0  502  0.11326473650E+03 -0.54313909768E+02  0.16291691875E+02  0.12666617762E+03  0.00000000000E+00 0.  1.
<mgrwt>
<rscale>  0 0.10208453E+04</rscale>
<asrwt>0</asrwt>
<pdfrwt beam="1">  1        1 0.11405928E+00 0.10208453E+04</pdfrwt>
<pdfrwt beam="2">  1       -1 0.54063301E-01 0.10208453E+04</pdfrwt>
<totfact> 0.86252831E+01</totfact>
</mgrwt>
</event>
<event>
12    1  0.1504874E-007  0.2579800E+04  0.7818608E-02  0.8375095E-01
          2   -1    0    0  501    0  0.00000000000E+00  0.00000000000E+00  0.16492995032E+04  0.16492995032E+04  0.00000000000E+00 0.  1.
         -2   -1    0    0    0  501 -0.00000000000E+00 -0.00000000000E+00 -0.10088170253E+04  0.10088170253E+04  0.00000000000E+00 0. -1.
         23    2    1    2    0    0 -0.63722777866E+03 -0.73683134901E+03 -0.30434154375E+03  0.10248671739E+04  0.93537532806E+02 0.  0.
        254    2    1    2    0    0  0.63722777866E+03  0.73683134901E+03  0.94482402173E+03  0.16332493546E+04  0.90875263061E+03 0.  0.
        -24    2    4    4    0    0  0.69553331628E+03  0.58220566356E+03  0.10747472049E+04  0.14085334726E+04  0.78453554403E+02 0.  0.
         24    2    4    4    0    0 -0.58305537619E+02  0.15462568545E+03 -0.12992318315E+03  0.22471588209E+03  0.79426417679E+02 0.  0.
         11    1    3    3    0    0 -0.13089485645E+03 -0.15806949612E+03 -0.10467564550E+03  0.23038320210E+03  0.00000000000E+00 0.  1.
        -11    1    3    3    0    0 -0.50633292221E+03 -0.57876185288E+03 -0.19966589824E+03  0.79448397177E+03  0.00000000000E+00 0. -1.
          4    1    6    6  502    0  0.50527960802E-01  0.64106433528E+01  0.10543021195E+02  0.12339132757E+02  0.00000000000E+00 0. -1.
          1    1    5    5  503    0  0.11597368843E+03  0.13531499349E+03  0.19478447349E+03  0.26400953578E+03  0.00000000000E+00 0. -1.
         -2    1    5    5    0  503  0.57955962785E+03  0.44689067007E+03  0.87996273139E+03  0.11445239368E+04  0.00000000000E+00 0.  1.
         -3    1    6    6    0  502 -0.58356065580E+02  0.14821504209E+03 -0.14046620434E+03  0.21237674933E+03  0.00000000000E+00 0.  1.
<mgrwt>
<rscale>  0 0.25797995E+04</rscale>
<asrwt>0</asrwt>
<pdfrwt beam="1">  1        2 0.25373839E+00 0.25797995E+04</pdfrwt>
<pdfrwt beam="2">  1       -2 0.15520262E+00 0.25797995E+04</pdfrwt>
<totfact> 0.25372942E+00</totfact>
</mgrwt>
</event>
<event>
12    1  0.1504874E-007  0.1457815E+04  0.7818608E-02  0.8913000E-01
         -2   -1    0    0    0  501 -0.00000000000E+00  0.00000000000E+00  0.20662509788E+03  0.20662509788E+03  0.00000000000E+00 0.  1.
          2   -1    0    0  501    0  0.00000000000E+00 -0.00000000000E+00 -0.25713541798E+04  0.25713541798E+04  0.00000000000E+00 0. -1.
         23    2    1    2    0    0 -0.62664080088E+02  0.80063343349E+02 -0.15720449036E+04  0.15779605825E+04  0.91090586623E+02 0.  0.
        254    2    1    2    0    0  0.62664080088E+02 -0.80063343349E+02 -0.79268417832E+03  0.12000186952E+04  0.89518698408E+03 0.  0.
        -24    2    4    4    0    0 -0.93626350990E+02 -0.17452248576E+03 -0.93247585094E+03  0.95676712087E+03  0.81658553502E+02 0.  0.
         24    2    4    4    0    0  0.15629043108E+03  0.94459142407E+02  0.13979167262E+03  0.24325157436E+03  0.79248900721E+02 0.  0.
         11    1    3    3    0    0 -0.59738049530E+02  0.96078282837E+02 -0.14916258466E+04  0.14959102036E+04  0.00000000000E+00 0. -1.
        -11    1    3    3    0    0 -0.29260305586E+01 -0.16014939488E+02 -0.80419057043E+02  0.82050378898E+02  0.00000000000E+00 0.  1.
          4    1    6    6  502    0  0.13097227793E+03  0.98792805979E+02  0.89742717825E+02  0.18699602002E+03  0.00000000000E+00 0. -1.
          1    1    5    5  503    0 -0.65840737193E+02 -0.10174127434E+03 -0.38081882258E+03  0.39963641627E+03  0.00000000000E+00 0. -1.
         -2    1    5    5    0  503 -0.27785613797E+02 -0.72781211413E+02 -0.55165702836E+03  0.55713070460E+03  0.00000000000E+00 0.  1.
         -3    1    6    6    0  502  0.25318153145E+02 -0.43336635722E+01  0.50048954793E+02  0.56255554343E+02  0.00000000000E+00 0.  1.
<mgrwt>
<rscale>  0 0.14578152E+04</rscale>
<asrwt>0</asrwt>
<pdfrwt beam="1">  1        2 0.39559294E+00 0.14578152E+04</pdfrwt>
<pdfrwt beam="2">  1       -2 0.31788477E-01 0.14578152E+04</pdfrwt>
<totfact> 0.28306364E+01</totfact>
</mgrwt>
</event>
<event>
12    1  0.1504874E-007  0.1262343E+04  0.7818608E-02  0.9059972E-01
         -2   -1    0    0    0  501 -0.00000000000E+00  0.00000000000E+00  0.46912666051E+03  0.46912666051E+03  0.00000000000E+00 0. -1.
          2   -1    0    0  501    0  0.00000000000E+00 -0.00000000000E+00 -0.84918939036E+03  0.84918939036E+03  0.00000000000E+00 0.  1.
         23    2    1    2    0    0 -0.17375481154E+02  0.23280654378E+02  0.21903339425E+03  0.23935739496E+03  0.92045850065E+02 0.  0.
        254    2    1    2    0    0  0.17375481154E+02 -0.23280654378E+02 -0.59909612410E+03  0.10789586559E+04  0.89687887645E+03 0.  0.
        -24    2    4    4    0    0  0.16548112051E+03  0.30911070834E+02 -0.79403620868E+03  0.81573542163E+03  0.81186709976E+02 0.  0.
         24    2    4    4    0    0 -0.14810563936E+03 -0.54191725212E+02  0.19494008458E+03  0.26322323427E+03  0.80080028681E+02 0.  0.
         13    1    3    3    0    0 -0.46319702939E+02  0.33597052019E+02  0.18431995091E+03  0.19299772301E+03  0.00000000000E+00 0. -1.
        -13    1    3    3    0    0  0.28944221785E+02 -0.10316397640E+02  0.34713443341E+02  0.46359671953E+02  0.00000000000E+00 0.  1.
          4    1    6    6  502    0 -0.12171291094E+03 -0.39795553950E+02  0.96637057847E+02  0.16042580762E+03  0.00000000000E+00 0. -1.
          1    1    5    5  503    0  0.16100525051E+03  0.44323076484E+02 -0.65387121461E+03  0.67485908981E+03  0.00000000000E+00 0. -1.
         -2    1    5    5    0  503  0.44758700025E+01 -0.13412005650E+02 -0.14016499406E+03  0.14087633182E+03  0.00000000000E+00 0.  1.
         -3    1    6    6    0  502 -0.26392728420E+02 -0.14396171262E+02  0.98303026729E+02  0.10279742664E+03  0.00000000000E+00 0.  1.
<mgrwt>
<rscale>  0 0.12623429E+04</rscale>
<asrwt>0</asrwt>
<pdfrwt beam="1">  1        2 0.13064452E+00 0.12623429E+04</pdfrwt>
<pdfrwt beam="2">  1       -2 0.72173332E-01 0.12623429E+04</pdfrwt>
<totfact> 0.54308954E+01</totfact>
</mgrwt>
</event>
<event>
12    1  0.1504874E-007  0.1903370E+04  0.7818608E-02  0.8653181E-01
         -1   -1    0    0    0  501 -0.00000000000E+00  0.00000000000E+00  0.10334344367E+04  0.10334344367E+04  0.00000000000E+00 0.  1.
          1   -1    0    0  501    0  0.00000000000E+00 -0.00000000000E+00 -0.87640257954E+03  0.87640257954E+03  0.00000000000E+00 0. -1.
         23    2    1    2    0    0 -0.92350028132E+02  0.57777307609E+03 -0.37722744409E+03  0.70242104574E+03  0.93512169125E+02 0.  0.
        254    2    1    2    0    0  0.92350028132E+02 -0.57777307609E+03  0.53425930120E+03  0.12074159705E+04  0.91108181282E+03 0.  0.
        -24    2    4    4    0    0  0.33930163874E+03  0.61311541360E+02  0.34015276866E+03  0.49104249241E+03  0.80833880111E+02 0.  0.
         24    2    4    4    0    0 -0.24695161061E+03 -0.63908461745E+03  0.19410653254E+03  0.71637347805E+03  0.78098449600E+02 0.  0.
         13    1    3    3    0    0 -0.10225910655E+03  0.35849554385E+03 -0.24697209165E+03  0.44718138812E+03  0.00000000000E+00 0. -1.
        -13    1    3    3    0    0  0.99090784139E+01  0.21927753224E+03 -0.13025535245E+03  0.25523965762E+03  0.00000000000E+00 0.  1.
          2    1    6    6  502    0 -0.23086848259E+03 -0.58635130060E+03  0.15549581581E+03  0.64906629300E+03  0.00000000000E+00 0. -1.
          1    1    5    5  503    0  0.27427705919E+03  0.17610663315E+02  0.24917184133E+03  0.37097796049E+03  0.00000000000E+00 0. -1.
         -2    1    5    5    0  503  0.65024579550E+02  0.43700878045E+02  0.90980927329E+02  0.12006453192E+03  0.00000000000E+00 0.  1.
         -1    1    6    6    0  502 -0.16083128019E+02 -0.52733316846E+02  0.38610716733E+02  0.67307185048E+02  0.00000000000E+00 0.  1.
<mgrwt>
<rscale>  0 0.19033703E+04</rscale>
<asrwt>0</asrwt>
<pdfrwt beam="1">  1        1 0.13483117E+00 0.19033703E+04</pdfrwt>
<pdfrwt beam="2">  1       -1 0.15898991E+00 0.19033703E+04</pdfrwt>
<totfact> 0.52954277E+00</totfact>
</mgrwt>
</event>
<event>
12    1  0.1504874E-007  0.1798624E+04  0.7818608E-02  0.8707031E-01
         -1   -1    0    0    0  501 -0.00000000000E+00  0.00000000000E+00  0.46397168622E+03  0.46397168622E+03  0.00000000000E+00 0.  1.
          1   -1    0    0  501    0  0.00000000000E+00 -0.00000000000E+00 -0.17431284462E+04  0.17431284462E+04  0.00000000000E+00 0. -1.
         23    2    1    2    0    0 -0.50951866177E+03  0.20998242551E+03 -0.99544838335E+03  0.11415248383E+04  0.91976012583E+02 0.  0.
        254    2    1    2    0    0  0.50951866177E+03 -0.20998242551E+03 -0.28370837666E+03  0.10655752941E+04  0.86675162459E+03 0.  0.
        -24    2    4    4    0    0  0.19988965486E+03 -0.44661826515E+03  0.10969286505E+03  0.50704910082E+03  0.75116690018E+02 0.  0.
         24    2    4    4    0    0  0.30962900691E+03  0.23663583963E+03 -0.39340124171E+03  0.55852619330E+03  0.72940586100E+02 0.  0.
         11    1    3    3    0    0 -0.37357379731E+03  0.18400195697E+03 -0.68544503080E+03  0.80202804966E+03  0.00000000000E+00 0.  1.
        -11    1    3    3    0    0 -0.13594486446E+03  0.25980468544E+02 -0.31000335256E+03  0.33949678867E+03  0.00000000000E+00 0. -1.
          4    1    6    6  502    0  0.30248565711E+03  0.23999471878E+03 -0.39248247130E+03  0.55057926593E+03  0.00000000000E+00 0. -1.
          1    1    5    5  503    0  0.15202099508E+03 -0.33583363050E+03  0.48743353325E+02  0.37184744831E+03  0.00000000000E+00 0. -1.
         -2    1    5    5    0  503  0.47868659786E+02 -0.11078463465E+03  0.60949511728E+02  0.13520165252E+03  0.00000000000E+00 0.  1.
         -3    1    6    6    0  502  0.71433498006E+01 -0.33588791450E+01 -0.91877041392E+00  0.79469273659E+01  0.00000000000E+00 0.  1.
<mgrwt>
<rscale>  0 0.17986242E+04</rscale>
<asrwt>0</asrwt>
<pdfrwt beam="1">  1        1 0.26817361E+00 0.17986242E+04</pdfrwt>
<pdfrwt beam="2">  1       -1 0.71380260E-01 0.17986242E+04</pdfrwt>
<totfact> 0.83293474E+00</totfact>
</mgrwt>
</event>
<event>
12    1  0.1504874E-007  0.1828789E+04  0.7818608E-02  0.8691138E-01
          1   -1    0    0  501    0  0.00000000000E+00  0.00000000000E+00  0.19534806204E+04  0.19534806204E+04  0.00000000000E+00 0. -1.
         -1   -1    0    0    0  501 -0.00000000000E+00 -0.00000000000E+00 -0.42801398101E+03  0.42801398101E+03  0.00000000000E+00 0.  1.
         23    2    1    2    0    0 -0.58011456038E+03  0.31620555221E+03  0.78153316497E+03  0.10272183242E+04  0.88682259658E+02 0.  0.
        254    2    1    2    0    0  0.58011456038E+03 -0.31620555221E+03  0.74393347445E+03  0.13542762773E+04  0.91875370274E+03 0.  0.
        -24    2    4    4    0    0  0.31080332741E+03 -0.92582593872E+01  0.86365098380E+03  0.92144891471E+03  0.80564613299E+02 0.  0.
         24    2    4    4    0    0  0.26931123298E+03 -0.30694729282E+03 -0.11971750935E+03  0.43282736254E+03  0.79133197462E+02 0.  0.
         13    1    3    3    0    0 -0.31520105838E+03  0.19791098680E+03  0.38067650260E+03  0.53238619961E+03  0.00000000000E+00 0.  1.
        -13    1    3    3    0    0 -0.26491350201E+03  0.11829456541E+03  0.40085666236E+03  0.49483212458E+03  0.00000000000E+00 0. -1.
          4    1    6    6  502    0  0.18578334036E+03 -0.15254269957E+03 -0.67932371768E+02  0.24979898295E+03  0.00000000000E+00 0. -1.
          3    1    5    5  503    0  0.29985522588E+03 -0.15037179026E+02  0.85543334957E+03  0.90659003348E+03  0.00000000000E+00 0. -1.
         -2    1    5    5    0  503  0.10948101529E+02  0.57789196385E+01  0.82176342226E+01  0.14858881233E+02  0.00000000000E+00 0.  1.
         -3    1    6    6    0  502  0.83527892615E+02 -0.15440459325E+03 -0.51785137581E+02  0.18302837959E+03  0.00000000000E+00 0.  1.
<mgrwt>
<rscale>  0 0.18287887E+04</rscale>
<asrwt>0</asrwt>
<pdfrwt beam="1">  1        1 0.30053547E+00 0.18287887E+04</pdfrwt>
<pdfrwt beam="2">  1       -1 0.65848306E-01 0.18287887E+04</pdfrwt>
<totfact> 0.70516740E+00</totfact>
</mgrwt>
</event>
<event>
12    1  0.1504874E-007  0.2198095E+04  0.7818608E-02  0.8519221E-01
          2   -1    0    0  501    0  0.00000000000E+00  0.00000000000E+00  0.20985018627E+04  0.20985018627E+04  0.00000000000E+00 0.  1.
         -2   -1    0    0    0  501 -0.00000000000E+00 -0.00000000000E+00 -0.57560391527E+03  0.57560391527E+03  0.00000000000E+00 0. -1.
         23    2    1    2    0    0  0.40741131969E+03 -0.83073686340E+02  0.16392576760E+04  0.16935292721E+04  0.89389296661E+02 0.  0.
        254    2    1    2    0    0 -0.40741131969E+03  0.83073686340E+02 -0.11635972860E+03  0.98057650584E+03  0.88040074772E+03 0.  0.
        -24    2    4    4    0    0 -0.35576482533E+03  0.33225406778E+03 -0.36691083190E+03  0.61456999840E+03  0.78175110359E+02 0.  0.
         24    2    4    4    0    0 -0.51646494366E+02 -0.24918038144E+03  0.25055110330E+03  0.36600650743E+03  0.80166609289E+02 0.  0.
         11    1    3    3    0    0  0.23371937951E+03 -0.87491495334E+02  0.88457931413E+03  0.91910830325E+03  0.00000000000E+00 0. -1.
        -11    1    3    3    0    0  0.17369194018E+03  0.44178089938E+01  0.75467836188E+03  0.77442096886E+03  0.00000000000E+00 0.  1.
          4    1    6    6  502    0  0.77803276384E+01 -0.35998160464E+02  0.80473202636E+01  0.37698281372E+02  0.00000000000E+00 0. -1.
          3    1    5    5  503    0 -0.85292543404E+02  0.92780413685E+02 -0.13805215822E+03  0.18692624619E+03  0.00000000000E+00 0. -1.
         -4    1    5    5    0  503 -0.27047228192E+03  0.23947365410E+03 -0.22885867367E+03  0.42764375222E+03  0.00000000000E+00 0.  1.
         -3    1    6    6    0  502 -0.59426822004E+02 -0.21318222097E+03  0.24250378303E+03  0.32830822606E+03  0.00000000000E+00 0.  1.
<mgrwt>
<rscale>  0 0.21980954E+04</rscale>
<asrwt>0</asrwt>
<pdfrwt beam="1">  1        2 0.32284644E+00 0.21980954E+04</pdfrwt>
<pdfrwt beam="2">  1       -2 0.88554449E-01 0.21980954E+04</pdfrwt>
<totfact> 0.59033904E+00</totfact>
</mgrwt>
</event>
<event>
12    1  0.1504874E-007  0.2229158E+04  0.7818608E-02  0.8506389E-01
         -2   -1    0    0    0  501 -0.00000000000E+00  0.00000000000E+00  0.66827635752E+03  0.66827635752E+03  0.00000000000E+00 0.  1.
          2   -1    0    0  501    0  0.00000000000E+00 -0.00000000000E+00 -0.18589413882E+04  0.18589413882E+04  0.00000000000E+00 0. -1.
         23    2    1    2    0    0 -0.71437112435E+03  0.53769921036E+03 -0.95648972928E+03  0.13128021860E+04  0.95553300015E+02 0.  0.
        254    2    1    2    0    0  0.71437112435E+03 -0.53769921036E+03 -0.23417530137E+03  0.12144155597E+04  0.78773125861E+03 0.  0.
        -24    2    4    4    0    0  0.44309236081E+03 -0.47993333016E+03  0.20470212582E+03  0.68913594707E+03  0.79615021382E+02 0.  0.
         24    2    4    4    0    0  0.27127876354E+03 -0.57765880202E+02 -0.43887742719E+03  0.52527961264E+03  0.79851179725E+02 0.  0.
         11    1    3    3    0    0 -0.65384194386E+03  0.52205636451E+03 -0.89011292307E+03  0.12216190696E+04  0.00000000000E+00 0. -1.
        -11    1    3    3    0    0 -0.60529180491E+02  0.15642845847E+02 -0.66376806207E+02  0.91183116416E+02  0.00000000000E+00 0.  1.
          4    1    6    6  502    0  0.16283155830E+02  0.99674644471E+01 -0.95121020161E+01  0.21330063199E+02  0.00000000000E+00 0. -1.
          3    1    5    5  503    0  0.18342561554E+03 -0.14663781467E+03  0.58086868879E+02  0.24191256574E+03  0.00000000000E+00 0. -1.
         -4    1    5    5    0  503  0.25966674527E+03 -0.33329551549E+03  0.14661525694E+03  0.44722338133E+03  0.00000000000E+00 0.  1.
         -3    1    6    6    0  502  0.25499560771E+03 -0.67733344650E+02 -0.42936532517E+03  0.50394954945E+03  0.00000000000E+00 0.  1.
<mgrwt>
<rscale>  0 0.22291582E+04</rscale>
<asrwt>0</asrwt>
<pdfrwt beam="1">  1        2 0.28599098E+00 0.22291582E+04</pdfrwt>
<pdfrwt beam="2">  1       -2 0.10281175E+00 0.22291582E+04</pdfrwt>
<totfact> 0.56418583E+00</totfact>
</mgrwt>
</event>
<event>
12    1  0.1504874E-007  0.1221708E+04  0.7818608E-02  0.9094065E-01
         -1   -1    0    0    0  501 -0.00000000000E+00  0.00000000000E+00  0.19540268896E+03  0.19540268896E+03  0.00000000000E+00 0.  1.
          1   -1    0    0  501    0  0.00000000000E+00 -0.00000000000E+00 -0.19096097765E+04  0.19096097765E+04  0.00000000000E+00 0. -1.
         23    2    1    2    0    0  0.24131131632E+01 -0.13566158348E+03 -0.78579156260E+03  0.80151559335E+03  0.80925757212E+02 0.  0.
        254    2    1    2    0    0 -0.24131131632E+01  0.13566158348E+03 -0.92841552489E+03  0.13034968721E+04  0.90484187585E+03 0.  0.
        -24    2    4    4    0    0  0.29309521347E+03  0.37387171807E+03 -0.30722072183E+03  0.57122283999E+03  0.78905609908E+02 0.  0.
         24    2    4    4    0    0 -0.29550832663E+03 -0.23821013459E+03 -0.62119480306E+03  0.73227403208E+03  0.79202496019E+02 0.  0.
         13    1    3    3    0    0 -0.33840153378E+02 -0.94132789393E+02 -0.57492691852E+03  0.58356413500E+03  0.00000000000E+00 0.  1.
        -13    1    3    3    0    0  0.36253266541E+02 -0.41528794089E+02 -0.21086464408E+03  0.21795145835E+03  0.00000000000E+00 0. -1.
          2    1    6    6  502    0 -0.15962977174E+03 -0.12325799530E+03 -0.40340831497E+03  0.45101271159E+03  0.00000000000E+00 0. -1.
          3    1    5    5  503    0  0.16670965469E+03  0.17572072034E+03 -0.11768778119E+03  0.26929592341E+03  0.00000000000E+00 0. -1.
         -4    1    5    5    0  503  0.12638555878E+03  0.19815099773E+03 -0.18953294064E+03  0.30192691658E+03  0.00000000000E+00 0.  1.
         -1    1    6    6    0  502 -0.13587855489E+03 -0.11495213928E+03 -0.21778648810E+03  0.28126132049E+03  0.00000000000E+00 0.  1.
<mgrwt>
<rscale>  0 0.12217085E+04</rscale>
<asrwt>0</asrwt>
<pdfrwt beam="1">  1        1 0.29378612E+00 0.12217085E+04</pdfrwt>
<pdfrwt beam="2">  1       -1 0.30061952E-01 0.12217085E+04</pdfrwt>
<totfact> 0.34524288E+01</totfact>
</mgrwt>
</event>
<event>
12    1  0.1504874E-007  0.1242778E+04  0.7818608E-02  0.9076215E-01
          1   -1    0    0  501    0  0.00000000000E+00  0.00000000000E+00  0.11123135455E+04  0.11123135455E+04  0.00000000000E+00 0. -1.
         -1   -1    0    0    0  501 -0.00000000000E+00 -0.00000000000E+00 -0.34713640057E+03  0.34713640057E+03  0.00000000000E+00 0.  1.
         23    2    1    2    0    0 -0.49398059619E+02 -0.26861604136E+03  0.60729069795E+02  0.29494248991E+03  0.93318307256E+02 0.  0.
        254    2    1    2    0    0  0.49398059619E+02  0.26861604136E+03  0.70444807509E+03  0.11645074561E+04  0.88613530506E+03 0.  0.
        -24    2    4    4    0    0 -0.35455003699E+03  0.30652114781E+03  0.54162145714E+03  0.72073812397E+03  0.80303784024E+02 0.  0.
         24    2    4    4    0    0  0.40394809661E+03 -0.37905106450E+02  0.16282661796E+03  0.44376933214E+03  0.76209256587E+02 0.  0.
         13    1    3    3    0    0  0.10914891446E+01 -0.14443431261E+03  0.70122689858E+02  0.16056043610E+03  0.00000000000E+00 0. -1.
        -13    1    3    3    0    0 -0.50489548764E+02 -0.12418172874E+03 -0.93936200628E+01  0.13438205381E+03  0.00000000000E+00 0.  1.
          4    1    6    6  502    0  0.17798032894E+03  0.43447653067E+01  0.10512814323E+03  0.20675541341E+03  0.00000000000E+00 0. -1.
          3    1    5    5  503    0 -0.11075114854E+03  0.53861589261E+02  0.16425536145E+03  0.20529664261E+03  0.00000000000E+00 0. -1.
         -4    1    5    5    0  503 -0.24379888845E+03  0.25265955855E+03  0.37736609568E+03  0.51544148136E+03  0.00000000000E+00 0.  1.
         -3    1    6    6    0  502  0.22596776767E+03 -0.42249871757E+02  0.57698474722E+02  0.23701391873E+03  0.00000000000E+00 0.  1.
<mgrwt>
<rscale>  0 0.12427784E+04</rscale>
<asrwt>0</asrwt>
<pdfrwt beam="1">  1        1 0.17112516E+00 0.12427784E+04</pdfrwt>
<pdfrwt beam="2">  1       -1 0.53405600E-01 0.12427784E+04</pdfrwt>
<totfact> 0.43306054E+01</totfact>
</mgrwt>
</event>
<event>
12    1  0.1504874E-007  0.2654104E+04  0.7818608E-02  0.8350052E-01
          1   -1    0    0  501    0  0.00000000000E+00  0.00000000000E+00  0.17980257063E+04  0.17980257063E+04  0.00000000000E+00 0. -1.
         -1   -1    0    0    0  501 -0.00000000000E+00 -0.00000000000E+00 -0.97944490634E+03  0.97944490634E+03  0.00000000000E+00 0.  1.
         23    2    1    2    0    0 -0.22858426721E+03  0.87770718027E+03  0.11309122552E+04  0.14525950953E+04  0.91920184843E+02 0.  0.
        254    2    1    2    0    0  0.22858426721E+03 -0.87770718027E+03 -0.31233145524E+03  0.13248755174E+04  0.91385093808E+03 0.  0.
        -24    2    4    4    0    0  0.36683489906E+03 -0.14184132393E+03  0.16435570530E+03  0.43385223563E+03  0.80797030621E+02 0.  0.
         24    2    4    4    0    0 -0.13825063185E+03 -0.73586585634E+03 -0.47668716054E+03  0.89102328172E+03  0.77974635720E+02 0.  0.
         13    1    3    3    0    0 -0.21631457879E+03  0.85337006729E+03  0.10682723171E+04  0.13842825623E+04  0.00000000000E+00 0. -1.
        -13    1    3    3    0    0 -0.12269688420E+02  0.24337112977E+02  0.62639938047E+02  0.68312532968E+02  0.00000000000E+00 0.  1.
          2    1    6    6  502    0 -0.79832678658E+02 -0.59418882675E+03 -0.37751034377E+03  0.70848265898E+03  0.00000000000E+00 0. -1.
          3    1    5    5  503    0  0.33074117457E+03 -0.14067730580E+03  0.16949324626E+03  0.39737613095E+03  0.00000000000E+00 0. -1.
         -4    1    5    5    0  503  0.36093724491E+02 -0.11640181357E+01 -0.51375409590E+01  0.36476104684E+02  0.00000000000E+00 0.  1.
         -1    1    6    6    0  502 -0.58417953189E+02 -0.14167702959E+03 -0.99176816762E+02  0.18254062274E+03  0.00000000000E+00 0.  1.
<mgrwt>
<rscale>  0 0.26541041E+04</rscale>
<asrwt>0</asrwt>
<pdfrwt beam="1">  1        1 0.27661934E+00 0.26541041E+04</pdfrwt>
<pdfrwt beam="2">  1       -1 0.15068383E+00 0.26541041E+04</pdfrwt>
<totfact> 0.12345986E+00</totfact>
</mgrwt>
</event>
<event>
12    1  0.1504874E-007  0.1364827E+04  0.7818608E-02  0.8979679E-01
          2   -1    0    0  501    0  0.00000000000E+00  0.00000000000E+00  0.46239312215E+03  0.46239312215E+03  0.00000000000E+00 0. -1.
         -2   -1    0    0    0  501 -0.00000000000E+00 -0.00000000000E+00 -0.10071268383E+04  0.10071268383E+04  0.00000000000E+00 0.  1.
         23    2    1    2    0    0  0.72996544604E+02 -0.36543885920E+03 -0.19978932770E+03  0.43251343657E+03  0.90983745889E+02 0.  0.
        254    2    1    2    0    0 -0.72996544604E+02  0.36543885920E+03 -0.34494438846E+03  0.10370065239E+04  0.90416914575E+03 0.  0.
        -24    2    4    4    0    0  0.45431874025E+02 -0.18948255762E+03  0.16463712353E+03  0.27011889617E+03  0.88832093320E+02 0.  0.
         24    2    4    4    0    0 -0.11842841863E+03  0.55492141682E+03 -0.50958151199E+03  0.76688762773E+03  0.80499981442E+02 0.  0.
         13    1    3    3    0    0  0.25573932669E+02 -0.16526742513E+02 -0.77060775832E+01  0.31409280188E+02  0.00000000000E+00 0. -1.
        -13    1    3    3    0    0  0.47422611935E+02 -0.34891211669E+03 -0.19208325011E+03  0.40110415638E+03  0.00000000000E+00 0.  1.
          4    1    6    6  502    0 -0.77520905055E+02  0.34051076610E+03 -0.26038902946E+03  0.43561395664E+03  0.00000000000E+00 0. -1.
          1    1    5    5  503    0  0.43704586674E+02 -0.36964845975E+02  0.70772900078E+02  0.91023591007E+02  0.00000000000E+00 0. -1.
         -2    1    5    5    0  503  0.17272873506E+01 -0.15251771164E+03  0.93864223454E+02  0.17909530516E+03  0.00000000000E+00 0.  1.
         -3    1    6    6    0  502 -0.40907513573E+02  0.21441065071E+03 -0.24919248253E+03  0.33127367109E+03  0.00000000000E+00 0.  1.
<mgrwt>
<rscale>  0 0.13648275E+04</rscale>
<asrwt>0</asrwt>
<pdfrwt beam="1">  1        2 0.71137403E-01 0.13648275E+04</pdfrwt>
<pdfrwt beam="2">  1       -2 0.15494259E+00 0.13648275E+04</pdfrwt>
<totfact> 0.18057247E+01</totfact>
</mgrwt>
</event>
<event>
12    1  0.1504874E-007  0.1242361E+04  0.7818608E-02  0.9076566E-01
         -1   -1    0    0    0  501 -0.00000000000E+00  0.00000000000E+00  0.13947741315E+03  0.13947741315E+03  0.00000000000E+00 0.  1.
          1   -1    0    0  501    0  0.00000000000E+00 -0.00000000000E+00 -0.27665046608E+04  0.27665046608E+04  0.00000000000E+00 0. -1.
         23    2    1    2    0    0  0.32475437308E+02  0.11619805655E+03 -0.11970261759E+04  0.12075206650E+04  0.10333367426E+03 0.  0.
        254    2    1    2    0    0 -0.32475437308E+02 -0.11619805655E+03 -0.14300010718E+04  0.16984614089E+04  0.90846653769E+03 0.  0.
        -24    2    4    4    0    0 -0.43165977174E+03 -0.13886938041E+03 -0.47967110267E+03  0.66482723421E+03  0.79347471649E+02 0.  0.
         24    2    4    4    0    0  0.39918433443E+03  0.22671323860E+02 -0.95032996908E+03  0.10336341747E+04  0.73555661051E+02 0.  0.
         13    1    3    3    0    0 -0.27140300887E+02  0.80902977777E+01 -0.11332642184E+03  0.11681150087E+03  0.00000000000E+00 0.  1.
        -13    1    3    3    0    0  0.59615738195E+02  0.10810775877E+03 -0.10836997540E+04  0.10907091641E+04  0.00000000000E+00 0. -1.
          2    1    6    6  502    0  0.41371276053E+01 -0.90614882140E+01 -0.18160126947E+02  0.20712716002E+02  0.00000000000E+00 0. -1.
          3    1    5    5  503    0 -0.17638256225E+03 -0.16226213783E+02 -0.18403273882E+03  0.25542542402E+03  0.00000000000E+00 0. -1.
         -4    1    5    5    0  503 -0.25527720949E+03 -0.12264316662E+03 -0.29563836385E+03  0.40940181018E+03  0.00000000000E+00 0.  1.
         -1    1    6    6    0  502  0.39504720683E+03  0.31732812074E+02 -0.93216984213E+03  0.10129214587E+04  0.00000000000E+00 0.  1.
<mgrwt>
<rscale>  0 0.12423605E+04</rscale>
<asrwt>0</asrwt>
<pdfrwt beam="1">  1        1 0.42561608E+00 0.12423605E+04</pdfrwt>
<pdfrwt beam="2">  1       -1 0.21458064E-01 0.12423605E+04</pdfrwt>
<totfact> 0.15921173E+01</totfact>
</mgrwt>
</event>
<event>
12    1  0.1504874E-007  0.1659554E+04  0.7818608E-02  0.8784774E-01
         -2   -1    0    0    0  501 -0.00000000000E+00  0.00000000000E+00  0.37261148185E+03  0.37261148185E+03  0.00000000000E+00 0.  1.
          2   -1    0    0  501    0  0.00000000000E+00 -0.00000000000E+00 -0.18478498563E+04  0.18478498563E+04  0.00000000000E+00 0. -1.
         23    2    1    2    0    0 -0.38496630620E+03 -0.29396315285E+03 -0.94620400643E+03  0.10667870307E+04  0.90106352908E+02 0.  0.
        254    2    1    2    0    0  0.38496630620E+03  0.29396315285E+03 -0.52903436799E+03  0.11536743075E+04  0.90358931658E+03 0.  0.
        -24    2    4    4    0    0  0.49174441966E+03  0.17928387250E+03 -0.72039147807E+03  0.89366219932E+03  0.75584149303E+02 0.  0.
         24    2    4    4    0    0 -0.10677811345E+03  0.11467928035E+03  0.19135711008E+03  0.26001210814E+03  0.80223749259E+02 0.  0.
         11    1    3    3    0    0 -0.33497806926E+03 -0.26903366027E+03 -0.76768590745E+03  0.87973352200E+03  0.00000000000E+00 0.  1.
        -11    1    3    3    0    0 -0.49988236948E+02 -0.24929492580E+02 -0.17851809898E+03  0.18705350865E+03  0.00000000000E+00 0. -1.
          4    1    6    6  502    0 -0.42818816787E+01  0.17160839525E+01  0.55674469552E+02  0.55865248722E+02  0.00000000000E+00 0. -1.
          3    1    5    5  503    0  0.95546237278E+02  0.56034665139E+02 -0.11445254076E+03  0.15927445257E+03  0.00000000000E+00 0. -1.
         -4    1    5    5    0  503  0.39619818238E+03  0.12324920736E+03 -0.60593893731E+03  0.73438774676E+03  0.00000000000E+00 0.  1.
         -3    1    6    6    0  502 -0.10249623178E+03  0.11296319640E+03  0.13568264053E+03  0.20414685941E+03  0.00000000000E+00 0.  1.
<mgrwt>
<rscale>  0 0.16595542E+04</rscale>
<asrwt>0</asrwt>
<pdfrwt beam="1">  1        2 0.28428460E+00 0.16595542E+04</pdfrwt>
<pdfrwt beam="2">  1       -2 0.57324843E-01 0.16595542E+04</pdfrwt>
<totfact> 0.22090394E+01</totfact>
</mgrwt>
</event>
<event>
12    1  0.1504874E-007  0.2050578E+04  0.7818608E-02  0.8583332E-01
         -2   -1    0    0    0  501 -0.00000000000E+00  0.00000000000E+00  0.27501768203E+03  0.27501768203E+03  0.00000000000E+00 0.  1.
          2   -1    0    0  501    0  0.00000000000E+00 -0.00000000000E+00 -0.38223630714E+04  0.38223630714E+04  0.00000000000E+00 0. -1.
         23    2    1    2    0    0  0.55673728197E+03 -0.20849903444E+03 -0.29307936269E+03  0.66906123788E+03  0.91209531864E+02 0.  0.
        254    2    1    2    0    0 -0.55673728197E+03  0.20849903444E+03 -0.32542660267E+04  0.34283195156E+04  0.89983280658E+03 0.  0.
        -24    2    4    4    0    0 -0.13847846301E+03  0.51477699695E+03 -0.13606142755E+04  0.14634497833E+04  0.79008989351E+02 0.  0.
         24    2    4    4    0    0 -0.41825881896E+03 -0.30627796251E+03 -0.18936517513E+04  0.19648697323E+04  0.77778401790E+02 0.  0.
         11    1    3    3    0    0  0.31931373400E+03 -0.71419999741E+02 -0.16543672629E+03  0.36664886130E+03  0.00000000000E+00 0. -1.
        -11    1    3    3    0    0  0.23742354797E+03 -0.13707903470E+03 -0.12764263640E+03  0.30241237659E+03  0.00000000000E+00 0.  1.
          2    1    6    6  502    0 -0.19397451875E+03 -0.99273782627E+02 -0.85206722359E+03  0.87948846004E+03  0.00000000000E+00 0. -1.
          3    1    5    5  503    0 -0.19653226479E+00  0.10225276495E+01 -0.35517576432E+02  0.35532835847E+02  0.00000000000E+00 0. -1.
         -4    1    5    5    0  503 -0.13828193075E+03  0.51375446930E+03 -0.13250966990E+04  0.14279169475E+04  0.00000000000E+00 0.  1.
         -1    1    6    6    0  502 -0.22428430021E+03 -0.20700417988E+03 -0.10415845277E+04  0.10853812722E+04  0.00000000000E+00 0.  1.
<mgrwt>
<rscale>  0 0.20505779E+04</rscale>
<asrwt>0</asrwt>
<pdfrwt beam="1">  1        2 0.58805577E+00 0.20505779E+04</pdfrwt>
<pdfrwt beam="2">  1       -2 0.42310419E-01 0.20505779E+04</pdfrwt>
<totfact> 0.23314615E+00</totfact>
</mgrwt>
</event>
<event>
12    1  0.1504874E-007  0.2449855E+04  0.7818608E-02  0.8421071E-01
         -2   -1    0    0    0  501 -0.00000000000E+00  0.00000000000E+00  0.58176495428E+03  0.58176495428E+03  0.00000000000E+00 0.  1.
          2   -1    0    0  501    0  0.00000000000E+00 -0.00000000000E+00 -0.25791304588E+04  0.25791304588E+04  0.00000000000E+00 0. -1.
         23    2    1    2    0    0 -0.48198009577E+03  0.77965857879E+03 -0.19396981763E+03  0.94138846648E+03  0.91736810897E+02 0.  0.
        254    2    1    2    0    0  0.48198009577E+03 -0.77965857879E+03 -0.18033956869E+04  0.22195069466E+04  0.91312801422E+03 0.  0.
        -24    2    4    4    0    0 -0.24765702260E+03 -0.25977014820E+03 -0.74218723608E+03  0.82837731130E+03  0.80947796380E+02 0.  0.
         24    2    4    4    0    0  0.72963711837E+03 -0.51988843059E+03 -0.10612084509E+04  0.13911296353E+04  0.80149743594E+02 0.  0.
         13    1    3    3    0    0 -0.39055935205E+03  0.68625135131E+03 -0.18067848042E+03  0.81001372701E+03  0.00000000000E+00 0.  1.
        -13    1    3    3    0    0 -0.91420743719E+02  0.93407227480E+02 -0.13291337208E+02  0.13137473948E+03  0.00000000000E+00 0. -1.
          2    1    6    6  502    0  0.28841948547E+03 -0.23536574204E+03 -0.48885376108E+03  0.61445978863E+03  0.00000000000E+00 0. -1.
          1    1    5    5  503    0  0.15179199537E+01  0.41076841231E+01 -0.15403977702E+02  0.16014358522E+02  0.00000000000E+00 0. -1.
         -2    1    5    5    0  503 -0.24917494256E+03 -0.26387783232E+03 -0.72678325838E+03  0.81236295278E+03  0.00000000000E+00 0.  1.
         -3    1    6    6    0  502  0.44121763290E+03 -0.28452268855E+03 -0.57235468978E+03  0.77666984671E+03  0.00000000000E+00 0.  1.
<mgrwt>
<rscale>  0 0.24498553E+04</rscale>
<asrwt>0</asrwt>
<pdfrwt beam="1">  1        2 0.39678930E+00 0.24498553E+04</pdfrwt>
<pdfrwt beam="2">  1       -2 0.89502301E-01 0.24498553E+04</pdfrwt>
<totfact> 0.30004208E+00</totfact>
</mgrwt>
</event>
<event>
12    1  0.1504874E-007  0.1264303E+04  0.7818608E-02  0.9058362E-01
          2   -1    0    0  501    0  0.00000000000E+00  0.00000000000E+00  0.77911825263E+03  0.77911825263E+03  0.00000000000E+00 0. -1.
         -2   -1    0    0    0  501 -0.00000000000E+00 -0.00000000000E+00 -0.51290767708E+03  0.51290767708E+03  0.00000000000E+00 0.  1.
         23    2    1    2    0    0  0.12691051217E+03 -0.18145756991E+03  0.28032528552E+03  0.36869367728E+03  0.91212028746E+02 0.  0.
        254    2    1    2    0    0 -0.12691051217E+03  0.18145756991E+03 -0.14114709962E+02  0.92333225243E+03  0.89627568056E+03 0.  0.
        -24    2    4    4    0    0  0.25767127752E+03  0.39154603280E+03  0.96028826181E+01  0.47649385095E+03  0.85155103079E+02 0.  0.
         24    2    4    4    0    0 -0.38458178969E+03 -0.21008846289E+03 -0.23717592580E+02  0.44683840148E+03  0.84034026657E+02 0.  0.
         13    1    3    3    0    0  0.13054834243E+03 -0.18454171120E+03  0.28377758719E+03  0.36280605269E+03  0.00000000000E+00 0. -1.
        -13    1    3    3    0    0 -0.36378302559E+01  0.30841412860E+01 -0.34523016693E+01  0.58876245854E+01  0.00000000000E+00 0.  1.
          4    1    6    6  502    0  0.31045745761E+01 -0.85599649199E+01  0.12348043849E+01  0.91889131347E+01  0.00000000000E+00 0. -1.
          1    1    5    5  503    0  0.82422370209E+02  0.20133311713E+03 -0.26414313653E+01  0.21756711223E+03  0.00000000000E+00 0. -1.
         -2    1    5    5    0  503  0.17524890731E+03  0.19021291567E+03  0.12244313983E+02  0.25892673873E+03  0.00000000000E+00 0.  1.
         -3    1    6    6    0  502 -0.38768636427E+03 -0.20152849797E+03 -0.24952396965E+02  0.43764948834E+03  0.00000000000E+00 0.  1.
<mgrwt>
<rscale>  0 0.12643033E+04</rscale>
<asrwt>0</asrwt>
<pdfrwt beam="1">  1        2 0.11986435E+00 0.12643033E+04</pdfrwt>
<pdfrwt beam="2">  1       -2 0.78908873E-01 0.12643033E+04</pdfrwt>
<totfact> 0.49995659E+01</totfact>
</mgrwt>
</event>
<event>
12    1  0.1504874E-007  0.2818670E+04  0.7818608E-02  0.8297495E-01
         -2   -1    0    0    0  501 -0.00000000000E+00  0.00000000000E+00  0.10872015323E+04  0.10872015323E+04  0.00000000000E+00 0.  1.
          2   -1    0    0  501    0  0.00000000000E+00 -0.00000000000E+00 -0.18269158597E+04  0.18269158597E+04  0.00000000000E+00 0. -1.
         23    2    1    2    0    0 -0.11032910851E+03 -0.11511642505E+04 -0.86196191530E+03  0.14454691057E+04  0.95136472219E+02 0.  0.
        254    2    1    2    0    0  0.11032910851E+03  0.11511642505E+04  0.12224758790E+03  0.14686482862E+04  0.89701263762E+03 0.  0.
        -24    2    4    4    0    0 -0.38861349180E+03  0.47576190326E+03  0.24089556384E+02  0.62001947397E+03  0.80461212814E+02 0.  0.
         24    2    4    4    0    0  0.49894260031E+03  0.67540234723E+03  0.98158031514E+02  0.84862881224E+03  0.73646539432E+02 0.  0.
         11    1    3    3    0    0 -0.73908779942E+02 -0.99489081522E+03 -0.77248898864E+03  0.12617485802E+04  0.00000000000E+00 0. -1.
        -11    1    3    3    0    0 -0.36420328571E+02 -0.15627343527E+03 -0.89472926660E+02  0.18372052555E+03  0.00000000000E+00 0.  1.
          4    1    6    6  502    0  0.48116274904E+03  0.65965015650E+03  0.10659973837E+03  0.82341934897E+03  0.00000000000E+00 0. -1.
          1    1    5    5  503    0 -0.29218729032E+03  0.33503508450E+03  0.50454581322E+02  0.44740092227E+03  0.00000000000E+00 0. -1.
         -4    1    5    5    0  503 -0.96426201483E+02  0.14072681876E+03 -0.26365024939E+02  0.17261855170E+03  0.00000000000E+00 0.  1.
         -3    1    6    6    0  502  0.17779851270E+02  0.15752190721E+02 -0.84417068525E+01  0.25209463268E+02  0.00000000000E+00 0.  1.
<mgrwt>
<rscale>  0 0.28186704E+04</rscale>
<asrwt>0</asrwt>
<pdfrwt beam="1">  1        2 0.28106398E+00 0.28186704E+04</pdfrwt>
<pdfrwt beam="2">  1       -2 0.16726177E+00 0.28186704E+04</pdfrwt>
<totfact> 0.16152814E+00</totfact>
</mgrwt>
</event>
<event>
12    1  0.1504874E-007  0.1495571E+04  0.7818608E-02  0.8887404E-01
          1   -1    0    0  501    0  0.00000000000E+00  0.00000000000E+00  0.19492565970E+04  0.19492565970E+04  0.00000000000E+00 0. -1.
         -1   -1    0    0    0  501 -0.00000000000E+00 -0.00000000000E+00 -0.28686982976E+03  0.28686982976E+03  0.00000000000E+00 0.  1.
         23    2    1    2    0    0 -0.98505468443E+02 -0.23910568243E+03  0.11342891421E+04  0.11669441219E+04  0.90949826977E+02 0.  0.
        254    2    1    2    0    0  0.98505468443E+02  0.23910568243E+03  0.52809762507E+03  0.10691823048E+04  0.89296631775E+03 0.  0.
        -24    2    4    4    0    0 -0.33131468360E+03  0.11753314653E+03 -0.15957045394E+02  0.36094293426E+03  0.80260291506E+02 0.  0.
         24    2    4    4    0    0  0.42982015204E+03  0.12157253590E+03  0.54405467046E+03  0.70823937055E+03  0.77988954121E+02 0.  0.
         11    1    3    3    0    0 -0.32737512240E+02 -0.18718768297E+03  0.76114710528E+03  0.78450996758E+03  0.00000000000E+00 0. -1.
        -11    1    3    3    0    0 -0.65767956203E+02 -0.51917999453E+02  0.37314203687E+03  0.38243415434E+03  0.00000000000E+00 0.  1.
          4    1    6    6  502    0  0.26539660226E+03  0.49769252669E+02  0.37188308440E+03  0.45957519892E+03  0.00000000000E+00 0. -1.
          1    1    5    5  503    0 -0.29683340850E+03  0.75647352542E+02 -0.14773738169E+02  0.30667712286E+03  0.00000000000E+00 0. -1.
         -2    1    5    5    0  503 -0.34481275097E+02  0.41885793987E+02 -0.11833072248E+01  0.54265811394E+02  0.00000000000E+00 0.  1.
         -3    1    6    6    0  502  0.16442354978E+03  0.71803283228E+02  0.17217158606E+03  0.24866417163E+03  0.00000000000E+00 0.  1.
<mgrwt>
<rscale>  0 0.14955707E+04</rscale>
<asrwt>0</asrwt>
<pdfrwt beam="1">  1        1 0.29988562E+00 0.14955707E+04</pdfrwt>
<pdfrwt beam="2">  1       -1 0.44133821E-01 0.14955707E+04</pdfrwt>
<totfact> 0.15861655E+01</totfact>
</mgrwt>
</event>
<event>
12    1  0.1504874E-007  0.2863102E+04  0.7818608E-02  0.8283941E-01
          2   -1    0    0  501    0  0.00000000000E+00  0.00000000000E+00  0.16134227780E+04  0.16134227780E+04  0.00000000000E+00 0. -1.
         -2   -1    0    0    0  501 -0.00000000000E+00 -0.00000000000E+00 -0.12701808943E+04  0.12701808943E+04  0.00000000000E+00 0.  1.
         23    2    1    2    0    0 -0.88230618391E+03 -0.90416571825E+03  0.40907767385E+03  0.13309271883E+04  0.89681597641E+02 0.  0.
        254    2    1    2    0    0  0.88230618391E+03  0.90416571825E+03 -0.65835790195E+02  0.15526764841E+04  0.90027221704E+03 0.  0.
        -24    2    4    4    0    0  0.43120606335E+02  0.66971349902E+03 -0.60592283637E+01  0.67580438361E+03  0.79368086777E+02 0.  0.
         24    2    4    4    0    0  0.83918557758E+03  0.23445221924E+03 -0.59776561832E+02  0.87687210050E+03  0.78301766048E+02 0.  0.
         11    1    3    3    0    0 -0.20987679142E+03 -0.18077688728E+03  0.11970569700E+03  0.30175818870E+03  0.00000000000E+00 0. -1.
        -11    1    3    3    0    0 -0.67242939249E+03 -0.72338883097E+03  0.28937197685E+03  0.10291689996E+04  0.00000000000E+00 0.  1.
          2    1    6    6  502    0  0.28479360773E+03  0.47092785856E+02 -0.29380929741E+00  0.28866107428E+03  0.00000000000E+00 0. -1.
          1    1    5    5  503    0  0.36774500751E+02  0.13233863113E+03 -0.16135283860E+02  0.13829759427E+03  0.00000000000E+00 0. -1.
         -2    1    5    5    0  503  0.63461055833E+01  0.53737486788E+03  0.10076055496E+02  0.53750678934E+03  0.00000000000E+00 0.  1.
         -1    1    6    6    0  502  0.55439196985E+03  0.18735943338E+03 -0.59482752534E+02  0.58821102621E+03  0.00000000000E+00 0.  1.
<mgrwt>
<rscale>  0 0.28631024E+04</rscale>
<asrwt>0</asrwt>
<pdfrwt beam="1">  1        2 0.24821889E+00 0.28631024E+04</pdfrwt>
<pdfrwt beam="2">  1       -2 0.19541245E+00 0.28631024E+04</pdfrwt>
<totfact> 0.13533519E+00</totfact>
</mgrwt>
</event>
<event>
12    1  0.1504874E-007  0.1329433E+04  0.7818608E-02  0.9006545E-01
          2   -1    0    0  501    0  0.00000000000E+00  0.00000000000E+00  0.30886966103E+04  0.30886966103E+04  0.00000000000E+00 0. -1.
         -2   -1    0    0    0  501 -0.00000000000E+00 -0.00000000000E+00 -0.14305327571E+03  0.14305327571E+03  0.00000000000E+00 0.  1.
         23    2    1    2    0    0 -0.15809667231E+03 -0.19973915016E+03  0.20738750777E+03  0.33938919110E+03  0.85353141452E+02 0.  0.
        254    2    1    2    0    0  0.15809667231E+03  0.19973915016E+03  0.27382558268E+04  0.28923606949E+04  0.89599951472E+03 0.  0.
        -24    2    4    4    0    0  0.13608235034E+03  0.53981148613E+02  0.18669998077E+02  0.16761157899E+03  0.79452514771E+02 0.  0.
         24    2    4    4    0    0  0.22014321968E+02  0.14575800155E+03  0.27195858287E+04  0.27247491159E+04  0.79878904342E+02 0.  0.
         11    1    3    3    0    0 -0.63694275543E+02 -0.12066426449E+03  0.15231295760E+03  0.20448976139E+03  0.00000000000E+00 0. -1.
        -11    1    3    3    0    0 -0.94402396767E+02 -0.79074885666E+02  0.55074550166E+02  0.13489942970E+03  0.00000000000E+00 0.  1.
          2    1    6    6  502    0 -0.25049474317E+02  0.21769649879E+02  0.72500120287E+03  0.72576038606E+03  0.00000000000E+00 0. -1.
          3    1    5    5  503    0  0.26548565733E+02  0.16947906404E+02  0.39086798544E+02  0.50197965042E+02  0.00000000000E+00 0. -1.
         -4    1    5    5    0  503  0.10953378461E+03  0.37033242208E+02 -0.20416800467E+02  0.11741361395E+03  0.00000000000E+00 0.  1.
         -1    1    6    6    0  502  0.47063796285E+02  0.12398835167E+03  0.19945846258E+04  0.19989887298E+04  0.00000000000E+00 0.  1.
<mgrwt>
<rscale>  0 0.13294332E+04</rscale>
<asrwt>0</asrwt>
<pdfrwt beam="1">  1        2 0.47518405E+00 0.13294332E+04</pdfrwt>
<pdfrwt beam="2">  1       -2 0.22008198E-01 0.13294332E+04</pdfrwt>
<totfact> 0.27334445E+01</totfact>
</mgrwt>
</event>
<event>
12    1  0.1504874E-007  0.1650324E+04  0.7818608E-02  0.8790215E-01
         -2   -1    0    0    0  501 -0.00000000000E+00  0.00000000000E+00  0.58613736943E+03  0.58613736943E+03  0.00000000000E+00 0.  1.
          2   -1    0    0  501    0  0.00000000000E+00 -0.00000000000E+00 -0.11616598852E+04  0.11616598852E+04  0.00000000000E+00 0. -1.
         23    2    1    2    0    0 -0.50471808518E+03 -0.26216363431E+03 -0.16645547947E+03  0.59913809829E+03  0.88254844170E+02 0.  0.
        254    2    1    2    0    0  0.50471808518E+03  0.26216363431E+03 -0.40906703632E+03  0.11486591564E+04  0.91028122063E+03 0.  0.
        -24    2    4    4    0    0  0.75828831152E+03  0.12521431509E+03 -0.26766049235E+03  0.81770813409E+03  0.79527764400E+02 0.  0.
         24    2    4    4    0    0 -0.25357022634E+03  0.13694931923E+03 -0.14140654397E+03  0.33095102227E+03  0.80497159830E+02 0.  0.
         13    1    3    3    0    0 -0.25319178976E+03 -0.12932118251E+03 -0.12909813347E+03  0.31224410116E+03  0.00000000000E+00 0. -1.
        -13    1    3    3    0    0 -0.25152629542E+03 -0.13284245181E+03 -0.37357346000E+02  0.28689399713E+03  0.00000000000E+00 0.  1.
          2    1    6    6  502    0 -0.42896160285E+01  0.23021235240E+01  0.89626020432E+01  0.10199451641E+02  0.00000000000E+00 0. -1.
          1    1    5    5  503    0  0.86774432499E+02  0.13778859601E+02 -0.58674416399E+02  0.10565200541E+03  0.00000000000E+00 0. -1.
         -2    1    5    5    0  503  0.67151387902E+03  0.11143545549E+03 -0.20898607595E+03  0.71205612868E+03  0.00000000000E+00 0.  1.
         -1    1    6    6    0  502 -0.24928061031E+03  0.13464719570E+03 -0.15036914601E+03  0.32075157063E+03  0.00000000000E+00 0.  1.
<mgrwt>
<rscale>  0 0.16503239E+04</rscale>
<asrwt>0</asrwt>
<pdfrwt beam="1">  1        2 0.17871690E+00 0.16503239E+04</pdfrwt>
<pdfrwt beam="2">  1       -2 0.90174982E-01 0.16503239E+04</pdfrwt>
<totfact> 0.20077434E+01</totfact>
</mgrwt>
</event>
<event>
12    1  0.1504874E-007  0.2108731E+04  0.7818608E-02  0.8557407E-01
          1   -1    0    0  501    0  0.00000000000E+00  0.00000000000E+00  0.23391382302E+03  0.23391382302E+03  0.00000000000E+00 0. -1.
         -1   -1    0    0    0  501 -0.00000000000E+00 -0.00000000000E+00 -0.47525473365E+04  0.47525473365E+04  0.00000000000E+00 0.  1.
         23    2    1    2    0    0 -0.30851912918E+03 -0.47575758467E+03 -0.33807600710E+04  0.34292288005E+04  0.92423893365E+02 0.  0.
        254    2    1    2    0    0  0.30851912918E+03  0.47575758467E+03 -0.11378734425E+04  0.15572323590E+04  0.89927043565E+03 0.  0.
        -24    2    4    4    0    0 -0.11414771715E+03 -0.12672336319E+03 -0.63523335923E+03  0.66256466551E+03  0.79887440761E+02 0.  0.
         24    2    4    4    0    0  0.42266684633E+03  0.60248094786E+03 -0.50264008329E+03  0.89466769354E+03  0.78438976394E+02 0.  0.
         13    1    3    3    0    0 -0.23711171799E+03 -0.42298189266E+03 -0.27879801066E+04  0.28298354587E+04  0.00000000000E+00 0. -1.
        -13    1    3    3    0    0 -0.71407411191E+02 -0.52775692011E+02 -0.59277996437E+03  0.59939334181E+03  0.00000000000E+00 0.  1.
          2    1    6    6  502    0  0.27998205791E+03  0.45918457734E+03 -0.35892871419E+03  0.64658352182E+03  0.00000000000E+00 0. -1.
          3    1    5    5  503    0  0.96953371125E+01 -0.24762827516E+02 -0.65894782910E+02  0.71058564600E+02  0.00000000000E+00 0. -1.
         -4    1    5    5    0  503 -0.12384305426E+03 -0.10196053567E+03 -0.56933857632E+03  0.59150610091E+03  0.00000000000E+00 0.  1.
         -1    1    6    6    0  502  0.14268478842E+03  0.14329637052E+03 -0.14371136909E+03  0.24808417172E+03  0.00000000000E+00 0.  1.
<mgrwt>
<rscale>  0 0.21087309E+04</rscale>
<asrwt>0</asrwt>
<pdfrwt beam="1">  1        1 0.35986743E-01 0.21087309E+04</pdfrwt>
<pdfrwt beam="2">  1       -1 0.73116111E+00 0.21087309E+04</pdfrwt>
<totfact> 0.16979334E-02</totfact>
</mgrwt>
</event>
<event>
12    1  0.1504874E-007  0.1482376E+04  0.7818608E-02  0.8896258E-01
         -2   -1    0    0    0  501 -0.00000000000E+00  0.00000000000E+00  0.14097154704E+04  0.14097154704E+04  0.00000000000E+00 0.  1.
          2   -1    0    0  501    0  0.00000000000E+00 -0.00000000000E+00 -0.38969532103E+03  0.38969532103E+03  0.00000000000E+00 0. -1.
         23    2    1    2    0    0 -0.37487343883E+03 -0.25234170995E+03  0.48107892740E+03  0.66593504506E+03  0.88465338580E+02 0.  0.
        254    2    1    2    0    0  0.37487343883E+03  0.25234170995E+03  0.53894122199E+03  0.11334757464E+04  0.88887749053E+03 0.  0.
        -24    2    4    4    0    0  0.55277364503E+03  0.65693686850E+02  0.63467222781E+03  0.84796572343E+03  0.79766335132E+02 0.  0.
         24    2    4    4    0    0 -0.17790020621E+03  0.18664802310E+03 -0.95731005821E+02  0.28551002296E+03  0.76587073588E+02 0.  0.
         13    1    3    3    0    0 -0.34724835679E+03 -0.24133127051E+03  0.41051058733E+03  0.58935655229E+03  0.00000000000E+00 0.  1.
        -13    1    3    3    0    0 -0.27625082037E+02 -0.11010439438E+02  0.70568340065E+02  0.76578492762E+02  0.00000000000E+00 0. -1.
          2    1    6    6  502    0 -0.59166479543E+02  0.32701230436E+02  0.25802530870E+01  0.67651315431E+02  0.00000000000E+00 0. -1.
          3    1    5    5  503    0  0.47577548724E+02 -0.11195024813E+02  0.80257707665E+02  0.93969417168E+02  0.00000000000E+00 0. -1.
         -4    1    5    5    0  503  0.50519609631E+03  0.76888711663E+02  0.55441452014E+03  0.75399630626E+03  0.00000000000E+00 0.  1.
         -1    1    6    6    0  502 -0.11873372666E+03  0.15394679267E+03 -0.98311258908E+02  0.21785870753E+03  0.00000000000E+00 0.  1.
<mgrwt>
<rscale>  0 0.14823758E+04</rscale>
<asrwt>0</asrwt>
<pdfrwt beam="1">  1        2 0.59953127E-01 0.14823758E+04</pdfrwt>
<pdfrwt beam="2">  1       -2 0.21687930E+00 0.14823758E+04</pdfrwt>
<totfact> 0.81915305E+00</totfact>
</mgrwt>
</event>
<event>
12    1  0.1507627E-007  0.1618351E+04  0.7818608E-02  0.8809353E-01
         -1   -1    0    0    0  501 -0.00000000000E+00  0.00000000000E+00  0.72374817688E+03  0.72374817688E+03  0.00000000000E+00 0.  1.
          1   -1    0    0  501    0  0.00000000000E+00 -0.00000000000E+00 -0.90468597484E+03  0.90468597484E+03  0.00000000000E+00 0. -1.
         23    2    1    2    0    0 -0.15312826853E+03  0.23506544291E+03 -0.53249803600E+03  0.61152183483E+03  0.10817008392E+03 0.  0.
        254    2    1    2    0    0  0.15312826853E+03 -0.23506544291E+03  0.35156023804E+03  0.10169123169E+04  0.91203729650E+03 0.  0.
        -24    2    4    4    0    0  0.13551525203E+03  0.30319914607E+03  0.32457949693E+03  0.47250089280E+03  0.87241837212E+02 0.  0.
         24    2    4    4    0    0  0.17613016508E+02 -0.53826458897E+03  0.26980741111E+02  0.54441142409E+03  0.74945661649E+02 0.  0.
         11    1    3    3    0    0 -0.90728772341E+02  0.11075427909E+03 -0.37497334665E+03  0.40137666993E+03  0.00000000000E+00 0. -1.
        -11    1    3    3    0    0 -0.62399496193E+02  0.12431116382E+03 -0.15752468935E+03  0.21014516490E+03  0.00000000000E+00 0.  1.
          4    1    6    6  502    0  0.29577564545E+02 -0.46432233006E+03  0.44805221219E+02  0.46741583881E+03  0.00000000000E+00 0. -1.
          3    1    5    5  503    0  0.13014400278E+03  0.29091415015E+03  0.32932007143E+03  0.45827962388E+03  0.00000000000E+00 0. -1.
         -4    1    5    5    0  503  0.53712492447E+01  0.12284995917E+02 -0.47405744966E+01  0.14221268920E+02  0.00000000000E+00 0.  1.
         -3    1    6    6    0  502 -0.11964548037E+02 -0.73942258912E+02 -0.17824480108E+02  0.76995585288E+02  0.00000000000E+00 0.  1.
<mgrwt>
<rscale>  0 0.16183508E+04</rscale>
<asrwt>0</asrwt>
<pdfrwt beam="1">  1        1 0.13918246E+00 0.16183508E+04</pdfrwt>
<pdfrwt beam="2">  1       -1 0.11134587E+00 0.16183508E+04</pdfrwt>
<totfact> 0.12816244E+01</totfact>
</mgrwt>
</event>
<event>
12    1  0.1504874E-007  0.1560977E+04  0.7818608E-02  0.8844887E-01
         -2   -1    0    0    0  501 -0.00000000000E+00  0.00000000000E+00  0.78443877864E+03  0.78443877864E+03  0.00000000000E+00 0.  1.
          2   -1    0    0  501    0  0.00000000000E+00 -0.00000000000E+00 -0.77655806367E+03  0.77655806367E+03  0.00000000000E+00 0. -1.
         23    2    1    2    0    0 -0.33540894589E+03 -0.33412104855E+03 -0.21971380086E+03  0.53012563886E+03  0.92860123966E+02 0.  0.
        254    2    1    2    0    0  0.33540894589E+03  0.33412104855E+03  0.22759451582E+03  0.10308712034E+04  0.88699500472E+03 0.  0.
        -24    2    4    4    0    0  0.53172068001E+03  0.20204388218E+03 -0.13604529684E+03  0.58985718807E+03  0.76645728223E+02 0.  0.
         24    2    4    4    0    0 -0.19631173412E+03  0.13207716637E+03  0.36363981266E+03  0.44101401537E+03  0.79226091488E+02 0.  0.
         11    1    3    3    0    0  0.30887241206E+01 -0.21198003980E+02 -0.11356480835E+02  0.24245932574E+02  0.00000000000E+00 0.  1.
        -11    1    3    3    0    0 -0.33849767001E+03 -0.31292304457E+03 -0.20835732003E+03  0.50587970629E+03  0.00000000000E+00 0. -1.
          2    1    6    6  502    0 -0.16889553281E+03  0.14146543173E+03  0.32713287212E+03  0.39440345510E+03  0.00000000000E+00 0. -1.
          1    1    5    5  503    0  0.52654630686E+03  0.19134093510E+03 -0.13975695289E+03  0.57740312832E+03  0.00000000000E+00 0. -1.
         -2    1    5    5    0  503  0.51743731478E+01  0.10702947086E+02  0.37116560457E+01  0.12454059756E+02  0.00000000000E+00 0.  1.
         -1    1    6    6    0  502 -0.27416201310E+02 -0.93882653588E+01  0.36506940547E+02  0.46610560272E+02  0.00000000000E+00 0.  1.
<mgrwt>
<rscale>  0 0.15609769E+04</rscale>
<asrwt>0</asrwt>
<pdfrwt beam="1">  1        2 0.11947047E+00 0.15609769E+04</pdfrwt>
<pdfrwt beam="2">  1       -2 0.12068289E+00 0.15609769E+04</pdfrwt>
<totfact> 0.18040842E+01</totfact>
</mgrwt>
</event>
<event>
12    1  0.1504874E-007  0.2070130E+04  0.7818608E-02  0.8574517E-01
         -2   -1    0    0    0  501 -0.00000000000E+00  0.00000000000E+00  0.21429738820E+04  0.21429738820E+04  0.00000000000E+00 0.  1.
          2   -1    0    0  501    0  0.00000000000E+00 -0.00000000000E+00 -0.49994063227E+03  0.49994063227E+03  0.00000000000E+00 0. -1.
         23    2    1    2    0    0  0.61717023656E+02  0.65212311375E+03  0.13293911277E+04  0.14848399768E+04  0.91626632932E+02 0.  0.
        254    2    1    2    0    0 -0.61717023656E+02 -0.65212311375E+03  0.31364212202E+03  0.11580745374E+04  0.90204861680E+03 0.  0.
        -24    2    4    4    0    0  0.34904194296E+03 -0.92184923877E+02 -0.44727443857E+02  0.37242091864E+03  0.79802620682E+02 0.  0.
         24    2    4    4    0    0 -0.41075896662E+03 -0.55993818987E+03  0.35836956588E+03  0.78565361880E+03  0.81050341499E+02 0.  0.
         13    1    3    3    0    0 -0.67629123802E+01  0.44942991308E+02  0.14748617180E+03  0.15433010181E+03  0.00000000000E+00 0. -1.
        -13    1    3    3    0    0  0.68479936036E+02  0.60718012244E+03  0.11819049559E+04  0.13305098750E+04  0.00000000000E+00 0.  1.
          4    1    6    6  502    0 -0.39314169542E+03 -0.49710369399E+03  0.32918261407E+03  0.71416641524E+03  0.00000000000E+00 0. -1.
          3    1    5    5  503    0  0.29360839860E+03 -0.96800887350E+02 -0.59588536423E+02  0.31484456037E+03  0.00000000000E+00 0. -1.
         -4    1    5    5    0  503  0.55433544367E+02  0.46159634733E+01  0.14861092565E+02  0.57576358274E+02  0.00000000000E+00 0.  1.
         -3    1    6    6    0  502 -0.17617271200E+02 -0.62834495876E+02  0.29186951815E+02  0.71487203560E+02  0.00000000000E+00 0.  1.
<mgrwt>
<rscale>  0 0.20701302E+04</rscale>
<asrwt>0</asrwt>
<pdfrwt beam="1">  1        2 0.76913945E-01 0.20701302E+04</pdfrwt>
<pdfrwt beam="2">  1       -2 0.32968828E+00 0.20701302E+04</pdfrwt>
<totfact> 0.11882203E+00</totfact>
</mgrwt>
</event>
<event>
12    1  0.1504874E-007  0.1153523E+04  0.7818608E-02  0.9154539E-01
          1   -1    0    0  501    0  0.00000000000E+00  0.00000000000E+00  0.12702063064E+04  0.12702063064E+04  0.00000000000E+00 0. -1.
         -1   -1    0    0    0  501 -0.00000000000E+00 -0.00000000000E+00 -0.26188967189E+03  0.26188967189E+03  0.00000000000E+00 0.  1.
         23    2    1    2    0    0  0.10673549644E+03 -0.10687742731E+03  0.50614605151E+01  0.17939265186E+03  0.96648096152E+02 0.  0.
        254    2    1    2    0    0 -0.10673549644E+03  0.10687742731E+03  0.10032551740E+04  0.13527033264E+04  0.89468994323E+03 0.  0.
        -24    2    4    4    0    0 -0.85234777242E+02  0.47482214098E+03  0.36098099688E+03  0.60786870532E+03  0.80473908784E+02 0.  0.
         24    2    4    4    0    0 -0.21500719196E+02 -0.36794471366E+03  0.64227417713E+03  0.74483462111E+03  0.80105561342E+02 0.  0.
         13    1    3    3    0    0  0.81922178508E+02 -0.10981856485E+03 -0.26077122932E+02  0.13946819299E+03  0.00000000000E+00 0.  1.
        -13    1    3    3    0    0  0.24813317929E+02  0.29411375333E+01  0.31138583447E+02  0.39924458866E+02  0.00000000000E+00 0. -1.
          4    1    6    6  502    0  0.17699582093E+02 -0.30646613980E+02  0.39829704361E+02  0.53281286623E+02  0.00000000000E+00 0. -1.
          1    1    5    5  503    0 -0.23287410646E+02  0.11124302244E+03  0.45127050718E+02  0.12228558477E+03  0.00000000000E+00 0. -1.
         -2    1    5    5    0  503 -0.61947366596E+02  0.36357911854E+03  0.31585394616E+03  0.48558312056E+03  0.00000000000E+00 0.  1.
         -3    1    6    6    0  502 -0.39200301289E+02 -0.33729809968E+03  0.60244447277E+03  0.69155333449E+03  0.00000000000E+00 0.  1.
<mgrwt>
<rscale>  0 0.11535231E+04</rscale>
<asrwt>0</asrwt>
<pdfrwt beam="1">  1        1 0.19541635E+00 0.11535231E+04</pdfrwt>
<pdfrwt beam="2">  1       -1 0.40290720E-01 0.11535231E+04</pdfrwt>
<totfact> 0.56679277E+01</totfact>
</mgrwt>
</event>
<event>
12    1  0.1504874E-007  0.1846936E+04  0.7818608E-02  0.8681730E-01
         -1   -1    0    0    0  501 -0.00000000000E+00  0.00000000000E+00  0.76561614601E+03  0.76561614601E+03  0.00000000000E+00 0.  1.
          1   -1    0    0  501    0  0.00000000000E+00 -0.00000000000E+00 -0.11138655004E+04  0.11138655004E+04  0.00000000000E+00 0. -1.
         23    2    1    2    0    0  0.44753734045E+03 -0.51312368226E+03 -0.27267289107E+03  0.73957379159E+03  0.95043691459E+02 0.  0.
        254    2    1    2    0    0 -0.44753734045E+03  0.51312368226E+03 -0.75576463294E+02  0.11399078548E+04  0.91109413960E+03 0.  0.
        -24    2    4    4    0    0 -0.44025265397E+03  0.79690585994E+02  0.31284540728E+03  0.55249765662E+03  0.84902431559E+02 0.  0.
         24    2    4    4    0    0 -0.72846864816E+01  0.43343309627E+03 -0.38842187058E+03  0.58741019818E+03  0.79132014887E+02 0.  0.
         13    1    3    3    0    0 -0.11825233257E+01 -0.11076525331E+02  0.36626327594E+01  0.11726152547E+02  0.00000000000E+00 0.  1.
        -13    1    3    3    0    0  0.44871986378E+03 -0.50204715693E+03 -0.27633552383E+03  0.72784763905E+03  0.00000000000E+00 0. -1.
          4    1    6    6  502    0 -0.14651879641E+01  0.19420949891E+03 -0.22707657914E+03  0.29880302716E+03  0.00000000000E+00 0. -1.
          1    1    5    5  503    0 -0.20945270477E+03  0.69672095097E+02  0.18775752648E+03  0.28978875948E+03  0.00000000000E+00 0. -1.
         -2    1    5    5    0  503 -0.23079994921E+03  0.10018490898E+02  0.12508788080E+03  0.26270889714E+03  0.00000000000E+00 0.  1.
         -3    1    6    6    0  502 -0.58194985174E+01  0.23922359736E+03 -0.16134529144E+03  0.28860717102E+03  0.00000000000E+00 0.  1.
<mgrwt>
<rscale>  0 0.18469363E+04</rscale>
<asrwt>0</asrwt>
<pdfrwt beam="1">  1        1 0.17136392E+00 0.18469363E+04</pdfrwt>
<pdfrwt beam="2">  1       -1 0.11778710E+00 0.18469363E+04</pdfrwt>
<totfact> 0.75377539E+00</totfact>
</mgrwt>
</event>
<event>
12    1  0.1504874E-007  0.1257380E+04  0.7818608E-02  0.9064063E-01
         -1   -1    0    0    0  501 -0.00000000000E+00  0.00000000000E+00  0.18863616759E+03  0.18863616759E+03  0.00000000000E+00 0.  1.
          1   -1    0    0  501    0  0.00000000000E+00 -0.00000000000E+00 -0.20953104964E+04  0.20953104964E+04  0.00000000000E+00 0. -1.
         23    2    1    2    0    0 -0.43460215282E+02 -0.25785554225E+03 -0.21608337823E+03  0.35282798842E+03  0.97042733290E+02 0.  0.
        254    2    1    2    0    0  0.43460215282E+02  0.25785554225E+03 -0.16905909506E+04  0.19311186756E+04  0.89595943324E+03 0.  0.
        -24    2    4    4    0    0 -0.90434612782E+02 -0.23336435048E+03 -0.14230539908E+03  0.29931695745E+03  0.81868645690E+02 0.  0.
         24    2    4    4    0    0  0.13389482806E+03  0.49121989273E+03 -0.15482855515E+04  0.16318017182E+04  0.79773994968E+02 0.  0.
         11    1    3    3    0    0 -0.30102395201E+02 -0.57816650372E+02 -0.10510513480E+03  0.12367703351E+03  0.00000000000E+00 0. -1.
        -11    1    3    3    0    0 -0.13357820081E+02 -0.20003889187E+03 -0.11097824343E+03  0.22915095491E+03  0.00000000000E+00 0.  1.
          2    1    6    6  502    0  0.71328704729E+02  0.34233795712E+03 -0.11509728236E+04  0.12029220680E+04  0.00000000000E+00 0. -1.
          3    1    5    5  503    0 -0.72624209082E+02 -0.14296199703E+03 -0.47790039261E+02  0.16732093770E+03  0.00000000000E+00 0. -1.
         -4    1    5    5    0  503 -0.17810403700E+02 -0.90402353450E+02 -0.94515359817E+02  0.13199601975E+03  0.00000000000E+00 0.  1.
         -1    1    6    6    0  502  0.62566123335E+02  0.14888193561E+03 -0.39731272799E+03  0.42887965021E+03  0.00000000000E+00 0.  1.
<mgrwt>
<rscale>  0 0.12573804E+04</rscale>
<asrwt>0</asrwt>
<pdfrwt beam="1">  1        1 0.32235546E+00 0.12573804E+04</pdfrwt>
<pdfrwt beam="2">  1       -1 0.29020949E-01 0.12573804E+04</pdfrwt>
<totfact> 0.27422728E+01</totfact>
</mgrwt>
</event>
<event>
12    1  0.1504874E-007  0.2000141E+04  0.7818608E-02  0.8606555E-01
         -1   -1    0    0    0  501 -0.00000000000E+00  0.00000000000E+00  0.12945185108E+04  0.12945185108E+04  0.00000000000E+00 0.  1.
          1   -1    0    0  501    0  0.00000000000E+00 -0.00000000000E+00 -0.77259659363E+03  0.77259659363E+03  0.00000000000E+00 0. -1.
         23    2    1    2    0    0 -0.77963348116E+03 -0.14611715878E+03  0.16584312023E+03  0.81513520942E+03  0.88107207858E+02 0.  0.
        254    2    1    2    0    0  0.77963348116E+03  0.14611715878E+03  0.35607879697E+03  0.12519798950E+04  0.90082348929E+03 0.  0.
        -24    2    4    4    0    0  0.83085470866E+03  0.28497856908E+03  0.51452237665E+03  0.10209876713E+04  0.78423320054E+02 0.  0.
         24    2    4    4    0    0 -0.51221227492E+02 -0.13886141030E+03 -0.15844357968E+03  0.23099222373E+03  0.79667647551E+02 0.  0.
         13    1    3    3    0    0 -0.95828245956E+02 -0.46366529423E+02  0.32871517717E+02  0.11141563827E+03  0.00000000000E+00 0.  1.
        -13    1    3    3    0    0 -0.68380523521E+03 -0.99750629355E+02  0.13297160251E+03  0.70371957116E+03  0.00000000000E+00 0. -1.
          4    1    6    6  502    0 -0.18615929591E+02 -0.12775842419E+03 -0.14465398301E+03  0.19389054280E+03  0.00000000000E+00 0. -1.
          3    1    5    5  503    0  0.44251126314E+03  0.13928140508E+03  0.22833290988E+03  0.51706038868E+03  0.00000000000E+00 0. -1.
         -4    1    5    5    0  503  0.38834344552E+03  0.14569716400E+03  0.28618946677E+03  0.50392728262E+03  0.00000000000E+00 0.  1.
         -3    1    6    6    0  502 -0.32605297901E+02 -0.11102986111E+02 -0.13789596671E+02  0.37101680934E+02  0.00000000000E+00 0.  1.
<mgrwt>
<rscale>  0 0.20001406E+04</rscale>
<asrwt>0</asrwt>
<pdfrwt beam="1">  1        1 0.11886101E+00 0.20001406E+04</pdfrwt>
<pdfrwt beam="2">  1       -1 0.19915669E+00 0.20001406E+04</pdfrwt>
<totfact> 0.33071409E+00</totfact>
</mgrwt>
</event>
<event>
12    1  0.1504874E-007  0.1311173E+04  0.7818608E-02  0.9020751E-01
          2   -1    0    0  501    0  0.00000000000E+00  0.00000000000E+00  0.44105777998E+03  0.44105777998E+03  0.00000000000E+00 0. -1.
         -2   -1    0    0    0  501 -0.00000000000E+00 -0.00000000000E+00 -0.97446183823E+03  0.97446183823E+03  0.00000000000E+00 0.  1.
         23    2    1    2    0    0  0.13240716954E+03 -0.25541979238E+03  0.37105130010E+02  0.30395965716E+03  0.90795118941E+02 0.  0.
        254    2    1    2    0    0 -0.13240716954E+03  0.25541979238E+03 -0.57050918826E+03  0.11115599610E+04  0.90956796569E+03 0.  0.
        -24    2    4    4    0    0 -0.10526933702E+03  0.35061605146E+03 -0.78237437820E+03  0.86745532859E+03  0.79723463147E+02 0.  0.
         24    2    4    4    0    0 -0.27137832516E+02 -0.95196259081E+02  0.21186518994E+03  0.24410463245E+03  0.70010164822E+02 0.  0.
         13    1    3    3    0    0  0.43943226047E+02 -0.95272476079E+02  0.57884895203E+02  0.11982701242E+03  0.00000000000E+00 0. -1.
        -13    1    3    3    0    0  0.88463943494E+02 -0.16014731630E+03 -0.20779765193E+02  0.18413264474E+03  0.00000000000E+00 0.  1.
          2    1    6    6  502    0  0.15858190185E+02 -0.57268084943E+02  0.74798099306E+02  0.95529426926E+02  0.00000000000E+00 0. -1.
          3    1    5    5  503    0 -0.46591289091E+02  0.21035037995E+03 -0.53932567751E+03  0.58076692139E+03  0.00000000000E+00 0. -1.
         -4    1    5    5    0  503 -0.58678047934E+02  0.14026567151E+03 -0.24304870069E+03  0.28668840720E+03  0.00000000000E+00 0.  1.
         -1    1    6    6    0  502 -0.42996022701E+02 -0.37928174138E+02  0.13706709064E+03  0.14857520552E+03  0.00000000000E+00 0.  1.
<mgrwt>
<rscale>  0 0.13111735E+04</rscale>
<asrwt>0</asrwt>
<pdfrwt beam="1">  1        2 0.67855044E-01 0.13111735E+04</pdfrwt>
<pdfrwt beam="2">  1       -2 0.14991720E+00 0.13111735E+04</pdfrwt>
<totfact> 0.20893323E+01</totfact>
</mgrwt>
</event>
<event>
12    1  0.1504874E-007  0.2810670E+04  0.7818608E-02  0.8299963E-01
         -1   -1    0    0    0  501 -0.00000000000E+00  0.00000000000E+00  0.10683870032E+04  0.10683870032E+04  0.00000000000E+00 0.  1.
          1   -1    0    0  501    0  0.00000000000E+00 -0.00000000000E+00 -0.18485495988E+04  0.18485495988E+04  0.00000000000E+00 0. -1.
         23    2    1    2    0    0  0.78791955166E+02  0.19441392749E+02  0.98698958897E+03  0.99516999147E+03  0.98126057956E+02 0.  0.
        254    2    1    2    0    0 -0.78791955166E+02 -0.19441392749E+02 -0.17671521846E+04  0.19217666105E+04  0.75084880092E+03 0.  0.
        -24    2    4    4    0    0 -0.35725363200E+03  0.13352591422E+03 -0.65288984099E+03  0.76033507224E+03  0.79905883837E+02 0.  0.
         24    2    4    4    0    0  0.27846167683E+03 -0.15296730697E+03 -0.11142623436E+04  0.11614315382E+04  0.80017156118E+02 0.  0.
         13    1    3    3    0    0  0.88224765525E+01 -0.19259633730E+02  0.44397700476E+02  0.49192737182E+02  0.00000000000E+00 0. -1.
        -13    1    3    3    0    0  0.69969478614E+02  0.38701026479E+02  0.94259188849E+03  0.94597725429E+03  0.00000000000E+00 0.  1.
          4    1    6    6  502    0  0.16768086868E+03 -0.60519055261E+02 -0.71529325088E+03  0.73717288646E+03  0.00000000000E+00 0. -1.
          3    1    5    5  503    0 -0.21441949713E+03  0.83822152606E+02 -0.31517909455E+03  0.39030723239E+03  0.00000000000E+00 0. -1.
         -4    1    5    5    0  503 -0.14283413486E+03  0.49703761611E+02 -0.33771074645E+03  0.37002783985E+03  0.00000000000E+00 0.  1.
         -3    1    6    6    0  502  0.11078080815E+03 -0.92448251706E+02 -0.39896909269E+03  0.42425865179E+03  0.00000000000E+00 0.  1.
<mgrwt>
<rscale>  0 0.28106699E+04</rscale>
<asrwt>0</asrwt>
<pdfrwt beam="1">  1        1 0.28439225E+00 0.28106699E+04</pdfrwt>
<pdfrwt beam="2">  1       -1 0.16436723E+00 0.28106699E+04</pdfrwt>
<totfact> 0.88480640E-01</totfact>
</mgrwt>
</event>
<event>
12    1  0.1504874E-007  0.1344127E+04  0.7818608E-02  0.8995286E-01
          2   -1    0    0  501    0  0.00000000000E+00  0.00000000000E+00  0.20727504691E+04  0.20727504691E+04  0.00000000000E+00 0. -1.
         -2   -1    0    0    0  501 -0.00000000000E+00 -0.00000000000E+00 -0.21790818746E+03  0.21790818746E+03  0.00000000000E+00 0.  1.
         23    2    1    2    0    0  0.37847804543E+03  0.11146904117E+03  0.35192849295E+03  0.53621801782E+03  0.89471338838E+02 0.  0.
        254    2    1    2    0    0 -0.37847804543E+03 -0.11146904117E+03  0.15029137886E+04  0.17544406387E+04  0.81464171302E+03 0.  0.
        -24    2    4    4    0    0 -0.40943824023E+03  0.28031055647E+03  0.85122197231E+03  0.98924642679E+03  0.88407952875E+02 0.  0.
         24    2    4    4    0    0  0.30960194800E+02 -0.39177959764E+03  0.65169181633E+03  0.76519421191E+03  0.79813355238E+02 0.  0.
         13    1    3    3    0    0  0.36910423891E+03  0.12203565240E+03  0.32898848083E+03  0.50927797926E+03  0.00000000000E+00 0. -1.
        -13    1    3    3    0    0  0.93738065186E+01 -0.10566611232E+02  0.22940012124E+02  0.26940038564E+02  0.00000000000E+00 0.  1.
          4    1    6    6  502    0 -0.19559819036E+01 -0.23534115247E+03  0.45002489893E+03  0.50785006997E+03  0.00000000000E+00 0. -1.
          1    1    5    5  503    0 -0.22778469948E+03  0.16132715696E+03  0.39148281205E+03  0.48080257177E+03  0.00000000000E+00 0. -1.
         -2    1    5    5    0  503 -0.18165354076E+03  0.11898339951E+03  0.45973916026E+03  0.50844385502E+03  0.00000000000E+00 0.  1.
         -3    1    6    6    0  502  0.32916176704E+02 -0.15643844517E+03  0.20166691741E+03  0.25734414194E+03  0.00000000000E+00 0.  1.
<mgrwt>
<rscale>  0 0.13441269E+04</rscale>
<asrwt>0</asrwt>
<pdfrwt beam="1">  1        2 0.31888467E+00 0.13441269E+04</pdfrwt>
<pdfrwt beam="2">  1       -2 0.33524338E-01 0.13441269E+04</pdfrwt>
<totfact> 0.49515226E+01</totfact>
</mgrwt>
</event>
<event>
12    1  0.1504874E-007  0.2145811E+04  0.7818608E-02  0.8541328E-01
         -1   -1    0    0    0  501 -0.00000000000E+00  0.00000000000E+00  0.58253305339E+03  0.58253305339E+03  0.00000000000E+00 0.  1.
          1   -1    0    0  501    0  0.00000000000E+00 -0.00000000000E+00 -0.19760695611E+04  0.19760695611E+04  0.00000000000E+00 0. -1.
         23    2    1    2    0    0 -0.77479170660E+03 -0.38911430334E+01 -0.71567831062E+02  0.78637724821E+03  0.11379759423E+03 0.  0.
        254    2    1    2    0    0  0.77479170660E+03  0.38911430334E+01 -0.13219686767E+04  0.17722253663E+04  0.89042924328E+03 0.  0.
        -24    2    4    4    0    0  0.55969228447E+03  0.22137510958E+03 -0.25470207325E+03  0.65859863012E+03  0.81342590537E+02 0.  0.
         24    2    4    4    0    0  0.21509942212E+03 -0.21748396655E+03 -0.10672666034E+04  0.11136267362E+04  0.86830108115E+02 0.  0.
         11    1    3    3    0    0 -0.97978680475E+02 -0.14151828760E+02 -0.45588440354E+02  0.10898808182E+03  0.00000000000E+00 0. -1.
        -11    1    3    3    0    0 -0.67681302612E+03  0.10260685726E+02 -0.25979390708E+02  0.67738916639E+03  0.00000000000E+00 0.  1.
          4    1    6    6  502    0  0.19010515097E+03 -0.16646188340E+03 -0.95417072569E+03  0.98706195389E+03  0.00000000000E+00 0. -1.
          1    1    5    5  503    0  0.40201345965E+03  0.17353912857E+03 -0.14761726695E+03  0.46208387592E+03  0.00000000000E+00 0. -1.
         -2    1    5    5    0  503  0.15767882483E+03  0.47835981010E+02 -0.10708480630E+03  0.19651475420E+03  0.00000000000E+00 0.  1.
         -3    1    6    6    0  502  0.24994271148E+02 -0.51022083151E+02 -0.11309587774E+03  0.12656478231E+03  0.00000000000E+00 0.  1.
<mgrwt>
<rscale>  0 0.21458106E+04</rscale>
<asrwt>0</asrwt>
<pdfrwt beam="1">  1        1 0.30401070E+00 0.21458106E+04</pdfrwt>
<pdfrwt beam="2">  1       -1 0.89620470E-01 0.21458106E+04</pdfrwt>
<totfact> 0.34546571E+00</totfact>
</mgrwt>
</event>
<event>
12    1  0.1504874E-007  0.2652071E+04  0.7818608E-02  0.8350726E-01
         -2   -1    0    0    0  501 -0.00000000000E+00  0.00000000000E+00  0.13507620339E+04  0.13507620339E+04  0.00000000000E+00 0.  1.
          2   -1    0    0  501    0  0.00000000000E+00 -0.00000000000E+00 -0.13017620054E+04  0.13017620054E+04  0.00000000000E+00 0. -1.
         23    2    1    2    0    0 -0.19212242977E+03  0.10881181885E+04  0.41308408793E+03  0.11831238482E+04  0.90726822743E+02 0.  0.
        254    2    1    2    0    0  0.19212242977E+03 -0.10881181885E+04 -0.36408405943E+03  0.14694001911E+04  0.89758982798E+03 0.  0.
        -24    2    4    4    0    0 -0.16598023354E+03 -0.25996554855E+03 -0.45950293991E+03  0.55848143905E+03  0.75013609576E+02 0.  0.
         24    2    4    4    0    0  0.35810266331E+03 -0.82815263993E+03  0.95418880477E+02  0.91091875209E+03  0.81202818143E+02 0.  0.
         11    1    3    3    0    0 -0.18543621653E+03  0.83218595116E+03  0.32249999473E+03  0.91155158620E+03  0.00000000000E+00 0.  1.
        -11    1    3    3    0    0 -0.66862132400E+01  0.25593223732E+03  0.90584093205E+02  0.27157226200E+03  0.00000000000E+00 0. -1.
          4    1    6    6  502    0  0.40068872545E+02 -0.17365065810E+03  0.16777136485E+02  0.17900150255E+03  0.00000000000E+00 0. -1.
          1    1    5    5  503    0 -0.14726698710E+02 -0.73039292311E+02 -0.80993222086E+02  0.11005233255E+03  0.00000000000E+00 0. -1.
         -2    1    5    5    0  503 -0.15125353483E+03 -0.18692625624E+03 -0.37850971782E+03  0.44842910650E+03  0.00000000000E+00 0.  1.
         -3    1    6    6    0  502  0.31803379076E+03 -0.65450198183E+03  0.78641743993E+02  0.73191724955E+03  0.00000000000E+00 0.  1.
<mgrwt>
<rscale>  0 0.26520714E+04</rscale>
<asrwt>0</asrwt>
<pdfrwt beam="1">  1        2 0.20027108E+00 0.26520714E+04</pdfrwt>
<pdfrwt beam="2">  1       -2 0.20780954E+00 0.26520714E+04</pdfrwt>
<totfact> 0.17183930E+00</totfact>
</mgrwt>
</event>
<event>
12    1  0.1504874E-007  0.1251122E+04  0.7818608E-02  0.9069250E-01
          1   -1    0    0  501    0  0.00000000000E+00  0.00000000000E+00  0.80489977318E+03  0.80489977318E+03  0.00000000000E+00 0.  1.
         -1   -1    0    0    0  501 -0.00000000000E+00 -0.00000000000E+00 -0.48618085576E+03  0.48618085576E+03  0.00000000000E+00 0. -1.
         23    2    1    2    0    0  0.97306299683E+02 -0.27242316545E+03  0.29090319618E+02  0.30612286810E+03  0.95823100802E+02 0.  0.
        254    2    1    2    0    0 -0.97306299683E+02  0.27242316545E+03  0.28962859780E+03  0.98495776084E+03  0.89586503947E+03 0.  0.
        -24    2    4    4    0    0 -0.52164456751E+02 -0.28121937600E+03 -0.86924012627E+02  0.30926491468E+03  0.79268754860E+02 0.  0.
         24    2    4    4    0    0 -0.45141842933E+02  0.55364254144E+03  0.37655261043E+03  0.67569284616E+03  0.78810559264E+02 0.  0.
         13    1    3    3    0    0  0.29500053433E+02 -0.98984298628E+02  0.56761629731E+02  0.11785595928E+03  0.00000000000E+00 0.  1.
        -13    1    3    3    0    0  0.67806246250E+02 -0.17343886682E+03 -0.27671310113E+02  0.18826690882E+03  0.00000000000E+00 0. -1.
          2    1    6    6  502    0  0.16311772284E+02  0.40534601101E+02  0.37896014212E+02  0.57838012541E+02  0.00000000000E+00 0. -1.
          1    1    5    5  503    0 -0.35730416054E+02 -0.38278710238E+02 -0.24962942555E+02  0.58009230213E+02  0.00000000000E+00 0. -1.
         -2    1    5    5    0  503 -0.16434040696E+02 -0.24294066576E+03 -0.61961070072E+02  0.25125568447E+03  0.00000000000E+00 0.  1.
         -1    1    6    6    0  502 -0.61453615217E+02  0.51310794034E+03  0.33865659621E+03  0.61785483362E+03  0.00000000000E+00 0.  1.
<mgrwt>
<rscale>  0 0.12511225E+04</rscale>
<asrwt>0</asrwt>
<pdfrwt beam="1">  1        1 0.12383073E+00 0.12511225E+04</pdfrwt>
<pdfrwt beam="2">  1       -1 0.74797055E-01 0.12511225E+04</pdfrwt>
<totfact> 0.38831469E+01</totfact>
</mgrwt>
</event>
<event>
12    1  0.1504874E-007  0.1742241E+04  0.7818608E-02  0.8737633E-01
         -1   -1    0    0    0  501 -0.00000000000E+00  0.00000000000E+00  0.60896025203E+03  0.60896025203E+03  0.00000000000E+00 0.  1.
          1   -1    0    0  501    0  0.00000000000E+00 -0.00000000000E+00 -0.12461424127E+04  0.12461424127E+04  0.00000000000E+00 0. -1.
         23    2    1    2    0    0  0.22653619710E+03 -0.58670235540E+03 -0.29839325871E+03  0.70205969724E+03  0.91164572132E+02 0.  0.
        254    2    1    2    0    0 -0.22653619710E+03  0.58670235540E+03 -0.33878890198E+03  0.11530429675E+04  0.90509218448E+03 0.  0.
        -24    2    4    4    0    0 -0.36677259021E+03  0.72105805898E+03 -0.43531225025E+03  0.92214539303E+03  0.80053190561E+02 0.  0.
         24    2    4    4    0    0  0.14023639311E+03 -0.13435570357E+03  0.96523348266E+02  0.23089757449E+03  0.79241605915E+02 0.  0.
         13    1    3    3    0    0  0.65335050032E+02 -0.25116344701E+03 -0.16019185297E+03  0.30498061518E+03  0.00000000000E+00 0. -1.
        -13    1    3    3    0    0  0.16120114706E+03 -0.33553890839E+03 -0.13820140573E+03  0.39707908206E+03  0.00000000000E+00 0.  1.
          2    1    6    6  502    0  0.49817351662E+02 -0.96512481765E+01  0.46815514572E+02  0.69040622264E+02  0.00000000000E+00 0. -1.
          3    1    5    5  503    0 -0.35444292740E+02  0.29629212087E+02 -0.26150981459E+02  0.53085421050E+02  0.00000000000E+00 0. -1.
         -4    1    5    5    0  503 -0.33132829747E+03  0.69142884689E+03 -0.40916126879E+03  0.86905997198E+03  0.00000000000E+00 0.  1.
         -1    1    6    6    0  502  0.90419041453E+02 -0.12470445540E+03  0.49707833695E+02  0.16185695223E+03  0.00000000000E+00 0.  1.
<mgrwt>
<rscale>  0 0.17422413E+04</rscale>
<asrwt>0</asrwt>
<pdfrwt beam="1">  1        1 0.19171421E+00 0.17422413E+04</pdfrwt>
<pdfrwt beam="2">  1       -1 0.93686194E-01 0.17422413E+04</pdfrwt>
<totfact> 0.10361521E+01</totfact>
</mgrwt>
</event>
<event>
12    1  0.1504874E-007  0.1451099E+04  0.7818608E-02  0.8917639E-01
         -2   -1    0    0    0  501 -0.00000000000E+00  0.00000000000E+00  0.86261695258E+03  0.86261695258E+03  0.00000000000E+00 0.  1.
          2   -1    0    0  501    0  0.00000000000E+00 -0.00000000000E+00 -0.61026207278E+03  0.61026207278E+03  0.00000000000E+00 0. -1.
         23    2    1    2    0    0  0.32888558564E+03  0.34675199870E+02  0.27921527885E+03  0.44360444208E+03  0.97240069727E+02 0.  0.
        254    2    1    2    0    0 -0.32888558564E+03 -0.34675199870E+02 -0.26860399054E+02  0.10292745833E+04  0.97432878886E+03 0.  0.
        -24    2    4    4    0    0 -0.61051244074E+03 -0.10421100570E+03 -0.23095712131E+03  0.66588490409E+03  0.80474465563E+02 0.  0.
         24    2    4    4    0    0  0.28162685509E+03  0.69535805831E+02  0.20409672226E+03  0.36338967918E+03  0.79042223527E+02 0.  0.
         11    1    3    3    0    0  0.17155239241E+03  0.65706302532E+01  0.83454773900E+02  0.19088765232E+03  0.00000000000E+00 0. -1.
        -11    1    3    3    0    0  0.15733319324E+03  0.28104569616E+02  0.19576050495E+03  0.25271678976E+03  0.00000000000E+00 0.  1.
          4    1    6    6  502    0  0.23445639045E+03  0.25183856956E+02  0.16409895447E+03  0.28728468900E+03  0.00000000000E+00 0. -1.
          3    1    5    5  503    0 -0.58682456432E+02  0.84168064570E+01 -0.38571407545E+02  0.70726422247E+02  0.00000000000E+00 0. -1.
         -4    1    5    5    0  503 -0.55182998430E+03 -0.11262781216E+03 -0.19238571377E+03  0.59515848184E+03  0.00000000000E+00 0.  1.
         -3    1    6    6    0  502  0.47170464645E+02  0.44351948875E+02  0.39997767786E+02  0.76104990190E+02  0.00000000000E+00 0.  1.
<mgrwt>
<rscale>  0 0.14510995E+04</rscale>
<asrwt>0</asrwt>
<pdfrwt beam="1">  1        2 0.93886473E-01 0.14510995E+04</pdfrwt>
<pdfrwt beam="2">  1       -2 0.13271030E+00 0.14510995E+04</pdfrwt>
<totfact> 0.19407390E+01</totfact>
</mgrwt>
</event>
<event>
12    1  0.1504874E-007  0.1137845E+04  0.7818608E-02  0.9169071E-01
         -2   -1    0    0    0  501 -0.00000000000E+00  0.00000000000E+00  0.11586686912E+03  0.11586686912E+03  0.00000000000E+00 0.  1.
          2   -1    0    0  501    0  0.00000000000E+00 -0.00000000000E+00 -0.27934892204E+04  0.27934892204E+04  0.00000000000E+00 0. -1.
         23    2    1    2    0    0  0.12303323381E+03  0.14167577327E+03 -0.62694834405E+03  0.66081482179E+03  0.91666794587E+02 0.  0.
        254    2    1    2    0    0 -0.12303323381E+03 -0.14167577327E+03 -0.20506740072E+04  0.22485412678E+04  0.90303086738E+03 0.  0.
        -24    2    4    4    0    0  0.26757206544E+03 -0.71995261785E+02 -0.16606402627E+04  0.16859635975E+04  0.89269490454E+02 0.  0.
         24    2    4    4    0    0 -0.39060529925E+03 -0.69680511483E+02 -0.39003374453E+03  0.56257767028E+03  0.83303299699E+02 0.  0.
         11    1    3    3    0    0  0.10835798033E+03  0.13710930623E+03 -0.61961027619E+03  0.64378358796E+03  0.00000000000E+00 0. -1.
        -11    1    3    3    0    0  0.14675253481E+02  0.45664670400E+01 -0.73380678608E+01  0.17031233834E+02  0.00000000000E+00 0.  1.
          2    1    6    6  502    0 -0.33412798832E+03 -0.85792508629E+02 -0.35047504346E+03  0.49176683825E+03  0.00000000000E+00 0. -1.
          3    1    5    5  503    0  0.16014356756E+03 -0.17773136111E+02 -0.11559308489E+04  0.11671066678E+04  0.00000000000E+00 0. -1.
         -4    1    5    5    0  503  0.10742849788E+03 -0.54222125674E+02 -0.50470941385E+03  0.51885692971E+03  0.00000000000E+00 0.  1.
         -1    1    6    6    0  502 -0.56477310930E+02  0.16111997146E+02 -0.39558701068E+02  0.70810832025E+02  0.00000000000E+00 0.  1.
<mgrwt>
<rscale>  0 0.11378451E+04</rscale>
<asrwt>0</asrwt>
<pdfrwt beam="1">  1        2 0.42976760E+00 0.11378451E+04</pdfrwt>
<pdfrwt beam="2">  1       -2 0.17825671E-01 0.11378451E+04</pdfrwt>
<totfact> 0.61180848E+01</totfact>
</mgrwt>
</event>
<event>
12    1  0.1504874E-007  0.1401860E+04  0.7818608E-02  0.8952473E-01
          1   -1    0    0  501    0  0.00000000000E+00  0.00000000000E+00  0.17781846106E+04  0.17781846106E+04  0.00000000000E+00 0. -1.
         -1   -1    0    0    0  501 -0.00000000000E+00 -0.00000000000E+00 -0.27629479717E+03  0.27629479717E+03  0.00000000000E+00 0.  1.
         23    2    1    2    0    0 -0.31687223832E+03 -0.24030299935E+03  0.61893114419E+03  0.74123732572E+03  0.90572981027E+02 0.  0.
        254    2    1    2    0    0  0.31687223832E+03  0.24030299935E+03  0.88295866927E+03  0.13132420821E+04  0.88703732027E+03 0.  0.
        -24    2    4    4    0    0  0.25342562989E+03  0.64763016856E+02 -0.11342003315E+03  0.29651456292E+03  0.81473823188E+02 0.  0.
         24    2    4    4    0    0  0.63446608423E+02  0.17553998249E+03  0.99637870242E+03  0.10167275191E+04  0.78259644558E+02 0.  0.
         11    1    3    3    0    0 -0.29538983645E+03 -0.20126571917E+03  0.50324672207E+03  0.61726842498E+03  0.00000000000E+00 0.  1.
        -11    1    3    3    0    0 -0.21482401862E+02 -0.39037280177E+02  0.11568442211E+03  0.12396890075E+03  0.00000000000E+00 0. -1.
          4    1    6    6  502    0 -0.52985361103E+01  0.59898796393E+02  0.45148289778E+03  0.45546980940E+03  0.00000000000E+00 0. -1.
          1    1    5    5  503    0  0.88607569756E+02  0.16840479951E+02  0.10535352648E+01  0.90199850996E+02  0.00000000000E+00 0. -1.
         -2    1    5    5    0  503  0.16481806014E+03  0.47922536905E+02 -0.11447356842E+03  0.20631471192E+03  0.00000000000E+00 0.  1.
         -3    1    6    6    0  502  0.68745144534E+02  0.11564118610E+03  0.54489580465E+03  0.56125770974E+03  0.00000000000E+00 0.  1.
<mgrwt>
<rscale>  0 0.14018604E+04</rscale>
<asrwt>0</asrwt>
<pdfrwt beam="1">  1        1 0.27356686E+00 0.14018604E+04</pdfrwt>
<pdfrwt beam="2">  1       -1 0.42506893E-01 0.14018604E+04</pdfrwt>
<totfact> 0.22386839E+01</totfact>
</mgrwt>
</event>
<event>
12    1  0.1504874E-007  0.1273592E+04  0.7818608E-02  0.9050773E-01
          2   -1    0    0  501    0  0.00000000000E+00  0.00000000000E+00  0.19358701017E+04  0.19358701017E+04  0.00000000000E+00 0. -1.
         -2   -1    0    0    0  501 -0.00000000000E+00 -0.00000000000E+00 -0.20947140186E+03  0.20947140186E+03  0.00000000000E+00 0.  1.
         23    2    1    2    0    0 -0.25847477625E+03  0.17349057293E+02  0.15676531671E+03  0.31607518161E+03  0.90652943500E+02 0.  0.
        254    2    1    2    0    0  0.25847477625E+03 -0.17349057293E+02  0.15696333831E+04  0.18292663219E+04  0.90297071903E+03 0.  0.
        -24    2    4    4    0    0  0.19293623139E+03  0.31046119056E+03  0.13939083129E+04  0.14432207814E+04  0.79342919691E+02 0.  0.
         24    2    4    4    0    0  0.65538544853E+02 -0.32781024785E+03  0.17572507017E+03  0.38604554048E+03  0.79981245178E+02 0.  0.
         13    1    3    3    0    0 -0.99512735778E+02  0.10444216006E+02  0.11665692864E+02  0.10073705684E+03  0.00000000000E+00 0.  1.
        -13    1    3    3    0    0 -0.15896204047E+03  0.69048412871E+01  0.14509962384E+03  0.21533812478E+03  0.00000000000E+00 0. -1.
          4    1    6    6  502    0  0.75143044051E+02 -0.30989578278E+03  0.14769124295E+03  0.35141795131E+03  0.00000000000E+00 0. -1.
          1    1    5    5  503    0  0.83653211897E+02  0.17842747957E+03  0.62015816393E+03  0.65071527845E+03  0.00000000000E+00 0. -1.
         -2    1    5    5    0  503  0.10928301950E+03  0.13203371099E+03  0.77375014900E+03  0.79250550298E+03  0.00000000000E+00 0.  1.
         -3    1    6    6    0  502 -0.96044991980E+01 -0.17914465070E+02  0.28033827216E+02  0.34627589173E+02  0.00000000000E+00 0.  1.
<mgrwt>
<rscale>  0 0.12735924E+04</rscale>
<asrwt>0</asrwt>
<pdfrwt beam="1">  1        2 0.29782616E+00 0.12735924E+04</pdfrwt>
<pdfrwt beam="2">  1       -2 0.32226371E-01 0.12735924E+04</pdfrwt>
<totfact> 0.63882593E+01</totfact>
</mgrwt>
</event>
<event>
12    1  0.1504874E-007  0.1200939E+04  0.7818608E-02  0.9112035E-01
          2   -1    0    0  501    0  0.00000000000E+00  0.00000000000E+00  0.42039788479E+04  0.42039788479E+04  0.00000000000E+00 0. -1.
         -2   -1    0    0    0  501 -0.00000000000E+00 -0.00000000000E+00 -0.85767232459E+02  0.85767232459E+02  0.00000000000E+00 0.  1.
         23    2    1    2    0    0 -0.16856123488E+03  0.15583200508E+03  0.56096656611E+03  0.61301818597E+03  0.91713163326E+02 0.  0.
        254    2    1    2    0    0  0.16856123488E+03 -0.15583200508E+03  0.35572450493E+04  0.36767278943E+04  0.90091018679E+03 0.  0.
        -24    2    4    4    0    0  0.95872696199E+02 -0.48792643168E+03  0.27691880012E+04  0.28146787661E+04  0.82161995778E+02 0.  0.
         24    2    4    4    0    0  0.72688538677E+02  0.33209442660E+03  0.78805704806E+03  0.86204912826E+03  0.80774109034E+02 0.  0.
         11    1    3    3    0    0 -0.15546968860E+03  0.13961071412E+03  0.55218583849E+03  0.59039916650E+03  0.00000000000E+00 0. -1.
        -11    1    3    3    0    0 -0.13091546274E+02  0.16221290963E+02  0.87807276154E+01  0.22619019470E+02  0.00000000000E+00 0.  1.
          2    1    6    6  502    0  0.27787891824E+02  0.20449088997E+02  0.73312818155E+02  0.81025313814E+02  0.00000000000E+00 0. -1.
          1    1    5    5  503    0  0.13093946148E+02 -0.61954900886E+01  0.10888977386E+03  0.10984907088E+03  0.00000000000E+00 0. -1.
         -2    1    5    5    0  503  0.82778750050E+02 -0.48173094159E+03  0.26602982274E+04  0.27048296952E+04  0.00000000000E+00 0.  1.
         -1    1    6    6    0  502  0.44900646853E+02  0.31164533760E+03  0.71474422991E+03  0.78102381444E+03  0.00000000000E+00 0.  1.
<mgrwt>
<rscale>  0 0.12009390E+04</rscale>
<asrwt>0</asrwt>
<pdfrwt beam="1">  1        2 0.64676582E+00 0.12009390E+04</pdfrwt>
<pdfrwt beam="2">  1       -2 0.13194962E-01 0.12009390E+04</pdfrwt>
<totfact> 0.10392580E+01</totfact>
</mgrwt>
</event>
<event>
12    1  0.1504874E-007  0.1137703E+04  0.7818608E-02  0.9169204E-01
          1   -1    0    0  501    0  0.00000000000E+00  0.00000000000E+00  0.22214291377E+04  0.22214291377E+04  0.00000000000E+00 0. -1.
         -1   -1    0    0    0  501 -0.00000000000E+00 -0.00000000000E+00 -0.14566828591E+03  0.14566828591E+03  0.00000000000E+00 0.  1.
         23    2    1    2    0    0 -0.12110241919E+03 -0.62947376650E+02  0.89027046518E+02  0.18645046114E+03  0.90607898584E+02 0.  0.
        254    2    1    2    0    0  0.12110241919E+03  0.62947376650E+02  0.19867338053E+04  0.21806469625E+04  0.88852788013E+03 0.  0.
        -24    2    4    4    0    0 -0.10562709269E+03 -0.36718495324E+03  0.10859932941E+04  0.11539311010E+04  0.78699925989E+02 0.  0.
         24    2    4    4    0    0  0.22672951189E+03  0.43013232989E+03  0.90074051115E+03  0.10267158615E+04  0.79949352845E+02 0.  0.
         13    1    3    3    0    0  0.74562517302E+01  0.37825650712E+01  0.28091402122E+02  0.29309219736E+02  0.00000000000E+00 0. -1.
        -13    1    3    3    0    0 -0.12855867092E+03 -0.66729941721E+02  0.60935644396E+02  0.15714124140E+03  0.00000000000E+00 0.  1.
          2    1    6    6  502    0  0.66603065575E+01  0.38952039063E+02  0.41466468309E+02  0.57280791061E+02  0.00000000000E+00 0. -1.
          3    1    5    5  503    0  0.10425683512E+02 -0.31806580646E+02  0.12839077586E+03  0.13268211927E+03  0.00000000000E+00 0. -1.
         -4    1    5    5    0  503 -0.11605277620E+03 -0.33537837259E+03  0.95760251828E+03  0.10212489817E+04  0.00000000000E+00 0.  1.
         -1    1    6    6    0  502  0.22006920533E+03  0.39118029083E+03  0.85927404284E+03  0.96943507042E+03  0.00000000000E+00 0.  1.
<mgrwt>
<rscale>  0 0.11377026E+04</rscale>
<asrwt>0</asrwt>
<pdfrwt beam="1">  1        1 0.34175830E+00 0.11377026E+04</pdfrwt>
<pdfrwt beam="2">  1       -1 0.22410507E-01 0.11377026E+04</pdfrwt>
<totfact> 0.35507979E+01</totfact>
</mgrwt>
</event>
<event>
12    1  0.1504874E-007  0.2333920E+04  0.7818608E-02  0.8464666E-01
          2   -1    0    0  501    0  0.00000000000E+00  0.00000000000E+00  0.22351499953E+04  0.22351499953E+04  0.00000000000E+00 0. -1.
         -2   -1    0    0    0  501 -0.00000000000E+00 -0.00000000000E+00 -0.60926375785E+03  0.60926375785E+03  0.00000000000E+00 0.  1.
         23    2    1    2    0    0 -0.16691858175E+03  0.36303377440E+02 -0.47588598784E+03  0.51381549312E+03  0.91428329280E+02 0.  0.
        254    2    1    2    0    0  0.16691858175E+03 -0.36303377440E+02  0.21017722253E+04  0.23305982600E+04  0.99250290405E+03 0.  0.
        -24    2    4    4    0    0  0.43192037416E+03  0.13650174190E+03  0.18819856280E+04  0.19372830586E+04  0.77510063885E+02 0.  0.
         24    2    4    4    0    0 -0.26500179241E+03 -0.17280511934E+03  0.21978659733E+03  0.39331520147E+03  0.79392317587E+02 0.  0.
         13    1    3    3    0    0 -0.15418390296E+02 -0.16258383453E+02 -0.13800308046E+03  0.13981027147E+03  0.00000000000E+00 0. -1.
        -13    1    3    3    0    0 -0.15150019145E+03  0.52561760893E+02 -0.33788290739E+03  0.37400522165E+03  0.00000000000E+00 0.  1.
          4    1    6    6  502    0 -0.33948725584E+02 -0.17243212296E+02  0.63181959394E+02  0.73768586349E+02  0.00000000000E+00 0. -1.
          3    1    5    5  503    0  0.12394160731E+03  0.46398251153E+01  0.55005060947E+03  0.56386055278E+03  0.00000000000E+00 0. -1.
         -4    1    5    5    0  503  0.30797876684E+03  0.13186191678E+03  0.13319350185E+04  0.13734225058E+04  0.00000000000E+00 0.  1.
         -3    1    6    6    0  502 -0.23105306683E+03 -0.15556190704E+03  0.15660463793E+03  0.31954661512E+03  0.00000000000E+00 0.  1.
<mgrwt>
<rscale>  0 0.23339202E+04</rscale>
<asrwt>0</asrwt>
<pdfrwt beam="1">  1        2 0.34386923E+00 0.23339202E+04</pdfrwt>
<pdfrwt beam="2">  1       -2 0.93732887E-01 0.23339202E+04</pdfrwt>
<totfact> 0.42889947E+00</totfact>
</mgrwt>
</event>
<event>
12    1  0.1504874E-007  0.1659498E+04  0.7818608E-02  0.8784807E-01
          1   -1    0    0  501    0  0.00000000000E+00  0.00000000000E+00  0.11835910834E+04  0.11835910834E+04  0.00000000000E+00 0. -1.
         -1   -1    0    0    0  501 -0.00000000000E+00 -0.00000000000E+00 -0.58169038892E+03  0.58169038892E+03  0.00000000000E+00 0.  1.
         23    2    1    2    0    0 -0.29174099705E+03 -0.31029779139E+03 -0.20583229102E+03  0.48160715230E+03  0.90448816536E+02 0.  0.
        254    2    1    2    0    0  0.29174099705E+03  0.31029779139E+03  0.80773298553E+03  0.12836743201E+04  0.90221375259E+03 0.  0.
        -24    2    4    4    0    0  0.57657985569E+03  0.22587139747E+03  0.30611495100E+03  0.69540310645E+03  0.80105549467E+02 0.  0.
         24    2    4    4    0    0 -0.28483885864E+03  0.84426393927E+02  0.50161803453E+03  0.58827121361E+03  0.78621732434E+02 0.  0.
         13    1    3    3    0    0 -0.20544554923E+02 -0.33889760141E+02  0.62190530573E+01  0.40115722608E+02  0.00000000000E+00 0. -1.
        -13    1    3    3    0    0 -0.27119644212E+03 -0.27640803125E+03 -0.21205134408E+03  0.44149142969E+03  0.00000000000E+00 0.  1.
          2    1    6    6  502    0 -0.34568167950E+02  0.40340759332E+02  0.91386245996E+02  0.10570610700E+03  0.00000000000E+00 0. -1.
          1    1    5    5  503    0  0.20794302892E+03  0.92643467000E+02  0.15452613968E+03  0.27513895234E+03  0.00000000000E+00 0. -1.
         -2    1    5    5    0  503  0.36863682677E+03  0.13322793047E+03  0.15158881132E+03  0.42026415410E+03  0.00000000000E+00 0.  1.
         -1    1    6    6    0  502 -0.25027069069E+03  0.44085634596E+02  0.41023178854E+03  0.48256510661E+03  0.00000000000E+00 0.  1.
<mgrwt>
<rscale>  0 0.16594982E+04</rscale>
<asrwt>0</asrwt>
<pdfrwt beam="1">  1        1 0.18209094E+00 0.16594982E+04</pdfrwt>
<pdfrwt beam="2">  1       -1 0.89490829E-01 0.16594982E+04</pdfrwt>
<totfact> 0.12832442E+01</totfact>
</mgrwt>
</event>
<event>
12    1  0.1504874E-007  0.1509471E+04  0.7818608E-02  0.8878179E-01
         -1   -1    0    0    0  501 -0.00000000000E+00  0.00000000000E+00  0.28459663503E+03  0.28459663503E+03  0.00000000000E+00 0.  1.
          1   -1    0    0  501    0  0.00000000000E+00 -0.00000000000E+00 -0.20015188272E+04  0.20015188272E+04  0.00000000000E+00 0. -1.
         23    2    1    2    0    0  0.17082174811E+03 -0.37704265078E+02 -0.12023779166E+04  0.12206599379E+04  0.11703139943E+03 0.  0.
        254    2    1    2    0    0 -0.17082174811E+03  0.37704265078E+02 -0.51454427555E+03  0.10654555243E+04  0.91642674640E+03 0.  0.
        -24    2    4    4    0    0 -0.19663106209E+03  0.45698185074E+03 -0.31131544466E+03  0.59233327049E+03  0.80282069958E+02 0.  0.
         24    2    4    4    0    0  0.25809313973E+02 -0.41927758567E+03 -0.20322883089E+03  0.47312225381E+03  0.77992915146E+02 0.  0.
         13    1    3    3    0    0  0.44508956692E+02 -0.47632599407E+02 -0.68076206692E+03  0.68387638028E+03  0.00000000000E+00 0. -1.
        -13    1    3    3    0    0  0.12631279142E+03  0.99283343297E+01 -0.52161584972E+03  0.53678355766E+03  0.00000000000E+00 0.  1.
          4    1    6    6  502    0  0.48204854696E+02 -0.16789673356E+03 -0.76136311264E+02  0.19055119798E+03  0.00000000000E+00 0. -1.
          3    1    5    5  503    0 -0.63063023571E+02  0.83102412211E+02 -0.41331153621E+02  0.11221060608E+03  0.00000000000E+00 0. -1.
         -4    1    5    5    0  503 -0.13356803852E+03  0.37387943853E+03 -0.26998429104E+03  0.48012266441E+03  0.00000000000E+00 0.  1.
         -3    1    6    6    0  502 -0.22395540724E+02 -0.25138085210E+03 -0.12709251963E+03  0.28257105583E+03  0.00000000000E+00 0.  1.
<mgrwt>
<rscale>  0 0.15094708E+04</rscale>
<asrwt>0</asrwt>
<pdfrwt beam="1">  1        1 0.30792596E+00 0.15094708E+04</pdfrwt>
<pdfrwt beam="2">  1       -1 0.43784099E-01 0.15094708E+04</pdfrwt>
<totfact> 0.14820558E+01</totfact>
</mgrwt>
</event>
<event>
12    1  0.1504874E-007  0.2462212E+04  0.7818608E-02  0.8416573E-01
         -2   -1    0    0    0  501 -0.00000000000E+00  0.00000000000E+00  0.11676051476E+04  0.11676051476E+04  0.00000000000E+00 0.  1.
          2   -1    0    0  501    0  0.00000000000E+00 -0.00000000000E+00 -0.12980599061E+04  0.12980599061E+04  0.00000000000E+00 0. -1.
         23    2    1    2    0    0  0.97975050230E+03  0.31299215772E+03  0.13626681146E+03  0.10415854517E+04  0.91959076607E+02 0.  0.
        254    2    1    2    0    0 -0.97975050230E+03 -0.31299215772E+03 -0.26672157001E+03  0.14240796020E+04  0.94814934438E+03 0.  0.
        -24    2    4    4    0    0 -0.97008958755E+03  0.90872894298E+02 -0.26359965102E+03  0.10123834804E+04  0.78127105827E+02 0.  0.
         24    2    4    4    0    0 -0.96609147543E+01 -0.40386505202E+03 -0.31219189905E+01  0.41169612152E+03  0.79269392437E+02 0.  0.
         11    1    3    3    0    0  0.63336967040E+03  0.24664058445E+03  0.78680245857E+02  0.68423628841E+03  0.00000000000E+00 0.  1.
        -11    1    3    3    0    0  0.34638083190E+03  0.66351573278E+02  0.57586565602E+02  0.35734916332E+03  0.00000000000E+00 0. -1.
          2    1    6    6  502    0 -0.41840646462E+02 -0.14878052725E+03 -0.34169223792E+01  0.15458965148E+03  0.00000000000E+00 0. -1.
          1    1    5    5  503    0 -0.47014574225E+03  0.69759288782E+02 -0.15895858611E+03  0.50116984090E+03  0.00000000000E+00 0. -1.
         -2    1    5    5    0  503 -0.49994384530E+03  0.21113605516E+02 -0.10464106491E+03  0.51121363954E+03  0.00000000000E+00 0.  1.
         -1    1    6    6    0  502  0.32179731707E+02 -0.25508452477E+03  0.29500338868E+00  0.25710647004E+03  0.00000000000E+00 0.  1.
<mgrwt>
<rscale>  0 0.24622115E+04</rscale>
<asrwt>0</asrwt>
<pdfrwt beam="1">  1        2 0.19970152E+00 0.24622115E+04</pdfrwt>
<pdfrwt beam="2">  1       -2 0.17963156E+00 0.24622115E+04</pdfrwt>
<totfact> 0.27048313E+00</totfact>
</mgrwt>
</event>
<event>
12    1  0.1504874E-007  0.1737979E+04  0.7818608E-02  0.8739995E-01
         -1   -1    0    0    0  501 -0.00000000000E+00  0.00000000000E+00  0.70222297526E+03  0.70222297526E+03  0.00000000000E+00 0.  1.
          1   -1    0    0  501    0  0.00000000000E+00 -0.00000000000E+00 -0.10753600817E+04  0.10753600817E+04  0.00000000000E+00 0. -1.
         23    2    1    2    0    0 -0.59504135788E+02 -0.56649671490E+02  0.49903400794E+03  0.51393409668E+03  0.91342143593E+02 0.  0.
        254    2    1    2    0    0  0.59504135788E+02  0.56649671490E+02 -0.87217111442E+03  0.12636489603E+04  0.91070100179E+03 0.  0.
        -24    2    4    4    0    0  0.57937613218E+02  0.10453984551E+03 -0.10516115263E+04  0.10615884138E+04  0.82448842960E+02 0.  0.
         24    2    4    4    0    0  0.15665225694E+01 -0.47890174018E+02  0.17944041187E+03  0.20206054656E+03  0.79584422509E+02 0.  0.
         11    1    3    3    0    0 -0.16844745837E+02  0.11788396006E+00  0.96262341372E+01  0.19401642781E+02  0.00000000000E+00 0. -1.
        -11    1    3    3    0    0 -0.42659389950E+02 -0.56767555450E+02  0.48940777380E+03  0.49453245390E+03  0.00000000000E+00 0.  1.
          2    1    6    6  502    0 -0.10757790276E+02 -0.43396629904E+02  0.18306930442E+03  0.18844990782E+03  0.00000000000E+00 0. -1.
          3    1    5    5  503    0  0.38415487074E+02  0.49085841937E+02 -0.82915650225E+03  0.83149604614E+03  0.00000000000E+00 0. -1.
         -4    1    5    5    0  503  0.19522126144E+02  0.55454003570E+02 -0.22245502404E+03  0.23009236763E+03  0.00000000000E+00 0.  1.
         -3    1    6    6    0  502  0.12324312846E+02 -0.44935441137E+01 -0.36288925493E+01  0.13610638742E+02  0.00000000000E+00 0.  1.
<mgrwt>
<rscale>  0 0.17379788E+04</rscale>
<asrwt>0</asrwt>
<pdfrwt beam="1">  1        1 0.16544001E+00 0.17379788E+04</pdfrwt>
<pdfrwt beam="2">  1       -1 0.10803430E+00 0.17379788E+04</pdfrwt>
<totfact> 0.10000057E+01</totfact>
</mgrwt>
</event>
<event>
12    1  0.1504874E-007  0.1302420E+04  0.7818608E-02  0.9027648E-01
         -1   -1    0    0    0  501 -0.00000000000E+00  0.00000000000E+00  0.16838096281E+03  0.16838096281E+03  0.00000000000E+00 0.  1.
          1   -1    0    0  501    0  0.00000000000E+00 -0.00000000000E+00 -0.25185406189E+04  0.25185406189E+04  0.00000000000E+00 0. -1.
         23    2    1    2    0    0 -0.25833111946E+03 -0.14151231739E+03 -0.87051272405E+03  0.92338699241E+03  0.89946827388E+02 0.  0.
        254    2    1    2    0    0  0.25833111946E+03  0.14151231739E+03 -0.14796469321E+04  0.17635345893E+04  0.91320233294E+03 0.  0.
        -24    2    4    4    0    0  0.57227625817E+03 -0.40184651340E+02 -0.10129154785E+04  0.11667464536E+04  0.78642218614E+02 0.  0.
         24    2    4    4    0    0 -0.31394513870E+03  0.18169696873E+03 -0.46673145358E+03  0.59678813573E+03  0.82112670281E+02 0.  0.
         11    1    3    3    0    0 -0.12293550878E+01 -0.10006500352E+02 -0.55890217431E+01  0.11527294881E+02  0.00000000000E+00 0.  1.
        -11    1    3    3    0    0 -0.25710176438E+03 -0.13150581704E+03 -0.86492370231E+03  0.91185969753E+03  0.00000000000E+00 0. -1.
          4    1    6    6  502    0 -0.28617643039E+03  0.14384815763E+03 -0.43470563026E+03  0.53996131967E+03  0.00000000000E+00 0. -1.
          1    1    5    5  503    0  0.56989511374E+03 -0.44916264211E+02 -0.98972039511E+03  0.11429542300E+04  0.00000000000E+00 0. -1.
         -2    1    5    5    0  503  0.23811444283E+01  0.47316128706E+01 -0.23195083361E+02  0.23792223546E+02  0.00000000000E+00 0.  1.
         -3    1    6    6    0  502 -0.27768708313E+02  0.37848811104E+02 -0.32025823321E+02  0.56826816053E+02  0.00000000000E+00 0.  1.
<mgrwt>
<rscale>  0 0.13024197E+04</rscale>
<asrwt>0</asrwt>
<pdfrwt beam="1">  1        1 0.38746778E+00 0.13024197E+04</pdfrwt>
<pdfrwt beam="2">  1       -1 0.25904764E-01 0.13024197E+04</pdfrwt>
<totfact> 0.17103585E+01</totfact>
</mgrwt>
</event>
<event>
12    1  0.1504874E-007  0.1178033E+04  0.7818608E-02  0.9132305E-01
         -1   -1    0    0    0  501 -0.00000000000E+00  0.00000000000E+00  0.11736445981E+04  0.11736445981E+04  0.00000000000E+00 0.  1.
          1   -1    0    0  501    0  0.00000000000E+00 -0.00000000000E+00 -0.29560943269E+03  0.29560943269E+03  0.00000000000E+00 0. -1.
         23    2    1    2    0    0  0.17903735825E+03 -0.12619819463E+03  0.10210032755E+03  0.25835003657E+03  0.91323077769E+02 0.  0.
        254    2    1    2    0    0 -0.17903735825E+03  0.12619819463E+03  0.77593483786E+03  0.12109039942E+04  0.90345628043E+03 0.  0.
        -24    2    4    4    0    0 -0.12479915264E+03  0.48512527776E+03  0.63693047030E+03  0.81412837220E+03  0.78760515481E+02 0.  0.
         24    2    4    4    0    0 -0.54238205617E+02 -0.35892708312E+03  0.13900436755E+03  0.39677562203E+03  0.79613102482E+02 0.  0.
         11    1    3    3    0    0  0.56893907298E+02 -0.58541764280E+02 -0.58709123648E+01  0.81844501738E+02  0.00000000000E+00 0. -1.
        -11    1    3    3    0    0  0.12214345095E+03 -0.67656430352E+02  0.10797123991E+03  0.17650553484E+03  0.00000000000E+00 0.  1.
          2    1    6    6  502    0 -0.63800736946E+02 -0.16363414005E+03  0.55819163410E+02  0.18428902525E+03  0.00000000000E+00 0. -1.
          1    1    5    5  503    0 -0.72349119736E+02  0.40102506295E+03  0.52573046756E+03  0.66516766365E+03  0.00000000000E+00 0. -1.
         -2    1    5    5    0  503 -0.52450032899E+02  0.84100214807E+02  0.11120000274E+03  0.14896070855E+03  0.00000000000E+00 0.  1.
         -1    1    6    6    0  502  0.95625313297E+01 -0.19529294308E+03  0.83185204143E+02  0.21248659678E+03  0.00000000000E+00 0.  1.
<mgrwt>
<rscale>  0 0.11780330E+04</rscale>
<asrwt>0</asrwt>
<pdfrwt beam="1">  1        1 0.45478375E-01 0.11780330E+04</pdfrwt>
<pdfrwt beam="2">  1       -1 0.18056071E+00 0.11780330E+04</pdfrwt>
<totfact> 0.18269515E+01</totfact>
</mgrwt>
</event>
<event>
12    1  0.1504874E-007  0.1793629E+04  0.7818608E-02  0.8709695E-01
          2   -1    0    0  501    0  0.00000000000E+00  0.00000000000E+00  0.11029676268E+04  0.11029676268E+04  0.00000000000E+00 0. -1.
         -2   -1    0    0    0  501 -0.00000000000E+00 -0.00000000000E+00 -0.72919277353E+03  0.72919277353E+03  0.00000000000E+00 0.  1.
         23    2    1    2    0    0  0.66447180973E+03  0.36978774791E+02  0.11303994810E+03  0.68128935483E+03  0.92124586445E+02 0.  0.
        254    2    1    2    0    0 -0.66447180973E+03 -0.36978774791E+02  0.26073490520E+03  0.11508710455E+04  0.90201510904E+03 0.  0.
        -24    2    4    4    0    0  0.10653575143E+03 -0.23827765843E+02  0.34608176215E+03  0.37105759700E+03  0.77417862573E+02 0.  0.
         24    2    4    4    0    0 -0.77100756116E+03 -0.13151008948E+02 -0.85346856945E+02  0.77981344852E+03  0.78735761307E+02 0.  0.
         11    1    3    3    0    0  0.45465030927E+03 -0.17442842889E+02  0.81968912401E+02  0.46230948410E+03  0.00000000000E+00 0.  1.
        -11    1    3    3    0    0  0.20982150046E+03  0.54421617680E+02  0.31071035701E+02  0.21897987073E+03  0.00000000000E+00 0. -1.
          4    1    6    6  502    0 -0.22229819346E+01  0.52639961177E+01 -0.28808769928E+01  0.63992777762E+01  0.00000000000E+00 0. -1.
          1    1    5    5  503    0  0.69935160884E+02  0.89875647386E+01  0.11572135466E+03  0.13551064524E+03  0.00000000000E+00 0. -1.
         -2    1    5    5    0  503  0.36600590543E+02 -0.32815330581E+02  0.23036040749E+03  0.23554695177E+03  0.00000000000E+00 0.  1.
         -3    1    6    6    0  502 -0.76878457922E+03 -0.18415005066E+02 -0.82465979952E+02  0.77341417075E+03  0.00000000000E+00 0.  1.
<mgrwt>
<rscale>  0 0.17936287E+04</rscale>
<asrwt>0</asrwt>
<pdfrwt beam="1">  1        2 0.16968733E+00 0.17936287E+04</pdfrwt>
<pdfrwt beam="2">  1       -2 0.11218350E+00 0.17936287E+04</pdfrwt>
<totfact> 0.12837711E+01</totfact>
</mgrwt>
</event>
<event>
12    1  0.1504874E-007  0.2111467E+04  0.7818608E-02  0.8556209E-01
         -1   -1    0    0    0  501 -0.00000000000E+00  0.00000000000E+00  0.89868420920E+03  0.89868420920E+03  0.00000000000E+00 0.  1.
          1   -1    0    0  501    0  0.00000000000E+00 -0.00000000000E+00 -0.12402283082E+04  0.12402283082E+04  0.00000000000E+00 0. -1.
         23    2    1    2    0    0  0.50527499617E+03 -0.48124226826E+02 -0.84451015309E+03  0.99100300209E+03  0.10616396994E+03 0.  0.
        254    2    1    2    0    0 -0.50527499617E+03  0.48124226826E+02  0.50296605406E+03  0.11479095153E+04  0.89838891407E+03 0.  0.
        -24    2    4    4    0    0 -0.38755852649E+03 -0.11934946263E+03  0.72557003449E+03  0.83490609258E+03  0.78551911445E+02 0.  0.
         24    2    4    4    0    0 -0.11771646968E+03  0.16747368945E+03 -0.22260398043E+03  0.31300342277E+03  0.80709396415E+02 0.  0.
         11    1    3    3    0    0  0.42055648382E+03 -0.70335222786E+02 -0.64605438698E+03  0.77408079073E+03  0.00000000000E+00 0. -1.
        -11    1    3    3    0    0  0.84718512351E+02  0.22210995960E+02 -0.19845576611E+03  0.21692221136E+03  0.00000000000E+00 0.  1.
          4    1    6    6  502    0 -0.44596060247E+02  0.49470523829E+02 -0.13018101520E+03  0.14623008595E+03  0.00000000000E+00 0. -1.
          3    1    5    5  503    0 -0.16467624145E+03 -0.24249073426E+02  0.35577106508E+03  0.39278407911E+03  0.00000000000E+00 0. -1.
         -4    1    5    5    0  503 -0.22288228504E+03 -0.95100389199E+02  0.36979896941E+03  0.44212201346E+03  0.00000000000E+00 0.  1.
         -3    1    6    6    0  502 -0.73120409433E+02  0.11800316562E+03 -0.92422965226E+02  0.16677333682E+03  0.00000000000E+00 0.  1.
<mgrwt>
<rscale>  0 0.21114674E+04</rscale>
<asrwt>0</asrwt>
<pdfrwt beam="1">  1        1 0.19080436E+00 0.21114674E+04</pdfrwt>
<pdfrwt beam="2">  1       -1 0.13825911E+00 0.21114674E+04</pdfrwt>
<totfact> 0.39747180E+00</totfact>
</mgrwt>
</event>
<event>
12    1  0.1504874E-007  0.2548805E+04  0.7818608E-02  0.8385802E-01
         -2   -1    0    0    0  501 -0.00000000000E+00  0.00000000000E+00  0.36870650507E+03  0.36870650507E+03  0.00000000000E+00 0.  1.
          2   -1    0    0  501    0  0.00000000000E+00 -0.00000000000E+00 -0.44048637455E+04  0.44048637455E+04  0.00000000000E+00 0. -1.
         23    2    1    2    0    0 -0.57917637665E+03  0.73446153967E+03 -0.64503329092E+03  0.11397685570E+04  0.90140937251E+02 0.  0.
        254    2    1    2    0    0  0.57917637665E+03 -0.73446153967E+03 -0.33911239495E+04  0.36338016936E+04  0.91099620129E+03 0.  0.
        -24    2    4    4    0    0  0.64438614872E+03 -0.62456063943E+03 -0.15984725315E+04  0.18348527029E+04  0.79123361956E+02 0.  0.
         24    2    4    4    0    0 -0.65209772075E+02 -0.10990090024E+03 -0.17926514180E+04  0.17989489907E+04  0.79295915945E+02 0.  0.
         13    1    3    3    0    0 -0.21297101146E+03  0.27134357119E+03 -0.29141562383E+03  0.45156068380E+03  0.00000000000E+00 0.  1.
        -13    1    3    3    0    0 -0.36620536519E+03  0.46311796848E+03 -0.35361766709E+03  0.68820787318E+03  0.00000000000E+00 0. -1.
          2    1    6    6  502    0 -0.70797942962E+02 -0.10787444036E+03 -0.13267555741E+04  0.13330152276E+04  0.00000000000E+00 0. -1.
          1    1    5    5  503    0  0.45339507055E+03 -0.41374055539E+03 -0.10256816663E+04  0.11953121842E+04  0.00000000000E+00 0. -1.
         -2    1    5    5    0  503  0.19099107817E+03 -0.21082008404E+03 -0.57279086521E+03  0.63954051869E+03  0.00000000000E+00 0.  1.
         -1    1    6    6    0  502  0.55881708877E+01 -0.20264598807E+01 -0.46589584391E+03  0.46593376307E+03  0.00000000000E+00 0.  1.
<mgrwt>
<rscale>  0 0.25488051E+04</rscale>
<asrwt>0</asrwt>
<pdfrwt beam="1">  1        2 0.67767133E+00 0.25488051E+04</pdfrwt>
<pdfrwt beam="2">  1       -2 0.56724079E-01 0.25488051E+04</pdfrwt>
<totfact> 0.39507695E-01</totfact>
</mgrwt>
</event>
<event>
12    1  0.1504874E-007  0.1123284E+04  0.7818608E-02  0.9182791E-01
          1   -1    0    0  501    0  0.00000000000E+00  0.00000000000E+00  0.11800268182E+04  0.11800268182E+04  0.00000000000E+00 0. -1.
         -1   -1    0    0    0  501 -0.00000000000E+00 -0.00000000000E+00 -0.26731720358E+03  0.26731720358E+03  0.00000000000E+00 0.  1.
         23    2    1    2    0    0 -0.14811065910E+03  0.11736857543E+03  0.12829467717E+03  0.24690738640E+03  0.93763443995E+02 0.  0.
        254    2    1    2    0    0  0.14811065910E+03 -0.11736857543E+03  0.78441493749E+03  0.12004366354E+04  0.88883585193E+03 0.  0.
        -24    2    4    4    0    0  0.39438902246E+03 -0.65048172083E+02  0.83748335704E+03  0.93076225023E+03  0.71875082017E+02 0.  0.
         24    2    4    4    0    0 -0.24627836336E+03 -0.52320403350E+02 -0.53068419549E+02  0.26967438520E+03  0.80731406602E+02 0.  0.
         11    1    3    3    0    0 -0.73258882252E+02  0.81891615754E+02  0.12147059449E+03  0.16379318022E+03  0.00000000000E+00 0. -1.
        -11    1    3    3    0    0 -0.74851776845E+02  0.35476959680E+02  0.68240826847E+01  0.83114206183E+02  0.00000000000E+00 0.  1.
          4    1    6    6  502    0 -0.68249997397E+02  0.19681574134E+02 -0.24301325085E+01  0.71072723664E+02  0.00000000000E+00 0. -1.
          3    1    5    5  503    0  0.14376607867E+03 -0.59068037613E+02  0.31801064007E+03  0.35396113578E+03  0.00000000000E+00 0. -1.
         -4    1    5    5    0  503  0.25062294379E+03 -0.59801344702E+01  0.51947271697E+03  0.57680111445E+03  0.00000000000E+00 0.  1.
         -3    1    6    6    0  502 -0.17802836596E+03 -0.72001977484E+02 -0.50638287041E+02  0.19860166153E+03  0.00000000000E+00 0.  1.
<mgrwt>
<rscale>  0 0.11232835E+04</rscale>
<asrwt>0</asrwt>
<pdfrwt beam="1">  1        1 0.18154258E+00 0.11232835E+04</pdfrwt>
<pdfrwt beam="2">  1       -1 0.41125724E-01 0.11232835E+04</pdfrwt>
<totfact> 0.63610790E+01</totfact>
</mgrwt>
</event>
<event>
12    1  0.1504874E-007  0.2172256E+04  0.7818608E-02  0.8530065E-01
          2   -1    0    0  501    0  0.00000000000E+00  0.00000000000E+00  0.62903335035E+03  0.62903335035E+03  0.00000000000E+00 0. -1.
         -2   -1    0    0    0  501 -0.00000000000E+00 -0.00000000000E+00 -0.18753761149E+04  0.18753761149E+04  0.00000000000E+00 0.  1.
         23    2    1    2    0    0  0.51517135187E+02 -0.50441354475E+02  0.51507002739E+03  0.52798591112E+03  0.90959572182E+02 0.  0.
        254    2    1    2    0    0 -0.51517135187E+02  0.50441354475E+02 -0.17614127919E+04  0.19764235541E+04  0.89357523255E+03 0.  0.
        -24    2    4    4    0    0 -0.32337615832E+03 -0.36228119673E+02 -0.20598117129E+03  0.39302943601E+03  0.78481069160E+02 0.  0.
         24    2    4    4    0    0  0.27185902314E+03  0.86669474148E+02 -0.15554316206E+04  0.15833941181E+04  0.79689902509E+02 0.  0.
         11    1    3    3    0    0 -0.99833425442E+01  0.18632338892E+02  0.60046888556E+02  0.63658935007E+02  0.00000000000E+00 0.  1.
        -11    1    3    3    0    0  0.61500477732E+02 -0.69073693367E+02  0.45502313883E+03  0.46432697611E+03  0.00000000000E+00 0. -1.
          2    1    6    6  502    0  0.25048020181E+03  0.67140225547E+02 -0.12514003827E+04  0.12779871123E+04  0.00000000000E+00 0. -1.
          3    1    5    5  503    0 -0.12980138592E+03  0.15979602158E+02 -0.54211816270E+02  0.14157213177E+03  0.00000000000E+00 0. -1.
         -4    1    5    5    0  503 -0.19357477241E+03 -0.52207721830E+02 -0.15176935502E+03  0.25145730424E+03  0.00000000000E+00 0.  1.
         -1    1    6    6    0  502  0.21378821324E+02  0.19529248600E+02 -0.30403123797E+03  0.30540700583E+03  0.00000000000E+00 0.  1.
<mgrwt>
<rscale>  0 0.21722561E+04</rscale>
<asrwt>0</asrwt>
<pdfrwt beam="1">  1        2 0.96774361E-01 0.21722561E+04</pdfrwt>
<pdfrwt beam="2">  1       -2 0.28851940E+00 0.21722561E+04</pdfrwt>
<totfact> 0.16030384E+00</totfact>
</mgrwt>
</event>
<event>
12    1  0.1504874E-007  0.1374569E+04  0.7818608E-02  0.8972435E-01
         -2   -1    0    0    0  501 -0.00000000000E+00  0.00000000000E+00  0.98056714293E+02  0.98056714293E+02  0.00000000000E+00 0.  1.
          2   -1    0    0  501    0  0.00000000000E+00 -0.00000000000E+00 -0.48172149375E+04  0.48172149375E+04  0.00000000000E+00 0. -1.
         23    2    1    2    0    0  0.26362338181E+03  0.82330750323E+02 -0.26594159386E+04  0.26752361578E+04  0.90109520299E+02 0.  0.
        254    2    1    2    0    0 -0.26362338181E+03 -0.82330750323E+02 -0.20597422846E+04  0.22400354940E+04  0.83602936280E+03 0.  0.
        -24    2    4    4    0    0 -0.10874673579E+03  0.36860913892E+03 -0.10274751230E+04  0.10998733526E+04  0.79484045406E+02 0.  0.
         24    2    4    4    0    0 -0.15487664602E+03 -0.45093988924E+03 -0.10322671616E+04  0.11401621414E+04  0.84027713300E+02 0.  0.
         13    1    3    3    0    0  0.18303712958E+03  0.76387337632E+02 -0.21854503333E+04  0.21944317660E+04  0.00000000000E+00 0. -1.
        -13    1    3    3    0    0  0.80586252228E+02  0.59434126912E+01 -0.47396560529E+03  0.48080439183E+03  0.00000000000E+00 0.  1.
          4    1    6    6  502    0 -0.15642920627E+03 -0.35671968597E+03 -0.84899029499E+03  0.93407898591E+03  0.00000000000E+00 0. -1.
          3    1    5    5  503    0 -0.37727644637E+02  0.25239905182E+03 -0.70747401532E+03  0.75209583092E+03  0.00000000000E+00 0. -1.
         -4    1    5    5    0  503 -0.71019091154E+02  0.11621008710E+03 -0.32000110766E+03  0.34777752164E+03  0.00000000000E+00 0.  1.
         -3    1    6    6    0  502  0.15525602494E+01 -0.94220203269E+02 -0.18327686665E+03  0.20608315554E+03  0.00000000000E+00 0.  1.
<mgrwt>
<rscale>  0 0.13745694E+04</rscale>
<asrwt>0</asrwt>
<pdfrwt beam="1">  1        2 0.74110994E+00 0.13745694E+04</pdfrwt>
<pdfrwt beam="2">  1       -2 0.15085649E-01 0.13745694E+04</pdfrwt>
<totfact> 0.20383175E+00</totfact>
</mgrwt>
</event>
<event>
12    1  0.1504874E-007  0.1179695E+04  0.7818608E-02  0.9130817E-01
          2   -1    0    0  501    0  0.00000000000E+00  0.00000000000E+00  0.23553718368E+04  0.23553718368E+04  0.00000000000E+00 0.  1.
         -2   -1    0    0    0  501 -0.00000000000E+00 -0.00000000000E+00 -0.14771349939E+03  0.14771349939E+03  0.00000000000E+00 0. -1.
         23    2    1    2    0    0 -0.17105433431E+03 -0.17766763077E+02  0.77929146543E+03  0.80321510737E+03  0.91016907524E+02 0.  0.
        254    2    1    2    0    0  0.17105433431E+03  0.17766763077E+02  0.14283668720E+04  0.16998702288E+04  0.90540136445E+03 0.  0.
        -24    2    4    4    0    0 -0.28123451988E+03  0.19882743660E+03  0.28362495057E+03  0.45323394704E+03  0.79703785671E+02 0.  0.
         24    2    4    4    0    0  0.45228885420E+03 -0.18106067352E+03  0.11447419214E+04  0.12466362818E+04  0.79497026984E+02 0.  0.
         11    1    3    3    0    0 -0.13308178687E+03  0.10434765676E+02  0.41690809037E+03  0.43775792643E+03  0.00000000000E+00 0. -1.
        -11    1    3    3    0    0 -0.37972547438E+02 -0.28201528753E+02  0.36238337505E+03  0.36545718094E+03  0.00000000000E+00 0.  1.
          4    1    6    6  502    0  0.10067558475E+03 -0.99564284059E+01  0.19891914743E+03  0.22316704740E+03  0.00000000000E+00 0. -1.
          3    1    5    5  503    0 -0.93244592849E+02  0.23064426849E+02  0.72099279477E+02  0.12010340537E+03  0.00000000000E+00 0. -1.
         -4    1    5    5    0  503 -0.18798992704E+03  0.17576300975E+03  0.21152567109E+03  0.33313054167E+03  0.00000000000E+00 0.  1.
         -1    1    6    6    0  502  0.35161326944E+03 -0.17110424512E+03  0.94582277400E+03  0.10234692344E+04  0.00000000000E+00 0.  1.
<mgrwt>
<rscale>  0 0.11796952E+04</rscale>
<asrwt>0</asrwt>
<pdfrwt beam="1">  1        2 0.36236487E+00 0.11796952E+04</pdfrwt>
<pdfrwt beam="2">  1       -2 0.22725155E-01 0.11796952E+04</pdfrwt>
<totfact> 0.71332392E+01</totfact>
</mgrwt>
</event>
<event>
12    1  0.1504874E-007  0.1830205E+04  0.7818608E-02  0.8690400E-01
          2   -1    0    0  501    0  0.00000000000E+00  0.00000000000E+00  0.14321096341E+04  0.14321096341E+04  0.00000000000E+00 0.  1.
         -2   -1    0    0    0  501 -0.00000000000E+00 -0.00000000000E+00 -0.58474038728E+03  0.58474038728E+03  0.00000000000E+00 0. -1.
         23    2    1    2    0    0  0.48580007706E+03  0.12685838115E+03 -0.19901393350E+03  0.54780037820E+03  0.91563884192E+02 0.  0.
        254    2    1    2    0    0 -0.48580007706E+03 -0.12685838115E+03  0.10463831803E+04  0.14690496432E+04  0.90060775608E+03 0.  0.
        -24    2    4    4    0    0 -0.29056614336E+03 -0.50147294910E+03  0.72636555434E+03  0.93264256397E+03  0.79444516737E+02 0.  0.
         24    2    4    4    0    0 -0.19523393370E+03  0.37461456795E+03  0.32001762598E+03  0.53640707921E+03  0.82878889360E+02 0.  0.
         13    1    3    3    0    0  0.27096131897E+03  0.25225900394E+02 -0.11916194470E+03  0.29707903240E+03  0.00000000000E+00 0. -1.
        -13    1    3    3    0    0  0.21483875810E+03  0.10163248076E+03 -0.79851988798E+02  0.25072134580E+03  0.00000000000E+00 0.  1.
          4    1    6    6  502    0 -0.18290370893E+03  0.27874619889E+03  0.23784502344E+03  0.40954055393E+03  0.00000000000E+00 0. -1.
          1    1    5    5  503    0 -0.15515802772E+03 -0.34332655306E+03  0.47283225750E+03  0.60458041594E+03  0.00000000000E+00 0. -1.
         -2    1    5    5    0  503 -0.13540811564E+03 -0.15814639604E+03  0.25353329685E+03  0.32806214803E+03  0.00000000000E+00 0.  1.
         -3    1    6    6    0  502 -0.12330224768E+02  0.95868369062E+02  0.82172602537E+02  0.12686652528E+03  0.00000000000E+00 0.  1.
<mgrwt>
<rscale>  0 0.18302047E+04</rscale>
<asrwt>0</asrwt>
<pdfrwt beam="1">  1        2 0.22032456E+00 0.18302047E+04</pdfrwt>
<pdfrwt beam="2">  1       -2 0.89960060E-01 0.18302047E+04</pdfrwt>
<totfact> 0.13821727E+01</totfact>
</mgrwt>
</event>
<event>
12    1  0.1504874E-007  0.1708983E+04  0.7818608E-02  0.8756258E-01
          1   -1    0    0  501    0  0.00000000000E+00  0.00000000000E+00  0.37052520980E+04  0.37052520980E+04  0.00000000000E+00 0. -1.
         -1   -1    0    0    0  501 -0.00000000000E+00 -0.00000000000E+00 -0.19705959187E+03  0.19705959187E+03  0.00000000000E+00 0.  1.
         23    2    1    2    0    0  0.54882414430E+03  0.78808320933E+02  0.67018117687E+03  0.87471727875E+03  0.92567894438E+02 0.  0.
        254    2    1    2    0    0 -0.54882414430E+03 -0.78808320933E+02  0.28380113292E+04  0.30275944111E+04  0.89699549635E+03 0.  0.
        -24    2    4    4    0    0 -0.47861927350E+03 -0.37238799717E+03  0.10714818334E+04  0.12336984973E+04  0.78672952114E+02 0.  0.
         24    2    4    4    0    0 -0.70204870807E+02  0.29357967624E+03  0.17665294958E+04  0.17938959138E+04  0.79487986201E+02 0.  0.
         13    1    3    3    0    0  0.53001821485E+03  0.62444816583E+02  0.61569973523E+03  0.81480355127E+03  0.00000000000E+00 0.  1.
        -13    1    3    3    0    0  0.18805929456E+02  0.16363504350E+02  0.54481441640E+02  0.59913727480E+02  0.00000000000E+00 0. -1.
          2    1    6    6  502    0  0.10923436823E+02  0.29016843687E+02  0.10505624797E+03  0.10953590245E+03  0.00000000000E+00 0. -1.
          3    1    5    5  503    0 -0.13433266604E+02 -0.12054980100E+02  0.68639932681E+02  0.70973343977E+02  0.00000000000E+00 0. -1.
         -4    1    5    5    0  503 -0.46518600689E+03 -0.36033301707E+03  0.10028419008E+04  0.11627251533E+04  0.00000000000E+00 0.  1.
         -1    1    6    6    0  502 -0.81128307631E+02  0.26456283255E+03  0.16614732478E+04  0.16843600114E+04  0.00000000000E+00 0.  1.
<mgrwt>
<rscale>  0 0.17089827E+04</rscale>
<asrwt>0</asrwt>
<pdfrwt beam="1">  1        1 0.57003873E+00 0.17089827E+04</pdfrwt>
<pdfrwt beam="2">  1       -1 0.30316863E-01 0.17089827E+04</pdfrwt>
<totfact> 0.16434832E+00</totfact>
</mgrwt>
</event>
<event>
12    1  0.1504874E-007  0.1834591E+04  0.7818608E-02  0.8688118E-01
         -2   -1    0    0    0  501 -0.00000000000E+00  0.00000000000E+00  0.20773287984E+04  0.20773287984E+04  0.00000000000E+00 0.  1.
          2   -1    0    0  501    0  0.00000000000E+00 -0.00000000000E+00 -0.40505441143E+03  0.40505441143E+03  0.00000000000E+00 0. -1.
         23    2    1    2    0    0 -0.61528464667E+03  0.26435391444E+03  0.92047262553E+03  0.11420066663E+04  0.91930315641E+02 0.  0.
        254    2    1    2    0    0  0.61528464667E+03 -0.26435391444E+03  0.75180176142E+03  0.13403765435E+04  0.88484190764E+03 0.  0.
        -24    2    4    4    0    0 -0.14945987467E+03 -0.18568069543E+03 -0.16917961469E+02  0.25017281220E+03  0.74058380703E+02 0.  0.
         24    2    4    4    0    0  0.76474452134E+03 -0.78673219014E+02  0.76871972289E+03  0.10902037313E+04  0.81181926499E+02 0.  0.
         11    1    3    3    0    0 -0.60286838368E+03  0.27162857013E+03  0.89530593595E+03  0.11130162115E+04  0.00000000000E+00 0.  1.
        -11    1    3    3    0    0 -0.12416262985E+02 -0.72746556890E+01  0.25166689578E+02  0.28990454744E+02  0.00000000000E+00 0. -1.
          4    1    6    6  502    0  0.44749291435E+03 -0.94865357733E+01  0.46915370153E+03  0.64841737979E+03  0.00000000000E+00 0. -1.
          1    1    5    5  503    0 -0.13165698937E+03 -0.17583937123E+03  0.57172423053E+01  0.21974015151E+03  0.00000000000E+00 0. -1.
         -2    1    5    5    0  503 -0.17802885293E+02 -0.98413241992E+01 -0.22635203774E+02  0.30432660689E+02  0.00000000000E+00 0.  1.
         -3    1    6    6    0  502  0.31725160698E+03 -0.69186683240E+02  0.29956602136E+03  0.44178635156E+03  0.00000000000E+00 0.  1.
<mgrwt>
<rscale>  0 0.18345912E+04</rscale>
<asrwt>0</asrwt>
<pdfrwt beam="1">  1        2 0.62316065E-01 0.18345912E+04</pdfrwt>
<pdfrwt beam="2">  1       -2 0.31958904E+00 0.18345912E+04</pdfrwt>
<totfact> 0.17817903E+00</totfact>
</mgrwt>
</event>
<event>
12    1  0.1504874E-007  0.1736272E+04  0.7818608E-02  0.8740943E-01
         -2   -1    0    0    0  501 -0.00000000000E+00  0.00000000000E+00  0.24266273719E+03  0.24266273719E+03  0.00000000000E+00 0.  1.
          2   -1    0    0  501    0  0.00000000000E+00 -0.00000000000E+00 -0.31057931601E+04  0.31057931601E+04  0.00000000000E+00 0. -1.
         23    2    1    2    0    0  0.72783776958E+01 -0.12822235342E+03 -0.22061894607E+04  0.22118388273E+04  0.92006058778E+02 0.  0.
        254    2    1    2    0    0 -0.72783776958E+01  0.12822235342E+03 -0.65694096221E+03  0.11366170700E+04  0.91860382604E+03 0.  0.
        -24    2    4    4    0    0  0.96927806526E+02  0.24367008280E+01  0.21329635801E+03  0.24733938495E+03  0.79249591905E+02 0.  0.
         24    2    4    4    0    0 -0.10420618422E+03  0.12578565260E+03 -0.87023732023E+03  0.88927768502E+03  0.82588427370E+02 0.  0.
         11    1    3    3    0    0  0.21992080207E+02 -0.81393149204E+02 -0.73319222097E+03  0.73802393540E+03  0.00000000000E+00 0.  1.
        -11    1    3    3    0    0 -0.14713702512E+02 -0.46829204221E+02 -0.14729972397E+04  0.14738148919E+04  0.00000000000E+00 0. -1.
          2    1    6    6  502    0 -0.68273377209E+01  0.20724491395E+01 -0.22488707626E+03  0.22500023257E+03  0.00000000000E+00 0. -1.
          1    1    5    5  503    0  0.63064248478E+01  0.24582008988E+02  0.18654496206E+02  0.31496609166E+02  0.00000000000E+00 0. -1.
         -2    1    5    5    0  503  0.90621381678E+02 -0.22145308160E+02  0.19464186181E+03  0.21584277578E+03  0.00000000000E+00 0.  1.
         -1    1    6    6    0  502 -0.97378846501E+02  0.12371320346E+03 -0.64535024397E+03  0.66427745246E+03  0.00000000000E+00 0.  1.
<mgrwt>
<rscale>  0 0.17362722E+04</rscale>
<asrwt>0</asrwt>
<pdfrwt beam="1">  1        2 0.47781433E+00 0.17362722E+04</pdfrwt>
<pdfrwt beam="2">  1       -2 0.37332729E-01 0.17362722E+04</pdfrwt>
<totfact> 0.96294029E+00</totfact>
</mgrwt>
</event>
<event>
12    1  0.1504874E-007  0.1483736E+04  0.7818608E-02  0.8895341E-01
         -2   -1    0    0    0  501 -0.00000000000E+00  0.00000000000E+00  0.31119232446E+03  0.31119232446E+03  0.00000000000E+00 0.  1.
          2   -1    0    0  501    0  0.00000000000E+00 -0.00000000000E+00 -0.17685788902E+04  0.17685788902E+04  0.00000000000E+00 0. -1.
         23    2    1    2    0    0 -0.15445087001E+03 -0.20235969535E+03 -0.10084130686E+04  0.10439000455E+04  0.89587223288E+02 0.  0.
        254    2    1    2    0    0  0.15445087001E+03  0.20235969535E+03 -0.44897349722E+03  0.10358711692E+04  0.89813549114E+03 0.  0.
        -24    2    4    4    0    0  0.43702415211E+03 -0.13483625049E+03 -0.34054418864E+03  0.57563561492E+03  0.78835859721E+02 0.  0.
         24    2    4    4    0    0 -0.28257328210E+03  0.33719594584E+03 -0.10842930859E+03  0.46023555429E+03  0.80691293369E+02 0.  0.
         13    1    3    3    0    0 -0.13600557221E+03 -0.19525218401E+03 -0.98463115229E+03  0.10129755363E+04  0.00000000000E+00 0. -1.
        -13    1    3    3    0    0 -0.18445297802E+02 -0.71075113386E+01 -0.23781916264E+02  0.30924509206E+02  0.00000000000E+00 0.  1.
          2    1    6    6  502    0 -0.87606692474E+02  0.56320967273E+02 -0.39868012812E+02  0.11151879826E+03  0.00000000000E+00 0. -1.
          1    1    5    5  503    0  0.17767525425E+03 -0.26012407208E+02 -0.99937490899E+02  0.20550582325E+03  0.00000000000E+00 0. -1.
         -2    1    5    5    0  503  0.25934889786E+03 -0.10882384329E+03 -0.24060669774E+03  0.37012979167E+03  0.00000000000E+00 0.  1.
         -1    1    6    6    0  502 -0.19496658962E+03  0.28087497857E+03 -0.68561295774E+02  0.34871675602E+03  0.00000000000E+00 0.  1.
<mgrwt>
<rscale>  0 0.14837361E+04</rscale>
<asrwt>0</asrwt>
<pdfrwt beam="1">  1        2 0.27208906E+00 0.14837361E+04</pdfrwt>
<pdfrwt beam="2">  1       -2 0.47875742E-01 0.14837361E+04</pdfrwt>
<totfact> 0.35917734E+01</totfact>
</mgrwt>
</event>
<event>
12    1  0.1504874E-007  0.1461530E+04  0.7818608E-02  0.8910446E-01
         -2   -1    0    0    0  501 -0.00000000000E+00  0.00000000000E+00  0.16675202437E+03  0.16675202437E+03  0.00000000000E+00 0.  1.
          2   -1    0    0  501    0  0.00000000000E+00 -0.00000000000E+00 -0.32024652807E+04  0.32024652807E+04  0.00000000000E+00 0. -1.
         23    2    1    2    0    0  0.19144043588E+03 -0.34253133040E+03 -0.13838136396E+04  0.14412789538E+04  0.91475027703E+02 0.  0.
        254    2    1    2    0    0 -0.19144043588E+03  0.34253133040E+03 -0.16518996167E+04  0.19279383513E+04  0.91334374132E+03 0.  0.
        -24    2    4    4    0    0 -0.28168909640E+03  0.38981526627E+02 -0.58513289186E+02  0.30145616687E+03  0.81140058448E+02 0.  0.
         24    2    4    4    0    0  0.90248660519E+02  0.30354980377E+03 -0.15933863275E+04  0.16264821844E+04  0.79227541518E+02 0.  0.
         11    1    3    3    0    0  0.84654866773E+02 -0.91883179458E+02 -0.33128289750E+03  0.35405836145E+03  0.00000000000E+00 0.  1.
        -11    1    3    3    0    0  0.10678556910E+03 -0.25064815094E+03 -0.10525307421E+04  0.10872205924E+04  0.00000000000E+00 0. -1.
          2    1    6    6  502    0  0.99186752220E+02  0.21343597120E+03 -0.11080414508E+04  0.11327615734E+04  0.00000000000E+00 0. -1.
          1    1    5    5  503    0 -0.27497175542E+03  0.52077807736E+02 -0.61253250861E+02  0.28648477286E+03  0.00000000000E+00 0. -1.
         -2    1    5    5    0  503 -0.67173409745E+01 -0.13096281109E+02  0.27399616744E+01  0.14971394011E+02  0.00000000000E+00 0.  1.
         -1    1    6    6    0  502 -0.89380917009E+01  0.90113832574E+02 -0.48534487676E+03  0.49372061097E+03  0.00000000000E+00 0.  1.
<mgrwt>
<rscale>  0 0.14615301E+04</rscale>
<asrwt>0</asrwt>
<pdfrwt beam="1">  1        2 0.49268693E+00 0.14615301E+04</pdfrwt>
<pdfrwt beam="2">  1       -2 0.25654160E-01 0.14615301E+04</pdfrwt>
<totfact> 0.17318321E+01</totfact>
</mgrwt>
</event>
<event>
12    1  0.1504874E-007  0.1690875E+04  0.7818608E-02  0.8766586E-01
         -1   -1    0    0    0  501 -0.00000000000E+00  0.00000000000E+00  0.84224125061E+03  0.84224125061E+03  0.00000000000E+00 0.  1.
          1   -1    0    0  501    0  0.00000000000E+00 -0.00000000000E+00 -0.84864548990E+03  0.84864548990E+03  0.00000000000E+00 0. -1.
         23    2    1    2    0    0  0.65362839822E+02  0.15152398309E+03 -0.59035154213E+03  0.61943173754E+03  0.89156692969E+02 0.  0.
        254    2    1    2    0    0 -0.65362839822E+02 -0.15152398309E+03  0.58394730284E+03  0.10714550030E+04  0.88305693622E+03 0.  0.
        -24    2    4    4    0    0  0.29801339222E+03 -0.33366660392E+03  0.43982910469E+03  0.63245394633E+03  0.80018550241E+02 0.  0.
         24    2    4    4    0    0 -0.36337623204E+03  0.18214262083E+03  0.14411819815E+03  0.43900105663E+03  0.82058834697E+02 0.  0.
         11    1    3    3    0    0  0.33876406694E+02  0.14312133284E+03 -0.39730439679E+03  0.42365329050E+03  0.00000000000E+00 0. -1.
        -11    1    3    3    0    0  0.31486433128E+02  0.84026502500E+01 -0.19304714534E+03  0.19577844704E+03  0.00000000000E+00 0.  1.
          2    1    6    6  502    0 -0.28023652378E+03  0.12615644131E+03  0.14250258693E+03  0.33875499144E+03  0.00000000000E+00 0. -1.
          3    1    5    5  503    0  0.14646378698E+03 -0.10698361047E+03  0.16240222617E+03  0.24345762849E+03  0.00000000000E+00 0. -1.
         -4    1    5    5    0  503  0.15154960525E+03 -0.22668299345E+03  0.27742687852E+03  0.38899631784E+03  0.00000000000E+00 0.  1.
         -1    1    6    6    0  502 -0.83139708259E+02  0.55986179517E+02  0.16156112197E+01  0.10024606519E+03  0.00000000000E+00 0.  1.
<mgrwt>
<rscale>  0 0.16908746E+04</rscale>
<asrwt>0</asrwt>
<pdfrwt beam="1">  1        1 0.13056084E+00 0.16908746E+04</pdfrwt>
<pdfrwt beam="2">  1       -1 0.12957558E+00 0.16908746E+04</pdfrwt>
<totfact> 0.97808298E+00</totfact>
</mgrwt>
</event>
<event>
12    1  0.1504874E-007  0.3048607E+04  0.7818608E-02  0.8229986E-01
         -2   -1    0    0    0  501 -0.00000000000E+00  0.00000000000E+00  0.66493396397E+03  0.66493396397E+03  0.00000000000E+00 0.  1.
          2   -1    0    0  501    0  0.00000000000E+00 -0.00000000000E+00 -0.34943335358E+04  0.34943335358E+04  0.00000000000E+00 0. -1.
         23    2    1    2    0    0  0.90832589596E+03 -0.80954333226E+03 -0.22024378759E+04  0.25186150588E+04  0.11078301747E+03 0.  0.
        254    2    1    2    0    0 -0.90832589596E+03  0.80954333226E+03 -0.62696169593E+03  0.16406524410E+04  0.90456792113E+03 0.  0.
        -24    2    4    4    0    0 -0.36606058864E+03  0.56561279181E+03  0.11264218666E+03  0.68827828370E+03  0.84383344205E+02 0.  0.
         24    2    4    4    0    0 -0.54226530732E+03  0.24393054045E+03 -0.73960388259E+03  0.95237415731E+03  0.80304796178E+02 0.  0.
         13    1    3    3    0    0  0.37858176443E+03 -0.28807188910E+03 -0.94204973293E+03  0.10553517257E+04  0.00000000000E+00 0.  1.
        -13    1    3    3    0    0  0.52974413153E+03 -0.52147144315E+03 -0.12603881430E+04  0.14632633331E+04  0.00000000000E+00 0. -1.
          4    1    6    6  502    0 -0.20018762622E+03  0.67994576839E+02 -0.21173683370E+03  0.29921703648E+03  0.00000000000E+00 0. -1.
          3    1    5    5  503    0 -0.19638853358E+03  0.35890615397E+03  0.96594852474E+02  0.42037203642E+03  0.00000000000E+00 0. -1.
         -4    1    5    5    0  503 -0.16967205506E+03  0.20670663784E+03  0.16047334183E+02  0.26790624728E+03  0.00000000000E+00 0.  1.
         -3    1    6    6    0  502 -0.34207768109E+03  0.17593596361E+03 -0.52786704888E+03  0.65315712083E+03  0.00000000000E+00 0.  1.
<mgrwt>
<rscale>  0 0.30486069E+04</rscale>
<asrwt>0</asrwt>
<pdfrwt beam="1">  1        2 0.53758977E+00 0.30486069E+04</pdfrwt>
<pdfrwt beam="2">  1       -2 0.10229753E+00 0.30486069E+04</pdfrwt>
<totfact> 0.54684787E-01</totfact>
</mgrwt>
</event>
<event>
12    1  0.1504874E-007  0.2386736E+04  0.7818608E-02  0.8444486E-01
          2   -1    0    0  501    0  0.00000000000E+00  0.00000000000E+00  0.31613838845E+04  0.31613838845E+04  0.00000000000E+00 0. -1.
         -2   -1    0    0    0  501 -0.00000000000E+00 -0.00000000000E+00 -0.45047596743E+03  0.45047596743E+03  0.00000000000E+00 0.  1.
         23    2    1    2    0    0  0.97386707886E+03 -0.20016144461E+03  0.15193344138E+04  0.18187710667E+04  0.10521141065E+03 0.  0.
        254    2    1    2    0    0 -0.97386707886E+03  0.20016144461E+03  0.11915735032E+04  0.17930887852E+04  0.89824177522E+03 0.  0.
        -24    2    4    4    0    0 -0.10573882988E+04  0.37614460521E+03  0.95226550259E+03  0.14742045664E+04  0.83154901195E+02 0.  0.
         24    2    4    4    0    0  0.83521219950E+02 -0.17598316059E+03  0.23930800063E+03  0.31888421881E+03  0.80454700589E+02 0.  0.
         13    1    3    3    0    0  0.95033263844E+03 -0.20916071568E+03  0.14946637423E+04  0.17835077884E+04  0.00000000000E+00 0. -1.
        -13    1    3    3    0    0  0.23534440420E+02  0.89992710647E+01  0.24670671461E+02  0.35263278292E+02  0.00000000000E+00 0.  1.
          2    1    6    6  502    0  0.53383428713E+02 -0.14966468140E+03  0.13984205142E+03  0.21167216790E+03  0.00000000000E+00 0. -1.
          1    1    5    5  503    0 -0.88860626326E+03  0.28296656311E+03  0.79133662773E+03  0.12230718807E+04  0.00000000000E+00 0. -1.
         -2    1    5    5    0  503 -0.16878203555E+03  0.93178042095E+02  0.16092887486E+03  0.25113268568E+03  0.00000000000E+00 0.  1.
         -1    1    6    6    0  502  0.30137791237E+02 -0.26318479192E+02  0.99465949207E+02  0.10721205091E+03  0.00000000000E+00 0.  1.
<mgrwt>
<rscale>  0 0.23867362E+04</rscale>
<asrwt>0</asrwt>
<pdfrwt beam="1">  1        2 0.48636674E+00 0.23867362E+04</pdfrwt>
<pdfrwt beam="2">  1       -2 0.69303997E-01 0.23867362E+04</pdfrwt>
<totfact> 0.23520689E+00</totfact>
</mgrwt>
</event>
<event>
12    1  0.1504874E-007  0.1453557E+04  0.7818608E-02  0.8915938E-01
          1   -1    0    0  501    0  0.00000000000E+00  0.00000000000E+00  0.39759056981E+03  0.39759056981E+03  0.00000000000E+00 0. -1.
         -1   -1    0    0    0  501 -0.00000000000E+00 -0.00000000000E+00 -0.13285193017E+04  0.13285193017E+04  0.00000000000E+00 0.  1.
         23    2    1    2    0    0 -0.26594065490E+03 -0.11153299566E+02 -0.72381152418E+03  0.77736029908E+03  0.97657995272E+02 0.  0.
        254    2    1    2    0    0  0.26594065490E+03  0.11153299566E+02 -0.20711720766E+03  0.94874957238E+03  0.88678034787E+03 0.  0.
        -24    2    4    4    0    0  0.25338747015E+03  0.11350318267E+03  0.30410705524E+03  0.41990378274E+03  0.82157794558E+02 0.  0.
         24    2    4    4    0    0  0.12553184750E+02 -0.10234988310E+03 -0.51122426290E+03  0.52884578964E+03  0.87718534109E+02 0.  0.
         13    1    3    3    0    0 -0.97270399673E+02 -0.32949131994E+02 -0.17618217234E+03  0.20392972761E+03  0.00000000000E+00 0. -1.
        -13    1    3    3    0    0 -0.16867025522E+03  0.21795832428E+02 -0.54762935184E+03  0.57343057148E+03  0.00000000000E+00 0.  1.
          2    1    6    6  502    0 -0.34334606418E+02 -0.60552285733E+02 -0.32305886146E+03  0.33047310400E+03  0.00000000000E+00 0. -1.
          1    1    5    5  503    0  0.20388856697E+03  0.12357117544E+03  0.24003820921E+03  0.33831749145E+03  0.00000000000E+00 0. -1.
         -2    1    5    5    0  503  0.49498903180E+02 -0.10067992772E+02  0.64068846032E+02  0.81586291290E+02  0.00000000000E+00 0.  1.
         -1    1    6    6    0  502  0.46887791167E+02 -0.41797597371E+02 -0.18816540145E+03  0.19837268564E+03  0.00000000000E+00 0.  1.
<mgrwt>
<rscale>  0 0.14535567E+04</rscale>
<asrwt>0</asrwt>
<pdfrwt beam="1">  1        1 0.61167779E-01 0.14535567E+04</pdfrwt>
<pdfrwt beam="2">  1       -1 0.20438759E+00 0.14535567E+04</pdfrwt>
<totfact> 0.82444391E+00</totfact>
</mgrwt>
</event>
<event>
12    1  0.1504874E-007  0.1308765E+04  0.7818608E-02  0.9022643E-01
          1   -1    0    0  501    0  0.00000000000E+00  0.00000000000E+00  0.26970591945E+04  0.26970591945E+04  0.00000000000E+00 0. -1.
         -1   -1    0    0    0  501 -0.00000000000E+00 -0.00000000000E+00 -0.15877157466E+03  0.15877157466E+03  0.00000000000E+00 0.  1.
         23    2    1    2    0    0 -0.20595102333E+03  0.31163345102E+02  0.11737964590E+03  0.25821685413E+03  0.97524275933E+02 0.  0.
        254    2    1    2    0    0  0.20595102333E+03 -0.31163345102E+02  0.24209079739E+04  0.25976139150E+04  0.91837664123E+03 0.  0.
        -24    2    4    4    0    0  0.55435443402E+03  0.57182162776E+02  0.16499337328E+04  0.17433155603E+04  0.79304363862E+02 0.  0.
         24    2    4    4    0    0 -0.34840341069E+03 -0.88345507878E+02  0.77097424112E+03  0.85429835464E+03  0.78959058524E+02 0.  0.
         11    1    3    3    0    0 -0.15382303649E+03 -0.46274766122E+01  0.11966605884E+03  0.19494333980E+03  0.00000000000E+00 0. -1.
        -11    1    3    3    0    0 -0.52127986844E+02  0.35790821714E+02 -0.22864129439E+01  0.63273514329E+02  0.00000000000E+00 0.  1.
          2    1    6    6  502    0 -0.36711757370E+02  0.75846635845E+01  0.12757171497E+03  0.13296549444E+03  0.00000000000E+00 0. -1.
          3    1    5    5  503    0  0.47692091259E+02  0.24283002152E+02  0.20081187366E+03  0.20782109702E+03  0.00000000000E+00 0. -1.
         -4    1    5    5    0  503  0.50666234276E+03  0.32899160624E+02  0.14491218591E+04  0.15354944633E+04  0.00000000000E+00 0.  1.
         -1    1    6    6    0  502 -0.31169165332E+03 -0.95930171463E+02  0.64340252615E+03  0.72133286020E+03  0.00000000000E+00 0.  1.
<mgrwt>
<rscale>  0 0.13087648E+04</rscale>
<asrwt>0</asrwt>
<pdfrwt beam="1">  1        1 0.41493215E+00 0.13087648E+04</pdfrwt>
<pdfrwt beam="2">  1       -1 0.24426398E-01 0.13087648E+04</pdfrwt>
<totfact> 0.14203590E+01</totfact>
</mgrwt>
</event>
<event>
12    1  0.1504874E-007  0.1439469E+04  0.7818608E-02  0.8925734E-01
         -1   -1    0    0    0  501 -0.00000000000E+00  0.00000000000E+00  0.22156988520E+03  0.22156988520E+03  0.00000000000E+00 0.  1.
          1   -1    0    0  501    0  0.00000000000E+00 -0.00000000000E+00 -0.23379423118E+04  0.23379423118E+04  0.00000000000E+00 0. -1.
         23    2    1    2    0    0 -0.26176573135E+02 -0.38933667439E+03 -0.93066133425E+03  0.10151755319E+04  0.11037473667E+03 0.  0.
        254    2    1    2    0    0  0.26176573135E+02  0.38933667439E+03 -0.11857110924E+04  0.15443366651E+04  0.90928360902E+03 0.  0.
        -24    2    4    4    0    0  0.28322904656E+03  0.58615045522E+03 -0.78821899126E+03  0.10256680447E+04  0.83154739743E+02 0.  0.
         24    2    4    4    0    0 -0.25705247342E+03 -0.19681378083E+03 -0.39749210112E+03  0.51866862043E+03  0.78775179820E+02 0.  0.
         11    1    3    3    0    0  0.46986437811E+01 -0.16512024731E+03 -0.26685429793E+03  0.31384389376E+03  0.00000000000E+00 0.  1.
        -11    1    3    3    0    0 -0.30875216916E+02 -0.22421642708E+03 -0.66380703632E+03  0.70133163814E+03  0.00000000000E+00 0. -1.
          4    1    6    6  502    0 -0.69094103334E+02 -0.13454051427E+02 -0.91859707817E+02  0.11572904793E+03  0.00000000000E+00 0. -1.
          1    1    5    5  503    0  0.18261636583E+03  0.28537321032E+03 -0.42312904418E+03  0.54205608037E+03  0.00000000000E+00 0. -1.
         -4    1    5    5    0  503  0.10061268073E+03  0.30077724490E+03 -0.36508994708E+03  0.48361196431E+03  0.00000000000E+00 0.  1.
         -3    1    6    6    0  502 -0.18795837009E+03 -0.18335972940E+03 -0.30563239330E+03  0.40293957250E+03  0.00000000000E+00 0.  1.
<mgrwt>
<rscale>  0 0.14394688E+04</rscale>
<asrwt>0</asrwt>
<pdfrwt beam="1">  1        1 0.35968342E+00 0.14394688E+04</pdfrwt>
<pdfrwt beam="2">  1       -1 0.34087676E-01 0.14394688E+04</pdfrwt>
<totfact> 0.13893124E+01</totfact>
</mgrwt>
</event>
<event>
12    1  0.1504874E-007  0.2209094E+04  0.7818608E-02  0.8514653E-01
          2   -1    0    0  501    0  0.00000000000E+00  0.00000000000E+00  0.23893146046E+04  0.23893146046E+04  0.00000000000E+00 0. -1.
         -2   -1    0    0    0  501 -0.00000000000E+00 -0.00000000000E+00 -0.51061671176E+03  0.51061671176E+03  0.00000000000E+00 0.  1.
         23    2    1    2    0    0 -0.20704523369E+03  0.28218451139E+01 -0.39308042289E+03  0.45364264282E+03  0.91671898237E+02 0.  0.
        254    2    1    2    0    0  0.20704523369E+03 -0.28218451139E+01  0.22717783157E+04  0.24462886735E+04  0.88344545207E+03 0.  0.
        -24    2    4    4    0    0  0.20233406351E+03  0.34388906375E+03  0.52826653313E+03  0.66682556434E+03  0.79950245867E+02 0.  0.
         24    2    4    4    0    0  0.47111701746E+01 -0.34671090887E+03  0.17435117826E+04  0.17794631091E+04  0.80155919403E+02 0.  0.
         13    1    3    3    0    0 -0.20218409544E+03  0.24440886527E+02 -0.36377288067E+03  0.41690103633E+03  0.00000000000E+00 0.  1.
        -13    1    3    3    0    0 -0.48611382480E+01 -0.21619041413E+02 -0.29307542219E+02  0.36741606492E+02  0.00000000000E+00 0. -1.
          4    1    6    6  502    0  0.34106802917E+02 -0.14931053318E+03  0.87622725637E+03  0.88951172793E+03  0.00000000000E+00 0. -1.
          3    1    5    5  503    0  0.79656573909E+02  0.19812766511E+03  0.23949402304E+03  0.32086933247E+03  0.00000000000E+00 0. -1.
         -4    1    5    5    0  503  0.12267748960E+03  0.14576139864E+03  0.28877251008E+03  0.34595623187E+03  0.00000000000E+00 0.  1.
         -3    1    6    6    0  502 -0.29395632742E+02 -0.19740037569E+03  0.86728452620E+03  0.88995138122E+03  0.00000000000E+00 0.  1.
<mgrwt>
<rscale>  0 0.22090939E+04</rscale>
<asrwt>0</asrwt>
<pdfrwt beam="1">  1        2 0.36758686E+00 0.22090939E+04</pdfrwt>
<pdfrwt beam="2">  1       -2 0.78556419E-01 0.22090939E+04</pdfrwt>
<totfact> 0.53028906E+00</totfact>
</mgrwt>
</event>
<event>
12    1  0.1504874E-007  0.1877873E+04  0.7818608E-02  0.8665950E-01
          2   -1    0    0  501    0  0.00000000000E+00  0.00000000000E+00  0.18331796346E+04  0.18331796346E+04  0.00000000000E+00 0.  1.
         -2   -1    0    0    0  501 -0.00000000000E+00 -0.00000000000E+00 -0.48091385929E+03  0.48091385929E+03  0.00000000000E+00 0. -1.
         23    2    1    2    0    0  0.27352926734E+03  0.56865935752E+03  0.95989016916E+03  0.11522264825E+04  0.89693952496E+02 0.  0.
        254    2    1    2    0    0 -0.27352926734E+03 -0.56865935752E+03  0.39237560618E+03  0.11618670114E+04  0.89318789229E+03 0.  0.
        -24    2    4    4    0    0 -0.50346975760E+03 -0.47395611674E+03  0.52228940009E+03  0.87020975861E+03  0.79765964738E+02 0.  0.
         24    2    4    4    0    0  0.22994049026E+03 -0.94703240779E+02 -0.12991379391E+03  0.29165725281E+03  0.79655673986E+02 0.  0.
         11    1    3    3    0    0  0.87986137817E+02  0.13366063779E+03  0.30503791945E+03  0.34446314584E+03  0.00000000000E+00 0. -1.
        -11    1    3    3    0    0  0.18554312952E+03  0.43499871972E+03  0.65485224971E+03  0.80776333664E+03  0.00000000000E+00 0.  1.
          4    1    6    6  502    0  0.31005309634E+02  0.93722422257E+01 -0.25412172290E+00  0.32391862060E+02  0.00000000000E+00 0. -1.
          3    1    5    5  503    0 -0.13729022326E+03 -0.94186875697E+02  0.97893662533E+02  0.19313969587E+03  0.00000000000E+00 0. -1.
         -4    1    5    5    0  503 -0.36617953434E+03 -0.37976924104E+03  0.42439573755E+03  0.67707006274E+03  0.00000000000E+00 0.  1.
         -3    1    6    6    0  502  0.19893518062E+03 -0.10407548300E+03 -0.12965967219E+03  0.25926539075E+03  0.00000000000E+00 0.  1.
<mgrwt>
<rscale>  0 0.18778727E+04</rscale>
<asrwt>0</asrwt>
<pdfrwt beam="1">  1        2 0.28202763E+00 0.18778727E+04</pdfrwt>
<pdfrwt beam="2">  1       -2 0.73986749E-01 0.18778727E+04</pdfrwt>
<totfact> 0.12768413E+01</totfact>
</mgrwt>
</event>
<event>
12    1  0.1504874E-007  0.1357955E+04  0.7818608E-02  0.8984828E-01
          2   -1    0    0  501    0  0.00000000000E+00  0.00000000000E+00  0.35711243076E+03  0.35711243076E+03  0.00000000000E+00 0. -1.
         -2   -1    0    0    0  501 -0.00000000000E+00 -0.00000000000E+00 -0.12909390122E+04  0.12909390122E+04  0.00000000000E+00 0.  1.
         23    2    1    2    0    0  0.19446899353E+03 -0.24207049820E+03 -0.50319902074E+03  0.59823372160E+03  0.90873624547E+02 0.  0.
        254    2    1    2    0    0 -0.19446899353E+03  0.24207049820E+03 -0.43062756066E+03  0.10498177213E+04  0.90568252520E+03 0.  0.
        -24    2    4    4    0    0 -0.12496883467E+03  0.56446080189E+03 -0.40396046156E+03  0.70953286899E+03  0.77586282085E+02 0.  0.
         24    2    4    4    0    0 -0.69500158866E+02 -0.32239030369E+03 -0.26667099097E+02  0.34028485233E+03  0.79478717623E+02 0.  0.
         13    1    3    3    0    0  0.71801290240E+02 -0.95664055071E+02 -0.27991722729E+03  0.30440218601E+03  0.00000000000E+00 0.  1.
        -13    1    3    3    0    0  0.12266770329E+03 -0.14640644313E+03 -0.22328179345E+03  0.29383153559E+03  0.00000000000E+00 0. -1.
          2    1    6    6  502    0  0.72302762037E+01 -0.63095595891E+02  0.18457060703E+02  0.66136179241E+02  0.00000000000E+00 0. -1.
          3    1    5    5  503    0 -0.66473473230E+02  0.23448101904E+03 -0.21384896571E+03  0.32423980488E+03  0.00000000000E+00 0. -1.
         -4    1    5    5    0  503 -0.58495361437E+02  0.32997978285E+03 -0.19011149585E+03  0.38529306411E+03  0.00000000000E+00 0.  1.
         -1    1    6    6    0  502 -0.76730435070E+02 -0.25929470780E+03 -0.45124159800E+02  0.27414867309E+03  0.00000000000E+00 0.  1.
<mgrwt>
<rscale>  0 0.13579549E+04</rscale>
<asrwt>0</asrwt>
<pdfrwt beam="1">  1        2 0.54940373E-01 0.13579549E+04</pdfrwt>
<pdfrwt beam="2">  1       -2 0.19860601E+00 0.13579549E+04</pdfrwt>
<totfact> 0.11969674E+01</totfact>
</mgrwt>
</event>
<event>
12    1  0.1504874E-007  0.2810271E+04  0.7818608E-02  0.8300087E-01
          1   -1    0    0  501    0  0.00000000000E+00  0.00000000000E+00  0.27318534703E+04  0.27318534703E+04  0.00000000000E+00 0. -1.
         -1   -1    0    0    0  501 -0.00000000000E+00 -0.00000000000E+00 -0.72273511619E+03  0.72273511619E+03  0.00000000000E+00 0.  1.
         23    2    1    2    0    0  0.15619393605E+03  0.12472740567E+04  0.82032528568E+03  0.15037614337E+04  0.90971188275E+02 0.  0.
        254    2    1    2    0    0 -0.15619393605E+03 -0.12472740567E+04  0.11887930685E+04  0.19508271528E+04  0.90133706363E+03 0.  0.
        -24    2    4    4    0    0 -0.51570109823E+03 -0.77664606063E+03  0.59971765306E+03  0.11116117316E+04  0.83021998711E+02 0.  0.
         24    2    4    4    0    0  0.35950716218E+03 -0.47062799607E+03  0.58907541540E+03  0.83921542117E+03  0.80849043037E+02 0.  0.
         11    1    3    3    0    0  0.11889634542E+03  0.11040982843E+04  0.74936581007E+03  0.13396710341E+04  0.00000000000E+00 0. -1.
        -11    1    3    3    0    0  0.37297590626E+02  0.14317577240E+03  0.70959475606E+02  0.16409039962E+03  0.00000000000E+00 0.  1.
          4    1    6    6  502    0  0.60539411841E+02 -0.13620278495E+03  0.14051898275E+03  0.20484580427E+03  0.00000000000E+00 0. -1.
          3    1    5    5  503    0 -0.11268898580E+03 -0.12853334326E+03  0.13734701212E+03  0.21928025353E+03  0.00000000000E+00 0. -1.
         -4    1    5    5    0  503 -0.40301211243E+03 -0.64811271736E+03  0.46237064095E+03  0.89233147808E+03  0.00000000000E+00 0.  1.
         -3    1    6    6    0  502  0.29896775034E+03 -0.33442521112E+03  0.44855643266E+03  0.63436961691E+03  0.00000000000E+00 0.  1.
<mgrwt>
<rscale>  0 0.28102715E+04</rscale>
<asrwt>0</asrwt>
<pdfrwt beam="1">  1        1 0.42028515E+00 0.28102715E+04</pdfrwt>
<pdfrwt beam="2">  1       -1 0.11119002E+00 0.28102715E+04</pdfrwt>
<totfact> 0.59924270E-01</totfact>
</mgrwt>
</event>
<event>
12    1  0.1504874E-007  0.1226238E+04  0.7818608E-02  0.9090195E-01
          2   -1    0    0  501    0  0.00000000000E+00  0.00000000000E+00  0.22436733930E+04  0.22436733930E+04  0.00000000000E+00 0.  1.
         -2   -1    0    0    0  501 -0.00000000000E+00 -0.00000000000E+00 -0.16754440851E+03  0.16754440851E+03  0.00000000000E+00 0. -1.
         23    2    1    2    0    0  0.15165617338E+03  0.11182372231E+03  0.10419701822E+03  0.23383344155E+03  0.91197149010E+02 0.  0.
        254    2    1    2    0    0 -0.15165617338E+03 -0.11182372231E+03  0.19719319662E+04  0.21773843599E+04  0.90387102594E+03 0.  0.
        -24    2    4    4    0    0  0.35203406261E+03  0.87332042228E+02  0.69600879771E+03  0.78907397195E+03  0.81575853527E+02 0.  0.
         24    2    4    4    0    0 -0.50369023598E+03 -0.19915576453E+03  0.12759231685E+04  0.13883103880E+04  0.77839122438E+02 0.  0.
         11    1    3    3    0    0  0.13773796492E+03  0.12779480848E+03  0.90023805205E+02  0.20834477569E+03  0.00000000000E+00 0. -1.
        -11    1    3    3    0    0  0.13918208457E+02 -0.15971086171E+02  0.14173213010E+02  0.25488665857E+02  0.00000000000E+00 0.  1.
          4    1    6    6  502    0 -0.44716196284E+03 -0.17993404676E+03  0.11877171289E+04  0.12817964193E+04  0.00000000000E+00 0. -1.
          3    1    5    5  503    0 -0.36148472388E+01 -0.30740672704E+01  0.10598157528E+02  0.11611974558E+02  0.00000000000E+00 0. -1.
         -4    1    5    5    0  503  0.35564890985E+03  0.90406109498E+02  0.68541064018E+03  0.77746199739E+03  0.00000000000E+00 0.  1.
         -3    1    6    6    0  502 -0.56528273145E+02 -0.19221717769E+02  0.88206039614E+02  0.10651396868E+03  0.00000000000E+00 0.  1.
<mgrwt>
<rscale>  0 0.12262380E+04</rscale>
<asrwt>0</asrwt>
<pdfrwt beam="1">  1        2 0.34518050E+00 0.12262380E+04</pdfrwt>
<pdfrwt beam="2">  1       -2 0.25776064E-01 0.12262380E+04</pdfrwt>
<totfact> 0.65422294E+01</totfact>
</mgrwt>
</event>
<event>
12    1  0.1504874E-007  0.2353013E+04  0.7818608E-02  0.8457307E-01
          2   -1    0    0  501    0  0.00000000000E+00  0.00000000000E+00  0.15677416665E+04  0.15677416665E+04  0.00000000000E+00 0. -1.
         -2   -1    0    0    0  501 -0.00000000000E+00 -0.00000000000E+00 -0.88290543548E+03  0.88290543548E+03  0.00000000000E+00 0.  1.
         23    2    1    2    0    0  0.95565105906E+03 -0.25790968636E+03  0.12470781991E+03  0.10042388649E+04  0.11470529396E+03 0.  0.
        254    2    1    2    0    0 -0.95565105906E+03  0.25790968636E+03  0.56012841113E+03  0.14464082371E+04  0.89362553585E+03 0.  0.
        -24    2    4    4    0    0 -0.28060137507E+03  0.43525251778E+03 -0.36237795075E+02  0.52508618015E+03  0.78869720880E+02 0.  0.
         24    2    4    4    0    0 -0.67504968400E+03 -0.17734283142E+03  0.59636620621E+03  0.92132205693E+03  0.77711807038E+02 0.  0.
         13    1    3    3    0    0  0.35513541368E+03 -0.10957132860E+03  0.10137998741E+03  0.38523361737E+03  0.00000000000E+00 0.  1.
        -13    1    3    3    0    0  0.60051564538E+03 -0.14833835776E+03  0.23327832504E+02  0.61900524756E+03  0.00000000000E+00 0. -1.
          2    1    6    6  502    0 -0.48006133338E+03 -0.13227539847E+03  0.46938122699E+03  0.68430578041E+03  0.00000000000E+00 0. -1.
          1    1    5    5  503    0 -0.18870567529E+03  0.22074532940E+03 -0.16112038915E+02  0.29085723326E+03  0.00000000000E+00 0. -1.
         -2    1    5    5    0  503 -0.91895699779E+02  0.21450718838E+03 -0.20125756159E+02  0.23422894690E+03  0.00000000000E+00 0.  1.
         -1    1    6    6    0  502 -0.19498835062E+03 -0.45067432948E+02  0.12698497922E+03  0.23701627652E+03  0.00000000000E+00 0.  1.
<mgrwt>
<rscale>  0 0.23530131E+04</rscale>
<asrwt>0</asrwt>
<pdfrwt beam="1">  1        2 0.24119103E+00 0.23530131E+04</pdfrwt>
<pdfrwt beam="2">  1       -2 0.13583161E+00 0.23530131E+04</pdfrwt>
<totfact> 0.40764959E+00</totfact>
</mgrwt>
</event>
<event>
12    1  0.1504874E-007  0.2547658E+04  0.7818608E-02  0.8386201E-01
          2   -1    0    0  501    0  0.00000000000E+00  0.00000000000E+00  0.11101722650E+04  0.11101722650E+04  0.00000000000E+00 0. -1.
         -2   -1    0    0    0  501 -0.00000000000E+00 -0.00000000000E+00 -0.14616110919E+04  0.14616110919E+04  0.00000000000E+00 0.  1.
         23    2    1    2    0    0 -0.10710390202E+04  0.47855225821E+02 -0.45573579596E+03  0.11683488682E+04  0.89046373281E+02 0.  0.
        254    2    1    2    0    0  0.10710390202E+04 -0.47855225821E+02  0.10429696910E+03  0.14034344887E+04  0.89963092477E+03 0.  0.
        -24    2    4    4    0    0  0.67111043483E+03  0.84184365503E+02  0.48019732025E+03  0.83327357542E+03  0.79241163457E+02 0.  0.
         24    2    4    4    0    0  0.39992858540E+03 -0.13203959132E+03 -0.37590035115E+03  0.57016091328E+03  0.80031655812E+02 0.  0.
         11    1    3    3    0    0 -0.95189957030E+03  0.16461985688E+02 -0.41525614006E+03  0.10386633000E+04  0.00000000000E+00 0.  1.
        -11    1    3    3    0    0 -0.11913944993E+03  0.31393240132E+02 -0.40479655902E+02  0.12968556819E+03  0.00000000000E+00 0. -1.
          2    1    6    6  502    0  0.19109602291E+03 -0.62940959316E+02 -0.12669556590E+03  0.23776253017E+03  0.00000000000E+00 0. -1.
          1    1    5    5  503    0  0.80283921006E+02  0.36331906374E+02  0.67293061283E+02  0.11087773216E+03  0.00000000000E+00 0. -1.
         -2    1    5    5    0  503  0.59082651382E+03  0.47852459129E+02  0.41290425897E+03  0.72239584326E+03  0.00000000000E+00 0.  1.
         -1    1    6    6    0  502  0.20883256249E+03 -0.69098632007E+02 -0.24920478525E+03  0.33239838311E+03  0.00000000000E+00 0.  1.
<mgrwt>
<rscale>  0 0.25476578E+04</rscale>
<asrwt>0</asrwt>
<pdfrwt beam="1">  1        2 0.17079573E+00 0.25476578E+04</pdfrwt>
<pdfrwt beam="2">  1       -2 0.22486324E+00 0.25476578E+04</pdfrwt>
<totfact> 0.17565547E+00</totfact>
</mgrwt>
</event>
<event>
12    1  0.1504874E-007  0.1274929E+04  0.7818608E-02  0.9049686E-01
         -2   -1    0    0    0  501 -0.00000000000E+00  0.00000000000E+00  0.13354181356E+03  0.13354181356E+03  0.00000000000E+00 0.  1.
          2   -1    0    0  501    0  0.00000000000E+00 -0.00000000000E+00 -0.30429497119E+04  0.30429497119E+04  0.00000000000E+00 0. -1.
         23    2    1    2    0    0 -0.26637449532E+03 -0.47490340979E+02 -0.93870244305E+03  0.98107102939E+03  0.90152004283E+02 0.  0.
        254    2    1    2    0    0  0.26637449532E+03  0.47490340979E+02 -0.19707054553E+04  0.21954204961E+04  0.92896741536E+03 0.  0.
        -24    2    4    4    0    0  0.24281224862E+03 -0.31610697485E+03 -0.16627930525E+04  0.17116969213E+04  0.78384992872E+02 0.  0.
         24    2    4    4    0    0  0.23562246701E+02  0.36359731583E+03 -0.30791240280E+03  0.48372357483E+03  0.80126534351E+02 0.  0.
         13    1    3    3    0    0 -0.24403556837E+03 -0.69188580141E+02 -0.85130787706E+03  0.88829360000E+03  0.00000000000E+00 0. -1.
        -13    1    3    3    0    0 -0.22338926945E+02  0.21698239162E+02 -0.87394565984E+02  0.92777429386E+02  0.00000000000E+00 0.  1.
          4    1    6    6  502    0 -0.17167937935E+02  0.25306128124E+03 -0.18878918849E+03  0.31618998695E+03  0.00000000000E+00 0. -1.
          3    1    5    5  503    0  0.19723195180E+03 -0.20525020328E+03 -0.10953761922E+04  0.11317584067E+04  0.00000000000E+00 0. -1.
         -2    1    5    5    0  503  0.45580296814E+02 -0.11085677157E+03 -0.56741686036E+03  0.57993851457E+03  0.00000000000E+00 0.  1.
         -3    1    6    6    0  502  0.40730184636E+02  0.11053603459E+03 -0.11912321431E+03  0.16753358789E+03  0.00000000000E+00 0.  1.
<mgrwt>
<rscale>  0 0.12749291E+04</rscale>
<asrwt>0</asrwt>
<pdfrwt beam="1">  1        2 0.46814610E+00 0.12749291E+04</pdfrwt>
<pdfrwt beam="2">  1       -2 0.20544895E-01 0.12749291E+04</pdfrwt>
<totfact> 0.33168613E+01</totfact>
</mgrwt>
</event>
<event>
12    1  0.1504874E-007  0.1276938E+04  0.7818608E-02  0.9048056E-01
          1   -1    0    0  501    0  0.00000000000E+00  0.00000000000E+00  0.53767130861E+03  0.53767130861E+03  0.00000000000E+00 0. -1.
         -1   -1    0    0    0  501 -0.00000000000E+00 -0.00000000000E+00 -0.75816335938E+03  0.75816335938E+03  0.00000000000E+00 0.  1.
         23    2    1    2    0    0  0.91604324597E+01 -0.19223295495E+03 -0.30843439170E+03  0.37475500094E+03  0.90951164108E+02 0.  0.
        254    2    1    2    0    0 -0.91604324597E+01  0.19223295495E+03  0.87942340935E+02  0.92107966706E+03  0.89644658248E+03 0.  0.
        -24    2    4    4    0    0 -0.39051504567E+03  0.13325369471E+03  0.25838757033E+03  0.49335930740E+03  0.79879419404E+02 0.  0.
         24    2    4    4    0    0  0.38135461321E+03  0.58979260239E+02 -0.17044522939E+03  0.42772035966E+03  0.70592037015E+02 0.  0.
         11    1    3    3    0    0  0.27763636280E+02 -0.78060942655E+02 -0.65252518677E+02  0.10546194319E+03  0.00000000000E+00 0.  1.
        -11    1    3    3    0    0 -0.18603203820E+02 -0.11417201229E+03 -0.24318187303E+03  0.26929305775E+03  0.00000000000E+00 0. -1.
          4    1    6    6  502    0  0.23815419475E+03  0.62363062122E+02 -0.13232989313E+03  0.27949556814E+03  0.00000000000E+00 0. -1.
          1    1    5    5  503    0 -0.37356870534E+03  0.12114587408E+03  0.22118790188E+03  0.45072606798E+03  0.00000000000E+00 0. -1.
         -2    1    5    5    0  503 -0.16946340338E+02  0.12107820625E+02  0.37199668444E+02  0.42633239420E+02  0.00000000000E+00 0.  1.
         -3    1    6    6    0  502  0.14320041846E+03 -0.33838018823E+01 -0.38115336257E+02  0.14822479152E+03  0.00000000000E+00 0.  1.
<mgrwt>
<rscale>  0 0.12769380E+04</rscale>
<asrwt>0</asrwt>
<pdfrwt beam="1">  1        1 0.82718663E-01 0.12769380E+04</pdfrwt>
<pdfrwt beam="2">  1       -1 0.11664052E+00 0.12769380E+04</pdfrwt>
<totfact> 0.26161042E+01</totfact>
</mgrwt>
</event>
<event>
12    1  0.1504874E-007  0.1170801E+04  0.7818608E-02  0.9138806E-01
          2   -1    0    0  501    0  0.00000000000E+00  0.00000000000E+00  0.51832799842E+03  0.51832799842E+03  0.00000000000E+00 0. -1.
         -2   -1    0    0    0  501 -0.00000000000E+00 -0.00000000000E+00 -0.66115177546E+03  0.66115177546E+03  0.00000000000E+00 0.  1.
         23    2    1    2    0    0  0.11281717259E+03  0.15644372829E+03  0.89731668596E+02  0.23176488862E+03  0.91982806544E+02 0.  0.
        254    2    1    2    0    0 -0.11281717259E+03 -0.15644372829E+03 -0.23255544564E+03  0.94771488526E+03  0.89826450108E+03 0.  0.
        -24    2    4    4    0    0 -0.20810463200E+03  0.33927222846E+03 -0.88472201722E+02  0.41593950793E+03  0.82250598261E+02 0.  0.
         24    2    4    4    0    0  0.95287459413E+02 -0.49571595675E+03 -0.14408324391E+03  0.53177537733E+03  0.84917966662E+02 0.  0.
         13    1    3    3    0    0  0.18905205155E+02 -0.20626860875E+01 -0.10813374524E+02  0.21876711920E+02  0.00000000000E+00 0.  1.
        -13    1    3    3    0    0  0.93911967431E+02  0.15850641437E+03  0.10054504312E+03  0.20988817670E+03  0.00000000000E+00 0. -1.
          4    1    6    6  502    0  0.41154446971E+02 -0.39275390085E+03 -0.99922619720E+02  0.40734978221E+03  0.00000000000E+00 0. -1.
          3    1    5    5  503    0 -0.19515167823E+03  0.26946441204E+03 -0.54176908613E+02  0.33709106232E+03  0.00000000000E+00 0. -1.
         -4    1    5    5    0  503 -0.12952953769E+02  0.69807816424E+02 -0.34295293108E+02  0.78848445607E+02  0.00000000000E+00 0.  1.
         -3    1    6    6    0  502  0.54133012443E+02 -0.10296205590E+03 -0.44160624193E+02  0.12442559512E+03  0.00000000000E+00 0.  1.
<mgrwt>
<rscale>  0 0.11708005E+04</rscale>
<asrwt>0</asrwt>
<pdfrwt beam="1">  1        2 0.79742769E-01 0.11708005E+04</pdfrwt>
<pdfrwt beam="2">  1       -2 0.10171566E+00 0.11708005E+04</pdfrwt>
<totfact> 0.46307477E+01</totfact>
</mgrwt>
</event>
<event>
12    1  0.1504874E-007  0.1178416E+04  0.7818608E-02  0.9131962E-01
         -2   -1    0    0    0  501 -0.00000000000E+00  0.00000000000E+00  0.21683562025E+03  0.21683562025E+03  0.00000000000E+00 0.  1.
          2   -1    0    0  501    0  0.00000000000E+00 -0.00000000000E+00 -0.16010563769E+04  0.16010563769E+04  0.00000000000E+00 0. -1.
         23    2    1    2    0    0  0.24535780425E+02  0.27224612413E+02  0.58514460794E+02  0.11455718379E+03  0.91412374403E+02 0.  0.
        254    2    1    2    0    0 -0.24535780425E+02 -0.27224612413E+02 -0.14427352175E+04  0.17033348134E+04  0.90472172226E+03 0.  0.
        -24    2    4    4    0    0 -0.19892957748E+02 -0.20479285190E+03 -0.14874288137E+04  0.15035644497E+04  0.76978805809E+02 0.  0.
         24    2    4    4    0    0 -0.46428226777E+01  0.17756823949E+03  0.44693596251E+02  0.19977036369E+03  0.79741113524E+02 0.  0.
         11    1    3    3    0    0  0.11115212543E+02 -0.10544746162E+02 -0.20715180990E+02  0.25765448665E+02  0.00000000000E+00 0. -1.
        -11    1    3    3    0    0  0.13420567883E+02  0.37769358575E+02  0.79229641784E+02  0.88791735126E+02  0.00000000000E+00 0.  1.
          4    1    6    6  502    0 -0.11332955810E+02  0.18415510092E+03  0.46351204042E+02  0.19023661897E+03  0.00000000000E+00 0. -1.
          3    1    5    5  503    0 -0.40487984741E+01 -0.19638765453E+03 -0.12374805302E+04  0.12529734898E+04  0.00000000000E+00 0. -1.
         -4    1    5    5    0  503 -0.15844159274E+02 -0.84051973745E+01 -0.24994828352E+03  0.25059095985E+03  0.00000000000E+00 0.  1.
         -3    1    6    6    0  502  0.66901331326E+01 -0.65868614286E+01 -0.16576077911E+01  0.95337447208E+01  0.00000000000E+00 0.  1.
<mgrwt>
<rscale>  0 0.11784160E+04</rscale>
<asrwt>0</asrwt>
<pdfrwt beam="1">  1        2 0.24631637E+00 0.11784160E+04</pdfrwt>
<pdfrwt beam="2">  1       -2 0.33359326E-01 0.11784160E+04</pdfrwt>
<totfact> 0.92349300E+01</totfact>
</mgrwt>
</event>
<event>
12    1  0.1504874E-007  0.2375586E+04  0.7818608E-02  0.8448701E-01
          2   -1    0    0  501    0  0.00000000000E+00  0.00000000000E+00  0.11030641907E+04  0.11030641907E+04  0.00000000000E+00 0. -1.
         -2   -1    0    0    0  501 -0.00000000000E+00 -0.00000000000E+00 -0.12790298839E+04  0.12790298839E+04  0.00000000000E+00 0.  1.
         23    2    1    2    0    0 -0.50869338636E+03  0.34578021641E+03  0.73590131618E+03  0.96335861572E+03  0.90422098745E+02 0.  0.
        254    2    1    2    0    0  0.50869338636E+03 -0.34578021641E+03 -0.91186700942E+03  0.14187354588E+04  0.89608924772E+03 0.  0.
        -24    2    4    4    0    0  0.19131314279E+03  0.56840406005E+02 -0.87407397960E+03  0.89999130640E+03  0.78405863521E+02 0.  0.
         24    2    4    4    0    0  0.31738024357E+03 -0.40262062242E+03 -0.37793029820E+02  0.51874415242E+03  0.69524081923E+02 0.  0.
         13    1    3    3    0    0 -0.14829339285E+03  0.70035470434E+02  0.14979338423E+03  0.22211248376E+03  0.00000000000E+00 0.  1.
        -13    1    3    3    0    0 -0.36039999350E+03  0.27574474598E+03  0.58610793195E+03  0.74124613196E+03  0.00000000000E+00 0. -1.
          2    1    6    6  502    0  0.19339236501E+03 -0.28215128936E+03 -0.48742508922E+02  0.34552248712E+03  0.00000000000E+00 0. -1.
          1    1    5    5  503    0  0.19533089654E+03  0.64417493555E+02 -0.83134485785E+03  0.85640997501E+03  0.00000000000E+00 0. -1.
         -2    1    5    5    0  503 -0.40177537517E+01 -0.75770875494E+01 -0.42729121744E+02  0.43581331393E+02  0.00000000000E+00 0.  1.
         -1    1    6    6    0  502  0.12398787856E+03 -0.12046933306E+03  0.10949479102E+02  0.17322166530E+03  0.00000000000E+00 0.  1.
<mgrwt>
<rscale>  0 0.23755859E+04</rscale>
<asrwt>0</asrwt>
<pdfrwt beam="1">  1        2 0.16970218E+00 0.23755859E+04</pdfrwt>
<pdfrwt beam="2">  1       -2 0.19677383E+00 0.23755859E+04</pdfrwt>
<totfact> 0.27296895E+00</totfact>
</mgrwt>
</event>
<event>
12    1  0.1504874E-007  0.1990538E+04  0.7818608E-02  0.8611057E-01
         -2   -1    0    0    0  501 -0.00000000000E+00  0.00000000000E+00  0.51001347162E+03  0.51001347162E+03  0.00000000000E+00 0.  1.
          2   -1    0    0  501    0  0.00000000000E+00 -0.00000000000E+00 -0.19422234735E+04  0.19422234735E+04  0.00000000000E+00 0. -1.
         23    2    1    2    0    0 -0.67746411634E+02 -0.45154920050E+03 -0.13657911574E+04  0.14428069838E+04  0.88432178860E+02 0.  0.
        254    2    1    2    0    0  0.67746411634E+02  0.45154920050E+03 -0.66418844477E+02  0.10094299613E+04  0.89780350135E+03 0.  0.
        -24    2    4    4    0    0  0.40238863295E+03  0.27294037624E+03 -0.27997972322E+03  0.56681065248E+03  0.80452529143E+02 0.  0.
         24    2    4    4    0    0 -0.33464222132E+03  0.17860882425E+03  0.21356087874E+03  0.44261930878E+03  0.80106648826E+02 0.  0.
         13    1    3    3    0    0  0.49434562860E+00 -0.25128106476E+03 -0.81123091705E+03  0.84925733359E+03  0.00000000000E+00 0. -1.
        -13    1    3    3    0    0 -0.68240757262E+02 -0.20026813573E+03 -0.55456024032E+03  0.59354965023E+03  0.00000000000E+00 0.  1.
          4    1    6    6  502    0 -0.17857622536E+03  0.53658494453E+02  0.12120748956E+03  0.22239594829E+03  0.00000000000E+00 0. -1.
          3    1    5    5  503    0  0.74890422097E+02  0.90551546611E+02 -0.77456887167E+02  0.14073992783E+03  0.00000000000E+00 0. -1.
         -4    1    5    5    0  503  0.32749821086E+03  0.18238882963E+03 -0.20252283605E+03  0.42607072466E+03  0.00000000000E+00 0.  1.
         -3    1    6    6    0  502 -0.15606599596E+03  0.12495032980E+03  0.92353389177E+02  0.22022336049E+03  0.00000000000E+00 0.  1.
<mgrwt>
<rscale>  0 0.19905378E+04</rscale>
<asrwt>0</asrwt>
<pdfrwt beam="1">  1        2 0.29880361E+00 0.19905378E+04</pdfrwt>
<pdfrwt beam="2">  1       -2 0.78463612E-01 0.19905378E+04</pdfrwt>
<totfact> 0.96570350E+00</totfact>
</mgrwt>
</event>
<event>
12    1  0.1504874E-007  0.1957631E+04  0.7818608E-02  0.8626690E-01
          1   -1    0    0  501    0  0.00000000000E+00  0.00000000000E+00  0.75215962008E+03  0.75215962008E+03  0.00000000000E+00 0. -1.
         -1   -1    0    0    0  501 -0.00000000000E+00 -0.00000000000E+00 -0.12737719991E+04  0.12737719991E+04  0.00000000000E+00 0.  1.
         23    2    1    2    0    0  0.50340358208E+03 -0.20287014434E+03 -0.77993050656E+03  0.95425170118E+03  0.87938911864E+02 0.  0.
        254    2    1    2    0    0 -0.50340358208E+03  0.20287014434E+03  0.25831812754E+03  0.10716799180E+04  0.88724186652E+03 0.  0.
        -24    2    4    4    0    0 -0.67260552803E+03  0.37736412531E+03  0.25404122013E+03  0.81593284990E+03  0.80047452240E+02 0.  0.
         24    2    4    4    0    0  0.16920194595E+03 -0.17449398097E+03  0.42769074023E+01  0.25574706810E+03  0.79440688551E+02 0.  0.
         11    1    3    3    0    0  0.48595969004E+02 -0.30781556822E+02 -0.13328695792E+03  0.14517053970E+03  0.00000000000E+00 0. -1.
        -11    1    3    3    0    0  0.45480761308E+03 -0.17208858752E+03 -0.64664354864E+03  0.80908116148E+03  0.00000000000E+00 0.  1.
          4    1    6    6  502    0  0.13259458007E+03 -0.96435105948E+02  0.27995760039E+02  0.16632743280E+03  0.00000000000E+00 0. -1.
          3    1    5    5  503    0 -0.60673775500E+03  0.31768330085E+03  0.24130236549E+03  0.72614063003E+03  0.00000000000E+00 0. -1.
         -4    1    5    5    0  503 -0.65867773030E+02  0.59680824463E+02  0.12738854640E+02  0.89792219874E+02  0.00000000000E+00 0.  1.
         -3    1    6    6    0  502  0.36607365880E+02 -0.78058875018E+02 -0.23718852637E+02  0.89419635295E+02  0.00000000000E+00 0.  1.
<mgrwt>
<rscale>  0 0.19576311E+04</rscale>
<asrwt>0</asrwt>
<pdfrwt beam="1">  1        1 0.11571687E+00 0.19576311E+04</pdfrwt>
<pdfrwt beam="2">  1       -1 0.19596492E+00 0.19576311E+04</pdfrwt>
<totfact> 0.36433831E+00</totfact>
</mgrwt>
</event>
<event>
12    1  0.1504874E-007  0.2004468E+04  0.7818608E-02  0.8604534E-01
          2   -1    0    0  501    0  0.00000000000E+00  0.00000000000E+00  0.25905505176E+04  0.25905505176E+04  0.00000000000E+00 0. -1.
         -2   -1    0    0    0  501 -0.00000000000E+00 -0.00000000000E+00 -0.38774512611E+03  0.38774512611E+03  0.00000000000E+00 0.  1.
         23    2    1    2    0    0 -0.15639472633E+03  0.12139013316E+03 -0.26654199006E+03  0.34473965284E+03  0.92768102924E+02 0.  0.
        254    2    1    2    0    0  0.15639472633E+03 -0.12139013316E+03  0.24693473815E+04  0.26335559908E+04  0.89372579204E+03 0.  0.
        -24    2    4    4    0    0  0.30658409945E+03  0.24173937891E+03  0.18731302594E+04  0.19150880864E+04  0.80707327289E+02 0.  0.
         24    2    4    4    0    0 -0.15018937312E+03 -0.36312951207E+03  0.59621712215E+03  0.71846790445E+03  0.79381248721E+02 0.  0.
         11    1    3    3    0    0 -0.37824461940E+02  0.86856992315E+02 -0.10541915652E+03  0.14173223203E+03  0.00000000000E+00 0. -1.
        -11    1    3    3    0    0 -0.11857026439E+03  0.34533140844E+02 -0.16112283354E+03  0.20300742081E+03  0.00000000000E+00 0.  1.
          2    1    6    6  502    0 -0.10186513976E+02 -0.56250605448E+01  0.46583023765E+02  0.48014419462E+02  0.00000000000E+00 0. -1.
          3    1    5    5  503    0  0.19538237389E+02 -0.43015582753E+01  0.12001674428E+03  0.12167277852E+03  0.00000000000E+00 0. -1.
         -4    1    5    5    0  503  0.28704586206E+03  0.24604093718E+03  0.17531135151E+04  0.17934153079E+04  0.00000000000E+00 0.  1.
         -1    1    6    6    0  502 -0.14000285914E+03 -0.35750445152E+03  0.54963409839E+03  0.67045348499E+03  0.00000000000E+00 0.  1.
<mgrwt>
<rscale>  0 0.20044683E+04</rscale>
<asrwt>0</asrwt>
<pdfrwt beam="1">  1        2 0.39854622E+00 0.20044683E+04</pdfrwt>
<pdfrwt beam="2">  1       -2 0.59653098E-01 0.20044683E+04</pdfrwt>
<totfact> 0.75115400E+00</totfact>
</mgrwt>
</event>
<event>
12    1  0.1504874E-007  0.1074155E+04  0.7818608E-02  0.9230754E-01
         -2   -1    0    0    0  501 -0.00000000000E+00  0.00000000000E+00  0.22485016492E+03  0.22485016492E+03  0.00000000000E+00 0.  1.
          2   -1    0    0  501    0  0.00000000000E+00 -0.00000000000E+00 -0.12828651000E+04  0.12828651000E+04  0.00000000000E+00 0. -1.
         23    2    1    2    0    0  0.50019891239E+01 -0.14180126638E+03 -0.15813189548E+03  0.22932268370E+03  0.86316729830E+02 0.  0.
        254    2    1    2    0    0 -0.50019891239E+01  0.14180126638E+03 -0.89988303956E+03  0.12783925812E+04  0.89686425266E+03 0.  0.
        -24    2    4    4    0    0 -0.39058722446E+02 -0.21529551424E+03 -0.88122800456E+03  0.91141358346E+03  0.78956835301E+02 0.  0.
         24    2    4    4    0    0  0.34056733322E+02  0.35709678062E+03 -0.18655034996E+02  0.36697899772E+03  0.75150533099E+02 0.  0.
         11    1    3    3    0    0 -0.18815758341E+02 -0.46576191945E+02 -0.10798353410E+03  0.11909583559E+03  0.00000000000E+00 0. -1.
        -11    1    3    3    0    0  0.23817747465E+02 -0.95225074439E+02 -0.50148361388E+02  0.11022684812E+03  0.00000000000E+00 0.  1.
          2    1    6    6  502    0 -0.15067457529E+01  0.30284529829E+02 -0.23242893390E+02  0.38205433159E+02  0.00000000000E+00 0. -1.
          3    1    5    5  503    0 -0.42301514669E+02 -0.76061383509E+02 -0.44711891638E+03  0.45551078757E+03  0.00000000000E+00 0. -1.
         -4    1    5    5    0  503  0.32427922228E+01 -0.13923413073E+03 -0.43410908818E+03  0.45590279589E+03  0.00000000000E+00 0.  1.
         -1    1    6    6    0  502  0.35563479075E+02  0.32681225079E+03  0.45878583947E+01  0.32877356456E+03  0.00000000000E+00 0.  1.
<mgrwt>
<rscale>  0 0.10741554E+04</rscale>
<asrwt>0</asrwt>
<pdfrwt beam="1">  1        2 0.19736386E+00 0.10741554E+04</pdfrwt>
<pdfrwt beam="2">  1       -2 0.34592333E-01 0.10741554E+04</pdfrwt>
<totfact> 0.13165221E+02</totfact>
</mgrwt>
</event>
<event>
12    1  0.1504874E-007  0.3038619E+04  0.7818608E-02  0.8232788E-01
         -1   -1    0    0    0  501 -0.00000000000E+00  0.00000000000E+00  0.15746914452E+04  0.15746914452E+04  0.00000000000E+00 0.  1.
          1   -1    0    0  501    0  0.00000000000E+00 -0.00000000000E+00 -0.14658750269E+04  0.14658750269E+04  0.00000000000E+00 0. -1.
         23    2    1    2    0    0  0.66680424585E+01 -0.55206131661E+03 -0.12176842479E+04  0.13402985148E+04  0.93962871792E+02 0.  0.
        254    2    1    2    0    0 -0.66680424585E+01  0.55206131661E+03  0.13265006662E+04  0.17002679573E+04  0.90911547611E+03 0.  0.
        -24    2    4    4    0    0  0.21033307208E+03 -0.10475001040E+03  0.60518215811E+02  0.25544617766E+03  0.79860687136E+02 0.  0.
         24    2    4    4    0    0 -0.21700111453E+03  0.65681132701E+03  0.12659824504E+04  0.14448217796E+04  0.79421703861E+02 0.  0.
         11    1    3    3    0    0  0.33352227710E+02 -0.46501123279E+03 -0.10642342315E+04  0.11618701809E+04  0.00000000000E+00 0. -1.
        -11    1    3    3    0    0 -0.26684185251E+02 -0.87050083821E+02 -0.15345001636E+03  0.17842833395E+03  0.00000000000E+00 0.  1.
          4    1    6    6  502    0 -0.77574607921E+02  0.17289182331E+03  0.28726237245E+03  0.34413525391E+03  0.00000000000E+00 0. -1.
          1    1    5    5  503    0  0.91362336079E+02 -0.35333574717E+01  0.30523164071E+02  0.96390998613E+02  0.00000000000E+00 0. -1.
         -2    1    5    5    0  503  0.11897073600E+03 -0.10121665292E+03  0.29995051739E+02  0.15905517905E+03  0.00000000000E+00 0.  1.
         -3    1    6    6    0  502 -0.13942650661E+03  0.48391950370E+03  0.97872007799E+03  0.11006865257E+04  0.00000000000E+00 0.  1.
<mgrwt>
<rscale>  0 0.30386187E+04</rscale>
<asrwt>0</asrwt>
<pdfrwt beam="1">  1        1 0.22551923E+00 0.30386187E+04</pdfrwt>
<pdfrwt beam="2">  1       -1 0.24226022E+00 0.30386187E+04</pdfrwt>
<totfact> 0.45917770E-01</totfact>
</mgrwt>
</event>
<event>
12    1  0.1504874E-007  0.1893135E+04  0.7818608E-02  0.8658281E-01
          1   -1    0    0  501    0  0.00000000000E+00  0.00000000000E+00  0.39713511477E+04  0.39713511477E+04  0.00000000000E+00 0. -1.
         -1   -1    0    0    0  501 -0.00000000000E+00 -0.00000000000E+00 -0.22561333928E+03  0.22561333928E+03  0.00000000000E+00 0.  1.
         23    2    1    2    0    0  0.35060362400E+03 -0.22742352603E+03  0.13693073129E+03  0.44944714918E+03  0.92781212462E+02 0.  0.
        254    2    1    2    0    0 -0.35060362400E+03  0.22742352603E+03  0.36088070771E+04  0.37475173378E+04  0.91964847405E+03 0.  0.
        -24    2    4    4    0    0 -0.24552007216E+03  0.57872914408E+03  0.23568698103E+04  0.24405701943E+04  0.79624381738E+02 0.  0.
         24    2    4    4    0    0 -0.10508355184E+03 -0.35130561805E+03  0.12519372668E+04  0.13069471436E+04  0.79408600922E+02 0.  0.
         11    1    3    3    0    0  0.52680524191E+02 -0.65890109521E+02  0.55258720201E+02  0.10084775813E+03  0.00000000000E+00 0. -1.
        -11    1    3    3    0    0  0.29792309981E+03 -0.16153341651E+03  0.81672011087E+02  0.34859939105E+03  0.00000000000E+00 0.  1.
          4    1    6    6  502    0 -0.11325141480E+03 -0.26601993804E+03  0.94017038195E+03  0.98362230428E+03  0.00000000000E+00 0. -1.
          3    1    5    5  503    0 -0.18026035289E+03  0.32620856117E+03  0.14134531251E+04  0.14617645354E+04  0.00000000000E+00 0. -1.
         -4    1    5    5    0  503 -0.65259719270E+02  0.25252058290E+03  0.94341668524E+03  0.97880565882E+03  0.00000000000E+00 0.  1.
         -3    1    6    6    0  502  0.81678629571E+01 -0.85285680005E+02  0.31176688486E+03  0.32332483927E+03  0.00000000000E+00 0.  1.
<mgrwt>
<rscale>  0 0.18931347E+04</rscale>
<asrwt>0</asrwt>
<pdfrwt beam="1">  1        1 0.61097705E+00 0.18931347E+04</pdfrwt>
<pdfrwt beam="2">  1       -1 0.34709747E-01 0.18931347E+04</pdfrwt>
<totfact> 0.75694258E-01</totfact>
</mgrwt>
</event>
<event>
12    1  0.1504874E-007  0.2195000E+04  0.7818608E-02  0.8520512E-01
          2   -1    0    0  501    0  0.00000000000E+00  0.00000000000E+00  0.18480901632E+04  0.18480901632E+04  0.00000000000E+00 0. -1.
         -2   -1    0    0    0  501 -0.00000000000E+00 -0.00000000000E+00 -0.65175733198E+03  0.65175733198E+03  0.00000000000E+00 0.  1.
         23    2    1    2    0    0  0.86303145745E+03  0.26730896549E+03  0.45381608066E+03  0.10147733284E+04  0.86824497522E+02 0.  0.
        254    2    1    2    0    0 -0.86303145745E+03 -0.26730896549E+03  0.74251675054E+03  0.14850741668E+04  0.91533424300E+03 0.  0.
        -24    2    4    4    0    0  0.16035357348E+03  0.87311565397E+02  0.10482707305E+03  0.22552283877E+03  0.80840940023E+02 0.  0.
         24    2    4    4    0    0 -0.10233850309E+04 -0.35462053088E+03  0.63768967748E+03  0.12595513280E+04  0.82150962453E+02 0.  0.
         11    1    3    3    0    0  0.25252343059E+03  0.11993667269E+03  0.13533082821E+03  0.31059188901E+03  0.00000000000E+00 0.  1.
        -11    1    3    3    0    0  0.61050802686E+03  0.14737229280E+03  0.31848525245E+03  0.70418143939E+03  0.00000000000E+00 0. -1.
          4    1    6    6  502    0 -0.81425695206E+03 -0.31409010809E+03  0.49816418116E+03  0.10049052350E+04  0.00000000000E+00 0. -1.
          1    1    5    5  503    0  0.97048872959E+02  0.95080189219E+02  0.69311102985E+02  0.15252132678E+03  0.00000000000E+00 0. -1.
         -2    1    5    5    0  503  0.63304700520E+02 -0.77686238214E+01  0.35515970067E+02  0.73001511997E+02  0.00000000000E+00 0.  1.
         -3    1    6    6    0  502 -0.20912807887E+03 -0.40530422790E+02  0.13952549633E+03  0.25464609298E+03  0.00000000000E+00 0.  1.
<mgrwt>
<rscale>  0 0.21950001E+04</rscale>
<asrwt>0</asrwt>
<pdfrwt beam="1">  1        2 0.28432156E+00 0.21950001E+04</pdfrwt>
<pdfrwt beam="2">  1       -2 0.10027036E+00 0.21950001E+04</pdfrwt>
<totfact> 0.60896824E+00</totfact>
</mgrwt>
</event>
<event>
12    1  0.1504874E-007  0.2726148E+04  0.7818608E-02  0.8326570E-01
          2   -1    0    0  501    0  0.00000000000E+00  0.00000000000E+00  0.52313316847E+03  0.52313316847E+03  0.00000000000E+00 0. -1.
         -2   -1    0    0    0  501 -0.00000000000E+00 -0.00000000000E+00 -0.35516221548E+04  0.35516221548E+04  0.00000000000E+00 0.  1.
         23    2    1    2    0    0  0.11565249728E+04 -0.35621188455E+03 -0.14683468612E+04  0.19048021992E+04  0.88272271411E+02 0.  0.
        254    2    1    2    0    0 -0.11565249728E+04  0.35621188455E+03 -0.15601421252E+04  0.21699531241E+04  0.90012009793E+03 0.  0.
        -24    2    4    4    0    0  0.70388222594E+02  0.18361426479E+03 -0.47625180498E+03  0.52187639421E+03  0.82888412752E+02 0.  0.
         24    2    4    4    0    0 -0.12269131954E+04  0.17259761976E+03 -0.10838903202E+04  0.16480767299E+04  0.78947793345E+02 0.  0.
         11    1    3    3    0    0  0.10291978608E+04 -0.32345004431E+03 -0.12637674212E+04  0.16616185672E+04  0.00000000000E+00 0. -1.
        -11    1    3    3    0    0  0.12732711195E+03 -0.32761840239E+02 -0.20457943991E+03  0.24318363195E+03  0.00000000000E+00 0.  1.
          2    1    6    6  502    0 -0.12172101488E+04  0.17558362584E+03 -0.10660119026E+04  0.16275169838E+04  0.00000000000E+00 0. -1.
          1    1    5    5  503    0  0.32526112022E+02  0.16981401591E+03 -0.39479163747E+03  0.43099325399E+03  0.00000000000E+00 0. -1.
         -2    1    5    5    0  503  0.37862110572E+02  0.13800248883E+02 -0.81460167509E+02  0.90883140223E+02  0.00000000000E+00 0.  1.
         -1    1    6    6    0  502 -0.97030466147E+01 -0.29860060792E+01 -0.17878417586E+02  0.20559746139E+02  0.00000000000E+00 0.  1.
<mgrwt>
<rscale>  0 0.27261485E+04</rscale>
<asrwt>0</asrwt>
<pdfrwt beam="1">  1        2 0.80482025E-01 0.27261485E+04</pdfrwt>
<pdfrwt beam="2">  1       -2 0.54640341E+00 0.27261485E+04</pdfrwt>
<totfact> 0.45151895E-02</totfact>
</mgrwt>
</event>
<event>
12    1  0.1504874E-007  0.1395005E+04  0.7818608E-02  0.8957442E-01
         -1   -1    0    0    0  501 -0.00000000000E+00  0.00000000000E+00  0.72273715175E+03  0.72273715175E+03  0.00000000000E+00 0.  1.
          1   -1    0    0  501    0  0.00000000000E+00 -0.00000000000E+00 -0.67314930598E+03  0.67314930598E+03  0.00000000000E+00 0. -1.
         23    2    1    2    0    0 -0.29597392561E+02 -0.31837824970E+03  0.26099403691E+03  0.42257559043E+03  0.90617475126E+02 0.  0.
        254    2    1    2    0    0  0.29597392561E+02  0.31837824970E+03 -0.21140619113E+03  0.97331086730E+03  0.89465118969E+03 0.  0.
        -24    2    4    4    0    0 -0.26908807888E+03  0.23055245691E+03 -0.44643008144E+03  0.57511996077E+03  0.76813554006E+02 0.  0.
         24    2    4    4    0    0  0.29868547144E+03  0.87825792789E+02  0.23502389030E+03  0.39819090653E+03  0.79958666198E+02 0.  0.
         11    1    3    3    0    0  0.16753732862E+01 -0.14805993554E+03  0.17498835143E+03  0.22922799682E+03  0.00000000000E+00 0.  1.
        -11    1    3    3    0    0 -0.31272765847E+02 -0.17031831416E+03  0.86005685472E+02  0.19334759361E+03  0.00000000000E+00 0. -1.
          4    1    6    6  502    0  0.21706994309E+03  0.26577616671E+02  0.17231585930E+03  0.27842141669E+03  0.00000000000E+00 0. -1.
          1    1    5    5  503    0 -0.25518928107E+03  0.20293075216E+03 -0.37279569381E+03  0.49525658872E+03  0.00000000000E+00 0. -1.
         -2    1    5    5    0  503 -0.13898797807E+02  0.27621704758E+02 -0.73634387628E+02  0.79863372052E+02  0.00000000000E+00 0.  1.
         -3    1    6    6    0  502  0.81615528348E+02  0.61248176117E+02  0.62708031000E+02  0.11976948984E+03  0.00000000000E+00 0.  1.
<mgrwt>
<rscale>  0 0.13950054E+04</rscale>
<asrwt>0</asrwt>
<pdfrwt beam="1">  1        1 0.10356143E+00 0.13950054E+04</pdfrwt>
<pdfrwt beam="2">  1       -1 0.11119033E+00 0.13950054E+04</pdfrwt>
<totfact> 0.20984362E+01</totfact>
</mgrwt>
</event>
<event>
12    1  0.1504874E-007  0.2000663E+04  0.7818608E-02  0.8606311E-01
          1   -1    0    0  501    0  0.00000000000E+00  0.00000000000E+00  0.32744312535E+04  0.32744312535E+04  0.00000000000E+00 0. -1.
         -1   -1    0    0    0  501 -0.00000000000E+00 -0.00000000000E+00 -0.30559900410E+03  0.30559900410E+03  0.00000000000E+00 0.  1.
         23    2    1    2    0    0 -0.65089096034E+03  0.38467840167E+03  0.16023121599E+04  0.17739603978E+04  0.88852237250E+02 0.  0.
        254    2    1    2    0    0  0.65089096034E+03 -0.38467840167E+03  0.13665200895E+04  0.18060698599E+04  0.90712439539E+03 0.  0.
        -24    2    4    4    0    0  0.45859556258E+03 -0.67668952023E+03  0.98310010902E+03  0.12810211829E+04  0.79440858257E+02 0.  0.
         24    2    4    4    0    0  0.19229539776E+03  0.29201111856E+03  0.38341998048E+03  0.52504867692E+03  0.80107542363E+02 0.  0.
         13    1    3    3    0    0 -0.60624005284E+02  0.48040976479E+02  0.11282165425E+03  0.13679156079E+03  0.00000000000E+00 0.  1.
        -13    1    3    3    0    0 -0.59026695505E+03  0.33663742519E+03  0.14894905057E+04  0.16371688370E+04  0.00000000000E+00 0. -1.
          2    1    6    6  502    0  0.10284985482E+03  0.17384059284E+03  0.16357818202E+03  0.25991626727E+03  0.00000000000E+00 0. -1.
          1    1    5    5  503    0  0.27707605124E+03 -0.37049010144E+03  0.60663629679E+03  0.76291654197E+03  0.00000000000E+00 0. -1.
         -2    1    5    5    0  503  0.18151951134E+03 -0.30619941879E+03  0.37646381224E+03  0.51810464096E+03  0.00000000000E+00 0.  1.
         -1    1    6    6    0  502  0.89445542935E+02  0.11817052572E+03  0.21984179846E+03  0.26513240966E+03  0.00000000000E+00 0.  1.
<mgrwt>
<rscale>  0 0.20006628E+04</rscale>
<asrwt>0</asrwt>
<pdfrwt beam="1">  1        1 0.50375863E+00 0.20006628E+04</pdfrwt>
<pdfrwt beam="2">  1       -1 0.47015234E-01 0.20006628E+04</pdfrwt>
<totfact> 0.15676102E+00</totfact>
</mgrwt>
</event>
<event>
12    1  0.1504874E-007  0.1123468E+04  0.7818608E-02  0.9182615E-01
         -1   -1    0    0    0  501 -0.00000000000E+00  0.00000000000E+00  0.88689882797E+03  0.88689882797E+03  0.00000000000E+00 0.  1.
          1   -1    0    0  501    0  0.00000000000E+00 -0.00000000000E+00 -0.35578506312E+03  0.35578506312E+03  0.00000000000E+00 0. -1.
         23    2    1    2    0    0 -0.74826056573E+02 -0.47293895893E+02 -0.77498055677E+02  0.14877747966E+03  0.91066670580E+02 0.  0.
        254    2    1    2    0    0  0.74826056573E+02  0.47293895893E+02  0.60861182053E+03  0.10939064114E+04  0.90464757642E+03 0.  0.
        -24    2    4    4    0    0  0.17579801840E+03  0.44273825617E+03  0.24098763488E+03  0.53928930307E+03  0.76392443958E+02 0.  0.
         24    2    4    4    0    0 -0.10097196183E+03 -0.39544436028E+03  0.36762418565E+03  0.55461710835E+03  0.76687781627E+02 0.  0.
         11    1    3    3    0    0 -0.63154127362E+02 -0.71511486984E+02 -0.75778650800E+02  0.12183899413E+03  0.00000000000E+00 0. -1.
        -11    1    3    3    0    0 -0.11671929210E+02  0.24217591091E+02 -0.17194048773E+01  0.26938485534E+02  0.00000000000E+00 0.  1.
          2    1    6    6  502    0 -0.29553799262E+02 -0.27606000837E+02  0.39941561660E+02  0.56840537303E+02  0.00000000000E+00 0. -1.
          1    1    5    5  503    0  0.46668347907E+02  0.18561223715E+03  0.12759365579E+03  0.23002169088E+03  0.00000000000E+00 0. -1.
         -4    1    5    5    0  503  0.12912967049E+03  0.25712601902E+03  0.11339397908E+03  0.30926761219E+03  0.00000000000E+00 0.  1.
         -1    1    6    6    0  502 -0.71418162564E+02 -0.36783835944E+03  0.32768262399E+03  0.49777657105E+03  0.00000000000E+00 0.  1.
<mgrwt>
<rscale>  0 0.11234685E+04</rscale>
<asrwt>0</asrwt>
<pdfrwt beam="1">  1        1 0.54736164E-01 0.11234685E+04</pdfrwt>
<pdfrwt beam="2">  1       -1 0.13644597E+00 0.11234685E+04</pdfrwt>
<totfact> 0.31259039E+01</totfact>
</mgrwt>
</event>
<event>
12    1  0.1504874E-007  0.1985775E+04  0.7818608E-02  0.8613300E-01
         -2   -1    0    0    0  501 -0.00000000000E+00  0.00000000000E+00  0.55847918251E+03  0.55847918251E+03  0.00000000000E+00 0.  1.
          2   -1    0    0  501    0  0.00000000000E+00 -0.00000000000E+00 -0.17651960401E+04  0.17651960401E+04  0.00000000000E+00 0. -1.
         23    2    1    2    0    0  0.73968236304E+03  0.10457592120E+03 -0.19332491219E+03  0.77707224547E+03  0.91654959044E+02 0.  0.
        254    2    1    2    0    0 -0.73968236304E+03 -0.10457592120E+03 -0.10133919454E+04  0.15466029772E+04  0.89830474364E+03 0.  0.
        -24    2    4    4    0    0  0.11784255776E+03  0.46714325405E+02  0.61504187754E+02  0.16107286185E+03  0.78055141374E+02 0.  0.
         24    2    4    4    0    0 -0.85752492080E+03 -0.15129024660E+03 -0.10748961332E+04  0.13855301153E+04  0.77809220616E+02 0.  0.
         13    1    3    3    0    0  0.25650941747E+03  0.65393658244E+02 -0.10257049327E+03  0.28389103170E+03  0.00000000000E+00 0. -1.
        -13    1    3    3    0    0  0.48317294557E+03  0.39182262951E+02 -0.90754418918E+02  0.49318121377E+03  0.00000000000E+00 0.  1.
          4    1    6    6  502    0 -0.54436429066E+03 -0.73380688736E+02 -0.72428871485E+03  0.90901669341E+03  0.00000000000E+00 0. -1.
          3    1    5    5  503    0  0.86428721604E+02  0.60903673770E+02  0.20841805382E+02  0.10776623891E+03  0.00000000000E+00 0. -1.
         -4    1    5    5    0  503  0.31413836160E+02 -0.14189348365E+02  0.40662382372E+02  0.53306622942E+02  0.00000000000E+00 0.  1.
         -3    1    6    6    0  502 -0.31316063014E+03 -0.77909557864E+02 -0.35060741834E+03  0.47651342192E+03  0.00000000000E+00 0.  1.
<mgrwt>
<rscale>  0 0.19857747E+04</rscale>
<asrwt>0</asrwt>
<pdfrwt beam="1">  1        2 0.27156863E+00 0.19857747E+04</pdfrwt>
<pdfrwt beam="2">  1       -2 0.85919873E-01 0.19857747E+04</pdfrwt>
<totfact> 0.98647818E+00</totfact>
</mgrwt>
</event>
<event>
12    1  0.1504874E-007  0.1614761E+04  0.7818608E-02  0.8811531E-01
         -2   -1    0    0    0  501 -0.00000000000E+00  0.00000000000E+00  0.41646506518E+03  0.41646506518E+03  0.00000000000E+00 0.  1.
          2   -1    0    0  501    0  0.00000000000E+00 -0.00000000000E+00 -0.15652287008E+04  0.15652287008E+04  0.00000000000E+00 0. -1.
         23    2    1    2    0    0  0.58269077506E+03  0.13045292096E+03 -0.49178356731E+03  0.77868366936E+03  0.89166562813E+02 0.  0.
        254    2    1    2    0    0 -0.58269077506E+03 -0.13045292096E+03 -0.65698006826E+03  0.12030100966E+04  0.81182755462E+03 0.  0.
        -24    2    4    4    0    0 -0.46273831068E+03  0.20863913605E+03 -0.65716416044E+03  0.83423680621E+03  0.80182802427E+02 0.  0.
         24    2    4    4    0    0 -0.11995246438E+03 -0.33909205701E+03  0.18409217723E+00  0.36877329036E+03  0.81373760854E+02 0.  0.
         11    1    3    3    0    0  0.20878987016E+03  0.82575445884E+02 -0.15150300048E+03  0.27085987761E+03  0.00000000000E+00 0.  1.
        -11    1    3    3    0    0  0.37390090490E+03  0.47877475077E+02 -0.34028056683E+03  0.50782379175E+03  0.00000000000E+00 0. -1.
          4    1    6    6  502    0 -0.32986563214E+01 -0.54670412957E+02 -0.25246499316E+02  0.60308547604E+02  0.00000000000E+00 0. -1.
          3    1    5    5  503    0 -0.26011735445E+03  0.93501937023E+02 -0.30159914906E+03  0.40910352849E+03  0.00000000000E+00 0. -1.
         -4    1    5    5    0  503 -0.20262095624E+03  0.11513719903E+03 -0.35556501138E+03  0.42513327772E+03  0.00000000000E+00 0.  1.
         -3    1    6    6    0  502 -0.11665380805E+03 -0.28442164406E+03  0.25430591493E+02  0.30846474276E+03  0.00000000000E+00 0.  1.
<mgrwt>
<rscale>  0 0.16147608E+04</rscale>
<asrwt>0</asrwt>
<pdfrwt beam="1">  1        2 0.24080442E+00 0.16147608E+04</pdfrwt>
<pdfrwt beam="2">  1       -2 0.64071548E-01 0.16147608E+04</pdfrwt>
<totfact> 0.25154073E+01</totfact>
</mgrwt>
</event>
<event>
12    1  0.1504874E-007  0.2255923E+04  0.7818608E-02  0.8495506E-01
         -1   -1    0    0    0  501 -0.00000000000E+00  0.00000000000E+00  0.69949876284E+03  0.69949876284E+03  0.00000000000E+00 0.  1.
          1   -1    0    0  501    0  0.00000000000E+00 -0.00000000000E+00 -0.18188699129E+04  0.18188699129E+04  0.00000000000E+00 0. -1.
         23    2    1    2    0    0  0.43428765812E+03  0.76113453850E+03 -0.80164864940E+02  0.88482766585E+03  0.92531275738E+02 0.  0.
        254    2    1    2    0    0 -0.43428765812E+03 -0.76113453850E+03 -0.10392062851E+04  0.16335410099E+04  0.90585593350E+03 0.  0.
        -24    2    4    4    0    0 -0.17919721933E+03  0.73645264602E+02  0.68375536076E+02  0.22108994780E+03  0.81671798490E+02 0.  0.
         24    2    4    4    0    0 -0.25509043879E+03 -0.83477980310E+03 -0.11075818212E+04  0.14124510621E+04  0.79699815161E+02 0.  0.
         11    1    3    3    0    0  0.13451618763E+03  0.21764680360E+03 -0.64890554640E+02  0.26396120915E+03  0.00000000000E+00 0.  1.
        -11    1    3    3    0    0  0.29977147049E+03  0.54348773489E+03 -0.15274310299E+02  0.62086645670E+03  0.00000000000E+00 0. -1.
          2    1    6    6  502    0 -0.96512186823E+02 -0.26142977020E+03 -0.30056105899E+03  0.40987446509E+03  0.00000000000E+00 0. -1.
          3    1    5    5  503    0 -0.67780063964E+02 -0.90819023233E+01  0.40714865502E+02  0.79588430652E+02  0.00000000000E+00 0. -1.
         -4    1    5    5    0  503 -0.11141715537E+03  0.82727166925E+02  0.27660670574E+02  0.14150151714E+03  0.00000000000E+00 0.  1.
         -1    1    6    6    0  502 -0.15857825196E+03 -0.57335003290E+03 -0.80702076221E+03  0.10025765970E+04  0.00000000000E+00 0.  1.
<mgrwt>
<rscale>  0 0.22559231E+04</rscale>
<asrwt>0</asrwt>
<pdfrwt beam="1">  1        1 0.27982614E+00 0.22559231E+04</pdfrwt>
<pdfrwt beam="2">  1       -1 0.10761519E+00 0.22559231E+04</pdfrwt>
<totfact> 0.28839402E+00</totfact>
</mgrwt>
</event>
<event>
12    1  0.1504874E-007  0.3434120E+04  0.7818608E-02  0.8129582E-01
         -2   -1    0    0    0  501 -0.00000000000E+00  0.00000000000E+00  0.25648283818E+04  0.25648283818E+04  0.00000000000E+00 0.  1.
          2   -1    0    0  501    0  0.00000000000E+00 -0.00000000000E+00 -0.11495100023E+04  0.11495100023E+04  0.00000000000E+00 0. -1.
         23    2    1    2    0    0  0.10413973562E+04  0.10878206788E+04  0.80859773709E+02  0.15108723496E+04  0.91294419711E+02 0.  0.
        254    2    1    2    0    0 -0.10413973562E+04 -0.10878206788E+04  0.13344586058E+04  0.22034660345E+04  0.89812054414E+03 0.  0.
        -24    2    4    4    0    0 -0.40826814849E+03 -0.31238871690E+03  0.10308020489E+04  0.11543799933E+04  0.75965212119E+02 0.  0.
         24    2    4    4    0    0 -0.63312920767E+03 -0.77543196192E+03  0.30365655693E+03  0.10490860412E+04  0.78910684104E+02 0.  0.
         11    1    3    3    0    0  0.63240255766E+03  0.68481045825E+03  0.88890199554E+01  0.93218955870E+03  0.00000000000E+00 0.  1.
        -11    1    3    3    0    0  0.40899479851E+03  0.40301022056E+03  0.71970753753E+02  0.57868279090E+03  0.00000000000E+00 0. -1.
          4    1    6    6  502    0 -0.30289670496E+03 -0.41519119022E+03  0.12657760992E+03  0.52929389723E+03  0.00000000000E+00 0. -1.
          1    1    5    5  503    0 -0.33428379818E+03 -0.23883078240E+03  0.75563424107E+03  0.86009819592E+03  0.00000000000E+00 0. -1.
         -4    1    5    5    0  503 -0.73984350314E+02 -0.73557934494E+02  0.27516780778E+03  0.29428179736E+03  0.00000000000E+00 0.  1.
         -3    1    6    6    0  502 -0.33023250271E+03 -0.36024077171E+03  0.17707894701E+03  0.51979214396E+03  0.00000000000E+00 0.  1.
<mgrwt>
<rscale>  0 0.34341205E+04</rscale>
<asrwt>0</asrwt>
<pdfrwt beam="1">  1        2 0.17684769E+00 0.34341205E+04</pdfrwt>
<pdfrwt beam="2">  1       -2 0.39458898E+00 0.34341205E+04</pdfrwt>
<totfact> 0.13502762E-01</totfact>
</mgrwt>
</event>
<event>
12    1  0.1504874E-007  0.1189616E+04  0.7818608E-02  0.9121995E-01
          2   -1    0    0  501    0  0.00000000000E+00  0.00000000000E+00  0.11623653496E+04  0.11623653496E+04  0.00000000000E+00 0. -1.
         -2   -1    0    0    0  501 -0.00000000000E+00 -0.00000000000E+00 -0.30437634005E+03  0.30437634005E+03  0.00000000000E+00 0.  1.
         23    2    1    2    0    0  0.59556779773E+02 -0.75052248103E+02  0.44293950004E+03  0.46292136220E+03  0.94450711604E+02 0.  0.
        254    2    1    2    0    0 -0.59556779773E+02  0.75052248103E+02  0.41504950950E+03  0.10038203274E+04  0.90896056267E+03 0.  0.
        -24    2    4    4    0    0  0.26949591606E+03  0.37009036275E+03  0.20858097470E+03  0.50941979214E+03  0.80047337483E+02 0.  0.
         24    2    4    4    0    0 -0.32905269584E+03 -0.29503811465E+03  0.20646853481E+03  0.49440053531E+03  0.80495140954E+02 0.  0.
         11    1    3    3    0    0 -0.23614722498E+02 -0.28881158197E+02  0.90952216428E+02  0.98306063347E+02  0.00000000000E+00 0.  1.
        -11    1    3    3    0    0  0.83171502272E+02 -0.46171089906E+02  0.35198728361E+03  0.36461529885E+03  0.00000000000E+00 0. -1.
          4    1    6    6  502    0 -0.27586640571E+02 -0.63048479790E+02  0.30500531024E+02  0.75275599862E+02  0.00000000000E+00 0. -1.
          3    1    5    5  503    0  0.83159651581E+01  0.53776680646E+02  0.28475300266E+02  0.61416035227E+02  0.00000000000E+00 0. -1.
         -4    1    5    5    0  503  0.26117995091E+03  0.31631368210E+03  0.18010567443E+03  0.44800375691E+03  0.00000000000E+00 0.  1.
         -3    1    6    6    0  502 -0.30146605527E+03 -0.23198963486E+03  0.17596800378E+03  0.41912493545E+03  0.00000000000E+00 0.  1.
<mgrwt>
<rscale>  0 0.11896159E+04</rscale>
<asrwt>0</asrwt>
<pdfrwt beam="1">  1        2 0.17882544E+00 0.11896159E+04</pdfrwt>
<pdfrwt beam="2">  1       -2 0.46827130E-01 0.11896159E+04</pdfrwt>
<totfact> 0.85146321E+01</totfact>
</mgrwt>
</event>
<event>
12    1  0.1504874E-007  0.1495504E+04  0.7818608E-02  0.8887448E-01
          1   -1    0    0  501    0  0.00000000000E+00  0.00000000000E+00  0.22717834850E+04  0.22717834850E+04  0.00000000000E+00 0. -1.
         -1   -1    0    0    0  501 -0.00000000000E+00 -0.00000000000E+00 -0.24612071950E+03  0.24612071950E+03  0.00000000000E+00 0.  1.
         23    2    1    2    0    0  0.14124079013E+02 -0.40754064124E+03  0.10711680457E+04  0.11497180484E+04  0.90342374765E+02 0.  0.
        254    2    1    2    0    0 -0.14124079013E+02  0.40754064124E+03  0.95449471977E+03  0.13681861561E+04  0.89139459493E+03 0.  0.
        -24    2    4    4    0    0 -0.30552144873E+03 -0.78783290612E+02  0.63310382954E+03  0.71188795935E+03  0.80086485595E+02 0.  0.
         24    2    4    4    0    0  0.29139736971E+03  0.48632393185E+03  0.32139089024E+03  0.65629819678E+03  0.77535959411E+02 0.  0.
         13    1    3    3    0    0  0.32778435074E+01 -0.20203470837E+03  0.65482653881E+03  0.68529304941E+03  0.00000000000E+00 0. -1.
        -13    1    3    3    0    0  0.10846235506E+02 -0.20550593287E+03  0.41634150692E+03  0.46442499895E+03  0.00000000000E+00 0.  1.
          2    1    6    6  502    0  0.24651646808E+02  0.18458031516E+02  0.37071612055E+01  0.31018472915E+02  0.00000000000E+00 0. -1.
          1    1    5    5  503    0 -0.90086524844E+02 -0.60797142422E+02  0.19093160080E+03  0.21969695189E+03  0.00000000000E+00 0. -1.
         -2    1    5    5    0  503 -0.21543492388E+03 -0.17986148189E+02  0.44217222873E+03  0.49219100745E+03  0.00000000000E+00 0.  1.
         -1    1    6    6    0  502  0.26674572291E+03  0.46786590034E+03  0.31768372903E+03  0.62527972387E+03  0.00000000000E+00 0.  1.
<mgrwt>
<rscale>  0 0.14955039E+04</rscale>
<asrwt>0</asrwt>
<pdfrwt beam="1">  1        1 0.34950514E+00 0.14955039E+04</pdfrwt>
<pdfrwt beam="2">  1       -1 0.37864728E-01 0.14955039E+04</pdfrwt>
<totfact> 0.12696631E+01</totfact>
</mgrwt>
</event>
<event>
12    1  0.1504874E-007  0.1845956E+04  0.7818608E-02  0.8682235E-01
          2   -1    0    0  501    0  0.00000000000E+00  0.00000000000E+00  0.33378744569E+03  0.33378744569E+03  0.00000000000E+00 0.  1.
         -2   -1    0    0    0  501 -0.00000000000E+00 -0.00000000000E+00 -0.25521889982E+04  0.25521889982E+04  0.00000000000E+00 0. -1.
         23    2    1    2    0    0  0.84176334271E+02 -0.26362308979E+03 -0.18607586055E+04  0.18835228713E+04  0.93021665579E+02 0.  0.
        254    2    1    2    0    0 -0.84176334271E+02  0.26362308979E+03 -0.35764294702E+03  0.10024535725E+04  0.89466300852E+03 0.  0.
        -24    2    4    4    0    0  0.26823259426E+03 -0.14049554595E+03 -0.33505029589E+03  0.45826821566E+03  0.77867410751E+02 0.  0.
         24    2    4    4    0    0 -0.35240892853E+03  0.40411863575E+03 -0.22592651132E+02  0.54418535687E+03  0.90129629324E+02 0.  0.
         13    1    3    3    0    0  0.75159656710E+02 -0.25866375466E+03 -0.15964999012E+04  0.16190638797E+04  0.00000000000E+00 0. -1.
        -13    1    3    3    0    0  0.90166775608E+01 -0.49593351361E+01 -0.26425870423E+03  0.26445899161E+03  0.00000000000E+00 0.  1.
          2    1    6    6  502    0 -0.22170811490E+03  0.25786451460E+03 -0.57674556163E+02  0.34492745691E+03  0.00000000000E+00 0. -1.
          1    1    5    5  503    0  0.15182487298E+03 -0.65914859564E+02 -0.23575213454E+03  0.28805317167E+03  0.00000000000E+00 0. -1.
         -2    1    5    5    0  503  0.11640772128E+03 -0.74580686390E+02 -0.99298161345E+02  0.17021504400E+03  0.00000000000E+00 0.  1.
         -1    1    6    6    0  502 -0.13070081363E+03  0.14625412114E+03  0.35081905030E+02  0.19925789996E+03  0.00000000000E+00 0.  1.
<mgrwt>
<rscale>  0 0.18459563E+04</rscale>
<asrwt>0</asrwt>
<pdfrwt beam="1">  1        2 0.51351913E-01 0.18459563E+04</pdfrwt>
<pdfrwt beam="2">  1       -2 0.39264448E+00 0.18459563E+04</pdfrwt>
<totfact> 0.76309970E-01</totfact>
</mgrwt>
</event>
<event>
12    1  0.1504874E-007  0.1293859E+04  0.7818608E-02  0.9034449E-01
          2   -1    0    0  501    0  0.00000000000E+00  0.00000000000E+00  0.18879309692E+04  0.18879309692E+04  0.00000000000E+00 0. -1.
         -2   -1    0    0    0  501 -0.00000000000E+00 -0.00000000000E+00 -0.22168065845E+03  0.22168065845E+03  0.00000000000E+00 0.  1.
         23    2    1    2    0    0 -0.12590695988E+03 -0.29443495367E+03  0.41398258606E+03  0.53379201489E+03  0.10491820203E+03 0.  0.
        254    2    1    2    0    0  0.12590695988E+03  0.29443495367E+03  0.12522677247E+04  0.15758196127E+04  0.90138143599E+03 0.  0.
        -24    2    4    4    0    0  0.12329581930E+03  0.21784698153E+03 -0.51933214852E+02  0.26642471252E+03  0.75006014554E+02 0.  0.
         24    2    4    4    0    0  0.26111405713E+01  0.76587972141E+02  0.13042009395E+04  0.13093949002E+04  0.87763195729E+02 0.  0.
         13    1    3    3    0    0  0.17123126138E+02 -0.24074614469E+02  0.23323970447E+02  0.37640352124E+02  0.00000000000E+00 0. -1.
        -13    1    3    3    0    0 -0.14303008601E+03 -0.27036033920E+03  0.39065861561E+03  0.49615166277E+03  0.00000000000E+00 0.  1.
          4    1    6    6  502    0 -0.21824996867E+02  0.24913328045E+02  0.14290501646E+03  0.14669304051E+03  0.00000000000E+00 0. -1.
          3    1    5    5  503    0  0.36252726348E+02  0.12712760490E+03 -0.52059162965E+01  0.13229810906E+03  0.00000000000E+00 0. -1.
         -4    1    5    5    0  503  0.87043092956E+02  0.90719376624E+02 -0.46727298555E+02  0.13412660346E+03  0.00000000000E+00 0.  1.
         -3    1    6    6    0  502  0.24436137439E+02  0.51674644096E+02  0.11612959231E+04  0.11627018597E+04  0.00000000000E+00 0.  1.
<mgrwt>
<rscale>  0 0.12938590E+04</rscale>
<asrwt>0</asrwt>
<pdfrwt beam="1">  1        2 0.29045091E+00 0.12938590E+04</pdfrwt>
<pdfrwt beam="2">  1       -2 0.34104718E-01 0.12938590E+04</pdfrwt>
<totfact> 0.60895908E+01</totfact>
</mgrwt>
</event>
<event>
12    1  0.1810270E-007  0.1596056E+04  0.7818608E-02  0.8822975E-01
         -1   -1    0    0    0  501 -0.00000000000E+00  0.00000000000E+00  0.55485400086E+03  0.55485400086E+03  0.00000000000E+00 0.  1.
          1   -1    0    0  501    0  0.00000000000E+00 -0.00000000000E+00 -0.11477772895E+04  0.11477772895E+04  0.00000000000E+00 0. -1.
         23    2    1    2    0    0  0.13849044098E+03  0.35083813525E+03 -0.62723513903E+03  0.73726165378E+03  0.88678222310E+02 0.  0.
        254    2    1    2    0    0 -0.13849044098E+03 -0.35083813525E+03  0.34311850355E+02  0.96536963662E+03  0.88797197751E+03 0.  0.
        -24    2    4    4    0    0 -0.13919404738E+03 -0.53186446607E+02  0.43107733016E+03  0.46303891627E+03  0.79834782376E+02 0.  0.
         24    2    4    4    0    0  0.70360639955E+00 -0.29765168864E+03 -0.39676547980E+03  0.50233072035E+03  0.79475051624E+02 0.  0.
         11    1    3    3    0    0  0.88121956630E+02  0.22368868496E+03 -0.31400066269E+03  0.39547253153E+03  0.00000000000E+00 0.  1.
        -11    1    3    3    0    0  0.50368484348E+02  0.12714945029E+03 -0.31323447634E+03  0.34178912226E+03  0.00000000000E+00 0. -1.
          4    1    6    6  502    0  0.56940034388E+01 -0.20659606849E+02 -0.41726088487E+01  0.21832354314E+02  0.00000000000E+00 0. -1.
          3    1    5    5  503    0  0.57067974044E+01 -0.21983984010E+01  0.80445751111E+00  0.61682772337E+01  0.00000000000E+00 0. -1.
         -4    1    5    5    0  503 -0.14490084478E+03 -0.50988048206E+02  0.43027287264E+03  0.45687063903E+03  0.00000000000E+00 0.  1.
         -3    1    6    6    0  502 -0.49903970392E+01 -0.27699208179E+03 -0.39259287095E+03  0.48049836603E+03  0.00000000000E+00 0.  1.
<mgrwt>
<rscale>  0 0.15960562E+04</rscale>
<asrwt>0</asrwt>
<pdfrwt beam="1">  1        1 0.17658112E+00 0.15960562E+04</pdfrwt>
<pdfrwt beam="2">  1       -1 0.85362156E-01 0.15960562E+04</pdfrwt>
<totfact> 0.15205289E+01</totfact>
</mgrwt>
</event>
<event>
12    1  0.1504874E-007  0.3417461E+04  0.7818608E-02  0.8133634E-01
          1   -1    0    0  501    0  0.00000000000E+00  0.00000000000E+00  0.12458074299E+04  0.12458074299E+04  0.00000000000E+00 0. -1.
         -1   -1    0    0    0  501 -0.00000000000E+00 -0.00000000000E+00 -0.23436680540E+04  0.23436680540E+04  0.00000000000E+00 0.  1.
         23    2    1    2    0    0  0.10544863926E+04 -0.37101825510E+03  0.67775525216E+03  0.13106038682E+04  0.93457046942E+02 0.  0.
        254    2    1    2    0    0 -0.10544863926E+04  0.37101825510E+03 -0.17756158763E+04  0.22788716157E+04  0.88929635271E+03 0.  0.
        -24    2    4    4    0    0 -0.89681587736E+03 -0.34948425715E+02 -0.79106635247E+03  0.11993176382E+04  0.84123201654E+02 0.  0.
         24    2    4    4    0    0 -0.15767051525E+03  0.40596668082E+03 -0.98454952385E+03  0.10795539775E+04  0.80187830061E+02 0.  0.
         13    1    3    3    0    0  0.61557585015E+03 -0.21340694271E+03  0.34089004914E+03  0.73531093837E+03  0.00000000000E+00 0.  1.
        -13    1    3    3    0    0  0.43891054247E+03 -0.15761131239E+03  0.33686520302E+03  0.57529292981E+03  0.00000000000E+00 0. -1.
          4    1    6    6  502    0 -0.83297590814E+02  0.11774941478E+03 -0.28913465415E+03  0.32311338806E+03  0.00000000000E+00 0. -1.
          1    1    5    5  503    0 -0.43074240512E+03 -0.56308816970E+02 -0.40058277091E+03  0.59091137981E+03  0.00000000000E+00 0. -1.
         -2    1    5    5    0  503 -0.46607347224E+03  0.21360391254E+02 -0.39048358157E+03  0.60840625844E+03  0.00000000000E+00 0.  1.
         -3    1    6    6    0  502 -0.74372924441E+02  0.28821726603E+03 -0.69541486970E+03  0.75644058943E+03  0.00000000000E+00 0.  1.
<mgrwt>
<rscale>  0 0.34174605E+04</rscale>
<asrwt>0</asrwt>
<pdfrwt beam="1">  1        1 0.19166268E+00 0.34174605E+04</pdfrwt>
<pdfrwt beam="2">  1       -1 0.36056431E+00 0.34174605E+04</pdfrwt>
<totfact> 0.10737700E-01</totfact>
</mgrwt>
</event>
<event>
12    1  0.1504874E-007  0.1603065E+04  0.7818608E-02  0.8818667E-01
          1   -1    0    0  501    0  0.00000000000E+00  0.00000000000E+00  0.21239225344E+04  0.21239225344E+04  0.00000000000E+00 0. -1.
         -1   -1    0    0    0  501 -0.00000000000E+00 -0.00000000000E+00 -0.30248476429E+03  0.30248476429E+03  0.00000000000E+00 0.  1.
         23    2    1    2    0    0  0.22935943663E+03  0.44782305654E+03  0.10276827154E+04  0.11478689221E+04  0.91214349170E+02 0.  0.
        254    2    1    2    0    0 -0.22935943663E+03 -0.44782305654E+03  0.79375505465E+03  0.12785383766E+04  0.86686910922E+03 0.  0.
        -24    2    4    4    0    0 -0.11710260442E+03  0.21700292576E+03  0.38147680345E+02  0.26268199498E+03  0.82117569505E+02 0.  0.
         24    2    4    4    0    0 -0.11225683221E+03 -0.66482598230E+03  0.75560737430E+03  0.10158563816E+04  0.80165459217E+02 0.  0.
         13    1    3    3    0    0  0.11547339147E+03  0.29695658522E+03  0.57646439082E+03  0.65865659606E+03  0.00000000000E+00 0. -1.
        -13    1    3    3    0    0  0.11388604516E+03  0.15086647132E+03  0.45121832461E+03  0.48921232600E+03  0.00000000000E+00 0.  1.
          4    1    6    6  502    0 -0.10624679140E+03 -0.42070551979E+03  0.45844991131E+03  0.63123516715E+03  0.00000000000E+00 0. -1.
          3    1    5    5  503    0 -0.37050453924E+02  0.15291233216E+03  0.21810894154E+02  0.15884153288E+03  0.00000000000E+00 0. -1.
         -4    1    5    5    0  503 -0.80052150498E+02  0.64090593598E+02  0.16336786192E+02  0.10384046210E+03  0.00000000000E+00 0.  1.
         -3    1    6    6    0  502 -0.60100408087E+01 -0.24412046251E+03  0.29715746299E+03  0.38462121447E+03  0.00000000000E+00 0.  1.
<mgrwt>
<rscale>  0 0.16030648E+04</rscale>
<asrwt>0</asrwt>
<pdfrwt beam="1">  1        1 0.32675730E+00 0.16030648E+04</pdfrwt>
<pdfrwt beam="2">  1       -1 0.46536119E-01 0.16030648E+04</pdfrwt>
<totfact> 0.10836291E+01</totfact>
</mgrwt>
</event>
<event>
12    1  0.1504874E-007  0.1723230E+04  0.7818608E-02  0.8748225E-01
          1   -1    0    0  501    0  0.00000000000E+00  0.00000000000E+00  0.56728647106E+03  0.56728647106E+03  0.00000000000E+00 0. -1.
         -1   -1    0    0    0  501 -0.00000000000E+00 -0.00000000000E+00 -0.13086510190E+04  0.13086510190E+04  0.00000000000E+00 0.  1.
         23    2    1    2    0    0 -0.74674039333E+02  0.22435743247E+03  0.35818810965E+03  0.43955009717E+03  0.94831937502E+02 0.  0.
        254    2    1    2    0    0  0.74674039333E+02 -0.22435743247E+03 -0.10995526576E+04  0.14363873929E+04  0.89346529087E+03 0.  0.
        -24    2    4    4    0    0  0.41415796733E+03  0.11250361705E+03 -0.57617569563E+03  0.72293445353E+03  0.80448157895E+02 0.  0.
         24    2    4    4    0    0 -0.33948392800E+03 -0.33686104951E+03 -0.52337696197E+03  0.71345293937E+03  0.79793159623E+02 0.  0.
         13    1    3    3    0    0 -0.25249496003E+02  0.19603989883E+03  0.28411411173E+03  0.34610693068E+03  0.00000000000E+00 0. -1.
        -13    1    3    3    0    0 -0.49424543329E+02  0.28317533633E+02  0.74073997922E+02  0.93443166484E+02  0.00000000000E+00 0.  1.
          2    1    6    6  502    0 -0.28274100610E+03 -0.31040586037E+03 -0.47743774985E+03  0.63579955935E+03  0.00000000000E+00 0. -1.
          1    1    5    5  503    0  0.12735366204E+03  0.65379979824E+02 -0.23011999574E+03  0.27101422368E+03  0.00000000000E+00 0. -1.
         -2    1    5    5    0  503  0.28680430530E+03  0.47123637223E+02 -0.34605569989E+03  0.45192022985E+03  0.00000000000E+00 0.  1.
         -1    1    6    6    0  502 -0.56742921904E+02 -0.26455189138E+02 -0.45939212118E+02  0.77653380020E+02  0.00000000000E+00 0.  1.
<mgrwt>
<rscale>  0 0.17232295E+04</rscale>
<asrwt>0</asrwt>
<pdfrwt beam="1">  1        1 0.87274842E-01 0.17232295E+04</pdfrwt>
<pdfrwt beam="2">  1       -1 0.20133092E+00 0.17232295E+04</pdfrwt>
<totfact> 0.51944424E+00</totfact>
</mgrwt>
</event>
<event>
12    1  0.1504874E-007  0.2232188E+04  0.7818608E-02  0.8505149E-01
          2   -1    0    0  501    0  0.00000000000E+00  0.00000000000E+00  0.20271077354E+04  0.20271077354E+04  0.00000000000E+00 0. -1.
         -2   -1    0    0    0  501 -0.00000000000E+00 -0.00000000000E+00 -0.61450417498E+03  0.61450417498E+03  0.00000000000E+00 0.  1.
         23    2    1    2    0    0 -0.18451974865E+03  0.72695123401E+03 -0.32296557597E+02  0.75810538773E+03  0.10571223678E+03 0.  0.
        254    2    1    2    0    0  0.18451974865E+03 -0.72695123401E+03  0.14449001180E+04  0.18835065227E+04  0.94728814812E+03 0.  0.
        -24    2    4    4    0    0  0.44037092183E+03 -0.17325381871E+02  0.49515925077E+03  0.66799956024E+03  0.82547024212E+02 0.  0.
         24    2    4    4    0    0 -0.25585117319E+03 -0.70962585214E+03  0.94974086724E+03  0.12155069624E+04  0.80129819133E+02 0.  0.
         11    1    3    3    0    0 -0.19039132381E+03  0.59823177077E+03 -0.13952390148E+02  0.62795284610E+03  0.00000000000E+00 0. -1.
        -11    1    3    3    0    0  0.58715751679E+01  0.12871946324E+03 -0.18344167450E+02  0.13015254163E+03  0.00000000000E+00 0.  1.
          2    1    6    6  502    0 -0.63942749179E+02 -0.10590431622E+03  0.12916179845E+03  0.17884957240E+03  0.00000000000E+00 0. -1.
          3    1    5    5  503    0  0.12515892929E+03  0.28209087485E+02  0.11746249924E+03  0.17394812136E+03  0.00000000000E+00 0. -1.
         -4    1    5    5    0  503  0.31521199254E+03 -0.45534469356E+02  0.37769675153E+03  0.49405143888E+03  0.00000000000E+00 0.  1.
         -1    1    6    6    0  502 -0.19190842401E+03 -0.60372153592E+03  0.82057906879E+03  0.10366573900E+04  0.00000000000E+00 0.  1.
<mgrwt>
<rscale>  0 0.22321883E+04</rscale>
<asrwt>0</asrwt>
<pdfrwt beam="1">  1        2 0.31186273E+00 0.22321883E+04</pdfrwt>
<pdfrwt beam="2">  1       -2 0.94539105E-01 0.22321883E+04</pdfrwt>
<totfact> 0.55449417E+00</totfact>
</mgrwt>
</event>
<event>
12    1  0.1504874E-007  0.1382148E+04  0.7818608E-02  0.8966843E-01
         -2   -1    0    0    0  501 -0.00000000000E+00  0.00000000000E+00  0.41806568688E+03  0.41806568688E+03  0.00000000000E+00 0.  1.
          2   -1    0    0  501    0  0.00000000000E+00 -0.00000000000E+00 -0.11423649870E+04  0.11423649870E+04  0.00000000000E+00 0. -1.
         23    2    1    2    0    0  0.21827559882E+03 -0.33651303205E+03 -0.37752428778E+03  0.55851504218E+03  0.92353704306E+02 0.  0.
        254    2    1    2    0    0 -0.21827559882E+03  0.33651303205E+03 -0.34677501238E+03  0.10019156317E+04  0.85011573691E+03 0.  0.
        -24    2    4    4    0    0  0.28355190173E+03  0.31435597299E+03 -0.18138872815E+03  0.46730010727E+03  0.79032656676E+02 0.  0.
         24    2    4    4    0    0 -0.50182750055E+03  0.22157059062E+02 -0.16538628423E+03  0.53461552448E+03  0.78354070901E+02 0.  0.
         11    1    3    3    0    0 -0.32390066644E+01  0.30609088961E+01 -0.11365360133E+02  0.12207855602E+02  0.00000000000E+00 0.  1.
        -11    1    3    3    0    0  0.22151460548E+03 -0.33957394095E+03 -0.36615892764E+03  0.54630718658E+03  0.00000000000E+00 0. -1.
          2    1    6    6  502    0 -0.23055124553E+03 -0.13099917753E+01 -0.36734526920E+02  0.23346309850E+03  0.00000000000E+00 0. -1.
          1    1    5    5  503    0  0.25427778974E+03  0.29663217261E+03 -0.18609308741E+03  0.43275683399E+03  0.00000000000E+00 0. -1.
         -2    1    5    5    0  503  0.29274111987E+02  0.17723800379E+02  0.47043592580E+01  0.34543273275E+02  0.00000000000E+00 0.  1.
         -1    1    6    6    0  502 -0.27127625502E+03  0.23467050838E+02 -0.12865175731E+03  0.30115242597E+03  0.00000000000E+00 0.  1.
<mgrwt>
<rscale>  0 0.13821485E+04</rscale>
<asrwt>0</asrwt>
<pdfrwt beam="1">  1        2 0.17574846E+00 0.13821485E+04</pdfrwt>
<pdfrwt beam="2">  1       -2 0.64317799E-01 0.13821485E+04</pdfrwt>
<totfact> 0.44665030E+01</totfact>
</mgrwt>
</event>
<event>
12    1  0.1504874E-007  0.1968563E+04  0.7818608E-02  0.8621461E-01
         -2   -1    0    0    0  501 -0.00000000000E+00  0.00000000000E+00  0.10876937366E+04  0.10876937366E+04  0.00000000000E+00 0.  1.
          2   -1    0    0  501    0  0.00000000000E+00 -0.00000000000E+00 -0.89070138984E+03  0.89070138984E+03  0.00000000000E+00 0. -1.
         23    2    1    2    0    0  0.68091182164E+03 -0.23429032125E+03  0.18946059877E+03  0.74910298543E+03  0.82018905173E+02 0.  0.
        254    2    1    2    0    0 -0.68091182164E+03  0.23429032125E+03  0.75317479545E+01  0.12292921410E+04  0.99627786141E+03 0.  0.
        -24    2    4    4    0    0 -0.42951483763E+03  0.30301776763E+03  0.45914574902E+03  0.70236584752E+03  0.78741359359E+02 0.  0.
         24    2    4    4    0    0 -0.25139698401E+03 -0.68727446376E+02 -0.45161400107E+03  0.52692629345E+03  0.75975044019E+02 0.  0.
         11    1    3    3    0    0  0.32408129613E+03 -0.10111355944E+03  0.48273719907E+02  0.34290376265E+03  0.00000000000E+00 0.  1.
        -11    1    3    3    0    0  0.35683052551E+03 -0.13317676181E+03  0.14118687886E+03  0.40619922278E+03  0.00000000000E+00 0. -1.
          4    1    6    6  502    0 -0.92980037164E+02 -0.36458074479E+02 -0.10753927825E+03  0.14676230740E+03  0.00000000000E+00 0. -1.
          1    1    5    5  503    0 -0.51293003834E+02  0.85565141339E+01  0.39681439721E+02  0.65412558693E+02  0.00000000000E+00 0. -1.
         -2    1    5    5    0  503 -0.37822183380E+03  0.29446125349E+03  0.41946430930E+03  0.63695328883E+03  0.00000000000E+00 0.  1.
         -3    1    6    6    0  502 -0.15841694685E+03 -0.32269371897E+02 -0.34407472281E+03  0.38016398605E+03  0.00000000000E+00 0.  1.
<mgrwt>
<rscale>  0 0.19685633E+04</rscale>
<asrwt>0</asrwt>
<pdfrwt beam="1">  1        2 0.13703098E+00 0.19685633E+04</pdfrwt>
<pdfrwt beam="2">  1       -2 0.16733750E+00 0.19685633E+04</pdfrwt>
<totfact> 0.61689258E+00</totfact>
</mgrwt>
</event>
<event>
12    1  0.1504874E-007  0.2981227E+04  0.7818608E-02  0.8249112E-01
          1   -1    0    0  501    0  0.00000000000E+00  0.00000000000E+00  0.36945211133E+04  0.36945211133E+04  0.00000000000E+00 0. -1.
         -1   -1    0    0    0  501 -0.00000000000E+00 -0.00000000000E+00 -0.60141180899E+03  0.60141180899E+03  0.00000000000E+00 0.  1.
         23    2    1    2    0    0 -0.10822069451E+03 -0.11261293804E+04  0.24768102959E+04  0.27244481789E+04  0.90274788761E+02 0.  0.
        254    2    1    2    0    0  0.10822069451E+03  0.11261293804E+04  0.61629900836E+03  0.15714847434E+04  0.89992262494E+03 0.  0.
        -24    2    4    4    0    0  0.42344320164E+03  0.36689710731E+03  0.44589529968E+02  0.56696661210E+03  0.74466641407E+02 0.  0.
         24    2    4    4    0    0 -0.31522250712E+03  0.75923227304E+03  0.57170947839E+03  0.10045181313E+04  0.80037959252E+02 0.  0.
         11    1    3    3    0    0 -0.93556036879E+02 -0.10888186034E+04  0.23549755392E+04  0.25961872955E+04  0.00000000000E+00 0. -1.
        -11    1    3    3    0    0 -0.14664657635E+02 -0.37310776938E+02  0.12183475672E+03  0.12826088337E+03  0.00000000000E+00 0.  1.
          4    1    6    6  502    0 -0.41217139773E+02  0.12369408663E+03  0.12607493760E+03  0.18136694729E+03  0.00000000000E+00 0. -1.
          1    1    5    5  503    0  0.38965238756E+02  0.31004941325E+02  0.25806415598E+02  0.56085357304E+02  0.00000000000E+00 0. -1.
         -2    1    5    5    0  503  0.38447796288E+03  0.33589216599E+03  0.18783114370E+02  0.51088125479E+03  0.00000000000E+00 0.  1.
         -3    1    6    6    0  502 -0.27400536735E+03  0.63553818642E+03  0.44563454079E+03  0.82315118397E+03  0.00000000000E+00 0.  1.
<mgrwt>
<rscale>  0 0.29812270E+04</rscale>
<asrwt>0</asrwt>
<pdfrwt beam="1">  1        1 0.56838785E+00 0.29812270E+04</pdfrwt>
<pdfrwt beam="2">  1       -1 0.92524896E-01 0.29812270E+04</pdfrwt>
<totfact> 0.16867384E-01</totfact>
</mgrwt>
</event>
<event>
12    1  0.1504874E-007  0.1305513E+04  0.7818608E-02  0.9025205E-01
          1   -1    0    0  501    0  0.00000000000E+00  0.00000000000E+00  0.97959693463E+03  0.97959693463E+03  0.00000000000E+00 0. -1.
         -1   -1    0    0    0  501 -0.00000000000E+00 -0.00000000000E+00 -0.43496535648E+03  0.43496535648E+03  0.00000000000E+00 0.  1.
         23    2    1    2    0    0 -0.34935573862E+02  0.23572546884E+03  0.34587022821E+03  0.42997772116E+03  0.92019753055E+02 0.  0.
        254    2    1    2    0    0  0.34935573862E+02 -0.23572546884E+03  0.19876134994E+03  0.98458456995E+03  0.93440553839E+03 0.  0.
        -24    2    4    4    0    0  0.29204689758E+03  0.12966195319E+03  0.37314363289E+03  0.49785744699E+03  0.80760474637E+02 0.  0.
         24    2    4    4    0    0 -0.25711132372E+03 -0.36538742204E+03 -0.17438228295E+03  0.48672712295E+03  0.82945226758E+02 0.  0.
         13    1    3    3    0    0  0.15199253314E+01  0.52289697589E+02  0.15134236171E+03  0.16012817708E+03  0.00000000000E+00 0.  1.
        -13    1    3    3    0    0 -0.36455499193E+02  0.18343577125E+03  0.19452786650E+03  0.26984954408E+03  0.00000000000E+00 0. -1.
          4    1    6    6  502    0 -0.24785252791E+03 -0.30784565914E+03 -0.16205795222E+03  0.42715641786E+03  0.00000000000E+00 0. -1.
          1    1    5    5  503    0  0.27303050437E+03  0.12375721734E+03  0.37222302544E+03  0.47792414234E+03  0.00000000000E+00 0. -1.
         -2    1    5    5    0  503  0.19016393214E+02  0.59047358535E+01  0.92060744970E+00  0.19933304654E+02  0.00000000000E+00 0.  1.
         -3    1    6    6    0  502 -0.92587958112E+01 -0.57541762897E+02 -0.12324330738E+02  0.59570705093E+02  0.00000000000E+00 0.  1.
<mgrwt>
<rscale>  0 0.13055125E+04</rscale>
<asrwt>0</asrwt>
<pdfrwt beam="1">  1        1 0.15070722E+00 0.13055125E+04</pdfrwt>
<pdfrwt beam="2">  1       -1 0.66917748E-01 0.13055125E+04</pdfrwt>
<totfact> 0.34889558E+01</totfact>
</mgrwt>
</event>
<event>
12    1  0.1504874E-007  0.1870604E+04  0.7818608E-02  0.8669629E-01
         -1   -1    0    0    0  501 -0.00000000000E+00  0.00000000000E+00  0.10177909694E+04  0.10177909694E+04  0.00000000000E+00 0.  1.
          1   -1    0    0  501    0  0.00000000000E+00 -0.00000000000E+00 -0.85949862685E+03  0.85949862685E+03  0.00000000000E+00 0. -1.
         23    2    1    2    0    0 -0.39901503975E+03  0.39724513985E+02 -0.52989777965E+03  0.67077546802E+03  0.91416807332E+02 0.  0.
        254    2    1    2    0    0  0.39901503975E+03 -0.39724513985E+02  0.68819012222E+03  0.12065141282E+04  0.90624481150E+03 0.  0.
        -24    2    4    4    0    0  0.69878351213E+02  0.11842580182E+03 -0.19269609797E+03  0.24879119885E+03  0.76535089638E+02 0.  0.
         24    2    4    4    0    0  0.32913668854E+03 -0.15815031580E+03  0.88088622019E+03  0.95772292939E+03  0.89051639146E+02 0.  0.
         13    1    3    3    0    0 -0.64937315281E+02 -0.22671277024E+01 -0.39922552874E+02  0.76261425452E+02  0.00000000000E+00 0.  1.
        -13    1    3    3    0    0 -0.33407772447E+03  0.41991641687E+02 -0.48997522678E+03  0.59451404257E+03  0.00000000000E+00 0. -1.
          2    1    6    6  502    0  0.42933694707E+00 -0.13699694050E+02  0.63378613023E+02  0.64843770217E+02  0.00000000000E+00 0. -1.
          1    1    5    5  503    0  0.47378705976E+02  0.85652982358E+02 -0.71428974572E+02  0.12117455828E+03  0.00000000000E+00 0. -1.
         -2    1    5    5    0  503  0.22499645237E+02  0.32772819460E+02 -0.12126712340E+03  0.12761664056E+03  0.00000000000E+00 0.  1.
         -1    1    6    6    0  502  0.32870735159E+03 -0.14445062175E+03  0.81750760717E+03  0.89287915917E+03  0.00000000000E+00 0.  1.
<mgrwt>
<rscale>  0 0.18706041E+04</rscale>
<asrwt>0</asrwt>
<pdfrwt beam="1">  1        1 0.13223056E+00 0.18706041E+04</pdfrwt>
<pdfrwt beam="2">  1       -1 0.15658323E+00 0.18706041E+04</pdfrwt>
<totfact> 0.57230581E+00</totfact>
</mgrwt>
</event>
<event>
12    1  0.1504874E-007  0.1840214E+04  0.7818608E-02  0.8685202E-01
          1   -1    0    0  501    0  0.00000000000E+00  0.00000000000E+00  0.66546772475E+03  0.66546772475E+03  0.00000000000E+00 0. -1.
         -1   -1    0    0    0  501 -0.00000000000E+00 -0.00000000000E+00 -0.12721829751E+04  0.12721829751E+04  0.00000000000E+00 0.  1.
         23    2    1    2    0    0  0.59603131547E+03  0.26159893625E+03 -0.22655376841E+02  0.65790846929E+03  0.92967496471E+02 0.  0.
        254    2    1    2    0    0 -0.59603131547E+03 -0.26159893625E+03 -0.58405987354E+03  0.12797422306E+04  0.93430557551E+03 0.  0.
        -24    2    4    4    0    0 -0.44559444202E+03  0.20383601783E+03 -0.60636631928E+03  0.78344831263E+03  0.77508815578E+02 0.  0.
         24    2    4    4    0    0 -0.15043687345E+03 -0.46543495408E+03  0.22306445735E+02  0.49629391796E+03  0.80926671218E+02 0.  0.
         11    1    3    3    0    0  0.47460064570E+03  0.23790714477E+03 -0.42571364736E+02  0.53259544076E+03  0.00000000000E+00 0.  1.
        -11    1    3    3    0    0  0.12143066977E+03  0.23691791481E+02  0.19915987895E+02  0.12531302853E+03  0.00000000000E+00 0. -1.
          2    1    6    6  502    0 -0.12084459242E+03 -0.41325108865E+03 -0.45131500311E+01  0.43058128885E+03  0.00000000000E+00 0. -1.
          3    1    5    5  503    0 -0.25991112853E+03  0.14849020360E+03 -0.32527525243E+03  0.44204878140E+03  0.00000000000E+00 0. -1.
         -4    1    5    5    0  503 -0.18568331349E+03  0.55345814226E+02 -0.28109106685E+03  0.34139953123E+03  0.00000000000E+00 0.  1.
         -1    1    6    6    0  502 -0.29592281026E+02 -0.52183865433E+02  0.26819595766E+02  0.65712629113E+02  0.00000000000E+00 0.  1.
<mgrwt>
<rscale>  0 0.18402138E+04</rscale>
<asrwt>0</asrwt>
<pdfrwt beam="1">  1        1 0.10237965E+00 0.18402138E+04</pdfrwt>
<pdfrwt beam="2">  1       -1 0.19572045E+00 0.18402138E+04</pdfrwt>
<totfact> 0.44555281E+00</totfact>
</mgrwt>
</event>
<event>
12    1  0.1504874E-007  0.1717568E+04  0.7818608E-02  0.8751408E-01
          1   -1    0    0  501    0  0.00000000000E+00  0.00000000000E+00  0.97879369786E+03  0.97879369786E+03  0.00000000000E+00 0. -1.
         -1   -1    0    0    0  501 -0.00000000000E+00 -0.00000000000E+00 -0.75348838014E+03  0.75348838014E+03  0.00000000000E+00 0.  1.
         23    2    1    2    0    0 -0.11088482928E+03 -0.52575153484E+03  0.42855019494E+03  0.69442166111E+03  0.99277651458E+02 0.  0.
        254    2    1    2    0    0  0.11088482928E+03  0.52575153484E+03 -0.20324487722E+03  0.10378604169E+04  0.86437008457E+03 0.  0.
        -24    2    4    4    0    0  0.21849263515E+03  0.70491177773E+03 -0.76272108282E+01  0.74215563815E+03  0.78084383138E+02 0.  0.
         24    2    4    4    0    0 -0.10760780587E+03 -0.17916024289E+03 -0.19561766639E+03  0.29570477875E+03  0.74143187523E+02 0.  0.
         13    1    3    3    0    0  0.11903777462E+02 -0.13601628371E+03  0.87422365708E+02  0.16212587510E+03  0.00000000000E+00 0.  1.
        -13    1    3    3    0    0 -0.12278860675E+03 -0.38973525113E+03  0.34112782923E+03  0.53229578600E+03  0.00000000000E+00 0. -1.
          4    1    6    6  502    0  0.19182893888E+01 -0.39497193484E+02 -0.62028435344E+02  0.73561096501E+02  0.00000000000E+00 0. -1.
          1    1    5    5  503    0  0.37546099473E+02  0.56482981347E+02  0.10923713538E+02  0.68697629398E+02  0.00000000000E+00 0. -1.
         -2    1    5    5    0  503  0.18094653568E+03  0.64842879638E+03 -0.18550924366E+02  0.67345800875E+03  0.00000000000E+00 0.  1.
         -3    1    6    6    0  502 -0.10952609526E+03 -0.13966304941E+03 -0.13358923104E+03  0.22214368225E+03  0.00000000000E+00 0.  1.
<mgrwt>
<rscale>  0 0.17175677E+04</rscale>
<asrwt>0</asrwt>
<pdfrwt beam="1">  1        1 0.15058365E+00 0.17175677E+04</pdfrwt>
<pdfrwt beam="2">  1       -1 0.11592129E+00 0.17175677E+04</pdfrwt>
<totfact> 0.10062247E+01</totfact>
</mgrwt>
</event>
<event>
12    1  0.1504874E-007  0.2352978E+04  0.7818608E-02  0.8457321E-01
          2   -1    0    0  501    0  0.00000000000E+00  0.00000000000E+00  0.16878595234E+04  0.16878595234E+04  0.00000000000E+00 0. -1.
         -2   -1    0    0    0  501 -0.00000000000E+00 -0.00000000000E+00 -0.82004847202E+03  0.82004847202E+03  0.00000000000E+00 0.  1.
         23    2    1    2    0    0  0.67636726491E+02  0.70990187261E+03 -0.37798426140E+03  0.81293468927E+03  0.97238426857E+02 0.  0.
        254    2    1    2    0    0 -0.67636726491E+02 -0.70990187261E+03  0.12457953127E+04  0.16949733061E+04  0.90132854812E+03 0.  0.
        -24    2    4    4    0    0 -0.37780841771E+03 -0.74548680283E+02  0.68378551523E+03  0.78849771513E+03  0.76611420229E+02 0.  0.
         24    2    4    4    0    0  0.31017169122E+03 -0.63535319233E+03  0.56200979751E+03  0.90647559097E+03  0.77219346636E+02 0.  0.
         13    1    3    3    0    0  0.26810922614E+02  0.38701118880E+03 -0.15172794501E+03  0.41655474445E+03  0.00000000000E+00 0. -1.
        -13    1    3    3    0    0  0.40825803877E+02  0.32289068381E+03 -0.22625631639E+03  0.39637994483E+03  0.00000000000E+00 0.  1.
          4    1    6    6  502    0  0.93948940855E+02 -0.25163244379E+03  0.24772672403E+03  0.36539542971E+03  0.00000000000E+00 0. -1.
          1    1    5    5  503    0 -0.31426901807E+03 -0.42152200157E+02  0.50854653204E+03  0.59930075834E+03  0.00000000000E+00 0. -1.
         -2    1    5    5    0  503 -0.63539399641E+02 -0.32396480125E+02  0.17523898318E+03  0.18919695679E+03  0.00000000000E+00 0.  1.
         -3    1    6    6    0  502  0.21622275036E+03 -0.38372074853E+03  0.31428307349E+03  0.54108016126E+03  0.00000000000E+00 0.  1.
<mgrwt>
<rscale>  0 0.23529782E+04</rscale>
<asrwt>0</asrwt>
<pdfrwt beam="1">  1        2 0.25967069E+00 0.23529782E+04</pdfrwt>
<pdfrwt beam="2">  1       -2 0.12616130E+00 0.23529782E+04</pdfrwt>
<totfact> 0.42127420E+00</totfact>
</mgrwt>
</event>
<event>
12    1  0.1504874E-007  0.2099686E+04  0.7818608E-02  0.8561382E-01
          3   -1    0    0  501    0  0.00000000000E+00  0.00000000000E+00  0.14496331031E+04  0.14496331031E+04  0.00000000000E+00 0. -1.
         -3   -1    0    0    0  501 -0.00000000000E+00 -0.00000000000E+00 -0.76030972407E+03  0.76030972407E+03  0.00000000000E+00 0.  1.
         23    2    1    2    0    0 -0.74343524901E+03  0.31976627281E+03  0.57351414270E+01  0.81609696021E+03  0.10504721756E+03 0.  0.
        254    2    1    2    0    0  0.74343524901E+03 -0.31976627281E+03  0.68358823759E+03  0.13938458669E+04  0.90585152400E+03 0.  0.
        -24    2    4    4    0    0  0.84916881333E+02 -0.25866374862E+03 -0.15465468088E+03  0.32311016715E+03  0.79776551783E+02 0.  0.
         24    2    4    4    0    0  0.65851836768E+03 -0.61102524188E+02  0.83824291846E+03  0.10707356998E+04  0.80273217405E+02 0.  0.
         11    1    3    3    0    0 -0.43813059750E+03  0.23412967019E+03 -0.25872157512E+02  0.49743792724E+03  0.00000000000E+00 0.  1.
        -11    1    3    3    0    0 -0.30530465151E+03  0.85636602620E+02  0.31607298939E+02  0.31865903296E+03  0.00000000000E+00 0. -1.
          2    1    6    6  502    0  0.44284456993E+03 -0.23505631143E+02  0.50577173318E+03  0.67265806610E+03  0.00000000000E+00 0. -1.
          3    1    5    5  503    0  0.55026405015E+02 -0.22543218467E+03 -0.15382558853E+03  0.27840597483E+03  0.00000000000E+00 0. -1.
         -4    1    5    5    0  503  0.29890476318E+02 -0.33231563956E+02 -0.82909234517E+00  0.44704192327E+02  0.00000000000E+00 0.  1.
         -1    1    6    6    0  502  0.21567379775E+03 -0.37596893045E+02  0.33247118529E+03  0.39807763370E+03  0.00000000000E+00 0.  1.
<mgrwt>
<rscale>  0 0.20996858E+04</rscale>
<asrwt>0</asrwt>
<pdfrwt beam="1">  1        3 0.22302048E+00 0.20996858E+04</pdfrwt>
<pdfrwt beam="2">  1       -3 0.11697073E+00 0.20996858E+04</pdfrwt>
<totfact> 0.15402412E-01</totfact>
</mgrwt>
</event>
<event>
12    1  0.1504874E-007  0.1410957E+04  0.7818608E-02  0.8945926E-01
         -2   -1    0    0    0  501 -0.00000000000E+00  0.00000000000E+00  0.11111375940E+04  0.11111375940E+04  0.00000000000E+00 0. -1.
          2   -1    0    0  501    0  0.00000000000E+00 -0.00000000000E+00 -0.44791899488E+03  0.44791899488E+03  0.00000000000E+00 0.  1.
         23    2    1    2    0    0 -0.61617002661E+02  0.46775325266E+02 -0.19941104988E+03  0.23360470145E+03  0.93924457189E+02 0.  0.
        254    2    1    2    0    0  0.61617002661E+02 -0.46775325266E+02  0.86262964898E+03  0.13254518874E+04  0.10033484980E+04 0.  0.
        -24    2    4    4    0    0  0.37153191362E+03  0.21608479792E+03  0.79209216769E+03  0.90477942541E+03  0.80543179742E+02 0.  0.
         24    2    4    4    0    0 -0.30991491096E+03 -0.26286012319E+03  0.70537481283E+02  0.42067246199E+03  0.82747130575E+02 0.  0.
         13    1    3    3    0    0  0.90512097319E+00 -0.23579544326E+01  0.96271992304E+01  0.99529974432E+01  0.00000000000E+00 0. -1.
        -13    1    3    3    0    0 -0.62522123634E+02  0.49133279699E+02 -0.20903824911E+03  0.22365170401E+03  0.00000000000E+00 0.  1.
          4    1    6    6  502    0 -0.58542633579E+02 -0.12545755151E+02  0.69847181075E+01  0.60277874927E+02  0.00000000000E+00 0. -1.
          3    1    5    5  503    0  0.74871200751E+01  0.21480078025E+02  0.25960595444E+02  0.34516709501E+02  0.00000000000E+00 0. -1.
         -4    1    5    5    0  503  0.36404479354E+03  0.19460471989E+03  0.76613157225E+03  0.87026271591E+03  0.00000000000E+00 0.  1.
         -3    1    6    6    0  502 -0.25137227738E+03 -0.25031436803E+03  0.63552763176E+02  0.36039458706E+03  0.00000000000E+00 0.  1.
<mgrwt>
<rscale>  0 0.14109566E+04</rscale>
<asrwt>0</asrwt>
<pdfrwt beam="1">  1        2 0.68910615E-01 0.14109566E+04</pdfrwt>
<pdfrwt beam="2">  1       -2 0.17094425E+00 0.14109566E+04</pdfrwt>
<totfact> 0.14254082E+01</totfact>
</mgrwt>
</event>
<event>
12    1  0.1504874E-007  0.1448269E+04  0.7818608E-02  0.8919601E-01
         -2   -1    0    0    0  501 -0.00000000000E+00  0.00000000000E+00  0.18616503662E+03  0.18616503662E+03  0.00000000000E+00 0.  1.
          2   -1    0    0  501    0  0.00000000000E+00 -0.00000000000E+00 -0.28166990983E+04  0.28166990983E+04  0.00000000000E+00 0. -1.
         23    2    1    2    0    0 -0.29163265619E+03 -0.31359308889E+03 -0.10460844990E+04  0.11342086333E+04  0.93521191553E+02 0.  0.
        254    2    1    2    0    0  0.29163265619E+03  0.31359308889E+03 -0.15844495627E+04  0.18686555016E+04  0.89330998847E+03 0.  0.
        -24    2    4    4    0    0  0.22916161329E+03 -0.18104857976E+03 -0.13074778743E+03  0.32975420711E+03  0.79681992611E+02 0.  0.
         24    2    4    4    0    0  0.62471042897E+02  0.49464166865E+03 -0.14537017753E+04  0.15389012945E+04  0.79970815412E+02 0.  0.
         13    1    3    3    0    0 -0.22459120143E+03 -0.23652301796E+03 -0.88786460978E+03  0.94587943793E+03  0.00000000000E+00 0. -1.
        -13    1    3    3    0    0 -0.67041454758E+02 -0.77070070924E+02 -0.15821988918E+03  0.18832919535E+03  0.00000000000E+00 0.  1.
          2    1    6    6  502    0 -0.75747928369E+01  0.15912757187E+02 -0.25699221681E+02  0.31161568042E+02  0.00000000000E+00 0. -1.
          1    1    5    5  503    0  0.48015950152E+02 -0.19662676275E+02  0.43470497352E+01  0.52067736159E+02  0.00000000000E+00 0. -1.
         -2    1    5    5    0  503  0.18114566314E+03 -0.16138590349E+03 -0.13509483717E+03  0.27768647095E+03  0.00000000000E+00 0.  1.
         -3    1    6    6    0  502  0.70045835734E+02  0.47872891146E+03 -0.14280025536E+04  0.15077397265E+04  0.00000000000E+00 0.  1.
<mgrwt>
<rscale>  0 0.14482692E+04</rscale>
<asrwt>0</asrwt>
<pdfrwt beam="1">  1        2 0.43333831E+00 0.14482692E+04</pdfrwt>
<pdfrwt beam="2">  1       -2 0.28640776E-01 0.14482692E+04</pdfrwt>
<totfact> 0.24644694E+01</totfact>
</mgrwt>
</event>
<event>
12    1  0.1504874E-007  0.3469057E+04  0.7818608E-02  0.8121163E-01
         -2   -1    0    0    0  501 -0.00000000000E+00  0.00000000000E+00  0.14911771808E+04  0.14911771808E+04  0.00000000000E+00 0.  1.
          2   -1    0    0  501    0  0.00000000000E+00 -0.00000000000E+00 -0.20175927578E+04  0.20175927578E+04  0.00000000000E+00 0. -1.
         23    2    1    2    0    0  0.13857695989E+04 -0.55260733263E+03  0.36896601158E+03  0.15395271473E+04  0.90970733462E+02 0.  0.
        254    2    1    2    0    0 -0.13857695989E+04  0.55260733263E+03 -0.89538158859E+03  0.19692427912E+04  0.92221295613E+03 0.  0.
        -24    2    4    4    0    0 -0.13299061328E+04  0.63563756650E+03 -0.10173824581E+04  0.17928056410E+04  0.79997264620E+02 0.  0.
         24    2    4    4    0    0 -0.55863466049E+02 -0.83030233870E+02  0.12200086950E+03  0.17643715023E+03  0.78937375481E+02 0.  0.
         11    1    3    3    0    0  0.13952451051E+03 -0.72923230215E+02  0.15681418016E+02  0.15821123035E+03  0.00000000000E+00 0. -1.
        -11    1    3    3    0    0  0.12462450884E+04 -0.47968410242E+03  0.35328459357E+03  0.13813159170E+04  0.00000000000E+00 0.  1.
          4    1    6    6  502    0  0.25829226287E+01  0.66347161202E+01  0.42545121071E+02  0.43136739263E+02  0.00000000000E+00 0. -1.
          1    1    5    5  503    0 -0.10131209513E+03  0.47789885789E+02 -0.52749830519E+02  0.12381663226E+03  0.00000000000E+00 0. -1.
         -2    1    5    5    0  503 -0.12285940377E+04  0.58784768072E+03 -0.96463262757E+03  0.16689890088E+04  0.00000000000E+00 0.  1.
         -3    1    6    6    0  502 -0.58446388677E+02 -0.89664949990E+02  0.79455748429E+02  0.13330041097E+03  0.00000000000E+00 0.  1.
<mgrwt>
<rscale>  0 0.34690565E+04</rscale>
<asrwt>0</asrwt>
<pdfrwt beam="1">  1        2 0.31039889E+00 0.34690565E+04</pdfrwt>
<pdfrwt beam="2">  1       -2 0.22941187E+00 0.34690565E+04</pdfrwt>
<totfact> 0.46403378E-01</totfact>
</mgrwt>
</event>
<event>
12    1  0.1504874E-007  0.1742910E+04  0.7818608E-02  0.8737262E-01
          2   -1    0    0  501    0  0.00000000000E+00  0.00000000000E+00  0.13969119583E+04  0.13969119583E+04  0.00000000000E+00 0. -1.
         -2   -1    0    0    0  501 -0.00000000000E+00 -0.00000000000E+00 -0.54365216458E+03  0.54365216458E+03  0.00000000000E+00 0.  1.
         23    2    1    2    0    0 -0.54156234480E+03 -0.26734585100E+03  0.19882171003E+03  0.64276632360E+03  0.94100462419E+02 0.  0.
        254    2    1    2    0    0  0.54156234480E+03  0.26734585100E+03  0.65443808373E+03  0.12977977993E+04  0.94404785106E+03 0.  0.
        -24    2    4    4    0    0  0.72636695164E+03  0.25266923731E+03  0.74758802909E+03  0.10755418626E+04  0.80322755138E+02 0.  0.
         24    2    4    4    0    0 -0.18480460684E+03  0.14676613687E+02 -0.93149945361E+02  0.22225593673E+03  0.79703471630E+02 0.  0.
         13    1    3    3    0    0 -0.21123698435E+03 -0.11161373801E+03  0.31200240531E+02  0.24094012758E+03  0.00000000000E+00 0.  1.
        -13    1    3    3    0    0 -0.33032536045E+03 -0.15573211299E+03  0.16762146949E+03  0.40182619602E+03  0.00000000000E+00 0. -1.
          4    1    6    6  502    0 -0.44579170012E+01 -0.16326885418E+02 -0.11158756089E-01  0.16924548323E+02  0.00000000000E+00 0. -1.
          3    1    5    5  503    0  0.25165832546E+03  0.47603248055E+02  0.24471768167E+03  0.35423823300E+03  0.00000000000E+00 0. -1.
         -4    1    5    5    0  503  0.47470862618E+03  0.20506598926E+03  0.50287034741E+03  0.72130362957E+03  0.00000000000E+00 0.  1.
         -3    1    6    6    0  502 -0.18034668984E+03  0.31003499105E+02 -0.93138786605E+02  0.20533138840E+03  0.00000000000E+00 0.  1.
<mgrwt>
<rscale>  0 0.17429105E+04</rscale>
<asrwt>0</asrwt>
<pdfrwt beam="1">  1        2 0.21490953E+00 0.17429105E+04</pdfrwt>
<pdfrwt beam="2">  1       -2 0.83638795E-01 0.17429105E+04</pdfrwt>
<totfact> 0.17224885E+01</totfact>
</mgrwt>
</event>
<event>
12    1  0.1504874E-007  0.1808228E+04  0.7818608E-02  0.8701936E-01
         -2   -1    0    0    0  501 -0.00000000000E+00  0.00000000000E+00  0.30273738931E+03  0.30273738931E+03  0.00000000000E+00 0.  1.
          2   -1    0    0  501    0  0.00000000000E+00 -0.00000000000E+00 -0.27001028971E+04  0.27001028971E+04  0.00000000000E+00 0. -1.
         23    2    1    2    0    0 -0.37012057517E+03  0.13082948648E+03 -0.17812592747E+04  0.18263232329E+04  0.92012784404E+02 0.  0.
        254    2    1    2    0    0  0.37012057517E+03 -0.13082948648E+03 -0.61610623309E+03  0.11765170535E+04  0.92222551045E+03 0.  0.
        -24    2    4    4    0    0 -0.16855526144E+02 -0.47279512307E+03 -0.27980990072E+03  0.55508148307E+03  0.77476029497E+02 0.  0.
         24    2    4    4    0    0  0.38697610131E+03  0.34196563659E+03 -0.33629633237E+03  0.62143557047E+03  0.79974655234E+02 0.  0.
         13    1    3    3    0    0 -0.18991703676E+03  0.70164365561E+02 -0.11250214025E+04  0.11430943422E+04  0.00000000000E+00 0. -1.
        -13    1    3    3    0    0 -0.18020353841E+03  0.60665120917E+02 -0.65623787221E+03  0.68322889069E+03  0.00000000000E+00 0.  1.
          2    1    6    6  502    0  0.25169506978E+03  0.17991095498E+03 -0.17234998617E+03  0.35415092489E+03  0.00000000000E+00 0. -1.
          1    1    5    5  503    0  0.14682116445E+02 -0.36614758052E+03 -0.19410532413E+03  0.41467637034E+03  0.00000000000E+00 0. -1.
         -2    1    5    5    0  503 -0.31537642589E+02 -0.10664754255E+03 -0.85704576594E+02  0.14040511273E+03  0.00000000000E+00 0.  1.
         -1    1    6    6    0  502  0.13528103154E+03  0.16205468161E+03 -0.16394634620E+03  0.26728464557E+03  0.00000000000E+00 0.  1.
<mgrwt>
<rscale>  0 0.18082280E+04</rscale>
<asrwt>0</asrwt>
<pdfrwt beam="1">  1        2 0.41540044E+00 0.18082280E+04</pdfrwt>
<pdfrwt beam="2">  1       -2 0.46574983E-01 0.18082280E+04</pdfrwt>
<totfact> 0.10969892E+01</totfact>
</mgrwt>
</event>
<event>
12    1  0.1504874E-007  0.1610325E+04  0.7818608E-02  0.8814230E-01
         -1   -1    0    0    0  501 -0.00000000000E+00  0.00000000000E+00  0.86591420108E+03  0.86591420108E+03  0.00000000000E+00 0.  1.
          1   -1    0    0  501    0  0.00000000000E+00 -0.00000000000E+00 -0.74867265180E+03  0.74867265180E+03  0.00000000000E+00 0. -1.
         23    2    1    2    0    0  0.64397196378E+02  0.52935471351E+03 -0.10355603782E+03  0.55073593022E+03  0.90679657316E+02 0.  0.
        254    2    1    2    0    0 -0.64397196378E+02 -0.52935471351E+03  0.22079758709E+03  0.10638509227E+04  0.89367992008E+03 0.  0.
        -24    2    4    4    0    0  0.32804757988E+03  0.28097792651E+02  0.16196961703E+03  0.37534352203E+03  0.79018365445E+02 0.  0.
         24    2    4    4    0    0 -0.39244477625E+03 -0.55745250616E+03  0.58827970060E+02  0.68850740062E+03  0.76259501845E+02 0.  0.
         13    1    3    3    0    0  0.26710250380E+02  0.43682525545E+03 -0.10784807776E+03  0.45073378967E+03  0.00000000000E+00 0. -1.
        -13    1    3    3    0    0  0.37686945999E+02  0.92529458063E+02  0.42920399462E+01  0.10000214055E+03  0.00000000000E+00 0.  1.
          4    1    6    6  502    0 -0.10702985981E+03 -0.13301237424E+03 -0.16452351087E+02  0.17151781963E+03  0.00000000000E+00 0. -1.
          1    1    5    5  503    0  0.13351403608E+02  0.73322948627E+01  0.29642003009E+02  0.33326729042E+02  0.00000000000E+00 0. -1.
         -2    1    5    5    0  503  0.31469617627E+03  0.20765497788E+02  0.13232761402E+03  0.34201679299E+03  0.00000000000E+00 0.  1.
         -3    1    6    6    0  502 -0.28541491644E+03 -0.42444013192E+03  0.75280321147E+02  0.51698958100E+03  0.00000000000E+00 0.  1.
<mgrwt>
<rscale>  0 0.16103245E+04</rscale>
<asrwt>0</asrwt>
<pdfrwt beam="1">  1        1 0.11518041E+00 0.16103245E+04</pdfrwt>
<pdfrwt beam="2">  1       -1 0.13321757E+00 0.16103245E+04</pdfrwt>
<totfact> 0.11224239E+01</totfact>
</mgrwt>
</event>
<event>
12    1  0.1504874E-007  0.1072295E+04  0.7818608E-02  0.9232624E-01
         -2   -1    0    0    0  501 -0.00000000000E+00  0.00000000000E+00  0.23736103520E+03  0.23736103520E+03  0.00000000000E+00 0.  1.
          2   -1    0    0  501    0  0.00000000000E+00 -0.00000000000E+00 -0.12110419592E+04  0.12110419592E+04  0.00000000000E+00 0. -1.
         23    2    1    2    0    0 -0.99734928474E+02  0.66995502372E+02 -0.10864784987E+03  0.19446955355E+03  0.10760389715E+03 0.  0.
        254    2    1    2    0    0  0.99734928474E+02 -0.66995502372E+02 -0.86503307418E+03  0.12539334409E+04  0.89979519974E+03 0.  0.
        -24    2    4    4    0    0  0.66538016039E+02 -0.36635697805E+03 -0.53257380311E+02  0.38456349489E+03  0.80049922558E+02 0.  0.
         24    2    4    4    0    0  0.33196912435E+02  0.29936147567E+03 -0.81177569386E+03  0.86936994600E+03  0.78134485048E+02 0.  0.
         13    1    3    3    0    0 -0.34568823154E+02  0.68875745395E+02 -0.10354721496E+03  0.12907709930E+03  0.00000000000E+00 0. -1.
        -13    1    3    3    0    0 -0.65166105320E+02 -0.18802430230E+01 -0.51006349029E+01  0.65392454250E+02  0.00000000000E+00 0.  1.
          2    1    6    6  502    0  0.54167803696E+02  0.23768429783E+03 -0.59456475098E+03  0.64260035753E+03  0.00000000000E+00 0. -1.
          3    1    5    5  503    0 -0.14393926312E+02 -0.23555159718E+02  0.33872015002E+01  0.27811936250E+02  0.00000000000E+00 0. -1.
         -4    1    5    5    0  503  0.80931942351E+02 -0.34280181833E+03 -0.56644581811E+02  0.35675155864E+03  0.00000000000E+00 0.  1.
         -1    1    6    6    0  502 -0.20970891262E+02  0.61677177842E+02 -0.21721094289E+03  0.22676958848E+03  0.00000000000E+00 0.  1.
<mgrwt>
<rscale>  0 0.10722951E+04</rscale>
<asrwt>0</asrwt>
<pdfrwt beam="1">  1        2 0.18631415E+00 0.10722951E+04</pdfrwt>
<pdfrwt beam="2">  1       -2 0.36517083E-01 0.10722951E+04</pdfrwt>
<totfact> 0.13085579E+02</totfact>
</mgrwt>
</event>
<event>
12    1  0.1504874E-007  0.2419337E+04  0.7818608E-02  0.8432299E-01
         -1   -1    0    0    0  501 -0.00000000000E+00  0.00000000000E+00  0.59741899693E+03  0.59741899693E+03  0.00000000000E+00 0.  1.
          1   -1    0    0  501    0  0.00000000000E+00 -0.00000000000E+00 -0.24493662640E+04  0.24493662640E+04  0.00000000000E+00 0. -1.
         23    2    1    2    0    0 -0.30989947071E+03 -0.47503079923E+03  0.30235904433E+03  0.64976490362E+03  0.95296884143E+02 0.  0.
        254    2    1    2    0    0  0.30989947071E+03  0.47503079923E+03 -0.21543063114E+04  0.23970203573E+04  0.88486098787E+03 0.  0.
        -24    2    4    4    0    0  0.38528789228E+03  0.27094552595E+03 -0.38752465183E+03  0.61512814420E+03  0.79680863694E+02 0.  0.
         24    2    4    4    0    0 -0.75388421566E+02  0.20408527327E+03 -0.17667816595E+04  0.17818922131E+04  0.79298257751E+02 0.  0.
         11    1    3    3    0    0 -0.30510125189E+02 -0.12751245679E+02  0.30821921090E+02  0.45204566419E+02  0.00000000000E+00 0. -1.
        -11    1    3    3    0    0 -0.27938934552E+03 -0.46227955355E+03  0.27153712324E+03  0.60456033720E+03  0.00000000000E+00 0.  1.
          2    1    6    6  502    0 -0.70584282420E+02  0.83962968973E+02 -0.94978834059E+03  0.95610136126E+03  0.00000000000E+00 0. -1.
          3    1    5    5  503    0  0.36043210633E+03  0.27029332518E+03 -0.37932740114E+03  0.58894741885E+03  0.00000000000E+00 0. -1.
         -4    1    5    5    0  503  0.24855785946E+02  0.65220077133E+00 -0.81972506817E+01  0.26180725344E+02  0.00000000000E+00 0.  1.
         -1    1    6    6    0  502 -0.48041391463E+01  0.12012230430E+03 -0.81699331896E+03  0.82579085183E+03  0.00000000000E+00 0.  1.
<mgrwt>
<rscale>  0 0.24193370E+04</rscale>
<asrwt>0</asrwt>
<pdfrwt beam="1">  1        1 0.37682558E+00 0.24193370E+04</pdfrwt>
<pdfrwt beam="2">  1       -1 0.91910615E-01 0.24193370E+04</pdfrwt>
<totfact> 0.15145737E+00</totfact>
</mgrwt>
</event>
<event>
12    1  0.1504874E-007  0.1179368E+04  0.7818608E-02  0.9131110E-01
         -2   -1    0    0    0  501 -0.00000000000E+00  0.00000000000E+00  0.89265299280E+03  0.89265299280E+03  0.00000000000E+00 0.  1.
          2   -1    0    0  501    0  0.00000000000E+00 -0.00000000000E+00 -0.38954364472E+03  0.38954364472E+03  0.00000000000E+00 0. -1.
         23    2    1    2    0    0 -0.10917574438E+03 -0.17888476229E+03  0.21842985223E+03  0.31592977867E+03  0.90448456954E+02 0.  0.
        254    2    1    2    0    0  0.10917574438E+03  0.17888476229E+03  0.28467949586E+03  0.96626685885E+03  0.89928311772E+03 0.  0.
        -24    2    4    4    0    0  0.94903920245E+02 -0.58930604852E+02  0.56978021127E+03  0.58601437916E+03  0.79270380054E+02 0.  0.
         24    2    4    4    0    0  0.14271824139E+02  0.23781536715E+03 -0.28510071542E+03  0.38025247969E+03  0.80930195640E+02 0.  0.
         11    1    3    3    0    0 -0.45074353571E+02 -0.38579239900E+02  0.16045269979E+02  0.61461417082E+02  0.00000000000E+00 0. -1.
        -11    1    3    3    0    0 -0.64101390813E+02 -0.14030552239E+03  0.20238458225E+03  0.25446836159E+03  0.00000000000E+00 0.  1.
          2    1    6    6  502    0  0.48147324008E+02  0.14324247158E+03 -0.17453673419E+03  0.23086715240E+03  0.00000000000E+00 0. -1.
          3    1    5    5  503    0  0.10179548563E+03 -0.54802197346E+02  0.56491298924E+03  0.57662144180E+03  0.00000000000E+00 0. -1.
         -4    1    5    5    0  503 -0.68915653809E+01 -0.41284075060E+01  0.48672220339E+01  0.93929373607E+01  0.00000000000E+00 0.  1.
         -1    1    6    6    0  502 -0.33875499869E+02  0.94572895561E+02 -0.11056398123E+03  0.14938532730E+03  0.00000000000E+00 0.  1.
<mgrwt>
<rscale>  0 0.11793681E+04</rscale>
<asrwt>0</asrwt>
<pdfrwt beam="1">  1        2 0.59929792E-01 0.11793681E+04</pdfrwt>
<pdfrwt beam="2">  1       -2 0.13733123E+00 0.11793681E+04</pdfrwt>
<totfact> 0.30537885E+01</totfact>
</mgrwt>
</event>
<event>
12    1  0.1504874E-007  0.1599710E+04  0.7818608E-02  0.8820726E-01
          1   -1    0    0  501    0  0.00000000000E+00  0.00000000000E+00  0.10673812389E+04  0.10673812389E+04  0.00000000000E+00 0. -1.
         -1   -1    0    0    0  501 -0.00000000000E+00 -0.00000000000E+00 -0.59938117935E+03  0.59938117935E+03  0.00000000000E+00 0.  1.
         23    2    1    2    0    0 -0.33276987938E+03  0.28783953511E+03  0.49453748615E+03  0.67104891803E+03  0.11023581351E+03 0.  0.
        254    2    1    2    0    0  0.33276987938E+03 -0.28783953511E+03 -0.26537426559E+02  0.99571350028E+03  0.89283467060E+03 0.  0.
        -24    2    4    4    0    0 -0.22796505534E+03 -0.10126790991E+03  0.22772578002E+03  0.34744366221E+03  0.81454352201E+02 0.  0.
         24    2    4    4    0    0  0.56073493472E+03 -0.18657162520E+03 -0.25426320657E+03  0.64826983806E+03  0.79820839248E+02 0.  0.
         11    1    3    3    0    0 -0.78296618545E+02  0.14273167159E+02  0.97475295118E+02  0.12583925037E+03  0.00000000000E+00 0.  1.
        -11    1    3    3    0    0 -0.25447326083E+03  0.27356636795E+03  0.39706219103E+03  0.54520966765E+03  0.00000000000E+00 0. -1.
          4    1    6    6  502    0  0.46497332971E+03 -0.16211779603E+03 -0.17865658778E+03  0.52383256245E+03  0.00000000000E+00 0. -1.
          3    1    5    5  503    0 -0.22122068617E+03 -0.93040291670E+02  0.23392071738E+03  0.33513279440E+03  0.00000000000E+00 0. -1.
         -4    1    5    5    0  503 -0.67443691702E+01 -0.82276182380E+01 -0.61949373601E+01  0.12310867811E+02  0.00000000000E+00 0.  1.
         -3    1    6    6    0  502  0.95761605016E+02 -0.24453829169E+02 -0.75606618793E+02  0.12443727561E+03  0.00000000000E+00 0.  1.
<mgrwt>
<rscale>  0 0.15997103E+04</rscale>
<asrwt>0</asrwt>
<pdfrwt beam="1">  1        1 0.16421250E+00 0.15997103E+04</pdfrwt>
<pdfrwt beam="2">  1       -1 0.92212489E-01 0.15997103E+04</pdfrwt>
<totfact> 0.14743783E+01</totfact>
</mgrwt>
</event>
<event>
12    1  0.1504874E-007  0.1102755E+04  0.7818608E-02  0.9202511E-01
         -2   -1    0    0    0  501 -0.00000000000E+00  0.00000000000E+00  0.23194444157E+03  0.23194444157E+03  0.00000000000E+00 0. -1.
          2   -1    0    0  501    0  0.00000000000E+00 -0.00000000000E+00 -0.13107322663E+04  0.13107322663E+04  0.00000000000E+00 0.  1.
         23    2    1    2    0    0  0.45875988056E+02 -0.10979824535E+03 -0.37988350782E+02  0.16143207932E+03  0.10225918285E+03 0.  0.
        254    2    1    2    0    0 -0.45875988056E+02  0.10979824535E+03 -0.10407994740E+04  0.13812446286E+04  0.90022936965E+03 0.  0.
        -24    2    4    4    0    0 -0.50847323633E+02  0.44496609115E+03 -0.90142111011E+03  0.10096584690E+04  0.79182912693E+02 0.  0.
         24    2    4    4    0    0  0.49713355762E+01 -0.33516784580E+03 -0.13937836384E+03  0.37158615957E+03  0.79295312828E+02 0.  0.
         13    1    3    3    0    0  0.40527958517E+02 -0.58221830540E+02  0.29070426620E+02  0.76664115966E+02  0.00000000000E+00 0. -1.
        -13    1    3    3    0    0  0.53480295399E+01 -0.51576414807E+02 -0.67058777402E+02  0.84767963352E+02  0.00000000000E+00 0.  1.
          4    1    6    6  502    0  0.23379382855E+02 -0.28448587217E+02 -0.97561060966E+01  0.38093296832E+02  0.00000000000E+00 0. -1.
          3    1    5    5  503    0 -0.40073942760E+01  0.99634126373E+02 -0.27947953324E+03  0.29673528245E+03  0.00000000000E+00 0. -1.
         -4    1    5    5    0  503 -0.46839929357E+02  0.34533196478E+03 -0.62194157686E+03  0.71292318654E+03  0.00000000000E+00 0.  1.
         -3    1    6    6    0  502 -0.18408047279E+02 -0.30671925859E+03 -0.12962225775E+03  0.33349286274E+03  0.00000000000E+00 0.  1.
<mgrwt>
<rscale>  0 0.11027548E+04</rscale>
<asrwt>0</asrwt>
<pdfrwt beam="1">  1        2 0.20165112E+00 0.11027548E+04</pdfrwt>
<pdfrwt beam="2">  1       -2 0.35683760E-01 0.11027548E+04</pdfrwt>
<totfact> 0.11929264E+02</totfact>
</mgrwt>
</event>
<event>
12    1  0.1504874E-007  0.2670596E+04  0.7818608E-02  0.8344609E-01
          1   -1    0    0  501    0  0.00000000000E+00  0.00000000000E+00  0.15712374513E+04  0.15712374513E+04  0.00000000000E+00 0. -1.
         -1   -1    0    0    0  501 -0.00000000000E+00 -0.00000000000E+00 -0.11347879766E+04  0.11347879766E+04  0.00000000000E+00 0.  1.
         23    2    1    2    0    0 -0.10383271718E+04  0.95409049533E+02  0.75601002824E+03  0.12909235768E+04  0.87785623949E+02 0.  0.
        254    2    1    2    0    0  0.10383271718E+04 -0.95409049533E+02 -0.31956055357E+03  0.14151018511E+04  0.90175833740E+03 0.  0.
        -24    2    4    4    0    0  0.15034580146E+03  0.80327726039E+02 -0.45703020347E+03  0.49584784570E+03  0.89062200776E+02 0.  0.
         24    2    4    4    0    0  0.88798137036E+03 -0.17573677557E+03  0.13746964990E+03  0.91925400539E+03  0.82071270101E+02 0.  0.
         11    1    3    3    0    0 -0.83598926464E+03  0.84340464598E+02  0.56563322427E+03  0.10128831665E+04  0.00000000000E+00 0. -1.
        -11    1    3    3    0    0 -0.20233790718E+03  0.11068584934E+02  0.19037680398E+03  0.27804041028E+03  0.00000000000E+00 0.  1.
          4    1    6    6  502    0  0.88845217195E+03 -0.17840316070E+03  0.13740826838E+03  0.91654567906E+03  0.00000000000E+00 0. -1.
          1    1    5    5  503    0  0.12796097768E+03  0.65181844955E+02 -0.26043825686E+03  0.29740674229E+03  0.00000000000E+00 0. -1.
         -2    1    5    5    0  503  0.22384823777E+02  0.15145881085E+02 -0.19659194661E+03  0.19844110341E+03  0.00000000000E+00 0.  1.
         -3    1    6    6    0  502 -0.47080158707E+00  0.26663851282E+01  0.61381524576E-01  0.27083263242E+01  0.00000000000E+00 0.  1.
<mgrwt>
<rscale>  0 0.26705965E+04</rscale>
<asrwt>0</asrwt>
<pdfrwt beam="1">  1        1 0.24172884E+00 0.26705965E+04</pdfrwt>
<pdfrwt beam="2">  1       -1 0.17458277E+00 0.26705965E+04</pdfrwt>
<totfact> 0.11645455E+00</totfact>
</mgrwt>
</event>
<event>
12    1  0.1504874E-007  0.1620942E+04  0.7818608E-02  0.8807785E-01
         -2   -1    0    0    0  501 -0.00000000000E+00  0.00000000000E+00  0.22154193906E+03  0.22154193906E+03  0.00000000000E+00 0.  1.
          2   -1    0    0  501    0  0.00000000000E+00 -0.00000000000E+00 -0.29649601238E+04  0.29649601238E+04  0.00000000000E+00 0. -1.
         23    2    1    2    0    0  0.32178569977E+03 -0.16743077767E+03 -0.15093313991E+03  0.40319698098E+03  0.90597410896E+02 0.  0.
        254    2    1    2    0    0 -0.32178569977E+03  0.16743077767E+03 -0.25924850448E+04  0.27833050818E+04  0.94563701770E+03 0.  0.
        -24    2    4    4    0    0 -0.38407343820E+03 -0.73361489845E+02 -0.24571062665E+04  0.24893390535E+04  0.80891311781E+02 0.  0.
         24    2    4    4    0    0  0.62287738423E+02  0.24079226752E+03 -0.13537877833E+03  0.29396602838E+03  0.78917258964E+02 0.  0.
         11    1    3    3    0    0  0.14984341407E+03 -0.27847028247E+02 -0.60538149649E+02  0.16399199153E+03  0.00000000000E+00 0.  1.
        -11    1    3    3    0    0  0.17194228570E+03 -0.13958374942E+03 -0.90394990264E+02  0.23920498945E+03  0.00000000000E+00 0. -1.
          4    1    6    6  502    0  0.60855406972E+01  0.87356578862E+02 -0.87262190539E+02  0.12362400889E+03  0.00000000000E+00 0. -1.
          3    1    5    5  503    0  0.74910642547E+00 -0.28084247551E+01 -0.27684159337E+01  0.40140424542E+01  0.00000000000E+00 0. -1.
         -4    1    5    5    0  503 -0.38482254462E+03 -0.70553065090E+02 -0.24543378505E+04  0.24853250110E+04  0.00000000000E+00 0.  1.
         -3    1    6    6    0  502  0.56202197726E+02  0.15343568865E+03 -0.48116587795E+02  0.17034201949E+03  0.00000000000E+00 0.  1.
<mgrwt>
<rscale>  0 0.16209417E+04</rscale>
<asrwt>0</asrwt>
<pdfrwt beam="1">  1        2 0.45614766E+00 0.16209417E+04</pdfrwt>
<pdfrwt beam="2">  1       -2 0.34083379E-01 0.16209417E+04</pdfrwt>
<totfact> 0.14206578E+01</totfact>
</mgrwt>
</event>
<event>
12    1  0.1504874E-007  0.2075205E+04  0.7818608E-02  0.8572245E-01
          2   -1    0    0  501    0  0.00000000000E+00  0.00000000000E+00  0.25261729921E+04  0.25261729921E+04  0.00000000000E+00 0. -1.
         -2   -1    0    0    0  501 -0.00000000000E+00 -0.00000000000E+00 -0.42618596067E+03  0.42618596067E+03  0.00000000000E+00 0.  1.
         23    2    1    2    0    0 -0.45745242858E+03 -0.29341264545E+03 -0.59661459408E+02  0.55417561665E+03  0.90539601417E+02 0.  0.
        254    2    1    2    0    0  0.45745242858E+03  0.29341264545E+03  0.21596484908E+04  0.23981833361E+04  0.88985841838E+03 0.  0.
        -24    2    4    4    0    0 -0.12493670192E+03  0.26472892776E+03  0.23056414865E+03  0.38115973222E+03  0.80201808826E+02 0.  0.
         24    2    4    4    0    0  0.58238913050E+03  0.28683717690E+02  0.19290843422E+04  0.20170236039E+04  0.83773292076E+02 0.  0.
         13    1    3    3    0    0 -0.30857142897E+03 -0.20548033856E+03  0.16122875423E+01  0.37073048942E+03  0.00000000000E+00 0. -1.
        -13    1    3    3    0    0 -0.14888099961E+03 -0.87932306891E+02 -0.61273746951E+02  0.18344512723E+03  0.00000000000E+00 0.  1.
          4    1    6    6  502    0  0.12374327839E+03  0.10161164550E+02  0.30458390672E+03  0.32891792965E+03  0.00000000000E+00 0. -1.
          1    1    5    5  503    0 -0.31002010874E+02  0.21200231544E+02  0.86091689652E+01  0.38531704946E+02  0.00000000000E+00 0. -1.
         -2    1    5    5    0  503 -0.93934691048E+02  0.24352869622E+03  0.22195497968E+03  0.34262802727E+03  0.00000000000E+00 0.  1.
         -3    1    6    6    0  502  0.45864585211E+03  0.18522553140E+02  0.16245004354E+04  0.16881056742E+04  0.00000000000E+00 0.  1.
<mgrwt>
<rscale>  0 0.20752055E+04</rscale>
<asrwt>0</asrwt>
<pdfrwt beam="1">  1        2 0.38864199E+00 0.20752055E+04</pdfrwt>
<pdfrwt beam="2">  1       -2 0.65567072E-01 0.20752055E+04</pdfrwt>
<totfact> 0.66533887E+00</totfact>
</mgrwt>
</event>
<event>
12    1  0.1504874E-007  0.2518914E+04  0.7818608E-02  0.8396278E-01
         -2   -1    0    0    0  501 -0.00000000000E+00  0.00000000000E+00  0.10479678056E+04  0.10479678056E+04  0.00000000000E+00 0. -1.
          2   -1    0    0  501    0  0.00000000000E+00 -0.00000000000E+00 -0.15136270784E+04  0.15136270784E+04  0.00000000000E+00 0.  1.
         23    2    1    2    0    0 -0.82648072511E+03  0.69078315321E+03  0.90323982707E+01  0.10812524735E+04  0.93667355524E+02 0.  0.
        254    2    1    2    0    0  0.82648072511E+03 -0.69078315321E+03 -0.47469167106E+03  0.14803424104E+04  0.89768018573E+03 0.  0.
        -24    2    4    4    0    0  0.96651341675E+03 -0.74417680244E+03 -0.35677793877E+03  0.12735400510E+04  0.81648428898E+02 0.  0.
         24    2    4    4    0    0 -0.14003269165E+03  0.53393649235E+02 -0.11791373229E+03  0.20680235941E+03  0.80022066250E+02 0.  0.
         11    1    3    3    0    0 -0.68092315067E+03  0.52236183437E+03 -0.47827529482E+01  0.85821972586E+03  0.00000000000E+00 0. -1.
        -11    1    3    3    0    0 -0.14555757444E+03  0.16842131884E+03  0.13815151219E+02  0.22303274764E+03  0.00000000000E+00 0.  1.
          4    1    6    6  502    0 -0.53666379606E+02 -0.31649989702E+01 -0.80892934196E+02  0.97127567257E+02  0.00000000000E+00 0. -1.
          1    1    5    5  503    0  0.12154210699E+03 -0.94136264778E+02 -0.73864070382E+02  0.17055796965E+03  0.00000000000E+00 0. -1.
         -2    1    5    5    0  503  0.84497130976E+03 -0.65004053767E+03 -0.28291386839E+03  0.11029820814E+04  0.00000000000E+00 0.  1.
         -3    1    6    6    0  502 -0.86366312040E+02  0.56558648205E+02 -0.37020798091E+02  0.10967479215E+03  0.00000000000E+00 0.  1.
<mgrwt>
<rscale>  0 0.25189144E+04</rscale>
<asrwt>0</asrwt>
<pdfrwt beam="1">  1        2 0.23286570E+00 0.25189144E+04</pdfrwt>
<pdfrwt beam="2">  1       -2 0.16122582E+00 0.25189144E+04</pdfrwt>
<totfact> 0.27400747E+00</totfact>
</mgrwt>
</event>
<event>
12    1  0.1504874E-007  0.1445077E+04  0.7818608E-02  0.8921821E-01
          2   -1    0    0  501    0  0.00000000000E+00  0.00000000000E+00  0.99441092267E+03  0.99441092267E+03  0.00000000000E+00 0. -1.
         -2   -1    0    0    0  501 -0.00000000000E+00 -0.00000000000E+00 -0.52499608587E+03  0.52499608587E+03  0.00000000000E+00 0.  1.
         23    2    1    2    0    0  0.86561882057E+02 -0.65237753564E+02  0.58922916913E+03  0.60583331426E+03  0.89967032809E+02 0.  0.
        254    2    1    2    0    0 -0.86561882057E+02  0.65237753564E+02 -0.11981433233E+03  0.91357369429E+03  0.89917322956E+03 0.  0.
        -24    2    4    4    0    0 -0.38043775774E+03 -0.14688871340E+03 -0.28868433348E+03  0.50567525294E+03  0.77843659997E+02 0.  0.
         24    2    4    4    0    0  0.29387587568E+03  0.21212646697E+03  0.16887000114E+03  0.40789844135E+03  0.80643616468E+02 0.  0.
         11    1    3    3    0    0 -0.53677692804E+01 -0.13379070674E+02  0.11223168099E+02  0.18269427504E+02  0.00000000000E+00 0.  1.
        -11    1    3    3    0    0  0.91929651337E+02 -0.51858682890E+02  0.57800600103E+03  0.58756388675E+03  0.00000000000E+00 0. -1.
          4    1    6    6  502    0  0.22783332449E+03  0.13621377837E+03  0.90813548328E+02  0.28055180934E+03  0.00000000000E+00 0. -1.
          3    1    5    5  503    0 -0.29023693649E+03 -0.10868517744E+03 -0.25731841743E+03  0.40281846413E+03  0.00000000000E+00 0. -1.
         -4    1    5    5    0  503 -0.90200821248E+02 -0.38203535964E+02 -0.31365916049E+02  0.10285678881E+03  0.00000000000E+00 0.  1.
         -3    1    6    6    0  502  0.66042551190E+02  0.75912688604E+02  0.78056452817E+02  0.12734663201E+03  0.00000000000E+00 0.  1.
<mgrwt>
<rscale>  0 0.14450769E+04</rscale>
<asrwt>0</asrwt>
<pdfrwt beam="1">  1        2 0.15298630E+00 0.14450769E+04</pdfrwt>
<pdfrwt beam="2">  1       -2 0.80768629E-01 0.14450769E+04</pdfrwt>
<totfact> 0.33341721E+01</totfact>
</mgrwt>
</event>
<event>
12    1  0.1504874E-007  0.1681610E+04  0.7818608E-02  0.8771923E-01
          1   -1    0    0  501    0  0.00000000000E+00  0.00000000000E+00  0.85543632508E+03  0.85543632508E+03  0.00000000000E+00 0. -1.
         -1   -1    0    0    0  501 -0.00000000000E+00 -0.00000000000E+00 -0.82642404975E+03  0.82642404975E+03  0.00000000000E+00 0.  1.
         23    2    1    2    0    0 -0.28952405918E+03 -0.51662149579E+03  0.63032392691E+02  0.60245681035E+03  0.90880003579E+02 0.  0.
        254    2    1    2    0    0  0.28952405918E+03  0.51662149579E+03 -0.34020117362E+02  0.10794035645E+04  0.90179417600E+03 0.  0.
        -24    2    4    4    0    0  0.51983624486E+03  0.93916003263E+02  0.15440065918E+03  0.55615117958E+03  0.80091409339E+02 0.  0.
         24    2    4    4    0    0 -0.23031218568E+03  0.42270549253E+03 -0.18842077654E+03  0.52325238490E+03  0.81037232091E+02 0.  0.
         11    1    3    3    0    0 -0.27615468220E+02 -0.28683429908E+02  0.25748172933E+02  0.47416470194E+02  0.00000000000E+00 0.  1.
        -11    1    3    3    0    0 -0.26190859096E+03 -0.48793806588E+03  0.37284219758E+02  0.55504034015E+03  0.00000000000E+00 0. -1.
          4    1    6    6  502    0 -0.17748804556E+03  0.33986139292E+03 -0.11402544121E+03  0.40001196727E+03  0.00000000000E+00 0. -1.
          3    1    5    5  503    0  0.42189425865E+02  0.28286439967E+02  0.26734436947E+02  0.57400352435E+02  0.00000000000E+00 0. -1.
         -4    1    5    5    0  503  0.47764681900E+03  0.65629563296E+02  0.12766622223E+03  0.49875082714E+03  0.00000000000E+00 0.  1.
         -1    1    6    6    0  502 -0.52824140124E+02  0.82844099603E+02 -0.74395335326E+02  0.12324041763E+03  0.00000000000E+00 0.  1.
<mgrwt>
<rscale>  0 0.16816101E+04</rscale>
<asrwt>0</asrwt>
<pdfrwt beam="1">  1        1 0.13160559E+00 0.16816101E+04</pdfrwt>
<pdfrwt beam="2">  1       -1 0.12714216E+00 0.16816101E+04</pdfrwt>
<totfact> 0.10132388E+01</totfact>
</mgrwt>
</event>
<event>
12    1  0.1504874E-007  0.1691724E+04  0.7818608E-02  0.8766099E-01
          2   -1    0    0  501    0  0.00000000000E+00  0.00000000000E+00  0.89799959744E+03  0.89799959744E+03  0.00000000000E+00 0. -1.
         -2   -1    0    0    0  501 -0.00000000000E+00 -0.00000000000E+00 -0.79675160185E+03  0.79675160185E+03  0.00000000000E+00 0.  1.
         23    2    1    2    0    0 -0.47490950569E+02 -0.45200270394E+03 -0.36243045495E+03  0.58826797796E+03  0.90230507399E+02 0.  0.
        254    2    1    2    0    0  0.47490950569E+02  0.45200270394E+03  0.46367845054E+03  0.11064832213E+04  0.89596070162E+03 0.  0.
        -24    2    4    4    0    0 -0.39538300034E+03  0.65729724670E+02  0.22757512142E+03  0.46782653059E+03  0.80144327125E+02 0.  0.
         24    2    4    4    0    0  0.44287395091E+03  0.38627297927E+03  0.23610332911E+03  0.63865669075E+03  0.82422301048E+02 0.  0.
         11    1    3    3    0    0 -0.38816496309E+02 -0.13239474845E+03 -0.15318902126E+03  0.20616004957E+03  0.00000000000E+00 0. -1.
        -11    1    3    3    0    0 -0.86744542600E+01 -0.31960795549E+03 -0.20924143368E+03  0.38210792839E+03  0.00000000000E+00 0.  1.
          2    1    6    6  502    0  0.43083083380E+03  0.35185106205E+03  0.21388786090E+03  0.59595502705E+03  0.00000000000E+00 0. -1.
          3    1    5    5  503    0 -0.37408750549E+03  0.73006583396E+02  0.19472218584E+03  0.42800485119E+03  0.00000000000E+00 0. -1.
         -4    1    5    5    0  503 -0.21295494846E+02 -0.72768587266E+01  0.32852935582E+02  0.39821679397E+02  0.00000000000E+00 0.  1.
         -1    1    6    6    0  502  0.12043117103E+02  0.34421917223E+02  0.22215468216E+02  0.42701663702E+02  0.00000000000E+00 0.  1.
<mgrwt>
<rscale>  0 0.16917241E+04</rscale>
<asrwt>0</asrwt>
<pdfrwt beam="1">  1        2 0.13815378E+00 0.16917241E+04</pdfrwt>
<pdfrwt beam="2">  1       -2 0.12257717E+00 0.16917241E+04</pdfrwt>
<totfact> 0.14103391E+01</totfact>
</mgrwt>
</event>
<event>
12    1  0.1504874E-007  0.2758019E+04  0.7818608E-02  0.8316422E-01
         -2   -1    0    0    0  501 -0.00000000000E+00  0.00000000000E+00  0.10439176255E+04  0.10439176255E+04  0.00000000000E+00 0.  1.
          2   -1    0    0  501    0  0.00000000000E+00 -0.00000000000E+00 -0.18216637936E+04  0.18216637936E+04  0.00000000000E+00 0. -1.
         23    2    1    2    0    0 -0.45098592714E+02 -0.73034496662E+03 -0.13712346254E+04  0.15579000316E+04  0.10644462172E+03 0.  0.
        254    2    1    2    0    0  0.45098592714E+02  0.73034496662E+03  0.59348845724E+03  0.13076813875E+04  0.90684310051E+03 0.  0.
        -24    2    4    4    0    0  0.38429968720E+03  0.50696993722E+03  0.62123089152E+03  0.89275559426E+03  0.79874674858E+02 0.  0.
         24    2    4    4    0    0 -0.33920109449E+03  0.22337502940E+03 -0.27742434285E+02  0.41492579321E+03  0.80249516834E+02 0.  0.
         11    1    3    3    0    0 -0.68945272881E+02 -0.64007261084E+03 -0.11534403077E+04  0.13209356310E+04  0.00000000000E+00 0. -1.
        -11    1    3    3    0    0  0.23846680167E+02 -0.90272355781E+02 -0.21779431766E+03  0.23696440066E+03  0.00000000000E+00 0.  1.
          4    1    6    6  502    0 -0.61621047141E+02  0.87951091812E+01 -0.14038410556E+02  0.63808967764E+02  0.00000000000E+00 0. -1.
          3    1    5    5  503    0  0.11111739593E+03  0.20784765651E+03  0.21382350692E+03  0.31822667409E+03  0.00000000000E+00 0. -1.
         -4    1    5    5    0  503  0.27318229127E+03  0.29912228070E+03  0.40740738460E+03  0.57452892017E+03  0.00000000000E+00 0.  1.
         -3    1    6    6    0  502 -0.27758004734E+03  0.21457992022E+03 -0.13704023729E+02  0.35111682545E+03  0.00000000000E+00 0.  1.
<mgrwt>
<rscale>  0 0.27580188E+04</rscale>
<asrwt>0</asrwt>
<pdfrwt beam="1">  1        2 0.28025597E+00 0.27580188E+04</pdfrwt>
<pdfrwt beam="2">  1       -2 0.16060271E+00 0.27580188E+04</pdfrwt>
<totfact> 0.18273936E+00</totfact>
</mgrwt>
</event>
<event>
12    1  0.1504874E-007  0.1764677E+04  0.7818608E-02  0.8725313E-01
         -2   -1    0    0    0  501 -0.00000000000E+00  0.00000000000E+00  0.12508628602E+04  0.12508628602E+04  0.00000000000E+00 0.  1.
          2   -1    0    0  501    0  0.00000000000E+00 -0.00000000000E+00 -0.62238736815E+03  0.62238736815E+03  0.00000000000E+00 0. -1.
         23    2    1    2    0    0 -0.52651991215E+03 -0.40056938287E+03  0.27338717268E+03  0.72181077742E+03  0.92688747061E+02 0.  0.
        254    2    1    2    0    0  0.52651991215E+03  0.40056938287E+03  0.35508831941E+03  0.11514394510E+04  0.87295248799E+03 0.  0.
        -24    2    4    4    0    0  0.52291193125E+03 -0.13540623006E+03  0.11346202317E+03  0.55793826618E+03  0.81545957510E+02 0.  0.
         24    2    4    4    0    0  0.36079809010E+01  0.53597561292E+03  0.24162629624E+03  0.59350118479E+03  0.81101875077E+02 0.  0.
         13    1    3    3    0    0 -0.86772897459E+02 -0.10417382187E+03  0.32862247544E+02  0.13950501142E+03  0.00000000000E+00 0. -1.
        -13    1    3    3    0    0 -0.43974701469E+03 -0.29639556099E+03  0.24052492514E+03  0.58230576600E+03  0.00000000000E+00 0.  1.
          4    1    6    6  502    0  0.24728341315E+02  0.49010745785E+03  0.22852544315E+03  0.54133232794E+03  0.00000000000E+00 0. -1.
          3    1    5    5  503    0  0.25423043885E+03 -0.10520948179E+03  0.42454172536E+02  0.27839631438E+03  0.00000000000E+00 0. -1.
         -4    1    5    5    0  503  0.26868149239E+03 -0.30196748269E+02  0.71007850632E+02  0.27954195179E+03  0.00000000000E+00 0.  1.
         -3    1    6    6    0  502 -0.21120360414E+02  0.45868155073E+02  0.13100853093E+02  0.52168856855E+02  0.00000000000E+00 0.  1.
<mgrwt>
<rscale>  0 0.17646770E+04</rscale>
<asrwt>0</asrwt>
<pdfrwt beam="1">  1        2 0.95751902E-01 0.17646770E+04</pdfrwt>
<pdfrwt beam="2">  1       -2 0.19244044E+00 0.17646770E+04</pdfrwt>
<totfact> 0.66973706E+00</totfact>
</mgrwt>
</event>
<event>
12    1  0.1504874E-007  0.1386776E+04  0.7818608E-02  0.8963447E-01
         -1   -1    0    0    0  501 -0.00000000000E+00  0.00000000000E+00  0.60828624658E+03  0.60828624658E+03  0.00000000000E+00 0.  1.
          1   -1    0    0  501    0  0.00000000000E+00 -0.00000000000E+00 -0.79039598680E+03  0.79039598680E+03  0.00000000000E+00 0. -1.
         23    2    1    2    0    0  0.20481642281E+03  0.21383133566E+03 -0.27471123753E+03  0.41422946994E+03  0.91903115153E+02 0.  0.
        254    2    1    2    0    0 -0.20481642281E+03 -0.21383133566E+03  0.92601497311E+02  0.98445276345E+03  0.93429042540E+03 0.  0.
        -24    2    4    4    0    0 -0.65883215807E+02  0.14718662172E+03 -0.34880767996E+03  0.39198584126E+03  0.77340819773E+02 0.  0.
         24    2    4    4    0    0 -0.13893320701E+03 -0.36101795738E+03  0.44140917728E+03  0.59246692220E+03  0.80861551765E+02 0.  0.
         11    1    3    3    0    0 -0.18889198385E+00  0.37884372014E+02 -0.50632130518E+02  0.63236650480E+02  0.00000000000E+00 0.  1.
        -11    1    3    3    0    0  0.20500531480E+03  0.17594696364E+03 -0.22407910701E+03  0.35099281946E+03  0.00000000000E+00 0. -1.
          4    1    6    6  502    0 -0.22592421778E+02 -0.69385818790E+02  0.13659341575E+03  0.15486307048E+03  0.00000000000E+00 0. -1.
          3    1    5    5  503    0 -0.20884620537E+02  0.30005796138E+02 -0.23909415351E+02  0.43682666119E+02  0.00000000000E+00 0. -1.
         -4    1    5    5    0  503 -0.44998595269E+02  0.11718082558E+03 -0.32489826461E+03  0.34830317514E+03  0.00000000000E+00 0.  1.
         -3    1    6    6    0  502 -0.11634078523E+03 -0.29163213859E+03  0.30481576153E+03  0.43760385172E+03  0.00000000000E+00 0.  1.
<mgrwt>
<rscale>  0 0.13867761E+04</rscale>
<asrwt>0</asrwt>
<pdfrwt beam="1">  1        1 0.12159938E+00 0.13867761E+04</pdfrwt>
<pdfrwt beam="2">  1       -1 0.93582500E-01 0.13867761E+04</pdfrwt>
<totfact> 0.24377977E+01</totfact>
</mgrwt>
</event>
<event>
12    1  0.1504874E-007  0.1341318E+04  0.7818608E-02  0.8997426E-01
         -2   -1    0    0    0  501 -0.00000000000E+00  0.00000000000E+00  0.26414118744E+03  0.26414118744E+03  0.00000000000E+00 0.  1.
          2   -1    0    0  501    0  0.00000000000E+00 -0.00000000000E+00 -0.17028148358E+04  0.17028148358E+04  0.00000000000E+00 0. -1.
         23    2    1    2    0    0  0.93407377321E+02  0.48914012011E+02 -0.89341392173E+03  0.90418263516E+03  0.90776007145E+02 0.  0.
        254    2    1    2    0    0 -0.93407377321E+02 -0.48914012011E+02 -0.54525972666E+03  0.10627733881E+04  0.90612448716E+03 0.  0.
        -24    2    4    4    0    0 -0.85893323562E+02  0.39625094309E+03 -0.93989459487E+02  0.42391208331E+03  0.80467154470E+02 0.  0.
         24    2    4    4    0    0 -0.75140537585E+01 -0.44516495510E+03 -0.45127026717E+03  0.63886130480E+03  0.79187211630E+02 0.  0.
         11    1    3    3    0    0 -0.62434152082E+01  0.37788105838E+02 -0.21220434067E+03  0.21563302941E+03  0.00000000000E+00 0. -1.
        -11    1    3    3    0    0  0.99650792529E+02  0.11125906173E+02 -0.68120958107E+03  0.68854960575E+03  0.00000000000E+00 0.  1.
          4    1    6    6  502    0  0.13642952662E+01 -0.42819813622E+03 -0.40761116139E+03  0.59118724957E+03  0.00000000000E+00 0. -1.
          3    1    5    5  503    0 -0.83457965549E+02  0.39523198212E+03 -0.82710431882E+02  0.41232822757E+03  0.00000000000E+00 0. -1.
         -4    1    5    5    0  503 -0.24353580129E+01  0.10189609653E+01 -0.11279027605E+02  0.11583855741E+02  0.00000000000E+00 0.  1.
         -3    1    6    6    0  502 -0.88783490247E+01 -0.16966818876E+02 -0.43659105787E+02  0.47674055233E+02  0.00000000000E+00 0.  1.
<mgrwt>
<rscale>  0 0.13413181E+04</rscale>
<asrwt>0</asrwt>
<pdfrwt beam="1">  1        2 0.26197151E+00 0.13413181E+04</pdfrwt>
<pdfrwt beam="2">  1       -2 0.40637107E-01 0.13413181E+04</pdfrwt>
<totfact> 0.54750998E+01</totfact>
</mgrwt>
</event>
<event>
12    1  0.1504874E-007  0.2320165E+04  0.7818608E-02  0.8470013E-01
         -1   -1    0    0    0  501 -0.00000000000E+00  0.00000000000E+00  0.10989462284E+04  0.10989462284E+04  0.00000000000E+00 0.  1.
          1   -1    0    0  501    0  0.00000000000E+00 -0.00000000000E+00 -0.12246199371E+04  0.12246199371E+04  0.00000000000E+00 0. -1.
         23    2    1    2    0    0  0.94046543324E+03  0.65206888749E+02 -0.42093403899E+03  0.10363518809E+04  0.90069897787E+02 0.  0.
        254    2    1    2    0    0 -0.94046543324E+03 -0.65206888749E+02  0.29526033031E+03  0.12872142846E+04  0.82523619785E+03 0.  0.
        -24    2    4    4    0    0 -0.99633799367E+03 -0.21183054950E+02  0.45111279962E+03  0.10970548715E+04  0.82997070792E+02 0.  0.
         24    2    4    4    0    0  0.55872560426E+02 -0.44023833799E+02 -0.15585246931E+03  0.19015941301E+03  0.82527384642E+02 0.  0.
         11    1    3    3    0    0  0.78456290506E+03  0.23055639398E+02 -0.36297193943E+03  0.86476536894E+03  0.00000000000E+00 0. -1.
        -11    1    3    3    0    0  0.15590252819E+03  0.42151249352E+02 -0.57962099558E+02  0.17158651200E+03  0.00000000000E+00 0.  1.
          2    1    6    6  502    0  0.83623191421E+01 -0.11214230105E+02  0.82193197695E+01  0.16224812965E+02  0.00000000000E+00 0. -1.
          3    1    5    5  503    0 -0.60186835618E+03  0.13145118998E+02  0.30621249453E+03  0.67541424632E+03  0.00000000000E+00 0. -1.
         -4    1    5    5    0  503 -0.39446963749E+03 -0.34328173949E+02  0.14490030508E+03  0.42164062523E+03  0.00000000000E+00 0.  1.
         -1    1    6    6    0  502  0.47510241284E+02 -0.32809603694E+02 -0.16407178908E+03  0.17393460004E+03  0.00000000000E+00 0.  1.
<mgrwt>
<rscale>  0 0.23201650E+04</rscale>
<asrwt>0</asrwt>
<pdfrwt beam="1">  1        1 0.18840307E+00 0.23201650E+04</pdfrwt>
<pdfrwt beam="2">  1       -1 0.16906865E+00 0.23201650E+04</pdfrwt>
<totfact> 0.23127387E+00</totfact>
</mgrwt>
</event>
<event>
12    1  0.1504874E-007  0.3058844E+04  0.7818608E-02  0.8227124E-01
         -2   -1    0    0    0  501 -0.00000000000E+00  0.00000000000E+00  0.10415045501E+04  0.10415045501E+04  0.00000000000E+00 0.  1.
          2   -1    0    0  501    0  0.00000000000E+00 -0.00000000000E+00 -0.22459165686E+04  0.22459165686E+04  0.00000000000E+00 0. -1.
         23    2    1    2    0    0 -0.11206537434E+04  0.49971034178E+03  0.17517436437E+03  0.12427008704E+04  0.89689224208E+02 0.  0.
        254    2    1    2    0    0  0.11206537434E+04 -0.49971034178E+03 -0.13795863829E+04  0.20447202484E+04  0.87866208981E+03 0.  0.
        -24    2    4    4    0    0  0.68972204887E+03 -0.69033034262E+03 -0.65942369851E+03  0.11804739330E+04  0.80041275381E+02 0.  0.
         24    2    4    4    0    0  0.43093169457E+03  0.19062000084E+03 -0.72016268436E+03  0.86424631537E+03  0.79052460975E+02 0.  0.
         11    1    3    3    0    0 -0.25298667386E+03  0.11117632389E+03  0.18500916724E+01  0.27634372615E+03  0.00000000000E+00 0. -1.
        -11    1    3    3    0    0 -0.86766706958E+03  0.38853401789E+03  0.17332427270E+03  0.96635714422E+03  0.00000000000E+00 0.  1.
          4    1    6    6  502    0  0.11196473682E+03  0.63849214719E+02 -0.25976969233E+03  0.28998813349E+03  0.00000000000E+00 0. -1.
          3    1    5    5  503    0  0.60759665138E+02 -0.33324982128E+02 -0.54232094781E+02  0.87996655879E+02  0.00000000000E+00 0. -1.
         -4    1    5    5    0  503  0.62896238373E+03 -0.65700536050E+03 -0.60519160373E+03  0.10924772772E+04  0.00000000000E+00 0.  1.
         -3    1    6    6    0  502  0.31896695775E+03  0.12677078613E+03 -0.46039299203E+03  0.57425818188E+03  0.00000000000E+00 0.  1.
<mgrwt>
<rscale>  0 0.30588444E+04</rscale>
<asrwt>0</asrwt>
<pdfrwt beam="1">  1        2 0.34552563E+00 0.30588444E+04</pdfrwt>
<pdfrwt beam="2">  1       -2 0.16023147E+00 0.30588444E+04</pdfrwt>
<totfact> 0.10397900E+00</totfact>
</mgrwt>
</event>
<event>
12    1  0.1504874E-007  0.1436757E+04  0.7818608E-02  0.8927634E-01
          2   -1    0    0  501    0  0.00000000000E+00  0.00000000000E+00  0.30260606523E+04  0.30260606523E+04  0.00000000000E+00 0. -1.
         -2   -1    0    0    0  501 -0.00000000000E+00 -0.00000000000E+00 -0.17054106078E+03  0.17054106078E+03  0.00000000000E+00 0.  1.
         23    2    1    2    0    0  0.21890234314E+03 -0.19427827178E+03  0.16941533219E+04  0.17216610304E+04  0.91098533039E+02 0.  0.
        254    2    1    2    0    0 -0.21890234314E+03  0.19427827178E+03  0.11613662696E+04  0.14749406827E+04  0.86082293333E+03 0.  0.
        -24    2    4    4    0    0 -0.49661660816E+03  0.11995129098E+03  0.39144740734E+03  0.64917785342E+03  0.84761105147E+02 0.  0.
         24    2    4    4    0    0  0.27771426502E+03  0.74326980798E+02  0.76991886226E+03  0.82576282926E+03  0.80370906829E+02 0.  0.
         13    1    3    3    0    0  0.24296514463E+02  0.30806712840E+01  0.24646609259E+03  0.24767992641E+03  0.00000000000E+00 0.  1.
        -13    1    3    3    0    0  0.19460582868E+03 -0.19735894306E+03  0.14476872293E+04  0.14739811040E+04  0.00000000000E+00 0. -1.
          2    1    6    6  502    0  0.73237831174E+02  0.57851689726E+02  0.24721028079E+03  0.26424140638E+03  0.00000000000E+00 0. -1.
          3    1    5    5  503    0 -0.40688450496E+03  0.68613528942E+02  0.29005876219E+03  0.50437773767E+03  0.00000000000E+00 0. -1.
         -4    1    5    5    0  503 -0.89732103199E+02  0.51337762037E+02  0.10138864516E+03  0.14480011575E+03  0.00000000000E+00 0.  1.
         -1    1    6    6    0  502  0.20447643385E+03  0.16475291071E+02  0.52270858147E+03  0.56152142288E+03  0.00000000000E+00 0.  1.
<mgrwt>
<rscale>  0 0.14367569E+04</rscale>
<asrwt>0</asrwt>
<pdfrwt beam="1">  1        2 0.46554775E+00 0.14367569E+04</pdfrwt>
<pdfrwt beam="2">  1       -2 0.26237088E-01 0.14367569E+04</pdfrwt>
<totfact> 0.21570638E+01</totfact>
</mgrwt>
</event>
<event>
12    1  0.1504874E-007  0.2503038E+04  0.7818608E-02  0.8401904E-01
         -1   -1    0    0    0  501 -0.00000000000E+00  0.00000000000E+00  0.10955298325E+04  0.10955298325E+04  0.00000000000E+00 0.  1.
          1   -1    0    0  501    0  0.00000000000E+00 -0.00000000000E+00 -0.14297186299E+04  0.14297186299E+04  0.00000000000E+00 0. -1.
         23    2    1    2    0    0  0.57024791587E+03 -0.91322979570E+03 -0.27266974116E+02  0.10809040774E+04  0.91862894358E+02 0.  0.
        254    2    1    2    0    0 -0.57024791587E+03  0.91322979570E+03 -0.30692182334E+03  0.14443443850E+04  0.91255594433E+03 0.  0.
        -24    2    4    4    0    0 -0.91541771108E+02  0.83590620029E+03  0.33385800668E+02  0.84525291185E+03  0.78859379606E+02 0.  0.
         24    2    4    4    0    0 -0.47870614476E+03  0.77323595406E+02 -0.34030762401E+03  0.59909147315E+03  0.89234538204E+02 0.  0.
         13    1    3    3    0    0  0.30887842624E+03 -0.45980902424E+03 -0.56071092144E+02  0.55675325625E+03  0.00000000000E+00 0.  1.
        -13    1    3    3    0    0  0.26136948962E+03 -0.45342077146E+03  0.28804118029E+02  0.52415082115E+03  0.00000000000E+00 0. -1.
          2    1    6    6  502    0 -0.35020965224E+03  0.18266822735E+02 -0.25905641314E+03  0.43599392487E+03  0.00000000000E+00 0. -1.
          3    1    5    5  503    0 -0.65735961557E+02  0.75225830808E+03  0.12364537005E+02  0.75522623133E+03  0.00000000000E+00 0. -1.
         -4    1    5    5    0  503 -0.25805809551E+02  0.83647892212E+02  0.21021263663E+02  0.90026680513E+02  0.00000000000E+00 0.  1.
         -1    1    6    6    0  502 -0.12849649252E+03  0.59056772671E+02 -0.81251210872E+02  0.16309754828E+03  0.00000000000E+00 0.  1.
<mgrwt>
<rscale>  0 0.25030377E+04</rscale>
<asrwt>0</asrwt>
<pdfrwt beam="1">  1        1 0.21995671E+00 0.25030377E+04</pdfrwt>
<pdfrwt beam="2">  1       -1 0.16854305E+00 0.25030377E+04</pdfrwt>
<totfact> 0.16405314E+00</totfact>
</mgrwt>
</event>
<event>
12    1  0.1504874E-007  0.2159833E+04  0.7818608E-02  0.8535335E-01
         -2   -1    0    0    0  501 -0.00000000000E+00  0.00000000000E+00  0.16203148036E+04  0.16203148036E+04  0.00000000000E+00 0.  1.
          2   -1    0    0  501    0  0.00000000000E+00 -0.00000000000E+00 -0.71974898328E+03  0.71974898328E+03  0.00000000000E+00 0. -1.
         23    2    1    2    0    0  0.21930256216E+03 -0.53117889154E+03  0.10647368607E+04  0.12133480580E+04  0.91127925331E+02 0.  0.
        254    2    1    2    0    0 -0.21930256216E+03  0.53117889154E+03 -0.16417104036E+03  0.11267157289E+04  0.95513955767E+03 0.  0.
        -24    2    4    4    0    0 -0.69970042091E+02 -0.27271148340E+03 -0.58921858766E+02  0.29845011836E+03  0.79582207453E+02 0.  0.
         24    2    4    4    0    0 -0.14933252007E+03  0.80389037494E+03 -0.10524918160E+03  0.82826561052E+03  0.80041207326E+02 0.  0.
         11    1    3    3    0    0  0.24366148234E+02 -0.19720079035E+02  0.91961260806E+02  0.97156904984E+02  0.00000000000E+00 0. -1.
        -11    1    3    3    0    0  0.19493641393E+03 -0.51145881251E+03  0.97277559989E+03  0.11161911530E+04  0.00000000000E+00 0.  1.
          2    1    6    6  502    0 -0.14081832075E+03  0.59032977667E+03 -0.60500651416E+02  0.60990111781E+03  0.00000000000E+00 0. -1.
          3    1    5    5  503    0 -0.40824333227E+02 -0.25476767181E+03 -0.47394554591E+02  0.26233458900E+03  0.00000000000E+00 0. -1.
         -4    1    5    5    0  503 -0.29145708863E+02 -0.17943811591E+02 -0.11527304174E+02  0.36115529362E+02  0.00000000000E+00 0.  1.
         -1    1    6    6    0  502 -0.85141993200E+01  0.21356059827E+03 -0.44748530182E+02  0.21836449271E+03  0.00000000000E+00 0.  1.
<mgrwt>
<rscale>  0 0.21598333E+04</rscale>
<asrwt>0</asrwt>
<pdfrwt beam="1">  1        2 0.11073061E+00 0.21598333E+04</pdfrwt>
<pdfrwt beam="2">  1       -2 0.24927920E+00 0.21598333E+04</pdfrwt>
<totfact> 0.23539184E+00</totfact>
</mgrwt>
</event>
<event>
12    1  0.1504874E-007  0.2639050E+04  0.7818608E-02  0.8355057E-01
         -2   -1    0    0    0  501 -0.00000000000E+00  0.00000000000E+00  0.11450648277E+04  0.11450648277E+04  0.00000000000E+00 0.  1.
          2   -1    0    0  501    0  0.00000000000E+00 -0.00000000000E+00 -0.15205655284E+04  0.15205655284E+04  0.00000000000E+00 0. -1.
         23    2    1    2    0    0  0.71899815428E+03  0.77370967816E+03  0.33122188642E+03  0.11106635202E+04  0.90997280363E+02 0.  0.
        254    2    1    2    0    0 -0.71899815428E+03 -0.77370967816E+03 -0.70672258713E+03  0.15549668360E+04  0.89603573245E+03 0.  0.
        -24    2    4    4    0    0 -0.40735819088E+03 -0.25389713868E+03 -0.80019656642E+03  0.93660351909E+03  0.80666934680E+02 0.  0.
         24    2    4    4    0    0 -0.31163996339E+03 -0.51981253948E+03  0.93473979288E+02  0.61836331687E+03  0.79443463282E+02 0.  0.
         11    1    3    3    0    0  0.15663471781E+03  0.17264380234E+03  0.34283344757E+02  0.23561762463E+03  0.00000000000E+00 0. -1.
        -11    1    3    3    0    0  0.56236343647E+03  0.60106587582E+03  0.29693854166E+03  0.87504589552E+03  0.00000000000E+00 0.  1.
          4    1    6    6  502    0 -0.53550645729E+02 -0.97899584170E+02  0.48689856739E+02  0.12174852109E+03  0.00000000000E+00 0. -1.
          3    1    5    5  503    0 -0.17635308510E+03 -0.11023203071E+03 -0.42509980757E+03  0.47324555741E+03  0.00000000000E+00 0. -1.
         -4    1    5    5    0  503 -0.23100510578E+03 -0.14366510797E+03 -0.37509675885E+03  0.46335796167E+03  0.00000000000E+00 0.  1.
         -3    1    6    6    0  502 -0.25808931767E+03 -0.42191295531E+03  0.44784122550E+02  0.49661479577E+03  0.00000000000E+00 0.  1.
<mgrwt>
<rscale>  0 0.26390499E+04</rscale>
<asrwt>0</asrwt>
<pdfrwt beam="1">  1        2 0.23393316E+00 0.26390499E+04</pdfrwt>
<pdfrwt beam="2">  1       -2 0.17616382E+00 0.26390499E+04</pdfrwt>
<totfact> 0.21014891E+00</totfact>
</mgrwt>
</event>
<event>
12    1  0.1504874E-007  0.4715400E+04  0.7818608E-02  0.7873975E-01
          1   -1    0    0  501    0  0.00000000000E+00  0.00000000000E+00  0.20467573108E+04  0.20467573108E+04  0.00000000000E+00 0. -1.
         -1   -1    0    0    0  501 -0.00000000000E+00 -0.00000000000E+00 -0.27158808994E+04  0.27158808994E+04  0.00000000000E+00 0.  1.
         23    2    1    2    0    0  0.83812549813E+03 -0.13843458986E+04 -0.19353763330E+04  0.25244766236E+04  0.91830032726E+02 0.  0.
        254    2    1    2    0    0 -0.83812549813E+03  0.13843458986E+04  0.12662527445E+04  0.22381615866E+04  0.88718845655E+03 0.  0.
        -24    2    4    4    0    0 -0.35235935813E+03  0.16394662658E+02  0.10314388583E+03  0.37634541670E+03  0.81063612429E+02 0.  0.
         24    2    4    4    0    0 -0.48576614000E+03  0.13679512359E+04  0.11631088587E+04  0.18618161699E+04  0.79233243864E+02 0.  0.
         13    1    3    3    0    0  0.34051902746E+03 -0.55227983900E+03 -0.84615362354E+03  0.10662749098E+04  0.00000000000E+00 0.  1.
        -13    1    3    3    0    0  0.49760647067E+03 -0.83206605956E+03 -0.10892227095E+04  0.14582017138E+04  0.00000000000E+00 0. -1.
          2    1    6    6  502    0 -0.46229931380E+03  0.12335354353E+04  0.10575615430E+04  0.16893095462E+04  0.00000000000E+00 0. -1.
          1    1    5    5  503    0 -0.32129988918E+03 -0.93134046673E+01  0.87851135498E+02  0.33322391916E+03  0.00000000000E+00 0. -1.
         -2    1    5    5    0  503 -0.31059468952E+02  0.25708067325E+02  0.15292750332E+02  0.43121497537E+02  0.00000000000E+00 0.  1.
         -1    1    6    6    0  502 -0.23466826206E+02  0.13441580062E+03  0.10554731563E+03  0.17250662372E+03  0.00000000000E+00 0.  1.
<mgrwt>
<rscale>  0 0.47153999E+04</rscale>
<asrwt>0</asrwt>
<pdfrwt beam="1">  1        1 0.31488574E+00 0.47153999E+04</pdfrwt>
<pdfrwt beam="2">  1       -1 0.41782783E+00 0.47153999E+04</pdfrwt>
<totfact> 0.11042628E-02</totfact>
</mgrwt>
</event>
<event>
12    1  0.1504874E-007  0.3997617E+04  0.7818608E-02  0.8005027E-01
         -2   -1    0    0    0  501 -0.00000000000E+00  0.00000000000E+00  0.12468967239E+04  0.12468967239E+04  0.00000000000E+00 0.  1.
          2   -1    0    0  501    0  0.00000000000E+00 -0.00000000000E+00 -0.32041429106E+04  0.32041429106E+04  0.00000000000E+00 0. -1.
         23    2    1    2    0    0  0.76839851870E+03 -0.15387546862E+04 -0.38498792532E+02  0.17226592233E+04  0.88715131303E+02 0.  0.
        254    2    1    2    0    0 -0.76839851870E+03  0.15387546862E+04 -0.19187473941E+04  0.27283804113E+04  0.89680869650E+03 0.  0.
        -24    2    4    4    0    0 -0.23496629420E+03  0.13106182023E+04 -0.11471819880E+04  0.17597465874E+04  0.88047183044E+02 0.  0.
         24    2    4    4    0    0 -0.53343222450E+03  0.22813648391E+03 -0.77156540611E+03  0.96863382390E+03  0.79637399890E+02 0.  0.
         13    1    3    3    0    0  0.52943152841E+02 -0.12345612252E+03 -0.25608246213E+02  0.13674857913E+03  0.00000000000E+00 0. -1.
        -13    1    3    3    0    0  0.71545536586E+03 -0.14152985637E+04 -0.12890546318E+02  0.15859106441E+04  0.00000000000E+00 0.  1.
          2    1    6    6  502    0 -0.32158335882E+03  0.15745280041E+03 -0.41742329553E+03  0.54995404233E+03  0.00000000000E+00 0. -1.
          3    1    5    5  503    0 -0.40104209639E+02  0.32737525708E+03 -0.32893378838E+03  0.46581148946E+03  0.00000000000E+00 0. -1.
         -4    1    5    5    0  503 -0.19486208456E+03  0.98324294524E+03 -0.81824819964E+03  0.12939350979E+04  0.00000000000E+00 0.  1.
         -1    1    6    6    0  502 -0.21184886569E+03  0.70683683504E+02 -0.35414211058E+03  0.41867978157E+03  0.00000000000E+00 0.  1.
<mgrwt>
<rscale>  0 0.39976169E+04</rscale>
<asrwt>0</asrwt>
<pdfrwt beam="1">  1        2 0.49294506E+00 0.39976169E+04</pdfrwt>
<pdfrwt beam="2">  1       -2 0.19183027E+00 0.39976169E+04</pdfrwt>
<totfact> 0.15306519E-01</totfact>
</mgrwt>
</event>
<event>
12    1  0.1504874E-007  0.2070445E+04  0.7818608E-02  0.8574376E-01
         -2   -1    0    0    0  501 -0.00000000000E+00  0.00000000000E+00  0.36712436512E+03  0.36712436512E+03  0.00000000000E+00 0.  1.
          2   -1    0    0  501    0  0.00000000000E+00 -0.00000000000E+00 -0.29191339524E+04  0.29191339524E+04  0.00000000000E+00 0. -1.
         23    2    1    2    0    0 -0.88971970026E+02  0.71165203643E+03 -0.33905401869E+03  0.79837215942E+03  0.89865705081E+02 0.  0.
        254    2    1    2    0    0  0.88971970026E+02 -0.71165203643E+03 -0.22129555686E+04  0.24878861581E+04  0.88206607165E+03 0.  0.
        -24    2    4    4    0    0  0.24979216932E+03 -0.62189858233E+03 -0.21817353163E+04  0.22837297765E+04  0.79364522149E+02 0.  0.
         24    2    4    4    0    0 -0.16082019930E+03 -0.89753454092E+02 -0.31220252351E+02  0.20415638161E+03  0.82379032353E+02 0.  0.
         13    1    3    3    0    0 -0.10387882316E+02  0.76267046677E+01 -0.13775908313E+02  0.18863996739E+02  0.00000000000E+00 0. -1.
        -13    1    3    3    0    0 -0.78584087710E+02  0.70402533176E+03 -0.32527811038E+03  0.77950816268E+03  0.00000000000E+00 0.  1.
          2    1    6    6  502    0 -0.73046461823E+01 -0.68513187710E+01  0.19962448799E+02  0.22333781292E+02  0.00000000000E+00 0. -1.
          3    1    5    5  503    0  0.22209449305E+01  0.41834160170E+00 -0.31980482518E+02  0.32060238117E+02  0.00000000000E+00 0. -1.
         -4    1    5    5    0  503  0.24757122439E+03 -0.62231692394E+03 -0.21497548337E+04  0.22516695384E+04  0.00000000000E+00 0.  1.
         -1    1    6    6    0  502 -0.15351555311E+03 -0.82902135321E+02 -0.51182701150E+02  0.18182260032E+03  0.00000000000E+00 0.  1.
<mgrwt>
<rscale>  0 0.20704446E+04</rscale>
<asrwt>0</asrwt>
<pdfrwt beam="1">  1        2 0.44909754E+00 0.20704446E+04</pdfrwt>
<pdfrwt beam="2">  1       -2 0.56480671E-01 0.20704446E+04</pdfrwt>
<totfact> 0.53209984E+00</totfact>
</mgrwt>
</event>
<event>
12    1  0.1504874E-007  0.2637613E+04  0.7818608E-02  0.8355536E-01
          1   -1    0    0  501    0  0.00000000000E+00  0.00000000000E+00  0.44812199772E+03  0.44812199772E+03  0.00000000000E+00 0. -1.
         -1   -1    0    0    0  501 -0.00000000000E+00 -0.00000000000E+00 -0.38811975387E+04  0.38811975387E+04  0.00000000000E+00 0.  1.
         23    2    1    2    0    0 -0.10717698403E+04 -0.41634694057E+03 -0.17822615970E+04  0.21229780843E+04  0.92434737955E+02 0.  0.
        254    2    1    2    0    0  0.10717698403E+04  0.41634694057E+03 -0.16508139439E+04  0.22063414521E+04  0.90593628918E+03 0.  0.
        -24    2    4    4    0    0  0.49114372355E+03  0.72037743303E+02 -0.99681231917E+02  0.51281350510E+03  0.81423272886E+02 0.  0.
         24    2    4    4    0    0  0.58062611676E+03  0.34430919727E+03 -0.15511327120E+04  0.16935279470E+04  0.79678768021E+02 0.  0.
         13    1    3    3    0    0 -0.70919931606E+03 -0.25936824742E+03 -0.10925696192E+04  0.13281355091E+04  0.00000000000E+00 0.  1.
        -13    1    3    3    0    0 -0.36257052426E+03 -0.15697869316E+03 -0.68969197779E+03  0.79484257523E+03  0.00000000000E+00 0. -1.
          2    1    6    6  502    0  0.25606320969E+03  0.13422312881E+03 -0.75563849100E+03  0.80905731858E+03  0.00000000000E+00 0. -1.
          1    1    5    5  503    0  0.17766757549E+03  0.56857853555E+02 -0.11889720867E+02  0.18692230566E+03  0.00000000000E+00 0. -1.
         -2    1    5    5    0  503  0.31347614806E+03  0.15179889748E+02 -0.87791511050E+02  0.32589119943E+03  0.00000000000E+00 0.  1.
         -3    1    6    6    0  502  0.32456290707E+03  0.21008606846E+03 -0.79549422101E+03  0.88447062838E+03  0.00000000000E+00 0.  1.
<mgrwt>
<rscale>  0 0.26376126E+04</rscale>
<asrwt>0</asrwt>
<pdfrwt beam="1">  1        1 0.68941848E-01 0.26376126E+04</pdfrwt>
<pdfrwt beam="2">  1       -1 0.59710729E+00 0.26376126E+04</pdfrwt>
<totfact> 0.20154775E-02</totfact>
</mgrwt>
</event>
<event>
12    1  0.1504874E-007  0.1406538E+04  0.7818608E-02  0.8949100E-01
         -2   -1    0    0    0  501 -0.00000000000E+00  0.00000000000E+00  0.19134644495E+03  0.19134644495E+03  0.00000000000E+00 0. -1.
          2   -1    0    0  501    0  0.00000000000E+00 -0.00000000000E+00 -0.25847722251E+04  0.25847722251E+04  0.00000000000E+00 0.  1.
         23    2    1    2    0    0  0.30183356587E+03 -0.54861255220E+02 -0.17969855000E+03  0.36676129638E+03  0.90050101858E+02 0.  0.
        254    2    1    2    0    0 -0.30183356587E+03  0.54861255220E+02 -0.22137272302E+04  0.24093573737E+04  0.90016745427E+03 0.  0.
        -24    2    4    4    0    0 -0.57123372844E+03  0.21903266904E+03 -0.12890437558E+04  0.14290326355E+04  0.78849137797E+02 0.  0.
         24    2    4    4    0    0  0.26940016257E+03 -0.16417141382E+03 -0.92468347443E+03  0.98032473817E+03  0.80426138067E+02 0.  0.
         13    1    3    3    0    0  0.23582144396E+03 -0.75453009237E+02 -0.16023875426E+03  0.29492603887E+03  0.00000000000E+00 0.  1.
        -13    1    3    3    0    0  0.66012121909E+02  0.20591754017E+02 -0.19459795733E+02  0.71835257515E+02  0.00000000000E+00 0. -1.
          4    1    6    6  502    0  0.14193281678E+03 -0.87091743265E+02 -0.60740822289E+03  0.62982112180E+03  0.00000000000E+00 0. -1.
          3    1    5    5  503    0 -0.52619739789E+03  0.18971666537E+03 -0.11245029811E+04  0.12559391184E+04  0.00000000000E+00 0. -1.
         -4    1    5    5    0  503 -0.45036330552E+02  0.29316003671E+02 -0.16454077469E+03  0.17309351714E+03  0.00000000000E+00 0.  1.
         -3    1    6    6    0  502  0.12746734579E+03 -0.77079670552E+02 -0.31727525153E+03  0.35050361637E+03  0.00000000000E+00 0.  1.
<mgrwt>
<rscale>  0 0.14065376E+04</rscale>
<asrwt>0</asrwt>
<pdfrwt beam="1">  1        2 0.39765726E+00 0.14065376E+04</pdfrwt>
<pdfrwt beam="2">  1       -2 0.29437915E-01 0.14065376E+04</pdfrwt>
<totfact> 0.32244130E+01</totfact>
</mgrwt>
</event>
<event>
12    1  0.1504874E-007  0.1756836E+04  0.7818608E-02  0.8729596E-01
         -1   -1    0    0    0  501 -0.00000000000E+00  0.00000000000E+00  0.11821192736E+04  0.11821192736E+04  0.00000000000E+00 0.  1.
          1   -1    0    0  501    0  0.00000000000E+00 -0.00000000000E+00 -0.65274170140E+03  0.65274170140E+03  0.00000000000E+00 0. -1.
         23    2    1    2    0    0 -0.15395120604E+03  0.55484116416E+02  0.84087471876E+03  0.86181425163E+03  0.94202179638E+02 0.  0.
        254    2    1    2    0    0  0.15395120604E+03 -0.55484116416E+02 -0.31149714654E+03  0.97304672339E+03  0.90719898180E+03 0.  0.
        -24    2    4    4    0    0 -0.41805481691E+02 -0.45256121029E+03 -0.90756881821E+02  0.47026054072E+03  0.79679465362E+02 0.  0.
         24    2    4    4    0    0  0.19575668773E+03  0.39707709387E+03 -0.22074026472E+03  0.50278618267E+03  0.89870917132E+02 0.  0.
         13    1    3    3    0    0 -0.65091579111E+01  0.31781484345E+02  0.26144384510E+03  0.26344888693E+03  0.00000000000E+00 0. -1.
        -13    1    3    3    0    0 -0.14744204813E+03  0.23702632071E+02  0.57943087366E+03  0.59836536470E+03  0.00000000000E+00 0.  1.
          2    1    6    6  502    0  0.43987485324E+02  0.61051573910E+02 -0.75225539571E+02  0.10640054204E+03  0.00000000000E+00 0. -1.
          1    1    5    5  503    0 -0.15317271319E+02 -0.13615803048E+02  0.27708700202E+01  0.20680585435E+02  0.00000000000E+00 0. -1.
         -2    1    5    5    0  503 -0.26488210372E+02 -0.43894540724E+03 -0.93527751841E+02  0.44957995528E+03  0.00000000000E+00 0.  1.
         -1    1    6    6    0  502  0.15176920240E+03  0.33602551996E+03 -0.14551472515E+03  0.39638564063E+03  0.00000000000E+00 0.  1.
<mgrwt>
<rscale>  0 0.17568364E+04</rscale>
<asrwt>0</asrwt>
<pdfrwt beam="1">  1        1 0.10042180E+00 0.17568364E+04</pdfrwt>
<pdfrwt beam="2">  1       -1 0.18186450E+00 0.17568364E+04</pdfrwt>
<totfact> 0.57837942E+00</totfact>
</mgrwt>
</event>
<event>
12    1  0.1504874E-007  0.1741458E+04  0.7818608E-02  0.8738066E-01
         -1   -1    0    0    0  501 -0.00000000000E+00  0.00000000000E+00  0.11424553704E+04  0.11424553704E+04  0.00000000000E+00 0.  1.
          1   -1    0    0  501    0  0.00000000000E+00 -0.00000000000E+00 -0.66363125005E+03  0.66363125005E+03  0.00000000000E+00 0. -1.
         23    2    1    2    0    0 -0.61882778516E+03 -0.13461055737E+03  0.13275334224E+03  0.65352085296E+03  0.91641832876E+02 0.  0.
        254    2    1    2    0    0  0.61882778516E+03  0.13461055737E+03  0.34607077813E+03  0.11525657675E+04  0.89865178748E+03 0.  0.
        -24    2    4    4    0    0  0.26666972427E+03  0.50459465891E+03  0.12335027020E+03  0.58966602821E+03  0.82232743040E+02 0.  0.
         24    2    4    4    0    0  0.35215806088E+03 -0.36998410154E+03  0.22272050793E+03  0.56289973930E+03  0.79675320014E+02 0.  0.
         11    1    3    3    0    0 -0.89439134959E+02  0.37102635533E+00  0.45237698160E+02  0.10022946602E+03  0.00000000000E+00 0.  1.
        -11    1    3    3    0    0 -0.52938865020E+03 -0.13498158372E+03  0.87515644085E+02  0.55329138694E+03  0.00000000000E+00 0. -1.
          2    1    6    6  502    0  0.26964176991E+03 -0.26663651971E+03  0.19997547533E+03  0.42870958522E+03  0.00000000000E+00 0. -1.
          3    1    5    5  503    0  0.21640109428E+03  0.46319666199E+03  0.10392540257E+03  0.52170975704E+03  0.00000000000E+00 0. -1.
         -4    1    5    5    0  503  0.50268629991E+02  0.41397996914E+02  0.19424867630E+02  0.67956271176E+02  0.00000000000E+00 0.  1.
         -3    1    6    6    0  502  0.82516290970E+02 -0.10334758183E+03  0.22745032598E+02  0.13419015409E+03  0.00000000000E+00 0.  1.
<mgrwt>
<rscale>  0 0.17414581E+04</rscale>
<asrwt>0</asrwt>
<pdfrwt beam="1">  1        1 0.10209712E+00 0.17414581E+04</pdfrwt>
<pdfrwt beam="2">  1       -1 0.17576236E+00 0.17414581E+04</pdfrwt>
<totfact> 0.62528515E+00</totfact>
</mgrwt>
</event>
<event>
12    1  0.1504874E-007  0.2631533E+04  0.7818608E-02  0.8357568E-01
          1   -1    0    0  501    0  0.00000000000E+00  0.00000000000E+00  0.73186028269E+03  0.73186028269E+03  0.00000000000E+00 0. -1.
         -1   -1    0    0    0  501 -0.00000000000E+00 -0.00000000000E+00 -0.23655358467E+04  0.23655358467E+04  0.00000000000E+00 0.  1.
         23    2    1    2    0    0 -0.57932646759E+03 -0.15459957777E+03 -0.18905794069E+04  0.19854112574E+04  0.89706084567E+02 0.  0.
        254    2    1    2    0    0  0.57932646759E+03  0.15459957777E+03  0.25690384288E+03  0.11119848720E+04  0.90055015720E+03 0.  0.
        -24    2    4    4    0    0  0.20044440197E+03  0.12778436521E+03  0.56270128327E+03  0.61673818103E+03  0.85008514089E+02 0.  0.
         24    2    4    4    0    0  0.37888206563E+03  0.26815212564E+02 -0.30579744039E+03  0.49524669100E+03  0.86524765969E+02 0.  0.
         13    1    3    3    0    0 -0.94508202068E+02 -0.44517811582E+02 -0.24424981271E+03  0.26565317015E+03  0.00000000000E+00 0. -1.
        -13    1    3    3    0    0 -0.48481826552E+03 -0.11008176619E+03 -0.16463295942E+04  0.17197580873E+04  0.00000000000E+00 0.  1.
          2    1    6    6  502    0  0.12159542062E+03  0.13253689270E+01 -0.49799902924E+02  0.13140484485E+03  0.00000000000E+00 0. -1.
          1    1    5    5  503    0  0.92572976265E+01  0.27216052426E+02  0.28362234475E+02  0.40383504225E+02  0.00000000000E+00 0. -1.
         -2    1    5    5    0  503  0.19118710434E+03  0.10056831278E+03  0.53433904880E+03  0.57635467680E+03  0.00000000000E+00 0.  1.
         -1    1    6    6    0  502  0.25728664501E+03  0.25489843637E+02 -0.25599753746E+03  0.36384184616E+03  0.00000000000E+00 0.  1.
<mgrwt>
<rscale>  0 0.26315332E+04</rscale>
<asrwt>0</asrwt>
<pdfrwt beam="1">  1        1 0.11259389E+00 0.26315332E+04</pdfrwt>
<pdfrwt beam="2">  1       -1 0.36392859E+00 0.26315332E+04</pdfrwt>
<totfact> 0.28045069E-01</totfact>
</mgrwt>
</event>
<event>
12    1  0.1504874E-007  0.2378279E+04  0.7818608E-02  0.8447681E-01
          1   -1    0    0  501    0  0.00000000000E+00  0.00000000000E+00  0.21344491537E+04  0.21344491537E+04  0.00000000000E+00 0. -1.
         -1   -1    0    0    0  501 -0.00000000000E+00 -0.00000000000E+00 -0.66249078303E+03  0.66249078303E+03  0.00000000000E+00 0.  1.
         23    2    1    2    0    0 -0.94610466914E+03 -0.26854946643E+03  0.33238134685E+03  0.10420288762E+04  0.90077512393E+02 0.  0.
        254    2    1    2    0    0  0.94610466914E+03  0.26854946643E+03  0.11395770238E+04  0.17549110605E+04  0.90213312558E+03 0.  0.
        -24    2    4    4    0    0  0.51970054290E+03 -0.25255295249E+02  0.29698140689E+02  0.52760925523E+03  0.82237840585E+02 0.  0.
         24    2    4    4    0    0  0.42640412624E+03  0.29380476168E+03  0.11098788831E+04  0.12273018053E+04  0.79352814684E+02 0.  0.
         11    1    3    3    0    0 -0.17345041243E+03 -0.15769218289E+02  0.46390270734E+02  0.18023809540E+03  0.00000000000E+00 0. -1.
        -11    1    3    3    0    0 -0.77265425671E+03 -0.25278024814E+03  0.28599107612E+03  0.86179078081E+03  0.00000000000E+00 0.  1.
          4    1    6    6  502    0  0.42192884407E+03  0.27980259504E+03  0.10950605676E+04  0.12064290648E+04  0.00000000000E+00 0. -1.
          1    1    5    5  503    0  0.34971223312E+03 -0.39651158068E+02 -0.11378751116E+02  0.35213681476E+03  0.00000000000E+00 0. -1.
         -2    1    5    5    0  503  0.16998830977E+03  0.14395862820E+02  0.41076891805E+02  0.17547244048E+03  0.00000000000E+00 0.  1.
         -3    1    6    6    0  502  0.44752821695E+01  0.14002166639E+02  0.14818315528E+02  0.20872740505E+02  0.00000000000E+00 0.  1.
<mgrwt>
<rscale>  0 0.23782791E+04</rscale>
<asrwt>0</asrwt>
<pdfrwt beam="1">  1        1 0.32837679E+00 0.23782791E+04</pdfrwt>
<pdfrwt beam="2">  1       -1 0.10192166E+00 0.23782791E+04</pdfrwt>
<totfact> 0.19771274E+00</totfact>
</mgrwt>
</event>
<event>
12    1  0.1504874E-007  0.1398723E+04  0.7818608E-02  0.8954743E-01
         -2   -1    0    0    0  501 -0.00000000000E+00  0.00000000000E+00  0.24075798162E+03  0.24075798162E+03  0.00000000000E+00 0. -1.
          2   -1    0    0  501    0  0.00000000000E+00 -0.00000000000E+00 -0.20315281792E+04  0.20315281792E+04  0.00000000000E+00 0.  1.
         23    2    1    2    0    0  0.13861913558E+02  0.30194440972E+03 -0.89287629501E+02  0.32815062443E+03  0.91367238768E+02 0.  0.
        254    2    1    2    0    0 -0.13861913558E+02 -0.30194440972E+03 -0.17014825681E+04  0.19441355364E+04  0.89065002958E+03 0.  0.
        -24    2    4    4    0    0  0.38049008954E+03 -0.22307410374E+03 -0.12788281502E+04  0.13549368571E+04  0.76926492219E+02 0.  0.
         24    2    4    4    0    0 -0.39435200310E+03 -0.78870305978E+02 -0.42265441796E+03  0.58919867929E+03  0.82366857088E+02 0.  0.
         11    1    3    3    0    0  0.19515669755E+02  0.22548318563E+03 -0.24269252898E+02  0.22762364772E+03  0.00000000000E+00 0. -1.
        -11    1    3    3    0    0 -0.56537561970E+01  0.76461224096E+02 -0.65018376603E+02  0.10052697671E+03  0.00000000000E+00 0.  1.
          4    1    6    6  502    0 -0.30844432130E+03 -0.81788537443E+02 -0.36913140048E+03  0.48793980676E+03  0.00000000000E+00 0. -1.
          3    1    5    5  503    0  0.78961193773E+02 -0.18561234675E+02 -0.18426985252E+03  0.20133248149E+03  0.00000000000E+00 0. -1.
         -4    1    5    5    0  503  0.30152889576E+03 -0.20451286907E+03 -0.10945582976E+04  0.11536043756E+04  0.00000000000E+00 0.  1.
         -3    1    6    6    0  502 -0.85907681790E+02  0.29182314650E+01 -0.53523017475E+02  0.10125887253E+03  0.00000000000E+00 0.  1.
<mgrwt>
<rscale>  0 0.13987232E+04</rscale>
<asrwt>0</asrwt>
<pdfrwt beam="1">  1        2 0.31254281E+00 0.13987232E+04</pdfrwt>
<pdfrwt beam="2">  1       -2 0.37039688E-01 0.13987232E+04</pdfrwt>
<totfact> 0.42936686E+01</totfact>
</mgrwt>
</event>
<event>
12    1  0.1504874E-007  0.2657342E+04  0.7818608E-02  0.8348980E-01
         -1   -1    0    0    0  501 -0.00000000000E+00  0.00000000000E+00  0.15457768014E+04  0.15457768014E+04  0.00000000000E+00 0.  1.
          1   -1    0    0  501    0  0.00000000000E+00 -0.00000000000E+00 -0.11420578184E+04  0.11420578184E+04  0.00000000000E+00 0. -1.
         23    2    1    2    0    0  0.50950289502E+03  0.51107724756E+03  0.11114368924E+04  0.13279060151E+04  0.85142621604E+02 0.  0.
        254    2    1    2    0    0 -0.50950289502E+03 -0.51107724756E+03 -0.70771790941E+03  0.13599286048E+04  0.90980658261E+03 0.  0.
        -24    2    4    4    0    0 -0.24419997024E+03 -0.73870428997E+03 -0.59852779493E+03  0.98514389193E+03  0.83398519296E+02 0.  0.
         24    2    4    4    0    0 -0.26530292477E+03  0.22762704241E+03 -0.10919011448E+03  0.37478471284E+03  0.79632829593E+02 0.  0.
         13    1    3    3    0    0  0.24749884647E+03  0.19375023769E+03  0.44991429503E+03  0.54883304062E+03  0.00000000000E+00 0. -1.
        -13    1    3    3    0    0  0.26200404855E+03  0.31732700987E+03  0.66152259740E+03  0.77907297445E+03  0.00000000000E+00 0.  1.
          4    1    6    6  502    0 -0.46187885743E+01  0.53066162061E+00  0.84033070187E+01  0.96036648473E+01  0.00000000000E+00 0. -1.
          1    1    5    5  503    0 -0.53748108230E+02 -0.16043957718E+03 -0.17550915456E+03  0.24378921305E+03  0.00000000000E+00 0. -1.
         -2    1    5    5    0  503 -0.19045186201E+03 -0.57826471279E+03 -0.42301864037E+03  0.74135467888E+03  0.00000000000E+00 0.  1.
         -3    1    6    6    0  502 -0.26068413620E+03  0.22709638079E+03 -0.11759342150E+03  0.36518104799E+03  0.00000000000E+00 0.  1.
<mgrwt>
<rscale>  0 0.26573419E+04</rscale>
<asrwt>0</asrwt>
<pdfrwt beam="1">  1        1 0.17570120E+00 0.26573419E+04</pdfrwt>
<pdfrwt beam="2">  1       -1 0.23781182E+00 0.26573419E+04</pdfrwt>
<totfact> 0.86602324E-01</totfact>
</mgrwt>
</event>
<event>
12    1  0.1504874E-007  0.1370979E+04  0.7818608E-02  0.8975097E-01
          1   -1    0    0  501    0  0.00000000000E+00  0.00000000000E+00  0.74799924932E+03  0.74799924932E+03  0.00000000000E+00 0.  1.
         -1   -1    0    0    0  501 -0.00000000000E+00 -0.00000000000E+00 -0.62820377874E+03  0.62820377874E+03  0.00000000000E+00 0. -1.
         23    2    1    2    0    0  0.16131239169E+03  0.31769616721E+03  0.17692487018E+03  0.40755553137E+03  0.88580805417E+02 0.  0.
        254    2    1    2    0    0 -0.16131239169E+03 -0.31769616721E+03 -0.57129399595E+02  0.96864749670E+03  0.89892250066E+03 0.  0.
        -24    2    4    4    0    0 -0.14690219238E+03 -0.62248144672E+03 -0.92920839914E+02  0.65129210987E+03  0.80521576314E+02 0.  0.
         24    2    4    4    0    0 -0.14410199306E+02  0.30478527951E+03  0.35791440319E+02  0.31735538683E+03  0.79571941649E+02 0.  0.
         11    1    3    3    0    0  0.12622959095E+02  0.39458201833E+02  0.56088698686E+02  0.69729698899E+02  0.00000000000E+00 0.  1.
        -11    1    3    3    0    0  0.14868943259E+03  0.27823796538E+03  0.12083617149E+03  0.33782583247E+03  0.00000000000E+00 0. -1.
          4    1    6    6  502    0 -0.77554427019E+01  0.14393688675E+01 -0.74750895268E+01  0.10867181680E+02  0.00000000000E+00 0. -1.
          3    1    5    5  503    0  0.91195277993E+01 -0.23346912864E+02 -0.83902966240E+01  0.26431821825E+02  0.00000000000E+00 0. -1.
         -4    1    5    5    0  503 -0.15602172018E+03 -0.59913453386E+03 -0.84530543290E+02  0.62486028804E+03  0.00000000000E+00 0.  1.
         -3    1    6    6    0  502 -0.66547566046E+01  0.30334591064E+03  0.43266529846E+02  0.30648820515E+03  0.00000000000E+00 0.  1.
<mgrwt>
<rscale>  0 0.13709791E+04</rscale>
<asrwt>0</asrwt>
<pdfrwt beam="1">  1        1 0.11507681E+00 0.13709791E+04</pdfrwt>
<pdfrwt beam="2">  1       -1 0.96646735E-01 0.13709791E+04</pdfrwt>
<totfact> 0.24768873E+01</totfact>
</mgrwt>
</event>
<event>
12    1  0.1504874E-007  0.1642627E+04  0.7818608E-02  0.8794780E-01
         -1   -1    0    0    0  501 -0.00000000000E+00  0.00000000000E+00  0.75709640485E+03  0.75709640485E+03  0.00000000000E+00 0.  1.
          1   -1    0    0  501    0  0.00000000000E+00 -0.00000000000E+00 -0.89097751720E+03  0.89097751720E+03  0.00000000000E+00 0. -1.
         23    2    1    2    0    0 -0.23256416048E+03 -0.36281283812E+03  0.33391472303E+03  0.55411891156E+03  0.99143742365E+02 0.  0.
        254    2    1    2    0    0  0.23256416048E+03  0.36281283812E+03 -0.46779583538E+03  0.10939550105E+04  0.89004796339E+03 0.  0.
        -24    2    4    4    0    0  0.47227411106E+03  0.34297495606E+03 -0.57065795811E+03  0.82019460123E+03  0.79962630416E+02 0.  0.
         24    2    4    4    0    0 -0.23970995058E+03  0.19837882058E+02  0.10286212274E+03  0.27376040926E+03  0.80682980944E+02 0.  0.
         13    1    3    3    0    0  0.80031382799E+01 -0.27500587254E+01  0.25198829805E+01  0.88296577258E+01  0.00000000000E+00 0. -1.
        -13    1    3    3    0    0 -0.24056729876E+03 -0.36006277939E+03  0.33139484005E+03  0.54528925383E+03  0.00000000000E+00 0.  1.
          2    1    6    6  502    0 -0.61057382690E+02  0.39599006510E+02  0.17867409601E+02  0.74935503090E+02  0.00000000000E+00 0. -1.
          3    1    5    5  503    0  0.31622579492E+03  0.22989179477E+03 -0.32803949276E+03  0.51035174094E+03  0.00000000000E+00 0. -1.
         -4    1    5    5    0  503  0.15604831614E+03  0.11308316129E+03 -0.24261846536E+03  0.30984286029E+03  0.00000000000E+00 0.  1.
         -1    1    6    6    0  502 -0.17865256789E+03 -0.19761124452E+02  0.84994713135E+02  0.19882490617E+03  0.00000000000E+00 0.  1.
<mgrwt>
<rscale>  0 0.16426270E+04</rscale>
<asrwt>0</asrwt>
<pdfrwt beam="1">  1        1 0.13707346E+00 0.16426270E+04</pdfrwt>
<pdfrwt beam="2">  1       -1 0.11647637E+00 0.16426270E+04</pdfrwt>
<totfact> 0.11784188E+01</totfact>
</mgrwt>
</event>
<event>
12    1  0.1504874E-007  0.3782846E+04  0.7818608E-02  0.8049846E-01
          2   -1    0    0  501    0  0.00000000000E+00  0.00000000000E+00  0.28431803425E+04  0.28431803425E+04  0.00000000000E+00 0. -1.
         -2   -1    0    0    0  501 -0.00000000000E+00 -0.00000000000E+00 -0.12582676080E+04  0.12582676080E+04  0.00000000000E+00 0.  1.
         23    2    1    2    0    0  0.42600732102E+03 -0.14150104312E+04 -0.33326640072E+03  0.15175999407E+04  0.91139059879E+02 0.  0.
        254    2    1    2    0    0 -0.42600732102E+03  0.14150104312E+04  0.19181791352E+04  0.25838480098E+04  0.90173310063E+03 0.  0.
        -24    2    4    4    0    0 -0.81974030344E+01  0.10858304642E+04  0.82680430770E+03  0.13670687582E+04  0.78591551811E+02 0.  0.
         24    2    4    4    0    0 -0.41780991798E+03  0.32917996702E+03  0.10913748275E+04  0.12167792516E+04  0.80796996576E+02 0.  0.
         13    1    3    3    0    0  0.24972022556E+03 -0.67750910159E+03 -0.17537902093E+03  0.74305893089E+03  0.00000000000E+00 0. -1.
        -13    1    3    3    0    0  0.17628709545E+03 -0.73750132960E+03 -0.15788737979E+03  0.77454100981E+03  0.00000000000E+00 0.  1.
          4    1    6    6  502    0 -0.11886726248E+03  0.53857782475E+02  0.29977426397E+03  0.32694754344E+03  0.00000000000E+00 0. -1.
          3    1    5    5  503    0 -0.28222559964E+02  0.35516543065E+03  0.30475509218E+03  0.46884396363E+03  0.00000000000E+00 0. -1.
         -2    1    5    5    0  503  0.20025156929E+02  0.73066503353E+03  0.52204921551E+03  0.89822479455E+03  0.00000000000E+00 0.  1.
         -3    1    6    6    0  502 -0.29894265550E+03  0.27532218455E+03  0.79160056357E+03  0.88983170815E+03  0.00000000000E+00 0.  1.
<mgrwt>
<rscale>  0 0.37828464E+04</rscale>
<asrwt>0</asrwt>
<pdfrwt beam="1">  1        2 0.43741236E+00 0.37828464E+04</pdfrwt>
<pdfrwt beam="2">  1       -2 0.19357963E+00 0.37828464E+04</pdfrwt>
<totfact> 0.25627237E-01</totfact>
</mgrwt>
</event>
<event>
12    1  0.1504874E-007  0.1300575E+04  0.7818608E-02  0.9029109E-01
          2   -1    0    0  501    0  0.00000000000E+00  0.00000000000E+00  0.46645308297E+03  0.46645308297E+03  0.00000000000E+00 0. -1.
         -2   -1    0    0    0  501 -0.00000000000E+00 -0.00000000000E+00 -0.90657369768E+03  0.90657369768E+03  0.00000000000E+00 0.  1.
         23    2    1    2    0    0 -0.29857776271E+03  0.11203326616E+03 -0.16884433061E+03  0.37224761104E+03  0.91431629302E+02 0.  0.
        254    2    1    2    0    0  0.29857776271E+03 -0.11203326616E+03 -0.27127628411E+03  0.10007791696E+04  0.90899284425E+03 0.  0.
        -24    2    4    4    0    0 -0.22094919590E+03 -0.18131206478E+03  0.14193030946E+03  0.32871417367E+03  0.78842775334E+02 0.  0.
         24    2    4    4    0    0  0.51952695861E+03  0.69278798616E+02 -0.41320659357E+03  0.67206499594E+03  0.78891426274E+02 0.  0.
         13    1    3    3    0    0 -0.40481699822E+02 -0.15478354450E+02 -0.29444987519E+02  0.52396133130E+02  0.00000000000E+00 0.  1.
        -13    1    3    3    0    0 -0.25809606289E+03  0.12751162061E+03 -0.13939934309E+03  0.31985147791E+03  0.00000000000E+00 0. -1.
          4    1    6    6  502    0  0.57992412487E+02 -0.14129478948E+02 -0.32336380214E+02  0.67885223478E+02  0.00000000000E+00 0. -1.
          3    1    5    5  503    0 -0.54924939192E+02 -0.71488832569E+02  0.11868264260E+02  0.90929961090E+02  0.00000000000E+00 0. -1.
         -4    1    5    5    0  503 -0.16602425671E+03 -0.10982323221E+03  0.13006204520E+03  0.23778421258E+03  0.00000000000E+00 0.  1.
         -3    1    6    6    0  502  0.46153454613E+03  0.83408277564E+02 -0.38087021336E+03  0.60417977246E+03  0.00000000000E+00 0.  1.
<mgrwt>
<rscale>  0 0.13005754E+04</rscale>
<asrwt>0</asrwt>
<pdfrwt beam="1">  1        2 0.71762014E-01 0.13005754E+04</pdfrwt>
<pdfrwt beam="2">  1       -2 0.13947287E+00 0.13005754E+04</pdfrwt>
<totfact> 0.23706545E+01</totfact>
</mgrwt>
</event>
<event>
12    1  0.1504874E-007  0.1813613E+04  0.7818608E-02  0.8699094E-01
         -2   -1    0    0    0  501 -0.00000000000E+00  0.00000000000E+00  0.15637634710E+04  0.15637634710E+04  0.00000000000E+00 0.  1.
          2   -1    0    0  501    0  0.00000000000E+00 -0.00000000000E+00 -0.52584557997E+03  0.52584557997E+03  0.00000000000E+00 0. -1.
         23    2    1    2    0    0 -0.58013492965E+03  0.36948802796E+02  0.79750777361E+03  0.99117675236E+03  0.92146377146E+02 0.  0.
        254    2    1    2    0    0  0.58013492965E+03 -0.36948802796E+02  0.24041011740E+03  0.10984322986E+04  0.90046362471E+03 0.  0.
        -24    2    4    4    0    0  0.42478950998E+03  0.15635609235E+03 -0.26444104901E+03  0.53015170172E+03  0.78983561804E+02 0.  0.
         24    2    4    4    0    0  0.15534541967E+03 -0.19330489515E+03  0.50485116641E+03  0.56828059688E+03  0.81050321818E+02 0.  0.
         13    1    3    3    0    0 -0.29495956803E+03  0.45005732615E+02  0.47138263594E+03  0.55787834893E+03  0.00000000000E+00 0.  1.
        -13    1    3    3    0    0 -0.28517536162E+03 -0.80569298182E+01  0.32612513768E+03  0.43329840343E+03  0.00000000000E+00 0. -1.
          4    1    6    6  502    0  0.59168401412E+02 -0.30831705931E+02  0.86034798251E+02  0.10887368978E+03  0.00000000000E+00 0. -1.
          3    1    5    5  503    0  0.15642664327E+02 -0.89277905221E+01 -0.73702747874E+01  0.19460712764E+02  0.00000000000E+00 0. -1.
         -4    1    5    5    0  503  0.40914684565E+03  0.16528388288E+03 -0.25707077422E+03  0.51069098896E+03  0.00000000000E+00 0.  1.
         -3    1    6    6    0  502  0.96177018258E+02 -0.16247318922E+03  0.41881636815E+03  0.45940690710E+03  0.00000000000E+00 0.  1.
<mgrwt>
<rscale>  0 0.18136131E+04</rscale>
<asrwt>0</asrwt>
<pdfrwt beam="1">  1        2 0.80899320E-01 0.18136131E+04</pdfrwt>
<pdfrwt beam="2">  1       -2 0.24057899E+00 0.18136131E+04</pdfrwt>
<totfact> 0.40206870E+00</totfact>
</mgrwt>
</event>
<event>
12    1  0.1504874E-007  0.2583746E+04  0.7818608E-02  0.8373743E-01
         -2   -1    0    0    0  501 -0.00000000000E+00  0.00000000000E+00  0.89466561107E+03  0.89466561107E+03  0.00000000000E+00 0.  1.
          2   -1    0    0  501    0  0.00000000000E+00 -0.00000000000E+00 -0.18654293482E+04  0.18654293482E+04  0.00000000000E+00 0. -1.
         23    2    1    2    0    0  0.17390155814E+03  0.33630489892E+03  0.71385178432E+03  0.81305532906E+03  0.90176832779E+02 0.  0.
        254    2    1    2    0    0 -0.17390155814E+03 -0.33630489892E+03 -0.16846155214E+04  0.19470396302E+04  0.89982838894E+03 0.  0.
        -24    2    4    4    0    0  0.24878061977E+03 -0.45662399232E+03 -0.99106313285E+03  0.11219593533E+04  0.78672676992E+02 0.  0.
         24    2    4    4    0    0 -0.42268217791E+03  0.12031909341E+03 -0.69355238858E+03  0.82508027686E+03  0.81275087170E+02 0.  0.
         13    1    3    3    0    0 -0.66686080550E+01  0.12007659035E+02  0.56520547586E+02  0.58165509611E+02  0.00000000000E+00 0. -1.
        -13    1    3    3    0    0  0.18057016620E+03  0.32429723988E+03  0.65733123673E+03  0.75488981945E+03  0.00000000000E+00 0.  1.
          4    1    6    6  502    0 -0.33043257057E+03  0.82469055513E+02 -0.59058135129E+03  0.68174273836E+03  0.00000000000E+00 0. -1.
          1    1    5    5  503    0  0.18466037283E+03 -0.26330398856E+03 -0.63338593653E+03  0.71035638118E+03  0.00000000000E+00 0. -1.
         -2    1    5    5    0  503  0.64120246936E+02 -0.19332000376E+03 -0.35767719632E+03  0.41160297216E+03  0.00000000000E+00 0.  1.
         -3    1    6    6    0  502 -0.92249607341E+02  0.37850037892E+02 -0.10297103729E+03  0.14333753850E+03  0.00000000000E+00 0.  1.
<mgrwt>
<rscale>  0 0.25837457E+04</rscale>
<asrwt>0</asrwt>
<pdfrwt beam="1">  1        2 0.28698913E+00 0.25837457E+04</pdfrwt>
<pdfrwt beam="2">  1       -2 0.13764086E+00 0.25837457E+04</pdfrwt>
<totfact> 0.26389105E+00</totfact>
</mgrwt>
</event>
<event>
12    1  0.1504874E-007  0.2966825E+04  0.7818608E-02  0.8253268E-01
          1   -1    0    0  501    0  0.00000000000E+00  0.00000000000E+00  0.14860751557E+04  0.14860751557E+04  0.00000000000E+00 0. -1.
         -1   -1    0    0    0  501 -0.00000000000E+00 -0.00000000000E+00 -0.14807549986E+04  0.14807549986E+04  0.00000000000E+00 0.  1.
         23    2    1    2    0    0 -0.10102517590E+04  0.19495371924E+03  0.86923534284E+03  0.13498902058E+04  0.89542823708E+02 0.  0.
        254    2    1    2    0    0  0.10102517590E+04 -0.19495371924E+03 -0.86391518577E+03  0.16169399484E+04  0.89973872842E+03 0.  0.
        -24    2    4    4    0    0  0.80792626321E+03  0.19336737277E+03 -0.27478186616E+03  0.87861000401E+03  0.79464945344E+02 0.  0.
         24    2    4    4    0    0  0.20232549580E+03 -0.38832109200E+03 -0.58913331961E+03  0.73832994443E+03  0.79524598841E+02 0.  0.
         11    1    3    3    0    0 -0.37692158801E+03  0.28869237769E+02  0.32085827357E+03  0.49583600930E+03  0.00000000000E+00 0.  1.
        -11    1    3    3    0    0 -0.63333017100E+03  0.16608448147E+03  0.54837706927E+03  0.85405419651E+03  0.00000000000E+00 0. -1.
          2    1    6    6  502    0  0.10113488784E+03 -0.13765606710E+03 -0.18176066991E+03  0.24942814491E+03  0.00000000000E+00 0. -1.
          3    1    5    5  503    0  0.12238928151E+03  0.18645857664E+02 -0.13859525342E+02  0.12457483967E+03  0.00000000000E+00 0. -1.
         -4    1    5    5    0  503  0.68553698170E+03  0.17472151510E+03 -0.26092234082E+03  0.75403516433E+03  0.00000000000E+00 0.  1.
         -1    1    6    6    0  502  0.10119060796E+03 -0.25066502490E+03 -0.40737264970E+03  0.48890179952E+03  0.00000000000E+00 0.  1.
<mgrwt>
<rscale>  0 0.29668254E+04</rscale>
<asrwt>0</asrwt>
<pdfrwt beam="1">  1        1 0.22862695E+00 0.29668254E+04</pdfrwt>
<pdfrwt beam="2">  1       -1 0.22780846E+00 0.29668254E+04</pdfrwt>
<totfact> 0.55725359E-01</totfact>
</mgrwt>
</event>
<event>
12    1  0.1504874E-007  0.2065205E+04  0.7818608E-02  0.8576728E-01
         -2   -1    0    0    0  501 -0.00000000000E+00  0.00000000000E+00  0.40188147438E+03  0.40188147438E+03  0.00000000000E+00 0.  1.
          2   -1    0    0  501    0  0.00000000000E+00 -0.00000000000E+00 -0.26531903850E+04  0.26531903850E+04  0.00000000000E+00 0. -1.
         23    2    1    2    0    0  0.65244654324E+02 -0.82672381382E+03 -0.10814550389E+04  0.13658062221E+04  0.90291228646E+02 0.  0.
        254    2    1    2    0    0 -0.65244654324E+02  0.82672381382E+03 -0.11698538717E+04  0.16892656373E+04  0.89293403050E+03 0.  0.
        -24    2    4    4    0    0 -0.23073158388E+03  0.93286930789E+03 -0.76082709030E+03  0.12281910739E+04  0.78187232719E+02 0.  0.
         24    2    4    4    0    0  0.16548692956E+03 -0.10614549407E+03 -0.40902678144E+03  0.46107456335E+03  0.81449710019E+02 0.  0.
         11    1    3    3    0    0  0.56234943603E+02 -0.63685542577E+03 -0.76875565059E+03  0.99986621732E+03  0.00000000000E+00 0. -1.
        -11    1    3    3    0    0  0.90097107212E+01 -0.18986838805E+03 -0.31269938832E+03  0.36594000482E+03  0.00000000000E+00 0.  1.
          4    1    6    6  502    0  0.13531650313E+03 -0.10211438498E+03 -0.27040339898E+03  0.31914871426E+03  0.00000000000E+00 0. -1.
          1    1    5    5  503    0 -0.23610987396E+03  0.88638016994E+03 -0.72697921315E+03  0.11704343017E+04  0.00000000000E+00 0. -1.
         -2    1    5    5    0  503  0.53782900821E+01  0.46489137956E+02 -0.33847877154E+02  0.57756772243E+02  0.00000000000E+00 0.  1.
         -3    1    6    6    0  502  0.30170426426E+02 -0.40311090932E+01 -0.13862338247E+03  0.14192584908E+03  0.00000000000E+00 0.  1.
<mgrwt>
<rscale>  0 0.20652051E+04</rscale>
<asrwt>0</asrwt>
<pdfrwt beam="1">  1        2 0.40818314E+00 0.20652051E+04</pdfrwt>
<pdfrwt beam="2">  1       -2 0.61827918E-01 0.20652051E+04</pdfrwt>
<totfact> 0.63627732E+00</totfact>
</mgrwt>
</event>
<event>
12    1  0.1504874E-007  0.2764526E+04  0.7818608E-02  0.8314367E-01
          2   -1    0    0  501    0  0.00000000000E+00  0.00000000000E+00  0.23266301416E+04  0.23266301416E+04  0.00000000000E+00 0. -1.
         -2   -1    0    0    0  501 -0.00000000000E+00 -0.00000000000E+00 -0.82120939384E+03  0.82120939384E+03  0.00000000000E+00 0.  1.
         23    2    1    2    0    0  0.42700087047E+02 -0.12031378659E+04  0.98045102643E+03  0.15553808107E+04  0.92526910525E+02 0.  0.
        254    2    1    2    0    0 -0.42700087047E+02  0.12031378659E+04  0.52496972135E+03  0.15924587248E+04  0.90053737279E+03 0.  0.
        -24    2    4    4    0    0  0.33587182199E+03  0.14098062437E+03  0.13913862599E+03  0.39816211801E+03  0.80548728870E+02 0.  0.
         24    2    4    4    0    0 -0.37857190904E+03  0.10621572416E+04  0.38583109536E+03  0.11942966067E+04  0.77356671140E+02 0.  0.
         13    1    3    3    0    0  0.47099756676E+02 -0.83102879690E+03  0.72683538323E+03  0.11050415932E+04  0.00000000000E+00 0.  1.
        -13    1    3    3    0    0 -0.43996696292E+01 -0.37210906905E+03  0.25361564321E+03  0.45033921752E+03  0.00000000000E+00 0. -1.
          4    1    6    6  502    0 -0.29639281939E+03  0.73443086099E+03  0.25584794363E+03  0.83228334312E+03  0.00000000000E+00 0. -1.
          1    1    5    5  503    0  0.32436840929E+03  0.12021816834E+03  0.11560047495E+03  0.36473379710E+03  0.00000000000E+00 0. -1.
         -2    1    5    5    0  503  0.11503412706E+02  0.20762456033E+02  0.23538151042E+02  0.33428320910E+02  0.00000000000E+00 0.  1.
         -3    1    6    6    0  502 -0.82179089652E+02  0.32772638058E+03  0.12998315173E+03  0.36201326362E+03  0.00000000000E+00 0.  1.
<mgrwt>
<rscale>  0 0.27645257E+04</rscale>
<asrwt>0</asrwt>
<pdfrwt beam="1">  1        2 0.35794310E+00 0.27645257E+04</pdfrwt>
<pdfrwt beam="2">  1       -2 0.12633991E+00 0.27645257E+04</pdfrwt>
<totfact> 0.17833154E+00</totfact>
</mgrwt>
</event>
<event>
12    1  0.1504874E-007  0.1484445E+04  0.7818608E-02  0.8894863E-01
         -1   -1    0    0    0  501 -0.00000000000E+00  0.00000000000E+00  0.85734029000E+03  0.85734029000E+03  0.00000000000E+00 0.  1.
          1   -1    0    0  501    0  0.00000000000E+00 -0.00000000000E+00 -0.64256172342E+03  0.64256172342E+03  0.00000000000E+00 0. -1.
         23    2    1    2    0    0  0.26959103710E+03 -0.30266377159E+03 -0.15026684397E+03  0.44199201095E+03  0.92152739684E+02 0.  0.
        254    2    1    2    0    0 -0.26959103710E+03  0.30266377159E+03  0.36504541055E+03  0.10579100025E+04  0.90643848972E+03 0.  0.
        -24    2    4    4    0    0  0.32933347509E+03  0.13972109573E+03  0.12061464935E+03  0.38609706882E+03  0.80873546377E+02 0.  0.
         24    2    4    4    0    0 -0.59892451219E+03  0.16294267586E+03  0.24443076120E+03  0.67181293365E+03  0.79531967647E+02 0.  0.
         11    1    3    3    0    0  0.22748768944E+03 -0.22430511321E+03 -0.15024171268E+03  0.35303824848E+03  0.00000000000E+00 0. -1.
        -11    1    3    3    0    0  0.42103347665E+02 -0.78358658373E+02 -0.25131289315E-01  0.88953762473E+02  0.00000000000E+00 0.  1.
          4    1    6    6  502    0 -0.98994861357E+02  0.42747852518E+02  0.15359957662E+02  0.10891873011E+03  0.00000000000E+00 0. -1.
          3    1    5    5  503    0  0.36341294157E+01  0.18912862126E+02  0.40573572508E+01  0.19681600501E+02  0.00000000000E+00 0. -1.
         -4    1    5    5    0  503  0.32569934568E+03  0.12080823360E+03  0.11655729210E+03  0.36641546832E+03  0.00000000000E+00 0.  1.
         -3    1    6    6    0  502 -0.49992965084E+03  0.12019482334E+03  0.22907080354E+03  0.56289420354E+03  0.00000000000E+00 0.  1.
<mgrwt>
<rscale>  0 0.14844448E+04</rscale>
<asrwt>0</asrwt>
<pdfrwt beam="1">  1        1 0.98855649E-01 0.14844448E+04</pdfrwt>
<pdfrwt beam="2">  1       -1 0.13189851E+00 0.14844448E+04</pdfrwt>
<totfact> 0.14671594E+01</totfact>
</mgrwt>
</event>
<event>
12    1  0.1504874E-007  0.1365292E+04  0.7818608E-02  0.8979332E-01
         -1   -1    0    0    0  501 -0.00000000000E+00  0.00000000000E+00  0.86927297455E+03  0.86927297455E+03  0.00000000000E+00 0.  1.
          1   -1    0    0  501    0  0.00000000000E+00 -0.00000000000E+00 -0.53608692931E+03  0.53608692931E+03  0.00000000000E+00 0. -1.
         23    2    1    2    0    0  0.16955038070E+03 -0.63505472741E+02  0.44125227658E+03  0.48443377332E+03  0.84807030839E+02 0.  0.
        254    2    1    2    0    0 -0.16955038070E+03  0.63505472741E+02 -0.10806623134E+03  0.92092613053E+03  0.89646324569E+03 0.  0.
        -24    2    4    4    0    0 -0.44244321624E+03 -0.17407873648E+03  0.10561487439E+03  0.49316804943E+03  0.77464941740E+02 0.  0.
         24    2    4    4    0    0  0.27289283554E+03  0.23758420922E+03 -0.21368110573E+03  0.42775808110E+03  0.80003780155E+02 0.  0.
         13    1    3    3    0    0  0.27394715851E+02 -0.13632339277E+02  0.18775233756E+02  0.35900146703E+02  0.00000000000E+00 0. -1.
        -13    1    3    3    0    0  0.14215566485E+03 -0.49873133463E+02  0.42247704283E+03  0.44853362662E+03  0.00000000000E+00 0.  1.
          4    1    6    6  502    0  0.14654952801E+03  0.17837983963E+03 -0.12675492544E+03  0.26336845382E+03  0.00000000000E+00 0. -1.
          1    1    5    5  503    0 -0.44518924081E+03 -0.17330451027E+03  0.10189109221E+03  0.48847692687E+03  0.00000000000E+00 0. -1.
         -2    1    5    5    0  503  0.27460245714E+01 -0.77422620972E+00  0.37237821801E+01  0.46911225624E+01  0.00000000000E+00 0.  1.
         -3    1    6    6    0  502  0.12634330752E+03  0.59204369591E+02 -0.86926180292E+02  0.16438962727E+03  0.00000000000E+00 0.  1.
<mgrwt>
<rscale>  0 0.13652925E+04</rscale>
<asrwt>0</asrwt>
<pdfrwt beam="1">  1        1 0.82474912E-01 0.13652925E+04</pdfrwt>
<pdfrwt beam="2">  1       -1 0.13373430E+00 0.13652925E+04</pdfrwt>
<totfact> 0.18559787E+01</totfact>
</mgrwt>
</event>
<event>
12    1  0.1778889E-007  0.1741865E+04  0.7818608E-02  0.8737841E-01
         -1   -1    0    0    0  501 -0.00000000000E+00  0.00000000000E+00  0.70048162979E+03  0.70048162979E+03  0.00000000000E+00 0. -1.
          1   -1    0    0  501    0  0.00000000000E+00 -0.00000000000E+00 -0.10828604119E+04  0.10828604119E+04  0.00000000000E+00 0.  1.
         23    2    1    2    0    0 -0.11059481205E+03 -0.34064388511E+03  0.39577593540E+03  0.54169664577E+03  0.92342818237E+02 0.  0.
        254    2    1    2    0    0  0.11059481205E+03  0.34064388511E+03 -0.77815471751E+03  0.12416453959E+04  0.89882648820E+03 0.  0.
        -24    2    4    4    0    0  0.18496671363E+02 -0.73928649104E+02 -0.80139136123E+03  0.80896365612E+03  0.79915649612E+02 0.  0.
         24    2    4    4    0    0  0.92098140684E+02  0.41457253422E+03  0.23236643722E+02  0.43268173979E+03  0.79505299781E+02 0.  0.
         13    1    3    3    0    0 -0.11719545987E+03 -0.32751948203E+03  0.34934342989E+03  0.49299555671E+03  0.00000000000E+00 0. -1.
        -13    1    3    3    0    0  0.66006478241E+01 -0.13124403080E+02  0.46432505512E+02  0.48701089065E+02  0.00000000000E+00 0.  1.
          2    1    6    6  502    0  0.89766867233E+02  0.41819818698E+03  0.22560545011E+02  0.42831856397E+03  0.00000000000E+00 0. -1.
          1    1    5    5  503    0  0.20901320934E+02 -0.89511524816E+02 -0.73501245211E+03  0.74073779642E+03  0.00000000000E+00 0. -1.
         -2    1    5    5    0  503 -0.24046495712E+01  0.15582875712E+02 -0.66378909124E+02  0.68225859698E+02  0.00000000000E+00 0.  1.
         -1    1    6    6    0  502  0.23312734510E+01 -0.36256527608E+01  0.67609871012E+00  0.43631758286E+01  0.00000000000E+00 0.  1.
<mgrwt>
<rscale>  0 0.17418655E+04</rscale>
<asrwt>0</asrwt>
<pdfrwt beam="1">  1        1 0.16659391E+00 0.17418655E+04</pdfrwt>
<pdfrwt beam="2">  1       -1 0.10776640E+00 0.17418655E+04</pdfrwt>
<totfact> 0.99242878E+00</totfact>
</mgrwt>
</event>
<event>
12    1  0.1504874E-007  0.3601877E+04  0.7818608E-02  0.8090062E-01
         -1   -1    0    0    0  501 -0.00000000000E+00  0.00000000000E+00  0.18566835489E+04  0.18566835489E+04  0.00000000000E+00 0.  1.
          1   -1    0    0  501    0  0.00000000000E+00 -0.00000000000E+00 -0.17468671770E+04  0.17468671770E+04  0.00000000000E+00 0. -1.
         23    2    1    2    0    0  0.10636389517E+04  0.86099504748E+03 -0.94080665249E+03  0.16631657445E+04  0.91448591447E+02 0.  0.
        254    2    1    2    0    0 -0.10636389517E+04 -0.86099504748E+03  0.10506230244E+04  0.19403849815E+04  0.88805678063E+03 0.  0.
        -24    2    4    4    0    0 -0.11519428517E+04 -0.51470678738E+03  0.84210392813E+03  0.15190381050E+04  0.80264114181E+02 0.  0.
         24    2    4    4    0    0  0.88303900041E+02 -0.34628826010E+03  0.20851909628E+03  0.42134687650E+03  0.79623105790E+02 0.  0.
         13    1    3    3    0    0  0.96310674871E+03  0.76519992965E+03 -0.87467424397E+03  0.15093576696E+04  0.00000000000E+00 0. -1.
        -13    1    3    3    0    0  0.10053220296E+03  0.95795117826E+02 -0.66132408519E+02  0.15380807485E+03  0.00000000000E+00 0.  1.
          4    1    6    6  502    0  0.11944875569E+02 -0.13460333875E+02 -0.49170560412E+01  0.18655778743E+02  0.00000000000E+00 0. -1.
          1    1    5    5  503    0 -0.11731199813E+03 -0.80094227182E+02  0.94378531487E+02  0.17054177593E+03  0.00000000000E+00 0. -1.
         -2    1    5    5    0  503 -0.10346308536E+04 -0.43461256020E+03  0.74772539664E+03  0.13484963290E+04  0.00000000000E+00 0.  1.
         -3    1    6    6    0  502  0.76359024472E+02 -0.33282792622E+03  0.21343615232E+03  0.40269109776E+03  0.00000000000E+00 0.  1.
<mgrwt>
<rscale>  0 0.36018770E+04</rscale>
<asrwt>0</asrwt>
<pdfrwt beam="1">  1        1 0.26874880E+00 0.36018770E+04</pdfrwt>
<pdfrwt beam="2">  1       -1 0.28564362E+00 0.36018770E+04</pdfrwt>
<totfact> 0.14654245E-01</totfact>
</mgrwt>
</event>
<event>
12    1  0.1504874E-007  0.1454380E+04  0.7818608E-02  0.8915370E-01
         -1   -1    0    0    0  501 -0.00000000000E+00  0.00000000000E+00  0.72931256637E+03  0.72931256637E+03  0.00000000000E+00 0.  1.
          1   -1    0    0  501    0  0.00000000000E+00 -0.00000000000E+00 -0.72507354495E+03  0.72507354495E+03  0.00000000000E+00 0. -1.
         23    2    1    2    0    0  0.56005839750E+02  0.21911031649E+02  0.43731759894E+03  0.45084960909E+03  0.91662098381E+02 0.  0.
        254    2    1    2    0    0 -0.56005839750E+02 -0.21911031649E+02 -0.43307857752E+03  0.10035365022E+04  0.90327831238E+03 0.  0.
        -24    2    4    4    0    0 -0.29445542157E+03  0.33523693354E+03 -0.12889323243E+03  0.47086441824E+03  0.77537333548E+02 0.  0.
         24    2    4    4    0    0  0.23844958182E+03 -0.35714796519E+03 -0.30418534509E+03  0.53267208399E+03  0.82449698522E+02 0.  0.
         13    1    3    3    0    0 -0.36926039687E+01  0.37704002502E+02  0.83616848776E+02  0.91798717464E+02  0.00000000000E+00 0. -1.
        -13    1    3    3    0    0  0.59698443719E+02 -0.15792970854E+02  0.35370075016E+03  0.35905089162E+03  0.00000000000E+00 0.  1.
          2    1    6    6  502    0  0.69113017453E+02 -0.78392746056E+02 -0.11593095767E+03  0.15608337119E+03  0.00000000000E+00 0. -1.
          1    1    5    5  503    0 -0.76627943474E+02  0.11760670348E+03 -0.71929427424E+02  0.15772450968E+03  0.00000000000E+00 0. -1.
         -2    1    5    5    0  503 -0.21782747810E+03  0.21763023006E+03 -0.56963805009E+02  0.31313990856E+03  0.00000000000E+00 0.  1.
         -1    1    6    6    0  502  0.16933656437E+03 -0.27875521914E+03 -0.18825438742E+03  0.37658871280E+03  0.00000000000E+00 0.  1.
<mgrwt>
<rscale>  0 0.14543799E+04</rscale>
<asrwt>0</asrwt>
<pdfrwt beam="1">  1        1 0.11154978E+00 0.14543799E+04</pdfrwt>
<pdfrwt beam="2">  1       -1 0.11220193E+00 0.14543799E+04</pdfrwt>
<totfact> 0.18253751E+01</totfact>
</mgrwt>
</event>
<event>
12    1  0.1504874E-007  0.1478072E+04  0.7818608E-02  0.8899167E-01
          2   -1    0    0  501    0  0.00000000000E+00  0.00000000000E+00  0.15058566028E+04  0.15058566028E+04  0.00000000000E+00 0. -1.
         -2   -1    0    0    0  501 -0.00000000000E+00 -0.00000000000E+00 -0.36269995584E+03  0.36269995584E+03  0.00000000000E+00 0.  1.
         23    2    1    2    0    0  0.11223474704E+02  0.33729810850E+03 -0.22799464795E+02  0.35051517816E+03  0.91897193350E+02 0.  0.
        254    2    1    2    0    0 -0.11223474704E+02 -0.33729810850E+03  0.11659561118E+04  0.15180413805E+04  0.91164686034E+03 0.  0.
        -24    2    4    4    0    0 -0.97512304419E+02 -0.61913830305E+03  0.96272187769E+03  0.11515477643E+04  0.79924663619E+02 0.  0.
         24    2    4    4    0    0  0.86288829715E+02  0.28184019455E+03  0.20323423412E+03  0.36649361623E+03  0.78318321116E+02 0.  0.
         11    1    3    3    0    0  0.41324209581E+02  0.29451857541E+03 -0.17048106319E+02  0.29789179158E+03  0.00000000000E+00 0.  1.
        -11    1    3    3    0    0 -0.30100734877E+02  0.42779533084E+02 -0.57513584765E+01  0.52623386581E+02  0.00000000000E+00 0. -1.
          4    1    6    6  502    0  0.65348465704E+01  0.57992710876E+02  0.79376059190E+02  0.98521152586E+02  0.00000000000E+00 0. -1.
          3    1    5    5  503    0 -0.97526030770E+01 -0.13004357350E+02  0.10438113049E+02  0.19317887589E+02  0.00000000000E+00 0. -1.
         -2    1    5    5    0  503 -0.87759701342E+02 -0.60613394570E+03  0.95228376464E+03  0.11322298767E+04  0.00000000000E+00 0.  1.
         -3    1    6    6    0  502  0.79753983145E+02  0.22384748368E+03  0.12385817493E+03  0.26797246365E+03  0.00000000000E+00 0.  1.
<mgrwt>
<rscale>  0 0.14780719E+04</rscale>
<asrwt>0</asrwt>
<pdfrwt beam="1">  1        2 0.23167024E+00 0.14780719E+04</pdfrwt>
<pdfrwt beam="2">  1       -2 0.55799994E-01 0.14780719E+04</pdfrwt>
<totfact> 0.36772936E+01</totfact>
</mgrwt>
</event>
<event>
12    1  0.1504874E-007  0.1371475E+04  0.7818608E-02  0.8974729E-01
         -2   -1    0    0    0  501 -0.00000000000E+00  0.00000000000E+00  0.17888467251E+03  0.17888467251E+03  0.00000000000E+00 0.  1.
          2   -1    0    0  501    0  0.00000000000E+00 -0.00000000000E+00 -0.26287111565E+04  0.26287111565E+04  0.00000000000E+00 0. -1.
         23    2    1    2    0    0  0.33761252274E+03  0.13641446757E+03 -0.37515252728E+03  0.53583554761E+03  0.11742739408E+03 0.  0.
        254    2    1    2    0    0 -0.33761252274E+03 -0.13641446757E+03 -0.20746739567E+04  0.22717602814E+04  0.85090048009E+03 0.  0.
        -24    2    4    4    0    0 -0.32615749216E+03  0.29463401551E+03 -0.13792403053E+04  0.14497864328E+04  0.79931019961E+02 0.  0.
         24    2    4    4    0    0 -0.11455030574E+02 -0.43104848309E+03 -0.69543365139E+03  0.82197384865E+03  0.77968146646E+02 0.  0.
         13    1    3    3    0    0  0.26510410013E+03  0.10597451902E+03 -0.21494473527E+03  0.35736818801E+03  0.00000000000E+00 0.  1.
        -13    1    3    3    0    0  0.72508422611E+02  0.30439948554E+02 -0.16020779201E+03  0.17846735959E+03  0.00000000000E+00 0. -1.
          2    1    6    6  502    0  0.92664782581E+00 -0.42325492672E+03 -0.67729601392E+03  0.79867107256E+03  0.00000000000E+00 0. -1.
          3    1    5    5  503    0 -0.18642917232E+03  0.20905537567E+03 -0.94593017549E+03  0.98653123787E+03  0.00000000000E+00 0. -1.
         -4    1    5    5    0  503 -0.13972831985E+03  0.85578639842E+02 -0.43331012984E+03  0.46325519489E+03  0.00000000000E+00 0.  1.
         -1    1    6    6    0  502 -0.12381678400E+02 -0.77935563669E+01 -0.18137637460E+02  0.23302776090E+02  0.00000000000E+00 0.  1.
<mgrwt>
<rscale>  0 0.13714753E+04</rscale>
<asrwt>0</asrwt>
<pdfrwt beam="1">  1        2 0.40441709E+00 0.13714753E+04</pdfrwt>
<pdfrwt beam="2">  1       -2 0.27520719E-01 0.13714753E+04</pdfrwt>
<totfact> 0.34534627E+01</totfact>
</mgrwt>
</event>
<event>
12    1  0.1504874E-007  0.1674819E+04  0.7818608E-02  0.8775858E-01
         -1   -1    0    0    0  501 -0.00000000000E+00  0.00000000000E+00  0.30431849976E+03  0.30431849976E+03  0.00000000000E+00 0.  1.
          1   -1    0    0  501    0  0.00000000000E+00 -0.00000000000E+00 -0.23043432418E+04  0.23043432418E+04  0.00000000000E+00 0. -1.
         23    2    1    2    0    0  0.97247329153E+02  0.22387396597E+03  0.12356542151E+03  0.28767372639E+03  0.88944723260E+02 0.  0.
        254    2    1    2    0    0 -0.97247329153E+02 -0.22387396597E+03 -0.21235901636E+04  0.23209880152E+04  0.90430834795E+03 0.  0.
        -24    2    4    4    0    0 -0.37280695558E+03 -0.37840973527E+03 -0.84203536814E+03  0.99875365271E+03  0.79412491089E+02 0.  0.
         24    2    4    4    0    0  0.27555962643E+03  0.15453576930E+03 -0.12815547955E+04  0.13222343625E+04  0.78144762459E+02 0.  0.
         13    1    3    3    0    0  0.88066764590E+02  0.18197821895E+03  0.13522978842E+03  0.24322607359E+03  0.00000000000E+00 0.  1.
        -13    1    3    3    0    0  0.91805645622E+01  0.41895747019E+02 -0.11664366911E+02  0.44447652799E+02  0.00000000000E+00 0. -1.
          4    1    6    6  502    0  0.24883125342E+03  0.14165865746E+03 -0.10341351069E+04  0.10730422113E+04  0.00000000000E+00 0. -1.
          1    1    5    5  503    0 -0.18206306473E+03 -0.19795358556E+03 -0.35415259690E+03  0.44469837358E+03  0.00000000000E+00 0. -1.
         -2    1    5    5    0  503 -0.19074389085E+03 -0.18045614971E+03 -0.48788277124E+03  0.55405527914E+03  0.00000000000E+00 0.  1.
         -3    1    6    6    0  502  0.26728373015E+02  0.12877111836E+02 -0.24741968850E+03  0.24919215114E+03  0.00000000000E+00 0.  1.
<mgrwt>
<rscale>  0 0.16748185E+04</rscale>
<asrwt>0</asrwt>
<pdfrwt beam="1">  1        1 0.35451435E+00 0.16748185E+04</pdfrwt>
<pdfrwt beam="2">  1       -1 0.46818230E-01 0.16748185E+04</pdfrwt>
<totfact> 0.80221358E+00</totfact>
</mgrwt>
</event>
<event>
12    1  0.1504874E-007  0.1117767E+04  0.7818608E-02  0.9188046E-01
         -2   -1    0    0    0  501 -0.00000000000E+00  0.00000000000E+00  0.31122033767E+03  0.31122033767E+03  0.00000000000E+00 0.  1.
          2   -1    0    0  501    0  0.00000000000E+00 -0.00000000000E+00 -0.10036318165E+04  0.10036318165E+04  0.00000000000E+00 0. -1.
         23    2    1    2    0    0 -0.20439868158E+02  0.30266250524E+02  0.86457902001E+02  0.13012316853E+03  0.90128996661E+02 0.  0.
        254    2    1    2    0    0  0.20439868158E+02 -0.30266250524E+02 -0.77886938080E+03  0.11847289856E+04  0.89197052803E+03 0.  0.
        -24    2    4    4    0    0  0.26892296176E+03 -0.23904876183E+03 -0.36254202724E+02  0.37046432465E+03  0.80408822456E+02 0.  0.
         24    2    4    4    0    0 -0.24848309361E+03  0.20878251131E+03 -0.74261517808E+03  0.81426466097E+03  0.78839397200E+02 0.  0.
         13    1    3    3    0    0 -0.59813986073E+01  0.52622269636E+02  0.88802446682E+02  0.10339610693E+03  0.00000000000E+00 0.  1.
        -13    1    3    3    0    0 -0.14458469550E+02 -0.22356019112E+02 -0.23445446807E+01  0.26727061605E+02  0.00000000000E+00 0. -1.
          2    1    6    6  502    0 -0.17245229812E+03  0.10127831744E+03 -0.49366863005E+03  0.53264041248E+03  0.00000000000E+00 0. -1.
          3    1    5    5  503    0  0.19971596911E+02 -0.13941438882E+02  0.18248308529E+02  0.30434013298E+02  0.00000000000E+00 0. -1.
         -4    1    5    5    0  503  0.24895136485E+03 -0.22510732295E+03 -0.54502511253E+02  0.34003031135E+03  0.00000000000E+00 0.  1.
         -1    1    6    6    0  502 -0.76030795489E+02  0.10750419386E+03 -0.24894654802E+03  0.28162424848E+03  0.00000000000E+00 0.  1.
<mgrwt>
<rscale>  0 0.11177668E+04</rscale>
<asrwt>0</asrwt>
<pdfrwt beam="1">  1        2 0.15440489E+00 0.11177668E+04</pdfrwt>
<pdfrwt beam="2">  1       -2 0.47880052E-01 0.11177668E+04</pdfrwt>
<totfact> 0.10266716E+02</totfact>
</mgrwt>
</event>
<event>
12    1  0.1504874E-007  0.2647112E+04  0.7818608E-02  0.8352372E-01
         -2   -1    0    0    0  501 -0.00000000000E+00  0.00000000000E+00  0.74619122333E+03  0.74619122333E+03  0.00000000000E+00 0.  1.
          2   -1    0    0  501    0  0.00000000000E+00 -0.00000000000E+00 -0.23476557134E+04  0.23476557134E+04  0.00000000000E+00 0. -1.
         23    2    1    2    0    0  0.76629176141E+03 -0.77925813215E+03 -0.21714961262E+03  0.11178436494E+04  0.89298209195E+02 0.  0.
        254    2    1    2    0    0 -0.76629176141E+03  0.77925813215E+03 -0.13843148775E+04  0.19760032874E+04  0.89096296863E+03 0.  0.
        -24    2    4    4    0    0 -0.93915898887E+03  0.75808373403E+03 -0.12685138256E+04  0.17527357234E+04  0.79023008800E+02 0.  0.
         24    2    4    4    0    0  0.17286722745E+03  0.21174398116E+02 -0.11580105186E+03  0.22326756400E+03  0.78147860249E+02 0.  0.
         11    1    3    3    0    0  0.46953295369E+03 -0.44185737859E+03 -0.91034653360E+02  0.65114241586E+03  0.00000000000E+00 0.  1.
        -11    1    3    3    0    0  0.29675880772E+03 -0.33740075356E+03 -0.12611495926E+03  0.46670123356E+03  0.00000000000E+00 0. -1.
          4    1    6    6  502    0  0.33953770150E+02  0.62033378914E+01 -0.66828429327E+02  0.75215549421E+02  0.00000000000E+00 0. -1.
          1    1    5    5  503    0 -0.23991491563E+02  0.78622759900E+01 -0.37217239172E+02  0.44972546545E+02  0.00000000000E+00 0. -1.
         -2    1    5    5    0  503 -0.91516749730E+03  0.75022145804E+03 -0.12312965865E+04  0.17077631768E+04  0.00000000000E+00 0.  1.
         -3    1    6    6    0  502  0.13891345730E+03  0.14971060225E+02 -0.48972622530E+02  0.14805201458E+03  0.00000000000E+00 0.  1.
<mgrwt>
<rscale>  0 0.26471117E+04</rscale>
<asrwt>0</asrwt>
<pdfrwt beam="1">  1        2 0.36117780E+00 0.26471117E+04</pdfrwt>
<pdfrwt beam="2">  1       -2 0.11479865E+00 0.26471117E+04</pdfrwt>
<totfact> 0.22219982E+00</totfact>
</mgrwt>
</event>
<event>
12    1  0.1785791E-007  0.2391968E+04  0.7818608E-02  0.8442517E-01
         -2   -1    0    0    0  501 -0.00000000000E+00  0.00000000000E+00  0.57667211627E+03  0.57667211627E+03  0.00000000000E+00 0.  1.
          2   -1    0    0  501    0  0.00000000000E+00 -0.00000000000E+00 -0.24804009191E+04  0.24804009191E+04  0.00000000000E+00 0. -1.
         23    2    1    2    0    0 -0.46384977517E+03  0.46131614310E+03  0.18732082746E+03  0.68678841333E+03  0.92844140790E+02 0.  0.
        254    2    1    2    0    0  0.46384977517E+03 -0.46131614310E+03 -0.20910496303E+04  0.23702846221E+04  0.90431821575E+03 0.  0.
        -24    2    4    4    0    0  0.19065580843E+03 -0.49821450480E+03 -0.19963997544E+04  0.20677199872E+04  0.72709258409E+02 0.  0.
         24    2    4    4    0    0  0.27319396673E+03  0.36898361694E+02 -0.94649875950E+02  0.30256463484E+03  0.81180827061E+02 0.  0.
         13    1    3    3    0    0 -0.43725307110E+03  0.41326322198E+03  0.19232818045E+03  0.63163824126E+03  0.00000000000E+00 0.  1.
        -13    1    3    3    0    0 -0.26596704063E+02  0.48052921123E+02 -0.50073529876E+01  0.55150172071E+02  0.00000000000E+00 0. -1.
          4    1    6    6  502    0  0.24748078243E+03  0.32956326156E+02 -0.55825121908E+02  0.25583061064E+03  0.00000000000E+00 0. -1.
          3    1    5    5  503    0  0.18177461627E+03 -0.49570217609E+03 -0.19761486009E+04  0.20454647275E+04  0.00000000000E+00 0. -1.
         -4    1    5    5    0  503  0.88811921602E+01 -0.25123287040E+01 -0.20251153405E+02  0.22255259692E+02  0.00000000000E+00 0.  1.
         -3    1    6    6    0  502  0.25713184307E+02  0.39420355376E+01 -0.38824754042E+02  0.46734024199E+02  0.00000000000E+00 0.  1.
<mgrwt>
<rscale>  0 0.23919683E+04</rscale>
<asrwt>0</asrwt>
<pdfrwt beam="1">  1        2 0.38160014E+00 0.23919683E+04</pdfrwt>
<pdfrwt beam="2">  1       -2 0.88718788E-01 0.23919683E+04</pdfrwt>
<totfact> 0.35118640E+00</totfact>
</mgrwt>
</event>
<event>
12    1  0.1504874E-007  0.1208761E+04  0.7818608E-02  0.9105223E-01
         -1   -1    0    0    0  501 -0.00000000000E+00  0.00000000000E+00  0.12518000382E+03  0.12518000382E+03  0.00000000000E+00 0.  1.
          1   -1    0    0  501    0  0.00000000000E+00 -0.00000000000E+00 -0.29180038096E+04  0.29180038096E+04  0.00000000000E+00 0. -1.
         23    2    1    2    0    0 -0.10868379111E+03 -0.38024646687E+02 -0.91289933280E+02  0.17356322239E+03  0.92370450039E+02 0.  0.
        254    2    1    2    0    0  0.10868379111E+03  0.38024646687E+02 -0.27015338725E+04  0.28696205911E+04  0.96082206052E+03 0.  0.
        -24    2    4    4    0    0 -0.15525550550E+03  0.53888573931E+02 -0.31327543754E+02  0.18515275815E+03  0.79321361972E+02 0.  0.
         24    2    4    4    0    0  0.26393929661E+03 -0.15863927244E+02 -0.26702063288E+04  0.26844678329E+04  0.80312459577E+02 0.  0.
         11    1    3    3    0    0 -0.27898746268E+02 -0.49068148324E+02 -0.68781572039E+02  0.88977119955E+02  0.00000000000E+00 0. -1.
        -11    1    3    3    0    0 -0.80785044842E+02  0.11043501637E+02 -0.22508361241E+02  0.84586102430E+02  0.00000000000E+00 0.  1.
          2    1    6    6  502    0  0.17265926741E+03 -0.11186931577E+02 -0.20850299770E+04  0.20921965432E+04  0.00000000000E+00 0. -1.
          1    1    5    5  503    0 -0.14074570582E+03  0.26817664304E+02 -0.46844541023E+02  0.15074134087E+03  0.00000000000E+00 0. -1.
         -2    1    5    5    0  503 -0.14509799686E+02  0.27070909627E+02  0.15516997270E+02  0.34411417280E+02  0.00000000000E+00 0.  1.
         -1    1    6    6    0  502  0.91280029199E+02 -0.46769956675E+01 -0.58517635174E+03  0.59227128974E+03  0.00000000000E+00 0.  1.
<mgrwt>
<rscale>  0 0.12087609E+04</rscale>
<asrwt>0</asrwt>
<pdfrwt beam="1">  1        1 0.44892366E+00 0.12087609E+04</pdfrwt>
<pdfrwt beam="2">  1       -1 0.19258462E-01 0.12087609E+04</pdfrwt>
<totfact> 0.14949418E+01</totfact>
</mgrwt>
</event>
<event>
12    1  0.1504874E-007  0.1255132E+04  0.7818608E-02  0.9065923E-01
          1   -1    0    0  501    0  0.00000000000E+00  0.00000000000E+00  0.29155341778E+03  0.29155341778E+03  0.00000000000E+00 0.  1.
         -1   -1    0    0    0  501 -0.00000000000E+00 -0.00000000000E+00 -0.13508303433E+04  0.13508303433E+04  0.00000000000E+00 0. -1.
         23    2    1    2    0    0  0.22350339339E+03 -0.18773826658E+03 -0.32522843083E+03  0.44644439135E+03  0.91321622607E+02 0.  0.
        254    2    1    2    0    0 -0.22350339339E+03  0.18773826658E+03 -0.73404849474E+03  0.11959393698E+04  0.89791110916E+03 0.  0.
        -24    2    4    4    0    0 -0.51051975361E+03 -0.66735752373E+02 -0.56653810992E+03  0.76948528160E+03  0.77833727551E+02 0.  0.
         24    2    4    4    0    0  0.28701636021E+03  0.25447401896E+03 -0.16751038482E+03  0.42645408817E+03  0.81657473262E+02 0.  0.
         13    1    3    3    0    0  0.63633242398E+02 -0.66376899573E+01 -0.76239637605E+02  0.99527537939E+02  0.00000000000E+00 0. -1.
        -13    1    3    3    0    0  0.15987015099E+03 -0.18110057662E+03 -0.24898879322E+03  0.34691685341E+03  0.00000000000E+00 0.  1.
          2    1    6    6  502    0  0.33702172557E+02  0.49127562468E+02 -0.56166018491E+02  0.81877808118E+02  0.00000000000E+00 0. -1.
          3    1    5    5  503    0 -0.32971294244E+03 -0.28808163168E+02 -0.31099313909E+03  0.45415555401E+03  0.00000000000E+00 0. -1.
         -4    1    5    5    0  503 -0.18080681117E+03 -0.37927589205E+02 -0.25554497083E+03  0.31532972760E+03  0.00000000000E+00 0.  1.
         -1    1    6    6    0  502  0.25331418766E+03  0.20534645649E+03 -0.11134436632E+03  0.34457628005E+03  0.00000000000E+00 0.  1.
<mgrwt>
<rscale>  0 0.12551322E+04</rscale>
<asrwt>0</asrwt>
<pdfrwt beam="1">  1        1 0.44854371E-01 0.12551322E+04</pdfrwt>
<pdfrwt beam="2">  1       -1 0.20782006E+00 0.12551322E+04</pdfrwt>
<totfact> 0.11937624E+01</totfact>
</mgrwt>
</event>
<event>
12    1  0.1504874E-007  0.2130053E+04  0.7818608E-02  0.8548119E-01
          1   -1    0    0  501    0  0.00000000000E+00  0.00000000000E+00  0.91707657068E+03  0.91707657068E+03  0.00000000000E+00 0. -1.
         -1   -1    0    0    0  501 -0.00000000000E+00 -0.00000000000E+00 -0.12368444929E+04  0.12368444929E+04  0.00000000000E+00 0.  1.
         23    2    1    2    0    0  0.25033794116E+03  0.83701513998E+03 -0.14431562294E+03  0.89019282120E+03  0.91393821223E+02 0.  0.
        254    2    1    2    0    0 -0.25033794116E+03 -0.83701513998E+03 -0.17545229932E+03  0.12637282424E+04  0.89608154316E+03 0.  0.
        -24    2    4    4    0    0  0.23516915231E+03 -0.46985923317E+03 -0.33687313288E+03  0.62911636202E+03  0.78940864614E+02 0.  0.
         24    2    4    4    0    0 -0.48550709347E+03 -0.36715590681E+03  0.16142083356E+03  0.63461188039E+03  0.78453524568E+02 0.  0.
         11    1    3    3    0    0  0.78087584747E+02  0.31280287281E+03 -0.11302875332E+02  0.32260046981E+03  0.00000000000E+00 0. -1.
        -11    1    3    3    0    0  0.17225035641E+03  0.52421226717E+03 -0.13301274761E+03  0.56759235139E+03  0.00000000000E+00 0.  1.
          4    1    6    6  502    0 -0.20092876156E+03 -0.18619845735E+03  0.10122431878E+03  0.29204211247E+03  0.00000000000E+00 0. -1.
          1    1    5    5  503    0  0.10806657627E+02 -0.30123301823E+02 -0.46294370717E+02  0.56279356089E+02  0.00000000000E+00 0. -1.
         -2    1    5    5    0  503  0.22436249468E+03 -0.43973593135E+03 -0.29057876217E+03  0.57283700593E+03  0.00000000000E+00 0.  1.
         -3    1    6    6    0  502 -0.28457833191E+03 -0.18095744946E+03  0.60196514789E+02  0.34256976793E+03  0.00000000000E+00 0.  1.
<mgrwt>
<rscale>  0 0.21300527E+04</rscale>
<asrwt>0</asrwt>
<pdfrwt beam="1">  1        1 0.14108870E+00 0.21300527E+04</pdfrwt>
<pdfrwt beam="2">  1       -1 0.19028377E+00 0.21300527E+04</pdfrwt>
<totfact> 0.28428539E+00</totfact>
</mgrwt>
</event>
<event>
12    1  0.1504874E-007  0.1061166E+04  0.7818608E-02  0.9243892E-01
         -4   -1    0    0    0  501 -0.00000000000E+00  0.00000000000E+00  0.27496827845E+03  0.27496827845E+03  0.00000000000E+00 0.  1.
          4   -1    0    0  501    0  0.00000000000E+00 -0.00000000000E+00 -0.10238204208E+04  0.10238204208E+04  0.00000000000E+00 0. -1.
         23    2    1    2    0    0 -0.50499914268E+02  0.11073397889E+02  0.21402324569E+02  0.10671405753E+03  0.90867866128E+02 0.  0.
        254    2    1    2    0    0  0.50499914268E+02 -0.11073397889E+02 -0.77025446692E+03  0.11920746417E+04  0.90833757279E+03 0.  0.
        -24    2    4    4    0    0 -0.42024119343E+03 -0.83818992558E+00 -0.42878509269E+03  0.60524393546E+03  0.76551959338E+02 0.  0.
         24    2    4    4    0    0  0.47074110770E+03 -0.10235207964E+02 -0.34146937422E+03  0.58683070626E+03  0.77890912915E+02 0.  0.
         11    1    3    3    0    0 -0.60725112640E+02  0.26953201614E+02 -0.12784484934E+02  0.67656909754E+02  0.00000000000E+00 0. -1.
        -11    1    3    3    0    0  0.10225198372E+02 -0.15879803725E+02  0.34186809502E+02  0.39057147771E+02  0.00000000000E+00 0.  1.
          4    1    6    6  502    0  0.44765632926E+03  0.70127746135E+01 -0.31262641445E+03  0.54605919381E+03  0.00000000000E+00 0. -1.
          3    1    5    5  503    0 -0.30655217871E+03  0.21787139564E+02 -0.27304250414E+03  0.41109746629E+03  0.00000000000E+00 0. -1.
         -4    1    5    5    0  503 -0.11368901472E+03 -0.22625329490E+02 -0.15574258856E+03  0.19414646917E+03  0.00000000000E+00 0.  1.
         -3    1    6    6    0  502  0.23084778437E+02 -0.17247982577E+02 -0.28842959778E+02  0.40771512447E+02  0.00000000000E+00 0.  1.
<mgrwt>
<rscale>  0 0.10611657E+04</rscale>
<asrwt>0</asrwt>
<pdfrwt beam="1">  1        4 0.15751083E+00 0.10611657E+04</pdfrwt>
<pdfrwt beam="2">  1       -4 0.42302812E-01 0.10611657E+04</pdfrwt>
<totfact> 0.28180272E+00</totfact>
</mgrwt>
</event>
<event>
12    1  0.1504874E-007  0.1630409E+04  0.7818608E-02  0.8802081E-01
          2   -1    0    0  501    0  0.00000000000E+00  0.00000000000E+00  0.22781875737E+04  0.22781875737E+04  0.00000000000E+00 0. -1.
         -2   -1    0    0    0  501 -0.00000000000E+00 -0.00000000000E+00 -0.29170492798E+03  0.29170492798E+03  0.00000000000E+00 0.  1.
         23    2    1    2    0    0 -0.26643212867E+03  0.49391305378E+03  0.92581544758E+03  0.10864422509E+04  0.91029323605E+02 0.  0.
        254    2    1    2    0    0  0.26643212867E+03 -0.49391305378E+03  0.10606671981E+04  0.14834502507E+04  0.87216601479E+03 0.  0.
        -24    2    4    4    0    0 -0.14244583853E+03  0.16761301343E+03  0.12814340174E+03  0.26661078426E+03  0.79218935168E+02 0.  0.
         24    2    4    4    0    0  0.40887796721E+03 -0.66152606721E+03  0.93252379639E+03  0.12168394665E+04  0.79370817613E+02 0.  0.
         13    1    3    3    0    0 -0.18913653776E+03  0.30713486708E+03  0.51712213986E+03  0.63049168434E+03  0.00000000000E+00 0.  1.
        -13    1    3    3    0    0 -0.77295590915E+02  0.18677818670E+03  0.40869330772E+03  0.45595056659E+03  0.00000000000E+00 0. -1.
          4    1    6    6  502    0  0.19839091695E+03 -0.28629661684E+03  0.47208421417E+03  0.58667556112E+03  0.00000000000E+00 0. -1.
          3    1    5    5  503    0 -0.10041637349E+03  0.16306721288E+03  0.10616306788E+03  0.21896337813E+03  0.00000000000E+00 0. -1.
         -4    1    5    5    0  503 -0.42029465040E+02  0.45458005483E+01  0.21980333863E+02  0.47647406130E+02  0.00000000000E+00 0.  1.
         -3    1    6    6    0  502  0.21048705026E+03 -0.37522945037E+03  0.46043958222E+03  0.63016390536E+03  0.00000000000E+00 0.  1.
<mgrwt>
<rscale>  0 0.16304092E+04</rscale>
<asrwt>0</asrwt>
<pdfrwt beam="1">  1        2 0.35049039E+00 0.16304092E+04</pdfrwt>
<pdfrwt beam="2">  1       -2 0.44877683E-01 0.16304092E+04</pdfrwt>
<totfact> 0.21033802E+01</totfact>
</mgrwt>
</event>
<event>
12    1  0.1504874E-007  0.1294244E+04  0.7818608E-02  0.9034142E-01
         -2   -1    0    0    0  501 -0.00000000000E+00  0.00000000000E+00  0.79464448892E+03  0.79464448892E+03  0.00000000000E+00 0.  1.
          2   -1    0    0  501    0  0.00000000000E+00 -0.00000000000E+00 -0.52698668489E+03  0.52698668489E+03  0.00000000000E+00 0. -1.
         23    2    1    2    0    0 -0.18494131647E+03 -0.18032809938E+01  0.35757354129E+03  0.41333655427E+03  0.93710870786E+02 0.  0.
        254    2    1    2    0    0  0.18494131647E+03  0.18032809938E+01 -0.89915737262E+02  0.90829461955E+03  0.88470771090E+03 0.  0.
        -24    2    4    4    0    0  0.39225599061E+03  0.26473262622E+03  0.13326096003E+03  0.49818358332E+03  0.80500147029E+02 0.  0.
         24    2    4    4    0    0 -0.20731467414E+03 -0.26292934523E+03 -0.22317669729E+03  0.41011103622E+03  0.79196017080E+02 0.  0.
         13    1    3    3    0    0 -0.14070266820E+03 -0.11250472318E+02  0.33339480584E+03  0.36204407263E+03  0.00000000000E+00 0.  1.
        -13    1    3    3    0    0 -0.44238648263E+02  0.94471913243E+01  0.24178735446E+02  0.51292481631E+02  0.00000000000E+00 0. -1.
          4    1    6    6  502    0 -0.19939324887E+02 -0.25263903917E+02  0.29477915540E+01  0.32319204711E+02  0.00000000000E+00 0. -1.
          3    1    5    5  503    0  0.80908120851E+02  0.21450306908E+02  0.10109674858E+02  0.84311595951E+02  0.00000000000E+00 0. -1.
         -4    1    5    5    0  503  0.31134786976E+03  0.24328231932E+03  0.12315128517E+03  0.41387198737E+03  0.00000000000E+00 0.  1.
         -3    1    6    6    0  502 -0.18737534926E+03 -0.23766544131E+03 -0.22612448884E+03  0.37779183151E+03  0.00000000000E+00 0.  1.
<mgrwt>
<rscale>  0 0.12942443E+04</rscale>
<asrwt>0</asrwt>
<pdfrwt beam="1">  1        2 0.81074875E-01 0.12942443E+04</pdfrwt>
<pdfrwt beam="2">  1       -2 0.12225300E+00 0.12942443E+04</pdfrwt>
<totfact> 0.28773756E+01</totfact>
</mgrwt>
</event>
<event>
12    1  0.1504874E-007  0.1101747E+04  0.7818608E-02  0.9203491E-01
          1   -1    0    0  501    0  0.00000000000E+00  0.00000000000E+00  0.10218945550E+04  0.10218945550E+04  0.00000000000E+00 0. -1.
         -1   -1    0    0    0  501 -0.00000000000E+00 -0.00000000000E+00 -0.29695960023E+03  0.29695960023E+03  0.00000000000E+00 0.  1.
         23    2    1    2    0    0  0.12229450173E+03  0.68246438838E+02  0.20546965740E+02  0.16922035059E+03  0.92735255887E+02 0.  0.
        254    2    1    2    0    0 -0.12229450173E+03 -0.68246438838E+02  0.70438798903E+03  0.11496338046E+04  0.89770926480E+03 0.  0.
        -24    2    4    4    0    0  0.17501475352E+03  0.21285298387E+03 -0.46663574773E+02  0.29035930194E+03  0.78705008225E+02 0.  0.
         24    2    4    4    0    0 -0.29730925524E+03 -0.28109942271E+03  0.75105156380E+03  0.85927450270E+03  0.82852524421E+02 0.  0.
         11    1    3    3    0    0 -0.14415077514E+02  0.10454799512E+02  0.10000339783E+02  0.20423126312E+02  0.00000000000E+00 0. -1.
        -11    1    3    3    0    0  0.13670957924E+03  0.57791639326E+02  0.10546625958E+02  0.14879722427E+03  0.00000000000E+00 0.  1.
          4    1    6    6  502    0 -0.10187645141E+03 -0.66198604209E+02  0.28902601163E+03  0.31352368642E+03  0.00000000000E+00 0. -1.
          1    1    5    5  503    0  0.22809448999E+02 -0.24217372926E+01 -0.35697942223E+01  0.23213771902E+02  0.00000000000E+00 0. -1.
         -2    1    5    5    0  503  0.15220530452E+03  0.21527472117E+03 -0.43093780551E+02  0.26714553004E+03  0.00000000000E+00 0.  1.
         -3    1    6    6    0  502 -0.19543280383E+03 -0.21490081850E+03  0.46202555217E+03  0.54575081628E+03  0.00000000000E+00 0.  1.
<mgrwt>
<rscale>  0 0.11017466E+04</rscale>
<asrwt>0</asrwt>
<pdfrwt beam="1">  1        1 0.15721455E+00 0.11017466E+04</pdfrwt>
<pdfrwt beam="2">  1       -1 0.45686093E-01 0.11017466E+04</pdfrwt>
<totfact> 0.68968627E+01</totfact>
</mgrwt>
</event>
<event>
12    1  0.1504874E-007  0.2007030E+04  0.7818608E-02  0.8603341E-01
         -1   -1    0    0    0  501 -0.00000000000E+00  0.00000000000E+00  0.23079700436E+04  0.23079700436E+04  0.00000000000E+00 0.  1.
          1   -1    0    0  501    0  0.00000000000E+00 -0.00000000000E+00 -0.43633269234E+03  0.43633269234E+03  0.00000000000E+00 0. -1.
         23    2    1    2    0    0 -0.76878421779E+02 -0.52265783782E+03 -0.68275369473E+02  0.54038481391E+03  0.90954460358E+02 0.  0.
        254    2    1    2    0    0  0.76878421779E+02  0.52265783782E+03  0.19399127207E+04  0.22039179220E+04  0.90272439639E+03 0.  0.
        -24    2    4    4    0    0 -0.94960912807E+02 -0.32799190109E+02 -0.43899513966E+02  0.13513853693E+03  0.79005664386E+02 0.  0.
         24    2    4    4    0    0  0.17183933459E+03  0.55545702792E+03  0.19838122347E+04  0.20687793851E+04  0.79220545992E+02 0.  0.
         11    1    3    3    0    0 -0.37223602478E+02 -0.23891284831E+03  0.14305918907E+02  0.24221809384E+03  0.00000000000E+00 0.  1.
        -11    1    3    3    0    0 -0.39654819301E+02 -0.28374498951E+03 -0.82581288380E+02  0.29816672007E+03  0.00000000000E+00 0. -1.
          2    1    6    6  502    0  0.16297784555E+03  0.47268796228E+03  0.16119452909E+04  0.16877094858E+04  0.00000000000E+00 0. -1.
          1    1    5    5  503    0 -0.70511462802E+02 -0.53172043801E+02 -0.10385173009E+02  0.88921226076E+02  0.00000000000E+00 0. -1.
         -2    1    5    5    0  503 -0.24449450004E+02  0.20372853692E+02 -0.33514340957E+02  0.46217310857E+02  0.00000000000E+00 0.  1.
         -1    1    6    6    0  502  0.88614890366E+01  0.82769065650E+02  0.37186694379E+03  0.38106989924E+03  0.00000000000E+00 0.  1.
<mgrwt>
<rscale>  0 0.20070304E+04</rscale>
<asrwt>0</asrwt>
<pdfrwt beam="1">  1        1 0.67128108E-01 0.20070304E+04</pdfrwt>
<pdfrwt beam="2">  1       -1 0.35507231E+00 0.20070304E+04</pdfrwt>
<totfact> 0.71277855E-01</totfact>
</mgrwt>
</event>
<event>
12    1  0.1504874E-007  0.2177369E+04  0.7818608E-02  0.8527907E-01
          1   -1    0    0  501    0  0.00000000000E+00  0.00000000000E+00  0.18850056114E+04  0.18850056114E+04  0.00000000000E+00 0. -1.
         -1   -1    0    0    0  501 -0.00000000000E+00 -0.00000000000E+00 -0.62876923075E+03  0.62876923075E+03  0.00000000000E+00 0.  1.
         23    2    1    2    0    0 -0.29021535868E+03  0.54699540395E+03  0.12648216856E+04  0.14114860445E+04  0.95341655281E+02 0.  0.
        254    2    1    2    0    0  0.29021535868E+03 -0.54699540395E+03 -0.85853049358E+01  0.11022887976E+04  0.91188703221E+03 0.  0.
        -24    2    4    4    0    0  0.19077543414E+03 -0.79020959359E+03  0.63625954449E+02  0.81929033044E+03  0.79761616158E+02 0.  0.
         24    2    4    4    0    0  0.99439924534E+02  0.24321418963E+03 -0.72211259385E+02  0.28299846717E+03  0.76369010770E+02 0.  0.
         11    1    3    3    0    0 -0.24373537170E+03  0.44553329781E+03  0.11097457248E+04  0.12204271484E+04  0.00000000000E+00 0. -1.
        -11    1    3    3    0    0 -0.46479986982E+02  0.10146210614E+03  0.15507596075E+03  0.19105889609E+03  0.00000000000E+00 0.  1.
          2    1    6    6  502    0  0.10501794419E+03  0.17212229782E+03 -0.62086154547E+02  0.21097285274E+03  0.00000000000E+00 0. -1.
          3    1    5    5  503    0  0.17468402417E+03 -0.75529836305E+03  0.44910606240E+02  0.77653531025E+03  0.00000000000E+00 0. -1.
         -4    1    5    5    0  503  0.16091409978E+02 -0.34911230539E+02  0.18715348209E+02  0.42755020190E+02  0.00000000000E+00 0.  1.
         -1    1    6    6    0  502 -0.55780196549E+01  0.71091891814E+02 -0.10125104838E+02  0.72025614422E+02  0.00000000000E+00 0.  1.
<mgrwt>
<rscale>  0 0.21773686E+04</rscale>
<asrwt>0</asrwt>
<pdfrwt beam="1">  1        1 0.29000086E+00 0.21773686E+04</pdfrwt>
<pdfrwt beam="2">  1       -1 0.96733729E-01 0.21773686E+04</pdfrwt>
<totfact> 0.33488453E+00</totfact>
</mgrwt>
</event>
<event>
12    1  0.1504874E-007  0.2822186E+04  0.7818608E-02  0.8296413E-01
          2   -1    0    0  501    0  0.00000000000E+00  0.00000000000E+00  0.19805552584E+04  0.19805552584E+04  0.00000000000E+00 0. -1.
         -2   -1    0    0    0  501 -0.00000000000E+00 -0.00000000000E+00 -0.10053664485E+04  0.10053664485E+04  0.00000000000E+00 0.  1.
         23    2    1    2    0    0  0.58441605052E+03  0.91213117853E+03 -0.20989642126E+03  0.11069004004E+04  0.87444735659E+02 0.  0.
        254    2    1    2    0    0 -0.58441605052E+03 -0.91213117853E+03  0.11850852312E+04  0.18790213066E+04  0.97609869296E+03 0.  0.
        -24    2    4    4    0    0 -0.85161806607E+03 -0.63914617905E+03  0.87812605793E+03  0.13823916271E+04  0.78358589455E+02 0.  0.
         24    2    4    4    0    0  0.26720201555E+03 -0.27298499947E+03  0.30695917324E+03  0.49662967940E+03  0.80618716047E+02 0.  0.
         13    1    3    3    0    0  0.86967183402E+02  0.88155866231E+02 -0.13410386597E+02  0.12455756183E+03  0.00000000000E+00 0. -1.
        -13    1    3    3    0    0  0.49744886712E+03  0.82397531230E+03 -0.19648603467E+03  0.98234283857E+03  0.00000000000E+00 0.  1.
          2    1    6    6  502    0  0.77348589228E+02 -0.46127504016E+02  0.10557894755E+03  0.13877126881E+03  0.00000000000E+00 0. -1.
          1    1    5    5  503    0 -0.98747339726E+02 -0.92124799803E+02  0.84326509894E+02  0.15921361786E+03  0.00000000000E+00 0. -1.
         -4    1    5    5    0  503 -0.75287072635E+03 -0.54702137925E+03  0.79379954803E+03  0.12231780093E+04  0.00000000000E+00 0.  1.
         -1    1    6    6    0  502  0.18985342632E+03 -0.22685749546E+03  0.20138022569E+03  0.35785841059E+03  0.00000000000E+00 0.  1.
<mgrwt>
<rscale>  0 0.28221862E+04</rscale>
<asrwt>0</asrwt>
<pdfrwt beam="1">  1        2 0.30470081E+00 0.28221862E+04</pdfrwt>
<pdfrwt beam="2">  1       -2 0.15467176E+00 0.28221862E+04</pdfrwt>
<totfact> 0.16427449E+00</totfact>
</mgrwt>
</event>
<event>
12    1  0.1504874E-007  0.2561598E+04  0.7818608E-02  0.8381364E-01
         -2   -1    0    0    0  501 -0.00000000000E+00  0.00000000000E+00  0.73244170931E+03  0.73244170931E+03  0.00000000000E+00 0.  1.
          2   -1    0    0  501    0  0.00000000000E+00 -0.00000000000E+00 -0.22396947459E+04  0.22396947459E+04  0.00000000000E+00 0. -1.
         23    2    1    2    0    0  0.97581080954E+03 -0.13938055232E+03 -0.38101264659E+02  0.99184316392E+03  0.10328349849E+03 0.  0.
        254    2    1    2    0    0 -0.97581080954E+03  0.13938055232E+03 -0.14691517719E+04  0.19802932912E+04  0.88967461251E+03 0.  0.
        -24    2    4    4    0    0 -0.67414890565E+03  0.26466880181E+03 -0.34347721158E+03  0.80549063999E+03  0.79449698574E+02 0.  0.
         24    2    4    4    0    0 -0.30166190390E+03 -0.12528824949E+03 -0.11256745603E+04  0.11748026513E+04  0.79504741730E+02 0.  0.
         13    1    3    3    0    0  0.66879046415E+03 -0.74173136377E+02 -0.69188706386E+02  0.67643877490E+03  0.00000000000E+00 0.  1.
        -13    1    3    3    0    0  0.30702034539E+03 -0.65207415942E+02  0.31087441727E+02  0.31540438902E+03  0.00000000000E+00 0. -1.
          2    1    6    6  502    0 -0.16157877972E+02  0.11098798385E+02 -0.74976412013E+02  0.77496598019E+02  0.00000000000E+00 0. -1.
          1    1    5    5  503    0 -0.32911666858E+03  0.10383162074E+03 -0.12814301834E+03  0.36812962412E+03  0.00000000000E+00 0. -1.
         -2    1    5    5    0  503 -0.34503223707E+03  0.16083718106E+03 -0.21533419324E+03  0.43736101587E+03  0.00000000000E+00 0.  1.
         -1    1    6    6    0  502 -0.28550402592E+03 -0.13638704787E+03 -0.10506981483E+04  0.10973060532E+04  0.00000000000E+00 0.  1.
<mgrwt>
<rscale>  0 0.25615978E+04</rscale>
<asrwt>0</asrwt>
<pdfrwt beam="1">  1        2 0.34456843E+00 0.25615978E+04</pdfrwt>
<pdfrwt beam="2">  1       -2 0.11268334E+00 0.25615978E+04</pdfrwt>
<totfact> 0.26964244E+00</totfact>
</mgrwt>
</event>
<event>
12    1  0.1504874E-007  0.1614457E+04  0.7818608E-02  0.8811716E-01
         -1   -1    0    0    0  501 -0.00000000000E+00  0.00000000000E+00  0.10051777242E+04  0.10051777242E+04  0.00000000000E+00 0.  1.
          1   -1    0    0  501    0  0.00000000000E+00 -0.00000000000E+00 -0.64826118351E+03  0.64826118351E+03  0.00000000000E+00 0. -1.
         23    2    1    2    0    0  0.64958758354E+02 -0.27417453363E+03  0.61181117046E+03  0.67955945767E+03  0.89982404021E+02 0.  0.
        254    2    1    2    0    0 -0.64958758354E+02  0.27417453363E+03 -0.25489462981E+03  0.97387945000E+03  0.89670429666E+03 0.  0.
        -24    2    4    4    0    0  0.40400279363E+03  0.14879948710E+03 -0.18968923326E+03  0.47722257952E+03  0.79999003557E+02 0.  0.
         24    2    4    4    0    0 -0.46896155198E+03  0.12537504653E+03 -0.65205396552E+02  0.49665687048E+03  0.82294979947E+02 0.  0.
         13    1    3    3    0    0  0.77475298599E+02 -0.24467189936E+03  0.58074166722E+03  0.63492333732E+03  0.00000000000E+00 0.  1.
        -13    1    3    3    0    0 -0.12516540245E+02 -0.29502634266E+02  0.31069503245E+02  0.44636120353E+02  0.00000000000E+00 0. -1.
          2    1    6    6  502    0 -0.30044442875E+03  0.10053446520E+03 -0.76569613788E+02  0.32594008531E+03  0.00000000000E+00 0. -1.
          1    1    5    5  503    0  0.36448315597E+03  0.10942546776E+03 -0.15142617167E+03  0.40957513285E+03  0.00000000000E+00 0. -1.
         -2    1    5    5    0  503  0.39519637660E+02  0.39374019338E+02 -0.38263061585E+02  0.67647446674E+02  0.00000000000E+00 0.  1.
         -3    1    6    6    0  502 -0.16851712324E+03  0.24840581334E+02  0.11364217236E+02  0.17071678517E+03  0.00000000000E+00 0.  1.
<mgrwt>
<rscale>  0 0.16144568E+04</rscale>
<asrwt>0</asrwt>
<pdfrwt beam="1">  1        1 0.99732490E-01 0.16144568E+04</pdfrwt>
<pdfrwt beam="2">  1       -1 0.15464273E+00 0.16144568E+04</pdfrwt>
<totfact> 0.94118351E+00</totfact>
</mgrwt>
</event>
<event>
12    1  0.1504874E-007  0.2426908E+04  0.7818608E-02  0.8429498E-01
         -2   -1    0    0    0  501 -0.00000000000E+00  0.00000000000E+00  0.12071418457E+04  0.12071418457E+04  0.00000000000E+00 0.  1.
          2   -1    0    0  501    0  0.00000000000E+00 -0.00000000000E+00 -0.12197988102E+04  0.12197988102E+04  0.00000000000E+00 0. -1.
         23    2    1    2    0    0 -0.60056462017E+03  0.70064546812E+03 -0.46895494123E+03  0.10391292338E+04  0.91043356355E+02 0.  0.
        254    2    1    2    0    0  0.60056462017E+03 -0.70064546812E+03  0.45629797679E+03  0.13878114220E+04  0.93071518979E+03 0.  0.
        -24    2    4    4    0    0 -0.18976898989E+03 -0.23470872668E+01  0.22586529316E+03  0.30537374905E+03  0.78868356200E+02 0.  0.
         24    2    4    4    0    0  0.79033361005E+03 -0.69829838086E+03  0.23043268363E+03  0.10824376730E+04  0.79525155296E+02 0.  0.
         13    1    3    3    0    0 -0.26368625544E+02  0.45543699559E+02 -0.69820600185E+01  0.53087495182E+02  0.00000000000E+00 0.  1.
        -13    1    3    3    0    0 -0.57419599462E+03  0.65510176856E+03 -0.46197288121E+03  0.98604173867E+03  0.00000000000E+00 0. -1.
          2    1    6    6  502    0  0.69919443729E+03 -0.64125308493E+03  0.22349648728E+03  0.97469434178E+03  0.00000000000E+00 0. -1.
          1    1    5    5  503    0 -0.33484128019E+02  0.26353887912E+02  0.75024971605E+02  0.86281287668E+02  0.00000000000E+00 0. -1.
         -2    1    5    5    0  503 -0.15628486187E+03 -0.28700975178E+02  0.15084032156E+03  0.21909246138E+03  0.00000000000E+00 0.  1.
         -1    1    6    6    0  502  0.91139172768E+02 -0.57045295923E+02  0.69361963519E+01  0.10774333121E+03  0.00000000000E+00 0.  1.
<mgrwt>
<rscale>  0 0.24269077E+04</rscale>
<asrwt>0</asrwt>
<pdfrwt beam="1">  1        2 0.18766136E+00 0.24269077E+04</pdfrwt>
<pdfrwt beam="2">  1       -2 0.18571413E+00 0.24269077E+04</pdfrwt>
<totfact> 0.27402247E+00</totfact>
</mgrwt>
</event>
<event>
12    1  0.1504874E-007  0.1185340E+04  0.7818608E-02  0.9125786E-01
          1   -1    0    0  501    0  0.00000000000E+00  0.00000000000E+00  0.78534000620E+03  0.78534000620E+03  0.00000000000E+00 0.  1.
         -1   -1    0    0    0  501 -0.00000000000E+00 -0.00000000000E+00 -0.44726801887E+03  0.44726801887E+03  0.00000000000E+00 0. -1.
         23    2    1    2    0    0 -0.12223505035E+03  0.98492979102E+02  0.25625331912E+03  0.31372776136E+03  0.90094784658E+02 0.  0.
        254    2    1    2    0    0  0.12223505035E+03 -0.98492979102E+02  0.81818668209E+02  0.91888026371E+03  0.90166754966E+03 0.  0.
        -24    2    4    4    0    0  0.18750974312E+03 -0.18250264624E+03 -0.36300630425E+03  0.45464346390E+03  0.80374017555E+02 0.  0.
         24    2    4    4    0    0 -0.65274692763E+02  0.84009667137E+02  0.44482497246E+03  0.46423679981E+03  0.79549610226E+02 0.  0.
         11    1    3    3    0    0 -0.13669966109E+03  0.92394692386E+02  0.22851640485E+03  0.28185692081E+03  0.00000000000E+00 0.  1.
        -11    1    3    3    0    0  0.14464610731E+02  0.60982867160E+01  0.27736914269E+02  0.31870840554E+02  0.00000000000E+00 0. -1.
          2    1    6    6  502    0  0.14530065672E+02  0.36422584282E+02  0.11104905632E+03  0.11776935240E+03  0.00000000000E+00 0. -1.
          1    1    5    5  503    0  0.50141044814E+02 -0.10398342556E+03 -0.14839804587E+03  0.18801238572E+03  0.00000000000E+00 0. -1.
         -2    1    5    5    0  503  0.13736869830E+03 -0.78519220684E+02 -0.21460825838E+03  0.26663107819E+03  0.00000000000E+00 0.  1.
         -1    1    6    6    0  502 -0.79804758434E+02  0.47587082855E+02  0.33377591613E+03  0.34646744741E+03  0.00000000000E+00 0.  1.
<mgrwt>
<rscale>  0 0.11853396E+04</rscale>
<asrwt>0</asrwt>
<pdfrwt beam="1">  1        1 0.12082154E+00 0.11853396E+04</pdfrwt>
<pdfrwt beam="2">  1       -1 0.68810465E-01 0.11853396E+04</pdfrwt>
<totfact> 0.48235670E+01</totfact>
</mgrwt>
</event>
<event>
12    1  0.1504874E-007  0.1141201E+04  0.7818608E-02  0.9165940E-01
          2   -1    0    0  501    0  0.00000000000E+00  0.00000000000E+00  0.10674260759E+04  0.10674260759E+04  0.00000000000E+00 0. -1.
         -2   -1    0    0    0  501 -0.00000000000E+00 -0.00000000000E+00 -0.30501864040E+03  0.30501864040E+03  0.00000000000E+00 0.  1.
         23    2    1    2    0    0 -0.66205188872E+02 -0.16106425843E+02 -0.83528559850E+02  0.14111578419E+03  0.91071950953E+02 0.  0.
        254    2    1    2    0    0  0.66205188872E+02  0.16106425843E+02  0.84593599534E+03  0.12313289321E+04  0.89214387116E+03 0.  0.
        -24    2    4    4    0    0  0.22714582602E+02 -0.20302938227E+03  0.94766871557E+03  0.97310672930E+03  0.84402783214E+02 0.  0.
         24    2    4    4    0    0  0.43490606269E+02  0.21913580811E+03 -0.10173272023E+03  0.25822220281E+03  0.80107580352E+02 0.  0.
         13    1    3    3    0    0 -0.50144325903E+02 -0.31884037934E+02 -0.97815989120E+02  0.11445091971E+03  0.00000000000E+00 0.  1.
        -13    1    3    3    0    0 -0.16060862969E+02  0.15777612091E+02  0.14287429270E+02  0.26664864480E+02  0.00000000000E+00 0. -1.
          4    1    6    6  502    0  0.84921878812E+01  0.26243599844E+00 -0.20432645884E+02  0.22128695070E+02  0.00000000000E+00 0. -1.
          1    1    5    5  503    0  0.24254670327E+02 -0.24543145268E+02  0.77721262984E+02  0.85036755184E+02  0.00000000000E+00 0. -1.
         -2    1    5    5    0  503 -0.15400877243E+01 -0.17848623700E+03  0.86994745258E+03  0.88806997412E+03  0.00000000000E+00 0.  1.
         -3    1    6    6    0  502  0.34998418388E+02  0.21887337211E+03 -0.81300074341E+02  0.23609350774E+03  0.00000000000E+00 0.  1.
<mgrwt>
<rscale>  0 0.11412009E+04</rscale>
<asrwt>0</asrwt>
<pdfrwt beam="1">  1        2 0.16421939E+00 0.11412009E+04</pdfrwt>
<pdfrwt beam="2">  1       -2 0.46925945E-01 0.11412009E+04</pdfrwt>
<totfact> 0.97281093E+01</totfact>
</mgrwt>
</event>
<event>
12    1  0.1504874E-007  0.1811414E+04  0.7818608E-02  0.8700253E-01
         -2   -1    0    0    0  501 -0.00000000000E+00  0.00000000000E+00  0.36355749903E+03  0.36355749903E+03  0.00000000000E+00 0.  1.
          2   -1    0    0  501    0  0.00000000000E+00 -0.00000000000E+00 -0.22563280546E+04  0.22563280546E+04  0.00000000000E+00 0. -1.
         23    2    1    2    0    0  0.36903815382E+02 -0.47620739309E+03 -0.14205955129E+04  0.15015653136E+04  0.92040246652E+02 0.  0.
        254    2    1    2    0    0 -0.36903815382E+02  0.47620739309E+03 -0.47217504266E+03  0.11183202400E+04  0.89417868205E+03 0.  0.
        -24    2    4    4    0    0 -0.10879094263E+03  0.95658645173E+02  0.24731486236E+03  0.29744863747E+03  0.79529901243E+02 0.  0.
         24    2    4    4    0    0  0.71887127253E+02  0.38054874792E+03 -0.71948990503E+03  0.82087160252E+03  0.78608878551E+02 0.  0.
         13    1    3    3    0    0  0.44033053797E+02 -0.12465477923E+03 -0.46070650516E+03  0.47929970552E+03  0.00000000000E+00 0.  1.
        -13    1    3    3    0    0 -0.71292384154E+01 -0.35155261386E+03 -0.95988900772E+03  0.10222656081E+04  0.00000000000E+00 0. -1.
          2    1    6    6  502    0  0.13379185949E+02  0.15622598405E+03 -0.21950285817E+03  0.26975371258E+03  0.00000000000E+00 0. -1.
          3    1    5    5  503    0 -0.99637129407E+02  0.44694423782E+02  0.19703923661E+03  0.22527674056E+03  0.00000000000E+00 0. -1.
         -4    1    5    5    0  503 -0.91538132277E+01  0.50964221391E+02  0.50275625746E+02  0.72171896904E+02  0.00000000000E+00 0.  1.
         -1    1    6    6    0  502  0.58507941304E+02  0.22432276387E+03 -0.49998704685E+03  0.55111788994E+03  0.00000000000E+00 0.  1.
<mgrwt>
<rscale>  0 0.18114138E+04</rscale>
<asrwt>0</asrwt>
<pdfrwt beam="1">  1        2 0.34712739E+00 0.18114138E+04</pdfrwt>
<pdfrwt beam="2">  1       -2 0.55931924E-01 0.18114138E+04</pdfrwt>
<totfact> 0.13594710E+01</totfact>
</mgrwt>
</event>
<event>
12    1  0.1504874E-007  0.1277804E+04  0.7818608E-02  0.9047354E-01
          2   -1    0    0  501    0  0.00000000000E+00  0.00000000000E+00  0.20244606342E+04  0.20244606342E+04  0.00000000000E+00 0. -1.
         -2   -1    0    0    0  501 -0.00000000000E+00 -0.00000000000E+00 -0.20163197547E+03  0.20163197547E+03  0.00000000000E+00 0.  1.
         23    2    1    2    0    0 -0.26014205902E+03 -0.10116462948E+03  0.73572245806E+03  0.79221986951E+03  0.91742101674E+02 0.  0.
        254    2    1    2    0    0  0.26014205902E+03  0.10116462948E+03  0.10871062007E+04  0.14338727402E+04  0.89234688902E+03 0.  0.
        -24    2    4    4    0    0 -0.77533721256E+02 -0.34831435950E+03  0.46042372920E+03  0.58821853066E+03  0.81710822031E+02 0.  0.
         24    2    4    4    0    0  0.33767578027E+03  0.44947898898E+03  0.62668247150E+03  0.84565420953E+03  0.79648150657E+02 0.  0.
         11    1    3    3    0    0 -0.20661303714E+03 -0.90113433136E+02  0.66908351112E+03  0.70603266412E+03  0.00000000000E+00 0. -1.
        -11    1    3    3    0    0 -0.53529021875E+02 -0.11051196349E+02  0.66638946943E+02  0.86187205392E+02  0.00000000000E+00 0.  1.
          2    1    6    6  502    0  0.81425601406E+02  0.15743141747E+03  0.23031793566E+03  0.29062197311E+03  0.00000000000E+00 0. -1.
          3    1    5    5  503    0 -0.18248936486E+02 -0.34449006876E+02  0.96066397142E+02  0.10367502311E+03  0.00000000000E+00 0. -1.
         -4    1    5    5    0  503 -0.59284784770E+02 -0.31386535262E+03  0.36435733206E+03  0.48454350754E+03  0.00000000000E+00 0.  1.
         -3    1    6    6    0  502  0.25625017887E+03  0.29204757152E+03  0.39636453584E+03  0.55503223642E+03  0.00000000000E+00 0.  1.
<mgrwt>
<rscale>  0 0.12778044E+04</rscale>
<asrwt>0</asrwt>
<pdfrwt beam="1">  1        2 0.31145547E+00 0.12778044E+04</pdfrwt>
<pdfrwt beam="2">  1       -2 0.31020305E-01 0.12778044E+04</pdfrwt>
<totfact> 0.61288470E+01</totfact>
</mgrwt>
</event>
<event>
12    1  0.1504874E-007  0.1768208E+04  0.7818608E-02  0.8723391E-01
          2   -1    0    0  501    0  0.00000000000E+00  0.00000000000E+00  0.23120884230E+04  0.23120884230E+04  0.00000000000E+00 0. -1.
         -2   -1    0    0    0  501 -0.00000000000E+00 -0.00000000000E+00 -0.33806652204E+03  0.33806652204E+03  0.00000000000E+00 0.  1.
         23    2    1    2    0    0 -0.38266148555E+03 -0.50484185680E+03  0.93908970942E+03  0.11363826110E+04  0.90448014369E+02 0.  0.
        254    2    1    2    0    0  0.38266148555E+03  0.50484185680E+03  0.10349321915E+04  0.15137723341E+04  0.90505631061E+03 0.  0.
        -24    2    4    4    0    0  0.39732307738E+03  0.73701498938E+03  0.90369645114E+03  0.12346834866E+04  0.81971421249E+02 0.  0.
         24    2    4    4    0    0 -0.14661591831E+02 -0.23217313259E+03  0.13123574039E+03  0.27908884744E+03  0.80922428547E+02 0.  0.
         11    1    3    3    0    0 -0.15824968301E+03 -0.18561725234E+03  0.28904000623E+03  0.37820741894E+03  0.00000000000E+00 0. -1.
        -11    1    3    3    0    0 -0.22441180254E+03 -0.31922460445E+03  0.65004970319E+03  0.75817519205E+03  0.00000000000E+00 0.  1.
          2    1    6    6  502    0  0.26601051936E+02 -0.53736122558E+02  0.13804100394E+02  0.61528367599E+02  0.00000000000E+00 0. -1.
          1    1    5    5  503    0  0.18596293276E+02  0.15791023486E+02  0.12989635661E+02  0.27638907015E+02  0.00000000000E+00 0. -1.
         -2    1    5    5    0  503  0.37872678410E+03  0.72122396590E+03  0.89070681548E+03  0.12070445796E+04  0.00000000000E+00 0.  1.
         -1    1    6    6    0  502 -0.41262643766E+02 -0.17843701003E+03  0.11743164000E+03  0.21756047985E+03  0.00000000000E+00 0.  1.
<mgrwt>
<rscale>  0 0.17682078E+04</rscale>
<asrwt>0</asrwt>
<pdfrwt beam="1">  1        2 0.35570590E+00 0.17682078E+04</pdfrwt>
<pdfrwt beam="2">  1       -2 0.52010236E-01 0.17682078E+04</pdfrwt>
<totfact> 0.14751294E+01</totfact>
</mgrwt>
</event>
<event>
12    1  0.2636439E-007  0.1972861E+04  0.7818608E-02  0.8619415E-01
         -1   -1    0    0    0  501 -0.00000000000E+00  0.00000000000E+00  0.66136995433E+03  0.66136995433E+03  0.00000000000E+00 0.  1.
          1   -1    0    0  501    0  0.00000000000E+00 -0.00000000000E+00 -0.14712563370E+04  0.14712563370E+04  0.00000000000E+00 0. -1.
         23    2    1    2    0    0 -0.41603255823E+03  0.10533477098E+03  0.38031065582E+03  0.58018738453E+03  0.88332908659E+02 0.  0.
        254    2    1    2    0    0  0.41603255823E+03 -0.10533477098E+03 -0.11901970385E+04  0.15524389068E+04  0.89962162348E+03 0.  0.
        -24    2    4    4    0    0  0.56889604561E+03  0.20285440027E+03 -0.93521857232E+03  0.11164694173E+04  0.84128254806E+02 0.  0.
         24    2    4    4    0    0 -0.15286348738E+03 -0.30818917125E+03 -0.25497846615E+03  0.43596948952E+03  0.81899734687E+02 0.  0.
         13    1    3    3    0    0 -0.37916221302E+03  0.12103160570E+03  0.34241348009E+03  0.52503297488E+03  0.00000000000E+00 0.  1.
        -13    1    3    3    0    0 -0.36870345208E+02 -0.15696834715E+02  0.37897175728E+02  0.55154409651E+02  0.00000000000E+00 0. -1.
          4    1    6    6  502    0 -0.12406339333E+01  0.37012084066E+01 -0.11755137112E+02  0.12386337827E+02  0.00000000000E+00 0. -1.
          1    1    5    5  503    0  0.10258965818E+02  0.12361660911E+02 -0.96913296234E+01  0.18761100980E+02  0.00000000000E+00 0. -1.
         -2    1    5    5    0  503  0.55863707979E+03  0.19049273936E+03 -0.92552724270E+03  0.10977083163E+04  0.00000000000E+00 0.  1.
         -3    1    6    6    0  502 -0.15162285344E+03 -0.31189037966E+03 -0.24322332903E+03  0.42358315169E+03  0.00000000000E+00 0.  1.
<mgrwt>
<rscale>  0 0.19728606E+04</rscale>
<asrwt>0</asrwt>
<pdfrwt beam="1">  1        1 0.22634713E+00 0.19728606E+04</pdfrwt>
<pdfrwt beam="2">  1       -1 0.10174923E+00 0.19728606E+04</pdfrwt>
<totfact> 0.58326713E+00</totfact>
</mgrwt>
</event>
<event>
12    1  0.1504874E-007  0.1518311E+04  0.7818608E-02  0.8872367E-01
          2   -1    0    0  501    0  0.00000000000E+00  0.00000000000E+00  0.17174710705E+04  0.17174710705E+04  0.00000000000E+00 0. -1.
         -2   -1    0    0    0  501 -0.00000000000E+00 -0.00000000000E+00 -0.33556163113E+03  0.33556163113E+03  0.00000000000E+00 0.  1.
         23    2    1    2    0    0  0.99680556877E+02  0.20509306953E+03  0.10387585028E+04  0.10674150515E+04  0.91412714767E+02 0.  0.
        254    2    1    2    0    0 -0.99680556877E+02 -0.20509306953E+03  0.34315093657E+03  0.98561765015E+03  0.89537154658E+03 0.  0.
        -24    2    4    4    0    0 -0.38940484107E+03 -0.29637005261E+03 -0.30817693467E+02  0.49710700175E+03  0.81818718087E+02 0.  0.
         24    2    4    4    0    0  0.28972428420E+03  0.91276983074E+02  0.37396863004E+03  0.48851064839E+03  0.80737035176E+02 0.  0.
         13    1    3    3    0    0 -0.15438223407E+02  0.25180214687E+02  0.83530813364E+02  0.88598977054E+02  0.00000000000E+00 0.  1.
        -13    1    3    3    0    0  0.11511878028E+03  0.17991285485E+03  0.95522768946E+03  0.97881607446E+03  0.00000000000E+00 0. -1.
          4    1    6    6  502    0  0.15394821998E+03  0.77368783356E+02  0.16260884972E+03  0.23691268662E+03  0.00000000000E+00 0. -1.
          3    1    5    5  503    0 -0.77612845246E+02 -0.82257546707E+02  0.21979442138E+02  0.11520917331E+03  0.00000000000E+00 0. -1.
         -4    1    5    5    0  503 -0.31179199583E+03 -0.21411250590E+03 -0.52797135605E+02  0.38189782845E+03  0.00000000000E+00 0.  1.
         -3    1    6    6    0  502  0.13577606421E+03  0.13908199718E+02  0.21135978032E+03  0.25159796178E+03  0.00000000000E+00 0.  1.
<mgrwt>
<rscale>  0 0.15183114E+04</rscale>
<asrwt>0</asrwt>
<pdfrwt beam="1">  1        2 0.26422631E+00 0.15183114E+04</pdfrwt>
<pdfrwt beam="2">  1       -2 0.51624867E-01 0.15183114E+04</pdfrwt>
<totfact> 0.32789927E+01</totfact>
</mgrwt>
</event>
<event>
12    1  0.1504874E-007  0.1948928E+04  0.7818608E-02  0.8630878E-01
          2   -1    0    0  501    0  0.00000000000E+00  0.00000000000E+00  0.26385847606E+04  0.26385847606E+04  0.00000000000E+00 0. -1.
         -2   -1    0    0    0  501 -0.00000000000E+00 -0.00000000000E+00 -0.35988222907E+03  0.35988222907E+03  0.00000000000E+00 0.  1.
         23    2    1    2    0    0 -0.55030961129E+03 -0.10714652790E+03  0.16915501913E+04  0.17844210393E+04  0.92170218308E+02 0.  0.
        254    2    1    2    0    0  0.55030961129E+03  0.10714652790E+03  0.58715234028E+03  0.12140459504E+04  0.90268413760E+03 0.  0.
        -24    2    4    4    0    0 -0.51005801804E+02  0.29243801917E+03  0.48111171386E+03  0.57097874179E+03  0.80166423669E+02 0.  0.
         24    2    4    4    0    0  0.60131541309E+03 -0.18529149126E+03  0.10604062642E+03  0.64306720862E+03  0.79860237873E+02 0.  0.
         11    1    3    3    0    0 -0.30671038744E+03 -0.46531634778E+02  0.79472598086E+03  0.85312709455E+03  0.00000000000E+00 0. -1.
        -11    1    3    3    0    0 -0.24359922385E+03 -0.60614893123E+02  0.89682421041E+03  0.93129394473E+03  0.00000000000E+00 0.  1.
          4    1    6    6  502    0  0.42498313535E+03 -0.14951370013E+03  0.43625875611E+02  0.45262371665E+03  0.00000000000E+00 0. -1.
          3    1    5    5  503    0  0.21537415469E+02  0.80692152981E+02  0.13856606990E+03  0.16178887337E+03  0.00000000000E+00 0. -1.
         -4    1    5    5    0  503 -0.72543217273E+02  0.21174586618E+03  0.34254564396E+03  0.40918986842E+03  0.00000000000E+00 0.  1.
         -3    1    6    6    0  502  0.17633227774E+03 -0.35777791138E+02  0.62414750809E+02  0.19044349197E+03  0.00000000000E+00 0.  1.
<mgrwt>
<rscale>  0 0.19489277E+04</rscale>
<asrwt>0</asrwt>
<pdfrwt beam="1">  1        2 0.40593611E+00 0.19489277E+04</pdfrwt>
<pdfrwt beam="2">  1       -2 0.55366498E-01 0.19489277E+04</pdfrwt>
<totfact> 0.82704288E+00</totfact>
</mgrwt>
</event>
<event>
12    1  0.1504874E-007  0.1323141E+04  0.7818608E-02  0.9011413E-01
         -2   -1    0    0    0  501 -0.00000000000E+00  0.00000000000E+00  0.49079520697E+03  0.49079520697E+03  0.00000000000E+00 0.  1.
          2   -1    0    0  501    0  0.00000000000E+00 -0.00000000000E+00 -0.89176847816E+03  0.89176847816E+03  0.00000000000E+00 0. -1.
         23    2    1    2    0    0  0.19490038001E+03 -0.18075124582E+03  0.13369774501E+03  0.31292292987E+03  0.96894282723E+02 0.  0.
        254    2    1    2    0    0 -0.19490038001E+03  0.18075124582E+03 -0.53467101620E+03  0.10696407553E+04  0.88746891708E+03 0.  0.
        -24    2    4    4    0    0 -0.87836720256E+02 -0.59902960061E+02  0.22541768332E+03  0.26126189693E+03  0.78364486753E+02 0.  0.
         24    2    4    4    0    0 -0.10706365975E+03  0.24065420588E+03 -0.76008869951E+03  0.80837885835E+03  0.79777650052E+02 0.  0.
         13    1    3    3    0    0  0.17267131528E+03 -0.18741810672E+03  0.13725032287E+03  0.28944529876E+03  0.00000000000E+00 0.  1.
        -13    1    3    3    0    0  0.22229064725E+02  0.66668609032E+01 -0.35525778593E+01  0.23477631105E+02  0.00000000000E+00 0. -1.
          2    1    6    6  502    0 -0.29185576017E+02  0.10302017109E+03 -0.20601061479E+03  0.23217520735E+03  0.00000000000E+00 0. -1.
          3    1    5    5  503    0 -0.63533927844E+02 -0.15814070822E+02  0.61645892173E+02  0.89926975068E+02  0.00000000000E+00 0. -1.
         -4    1    5    5    0  503 -0.24302792412E+02 -0.44088889239E+02  0.16377179114E+03  0.17133492186E+03  0.00000000000E+00 0.  1.
         -1    1    6    6    0  502 -0.77878083734E+02  0.13763403479E+03 -0.55407808472E+03  0.57620365100E+03  0.00000000000E+00 0.  1.
<mgrwt>
<rscale>  0 0.13231413E+04</rscale>
<asrwt>0</asrwt>
<pdfrwt beam="1">  1        2 0.13719515E+00 0.13231413E+04</pdfrwt>
<pdfrwt beam="2">  1       -2 0.75506956E-01 0.13231413E+04</pdfrwt>
<totfact> 0.45740018E+01</totfact>
</mgrwt>
</event>
<event>
12    1  0.1504874E-007  0.1433697E+04  0.7818608E-02  0.8929782E-01
         -1   -1    0    0    0  501 -0.00000000000E+00  0.00000000000E+00  0.50560186069E+03  0.50560186069E+03  0.00000000000E+00 0.  1.
          1   -1    0    0  501    0  0.00000000000E+00 -0.00000000000E+00 -0.10163560770E+04  0.10163560770E+04  0.00000000000E+00 0. -1.
         23    2    1    2    0    0  0.28123477215E+03  0.66799277061E+02 -0.49938882237E+03  0.58443333289E+03  0.92833098606E+02 0.  0.
        254    2    1    2    0    0 -0.28123477215E+03 -0.66799277061E+02 -0.11365393906E+02  0.93752460477E+03  0.89177803958E+03 0.  0.
        -24    2    4    4    0    0 -0.57101383225E+03 -0.18716541464E+03  0.49815325031E+02  0.60804633157E+03  0.78428857319E+02 0.  0.
         24    2    4    4    0    0  0.28977906010E+03  0.12036613758E+03 -0.61180718937E+02  0.32947827320E+03  0.79705341060E+02 0.  0.
         13    1    3    3    0    0  0.24066294794E+03  0.24455565250E+02 -0.43186275606E+03  0.49499714065E+03  0.00000000000E+00 0. -1.
        -13    1    3    3    0    0  0.40571824209E+02  0.42343711811E+02 -0.67526066311E+02  0.89436192232E+02  0.00000000000E+00 0.  1.
          2    1    6    6  502    0  0.12253345522E+03  0.88463739713E+02 -0.48603576239E+02  0.15875323151E+03  0.00000000000E+00 0. -1.
          3    1    5    5  503    0 -0.56264531116E+03 -0.19193660842E+03  0.42592788053E+02  0.59600633672E+03  0.00000000000E+00 0. -1.
         -2    1    5    5    0  503 -0.83685210971E+01  0.47711937809E+01  0.72225369776E+01  0.12039994844E+02  0.00000000000E+00 0.  1.
         -1    1    6    6    0  502  0.16724560488E+03  0.31902397866E+02 -0.12577142698E+02  0.17072504169E+03  0.00000000000E+00 0.  1.
<mgrwt>
<rscale>  0 0.14336967E+04</rscale>
<asrwt>0</asrwt>
<pdfrwt beam="1">  1        1 0.15636247E+00 0.14336967E+04</pdfrwt>
<pdfrwt beam="2">  1       -1 0.77784902E-01 0.14336967E+04</pdfrwt>
<totfact> 0.23663858E+01</totfact>
</mgrwt>
</event>
<event>
12    1  0.2212375E-007  0.1855980E+04  0.7818608E-02  0.8677083E-01
         -1   -1    0    0    0  501 -0.00000000000E+00  0.00000000000E+00  0.14334142731E+04  0.14334142731E+04  0.00000000000E+00 0.  1.
          1   -1    0    0  501    0  0.00000000000E+00 -0.00000000000E+00 -0.60077948748E+03  0.60077948748E+03  0.00000000000E+00 0. -1.
         23    2    1    2    0    0  0.18068118787E+03  0.38844405867E+03 -0.28129098853E+03  0.51825140379E+03  0.76976742872E+02 0.  0.
        254    2    1    2    0    0 -0.18068118787E+03 -0.38844405867E+03  0.11139257741E+04  0.15159423568E+04  0.93472783226E+03 0.  0.
        -24    2    4    4    0    0  0.23422407801E+02 -0.58487128765E+03  0.32614189019E+03  0.67474878307E+03  0.79336973861E+02 0.  0.
         24    2    4    4    0    0 -0.20410359567E+03  0.19642722898E+03  0.78778388394E+03  0.84119357369E+03  0.82226799649E+02 0.  0.
         11    1    3    3    0    0  0.17982094824E+03  0.37725135243E+03 -0.25476541942E+03  0.48944823553E+03  0.00000000000E+00 0. -1.
        -11    1    3    3    0    0  0.86023963219E+00  0.11192706236E+02 -0.26525569114E+02  0.28803168262E+02  0.00000000000E+00 0.  1.
          2    1    6    6  502    0 -0.20917401484E+03  0.19876672522E+03  0.77959145703E+03  0.83127902621E+03  0.00000000000E+00 0. -1.
          3    1    5    5  503    0  0.52597918692E+01 -0.54251245034E+03  0.31492152554E+03  0.62731410906E+03  0.00000000000E+00 0. -1.
         -4    1    5    5    0  503  0.18162615932E+02 -0.42358837308E+02  0.11220364656E+02  0.47434674012E+02  0.00000000000E+00 0.  1.
         -1    1    6    6    0  502  0.50704191701E+01 -0.23394962384E+01  0.81924269090E+01  0.99145474868E+01  0.00000000000E+00 0.  1.
<mgrwt>
<rscale>  0 0.18559805E+04</rscale>
<asrwt>0</asrwt>
<pdfrwt beam="1">  1        1 0.92427614E-01 0.18559805E+04</pdfrwt>
<pdfrwt beam="2">  1       -1 0.22052527E+00 0.18559805E+04</pdfrwt>
<totfact> 0.35038701E+00</totfact>
</mgrwt>
</event>
<event>
12    1  0.1504874E-007  0.2397611E+04  0.7818608E-02  0.8440398E-01
          2   -1    0    0  501    0  0.00000000000E+00  0.00000000000E+00  0.24565753303E+04  0.24565753303E+04  0.00000000000E+00 0.  1.
         -2   -1    0    0    0  501 -0.00000000000E+00 -0.00000000000E+00 -0.58501554372E+03  0.58501554372E+03  0.00000000000E+00 0. -1.
         23    2    1    2    0    0 -0.34610185592E+03 -0.32578017947E+03  0.19412755196E+04  0.20005735873E+04  0.88457985174E+02 0.  0.
        254    2    1    2    0    0  0.34610185592E+03  0.32578017947E+03 -0.69715733066E+02  0.10410172867E+04  0.92354614814E+03 0.  0.
        -24    2    4    4    0    0  0.29771810224E+03  0.61259045849E+03  0.10247997493E+03  0.69332359729E+03  0.79324189731E+02 0.  0.
         24    2    4    4    0    0  0.48383753683E+02 -0.28681027902E+03 -0.17219570799E+03  0.34769368939E+03  0.81476475248E+02 0.  0.
         13    1    3    3    0    0 -0.11484577648E+03 -0.11410505352E+03  0.49849847931E+03  0.52412808500E+03  0.00000000000E+00 0. -1.
        -13    1    3    3    0    0 -0.23125607944E+03 -0.21167512595E+03  0.14427770403E+04  0.14764455023E+04  0.00000000000E+00 0.  1.
          4    1    6    6  502    0  0.12176702214E+02 -0.20269811726E+03 -0.15269066043E+03  0.25406541795E+03  0.00000000000E+00 0. -1.
          3    1    5    5  503    0 -0.12202476274E+01  0.29481428319E+02  0.11923492114E+02  0.31824727559E+02  0.00000000000E+00 0. -1.
         -4    1    5    5    0  503  0.29893834986E+03  0.58310903017E+03  0.90556482812E+02  0.66149886974E+03  0.00000000000E+00 0.  1.
         -3    1    6    6    0  502  0.36207051470E+02 -0.84112161759E+02 -0.19505047566E+02  0.93628271438E+02  0.00000000000E+00 0.  1.
<mgrwt>
<rscale>  0 0.23976111E+04</rscale>
<asrwt>0</asrwt>
<pdfrwt beam="1">  1        2 0.37793466E+00 0.23976111E+04</pdfrwt>
<pdfrwt beam="2">  1       -2 0.90002393E-01 0.23976111E+04</pdfrwt>
<totfact> 0.35052283E+00</totfact>
</mgrwt>
</event>
<event>
12    1  0.1504874E-007  0.2132725E+04  0.7818608E-02  0.8546963E-01
         -2   -1    0    0    0  501 -0.00000000000E+00  0.00000000000E+00  0.69494624011E+03  0.69494624011E+03  0.00000000000E+00 0. -1.
          2   -1    0    0  501    0  0.00000000000E+00 -0.00000000000E+00 -0.16362827035E+04  0.16362827035E+04  0.00000000000E+00 0.  1.
         23    2    1    2    0    0  0.65271846434E+03  0.44024769470E+03 -0.80651998171E+03  0.11310894405E+04  0.95023234175E+02 0.  0.
        254    2    1    2    0    0 -0.65271846434E+03 -0.44024769470E+03 -0.13481648165E+03  0.12001395031E+04  0.89571196087E+03 0.  0.
        -24    2    4    4    0    0 -0.29467873624E+03 -0.53943668717E+03  0.24165328242E+03  0.66515852993E+03  0.78816647875E+02 0.  0.
         24    2    4    4    0    0 -0.35803972810E+03  0.99188992477E+02 -0.37646976407E+03  0.53498097318E+03  0.80276118995E+02 0.  0.
         13    1    3    3    0    0  0.37589274700E+03  0.21321926289E+03 -0.39308303486E+03  0.58418497379E+03  0.00000000000E+00 0. -1.
        -13    1    3    3    0    0  0.27682571734E+03  0.22702843181E+03 -0.41343694685E+03  0.54690446666E+03  0.00000000000E+00 0.  1.
          2    1    6    6  502    0 -0.11626000738E+02 -0.11332234478E+02 -0.12404416578E+02  0.20431666160E+02  0.00000000000E+00 0. -1.
          1    1    5    5  503    0 -0.19805238603E+03 -0.32545631911E+03  0.18554809871E+03  0.42376250447E+03  0.00000000000E+00 0. -1.
         -2    1    5    5    0  503 -0.96626350210E+02 -0.21398036807E+03  0.56105183713E+02  0.24139602547E+03  0.00000000000E+00 0.  1.
         -1    1    6    6    0  502 -0.34641372737E+03  0.11052122695E+03 -0.36406534749E+03  0.51454930702E+03  0.00000000000E+00 0.  1.
<mgrwt>
<rscale>  0 0.21327246E+04</rscale>
<asrwt>0</asrwt>
<pdfrwt beam="1">  1        2 0.25173580E+00 0.21327246E+04</pdfrwt>
<pdfrwt beam="2">  1       -2 0.10691481E+00 0.21327246E+04</pdfrwt>
<totfact> 0.68849893E+00</totfact>
</mgrwt>
</event>
<event>
12    1  0.1504874E-007  0.1969201E+04  0.7818608E-02  0.8621157E-01
         -2   -1    0    0    0  501 -0.00000000000E+00  0.00000000000E+00  0.29826640856E+04  0.29826640856E+04  0.00000000000E+00 0.  1.
          2   -1    0    0  501    0  0.00000000000E+00 -0.00000000000E+00 -0.32502433492E+03  0.32502433492E+03  0.00000000000E+00 0. -1.
         23    2    1    2    0    0 -0.26722007973E+03 -0.44820885580E+03  0.20153726926E+04  0.20837459406E+04  0.89287768079E+02 0.  0.
        254    2    1    2    0    0  0.26722007973E+03  0.44820885580E+03  0.64226705806E+03  0.12239424799E+04  0.90179292011E+03 0.  0.
        -24    2    4    4    0    0  0.71512496532E+02  0.14566170587E+02  0.72633349641E+03  0.73436855972E+03  0.80066366273E+02 0.  0.
         24    2    4    4    0    0  0.19570758320E+03  0.43364268521E+03 -0.84066438356E+02  0.48957392016E+03  0.79170832281E+02 0.  0.
         13    1    3    3    0    0  0.13722027777E+01 -0.21715097131E+01  0.41075661593E+00  0.26013680813E+01  0.00000000000E+00 0. -1.
        -13    1    3    3    0    0 -0.26859228251E+03 -0.44603734608E+03  0.20149619360E+04  0.20811445725E+04  0.00000000000E+00 0.  1.
          4    1    6    6  502    0  0.85656068630E+02  0.10402850033E+03 -0.26543103216E+02  0.13734419282E+03  0.00000000000E+00 0. -1.
          3    1    5    5  503    0  0.33596509068E+01 -0.25931809375E+02  0.11617408956E+03  0.11908049831E+03  0.00000000000E+00 0. -1.
         -2    1    5    5    0  503  0.68152845625E+02  0.40497979962E+02  0.61015940685E+03  0.61528806141E+03  0.00000000000E+00 0.  1.
         -3    1    6    6    0  502  0.11005151457E+03  0.32961418488E+03 -0.57523335140E+02  0.35222972733E+03  0.00000000000E+00 0.  1.
<mgrwt>
<rscale>  0 0.19692013E+04</rscale>
<asrwt>0</asrwt>
<pdfrwt beam="1">  1        2 0.50003746E-01 0.19692013E+04</pdfrwt>
<pdfrwt beam="2">  1       -2 0.45887138E+00 0.19692013E+04</pdfrwt>
<totfact> 0.28397055E-01</totfact>
</mgrwt>
</event>
<event>
12    1  0.1504874E-007  0.2881374E+04  0.7818608E-02  0.8278441E-01
         -2   -1    0    0    0  501 -0.00000000000E+00  0.00000000000E+00  0.14291644105E+04  0.14291644105E+04  0.00000000000E+00 0.  1.
          2   -1    0    0  501    0  0.00000000000E+00 -0.00000000000E+00 -0.14523026003E+04  0.14523026003E+04  0.00000000000E+00 0. -1.
         23    2    1    2    0    0 -0.65759888250E+03 -0.11129923230E+04 -0.29436199773E+03  0.13285311785E+04  0.84604403931E+02 0.  0.
        254    2    1    2    0    0  0.65759888250E+03  0.11129923230E+04  0.27122380793E+03  0.15529358324E+04  0.81661444047E+03 0.  0.
        -24    2    4    4    0    0 -0.91575451127E+00  0.16360456439E+03  0.34688686505E+03  0.39218299621E+03  0.81912839499E+02 0.  0.
         24    2    4    4    0    0  0.65851463702E+03  0.94938775859E+03 -0.75663057126E+02  0.11607528362E+04  0.81508314021E+02 0.  0.
         11    1    3    3    0    0 -0.42083361923E+02 -0.38503785793E+02 -0.85680173189E+01  0.57679821358E+02  0.00000000000E+00 0. -1.
        -11    1    3    3    0    0 -0.61551552058E+03 -0.10744885372E+04 -0.28579398042E+03  0.12708513571E+04  0.00000000000E+00 0.  1.
          4    1    6    6  502    0  0.63683591050E+03  0.93265912538E+03 -0.83049406653E+02  0.11323913745E+04  0.00000000000E+00 0. -1.
          3    1    5    5  503    0  0.12235718332E+02  0.15403451272E+03  0.24969170094E+03  0.29363632171E+03  0.00000000000E+00 0. -1.
         -4    1    5    5    0  503 -0.13151472843E+02  0.95700516682E+01  0.97195164118E+02  0.98546674499E+02  0.00000000000E+00 0.  1.
         -3    1    6    6    0  502  0.21678726518E+02  0.16728633202E+02  0.73863495274E+01  0.28361461732E+02  0.00000000000E+00 0.  1.
<mgrwt>
<rscale>  0 0.28813741E+04</rscale>
<asrwt>0</asrwt>
<pdfrwt beam="1">  1        2 0.22343117E+00 0.28813741E+04</pdfrwt>
<pdfrwt beam="2">  1       -2 0.21987145E+00 0.28813741E+04</pdfrwt>
<totfact> 0.11563595E+00</totfact>
</mgrwt>
</event>
<event>
12    1  0.1504874E-007  0.2909817E+04  0.7818608E-02  0.8269963E-01
         -2   -1    0    0    0  501 -0.00000000000E+00  0.00000000000E+00  0.14507112093E+04  0.14507112093E+04  0.00000000000E+00 0.  1.
          2   -1    0    0  501    0  0.00000000000E+00 -0.00000000000E+00 -0.14591181165E+04  0.14591181165E+04  0.00000000000E+00 0. -1.
         23    2    1    2    0    0  0.53089666647E+03  0.29815095224E+03  0.11643329397E+04  0.13169802343E+04  0.89557145438E+02 0.  0.
        254    2    1    2    0    0 -0.53089666647E+03 -0.29815095224E+03 -0.11727398469E+04  0.15928490914E+04  0.88944039636E+03 0.  0.
        -24    2    4    4    0    0  0.17094267281E+03 -0.14117019492E+03 -0.25704132010E+02  0.23648205935E+03  0.78183378462E+02 0.  0.
         24    2    4    4    0    0 -0.70183933928E+03 -0.15698075731E+03 -0.11470357149E+04  0.13563670321E+04  0.82578314672E+02 0.  0.
         13    1    3    3    0    0  0.86440545281E+02  0.21547706899E+02  0.12826730161E+03  0.15616905008E+03  0.00000000000E+00 0. -1.
        -13    1    3    3    0    0  0.44445612119E+03  0.27660324534E+03  0.10360656381E+04  0.11608111843E+04  0.00000000000E+00 0.  1.
          4    1    6    6  502    0 -0.55908124619E+03 -0.12832055751E+03 -0.84831645283E+03  0.10240501987E+04  0.00000000000E+00 0. -1.
          1    1    5    5  503    0  0.14807359941E+03 -0.11305985969E+03 -0.49949288084E+02  0.19288145089E+03  0.00000000000E+00 0. -1.
         -2    1    5    5    0  503  0.22869073402E+02 -0.28110335232E+02  0.24245156074E+02  0.43600608461E+02  0.00000000000E+00 0.  1.
         -3    1    6    6    0  502 -0.14275809309E+03 -0.28660199802E+02 -0.29871926209E+03  0.33231683337E+03  0.00000000000E+00 0.  1.
<mgrwt>
<rscale>  0 0.29098172E+04</rscale>
<asrwt>0</asrwt>
<pdfrwt beam="1">  1        2 0.22447971E+00 0.29098172E+04</pdfrwt>
<pdfrwt beam="2">  1       -2 0.22318634E+00 0.29098172E+04</pdfrwt>
<totfact> 0.10895309E+00</totfact>
</mgrwt>
</event>
<event>
12    1  0.1504874E-007  0.1887879E+04  0.7818608E-02  0.8660913E-01
         -2   -1    0    0    0  501 -0.00000000000E+00  0.00000000000E+00  0.14396519217E+04  0.14396519217E+04  0.00000000000E+00 0.  1.
          2   -1    0    0  501    0  0.00000000000E+00 -0.00000000000E+00 -0.61891480042E+03  0.61891480042E+03  0.00000000000E+00 0. -1.
         23    2    1    2    0    0 -0.12922499754E+03  0.11855227351E+03 -0.44771146690E+03  0.48988995708E+03  0.93770309350E+02 0.  0.
        254    2    1    2    0    0  0.12922499754E+03 -0.11855227351E+03  0.12684485882E+04  0.15686767650E+04  0.90610773684E+03 0.  0.
        -24    2    4    4    0    0 -0.23719401211E+03  0.21505153344E+03  0.19320567076E+03  0.38210681728E+03  0.78543154857E+02 0.  0.
         24    2    4    4    0    0  0.36641900965E+03 -0.33360380696E+03  0.10752429174E+04  0.11865699478E+04  0.79034921598E+02 0.  0.
         11    1    3    3    0    0 -0.11648946031E+03  0.73827012467E+02 -0.40067661669E+03  0.42374753485E+03  0.00000000000E+00 0. -1.
        -11    1    3    3    0    0 -0.12735537227E+02  0.44725261047E+02 -0.47034850207E+02  0.66142422228E+02  0.00000000000E+00 0.  1.
          4    1    6    6  502    0  0.33029737242E+03 -0.32552814423E+03  0.10139041356E+04  0.11149289318E+04  0.00000000000E+00 0. -1.
          1    1    5    5  503    0 -0.20102707135E+03  0.18927614887E+03  0.19439582293E+03  0.33767895984E+03  0.00000000000E+00 0. -1.
         -2    1    5    5    0  503 -0.36166940758E+02  0.25775384574E+02 -0.11901521684E+01  0.44427857431E+02  0.00000000000E+00 0.  1.
         -3    1    6    6    0  502  0.36121637237E+02 -0.80756627278E+01  0.61338781816E+02  0.71641015904E+02  0.00000000000E+00 0.  1.
<mgrwt>
<rscale>  0 0.18878791E+04</rscale>
<asrwt>0</asrwt>
<pdfrwt beam="1">  1        2 0.95217662E-01 0.18878791E+04</pdfrwt>
<pdfrwt beam="2">  1       -2 0.22148491E+00 0.18878791E+04</pdfrwt>
<totfact> 0.43275592E+00</totfact>
</mgrwt>
</event>
<event>
12    1  0.1504874E-007  0.1589141E+04  0.7818608E-02  0.8827247E-01
         -2   -1    0    0    0  501 -0.00000000000E+00  0.00000000000E+00  0.88179003365E+03  0.88179003365E+03  0.00000000000E+00 0.  1.
          2   -1    0    0  501    0  0.00000000000E+00 -0.00000000000E+00 -0.71597779316E+03  0.71597779316E+03  0.00000000000E+00 0. -1.
         23    2    1    2    0    0 -0.35598083528E+03 -0.29796642192E+03  0.32761260041E+03  0.57545440565E+03  0.91166953219E+02 0.  0.
        254    2    1    2    0    0  0.35598083528E+03  0.29796642192E+03 -0.16180035992E+03  0.10223134212E+04  0.89634760608E+03 0.  0.
        -24    2    4    4    0    0  0.65609439571E+02  0.34125549432E+03  0.30234061954E+03  0.46729046702E+03  0.78680489197E+02 0.  0.
         24    2    4    4    0    0  0.29037139571E+03 -0.43289072398E+02 -0.46414097946E+03  0.55502295413E+03  0.80213088454E+02 0.  0.
         11    1    3    3    0    0 -0.30273100754E+03 -0.25950434192E+03  0.23805958782E+03  0.46439308108E+03  0.00000000000E+00 0.  1.
        -11    1    3    3    0    0 -0.53249827742E+02 -0.38462080005E+02  0.89553012590E+02  0.11106132458E+03  0.00000000000E+00 0. -1.
          2    1    6    6  502    0  0.87997344629E+02  0.16365409290E+01 -0.82084359976E+02  0.12034971159E+03  0.00000000000E+00 0. -1.
          3    1    5    5  503    0 -0.16877526438E+02  0.31519124835E+02  0.31674884588E+02  0.47766143268E+02  0.00000000000E+00 0. -1.
         -4    1    5    5    0  503  0.82486966010E+02  0.30973636948E+03  0.27066573496E+03  0.41952432375E+03  0.00000000000E+00 0.  1.
         -1    1    6    6    0  502  0.20237405108E+03 -0.44925613327E+02 -0.38205661949E+03  0.43467324254E+03  0.00000000000E+00 0.  1.
<mgrwt>
<rscale>  0 0.15891408E+04</rscale>
<asrwt>0</asrwt>
<pdfrwt beam="1">  1        2 0.11015043E+00 0.15891408E+04</pdfrwt>
<pdfrwt beam="2">  1       -2 0.13566001E+00 0.15891408E+04</pdfrwt>
<totfact> 0.14881513E+01</totfact>
</mgrwt>
</event>
<event>
12    1  0.1504874E-007  0.2799837E+04  0.7818608E-02  0.8303319E-01
          1   -1    0    0  501    0  0.00000000000E+00  0.00000000000E+00  0.13336569320E+04  0.13336569320E+04  0.00000000000E+00 0. -1.
         -1   -1    0    0    0  501 -0.00000000000E+00 -0.00000000000E+00 -0.14694727324E+04  0.14694727324E+04  0.00000000000E+00 0.  1.
         23    2    1    2    0    0  0.77742650122E+03  0.95355304902E+03  0.17926389905E+03  0.12466592975E+04  0.91479376910E+02 0.  0.
        254    2    1    2    0    0 -0.77742650122E+03 -0.95355304902E+03 -0.31507969947E+03  0.15564703669E+04  0.89981631679E+03 0.  0.
        -24    2    4    4    0    0  0.88318002594E+02 -0.55369781505E+03 -0.11950040478E+03  0.57996196326E+03  0.87716544080E+02 0.  0.
         24    2    4    4    0    0 -0.86574450382E+03 -0.39985523396E+03 -0.19557929469E+03  0.97650840365E+03  0.76939247938E+02 0.  0.
         13    1    3    3    0    0  0.19825128482E+03  0.22065467211E+03  0.65645445055E+01  0.29670717804E+03  0.00000000000E+00 0.  1.
        -13    1    3    3    0    0  0.57917521641E+03  0.73289837690E+03  0.17269935454E+03  0.94995211944E+03  0.00000000000E+00 0. -1.
          2    1    6    6  502    0 -0.20611292480E+03 -0.87530742748E+02 -0.13680347728E+02  0.22434642990E+03  0.00000000000E+00 0. -1.
          3    1    5    5  503    0  0.21165589778E+02 -0.20575735334E+03 -0.86039546286E+02  0.22402427138E+03  0.00000000000E+00 0. -1.
         -4    1    5    5    0  503  0.67152412816E+02 -0.34794046172E+03 -0.33460858493E+02  0.35593769188E+03  0.00000000000E+00 0.  1.
         -1    1    6    6    0  502 -0.65963157902E+03 -0.31232449121E+03 -0.18189894697E+03  0.75216197375E+03  0.00000000000E+00 0.  1.
<mgrwt>
<rscale>  0 0.27998375E+04</rscale>
<asrwt>0</asrwt>
<pdfrwt beam="1">  1        1 0.20517799E+00 0.27998375E+04</pdfrwt>
<pdfrwt beam="2">  1       -1 0.22607273E+00 0.27998375E+04</pdfrwt>
<totfact> 0.74276366E-01</totfact>
</mgrwt>
</event>
<event>
12    1  0.1504874E-007  0.1272081E+04  0.7818608E-02  0.9052003E-01
         -2   -1    0    0    0  501 -0.00000000000E+00  0.00000000000E+00  0.75726167590E+03  0.75726167590E+03  0.00000000000E+00 0.  1.
          2   -1    0    0  501    0  0.00000000000E+00 -0.00000000000E+00 -0.53422454074E+03  0.53422454074E+03  0.00000000000E+00 0. -1.
         23    2    1    2    0    0 -0.97835259647E+02 -0.23157126089E+03 -0.13920340991E+03  0.30132066431E+03  0.90661824978E+02 0.  0.
        254    2    1    2    0    0  0.97835259647E+02  0.23157126089E+03  0.36224054507E+03  0.99016555233E+03  0.88657352860E+03 0.  0.
        -24    2    4    4    0    0 -0.35942550366E+03  0.16940114063E+03  0.13796175407E+02  0.40648595827E+03  0.84599413060E+02 0.  0.
         24    2    4    4    0    0  0.45726076330E+03  0.62170120264E+02  0.34844436966E+03  0.58367959406E+03  0.79472386756E+02 0.  0.
         13    1    3    3    0    0 -0.11003899355E+03 -0.16952476756E+03 -0.12082192568E+03  0.23546796947E+03  0.00000000000E+00 0. -1.
        -13    1    3    3    0    0  0.12203733907E+02 -0.62046493326E+02 -0.18381484229E+02  0.65852694841E+02  0.00000000000E+00 0.  1.
          2    1    6    6  502    0  0.39048588676E+03  0.30927935480E+02  0.26830035522E+03  0.47478505196E+03  0.00000000000E+00 0. -1.
          3    1    5    5  503    0 -0.36363779962E+03  0.16280813903E+03  0.13191604671E+02  0.39863888155E+03  0.00000000000E+00 0. -1.
         -4    1    5    5    0  503  0.42122959640E+01  0.65930015922E+01  0.60457073565E+00  0.78470767206E+01  0.00000000000E+00 0.  1.
         -1    1    6    6    0  502  0.66774876540E+02  0.31242184785E+02  0.80144014441E+02  0.10889454209E+03  0.00000000000E+00 0.  1.
<mgrwt>
<rscale>  0 0.12720814E+04</rscale>
<asrwt>0</asrwt>
<pdfrwt beam="1">  1        2 0.82188390E-01 0.12720814E+04</pdfrwt>
<pdfrwt beam="2">  1       -2 0.11650180E+00 0.12720814E+04</pdfrwt>
<totfact> 0.31958528E+01</totfact>
</mgrwt>
</event>
<event>
12    1  0.1504874E-007  0.2284362E+04  0.7818608E-02  0.8484112E-01
         -2   -1    0    0    0  501 -0.00000000000E+00  0.00000000000E+00  0.40774939838E+03  0.40774939838E+03  0.00000000000E+00 0.  1.
          2   -1    0    0  501    0  0.00000000000E+00 -0.00000000000E+00 -0.31994599933E+04  0.31994599933E+04  0.00000000000E+00 0. -1.
         23    2    1    2    0    0 -0.16636463641E+03  0.83196470450E+03 -0.19560894197E+04  0.21340622213E+04  0.89962684193E+02 0.  0.
        254    2    1    2    0    0  0.16636463641E+03 -0.83196470450E+03 -0.83562117521E+03  0.14731471704E+04  0.86721241659E+03 0.  0.
        -24    2    4    4    0    0 -0.10552634716E+03 -0.43710153309E+03 -0.87332924513E+03  0.98597077640E+03  0.85093133230E+02 0.  0.
         24    2    4    4    0    0  0.27189098357E+03 -0.39486317140E+03  0.37708069925E+02  0.48717639403E+03  0.77957098994E+02 0.  0.
         13    1    3    3    0    0 -0.12524546119E+03  0.65670128615E+03 -0.16260332426E+04  0.17581032708E+04  0.00000000000E+00 0. -1.
        -13    1    3    3    0    0 -0.41119175221E+02  0.17526341834E+03 -0.33005617714E+03  0.37595895048E+03  0.00000000000E+00 0.  1.
          2    1    6    6  502    0  0.32736738139E+02 -0.58634288961E+02 -0.21119353587E+02  0.70396739711E+02  0.00000000000E+00 0. -1.
          3    1    5    5  503    0  0.17409521732E+01 -0.10966064775E+03 -0.16271201996E+03  0.19622357151E+03  0.00000000000E+00 0. -1.
         -2    1    5    5    0  503 -0.10726729933E+03 -0.32744088535E+03 -0.71061722518E+03  0.78974720488E+03  0.00000000000E+00 0.  1.
         -1    1    6    6    0  502  0.23915424543E+03 -0.33622888244E+03  0.58827423512E+02  0.41677965432E+03  0.00000000000E+00 0.  1.
<mgrwt>
<rscale>  0 0.22843624E+04</rscale>
<asrwt>0</asrwt>
<pdfrwt beam="1">  1        2 0.49222463E+00 0.22843624E+04</pdfrwt>
<pdfrwt beam="2">  1       -2 0.62730675E-01 0.22843624E+04</pdfrwt>
<totfact> 0.27798714E+00</totfact>
</mgrwt>
</event>
<event>
12    1  0.1504874E-007  0.1431892E+04  0.7818608E-02  0.8931052E-01
         -1   -1    0    0    0  501 -0.00000000000E+00  0.00000000000E+00  0.19605812213E+03  0.19605812213E+03  0.00000000000E+00 0.  1.
          1   -1    0    0  501    0  0.00000000000E+00 -0.00000000000E+00 -0.26144206119E+04  0.26144206119E+04  0.00000000000E+00 0. -1.
         23    2    1    2    0    0  0.86485574355E+02  0.45773981540E+02  0.77887779904E+02  0.15455683591E+03  0.90809125700E+02 0.  0.
        254    2    1    2    0    0 -0.86485574355E+02 -0.45773981540E+02 -0.24962502697E+04  0.26559218982E+04  0.90170988023E+03 0.  0.
        -24    2    4    4    0    0 -0.33940092770E+03 -0.19057192997E+03 -0.21902860467E+04  0.22260193633E+04  0.79363650681E+02 0.  0.
         24    2    4    4    0    0  0.25291535335E+03  0.14479794843E+03 -0.30596422300E+03  0.42990253488E+03  0.79179933756E+02 0.  0.
         13    1    3    3    0    0  0.68280557769E+02  0.99143116263E+01  0.89209009883E+02  0.11277754913E+03  0.00000000000E+00 0.  1.
        -13    1    3    3    0    0  0.18205016586E+02  0.35859669914E+02 -0.11321229980E+02  0.41779286776E+02  0.00000000000E+00 0. -1.
          4    1    6    6  502    0  0.79164341143E+02  0.29280406416E+02 -0.13923602445E+03  0.16282200592E+03  0.00000000000E+00 0. -1.
          3    1    5    5  503    0 -0.71117055972E+02 -0.79617559026E+02 -0.61859147671E+03  0.62773561825E+03  0.00000000000E+00 0. -1.
         -4    1    5    5    0  503 -0.26828387173E+03 -0.11095437094E+03 -0.15716945700E+04  0.15982837450E+04  0.00000000000E+00 0.  1.
         -3    1    6    6    0  502  0.17375101221E+03  0.11551754201E+03 -0.16672819856E+03  0.26708052896E+03  0.00000000000E+00 0.  1.
<mgrwt>
<rscale>  0 0.14318916E+04</rscale>
<asrwt>0</asrwt>
<pdfrwt beam="1">  1        1 0.40221855E+00 0.14318916E+04</pdfrwt>
<pdfrwt beam="2">  1       -1 0.30162788E-01 0.14318916E+04</pdfrwt>
<totfact> 0.11126587E+01</totfact>
</mgrwt>
</event>
<event>
12    1  0.1504874E-007  0.1192085E+04  0.7818608E-02  0.9119813E-01
          1   -1    0    0  501    0  0.00000000000E+00  0.00000000000E+00  0.22471838446E+04  0.22471838446E+04  0.00000000000E+00 0.  1.
         -1   -1    0    0    0  501 -0.00000000000E+00 -0.00000000000E+00 -0.15809409792E+03  0.15809409792E+03  0.00000000000E+00 0. -1.
         23    2    1    2    0    0 -0.93793556543E+02 -0.21827225796E+03  0.42864477325E+03  0.49970401314E+03  0.97610190373E+02 0.  0.
        254    2    1    2    0    0  0.93793556543E+02  0.21827225796E+03  0.16604449734E+04  0.19055739294E+04  0.90426460770E+03 0.  0.
        -24    2    4    4    0    0  0.66341999031E+02  0.13503217824E+03 -0.61448387539E+02  0.17965574145E+03  0.76585449731E+02 0.  0.
         24    2    4    4    0    0  0.27451557512E+02  0.83240079724E+02  0.17218933610E+04  0.17259181879E+04  0.78704167792E+02 0.  0.
         11    1    3    3    0    0 -0.19292789961E+01 -0.12080709195E+03  0.23519724897E+03  0.26441600085E+03  0.00000000000E+00 0.  1.
        -11    1    3    3    0    0 -0.91864277547E+02 -0.97465166007E+02  0.19344752428E+03  0.23528801229E+03  0.00000000000E+00 0. -1.
          4    1    6    6  502    0 -0.12817752990E+02  0.30733857773E+02  0.11020304228E+04  0.11025334088E+04  0.00000000000E+00 0. -1.
          3    1    5    5  503    0  0.20506581709E+01 -0.79932538693E+01  0.46628222027E+01  0.94783551974E+01  0.00000000000E+00 0. -1.
         -4    1    5    5    0  503  0.64291340860E+02  0.14302543211E+03 -0.66111209742E+02  0.17017738625E+03  0.00000000000E+00 0.  1.
         -1    1    6    6    0  502  0.40269310502E+02  0.52506221951E+02  0.61986293817E+03  0.62338477911E+03  0.00000000000E+00 0.  1.
<mgrwt>
<rscale>  0 0.11920847E+04</rscale>
<asrwt>0</asrwt>
<pdfrwt beam="1">  1        1 0.34572057E+00 0.11920847E+04</pdfrwt>
<pdfrwt beam="2">  1       -1 0.24322170E-01 0.11920847E+04</pdfrwt>
<totfact> 0.29527641E+01</totfact>
</mgrwt>
</event>
<event>
12    1  0.1504874E-007  0.1520776E+04  0.7818608E-02  0.8870754E-01
         -2   -1    0    0    0  501 -0.00000000000E+00  0.00000000000E+00  0.61932659307E+03  0.61932659307E+03  0.00000000000E+00 0.  1.
          2   -1    0    0  501    0  0.00000000000E+00 -0.00000000000E+00 -0.93357789214E+03  0.93357789214E+03  0.00000000000E+00 0. -1.
         23    2    1    2    0    0 -0.71885987265E+02 -0.20890653124E+02  0.38574618124E+03  0.40361603474E+03  0.92205057380E+02 0.  0.
        254    2    1    2    0    0  0.71885987265E+02  0.20890653124E+02 -0.69999748032E+03  0.11492884505E+04  0.90844012206E+03 0.  0.
        -24    2    4    4    0    0  0.82640130728E+02 -0.20939484225E+03 -0.83545376045E+03  0.86889338980E+03  0.79480474461E+02 0.  0.
         24    2    4    4    0    0 -0.10754143464E+02  0.23028549538E+03  0.13545628013E+03  0.28039506067E+03  0.84415195531E+02 0.  0.
         11    1    3    3    0    0 -0.34733394984E+02 -0.19466037398E+02  0.34926581844E+03  0.35152801776E+03  0.00000000000E+00 0.  1.
        -11    1    3    3    0    0 -0.37152592281E+02 -0.14246157261E+01  0.36480362799E+02  0.52088016982E+02  0.00000000000E+00 0. -1.
          2    1    6    6  502    0  0.16626510562E+02  0.12409936373E+03  0.11257203026E+03  0.16837326073E+03  0.00000000000E+00 0. -1.
          3    1    5    5  503    0  0.67251606771E+02 -0.18809250866E+03 -0.80116914679E+03  0.82569581094E+03  0.00000000000E+00 0. -1.
         -4    1    5    5    0  503  0.15388523957E+02 -0.21302333590E+02 -0.34284613657E+02  0.43197578862E+02  0.00000000000E+00 0.  1.
         -1    1    6    6    0  502 -0.27380654025E+02  0.10618613165E+03  0.22884249871E+02  0.11202179994E+03  0.00000000000E+00 0.  1.
<mgrwt>
<rscale>  0 0.15207756E+04</rscale>
<asrwt>0</asrwt>
<pdfrwt beam="1">  1        2 0.14362737E+00 0.15207756E+04</pdfrwt>
<pdfrwt beam="2">  1       -2 0.95281015E-01 0.15207756E+04</pdfrwt>
<totfact> 0.24862950E+01</totfact>
</mgrwt>
</event>
<event>
12    1  0.1504874E-007  0.2100680E+04  0.7818608E-02  0.8560944E-01
         -2   -1    0    0    0  501 -0.00000000000E+00  0.00000000000E+00  0.74619549256E+03  0.74619549256E+03  0.00000000000E+00 0.  1.
          2   -1    0    0  501    0  0.00000000000E+00 -0.00000000000E+00 -0.14784515880E+04  0.14784515880E+04  0.00000000000E+00 0. -1.
         23    2    1    2    0    0  0.78759141086E+03  0.23883008998E+03 -0.48123653358E+03  0.95750644560E+03  0.88825389251E+02 0.  0.
        254    2    1    2    0    0 -0.78759141086E+03 -0.23883008998E+03 -0.25101956190E+03  0.12671406350E+04  0.93021208661E+03 0.  0.
        -24    2    4    4    0    0 -0.45221248417E+02  0.30459119434E+03 -0.52927898086E+02  0.32271613640E+03  0.80768714994E+02 0.  0.
         24    2    4    4    0    0 -0.74237016245E+03 -0.54342128432E+03 -0.19809166382E+03  0.94442449860E+03  0.79228630870E+02 0.  0.
         13    1    3    3    0    0  0.72653565545E+03  0.24086058198E+03 -0.45899925440E+03  0.89249548690E+03  0.00000000000E+00 0. -1.
        -13    1    3    3    0    0  0.61055755412E+02 -0.20304919980E+01 -0.22237279183E+02  0.65010958708E+02  0.00000000000E+00 0.  1.
          4    1    6    6  502    0 -0.14037026169E+03 -0.13958360326E+03 -0.29152573247E+02  0.20009314129E+03  0.00000000000E+00 0. -1.
          3    1    5    5  503    0 -0.59372772629E+02  0.17784983078E+03 -0.85746286158E+01  0.18769446634E+03  0.00000000000E+00 0. -1.
         -4    1    5    5    0  503  0.14151524212E+02  0.12674136356E+03 -0.44353269470E+02  0.13502167006E+03  0.00000000000E+00 0.  1.
         -3    1    6    6    0  502 -0.60199990076E+03 -0.40383768106E+03 -0.16893909057E+03  0.74433135731E+03  0.00000000000E+00 0.  1.
<mgrwt>
<rscale>  0 0.21006798E+04</rscale>
<asrwt>0</asrwt>
<pdfrwt beam="1">  1        2 0.22745409E+00 0.21006798E+04</pdfrwt>
<pdfrwt beam="2">  1       -2 0.11479931E+00 0.21006798E+04</pdfrwt>
<totfact> 0.71252385E+00</totfact>
</mgrwt>
</event>
<event>
12    1  0.1504874E-007  0.2291068E+04  0.7818608E-02  0.8481451E-01
          2   -1    0    0  501    0  0.00000000000E+00  0.00000000000E+00  0.25667133611E+04  0.25667133611E+04  0.00000000000E+00 0.  1.
         -2   -1    0    0    0  501 -0.00000000000E+00 -0.00000000000E+00 -0.51125629472E+03  0.51125629472E+03  0.00000000000E+00 0. -1.
         23    2    1    2    0    0 -0.57411475625E+03  0.77799904503E+03  0.87215748247E+03  0.13053592964E+04  0.91727592152E+02 0.  0.
        254    2    1    2    0    0  0.57411475625E+03 -0.77799904503E+03  0.11832995839E+04  0.17726103594E+04  0.89836479977E+03 0.  0.
        -24    2    4    4    0    0  0.68427206778E+03 -0.43793676520E+03  0.11418436131E+04  0.14035846123E+04  0.78905348221E+02 0.  0.
         24    2    4    4    0    0 -0.11015731153E+03 -0.34006227983E+03  0.41455970780E+02  0.36902574708E+03  0.81758284288E+02 0.  0.
         13    1    3    3    0    0 -0.42638312954E+03  0.51514559073E+03  0.57334260976E+03  0.88085146363E+03  0.00000000000E+00 0.  1.
        -13    1    3    3    0    0 -0.14773162671E+03  0.26285345429E+03  0.29881487271E+03  0.42450783281E+03  0.00000000000E+00 0. -1.
          2    1    6    6  502    0 -0.95462787332E+02 -0.20672156253E+03  0.54844992753E+02  0.23421127516E+03  0.00000000000E+00 0. -1.
          3    1    5    5  503    0  0.32897234219E+03 -0.19328409399E+03  0.47327428961E+03  0.60792277151E+03  0.00000000000E+00 0. -1.
         -4    1    5    5    0  503  0.35529972559E+03 -0.24465267121E+03  0.66856932350E+03  0.79566184077E+03  0.00000000000E+00 0.  1.
         -1    1    6    6    0  502 -0.14694524198E+02 -0.13334071730E+03 -0.13389021974E+02  0.13481447192E+03  0.00000000000E+00 0.  1.
<mgrwt>
<rscale>  0 0.22910682E+04</rscale>
<asrwt>0</asrwt>
<pdfrwt beam="1">  1        2 0.39487897E+00 0.22910682E+04</pdfrwt>
<pdfrwt beam="2">  1       -2 0.78654816E-01 0.22910682E+04</pdfrwt>
<totfact> 0.41472629E+00</totfact>
</mgrwt>
</event>
<event>
12    1  0.1504874E-007  0.2174061E+04  0.7818608E-02  0.8529303E-01
          1   -1    0    0  501    0  0.00000000000E+00  0.00000000000E+00  0.11550275106E+04  0.11550275106E+04  0.00000000000E+00 0. -1.
         -1   -1    0    0    0  501 -0.00000000000E+00 -0.00000000000E+00 -0.10230367387E+04  0.10230367387E+04  0.00000000000E+00 0.  1.
         23    2    1    2    0    0  0.34422587181E+03  0.21299971034E+02 -0.76485686569E+03  0.84437464189E+03  0.94959840335E+02 0.  0.
        254    2    1    2    0    0 -0.34422587181E+03 -0.21299971034E+02  0.89684763765E+03  0.13336896074E+04  0.92490385667E+03 0.  0.
        -24    2    4    4    0    0 -0.46145487752E+02 -0.37650885520E+02  0.10020828088E+04  0.10069010846E+04  0.78312472139E+02 0.  0.
         24    2    4    4    0    0 -0.29808038406E+03  0.16350914485E+02 -0.10523517113E+03  0.32678852278E+03  0.81222100522E+02 0.  0.
         11    1    3    3    0    0  0.55204846352E+02  0.36975719944E+02 -0.11190333173E+03  0.13014274693E+03  0.00000000000E+00 0. -1.
        -11    1    3    3    0    0  0.28902102546E+03 -0.15675748910E+02 -0.65295353397E+03  0.71423189496E+03  0.00000000000E+00 0.  1.
          2    1    6    6  502    0  0.32862381725E+01 -0.54519364991E+01  0.11183490728E+01  0.64632559569E+01  0.00000000000E+00 0. -1.
          3    1    5    5  503    0  0.14470630218E+02  0.12763526035E+02  0.17002861276E+03  0.17111994592E+03  0.00000000000E+00 0. -1.
         -4    1    5    5    0  503 -0.60616117970E+02 -0.50414411554E+02  0.83205419602E+03  0.83578113867E+03  0.00000000000E+00 0.  1.
         -3    1    6    6    0  502 -0.30136662223E+03  0.21802850985E+02 -0.10635352020E+03  0.32032526682E+03  0.00000000000E+00 0.  1.
<mgrwt>
<rscale>  0 0.21740612E+04</rscale>
<asrwt>0</asrwt>
<pdfrwt beam="1">  1        1 0.17769654E+00 0.21740612E+04</pdfrwt>
<pdfrwt beam="2">  1       -1 0.15739027E+00 0.21740612E+04</pdfrwt>
<totfact> 0.32242435E+00</totfact>
</mgrwt>
</event>
<event>
12    1  0.1504874E-007  0.2323449E+04  0.7818608E-02  0.8468733E-01
          2   -1    0    0  501    0  0.00000000000E+00  0.00000000000E+00  0.15187010437E+04  0.15187010437E+04  0.00000000000E+00 0. -1.
         -2   -1    0    0    0  501 -0.00000000000E+00 -0.00000000000E+00 -0.88865648464E+03  0.88865648464E+03  0.00000000000E+00 0.  1.
         23    2    1    2    0    0 -0.48115868865E+02 -0.17196531403E+03  0.12792342854E+04  0.12947816835E+04  0.90177851187E+02 0.  0.
        254    2    1    2    0    0  0.48115868865E+02  0.17196531403E+03 -0.64918972635E+03  0.11125758449E+04  0.88571468526E+03 0.  0.
        -24    2    4    4    0    0  0.13102472163E+03 -0.28695913493E+03 -0.21177855350E+02  0.32640223534E+03  0.81098057197E+02 0.  0.
         24    2    4    4    0    0 -0.82908852763E+02  0.45892444896E+03 -0.62801187100E+03  0.78617360951E+03  0.78641633089E+02 0.  0.
         13    1    3    3    0    0 -0.53377846231E+02 -0.70996813788E+02  0.80523864915E+03  0.81012284508E+03  0.00000000000E+00 0. -1.
        -13    1    3    3    0    0  0.52619773660E+01 -0.10096850024E+03  0.47399563625E+03  0.48465883839E+03  0.00000000000E+00 0.  1.
          2    1    6    6  502    0 -0.15744946400E+01 -0.23225162058E+01 -0.79425950474E-01  0.28070310614E+01  0.00000000000E+00 0. -1.
          3    1    5    5  503    0  0.18285307967E+02 -0.97172307922E+01  0.14086272911E+02  0.25043964268E+02  0.00000000000E+00 0. -1.
         -4    1    5    5    0  503  0.11273941366E+03 -0.27724190414E+03 -0.35264128261E+02  0.30135827108E+03  0.00000000000E+00 0.  1.
         -1    1    6    6    0  502 -0.81334358123E+02  0.46124696517E+03 -0.62793244505E+03  0.78336657845E+03  0.00000000000E+00 0.  1.
<mgrwt>
<rscale>  0 0.23234488E+04</rscale>
<asrwt>0</asrwt>
<pdfrwt beam="1">  1        2 0.23364631E+00 0.23234488E+04</pdfrwt>
<pdfrwt beam="2">  1       -2 0.13671638E+00 0.23234488E+04</pdfrwt>
<totfact> 0.42825745E+00</totfact>
</mgrwt>
</event>
<event>
12    1  0.1504874E-007  0.2686961E+04  0.7818608E-02  0.8339248E-01
         -1   -1    0    0    0  501 -0.00000000000E+00  0.00000000000E+00  0.12917252868E+04  0.12917252868E+04  0.00000000000E+00 0.  1.
          1   -1    0    0  501    0  0.00000000000E+00 -0.00000000000E+00 -0.13973091695E+04  0.13973091695E+04  0.00000000000E+00 0. -1.
         23    2    1    2    0    0  0.67066326590E+03  0.66452330853E+03 -0.75207795592E+03  0.12103327571E+04  0.88902684835E+02 0.  0.
        254    2    1    2    0    0 -0.67066326590E+03 -0.66452330853E+03  0.64649407323E+03  0.14787016992E+04  0.93660220187E+03 0.  0.
        -24    2    4    4    0    0 -0.87572319358E+03 -0.35257086495E+03  0.44867922604E+03  0.10486720703E+04  0.84868937038E+02 0.  0.
         24    2    4    4    0    0  0.20505992768E+03 -0.31195244359E+03  0.19781484719E+03  0.43002962890E+03  0.80192686471E+02 0.  0.
         13    1    3    3    0    0  0.23344729722E+03  0.17876112222E+03 -0.21161142084E+03  0.36226036607E+03  0.00000000000E+00 0.  1.
        -13    1    3    3    0    0  0.43721596869E+03  0.48576218632E+03 -0.54046653508E+03  0.84807239105E+03  0.00000000000E+00 0. -1.
          2    1    6    6  502    0  0.17991657766E+03 -0.24388456034E+03  0.18841238907E+03  0.35685975123E+03  0.00000000000E+00 0. -1.
          3    1    5    5  503    0 -0.39301273209E+03 -0.14661853377E+03  0.15439061626E+03  0.44698150344E+03  0.00000000000E+00 0. -1.
         -4    1    5    5    0  503 -0.48271046149E+03 -0.20595233117E+03  0.29428860978E+03  0.60169056681E+03  0.00000000000E+00 0.  1.
         -1    1    6    6    0  502  0.25143350013E+02 -0.68067883249E+02  0.94024581171E+01  0.73169877672E+02  0.00000000000E+00 0.  1.
<mgrwt>
<rscale>  0 0.26869608E+04</rscale>
<asrwt>0</asrwt>
<pdfrwt beam="1">  1        1 0.21497064E+00 0.26869608E+04</pdfrwt>
<pdfrwt beam="2">  1       -1 0.19872697E+00 0.26869608E+04</pdfrwt>
<totfact> 0.10359999E+00</totfact>
</mgrwt>
</event>
<event>
12    1  0.1508310E-007  0.1958816E+04  0.7818608E-02  0.8626121E-01
         -2   -1    0    0    0  501 -0.00000000000E+00  0.00000000000E+00  0.46572927745E+03  0.46572927745E+03  0.00000000000E+00 0.  1.
          2   -1    0    0  501    0  0.00000000000E+00 -0.00000000000E+00 -0.20596522073E+04  0.20596522073E+04  0.00000000000E+00 0. -1.
         23    2    1    2    0    0  0.68534729811E+03 -0.22313198519E+03 -0.97422044361E+03  0.12152133417E+04  0.90272871040E+02 0.  0.
        254    2    1    2    0    0 -0.68534729811E+03  0.22313198519E+03 -0.61970248628E+03  0.13101681431E+04  0.90167654391E+03 0.  0.
        -24    2    4    4    0    0 -0.56153442283E+03 -0.19362333363E+03 -0.67946299823E+02  0.60288629406E+03  0.77744971265E+02 0.  0.
         24    2    4    4    0    0 -0.12381287528E+03  0.41675531882E+03 -0.55175618646E+03  0.70728184904E+03  0.82450596300E+02 0.  0.
         11    1    3    3    0    0  0.58758247738E+03 -0.18378061872E+03 -0.77439995345E+03  0.98930469090E+03  0.00000000000E+00 0. -1.
        -11    1    3    3    0    0  0.97764820737E+02 -0.39351366473E+02 -0.19982049015E+03  0.22590865079E+03  0.00000000000E+00 0.  1.
          4    1    6    6  502    0  0.63739708240E+01  0.45345346141E+02 -0.86650637087E+02  0.98005922415E+02  0.00000000000E+00 0. -1.
          1    1    5    5  503    0 -0.17168203349E+03 -0.25134030061E+02 -0.53541863608E+01  0.17359466410E+03  0.00000000000E+00 0. -1.
         -2    1    5    5    0  503 -0.38985238934E+03 -0.16848930357E+03 -0.62592113462E+02  0.42929162997E+03  0.00000000000E+00 0.  1.
         -3    1    6    6    0  502 -0.13018684610E+03  0.37140997268E+03 -0.46510554937E+03  0.60927592662E+03  0.00000000000E+00 0.  1.
<mgrwt>
<rscale>  0 0.19588163E+04</rscale>
<asrwt>0</asrwt>
<pdfrwt beam="1">  1        2 0.31686957E+00 0.19588163E+04</pdfrwt>
<pdfrwt beam="2">  1       -2 0.71650659E-01 0.19588163E+04</pdfrwt>
<totfact> 0.10189390E+01</totfact>
</mgrwt>
</event>
<event>
12    1  0.1504874E-007  0.2369062E+04  0.7818608E-02  0.8451178E-01
         -1   -1    0    0    0  501 -0.00000000000E+00  0.00000000000E+00  0.14078343212E+04  0.14078343212E+04  0.00000000000E+00 0.  1.
          1   -1    0    0  501    0  0.00000000000E+00 -0.00000000000E+00 -0.99664680477E+03  0.99664680477E+03  0.00000000000E+00 0. -1.
         23    2    1    2    0    0 -0.13761440535E+03  0.92543542263E+03 -0.19620130581E+03  0.96038380400E+03  0.92052444554E+02 0.  0.
        254    2    1    2    0    0  0.13761440535E+03 -0.92543542263E+03  0.60738882226E+03  0.14440973220E+04  0.91713000603E+03 0.  0.
        -24    2    4    4    0    0  0.29000175492E+03 -0.10529113078E+04  0.49458203946E+03  0.12016274458E+04  0.81079496581E+02 0.  0.
         24    2    4    4    0    0 -0.15238734957E+03  0.12747588520E+03  0.11280678280E+03  0.24246987618E+03  0.81205079832E+02 0.  0.
         11    1    3    3    0    0 -0.94125907691E+02  0.80447963808E+03 -0.14964022891E+03  0.82367431227E+03  0.00000000000E+00 0. -1.
        -11    1    3    3    0    0 -0.43488497657E+02  0.12095578455E+03 -0.46561076903E+02  0.13670949173E+03  0.00000000000E+00 0.  1.
          2    1    6    6  502    0 -0.42556035463E+01  0.88717604599E+01  0.36730086885E+02  0.38025222916E+02  0.00000000000E+00 0. -1.
          3    1    5    5  503    0  0.21358822860E+03 -0.63041866177E+03  0.29064627294E+03  0.72630770096E+03  0.00000000000E+00 0. -1.
         -4    1    5    5    0  503  0.76413526316E+02 -0.42249264607E+03  0.20393576651E+03  0.47531974486E+03  0.00000000000E+00 0.  1.
         -1    1    6    6    0  502 -0.14813174602E+03  0.11860412474E+03  0.76076695915E+02  0.20444465326E+03  0.00000000000E+00 0.  1.
<mgrwt>
<rscale>  0 0.23690619E+04</rscale>
<asrwt>0</asrwt>
<pdfrwt beam="1">  1        1 0.15333028E+00 0.23690619E+04</pdfrwt>
<pdfrwt beam="2">  1       -1 0.21658989E+00 0.23690619E+04</pdfrwt>
<totfact> 0.15867638E+00</totfact>
</mgrwt>
</event>
<event>
12    1  0.1504874E-007  0.1763465E+04  0.7818608E-02  0.8725973E-01
          1   -1    0    0  501    0  0.00000000000E+00  0.00000000000E+00  0.54890724248E+03  0.54890724248E+03  0.00000000000E+00 0. -1.
         -1   -1    0    0    0  501 -0.00000000000E+00 -0.00000000000E+00 -0.14163638141E+04  0.14163638141E+04  0.00000000000E+00 0.  1.
         23    2    1    2    0    0 -0.26775206470E+03 -0.31928435006E+03 -0.86936282862E+03  0.96859270824E+03  0.93522416249E+02 0.  0.
        254    2    1    2    0    0  0.26775206470E+03  0.31928435006E+03  0.19062570367E+01  0.99667834830E+03  0.90538965744E+03 0.  0.
        -24    2    4    4    0    0 -0.13301383711E+03 -0.98522506477E+02  0.29201569479E+03  0.34499759236E+03  0.79691954302E+02 0.  0.
         24    2    4    4    0    0  0.40076590181E+03  0.41780685653E+03 -0.29010943776E+03  0.65168075594E+03  0.73133059296E+02 0.  0.
         11    1    3    3    0    0 -0.22953980640E+02  0.10387193123E+00 -0.69757279618E+02  0.73436871368E+02  0.00000000000E+00 0. -1.
        -11    1    3    3    0    0 -0.24479808406E+03 -0.31938822199E+03 -0.79960554900E+03  0.89515583687E+03  0.00000000000E+00 0.  1.
          4    1    6    6  502    0  0.79477377737E+02  0.12553386010E+03 -0.87278257033E+02  0.17231627246E+03  0.00000000000E+00 0. -1.
          3    1    5    5  503    0 -0.90070850092E+01 -0.45948398899E+02  0.10037305342E+03  0.11075708914E+03  0.00000000000E+00 0. -1.
         -4    1    5    5    0  503 -0.12400675211E+03 -0.52574107578E+02  0.19164264137E+03  0.23424050322E+03  0.00000000000E+00 0.  1.
         -3    1    6    6    0  502  0.32128852407E+03  0.29227299643E+03 -0.20283118072E+03  0.47936448348E+03  0.00000000000E+00 0.  1.
<mgrwt>
<rscale>  0 0.17634652E+04</rscale>
<asrwt>0</asrwt>
<pdfrwt beam="1">  1        1 0.84447269E-01 0.17634652E+04</pdfrwt>
<pdfrwt beam="2">  1       -1 0.21790212E+00 0.17634652E+04</pdfrwt>
<totfact> 0.41850689E+00</totfact>
</mgrwt>
</event>
<event>
12    1  0.1504874E-007  0.1270184E+04  0.7818608E-02  0.9053549E-01
         -2   -1    0    0    0  501 -0.00000000000E+00  0.00000000000E+00  0.52613061850E+03  0.52613061850E+03  0.00000000000E+00 0.  1.
          2   -1    0    0  501    0  0.00000000000E+00 -0.00000000000E+00 -0.76661939734E+03  0.76661939734E+03  0.00000000000E+00 0. -1.
         23    2    1    2    0    0 -0.67238492862E+02  0.98299173358E+02  0.22479889712E+03  0.27022754341E+03  0.91129790219E+02 0.  0.
        254    2    1    2    0    0  0.67238492862E+02 -0.98299173358E+02 -0.46528767595E+03  0.10225224724E+04  0.90270473734E+03 0.  0.
        -24    2    4    4    0    0  0.13156481985E+03  0.38225684020E+03 -0.15585110309E+03  0.44048184804E+03  0.79404649849E+02 0.  0.
         24    2    4    4    0    0 -0.64326326988E+02 -0.48055601356E+03 -0.30943657287E+03  0.58204062439E+03  0.89153448021E+02 0.  0.
         11    1    3    3    0    0 -0.81531637335E+02  0.10525605793E+03  0.20907675101E+03  0.24786958956E+03  0.00000000000E+00 0.  1.
        -11    1    3    3    0    0  0.14293144473E+02 -0.69568845720E+01  0.15722146110E+02  0.22357953846E+02  0.00000000000E+00 0. -1.
          2    1    6    6  502    0 -0.32514376135E+01  0.28878772756E+01 -0.78566613590E+01  0.89799114374E+01  0.00000000000E+00 0. -1.
          1    1    5    5  503    0  0.52916151628E+02  0.16542455626E+03 -0.10919276535E+03  0.20515472922E+03  0.00000000000E+00 0. -1.
         -2    1    5    5    0  503  0.78648668222E+02  0.21683228394E+03 -0.46658337738E+02  0.23532711882E+03  0.00000000000E+00 0.  1.
         -1    1    6    6    0  502 -0.61074889375E+02 -0.48344389084E+03 -0.30157991151E+03  0.57306071295E+03  0.00000000000E+00 0.  1.
<mgrwt>
<rscale>  0 0.12701841E+04</rscale>
<asrwt>0</asrwt>
<pdfrwt beam="1">  1        2 0.11794145E+00 0.12701841E+04</pdfrwt>
<pdfrwt beam="2">  1       -2 0.80943172E-01 0.12701841E+04</pdfrwt>
<totfact> 0.48207529E+01</totfact>
</mgrwt>
</event>
<event>
12    1  0.1504874E-007  0.1366539E+04  0.7818608E-02  0.8978402E-01
          1   -1    0    0  501    0  0.00000000000E+00  0.00000000000E+00  0.13072292902E+04  0.13072292902E+04  0.00000000000E+00 0. -1.
         -1   -1    0    0    0  501 -0.00000000000E+00 -0.00000000000E+00 -0.35713499178E+03  0.35713499178E+03  0.00000000000E+00 0.  1.
         23    2    1    2    0    0  0.36830958702E+03 -0.67148354705E+02  0.37058113788E+03  0.53471448780E+03  0.91806047077E+02 0.  0.
        254    2    1    2    0    0 -0.36830958702E+03  0.67148354705E+02  0.57951316053E+03  0.11296497942E+04  0.89448996686E+03 0.  0.
        -24    2    4    4    0    0  0.62328185453E+02  0.39945599386E+03  0.32256999035E+03  0.52312470012E+03  0.78473941349E+02 0.  0.
         24    2    4    4    0    0 -0.43063777247E+03 -0.33230763916E+03  0.25694317018E+03  0.60652509405E+03  0.77302256663E+02 0.  0.
         11    1    3    3    0    0  0.14636595385E+03 -0.46117159278E+02  0.95951176431E+02  0.18098732852E+03  0.00000000000E+00 0. -1.
        -11    1    3    3    0    0  0.22194363317E+03 -0.21031195427E+02  0.27462996145E+03  0.35372715928E+03  0.00000000000E+00 0.  1.
          2    1    6    6  502    0 -0.81488797149E+01 -0.14012104279E+02  0.22986155737E+02  0.28126618398E+02  0.00000000000E+00 0. -1.
          1    1    5    5  503    0 -0.10787617641E+02  0.79994483545E+02  0.92166773190E+02  0.12251613842E+03  0.00000000000E+00 0. -1.
         -2    1    5    5    0  503  0.73115803094E+02  0.31946151031E+03  0.23040321716E+03  0.40060856170E+03  0.00000000000E+00 0.  1.
         -1    1    6    6    0  502 -0.42248889276E+03 -0.31829553488E+03  0.23395701445E+03  0.57839847565E+03  0.00000000000E+00 0.  1.
<mgrwt>
<rscale>  0 0.13665392E+04</rscale>
<asrwt>0</asrwt>
<pdfrwt beam="1">  1        1 0.20111220E+00 0.13665392E+04</pdfrwt>
<pdfrwt beam="2">  1       -1 0.54943846E-01 0.13665392E+04</pdfrwt>
<totfact> 0.29249884E+01</totfact>
</mgrwt>
</event>
<event>
12    1  0.1504874E-007  0.1858437E+04  0.7818608E-02  0.8675826E-01
          1   -1    0    0  501    0  0.00000000000E+00  0.00000000000E+00  0.19205799088E+04  0.19205799088E+04  0.00000000000E+00 0. -1.
         -1   -1    0    0    0  501 -0.00000000000E+00 -0.00000000000E+00 -0.44957629901E+03  0.44957629901E+03  0.00000000000E+00 0.  1.
         23    2    1    2    0    0  0.37955765493E+02 -0.69808822015E+03  0.41304149573E+03  0.81715862188E+03  0.91526678546E+02 0.  0.
        254    2    1    2    0    0 -0.37955765493E+02  0.69808822015E+03  0.10579621140E+04  0.15529975859E+04  0.89652097790E+03 0.  0.
        -24    2    4    4    0    0  0.22439493927E+03 -0.10750983007E+03  0.39599243659E+03  0.47502967415E+03  0.83257006616E+02 0.  0.
         24    2    4    4    0    0 -0.26235070476E+03  0.80559805022E+03  0.66196967744E+03  0.10779679117E+04  0.77426443139E+02 0.  0.
         13    1    3    3    0    0 -0.17547482828E+02 -0.30477677087E+02  0.20077144434E+02  0.40495613131E+02  0.00000000000E+00 0. -1.
        -13    1    3    3    0    0  0.55503248322E+02 -0.66761054306E+03  0.39296435129E+03  0.77666300875E+03  0.00000000000E+00 0.  1.
          4    1    6    6  502    0 -0.10345642600E+03  0.26841360151E+03  0.26757388996E+03  0.39286750966E+03  0.00000000000E+00 0. -1.
          3    1    5    5  503    0  0.51802582078E+00 -0.20892038127E+02  0.47152938734E+02  0.51576595846E+02  0.00000000000E+00 0. -1.
         -4    1    5    5    0  503  0.22387691345E+03 -0.86617791944E+02  0.34883949786E+03  0.42345307830E+03  0.00000000000E+00 0.  1.
         -3    1    6    6    0  502 -0.15889427876E+03  0.53718444871E+03  0.39439578748E+03  0.68510040209E+03  0.00000000000E+00 0.  1.
<mgrwt>
<rscale>  0 0.18584372E+04</rscale>
<asrwt>0</asrwt>
<pdfrwt beam="1">  1        1 0.29547383E+00 0.18584372E+04</pdfrwt>
<pdfrwt beam="2">  1       -1 0.69165586E-01 0.18584372E+04</pdfrwt>
<totfact> 0.66987026E+00</totfact>
</mgrwt>
</event>
<event>
12    1  0.1504874E-007  0.1334481E+04  0.7818608E-02  0.9002659E-01
         -1   -1    0    0    0  501 -0.00000000000E+00  0.00000000000E+00  0.51824533275E+03  0.51824533275E+03  0.00000000000E+00 0.  1.
          1   -1    0    0  501    0  0.00000000000E+00 -0.00000000000E+00 -0.85907213905E+03  0.85907213905E+03  0.00000000000E+00 0. -1.
         23    2    1    2    0    0 -0.17477581160E+03 -0.12071509649E+02  0.22453515292E+03  0.29955646684E+03  0.92874841925E+02 0.  0.
        254    2    1    2    0    0  0.17477581160E+03  0.12071509649E+02 -0.56536195921E+03  0.10777610050E+04  0.90068992069E+03 0.  0.
        -24    2    4    4    0    0 -0.14222536895E+03 -0.34230292104E+03 -0.66679128747E+02  0.38389350290E+03  0.74355699383E+02 0.  0.
         24    2    4    4    0    0  0.31700118055E+03  0.35437443069E+03 -0.49868283047E+03  0.69386750206E+03  0.81832508337E+02 0.  0.
         11    1    3    3    0    0 -0.29134307659E+02 -0.24197154482E+02  0.86365166627E+01  0.38844556734E+02  0.00000000000E+00 0. -1.
        -11    1    3    3    0    0 -0.14564150394E+03  0.12125644833E+02  0.21589863626E+03  0.26071191010E+03  0.00000000000E+00 0.  1.
          4    1    6    6  502    0  0.16245396999E+03  0.21125037828E+03 -0.32895715211E+03  0.42335661399E+03  0.00000000000E+00 0. -1.
          3    1    5    5  503    0 -0.87117355867E+02 -0.28521921106E+03 -0.44672964824E+02  0.30155448237E+03  0.00000000000E+00 0. -1.
         -4    1    5    5    0  503 -0.55108013084E+02 -0.57083709985E+02 -0.22006163922E+02  0.82339020533E+02  0.00000000000E+00 0.  1.
         -3    1    6    6    0  502  0.15454721056E+03  0.14312405241E+03 -0.16972567836E+03  0.27051088808E+03  0.00000000000E+00 0.  1.
<mgrwt>
<rscale>  0 0.13344814E+04</rscale>
<asrwt>0</asrwt>
<pdfrwt beam="1">  1        1 0.13216494E+00 0.13344814E+04</pdfrwt>
<pdfrwt beam="2">  1       -1 0.79730052E-01 0.13344814E+04</pdfrwt>
<totfact> 0.30309966E+01</totfact>
</mgrwt>
</event>
<event>
12    1  0.1504874E-007  0.1840799E+04  0.7818608E-02  0.8684899E-01
         -1   -1    0    0    0  501 -0.00000000000E+00  0.00000000000E+00  0.11517111428E+04  0.11517111428E+04  0.00000000000E+00 0.  1.
          1   -1    0    0  501    0  0.00000000000E+00 -0.00000000000E+00 -0.73554515029E+03  0.73554515029E+03  0.00000000000E+00 0. -1.
         23    2    1    2    0    0 -0.12866694702E+03  0.62440615605E+03 -0.15318731043E+03  0.66223174035E+03  0.92985455261E+02 0.  0.
        254    2    1    2    0    0  0.12866694702E+03 -0.62440615605E+03  0.56935330296E+03  0.12250245528E+04  0.87754415291E+03 0.  0.
        -24    2    4    4    0    0  0.15442048867E+03 -0.56689768306E+03 -0.52664323788E+02  0.59493194212E+03  0.77148003063E+02 0.  0.
         24    2    4    4    0    0 -0.25753541642E+02 -0.57508472989E+02  0.62201762675E+03  0.63009261065E+03  0.78360070359E+02 0.  0.
         11    1    3    3    0    0 -0.32719794417E+02  0.80217678231E+02 -0.50222142570E+02  0.10013852631E+03  0.00000000000E+00 0.  1.
        -11    1    3    3    0    0 -0.95947152607E+02  0.54418847781E+03 -0.10296516786E+03  0.56209321404E+03  0.00000000000E+00 0. -1.
          2    1    6    6  502    0 -0.12967855684E+02 -0.38119131304E+02  0.10351684700E+03  0.11107191843E+03  0.00000000000E+00 0. -1.
          3    1    5    5  503    0  0.48441909869E+02 -0.75188678949E+02 -0.31080477622E+01  0.89496458224E+02  0.00000000000E+00 0. -1.
         -4    1    5    5    0  503  0.10597857880E+03 -0.49170900411E+03 -0.49556276026E+02  0.50543548389E+03  0.00000000000E+00 0.  1.
         -1    1    6    6    0  502 -0.12785685958E+02 -0.19389341685E+02  0.51850077976E+03  0.51902069221E+03  0.00000000000E+00 0.  1.
<mgrwt>
<rscale>  0 0.18407993E+04</rscale>
<asrwt>0</asrwt>
<pdfrwt beam="1">  1        1 0.11316079E+00 0.18407993E+04</pdfrwt>
<pdfrwt beam="2">  1       -1 0.17718633E+00 0.18407993E+04</pdfrwt>
<totfact> 0.51765832E+00</totfact>
</mgrwt>
</event>
<event>
12    1  0.2090744E-007  0.1498900E+04  0.7818608E-02  0.8885185E-01
          2   -1    0    0  501    0  0.00000000000E+00  0.00000000000E+00  0.34111051457E+04  0.34111051457E+04  0.00000000000E+00 0. -1.
         -2   -1    0    0    0  501 -0.00000000000E+00 -0.00000000000E+00 -0.16466074440E+03  0.16466074440E+03  0.00000000000E+00 0.  1.
         23    2    1    2    0    0 -0.36452719504E+03 -0.21596992466E+02  0.19272159198E+04  0.19636802185E+04  0.92370411326E+02 0.  0.
        254    2    1    2    0    0  0.36452719504E+03  0.21596992466E+02  0.13192284814E+04  0.16120856716E+04  0.85153386321E+03 0.  0.
        -24    2    4    4    0    0  0.42689995899E+03 -0.31925173727E+03  0.99082955503E+03  0.11279854838E+04  0.80267040360E+02 0.  0.
         24    2    4    4    0    0 -0.62372763950E+02  0.34084872974E+03  0.32839892642E+03  0.48410018778E+03  0.80242873143E+02 0.  0.
         13    1    3    3    0    0 -0.35006470171E+03 -0.18092656852E+01  0.17399123492E+04  0.17747798601E+04  0.00000000000E+00 0. -1.
        -13    1    3    3    0    0 -0.14462493337E+02 -0.19787726781E+02  0.18730357060E+03  0.18890035841E+03  0.00000000000E+00 0.  1.
          2    1    6    6  502    0 -0.47964026819E+02  0.29911188959E+03  0.24450256075E+03  0.38929419797E+03  0.00000000000E+00 0. -1.
          3    1    5    5  503    0  0.38958064185E+03 -0.25773670060E+03  0.86094458368E+03  0.97950337392E+03  0.00000000000E+00 0. -1.
         -4    1    5    5    0  503  0.37319317140E+02 -0.61515036676E+02  0.12988497135E+03  0.14848210987E+03  0.00000000000E+00 0.  1.
         -1    1    6    6    0  502 -0.14408737131E+02  0.41736840152E+02  0.83896365667E+02  0.94805989809E+02  0.00000000000E+00 0.  1.
<mgrwt>
<rscale>  0 0.14988997E+04</rscale>
<asrwt>0</asrwt>
<pdfrwt beam="1">  1        2 0.52478535E+00 0.14988997E+04</pdfrwt>
<pdfrwt beam="2">  1       -2 0.25332425E-01 0.14988997E+04</pdfrwt>
<totfact> 0.12842739E+01</totfact>
</mgrwt>
</event>
<event>
12    1  0.1504874E-007  0.1528759E+04  0.7818608E-02  0.8865550E-01
         -2   -1    0    0    0  501 -0.00000000000E+00  0.00000000000E+00  0.21662708441E+03  0.21662708441E+03  0.00000000000E+00 0.  1.
          2   -1    0    0  501    0  0.00000000000E+00 -0.00000000000E+00 -0.26971525494E+04  0.26971525494E+04  0.00000000000E+00 0. -1.
         23    2    1    2    0    0  0.28803526453E+03  0.40296231566E+02 -0.15587444319E+04  0.15880325708E+04  0.87035291945E+02 0.  0.
        254    2    1    2    0    0 -0.28803526453E+03 -0.40296231566E+02 -0.92178103314E+03  0.13257470631E+04  0.90737913922E+03 0.  0.
        -24    2    4    4    0    0 -0.21381795630E+03  0.30514788146E+03 -0.88285369091E+03  0.96165042525E+03  0.80669404596E+02 0.  0.
         24    2    4    4    0    0 -0.74217308224E+02 -0.34544411302E+03 -0.38927342233E+02  0.36409663782E+03  0.78811037523E+02 0.  0.
         13    1    3    3    0    0  0.42753687938E+02 -0.25110330693E+02 -0.23680570319E+03  0.24194079359E+03  0.00000000000E+00 0.  1.
        -13    1    3    3    0    0  0.24528157659E+03  0.65406562260E+02 -0.13219387287E+04  0.13460917772E+04  0.00000000000E+00 0. -1.
          2    1    6    6  502    0 -0.11006156651E+02 -0.23095411856E+03 -0.26329413794E+02  0.23271050341E+03  0.00000000000E+00 0. -1.
          1    1    5    5  503    0 -0.73817466991E+02  0.82162661519E+02 -0.18103639806E+03  0.21207050433E+03  0.00000000000E+00 0. -1.
         -2    1    5    5    0  503 -0.14000048931E+03  0.22298521994E+03 -0.70181729284E+03  0.74957992092E+03  0.00000000000E+00 0.  1.
         -1    1    6    6    0  502 -0.63211151573E+02 -0.11448999446E+03 -0.12597928439E+02  0.13138613441E+03  0.00000000000E+00 0.  1.
<mgrwt>
<rscale>  0 0.15287594E+04</rscale>
<asrwt>0</asrwt>
<pdfrwt beam="1">  1        2 0.41494653E+00 0.15287594E+04</pdfrwt>
<pdfrwt beam="2">  1       -2 0.33327245E-01 0.15287594E+04</pdfrwt>
<totfact> 0.21705675E+01</totfact>
</mgrwt>
</event>
<event>
12    1  0.1504874E-007  0.1084529E+04  0.7818608E-02  0.9220404E-01
          2   -1    0    0  501    0  0.00000000000E+00  0.00000000000E+00  0.22159362540E+04  0.22159362540E+04  0.00000000000E+00 0. -1.
         -2   -1    0    0    0  501 -0.00000000000E+00 -0.00000000000E+00 -0.13269821212E+03  0.13269821212E+03  0.00000000000E+00 0.  1.
         23    2    1    2    0    0  0.32947496713E+02  0.14759872374E+03  0.46736015019E+03  0.49971272186E+03  0.91740795772E+02 0.  0.
        254    2    1    2    0    0 -0.32947496713E+02 -0.14759872374E+03  0.16158778917E+04  0.18489217443E+04  0.88576483039E+03 0.  0.
        -24    2    4    4    0    0  0.10835376362E+03  0.11697409020E+02  0.16173652664E+04  0.16230712579E+04  0.81317499372E+02 0.  0.
         24    2    4    4    0    0 -0.14130126033E+03 -0.15929613276E+03 -0.14873746746E+01  0.22585048642E+03  0.75265701664E+02 0.  0.
         13    1    3    3    0    0 -0.18118737964E+02  0.92147901680E+02  0.18511541378E+03  0.20757466336E+03  0.00000000000E+00 0.  1.
        -13    1    3    3    0    0  0.51066234678E+02  0.55450822064E+02  0.28224473641E+03  0.29213805850E+03  0.00000000000E+00 0. -1.
          4    1    6    6  502    0 -0.94913397643E+02 -0.14129766020E+03 -0.22770465472E+02  0.17173257096E+03  0.00000000000E+00 0. -1.
          1    1    5    5  503    0  0.17392731977E+02  0.14506253392E+02  0.85405009089E+03  0.85435033579E+03  0.00000000000E+00 0. -1.
         -2    1    5    5    0  503  0.90961031645E+02 -0.28088443720E+01  0.76331517551E+03  0.76872092208E+03  0.00000000000E+00 0.  1.
         -3    1    6    6    0  502 -0.46387862692E+02 -0.17998472559E+02  0.21283090798E+02  0.54117915458E+02  0.00000000000E+00 0.  1.
<mgrwt>
<rscale>  0 0.10845290E+04</rscale>
<asrwt>0</asrwt>
<pdfrwt beam="1">  1        2 0.34091324E+00 0.10845290E+04</pdfrwt>
<pdfrwt beam="2">  1       -2 0.20415111E-01 0.10845290E+04</pdfrwt>
<totfact> 0.10413259E+02</totfact>
</mgrwt>
</event>
<event>
12    1  0.1504874E-007  0.3392836E+04  0.7818608E-02  0.8139667E-01
         -1   -1    0    0    0  501 -0.00000000000E+00  0.00000000000E+00  0.14017361598E+04  0.14017361598E+04  0.00000000000E+00 0.  1.
          1   -1    0    0  501    0  0.00000000000E+00 -0.00000000000E+00 -0.20530495983E+04  0.20530495983E+04  0.00000000000E+00 0. -1.
         23    2    1    2    0    0 -0.11858311307E+04  0.98783421330E+03 -0.47892855542E+03  0.16187527777E+04  0.94742232052E+02 0.  0.
        254    2    1    2    0    0  0.11858311307E+04 -0.98783421330E+03 -0.17238488315E+03  0.18360329804E+04  0.97943282246E+03 0.  0.
        -24    2    4    4    0    0  0.74785097864E+03 -0.94057074041E+03 -0.47457992736E+03  0.12950992513E+04  0.90008662371E+02 0.  0.
         24    2    4    4    0    0  0.43798015206E+03 -0.47263472887E+02  0.30219504421E+03  0.54093372911E+03  0.85011793731E+02 0.  0.
         11    1    3    3    0    0 -0.11201550385E+04  0.94908914640E+03 -0.43747397746E+03  0.15319598556E+04  0.00000000000E+00 0. -1.
        -11    1    3    3    0    0 -0.65676092207E+02  0.38745066895E+02 -0.41454577953E+02  0.86792922117E+02  0.00000000000E+00 0.  1.
          2    1    6    6  502    0  0.29846596297E+03 -0.47133970005E+02  0.16075987910E+03  0.34226784966E+03  0.00000000000E+00 0. -1.
          1    1    5    5  503    0  0.61520851743E+03 -0.82354546817E+03 -0.39732753891E+03  0.11020788680E+04  0.00000000000E+00 0. -1.
         -2    1    5    5    0  503  0.13264246121E+03 -0.11702527224E+03 -0.77252388447E+02  0.19302038333E+03  0.00000000000E+00 0.  1.
         -1    1    6    6    0  502  0.13951418908E+03 -0.12950288248E+00  0.14143516511E+03  0.19866587945E+03  0.00000000000E+00 0.  1.
<mgrwt>
<rscale>  0 0.33928359E+04</rscale>
<asrwt>0</asrwt>
<pdfrwt beam="1">  1        1 0.31585378E+00 0.33928359E+04</pdfrwt>
<pdfrwt beam="2">  1       -1 0.21565172E+00 0.33928359E+04</pdfrwt>
<totfact> 0.26579725E-01</totfact>
</mgrwt>
</event>
<event>
12    1  0.1504874E-007  0.1226680E+04  0.7818608E-02  0.9089819E-01
          2   -1    0    0  501    0  0.00000000000E+00  0.00000000000E+00  0.92241117511E+03  0.92241117511E+03  0.00000000000E+00 0. -1.
         -2   -1    0    0    0  501 -0.00000000000E+00 -0.00000000000E+00 -0.40782887186E+03  0.40782887186E+03  0.00000000000E+00 0.  1.
         23    2    1    2    0    0 -0.30240462497E+02  0.27405622747E+03  0.18530551018E+03  0.34504696283E+03  0.93262924426E+02 0.  0.
        254    2    1    2    0    0  0.30240462497E+02 -0.27405622747E+03  0.32927679307E+03  0.98519308413E+03  0.88665715199E+03 0.  0.
        -24    2    4    4    0    0  0.33441746811E+03 -0.14834382337E+03 -0.14581878846E+03  0.40206899014E+03  0.80965553511E+02 0.  0.
         24    2    4    4    0    0 -0.30417700561E+03 -0.12571240410E+03  0.47509558153E+03  0.58312409399E+03  0.77399212647E+02 0.  0.
         11    1    3    3    0    0 -0.48521683345E+02  0.95603695656E+02  0.99200507442E+02  0.14606560531E+03  0.00000000000E+00 0. -1.
        -11    1    3    3    0    0  0.18281220848E+02  0.17845253181E+03  0.86105002734E+02  0.19898135752E+03  0.00000000000E+00 0.  1.
          2    1    6    6  502    0 -0.33585355429E+02 -0.23002297056E+02  0.24285058918E+02  0.47400905644E+02  0.00000000000E+00 0. -1.
          1    1    5    5  503    0  0.39734261436E+02 -0.11053467855E+02  0.86525189844E+01  0.42140915608E+02  0.00000000000E+00 0. -1.
         -2    1    5    5    0  503  0.29468320667E+03 -0.13729035552E+03 -0.15447130744E+03  0.35992807453E+03  0.00000000000E+00 0.  1.
         -1    1    6    6    0  502 -0.27059165018E+03 -0.10271010704E+03  0.45081052262E+03  0.53572318835E+03  0.00000000000E+00 0.  1.
<mgrwt>
<rscale>  0 0.12266799E+04</rscale>
<asrwt>0</asrwt>
<pdfrwt beam="1">  1        2 0.14190941E+00 0.12266799E+04</pdfrwt>
<pdfrwt beam="2">  1       -2 0.62742903E-01 0.12266799E+04</pdfrwt>
<totfact> 0.65712343E+01</totfact>
</mgrwt>
</event>
<event>
12    1  0.1504874E-007  0.1467063E+04  0.7818608E-02  0.8906656E-01
         -1   -1    0    0    0  501 -0.00000000000E+00  0.00000000000E+00  0.43160741974E+03  0.43160741974E+03  0.00000000000E+00 0.  1.
          1   -1    0    0  501    0  0.00000000000E+00 -0.00000000000E+00 -0.12466614253E+04  0.12466614253E+04  0.00000000000E+00 0. -1.
         23    2    1    2    0    0 -0.12443122024E+03 -0.77697991800E+02  0.22714936600E+03  0.28537422850E+03  0.91222307123E+02 0.  0.
        254    2    1    2    0    0  0.12443122024E+03  0.77697991800E+02 -0.10422033716E+04  0.13928946165E+04  0.91238557562E+03 0.  0.
        -24    2    4    4    0    0  0.49636126009E+03  0.10903951580E+03 -0.76098827835E+03  0.91856062452E+03  0.79914608199E+02 0.  0.
         24    2    4    4    0    0 -0.37193003985E+03 -0.31341523997E+02 -0.28121509320E+03  0.47433399202E+03  0.81219219833E+02 0.  0.
         11    1    3    3    0    0 -0.96590688642E+02 -0.64923960121E+02  0.22659786857E+03  0.25473805324E+03  0.00000000000E+00 0.  1.
        -11    1    3    3    0    0 -0.27840531597E+02 -0.12774031679E+02  0.55149743304E+00  0.30636175257E+02  0.00000000000E+00 0. -1.
          2    1    6    6  502    0 -0.24605679159E+03 -0.20352118410E+02 -0.13611702653E+03  0.28193261309E+03  0.00000000000E+00 0. -1.
          1    1    5    5  503    0  0.44731322345E+03  0.11900051225E+03 -0.70598264250E+03  0.84419294791E+03  0.00000000000E+00 0. -1.
         -2    1    5    5    0  503  0.49048036643E+02 -0.99609964563E+01 -0.55005635853E+02  0.74367676611E+02  0.00000000000E+00 0.  1.
         -1    1    6    6    0  502 -0.12587324826E+03 -0.10989405587E+02 -0.14509806667E+03  0.19240137893E+03  0.00000000000E+00 0.  1.
<mgrwt>
<rscale>  0 0.14670628E+04</rscale>
<asrwt>0</asrwt>
<pdfrwt beam="1">  1        1 0.19179406E+00 0.14670628E+04</pdfrwt>
<pdfrwt beam="2">  1       -1 0.66401142E-01 0.14670628E+04</pdfrwt>
<totfact> 0.22027359E+01</totfact>
</mgrwt>
</event>
<event>
12    1  0.1504874E-007  0.1509222E+04  0.7818608E-02  0.8878344E-01
         -2   -1    0    0    0  501 -0.00000000000E+00  0.00000000000E+00  0.32315244439E+03  0.32315244439E+03  0.00000000000E+00 0. -1.
          2   -1    0    0  501    0  0.00000000000E+00 -0.00000000000E+00 -0.17621326333E+04  0.17621326333E+04  0.00000000000E+00 0.  1.
         23    2    1    2    0    0 -0.36511069049E+03  0.22441593606E+03 -0.77191717414E+03  0.88740326700E+03  0.89219425418E+02 0.  0.
        254    2    1    2    0    0  0.36511069049E+03 -0.22441593606E+03 -0.66706301474E+03  0.11978818107E+04  0.89793064211E+03 0.  0.
        -24    2    4    4    0    0  0.54334015587E+03 -0.29232869789E+03 -0.14883156642E+03  0.63977709534E+03  0.80556216188E+02 0.  0.
         24    2    4    4    0    0 -0.17822946537E+03  0.67912761833E+02 -0.51823144832E+03  0.55810471534E+03  0.80865033884E+02 0.  0.
         13    1    3    3    0    0 -0.32887689866E+03  0.16678025937E+03 -0.67145656985E+03  0.76604803673E+03  0.00000000000E+00 0.  1.
        -13    1    3    3    0    0 -0.36233791836E+02  0.57635676686E+02 -0.10046060430E+03  0.12135523027E+03  0.00000000000E+00 0. -1.
          4    1    6    6  502    0 -0.74874990503E+02  0.62468638497E+02 -0.31933653313E+03  0.33389282171E+03  0.00000000000E+00 0. -1.
          1    1    5    5  503    0  0.88056659290E+02 -0.57299712724E+02  0.38949614504E+01  0.10513040972E+03  0.00000000000E+00 0. -1.
         -2    1    5    5    0  503  0.45528349658E+03 -0.23502898517E+03 -0.15272652787E+03  0.53464668561E+03  0.00000000000E+00 0.  1.
         -3    1    6    6    0  502 -0.10335447487E+03  0.54441233359E+01 -0.19889491519E+03  0.22421189363E+03  0.00000000000E+00 0.  1.
<mgrwt>
<rscale>  0 0.15092216E+04</rscale>
<asrwt>0</asrwt>
<pdfrwt beam="1">  1        2 0.27109733E+00 0.15092216E+04</pdfrwt>
<pdfrwt beam="2">  1       -2 0.49715760E-01 0.15092216E+04</pdfrwt>
<totfact> 0.33477138E+01</totfact>
</mgrwt>
</event>
<event>
12    1  0.1504874E-007  0.1554592E+04  0.7818608E-02  0.8848940E-01
         -3   -1    0    0    0  501 -0.00000000000E+00  0.00000000000E+00  0.33391830099E+03  0.33391830099E+03  0.00000000000E+00 0.  1.
          3   -1    0    0  501    0  0.00000000000E+00 -0.00000000000E+00 -0.18093925460E+04  0.18093925460E+04  0.00000000000E+00 0. -1.
         23    2    1    2    0    0  0.19529406931E+03  0.15891114618E+02  0.16011300441E+03  0.26872880147E+03  0.90480348860E+02 0.  0.
        254    2    1    2    0    0 -0.19529406931E+03 -0.15891114618E+02 -0.16355872494E+04  0.18745820455E+04  0.89471777331E+03 0.  0.
        -24    2    4    4    0    0 -0.10425704019E+03  0.37290559971E+03 -0.35640674795E+03  0.53217031281E+03  0.79065511597E+02 0.  0.
         24    2    4    4    0    0 -0.91037029118E+02 -0.38879671433E+03 -0.12791805015E+04  0.13424117327E+04  0.79472504805E+02 0.  0.
         11    1    3    3    0    0  0.10114053736E+03 -0.19871248211E+02  0.12511432286E+03  0.16210449898E+03  0.00000000000E+00 0. -1.
        -11    1    3    3    0    0  0.94153531944E+02  0.35762362828E+02  0.34998681549E+02  0.10662430250E+03  0.00000000000E+00 0.  1.
          4    1    6    6  502    0 -0.97921783153E+02 -0.30434546629E+03 -0.10693222936E+04  0.11160936368E+04  0.00000000000E+00 0. -1.
          1    1    5    5  503    0 -0.80521689434E+02  0.34849015401E+03 -0.30264865707E+03  0.46853531301E+03  0.00000000000E+00 0. -1.
         -2    1    5    5    0  503 -0.23735350754E+02  0.24415445700E+02 -0.53758090872E+02  0.63634999791E+02  0.00000000000E+00 0.  1.
         -3    1    6    6    0  502  0.68847540352E+01 -0.84451248040E+02 -0.20985820787E+03  0.22631809592E+03  0.00000000000E+00 0.  1.
<mgrwt>
<rscale>  0 0.15545923E+04</rscale>
<asrwt>0</asrwt>
<pdfrwt beam="1">  1        3 0.27836809E+00 0.15545923E+04</pdfrwt>
<pdfrwt beam="2">  1       -3 0.51372046E-01 0.15545923E+04</pdfrwt>
<totfact> 0.48394944E-01</totfact>
</mgrwt>
</event>
<event>
12    1  0.1504874E-007  0.2188411E+04  0.7818608E-02  0.8523267E-01
         -2   -1    0    0    0  501 -0.00000000000E+00  0.00000000000E+00  0.14787457916E+04  0.14787457916E+04  0.00000000000E+00 0. -1.
          2   -1    0    0  501    0  0.00000000000E+00 -0.00000000000E+00 -0.80966295294E+03  0.80966295294E+03  0.00000000000E+00 0.  1.
         23    2    1    2    0    0  0.85505008652E+03  0.20197616705E+03  0.10193449334E+03  0.88900401148E+03  0.89624042368E+02 0.  0.
        254    2    1    2    0    0 -0.85505008652E+03 -0.20197616705E+03  0.56714834533E+03  0.13994047331E+04  0.92993082475E+03 0.  0.
        -24    2    4    4    0    0 -0.27012934272E+02 -0.39633620592E+03  0.70555833527E+02  0.41128067962E+03  0.79759545152E+02 0.  0.
         24    2    4    4    0    0 -0.82803715225E+03  0.19436003887E+03  0.49659251180E+03  0.98812405346E+03  0.79772627003E+02 0.  0.
         13    1    3    3    0    0  0.57075399475E+03  0.97791186430E+02  0.89652544680E+02  0.58596997998E+03  0.00000000000E+00 0. -1.
        -13    1    3    3    0    0  0.28429609177E+03  0.10418498062E+03  0.12281948655E+02  0.30303403150E+03  0.00000000000E+00 0.  1.
          2    1    6    6  502    0 -0.63136562580E+03  0.17727025356E+03  0.36037550235E+03  0.74827655244E+03  0.00000000000E+00 0. -1.
          1    1    5    5  503    0 -0.19399132321E+02 -0.38914798677E+03  0.56428771477E+02  0.39369618768E+03  0.00000000000E+00 0. -1.
         -2    1    5    5    0  503 -0.76138019508E+01 -0.71882191499E+01  0.14127062049E+02  0.17584491941E+02  0.00000000000E+00 0.  1.
         -1    1    6    6    0  502 -0.19667152645E+03  0.17089785313E+02  0.13621700945E+03  0.23984750101E+03  0.00000000000E+00 0.  1.
<mgrwt>
<rscale>  0 0.21884110E+04</rscale>
<asrwt>0</asrwt>
<pdfrwt beam="1">  1        2 0.12456353E+00 0.21884110E+04</pdfrwt>
<pdfrwt beam="2">  1       -2 0.22749935E+00 0.21884110E+04</pdfrwt>
<totfact> 0.27480893E+00</totfact>
</mgrwt>
</event>
<event>
12    1  0.1504874E-007  0.1381045E+04  0.7818608E-02  0.8967655E-01
         -1   -1    0    0    0  501 -0.00000000000E+00  0.00000000000E+00  0.45378898111E+03  0.45378898111E+03  0.00000000000E+00 0.  1.
          1   -1    0    0  501    0  0.00000000000E+00 -0.00000000000E+00 -0.10507552215E+04  0.10507552215E+04  0.00000000000E+00 0. -1.
         23    2    1    2    0    0  0.27882137285E+03 -0.27487655654E+03 -0.13210739110E+03  0.42317786322E+03  0.91261502552E+02 0.  0.
        254    2    1    2    0    0 -0.27882137285E+03  0.27487655654E+03 -0.46485884930E+03  0.10813663394E+04  0.89440535045E+03 0.  0.
        -24    2    4    4    0    0  0.22682099303E+03  0.18377695882E+03  0.94958686699E+02  0.31728371492E+03  0.80187717904E+02 0.  0.
         24    2    4    4    0    0 -0.50564236588E+03  0.91099597720E+02 -0.55981753600E+03  0.76408262447E+03  0.80332089068E+02 0.  0.
         11    1    3    3    0    0  0.10517059448E+03 -0.80840144695E+02 -0.87713741093E+02  0.15902730368E+03  0.00000000000E+00 0. -1.
        -11    1    3    3    0    0  0.17365077836E+03 -0.19403641184E+03 -0.44393650005E+02  0.26415055954E+03  0.00000000000E+00 0.  1.
          2    1    6    6  502    0 -0.24160291318E+03  0.84334345618E+02 -0.27603442240E+03  0.37640304443E+03  0.00000000000E+00 0. -1.
          1    1    5    5  503    0  0.15785691729E+03  0.77202468119E+02  0.51652306136E+02  0.18315836904E+03  0.00000000000E+00 0. -1.
         -2    1    5    5    0  503  0.68964075741E+02  0.10657449070E+03  0.43306380563E+02  0.13412534588E+03  0.00000000000E+00 0.  1.
         -1    1    6    6    0  502 -0.26403945269E+03  0.67652521022E+01 -0.28378311361E+03  0.38767958004E+03  0.00000000000E+00 0.  1.
<mgrwt>
<rscale>  0 0.13810447E+04</rscale>
<asrwt>0</asrwt>
<pdfrwt beam="1">  1        1 0.16165465E+00 0.13810447E+04</pdfrwt>
<pdfrwt beam="2">  1       -1 0.69813691E-01 0.13810447E+04</pdfrwt>
<totfact> 0.28002024E+01</totfact>
</mgrwt>
</event>
<event>
12    1  0.1504874E-007  0.1449943E+04  0.7818608E-02  0.8918440E-01
         -2   -1    0    0    0  501 -0.00000000000E+00  0.00000000000E+00  0.31209787515E+03  0.31209787515E+03  0.00000000000E+00 0.  1.
          2   -1    0    0  501    0  0.00000000000E+00 -0.00000000000E+00 -0.16840355407E+04  0.16840355407E+04  0.00000000000E+00 0. -1.
         23    2    1    2    0    0 -0.31527106392E+03 -0.45989374170E+02 -0.60192569835E+01  0.33220724515E+03  0.93885866833E+02 0.  0.
        254    2    1    2    0    0  0.31527106392E+03  0.45989374170E+02 -0.13659184086E+04  0.16639261707E+04  0.89521301177E+03 0.  0.
        -24    2    4    4    0    0 -0.16100032530E+02  0.37896297731E+03 -0.27999214945E+03  0.47811044242E+03  0.79510013095E+02 0.  0.
         24    2    4    4    0    0  0.33137109645E+03 -0.33297360314E+03 -0.10859262591E+04  0.11858157283E+04  0.79024535838E+02 0.  0.
         13    1    3    3    0    0 -0.14874193758E+03 -0.59133843195E+02 -0.31767383390E+02  0.16318744454E+03  0.00000000000E+00 0. -1.
        -13    1    3    3    0    0 -0.16652912634E+03  0.13144469025E+02  0.25748126406E+02  0.16901980061E+03  0.00000000000E+00 0.  1.
          4    1    6    6  502    0  0.32161568584E+03 -0.32574084468E+03 -0.10783877160E+04  0.11715220072E+04  0.00000000000E+00 0. -1.
          3    1    5    5  503    0 -0.37134001156E+00  0.23443304689E+03 -0.12527959724E+03  0.26580814294E+03  0.00000000000E+00 0. -1.
         -4    1    5    5    0  503 -0.15728692518E+02  0.14452993042E+03 -0.15471255221E+03  0.21230229949E+03  0.00000000000E+00 0.  1.
         -3    1    6    6    0  502  0.97554106173E+01 -0.72327584591E+01 -0.75385431359E+01  0.14293721134E+02  0.00000000000E+00 0.  1.
<mgrwt>
<rscale>  0 0.14499433E+04</rscale>
<asrwt>0</asrwt>
<pdfrwt beam="1">  1        2 0.25908239E+00 0.14499433E+04</pdfrwt>
<pdfrwt beam="2">  1       -2 0.48015057E-01 0.14499433E+04</pdfrwt>
<totfact> 0.39886278E+01</totfact>
</mgrwt>
</event>
<event>
12    1  0.1504874E-007  0.1217524E+04  0.7818608E-02  0.9097655E-01
         -2   -1    0    0    0  501 -0.00000000000E+00  0.00000000000E+00  0.46617568585E+03  0.46617568585E+03  0.00000000000E+00 0.  1.
          2   -1    0    0  501    0  0.00000000000E+00 -0.00000000000E+00 -0.79496045928E+03  0.79496045928E+03  0.00000000000E+00 0. -1.
         23    2    1    2    0    0  0.11385659629E+03 -0.22668250976E+03 -0.16316748067E+03  0.31494311780E+03  0.90649081368E+02 0.  0.
        254    2    1    2    0    0 -0.11385659629E+03  0.22668250976E+03 -0.16561729277E+03  0.94619302732E+03  0.89638377526E+03 0.  0.
        -24    2    4    4    0    0  0.97885707587E+02 -0.27018303942E+03  0.13002745701E+03  0.32515979816E+03  0.79001697570E+02 0.  0.
         24    2    4    4    0    0 -0.21174230388E+03  0.49686554919E+03 -0.29564474978E+03  0.62103322917E+03  0.81032564066E+02 0.  0.
         13    1    3    3    0    0  0.35642774406E+02 -0.71034717617E+02 -0.49634485817E+01  0.79630234811E+02  0.00000000000E+00 0.  1.
        -13    1    3    3    0    0  0.78213821886E+02 -0.15564779215E+03 -0.15820403209E+03  0.23531288299E+03  0.00000000000E+00 0. -1.
          2    1    6    6  502    0 -0.21346511181E+03  0.47820032507E+03 -0.26977190957E+03  0.58908385485E+03  0.00000000000E+00 0. -1.
          1    1    5    5  503    0  0.49190100082E+02 -0.43686263988E+02  0.20555428029E+02  0.68925185736E+02  0.00000000000E+00 0. -1.
         -2    1    5    5    0  503  0.48695607504E+02 -0.22649677543E+03  0.10947202898E+03  0.25623461242E+03  0.00000000000E+00 0.  1.
         -1    1    6    6    0  502  0.17228079321E+01  0.18665224117E+02 -0.25872840212E+02  0.31949374315E+02  0.00000000000E+00 0.  1.
<mgrwt>
<rscale>  0 0.12175241E+04</rscale>
<asrwt>0</asrwt>
<pdfrwt beam="1">  1        2 0.12230161E+00 0.12175241E+04</pdfrwt>
<pdfrwt beam="2">  1       -2 0.71719337E-01 0.12175241E+04</pdfrwt>
<totfact> 0.60374950E+01</totfact>
</mgrwt>
</event>
<event>
12    1  0.1504874E-007  0.1357877E+04  0.7818608E-02  0.8984887E-01
         -1   -1    0    0    0  501 -0.00000000000E+00  0.00000000000E+00  0.13303387082E+04  0.13303387082E+04  0.00000000000E+00 0.  1.
          1   -1    0    0  501    0  0.00000000000E+00 -0.00000000000E+00 -0.34649628586E+03  0.34649628586E+03  0.00000000000E+00 0. -1.
         23    2    1    2    0    0  0.24714923897E+02  0.36759089831E+03  0.23465588103E+03  0.44599472083E+03  0.90077813725E+02 0.  0.
        254    2    1    2    0    0 -0.24714923897E+02 -0.36759089831E+03  0.74918654134E+03  0.12308402732E+04  0.90440776675E+03 0.  0.
        -24    2    4    4    0    0  0.26112514987E+03 -0.12601129678E+02 -0.77131220754E+02  0.28408775989E+03  0.80071828643E+02 0.  0.
         24    2    4    4    0    0 -0.28584007377E+03 -0.35498976863E+03  0.82631776209E+03  0.94675251336E+03  0.76269220545E+02 0.  0.
         11    1    3    3    0    0  0.42649341691E+02  0.13347991233E+03  0.55774373654E+02  0.15081987303E+03  0.00000000000E+00 0. -1.
        -11    1    3    3    0    0 -0.17934417795E+02  0.23411098597E+03  0.17888150737E+03  0.29517484780E+03  0.00000000000E+00 0.  1.
          2    1    6    6  502    0 -0.27210532038E+03 -0.29977013053E+03  0.71187637833E+03  0.81894530621E+03  0.00000000000E+00 0. -1.
          1    1    5    5  503    0  0.16395818286E+03  0.26124348723E+02 -0.66866281688E+02  0.17898566129E+03  0.00000000000E+00 0. -1.
         -2    1    5    5    0  503  0.97166967012E+02 -0.38725478401E+02 -0.10264939066E+02  0.10510209860E+03  0.00000000000E+00 0.  1.
         -1    1    6    6    0  502 -0.13734753385E+02 -0.55219638098E+02  0.11444138376E+03  0.12780720715E+03  0.00000000000E+00 0.  1.
<mgrwt>
<rscale>  0 0.13578769E+04</rscale>
<asrwt>0</asrwt>
<pdfrwt beam="1">  1        1 0.53307121E-01 0.13578769E+04</pdfrwt>
<pdfrwt beam="2">  1       -1 0.20466749E+00 0.13578769E+04</pdfrwt>
<totfact> 0.99243145E+00</totfact>
</mgrwt>
</event>
<event>
12    1  0.1504874E-007  0.1265758E+04  0.7818608E-02  0.9057169E-01
          2   -1    0    0  501    0  0.00000000000E+00  0.00000000000E+00  0.30199263971E+03  0.30199263971E+03  0.00000000000E+00 0. -1.
         -2   -1    0    0    0  501 -0.00000000000E+00 -0.00000000000E+00 -0.13263091111E+04  0.13263091111E+04  0.00000000000E+00 0.  1.
         23    2    1    2    0    0 -0.67780303131E+02  0.44329318786E+02  0.11390238674E+03  0.16688194964E+03  0.91195248860E+02 0.  0.
        254    2    1    2    0    0  0.67780303131E+02 -0.44329318786E+02 -0.11382188581E+04  0.14614198012E+04  0.91304239126E+03 0.  0.
        -24    2    4    4    0    0 -0.25320874088E+03  0.23181573055E+03 -0.14883707601E+03  0.38224142237E+03  0.78120614403E+02 0.  0.
         24    2    4    4    0    0  0.32098904401E+03 -0.27614504933E+03 -0.98938178214E+03  0.10791783788E+04  0.80371685421E+02 0.  0.
         13    1    3    3    0    0 -0.95606415400E+01 -0.22450980693E+02  0.24765102440E+01  0.24527240035E+02  0.00000000000E+00 0.  1.
        -13    1    3    3    0    0 -0.58219661591E+02  0.66780299479E+02  0.11142587650E+03  0.14235470961E+03  0.00000000000E+00 0. -1.
          4    1    6    6  502    0  0.73824098186E+01 -0.30755680812E+02 -0.54299023741E+02  0.62839445066E+02  0.00000000000E+00 0. -1.
          3    1    5    5  503    0 -0.12593123633E+03  0.79118147025E+02 -0.33608659709E+02  0.15247261879E+03  0.00000000000E+00 0. -1.
         -4    1    5    5    0  503 -0.12727750455E+03  0.15269758352E+03 -0.11522841630E+03  0.22976880358E+03  0.00000000000E+00 0.  1.
         -3    1    6    6    0  502  0.31360663419E+03 -0.24538936852E+03 -0.93508275840E+03  0.10163389337E+04  0.00000000000E+00 0.  1.
<mgrwt>
<rscale>  0 0.12657576E+04</rscale>
<asrwt>0</asrwt>
<pdfrwt beam="1">  1        2 0.46460407E-01 0.12657576E+04</pdfrwt>
<pdfrwt beam="2">  1       -2 0.20404755E+00 0.12657576E+04</pdfrwt>
<totfact> 0.13389622E+01</totfact>
</mgrwt>
</event>
<event>
12    1  0.1504874E-007  0.1458934E+04  0.7818608E-02  0.8912230E-01
          2   -1    0    0  501    0  0.00000000000E+00  0.00000000000E+00  0.20468727664E+04  0.20468727664E+04  0.00000000000E+00 0. -1.
         -2   -1    0    0    0  501 -0.00000000000E+00 -0.00000000000E+00 -0.25996816790E+03  0.25996816790E+03  0.00000000000E+00 0.  1.
         23    2    1    2    0    0  0.16399158282E+03 -0.72061984635E+02 -0.86040963905E+02  0.21844826749E+03  0.90721713133E+02 0.  0.
        254    2    1    2    0    0 -0.16399158282E+03  0.72061984635E+02  0.18729455624E+04  0.20883926668E+04  0.90629613382E+03 0.  0.
        -24    2    4    4    0    0 -0.20539133825E+03  0.14541603521E+03  0.58907623282E+02  0.27059515210E+03  0.80126170073E+02 0.  0.
         24    2    4    4    0    0  0.41399755431E+02 -0.73354050578E+02  0.18140379391E+04  0.18177975147E+04  0.80990144023E+02 0.  0.
         11    1    3    3    0    0 -0.38874398807E+01 -0.62358590078E+01 -0.28100090910E+02  0.29045020839E+02  0.00000000000E+00 0. -1.
        -11    1    3    3    0    0  0.16787902270E+03 -0.65826125627E+02 -0.57940872995E+02  0.18940324665E+03  0.00000000000E+00 0.  1.
          4    1    6    6  502    0  0.26914515741E+02 -0.74381333245E+02  0.17619084724E+04  0.17636832025E+04  0.00000000000E+00 0. -1.
          1    1    5    5  503    0 -0.20888625469E+03  0.13739963613E+03  0.44813868870E+02  0.25400868145E+03  0.00000000000E+00 0. -1.
         -2    1    5    5    0  503  0.34949164366E+01  0.80163990819E+01  0.14093754413E+02  0.16586470649E+02  0.00000000000E+00 0.  1.
         -3    1    6    6    0  502  0.14485239690E+02  0.10272826676E+01  0.52129466776E+02  0.54114312200E+02  0.00000000000E+00 0.  1.
<mgrwt>
<rscale>  0 0.14589335E+04</rscale>
<asrwt>0</asrwt>
<pdfrwt beam="1">  1        2 0.31490349E+00 0.14589335E+04</pdfrwt>
<pdfrwt beam="2">  1       -2 0.39995104E-01 0.14589335E+04</pdfrwt>
<totfact> 0.36091431E+01</totfact>
</mgrwt>
</event>
<event>
12    1  0.1504874E-007  0.1973025E+04  0.7818608E-02  0.8619337E-01
          2   -1    0    0  501    0  0.00000000000E+00  0.00000000000E+00  0.41330276557E+03  0.41330276557E+03  0.00000000000E+00 0. -1.
         -2   -1    0    0    0  501 -0.00000000000E+00 -0.00000000000E+00 -0.23547069250E+04  0.23547069250E+04  0.00000000000E+00 0.  1.
         23    2    1    2    0    0 -0.29499640523E+03 -0.61220872875E+03 -0.13742195037E+04  0.15358087032E+04  0.91688177141E+02 0.  0.
        254    2    1    2    0    0  0.29499640523E+03  0.61220872875E+03 -0.56718465576E+03  0.12322009874E+04  0.85720384562E+03 0.  0.
        -24    2    4    4    0    0 -0.88168737602E+02  0.58977146162E+03 -0.58653927502E+03  0.84031587674E+03  0.80612333533E+02 0.  0.
         24    2    4    4    0    0  0.38316514283E+03  0.22437267132E+02  0.19354619261E+02  0.39188511066E+03  0.76683642538E+02 0.  0.
         13    1    3    3    0    0 -0.18986725244E+03 -0.35320958275E+03 -0.90084030727E+03  0.98606279826E+03  0.00000000000E+00 0.  1.
        -13    1    3    3    0    0 -0.10512915279E+03 -0.25899914600E+03 -0.47337919640E+03  0.54974590492E+03  0.00000000000E+00 0. -1.
          4    1    6    6  502    0  0.20600812331E+03  0.50133604103E+02  0.14367623948E+02  0.21250683224E+03  0.00000000000E+00 0. -1.
          3    1    5    5  503    0 -0.92734474534E+02  0.43772885909E+03 -0.46791233875E+03  0.64741655339E+03  0.00000000000E+00 0. -1.
         -4    1    5    5    0  503  0.45657369315E+01  0.15204260253E+03 -0.11862693627E+03  0.19289932335E+03  0.00000000000E+00 0.  1.
         -3    1    6    6    0  502  0.17715701952E+03 -0.27696336971E+02  0.49869953129E+01  0.17937827842E+03  0.00000000000E+00 0.  1.
<mgrwt>
<rscale>  0 0.19730250E+04</rscale>
<asrwt>0</asrwt>
<pdfrwt beam="1">  1        2 0.63585043E-01 0.19730250E+04</pdfrwt>
<pdfrwt beam="2">  1       -2 0.36226259E+00 0.19730250E+04</pdfrwt>
<totfact> 0.93076545E-01</totfact>
</mgrwt>
</event>
<event>
12    1  0.1504874E-007  0.2079217E+04  0.7818608E-02  0.8570454E-01
         -2   -1    0    0    0  501 -0.00000000000E+00  0.00000000000E+00  0.36286974853E+03  0.36286974853E+03  0.00000000000E+00 0. -1.
          2   -1    0    0  501    0  0.00000000000E+00 -0.00000000000E+00 -0.29784400927E+04  0.29784400927E+04  0.00000000000E+00 0.  1.
         23    2    1    2    0    0 -0.31542312590E+03 -0.68770443413E+03 -0.16672581101E+04  0.18332797613E+04  0.93466251990E+02 0.  0.
        254    2    1    2    0    0  0.31542312590E+03  0.68770443413E+03 -0.94831223402E+03  0.15080300799E+04  0.89578428860E+03 0.  0.
        -24    2    4    4    0    0  0.95851148032E+02  0.52560978296E+03 -0.23855419730E+02  0.54087830311E+03  0.80790910392E+02 0.  0.
         24    2    4    4    0    0  0.21957197787E+03  0.16209465117E+03 -0.92445681429E+03  0.96715177682E+03  0.79218864593E+02 0.  0.
         13    1    3    3    0    0 -0.28849758009E+03 -0.62822261462E+03 -0.15771426204E+04  0.17219969084E+04  0.00000000000E+00 0.  1.
        -13    1    3    3    0    0 -0.26925545818E+02 -0.59481819512E+02 -0.90115489685E+02  0.11128285291E+03  0.00000000000E+00 0. -1.
          2    1    6    6  502    0  0.18650228726E+02  0.10890682910E+02 -0.18179754686E+03  0.18307590243E+03  0.00000000000E+00 0. -1.
          1    1    5    5  503    0 -0.85749983507E+01  0.11711652406E+03  0.10220125695E+02  0.11787392321E+03  0.00000000000E+00 0. -1.
         -2    1    5    5    0  503  0.10442614638E+03  0.40849325891E+03 -0.34075545425E+02  0.42300437990E+03  0.00000000000E+00 0.  1.
         -1    1    6    6    0  502  0.20092174915E+03  0.15120396826E+03 -0.74265926743E+03  0.78407587439E+03  0.00000000000E+00 0.  1.
<mgrwt>
<rscale>  0 0.20792170E+04</rscale>
<asrwt>0</asrwt>
<pdfrwt beam="1">  1        2 0.45822157E+00 0.20792170E+04</pdfrwt>
<pdfrwt beam="2">  1       -2 0.55826113E-01 0.20792170E+04</pdfrwt>
<totfact> 0.50060688E+00</totfact>
</mgrwt>
</event>
<event>
12    1  0.1504874E-007  0.1484442E+04  0.7818608E-02  0.8894865E-01
          1   -1    0    0  501    0  0.00000000000E+00  0.00000000000E+00  0.10049183727E+04  0.10049183727E+04  0.00000000000E+00 0. -1.
         -1   -1    0    0    0  501 -0.00000000000E+00 -0.00000000000E+00 -0.54819610120E+03  0.54819610120E+03  0.00000000000E+00 0.  1.
         23    2    1    2    0    0  0.44702544275E+03  0.53615052175E+02  0.21266020076E+03  0.50633906835E+03  0.91916107736E+02 0.  0.
        254    2    1    2    0    0 -0.44702544275E+03 -0.53615052175E+02  0.24406207072E+03  0.10467754055E+04  0.91294366472E+03 0.  0.
        -24    2    4    4    0    0 -0.10968007760E+02  0.23262595055E+02  0.51423715783E+03  0.52189072563E+03  0.85256257743E+02 0.  0.
         24    2    4    4    0    0 -0.43605743499E+03 -0.76877647229E+02 -0.27017508711E+03  0.52488467989E+03  0.80331128713E+02 0.  0.
         13    1    3    3    0    0  0.23061955463E+01  0.11752634786E+02  0.10927717261E+02  0.16212895079E+02  0.00000000000E+00 0.  1.
        -13    1    3    3    0    0  0.44471924720E+03  0.41862417388E+02  0.20173248350E+03  0.49012617327E+03  0.00000000000E+00 0. -1.
          2    1    6    6  502    0 -0.15612884903E+03 -0.66981185873E+02 -0.10419427559E+03  0.19929662272E+03  0.00000000000E+00 0. -1.
          1    1    5    5  503    0 -0.16414489738E+02  0.54633674450E+02  0.34496052623E+03  0.34964558987E+03  0.00000000000E+00 0. -1.
         -2    1    5    5    0  503  0.54464819775E+01 -0.31371079395E+02  0.16927663160E+03  0.17224513576E+03  0.00000000000E+00 0.  1.
         -1    1    6    6    0  502 -0.27992858596E+03 -0.98964613562E+01 -0.16598081152E+03  0.32558805718E+03  0.00000000000E+00 0.  1.
<mgrwt>
<rscale>  0 0.14844424E+04</rscale>
<asrwt>0</asrwt>
<pdfrwt beam="1">  1        1 0.15460283E+00 0.14844424E+04</pdfrwt>
<pdfrwt beam="2">  1       -1 0.84337862E-01 0.14844424E+04</pdfrwt>
<totfact> 0.20232673E+01</totfact>
</mgrwt>
</event>
<event>
12    1  0.1504874E-007  0.1431952E+04  0.7818608E-02  0.8931009E-01
         -2   -1    0    0    0  501 -0.00000000000E+00  0.00000000000E+00  0.20484481027E+03  0.20484481027E+03  0.00000000000E+00 0.  1.
          2   -1    0    0  501    0  0.00000000000E+00 -0.00000000000E+00 -0.25024871639E+04  0.25024871639E+04  0.00000000000E+00 0. -1.
         23    2    1    2    0    0 -0.31070629834E+03  0.29191136846E+03 -0.63229805635E+03  0.76775264980E+03  0.88840578249E+02 0.  0.
        254    2    1    2    0    0  0.31070629834E+03 -0.29191136846E+03 -0.16653442973E+04  0.19395793244E+04  0.89824588851E+03 0.  0.
        -24    2    4    4    0    0 -0.94029452751E+02  0.50795633334E+02 -0.12605951174E+04  0.12676759117E+04  0.80501133724E+02 0.  0.
         24    2    4    4    0    0  0.40473575110E+03 -0.34270700179E+03 -0.40474917986E+03  0.67190341275E+03  0.79832200057E+02 0.  0.
         11    1    3    3    0    0 -0.69617664464E+02  0.85534954729E+02 -0.10473922785E+03  0.15209586956E+03  0.00000000000E+00 0. -1.
        -11    1    3    3    0    0 -0.24108863388E+03  0.20637641373E+03 -0.52755882849E+03  0.61565678024E+03  0.00000000000E+00 0.  1.
          2    1    6    6  502    0  0.29348109518E+02 -0.20103599020E+02 -0.55175230472E+01  0.35998740067E+02  0.00000000000E+00 0. -1.
          1    1    5    5  503    0 -0.53313487415E+02  0.11411302818E+02 -0.26930182434E+03  0.27476538786E+03  0.00000000000E+00 0. -1.
         -2    1    5    5    0  503 -0.40715965336E+02  0.39384330516E+02 -0.99129329311E+03  0.99291052381E+03  0.00000000000E+00 0.  1.
         -3    1    6    6    0  502  0.37538764158E+03 -0.32260340278E+03 -0.39923165682E+03  0.63590467268E+03  0.00000000000E+00 0.  1.
<mgrwt>
<rscale>  0 0.14319518E+04</rscale>
<asrwt>0</asrwt>
<pdfrwt beam="1">  1        2 0.38499803E+00 0.14319518E+04</pdfrwt>
<pdfrwt beam="2">  1       -2 0.31514586E-01 0.14319518E+04</pdfrwt>
<totfact> 0.31607490E+01</totfact>
</mgrwt>
</event>
<event>
12    1  0.1504874E-007  0.1533188E+04  0.7818608E-02  0.8862678E-01
         -1   -1    0    0    0  501 -0.00000000000E+00  0.00000000000E+00  0.39324777693E+03  0.39324777693E+03  0.00000000000E+00 0.  1.
          1   -1    0    0  501    0  0.00000000000E+00 -0.00000000000E+00 -0.14943925865E+04  0.14943925865E+04  0.00000000000E+00 0. -1.
         23    2    1    2    0    0  0.74357282511E+02 -0.12541757260E+03  0.20968708789E+03  0.27026841412E+03  0.88418142160E+02 0.  0.
        254    2    1    2    0    0 -0.74357282511E+02  0.12541757260E+03 -0.13108318974E+04  0.16173719493E+04  0.93613737561E+03 0.  0.
        -24    2    4    4    0    0  0.32867528735E+03  0.28406886068E+03 -0.35892833370E+03  0.56906166346E+03  0.79240557604E+02 0.  0.
         24    2    4    4    0    0 -0.40303256986E+03 -0.15865128807E+03 -0.95190356375E+03  0.10483102858E+04  0.72308900711E+02 0.  0.
         11    1    3    3    0    0  0.80244468512E+02 -0.73808832057E+02  0.17998714354E+03  0.21043357682E+03  0.00000000000E+00 0.  1.
        -11    1    3    3    0    0 -0.58871860017E+01 -0.51608740546E+02  0.29699944357E+02  0.59834837299E+02  0.00000000000E+00 0. -1.
          2    1    6    6  502    0 -0.36783183626E+03 -0.14150518281E+03 -0.90579402939E+03  0.98781921434E+03  0.00000000000E+00 0. -1.
          1    1    5    5  503    0  0.23960592023E+03  0.20662352657E+03 -0.21315725628E+03  0.38149743727E+03  0.00000000000E+00 0. -1.
         -2    1    5    5    0  503  0.89069367119E+02  0.77445334106E+02 -0.14577107741E+03  0.18756422618E+03  0.00000000000E+00 0.  1.
         -1    1    6    6    0  502 -0.35200733603E+02 -0.17146105265E+02 -0.46109534356E+02  0.60491071494E+02  0.00000000000E+00 0.  1.
<mgrwt>
<rscale>  0 0.15331883E+04</rscale>
<asrwt>0</asrwt>
<pdfrwt beam="1">  1        1 0.22990655E+00 0.15331883E+04</pdfrwt>
<pdfrwt beam="2">  1       -1 0.60499658E-01 0.15331883E+04</pdfrwt>
<totfact> 0.17641655E+01</totfact>
</mgrwt>
</event>
<event>
12    1  0.1504874E-007  0.1642899E+04  0.7818608E-02  0.8794618E-01
         -1   -1    0    0    0  501 -0.00000000000E+00  0.00000000000E+00  0.68935023617E+03  0.68935023617E+03  0.00000000000E+00 0.  1.
          1   -1    0    0  501    0  0.00000000000E+00 -0.00000000000E+00 -0.97886313908E+03  0.97886313908E+03  0.00000000000E+00 0. -1.
         23    2    1    2    0    0  0.77140590592E+02  0.31282538351E+03  0.37562800672E+03  0.50304038174E+03  0.90237658118E+02 0.  0.
        254    2    1    2    0    0 -0.77140590592E+02 -0.31282538351E+03 -0.66514090964E+03  0.11651729935E+04  0.90078037493E+03 0.  0.
        -24    2    4    4    0    0  0.39156991554E+03 -0.34040377174E+02 -0.34049020028E+03  0.52621338320E+03  0.80505913716E+02 0.  0.
         24    2    4    4    0    0 -0.46871050613E+03 -0.27878500633E+03 -0.32465070936E+03  0.63895961031E+03  0.73896428946E+02 0.  0.
         11    1    3    3    0    0  0.85519579569E+02  0.30539654321E+03  0.37593117544E+03  0.49183828213E+03  0.00000000000E+00 0.  1.
        -11    1    3    3    0    0 -0.83789889771E+01  0.74288402937E+01 -0.30316872285E+00  0.11202099610E+02  0.00000000000E+00 0. -1.
          2    1    6    6  502    0 -0.27460858513E+03 -0.19847491763E+03 -0.22275807504E+03  0.40549146471E+03  0.00000000000E+00 0. -1.
          1    1    5    5  503    0  0.22635376168E+03 -0.33554147107E+02 -0.24562347630E+03  0.33569748037E+03  0.00000000000E+00 0. -1.
         -2    1    5    5    0  503  0.16521615386E+03 -0.48623006753E+00 -0.94866723980E+02  0.19051590284E+03  0.00000000000E+00 0.  1.
         -1    1    6    6    0  502 -0.19410192100E+03 -0.80310088696E+02 -0.10189263432E+03  0.23346814560E+03  0.00000000000E+00 0.  1.
<mgrwt>
<rscale>  0 0.16428993E+04</rscale>
<asrwt>0</asrwt>
<pdfrwt beam="1">  1        1 0.15059433E+00 0.16428993E+04</pdfrwt>
<pdfrwt beam="2">  1       -1 0.10605388E+00 0.16428993E+04</pdfrwt>
<totfact> 0.12505361E+01</totfact>
</mgrwt>
</event>
<event>
12    1  0.1504874E-007  0.2375052E+04  0.7818608E-02  0.8448903E-01
         -2   -1    0    0    0  501 -0.00000000000E+00  0.00000000000E+00  0.15717871841E+04  0.15717871841E+04  0.00000000000E+00 0.  1.
          2   -1    0    0  501    0  0.00000000000E+00 -0.00000000000E+00 -0.89720678615E+03  0.89720678615E+03  0.00000000000E+00 0. -1.
         23    2    1    2    0    0  0.32972612767E+03  0.95649644930E+03  0.37157919981E+03  0.10816403090E+04  0.90938878196E+02 0.  0.
        254    2    1    2    0    0 -0.32972612767E+03 -0.95649644930E+03  0.30300119819E+03  0.13873536613E+04  0.89963085682E+03 0.  0.
        -24    2    4    4    0    0 -0.17847361301E+02 -0.29216268512E+03  0.53392076999E+03  0.61390867030E+03  0.78325627786E+02 0.  0.
         24    2    4    4    0    0 -0.31187876637E+03 -0.66433376418E+03 -0.23091957180E+03  0.77344499097E+03  0.79281714611E+02 0.  0.
         11    1    3    3    0    0  0.22265347967E+02  0.55733912796E+02  0.35528725853E+00  0.60017838887E+02  0.00000000000E+00 0. -1.
        -11    1    3    3    0    0  0.30746077971E+03  0.90076253650E+03  0.37122391255E+03  0.10216224701E+04  0.00000000000E+00 0.  1.
          4    1    6    6  502    0 -0.30219957498E+03 -0.59372328824E+03 -0.21833183099E+03  0.70107111946E+03  0.00000000000E+00 0. -1.
          1    1    5    5  503    0 -0.35866997175E+02 -0.24154096064E+03  0.47549053590E+03  0.53452757355E+03  0.00000000000E+00 0. -1.
         -2    1    5    5    0  503  0.18019635874E+02 -0.50621724481E+02  0.58430234083E+02  0.79381096752E+02  0.00000000000E+00 0.  1.
         -3    1    6    6    0  502 -0.96791913916E+01 -0.70610475943E+02 -0.12587740807E+02  0.72373871511E+02  0.00000000000E+00 0.  1.
<mgrwt>
<rscale>  0 0.23750521E+04</rscale>
<asrwt>0</asrwt>
<pdfrwt beam="1">  1        2 0.13803181E+00 0.23750521E+04</pdfrwt>
<pdfrwt beam="2">  1       -2 0.24181341E+00 0.23750521E+04</pdfrwt>
<totfact> 0.19151532E+00</totfact>
</mgrwt>
</event>
<event>
12    1  0.1504874E-007  0.1897440E+04  0.7818608E-02  0.8656132E-01
          1   -1    0    0  501    0  0.00000000000E+00  0.00000000000E+00  0.14791939848E+04  0.14791939848E+04  0.00000000000E+00 0. -1.
         -1   -1    0    0    0  501 -0.00000000000E+00 -0.00000000000E+00 -0.60848673662E+03  0.60848673662E+03  0.00000000000E+00 0.  1.
         23    2    1    2    0    0 -0.29125469395E+02 -0.57389814879E+03  0.80959526566E+03  0.99663631087E+03  0.87361683910E+02 0.  0.
        254    2    1    2    0    0  0.29125469395E+02  0.57389814879E+03  0.61111982482E+02  0.10910444105E+04  0.92543819522E+03 0.  0.
        -24    2    4    4    0    0 -0.26287489048E+03  0.64531781359E+02 -0.28786566140E+03  0.40324470844E+03  0.80449344443E+02 0.  0.
         24    2    4    4    0    0  0.29200035988E+03  0.50936636743E+03  0.34897764388E+03  0.68779970207E+03  0.81023007899E+02 0.  0.
         13    1    3    3    0    0 -0.44327557883E+01 -0.36681283442E+02  0.97635842162E+02  0.10439312024E+03  0.00000000000E+00 0.  1.
        -13    1    3    3    0    0 -0.24692713607E+02 -0.53721686534E+03  0.71195942350E+03  0.89224319063E+03  0.00000000000E+00 0. -1.
          2    1    6    6  502    0  0.71504047658E+01 -0.14397120109E+01  0.13228372787E+01  0.74128913019E+01  0.00000000000E+00 0. -1.
          3    1    5    5  503    0 -0.87111301715E+02  0.29787406854E+02 -0.15466141688E+03  0.17998839508E+03  0.00000000000E+00 0. -1.
         -4    1    5    5    0  503 -0.17576358877E+03  0.34744374505E+02 -0.13320424452E+03  0.22325631336E+03  0.00000000000E+00 0.  1.
         -1    1    6    6    0  502  0.28484995511E+03  0.51080607944E+03  0.34765480660E+03  0.68038681077E+03  0.00000000000E+00 0.  1.
<mgrwt>
<rscale>  0 0.18974403E+04</rscale>
<asrwt>0</asrwt>
<pdfrwt beam="1">  1        1 0.22756830E+00 0.18974403E+04</pdfrwt>
<pdfrwt beam="2">  1       -1 0.93613345E-01 0.18974403E+04</pdfrwt>
<totfact> 0.70039533E+00</totfact>
</mgrwt>
</event>
<event>
12    1  0.1504874E-007  0.1375310E+04  0.7818608E-02  0.8971887E-01
          2   -1    0    0  501    0  0.00000000000E+00  0.00000000000E+00  0.17021097295E+04  0.17021097295E+04  0.00000000000E+00 0. -1.
         -2   -1    0    0    0  501 -0.00000000000E+00 -0.00000000000E+00 -0.27781357007E+03  0.27781357007E+03  0.00000000000E+00 0.  1.
         23    2    1    2    0    0  0.20645723933E+03 -0.16238813525E+03  0.90063148947E+01  0.28258874494E+03  0.10383056832E+03 0.  0.
        254    2    1    2    0    0 -0.20645723933E+03  0.16238813525E+03  0.14152898445E+04  0.16973345546E+04  0.89939132093E+03 0.  0.
        -24    2    4    4    0    0  0.26288649885E+03 -0.19544899724E+03  0.43649025439E+03  0.55154470861E+03  0.79801012701E+02 0.  0.
         24    2    4    4    0    0 -0.46934373817E+03  0.35783713249E+03  0.97879959016E+03  0.11457898460E+04  0.80341618159E+02 0.  0.
         13    1    3    3    0    0  0.21056430745E+03 -0.16738138793E+03 -0.29426121169E+01  0.26900281701E+03  0.00000000000E+00 0.  1.
        -13    1    3    3    0    0 -0.41070681206E+01  0.49932526775E+01  0.11948927012E+02  0.13585927925E+02  0.00000000000E+00 0. -1.
          2    1    6    6  502    0 -0.39311668195E+03  0.26560203920E+03  0.74695788069E+03  0.88489052678E+03  0.00000000000E+00 0. -1.
          3    1    5    5  503    0  0.73269021735E+02 -0.45896738616E+02  0.17746727981E+03  0.19740692887E+03  0.00000000000E+00 0. -1.
         -4    1    5    5    0  503  0.18961747711E+03 -0.14955225863E+03  0.25902297458E+03  0.35413777975E+03  0.00000000000E+00 0.  1.
         -1    1    6    6    0  502 -0.76227056221E+02  0.92235093289E+02  0.23184170947E+03  0.26089931925E+03  0.00000000000E+00 0.  1.
<mgrwt>
<rscale>  0 0.13753097E+04</rscale>
<asrwt>0</asrwt>
<pdfrwt beam="1">  1        2 0.26186303E+00 0.13753097E+04</pdfrwt>
<pdfrwt beam="2">  1       -2 0.42740550E-01 0.13753097E+04</pdfrwt>
<totfact> 0.49483238E+01</totfact>
</mgrwt>
</event>
<event>
12    1  0.1504874E-007  0.1701942E+04  0.7818608E-02  0.8760258E-01
          3   -1    0    0  501    0  0.00000000000E+00  0.00000000000E+00  0.13967865254E+04  0.13967865254E+04  0.00000000000E+00 0. -1.
         -3   -1    0    0    0  501 -0.00000000000E+00 -0.00000000000E+00 -0.51844094101E+03  0.51844094101E+03  0.00000000000E+00 0.  1.
         23    2    1    2    0    0 -0.22066119499E+03 -0.40484687223E+03 -0.12861089364E+03  0.48812520564E+03  0.95567261637E+02 0.  0.
        254    2    1    2    0    0  0.22066119499E+03  0.40484687223E+03  0.10069564781E+04  0.14271022608E+04  0.90003731098E+03 0.  0.
        -24    2    4    4    0    0 -0.80006025296E+02  0.48508264039E+03  0.98625712468E+03  0.11046366978E+04  0.76242940345E+02 0.  0.
         24    2    4    4    0    0  0.30066722028E+03 -0.80235768163E+02  0.20699353382E+02  0.32246556305E+03  0.81957429655E+02 0.  0.
         11    1    3    3    0    0 -0.42587317414E+02 -0.16932730208E+03 -0.63339579212E+02  0.18573453402E+03  0.00000000000E+00 0. -1.
        -11    1    3    3    0    0 -0.17807387757E+03 -0.23551957015E+03 -0.65271314429E+02  0.30239067162E+03  0.00000000000E+00 0.  1.
          4    1    6    6  502    0  0.12199794711E+03  0.70190017493E+01  0.18674507868E+02  0.12361837536E+03  0.00000000000E+00 0. -1.
          3    1    5    5  503    0 -0.34561707712E+02  0.54494892945E+02  0.12662472107E+03  0.14211975578E+03  0.00000000000E+00 0. -1.
         -4    1    5    5    0  503 -0.45444317584E+02  0.43058774745E+03  0.85963240361E+03  0.96251694198E+03  0.00000000000E+00 0.  1.
         -3    1    6    6    0  502  0.17866927318E+03 -0.87254769913E+02  0.20248455149E+01  0.19884718768E+03  0.00000000000E+00 0.  1.
<mgrwt>
<rscale>  0 0.17019416E+04</rscale>
<asrwt>0</asrwt>
<pdfrwt beam="1">  1        3 0.21489023E+00 0.17019416E+04</pdfrwt>
<pdfrwt beam="2">  1       -3 0.79760145E-01 0.17019416E+04</pdfrwt>
<totfact> 0.43429573E-01</totfact>
</mgrwt>
</event>
<event>
12    1  0.1504874E-007  0.1333513E+04  0.7818608E-02  0.9003403E-01
         -1   -1    0    0    0  501 -0.00000000000E+00  0.00000000000E+00  0.20562585980E+03  0.20562585980E+03  0.00000000000E+00 0.  1.
          1   -1    0    0  501    0  0.00000000000E+00 -0.00000000000E+00 -0.21620049234E+04  0.21620049234E+04  0.00000000000E+00 0. -1.
         23    2    1    2    0    0  0.19973635116E+03  0.12105077570E+03 -0.96250527474E+03  0.99478624961E+03  0.92926735855E+02 0.  0.
        254    2    1    2    0    0 -0.19973635116E+03 -0.12105077570E+03 -0.99387378882E+03  0.13728445336E+04  0.91780668168E+03 0.  0.
        -24    2    4    4    0    0  0.53702460091E+02 -0.42940662885E+03 -0.20498504023E+03  0.48515864245E+03  0.78013040611E+02 0.  0.
         24    2    4    4    0    0 -0.25343881125E+03  0.30835585315E+03 -0.78888874859E+03  0.88768589111E+03  0.79537540835E+02 0.  0.
         11    1    3    3    0    0  0.43571849775E+02 -0.55871514033E+01 -0.10116037391E+03  0.11028664290E+03  0.00000000000E+00 0.  1.
        -11    1    3    3    0    0  0.15616450139E+03  0.12663792710E+03 -0.86134490084E+03  0.88449960671E+03  0.00000000000E+00 0. -1.
          4    1    6    6  502    0 -0.21290308156E+03  0.23241664290E+03 -0.55209504409E+03  0.63573119771E+03  0.00000000000E+00 0. -1.
          1    1    5    5  503    0  0.63553619542E+02 -0.19476938803E+03 -0.96900535529E+02  0.22663603168E+03  0.00000000000E+00 0. -1.
         -2    1    5    5    0  503 -0.98511594501E+01 -0.23463724082E+03 -0.10808450470E+03  0.25852261077E+03  0.00000000000E+00 0.  1.
         -3    1    6    6    0  502 -0.40535729699E+02  0.75939210251E+02 -0.23679370450E+03  0.25195469340E+03  0.00000000000E+00 0.  1.
<mgrwt>
<rscale>  0 0.13335128E+04</rscale>
<asrwt>0</asrwt>
<pdfrwt beam="1">  1        1 0.33261616E+00 0.13335128E+04</pdfrwt>
<pdfrwt beam="2">  1       -1 0.31634746E-01 0.13335128E+04</pdfrwt>
<totfact> 0.21100015E+01</totfact>
</mgrwt>
</event>
<event>
12    1  0.1504874E-007  0.1274743E+04  0.7818608E-02  0.9049838E-01
         -1   -1    0    0    0  501 -0.00000000000E+00  0.00000000000E+00  0.25334837568E+03  0.25334837568E+03  0.00000000000E+00 0.  1.
          1   -1    0    0  501    0  0.00000000000E+00 -0.00000000000E+00 -0.16034932397E+04  0.16034932397E+04  0.00000000000E+00 0. -1.
         23    2    1    2    0    0 -0.27587381880E+03  0.11711706215E+03 -0.22283781404E+03  0.38543364903E+03  0.95287125539E+02 0.  0.
        254    2    1    2    0    0  0.27587381880E+03 -0.11711706215E+03 -0.11273070500E+04  0.14714079664E+04  0.89688207050E+03 0.  0.
        -24    2    4    4    0    0  0.27470024271E+03 -0.44788376694E+03 -0.94713548917E+03  0.10859801760E+04  0.78912709722E+02 0.  0.
         24    2    4    4    0    0  0.11735760892E+01  0.33076670479E+03 -0.18017156085E+03  0.38542779040E+03  0.81760626231E+02 0.  0.
         13    1    3    3    0    0 -0.16916479141E+03  0.80385510702E+02 -0.19248639853E+03  0.26856948934E+03  0.00000000000E+00 0. -1.
        -13    1    3    3    0    0 -0.10670902738E+03  0.36731551448E+02 -0.30351415514E+02  0.11686415969E+03  0.00000000000E+00 0.  1.
          4    1    6    6  502    0  0.10311525697E+01  0.32210264854E+03 -0.15240468596E+03  0.35634024159E+03  0.00000000000E+00 0. -1.
          3    1    5    5  503    0  0.22947133555E+03 -0.30662999849E+03 -0.68140214821E+03  0.78165717383E+03  0.00000000000E+00 0. -1.
         -4    1    5    5    0  503  0.45228907159E+02 -0.14125376844E+03 -0.26573334096E+03  0.30432300215E+03  0.00000000000E+00 0.  1.
         -3    1    6    6    0  502  0.14242351956E+00  0.86640562422E+01 -0.27766874884E+02  0.29087548812E+02  0.00000000000E+00 0.  1.
<mgrwt>
<rscale>  0 0.12747430E+04</rscale>
<asrwt>0</asrwt>
<pdfrwt beam="1">  1        1 0.24669127E+00 0.12747430E+04</pdfrwt>
<pdfrwt beam="2">  1       -1 0.38976672E-01 0.12747430E+04</pdfrwt>
<totfact> 0.34887028E+01</totfact>
</mgrwt>
</event>
<event>
12    1  0.1504874E-007  0.1060362E+04  0.7818608E-02  0.9244710E-01
         -3   -1    0    0    0  501 -0.00000000000E+00  0.00000000000E+00  0.56595774105E+03  0.56595774105E+03  0.00000000000E+00 0.  1.
          3   -1    0    0  501    0  0.00000000000E+00 -0.00000000000E+00 -0.49666629447E+03  0.49666629447E+03  0.00000000000E+00 0. -1.
         23    2    1    2    0    0  0.69088677957E+02 -0.42420625862E+02  0.13168670731E+03  0.18231598557E+03  0.96565909070E+02 0.  0.
        254    2    1    2    0    0 -0.69088677957E+02  0.42420625862E+02 -0.62395260723E+02  0.88030804994E+03  0.87434337609E+03 0.  0.
        -24    2    4    4    0    0 -0.14494981763E+03  0.34090101913E+03 -0.29974630942E+03  0.48335834975E+03  0.81015367608E+02 0.  0.
         24    2    4    4    0    0  0.75861139676E+02 -0.29848039327E+03  0.23735104870E+03  0.39694970019E+03  0.79925505827E+02 0.  0.
         11    1    3    3    0    0 -0.17823268865E+02  0.10493463073E+02  0.41412683196E+02  0.46290301465E+02  0.00000000000E+00 0. -1.
        -11    1    3    3    0    0  0.86911946822E+02 -0.52914088936E+02  0.90274024110E+02  0.13602568411E+03  0.00000000000E+00 0.  1.
          4    1    6    6  502    0  0.56250952428E+02 -0.27424435575E+03  0.23530201510E+03  0.36570640495E+03  0.00000000000E+00 0. -1.
          3    1    5    5  503    0 -0.87622542885E+02  0.24288310652E+03 -0.16189815640E+03  0.30476372241E+03  0.00000000000E+00 0. -1.
         -4    1    5    5    0  503 -0.57327274748E+02  0.98017912611E+02 -0.13784815302E+03  0.17859462734E+03  0.00000000000E+00 0.  1.
         -3    1    6    6    0  502  0.19610187248E+02 -0.24236037521E+02  0.20490335921E+01  0.31243295237E+02  0.00000000000E+00 0.  1.
<mgrwt>
<rscale>  0 0.10603625E+04</rscale>
<asrwt>0</asrwt>
<pdfrwt beam="1">  1        3 0.76410199E-01 0.10603625E+04</pdfrwt>
<pdfrwt beam="2">  1       -3 0.87070421E-01 0.10603625E+04</pdfrwt>
<totfact> 0.50512854E+00</totfact>
</mgrwt>
</event>
<event>
12    1  0.1504874E-007  0.1794481E+04  0.7818608E-02  0.8709240E-01
         -1   -1    0    0    0  501 -0.00000000000E+00  0.00000000000E+00  0.10204379421E+04  0.10204379421E+04  0.00000000000E+00 0.  1.
          1   -1    0    0  501    0  0.00000000000E+00 -0.00000000000E+00 -0.78891706686E+03  0.78891706686E+03  0.00000000000E+00 0. -1.
         23    2    1    2    0    0  0.48929520575E+03 -0.38385259386E+03  0.31765401765E+03  0.70282456015E+03  0.79408281892E+02 0.  0.
        254    2    1    2    0    0 -0.48929520575E+03  0.38385259386E+03 -0.86133142398E+02  0.11065304488E+04  0.91117402497E+03 0.  0.
        -24    2    4    4    0    0 -0.54926190372E+03 -0.10177625042E+03 -0.19910394742E+03  0.59842369811E+03  0.80134240868E+02 0.  0.
         24    2    4    4    0    0  0.59966697963E+02  0.48562884428E+03  0.11297080502E+03  0.50810675072E+03  0.77321976725E+02 0.  0.
         13    1    3    3    0    0  0.48909908386E+03 -0.37790011921E+03  0.32048460994E+03  0.69623042102E+03  0.00000000000E+00 0.  1.
        -13    1    3    3    0    0  0.19612189223E+00 -0.59524746460E+01 -0.28305922918E+01  0.65941391349E+01  0.00000000000E+00 0. -1.
          2    1    6    6  502    0 -0.12485196382E+02  0.61517907040E+02  0.31400265906E+02  0.70187674946E+02  0.00000000000E+00 0. -1.
          1    1    5    5  503    0 -0.42708425880E+02  0.10793743456E+02 -0.47357669711E+01  0.44305101599E+02  0.00000000000E+00 0. -1.
         -2    1    5    5    0  503 -0.50655347784E+03 -0.11256999387E+03 -0.19436818045E+03  0.55411859651E+03  0.00000000000E+00 0.  1.
         -1    1    6    6    0  502  0.72451894346E+02  0.42411093724E+03  0.81570539114E+02  0.43791907578E+03  0.00000000000E+00 0.  1.
<mgrwt>
<rscale>  0 0.17944814E+04</rscale>
<asrwt>0</asrwt>
<pdfrwt beam="1">  1        1 0.12137186E+00 0.17944814E+04</pdfrwt>
<pdfrwt beam="2">  1       -1 0.15699045E+00 0.17944814E+04</pdfrwt>
<totfact> 0.65763391E+00</totfact>
</mgrwt>
</event>
<event>
12    1  0.1504874E-007  0.1521724E+04  0.7818608E-02  0.8870134E-01
         -2   -1    0    0    0  501 -0.00000000000E+00  0.00000000000E+00  0.51336809065E+03  0.51336809065E+03  0.00000000000E+00 0.  1.
          2   -1    0    0  501    0  0.00000000000E+00 -0.00000000000E+00 -0.11276716527E+04  0.11276716527E+04  0.00000000000E+00 0. -1.
         23    2    1    2    0    0  0.66554772285E+02  0.11671771327E+03  0.30175063978E+03  0.34280392893E+03  0.91697997664E+02 0.  0.
        254    2    1    2    0    0 -0.66554772285E+02 -0.11671771327E+03 -0.91605420182E+03  0.12982358144E+04  0.91005954027E+03 0.  0.
        -24    2    4    4    0    0 -0.73541418747E+02 -0.37709356572E+03 -0.94453790489E+03  0.10228766958E+04  0.80727836129E+02 0.  0.
         24    2    4    4    0    0  0.69866464621E+01  0.26037585246E+03  0.28483703067E+02  0.27535911858E+03  0.84657693520E+02 0.  0.
         13    1    3    3    0    0  0.25140299762E+02  0.93764784733E+02  0.11673442143E+03  0.15182488161E+03  0.00000000000E+00 0.  1.
        -13    1    3    3    0    0  0.41414472523E+02  0.22952928533E+02  0.18501621835E+03  0.19097904732E+03  0.00000000000E+00 0. -1.
          4    1    6    6  502    0 -0.19960922872E+02  0.90637853364E+02  0.44163258579E+02  0.10278157575E+03  0.00000000000E+00 0. -1.
          3    1    5    5  503    0 -0.44884620401E+02 -0.75255639796E+02 -0.25462991347E+03  0.26928504099E+03  0.00000000000E+00 0. -1.
         -4    1    5    5    0  503 -0.28656798346E+02 -0.30183792592E+03 -0.68990799142E+03  0.75359165484E+03  0.00000000000E+00 0.  1.
         -3    1    6    6    0  502  0.26947569335E+02  0.16973799909E+03 -0.15679555512E+02  0.17257754283E+03  0.00000000000E+00 0.  1.
<mgrwt>
<rscale>  0 0.15217236E+04</rscale>
<asrwt>0</asrwt>
<pdfrwt beam="1">  1        2 0.17348794E+00 0.15217236E+04</pdfrwt>
<pdfrwt beam="2">  1       -2 0.78979707E-01 0.15217236E+04</pdfrwt>
<totfact> 0.28755880E+01</totfact>
</mgrwt>
</event>
<event>
12    1  0.1504874E-007  0.2680138E+04  0.7818608E-02  0.8341478E-01
          2   -1    0    0  501    0  0.00000000000E+00  0.00000000000E+00  0.14349328790E+04  0.14349328790E+04  0.00000000000E+00 0. -1.
         -2   -1    0    0    0  501 -0.00000000000E+00 -0.00000000000E+00 -0.12514762537E+04  0.12514762537E+04  0.00000000000E+00 0.  1.
         23    2    1    2    0    0  0.53935689232E+02 -0.32989217565E+03  0.12249441075E+04  0.12728797755E+04  0.89425668847E+02 0.  0.
        254    2    1    2    0    0 -0.53935689232E+02  0.32989217565E+03 -0.10414874823E+04  0.14135293572E+04  0.89533857384E+03 0.  0.
        -24    2    4    4    0    0  0.25096840718E+03  0.50680698154E+03 -0.48265072606E+03  0.74801517145E+03  0.82076278079E+02 0.  0.
         24    2    4    4    0    0 -0.30490409641E+03 -0.17691480589E+03 -0.55883675622E+03  0.66551418575E+03  0.79657107507E+02 0.  0.
         13    1    3    3    0    0  0.29604803168E+02 -0.21837705972E+02  0.14513360360E+03  0.14972338717E+03  0.00000000000E+00 0.  1.
        -13    1    3    3    0    0  0.24330886063E+02 -0.30805446968E+03  0.10798105039E+04  0.11231563883E+04  0.00000000000E+00 0. -1.
          2    1    6    6  502    0 -0.19625319311E+02 -0.90490838430E+01 -0.83344538134E+01  0.23162517066E+02  0.00000000000E+00 0. -1.
          3    1    5    5  503    0  0.66755736220E+02  0.73104528674E+02 -0.10337944782E+03  0.14313598661E+03  0.00000000000E+00 0. -1.
         -4    1    5    5    0  503  0.18421267096E+03  0.43370245286E+03 -0.37927127824E+03  0.60487918484E+03  0.00000000000E+00 0.  1.
         -1    1    6    6    0  502 -0.28527877710E+03 -0.16786572205E+03 -0.55050230241E+03  0.64235166868E+03  0.00000000000E+00 0.  1.
<mgrwt>
<rscale>  0 0.26801376E+04</rscale>
<asrwt>0</asrwt>
<pdfrwt beam="1">  1        2 0.22075890E+00 0.26801376E+04</pdfrwt>
<pdfrwt beam="2">  1       -2 0.19253481E+00 0.26801376E+04</pdfrwt>
<totfact> 0.18103990E+00</totfact>
</mgrwt>
</event>
<event>
12    1  0.1504874E-007  0.3562393E+04  0.7818608E-02  0.8099161E-01
          1   -1    0    0  501    0  0.00000000000E+00  0.00000000000E+00  0.22337994765E+04  0.22337994765E+04  0.00000000000E+00 0. -1.
         -1   -1    0    0    0  501 -0.00000000000E+00 -0.00000000000E+00 -0.14202977310E+04  0.14202977310E+04  0.00000000000E+00 0.  1.
         23    2    1    2    0    0 -0.14809376616E+04 -0.66975147775E+03  0.76562488399E+03  0.17989585799E+04  0.91252998148E+02 0.  0.
        254    2    1    2    0    0  0.14809376616E+04  0.66975147775E+03  0.47876861540E+02  0.18551386276E+04  0.89303064572E+03 0.  0.
        -24    2    4    4    0    0  0.11661640068E+04  0.86216539938E+03 -0.85153450536E+02  0.14548501846E+04  0.77912020487E+02 0.  0.
         24    2    4    4    0    0  0.31477365480E+03 -0.19241392164E+03  0.13303031208E+03  0.40028844295E+03  0.80176072703E+02 0.  0.
         11    1    3    3    0    0 -0.12864621715E+04 -0.60795734433E+03  0.64874713356E+03  0.15637998256E+04  0.00000000000E+00 0.  1.
        -11    1    3    3    0    0 -0.19447549013E+03 -0.61794133415E+02  0.11687775043E+03  0.23515875432E+03  0.00000000000E+00 0. -1.
          4    1    6    6  502    0  0.29537721299E+03 -0.15353499644E+03  0.12754582294E+03  0.35649492288E+03  0.00000000000E+00 0. -1.
          1    1    5    5  503    0  0.92017321182E+03  0.64215025930E+03 -0.54636912565E+02  0.11234148332E+04  0.00000000000E+00 0. -1.
         -2    1    5    5    0  503  0.24599079500E+03  0.22001514008E+03 -0.30516537971E+02  0.33143535144E+03  0.00000000000E+00 0.  1.
         -3    1    6    6    0  502  0.19396441803E+02 -0.38878925199E+02  0.54844891322E+01  0.43793520072E+02  0.00000000000E+00 0.  1.
<mgrwt>
<rscale>  0 0.35623926E+04</rscale>
<asrwt>0</asrwt>
<pdfrwt beam="1">  1        1 0.34366146E+00 0.35623926E+04</pdfrwt>
<pdfrwt beam="2">  1       -1 0.21850734E+00 0.35623926E+04</pdfrwt>
<totfact> 0.18882340E-01</totfact>
</mgrwt>
</event>
<event>
12    1  0.1504874E-007  0.3548130E+04  0.7818608E-02  0.8102477E-01
         -2   -1    0    0    0  501 -0.00000000000E+00  0.00000000000E+00  0.92638954357E+03  0.92638954357E+03  0.00000000000E+00 0.  1.
          2   -1    0    0  501    0  0.00000000000E+00 -0.00000000000E+00 -0.33973909594E+04  0.33973909594E+04  0.00000000000E+00 0. -1.
         23    2    1    2    0    0  0.11192688197E+04 -0.39528816698E+03 -0.25357007943E+04  0.28017046183E+04  0.10370546979E+03 0.  0.
        254    2    1    2    0    0 -0.11192688197E+04  0.39528816698E+03  0.64699378427E+02  0.15220758847E+04  0.95053330470E+03 0.  0.
        -24    2    4    4    0    0 -0.82935896784E+01  0.42236835472E+02 -0.28785036088E+03  0.30174832017E+03  0.79633438741E+02 0.  0.
         24    2    4    4    0    0 -0.11109752301E+04  0.35305133151E+03  0.35254973931E+03  0.12203275645E+04  0.77439276265E+02 0.  0.
         13    1    3    3    0    0  0.56879956040E+03 -0.22286251002E+03 -0.14156795294E+04  0.15418654832E+04  0.00000000000E+00 0. -1.
        -13    1    3    3    0    0  0.55046925933E+03 -0.17242565695E+03 -0.11200212649E+04  0.12598391352E+04  0.00000000000E+00 0.  1.
          4    1    6    6  502    0 -0.82002100512E+02  0.20498512708E+02  0.58320653106E+01  0.84726303456E+02  0.00000000000E+00 0. -1.
          3    1    5    5  503    0 -0.25661724107E+01  0.29087469603E+02 -0.24809713957E+02  0.38316941884E+02  0.00000000000E+00 0. -1.
         -4    1    5    5    0  503 -0.57274172677E+01  0.13149365869E+02 -0.26304064693E+03  0.26343137829E+03  0.00000000000E+00 0.  1.
         -3    1    6    6    0  502 -0.10289731295E+04  0.33255281880E+03  0.34671767400E+03  0.11356012610E+04  0.00000000000E+00 0.  1.
<mgrwt>
<rscale>  0 0.35481305E+04</rscale>
<asrwt>0</asrwt>
<pdfrwt beam="1">  1        2 0.52267552E+00 0.35481305E+04</pdfrwt>
<pdfrwt beam="2">  1       -2 0.14252147E+00 0.35481305E+04</pdfrwt>
<totfact> 0.26824023E-01</totfact>
</mgrwt>
</event>
<event>
12    1  0.1504874E-007  0.3483210E+04  0.7818608E-02  0.8117780E-01
          2   -1    0    0  501    0  0.00000000000E+00  0.00000000000E+00  0.25942968253E+04  0.25942968253E+04  0.00000000000E+00 0.  1.
         -2   -1    0    0    0  501 -0.00000000000E+00 -0.00000000000E+00 -0.11691756874E+04  0.11691756874E+04  0.00000000000E+00 0. -1.
         23    2    1    2    0    0  0.17449718690E+03 -0.71369970995E+03 -0.89833328257E+03  0.11641036052E+04  0.91202921712E+02 0.  0.
        254    2    1    2    0    0 -0.17449718690E+03  0.71369970995E+03  0.23234544204E+04  0.25993689075E+04  0.90468874717E+03 0.  0.
        -24    2    4    4    0    0 -0.33876934471E+03  0.12253761463E+02  0.33699696576E+03  0.48482774102E+03  0.81093525901E+02 0.  0.
         24    2    4    4    0    0  0.16427215781E+03  0.70144594848E+03  0.19864574547E+04  0.21145411665E+04  0.79116149164E+02 0.  0.
         13    1    3    3    0    0 -0.22750538012E+01 -0.28261737156E+02 -0.14812066986E+02  0.31989044769E+02  0.00000000000E+00 0.  1.
        -13    1    3    3    0    0  0.17677224070E+03 -0.68543797279E+03 -0.88352121558E+03  0.11321145605E+04  0.00000000000E+00 0. -1.
          2    1    6    6  502    0  0.10218116228E+03  0.35984567449E+03  0.92637310324E+03  0.99904805979E+03  0.00000000000E+00 0. -1.
          1    1    5    5  503    0 -0.32710998561E+03 -0.20807688455E+01  0.33108546134E+03  0.46542760446E+03  0.00000000000E+00 0. -1.
         -2    1    5    5    0  503 -0.11659359100E+02  0.14334530309E+02  0.59115044176E+01  0.19400136553E+02  0.00000000000E+00 0.  1.
         -1    1    6    6    0  502  0.62090995530E+02  0.34160027399E+03  0.10600843514E+04  0.11154931067E+04  0.00000000000E+00 0.  1.
<mgrwt>
<rscale>  0 0.34832105E+04</rscale>
<asrwt>0</asrwt>
<pdfrwt beam="1">  1        2 0.39912259E+00 0.34832105E+04</pdfrwt>
<pdfrwt beam="2">  1       -2 0.17987318E+00 0.34832105E+04</pdfrwt>
<totfact> 0.45840967E-01</totfact>
</mgrwt>
</event>
<event>
12    1  0.1504874E-007  0.1465112E+04  0.7818608E-02  0.8907990E-01
          1   -1    0    0  501    0  0.00000000000E+00  0.00000000000E+00  0.29947680773E+03  0.29947680773E+03  0.00000000000E+00 0. -1.
         -1   -1    0    0    0  501 -0.00000000000E+00 -0.00000000000E+00 -0.17919192694E+04  0.17919192694E+04  0.00000000000E+00 0.  1.
         23    2    1    2    0    0 -0.40806666611E+03 -0.10801400062E+03 -0.34339964547E+03  0.55243668083E+03  0.95276132874E+02 0.  0.
        254    2    1    2    0    0  0.40806666611E+03  0.10801400062E+03 -0.11490428162E+04  0.15389593963E+04  0.93269030320E+03 0.  0.
        -24    2    4    4    0    0 -0.11610171557E+03 -0.72349340907E+02  0.88281661411E+02  0.18089255381E+03  0.78831648435E+02 0.  0.
         24    2    4    4    0    0  0.52416838168E+03  0.18036334153E+03 -0.12373244776E+04  0.13580668425E+04  0.78040107860E+02 0.  0.
         13    1    3    3    0    0 -0.24260874569E+03 -0.29783832529E+02 -0.23838561562E+03  0.34142902909E+03  0.00000000000E+00 0.  1.
        -13    1    3    3    0    0 -0.16545792042E+03 -0.78230168094E+02 -0.10501402984E+03  0.21100765174E+03  0.00000000000E+00 0. -1.
          4    1    6    6  502    0  0.26259887959E+02  0.25580817435E+02 -0.57941751084E+02  0.68565344417E+02  0.00000000000E+00 0. -1.
          3    1    5    5  503    0 -0.10167970685E+02 -0.39150964822E+02  0.23713849309E+01  0.40519244080E+02  0.00000000000E+00 0. -1.
         -4    1    5    5    0  503 -0.10593374488E+03 -0.33198376085E+02  0.85910276480E+02  0.14037330973E+03  0.00000000000E+00 0.  1.
         -3    1    6    6    0  502  0.49790849372E+03  0.15478252410E+03 -0.11793827266E+04  0.12895014981E+04  0.00000000000E+00 0.  1.
<mgrwt>
<rscale>  0 0.14651120E+04</rscale>
<asrwt>0</asrwt>
<pdfrwt beam="1">  1        1 0.46073355E-01 0.14651120E+04</pdfrwt>
<pdfrwt beam="2">  1       -1 0.27567989E+00 0.14651120E+04</pdfrwt>
<totfact> 0.40533736E+00</totfact>
</mgrwt>
</event>
<event>
12    1  0.1504874E-007  0.2456356E+04  0.7818608E-02  0.8418701E-01
          2   -1    0    0  501    0  0.00000000000E+00  0.00000000000E+00  0.19922281903E+04  0.19922281903E+04  0.00000000000E+00 0. -1.
         -2   -1    0    0    0  501 -0.00000000000E+00 -0.00000000000E+00 -0.75715293439E+03  0.75715293439E+03  0.00000000000E+00 0.  1.
         23    2    1    2    0    0  0.42309334679E+03 -0.89336439340E+02 -0.53818359572E+03  0.69644892927E+03  0.91709044715E+02 0.  0.
        254    2    1    2    0    0 -0.42309334679E+03  0.89336439340E+02  0.17732588516E+04  0.20529321954E+04  0.93973116611E+03 0.  0.
        -24    2    4    4    0    0  0.87464877957E+02 -0.31414355874E+03  0.89898914175E+03  0.96007659043E+03  0.85025303010E+02 0.  0.
         24    2    4    4    0    0 -0.51055822475E+03  0.40347999808E+03  0.87426970985E+03  0.10928556049E+04  0.80746752192E+02 0.  0.
         13    1    3    3    0    0  0.32876562335E+03 -0.10753328376E+03 -0.41610545922E+03  0.54110442191E+03  0.00000000000E+00 0.  1.
        -13    1    3    3    0    0  0.94327723442E+02  0.18196844417E+02 -0.12207813650E+03  0.15534450737E+03  0.00000000000E+00 0. -1.
          2    1    6    6  502    0 -0.43354868040E+02  0.64480710641E+02  0.12199142492E+03  0.14463510771E+03  0.00000000000E+00 0. -1.
          1    1    5    5  503    0  0.75608282297E+01 -0.12671002286E+02  0.12108003929E+03  0.12197580226E+03  0.00000000000E+00 0. -1.
         -2    1    5    5    0  503  0.79904049727E+02 -0.30147255645E+03  0.77790910246E+03  0.83810078817E+03  0.00000000000E+00 0.  1.
         -1    1    6    6    0  502 -0.46720335671E+03  0.33899928744E+03  0.75227828493E+03  0.94822049723E+03  0.00000000000E+00 0.  1.
<mgrwt>
<rscale>  0 0.24563562E+04</rscale>
<asrwt>0</asrwt>
<pdfrwt beam="1">  1        2 0.30649664E+00 0.24563562E+04</pdfrwt>
<pdfrwt beam="2">  1       -2 0.11648507E+00 0.24563562E+04</pdfrwt>
<totfact> 0.34514382E+00</totfact>
</mgrwt>
</event>
<event>
12    1  0.1504874E-007  0.1331683E+04  0.7818608E-02  0.9004811E-01
         -2   -1    0    0    0  501 -0.00000000000E+00  0.00000000000E+00  0.31082731801E+03  0.31082731801E+03  0.00000000000E+00 0.  1.
          2   -1    0    0  501    0  0.00000000000E+00 -0.00000000000E+00 -0.14263388808E+04  0.14263388808E+04  0.00000000000E+00 0. -1.
         23    2    1    2    0    0  0.32229699093E+03 -0.10525318642E+03 -0.44484702298E+03  0.56699962279E+03  0.92984486763E+02 0.  0.
        254    2    1    2    0    0 -0.32229699093E+03  0.10525318642E+03 -0.67066453977E+03  0.11701665760E+04  0.89696449597E+03 0.  0.
        -24    2    4    4    0    0 -0.55061123631E+03  0.28743022515E+03 -0.30651487192E+03  0.69724413964E+03  0.80057202528E+02 0.  0.
         24    2    4    4    0    0  0.22831424539E+03 -0.18217703873E+03 -0.36414966785E+03  0.47292243634E+03  0.75728344150E+02 0.  0.
         13    1    3    3    0    0  0.20816038102E+03 -0.10117641657E+03 -0.34415552360E+03  0.41474140850E+03  0.00000000000E+00 0. -1.
        -13    1    3    3    0    0  0.11413660990E+03 -0.40767698553E+01 -0.10069149938E+03  0.15225821429E+03  0.00000000000E+00 0.  1.
          4    1    6    6  502    0  0.10434117352E+03 -0.43707188132E+02 -0.16957078638E+03  0.20384221932E+03  0.00000000000E+00 0. -1.
          1    1    5    5  503    0 -0.49157604972E+03  0.22880094464E+03 -0.27771943181E+03  0.60920026899E+03  0.00000000000E+00 0. -1.
         -2    1    5    5    0  503 -0.59035186589E+02  0.58629280515E+02 -0.28795440107E+02  0.88043870657E+02  0.00000000000E+00 0.  1.
         -3    1    6    6    0  502  0.12397307187E+03 -0.13846985060E+03 -0.19457888148E+03  0.26908021701E+03  0.00000000000E+00 0.  1.
<mgrwt>
<rscale>  0 0.13316833E+04</rscale>
<asrwt>0</asrwt>
<pdfrwt beam="1">  1        2 0.21943675E+00 0.13316833E+04</pdfrwt>
<pdfrwt beam="2">  1       -2 0.47819587E-01 0.13316833E+04</pdfrwt>
<totfact> 0.56626642E+01</totfact>
</mgrwt>
</event>
<event>
12    1  0.1504874E-007  0.1810026E+04  0.7818608E-02  0.8700986E-01
         -2   -1    0    0    0  501 -0.00000000000E+00  0.00000000000E+00  0.28947730104E+03  0.28947730104E+03  0.00000000000E+00 0.  1.
          2   -1    0    0  501    0  0.00000000000E+00 -0.00000000000E+00 -0.28294052884E+04  0.28294052884E+04  0.00000000000E+00 0. -1.
         23    2    1    2    0    0 -0.20078527131E+03  0.63240769326E+03 -0.12365146850E+04  0.14064944437E+04  0.94888556591E+02 0.  0.
        254    2    1    2    0    0  0.20078527131E+03 -0.63240769326E+03 -0.13034133023E+04  0.17123881457E+04  0.89057998477E+03 0.  0.
        -24    2    4    4    0    0 -0.16073465622E+03  0.95044676877E+02 -0.38160668229E+02  0.20673373316E+03  0.80084202657E+02 0.  0.
         24    2    4    4    0    0  0.36151992753E+03 -0.72745237014E+03 -0.12652526341E+04  0.15056544125E+04  0.79040326327E+02 0.  0.
         13    1    3    3    0    0 -0.15595053208E+03  0.41455507070E+03 -0.73974667506E+03  0.86220741030E+03  0.00000000000E+00 0. -1.
        -13    1    3    3    0    0 -0.44834739229E+02  0.21785262256E+03 -0.49676800997E+03  0.54428703340E+03  0.00000000000E+00 0.  1.
          4    1    6    6  502    0  0.33367798636E+03 -0.70583582139E+03 -0.12168809547E+04  0.14458023596E+04  0.00000000000E+00 0. -1.
          1    1    5    5  503    0 -0.11880992855E+03  0.60915941938E+02  0.10594696940E+02  0.13393580070E+03  0.00000000000E+00 0. -1.
         -2    1    5    5    0  503 -0.41924727662E+02  0.34128734939E+02 -0.48755365169E+02  0.72797932463E+02  0.00000000000E+00 0.  1.
         -3    1    6    6    0  502  0.27841941170E+02 -0.21616548746E+02 -0.48371679404E+02  0.59852052898E+02  0.00000000000E+00 0.  1.
<mgrwt>
<rscale>  0 0.18100261E+04</rscale>
<asrwt>0</asrwt>
<pdfrwt beam="1">  1        2 0.43529313E+00 0.18100261E+04</pdfrwt>
<pdfrwt beam="2">  1       -2 0.44534969E-01 0.18100261E+04</pdfrwt>
<totfact> 0.10037132E+01</totfact>
</mgrwt>
</event>
<event>
12    1  0.1504874E-007  0.1486784E+04  0.7818608E-02  0.8893289E-01
         -2   -1    0    0    0  501 -0.00000000000E+00  0.00000000000E+00  0.20401998311E+03  0.20401998311E+03  0.00000000000E+00 0.  1.
          2   -1    0    0  501    0  0.00000000000E+00 -0.00000000000E+00 -0.27087139568E+04  0.27087139568E+04  0.00000000000E+00 0. -1.
         23    2    1    2    0    0  0.48656411579E+01  0.45690698188E+03 -0.61955561576E+03  0.77521258757E+03  0.91201591833E+02 0.  0.
        254    2    1    2    0    0 -0.48656411579E+01 -0.45690698188E+03 -0.18851383579E+04  0.21375213523E+04  0.89803298303E+03 0.  0.
        -24    2    4    4    0    0 -0.14460922317E+03 -0.61241080554E+03 -0.75758422404E+03  0.98796314253E+03  0.78603386224E+02 0.  0.
         24    2    4    4    0    0  0.13974358202E+03  0.15550382366E+03 -0.11275541339E+04  0.11495582098E+04  0.79975277340E+02 0.  0.
         11    1    3    3    0    0 -0.20884086258E+02  0.28809366660E+02 -0.65760740332E+02  0.74770312526E+02  0.00000000000E+00 0. -1.
        -11    1    3    3    0    0  0.25749727416E+02  0.42809761522E+03 -0.55379487543E+03  0.70044227504E+03  0.00000000000E+00 0.  1.
          2    1    6    6  502    0  0.11719696188E+03  0.79891569417E+02 -0.81162487936E+03  0.82392520021E+03  0.00000000000E+00 0. -1.
          3    1    5    5  503    0 -0.77636205584E+02 -0.47262217226E+03 -0.58243533038E+03  0.75407560112E+03  0.00000000000E+00 0. -1.
         -4    1    5    5    0  503 -0.66973017589E+02 -0.13978863328E+03 -0.17514889366E+03  0.23388754141E+03  0.00000000000E+00 0.  1.
         -1    1    6    6    0  502  0.22546620135E+02  0.75612254245E+02 -0.31592925451E+03  0.32563300958E+03  0.00000000000E+00 0.  1.
<mgrwt>
<rscale>  0 0.14867841E+04</rscale>
<asrwt>0</asrwt>
<pdfrwt beam="1">  1        2 0.41672518E+00 0.14867841E+04</pdfrwt>
<pdfrwt beam="2">  1       -2 0.31387693E-01 0.14867841E+04</pdfrwt>
<totfact> 0.24017251E+01</totfact>
</mgrwt>
</event>
<event>
12    1  0.1504874E-007  0.1802327E+04  0.7818608E-02  0.8705063E-01
         -2   -1    0    0    0  501 -0.00000000000E+00  0.00000000000E+00  0.19520089135E+03  0.19520089135E+03  0.00000000000E+00 0.  1.
          2   -1    0    0  501    0  0.00000000000E+00 -0.00000000000E+00 -0.41603072050E+04  0.41603072050E+04  0.00000000000E+00 0. -1.
         23    2    1    2    0    0  0.27638753973E+03  0.16618081927E+03 -0.62221521651E+02  0.33772701484E+03  0.78624945042E+02 0.  0.
        254    2    1    2    0    0 -0.27638753973E+03 -0.16618081927E+03 -0.39028847920E+04  0.40177810815E+04  0.89780230705E+03 0.  0.
        -24    2    4    4    0    0 -0.40774987339E+03 -0.28925741116E+03 -0.36991201345E+04  0.37337190885E+04  0.85080275159E+02 0.  0.
         24    2    4    4    0    0  0.13136233365E+03  0.12307659189E+03 -0.20376465745E+03  0.28406199297E+03  0.82263418646E+02 0.  0.
         11    1    3    3    0    0  0.17314865891E+03  0.12769949548E+03 -0.89117307301E+01  0.21533006797E+03  0.00000000000E+00 0.  1.
        -11    1    3    3    0    0  0.10323888082E+03  0.38481323786E+02 -0.53309790921E+02  0.12239694686E+03  0.00000000000E+00 0. -1.
          2    1    6    6  502    0  0.81093751112E+02  0.10244011305E+03 -0.92020378940E+02  0.15980589280E+03  0.00000000000E+00 0. -1.
          1    1    5    5  503    0 -0.11801310980E+03 -0.85442625830E+02 -0.13850262234E+04  0.13926683653E+04  0.00000000000E+00 0. -1.
         -2    1    5    5    0  503 -0.28973676358E+03 -0.20381478533E+03 -0.23140939112E+04  0.23410507232E+04  0.00000000000E+00 0.  1.
         -1    1    6    6    0  502  0.50268582542E+02  0.20636478836E+02 -0.11174427851E+03  0.12425610017E+03  0.00000000000E+00 0.  1.
<mgrwt>
<rscale>  0 0.18023270E+04</rscale>
<asrwt>0</asrwt>
<pdfrwt beam="1">  1        2 0.64004724E+00 0.18023270E+04</pdfrwt>
<pdfrwt beam="2">  1       -2 0.30030907E-01 0.18023270E+04</pdfrwt>
<totfact> 0.24721614E+00</totfact>
</mgrwt>
</event>
<event>
12    1  0.1504874E-007  0.1817949E+04  0.7818608E-02  0.8696812E-01
         -1   -1    0    0    0  501 -0.00000000000E+00  0.00000000000E+00  0.21585290530E+04  0.21585290530E+04  0.00000000000E+00 0.  1.
          1   -1    0    0  501    0  0.00000000000E+00 -0.00000000000E+00 -0.38277670493E+03  0.38277670493E+03  0.00000000000E+00 0. -1.
         23    2    1    2    0    0 -0.43972688105E+02  0.66194512360E+03  0.88427984729E+03  0.11091522348E+04  0.90348700716E+02 0.  0.
        254    2    1    2    0    0  0.43972688105E+02 -0.66194512360E+03  0.89147250074E+03  0.14321535231E+04  0.90345755302E+03 0.  0.
        -24    2    4    4    0    0 -0.70403306957E+02 -0.65747108858E+03  0.15647136421E+03  0.68412079348E+03  0.79455108794E+02 0.  0.
         24    2    4    4    0    0  0.11437599506E+03 -0.44740350283E+01  0.73500113653E+03  0.74803272959E+03  0.78894921291E+02 0.  0.
         11    1    3    3    0    0 -0.70769945554E+02  0.47282306008E+03  0.61370917239E+03  0.77795178489E+03  0.00000000000E+00 0.  1.
        -11    1    3    3    0    0  0.26797257449E+02  0.18912206353E+03  0.27057067491E+03  0.33120044994E+03  0.00000000000E+00 0. -1.
          4    1    6    6  502    0  0.67269410832E+02  0.36512525966E+02  0.41344308605E+03  0.42046821947E+03  0.00000000000E+00 0. -1.
          3    1    5    5  503    0 -0.41274063633E+02 -0.41022258111E+03  0.13675675938E+03  0.43438292510E+03  0.00000000000E+00 0. -1.
         -4    1    5    5    0  503 -0.29129243324E+02 -0.24724850747E+03  0.19714604827E+02  0.24973786838E+03  0.00000000000E+00 0.  1.
         -3    1    6    6    0  502  0.47106584229E+02 -0.40986560994E+02  0.32155805049E+03  0.32756451012E+03  0.00000000000E+00 0.  1.
<mgrwt>
<rscale>  0 0.18179490E+04</rscale>
<asrwt>0</asrwt>
<pdfrwt beam="1">  1        1 0.58888725E-01 0.18179490E+04</pdfrwt>
<pdfrwt beam="2">  1       -1 0.33208139E+00 0.18179490E+04</pdfrwt>
<totfact> 0.12251118E+00</totfact>
</mgrwt>
</event>
<event>
12    1  0.1504874E-007  0.1774379E+04  0.7818608E-02  0.8720044E-01
         -2   -1    0    0    0  501 -0.00000000000E+00  0.00000000000E+00  0.60303686642E+03  0.60303686642E+03  0.00000000000E+00 0. -1.
          2   -1    0    0  501    0  0.00000000000E+00 -0.00000000000E+00 -0.13052361068E+04  0.13052361068E+04  0.00000000000E+00 0.  1.
         23    2    1    2    0    0 -0.23911770540E+03 -0.24260195741E+03 -0.86155788932E+03  0.93103838608E+03  0.92290264476E+02 0.  0.
        254    2    1    2    0    0  0.23911770540E+03  0.24260195741E+03  0.15935864890E+03  0.97723458718E+03  0.90197520622E+03 0.  0.
        -24    2    4    4    0    0 -0.49466705980E+02  0.22944110769E+03 -0.32431986251E+03  0.40819239776E+03  0.79671095593E+02 0.  0.
         24    2    4    4    0    0  0.28858441138E+03  0.13160849720E+02  0.48367851141E+03  0.56904218942E+03  0.80062103920E+02 0.  0.
         11    1    3    3    0    0 -0.15648289455E+02  0.23918282950E+01 -0.87834136712E+02  0.89249231803E+02  0.00000000000E+00 0. -1.
        -11    1    3    3    0    0 -0.22346941595E+03 -0.24499378571E+03 -0.77372375261E+03  0.84178915427E+03  0.00000000000E+00 0.  1.
          2    1    6    6  502    0  0.20806443717E+03  0.35792442241E+01  0.40857868663E+03  0.45851953521E+03  0.00000000000E+00 0. -1.
          3    1    5    5  503    0  0.15478237666E+02  0.41812925468E+02 -0.94453558386E+02  0.10444793569E+03  0.00000000000E+00 0. -1.
         -4    1    5    5    0  503 -0.64944943646E+02  0.18762818223E+03 -0.22986630412E+03  0.30374446208E+03  0.00000000000E+00 0.  1.
         -1    1    6    6    0  502  0.80519974217E+02  0.95816054964E+01  0.75099824779E+02  0.11052265421E+03  0.00000000000E+00 0.  1.
<mgrwt>
<rscale>  0 0.17743793E+04</rscale>
<asrwt>0</asrwt>
<pdfrwt beam="1">  1        2 0.20080555E+00 0.17743793E+04</pdfrwt>
<pdfrwt beam="2">  1       -2 0.92774904E-01 0.17743793E+04</pdfrwt>
<totfact> 0.15297804E+01</totfact>
</mgrwt>
</event>
<event>
12    1  0.1865510E-007  0.3875610E+04  0.7818608E-02  0.8030121E-01
          2   -1    0    0  501    0  0.00000000000E+00  0.00000000000E+00  0.25583615733E+04  0.25583615733E+04  0.00000000000E+00 0. -1.
         -2   -1    0    0    0  501 -0.00000000000E+00 -0.00000000000E+00 -0.14677705941E+04  0.14677705941E+04  0.00000000000E+00 0.  1.
         23    2    1    2    0    0 -0.11870921932E+04 -0.12566283923E+04  0.10684111307E+04  0.20343354039E+04  0.93356305858E+02 0.  0.
        254    2    1    2    0    0  0.11870921932E+04  0.12566283923E+04  0.22179848414E+02  0.19917967635E+04  0.98917117318E+03 0.  0.
        -24    2    4    4    0    0  0.63202634397E+03  0.48916466221E+03 -0.46038900336E+03  0.92579237155E+03  0.79963207619E+02 0.  0.
         24    2    4    4    0    0  0.55506584921E+03  0.76746373013E+03  0.48256885177E+03  0.10660043919E+04  0.79962446985E+02 0.  0.
         11    1    3    3    0    0 -0.29514923894E+03 -0.35092176449E+03  0.24650560934E+03  0.52059982086E+03  0.00000000000E+00 0. -1.
        -11    1    3    3    0    0 -0.89194295424E+03 -0.90570662785E+03  0.82190552141E+03  0.15137355831E+04  0.00000000000E+00 0.  1.
          4    1    6    6  502    0  0.54870939317E+03  0.74095425557E+03  0.47735280259E+03  0.10382489611E+04  0.00000000000E+00 0. -1.
          3    1    5    5  503    0  0.55666777899E+03  0.46037839636E+03 -0.41956316917E+03  0.83538047435E+03  0.00000000000E+00 0. -1.
         -4    1    5    5    0  503  0.75358564979E+02  0.28786265848E+02 -0.40825834184E+02  0.90411897193E+02  0.00000000000E+00 0.  1.
         -3    1    6    6    0  502  0.63564560398E+01  0.26509474559E+02  0.52160491870E+01  0.27755430890E+02  0.00000000000E+00 0.  1.
<mgrwt>
<rscale>  0 0.38756098E+04</rscale>
<asrwt>0</asrwt>
<pdfrwt beam="1">  1        2 0.39359409E+00 0.38756098E+04</pdfrwt>
<pdfrwt beam="2">  1       -2 0.22581086E+00 0.38756098E+04</pdfrwt>
<totfact> 0.23298698E-01</totfact>
</mgrwt>
</event>
<event>
12    1  0.1504874E-007  0.1683138E+04  0.7818608E-02  0.8771040E-01
         -1   -1    0    0    0  501 -0.00000000000E+00  0.00000000000E+00  0.50167244113E+03  0.50167244113E+03  0.00000000000E+00 0.  1.
          1   -1    0    0  501    0  0.00000000000E+00 -0.00000000000E+00 -0.14117545576E+04  0.14117545576E+04  0.00000000000E+00 0. -1.
         23    2    1    2    0    0 -0.34364982112E+03  0.37273176710E+03  0.94542731001E+02  0.52377072418E+03  0.91505594168E+02 0.  0.
        254    2    1    2    0    0  0.34364982112E+03 -0.37273176710E+03 -0.10046248475E+04  0.13896562745E+04  0.81538292075E+03 0.  0.
        -24    2    4    4    0    0 -0.76261238787E+02 -0.77285596610E+02 -0.83115157257E+03  0.84199330180E+03  0.79692808325E+02 0.  0.
         24    2    4    4    0    0  0.41991105991E+03 -0.29544617049E+03 -0.17347327489E+03  0.54766297273E+03  0.78917784522E+02 0.  0.
         11    1    3    3    0    0 -0.32435176464E+03  0.33816307246E+03  0.62264198093E+02  0.47268928607E+03  0.00000000000E+00 0. -1.
        -11    1    3    3    0    0 -0.19298056481E+02  0.34568694641E+02  0.32278532908E+02  0.51081438115E+02  0.00000000000E+00 0.  1.
          2    1    6    6  502    0  0.67721041450E+02 -0.80278875922E+02 -0.53463678541E+02  0.11785245987E+03  0.00000000000E+00 0. -1.
          1    1    5    5  503    0 -0.10796684928E+02 -0.98916159742E+01 -0.16993713543E+02  0.22432092457E+02  0.00000000000E+00 0. -1.
         -2    1    5    5    0  503 -0.65464553859E+02 -0.67393980636E+02 -0.81415785903E+03  0.81956120934E+03  0.00000000000E+00 0.  1.
         -1    1    6    6    0  502  0.35219001846E+03 -0.21516729457E+03 -0.12000959635E+03  0.42981051286E+03  0.00000000000E+00 0.  1.
<mgrwt>
<rscale>  0 0.16831380E+04</rscale>
<asrwt>0</asrwt>
<pdfrwt beam="1">  1        1 0.21719301E+00 0.16831380E+04</pdfrwt>
<pdfrwt beam="2">  1       -1 0.77180376E-01 0.16831380E+04</pdfrwt>
<totfact> 0.12091990E+01</totfact>
</mgrwt>
</event>
<event>
12    1  0.1504874E-007  0.1892484E+04  0.7818608E-02  0.8658607E-01
          2   -1    0    0  501    0  0.00000000000E+00  0.00000000000E+00  0.68316929164E+03  0.68316929164E+03  0.00000000000E+00 0. -1.
         -2   -1    0    0    0  501 -0.00000000000E+00 -0.00000000000E+00 -0.13106178952E+04  0.13106178952E+04  0.00000000000E+00 0.  1.
         23    2    1    2    0    0  0.40744334982E+03 -0.16613684825E+03 -0.85587903730E+03  0.96629077117E+03  0.87048218178E+02 0.  0.
        254    2    1    2    0    0 -0.40744334982E+03  0.16613684825E+03  0.22843043371E+03  0.10274964157E+04  0.89997604722E+03 0.  0.
        -24    2    4    4    0    0 -0.52225027565E+03  0.19064019701E+03 -0.18442446899E+03  0.59098962343E+03  0.78532255161E+02 0.  0.
         24    2    4    4    0    0  0.11480692583E+03 -0.24503348764E+02  0.41285490270E+03  0.43650679228E+03  0.79422696415E+02 0.  0.
         11    1    3    3    0    0  0.34337672178E+03 -0.16931063475E+03 -0.75916254231E+03  0.85023610236E+03  0.00000000000E+00 0.  1.
        -11    1    3    3    0    0  0.64066628043E+02  0.31737865013E+01 -0.96716494987E+02  0.11605466881E+03  0.00000000000E+00 0. -1.
          4    1    6    6  502    0  0.10450702043E+03 -0.35268984726E+02  0.40482431081E+03  0.41958114975E+03  0.00000000000E+00 0. -1.
          3    1    5    5  503    0 -0.18597929227E+03  0.40097605035E+02 -0.91012740080E+02  0.21090147922E+03  0.00000000000E+00 0. -1.
         -4    1    5    5    0  503 -0.33627098338E+03  0.15054259198E+03 -0.93411728907E+02  0.38008814420E+03  0.00000000000E+00 0.  1.
         -3    1    6    6    0  502  0.10299905400E+02  0.10765635963E+02  0.80305918845E+01  0.16925642527E+02  0.00000000000E+00 0.  1.
<mgrwt>
<rscale>  0 0.18924840E+04</rscale>
<asrwt>0</asrwt>
<pdfrwt beam="1">  1        2 0.10510297E+00 0.18924840E+04</pdfrwt>
<pdfrwt beam="2">  1       -2 0.20163352E+00 0.18924840E+04</pdfrwt>
<totfact> 0.51343289E+00</totfact>
</mgrwt>
</event>
<event>
12    1  0.1504874E-007  0.1519344E+04  0.7818608E-02  0.8871691E-01
         -2   -1    0    0    0  501 -0.00000000000E+00  0.00000000000E+00  0.21656798819E+03  0.21656798819E+03  0.00000000000E+00 0.  1.
          2   -1    0    0  501    0  0.00000000000E+00 -0.00000000000E+00 -0.26647576230E+04  0.26647576230E+04  0.00000000000E+00 0. -1.
         23    2    1    2    0    0  0.24785511168E+02  0.12333115375E+02 -0.17053655197E+04  0.17080400940E+04  0.91449326923E+02 0.  0.
        254    2    1    2    0    0 -0.24785511168E+02 -0.12333115375E+02 -0.74282411508E+03  0.11732855172E+04  0.90776914008E+03 0.  0.
        -24    2    4    4    0    0 -0.40947321158E+03 -0.45464792734E+02 -0.63789474218E+03  0.76371101596E+03  0.81298557260E+02 0.  0.
         24    2    4    4    0    0  0.38468770041E+03  0.33131677358E+02 -0.10492937290E+03  0.40957450127E+03  0.87514363944E+02 0.  0.
         11    1    3    3    0    0 -0.82799524184E+01  0.92444135883E+01 -0.31664905555E+02  0.34010043200E+02  0.00000000000E+00 0.  1.
        -11    1    3    3    0    0  0.33065463586E+02  0.30887017871E+01 -0.16737006142E+04  0.16740300508E+04  0.00000000000E+00 0. -1.
          2    1    6    6  502    0  0.24805963070E+03 -0.20779948370E+02 -0.70366284503E+02  0.25868281859E+03  0.00000000000E+00 0. -1.
          3    1    5    5  503    0 -0.21274223318E+03  0.42502544506E+01 -0.38044206522E+03  0.43590536522E+03  0.00000000000E+00 0. -1.
         -4    1    5    5    0  503 -0.19673097840E+03 -0.49715047185E+02 -0.25745267696E+03  0.32780565074E+03  0.00000000000E+00 0.  1.
         -1    1    6    6    0  502  0.13662806971E+03  0.53911625729E+02 -0.34563088397E+02  0.15089168268E+03  0.00000000000E+00 0.  1.
<mgrwt>
<rscale>  0 0.15193435E+04</rscale>
<asrwt>0</asrwt>
<pdfrwt beam="1">  1        2 0.40996270E+00 0.15193435E+04</pdfrwt>
<pdfrwt beam="2">  1       -2 0.33318153E-01 0.15193435E+04</pdfrwt>
<totfact> 0.22713886E+01</totfact>
</mgrwt>
</event>
<event>
12    1  0.1504874E-007  0.2513020E+04  0.7818608E-02  0.8398362E-01
         -2   -1    0    0    0  501 -0.00000000000E+00  0.00000000000E+00  0.49334184642E+03  0.49334184642E+03  0.00000000000E+00 0. -1.
          2   -1    0    0  501    0  0.00000000000E+00 -0.00000000000E+00 -0.32002506227E+04  0.32002506227E+04  0.00000000000E+00 0.  1.
         23    2    1    2    0    0  0.26774605508E+03 -0.11456631106E+03  0.36655475852E+03  0.47696079029E+03  0.91191089694E+02 0.  0.
        254    2    1    2    0    0 -0.26774605508E+03  0.11456631106E+03 -0.30734635348E+04  0.32166316788E+04  0.90317654300E+03 0.  0.
        -24    2    4    4    0    0 -0.35505468063E+03 -0.24618839191E+03 -0.24281432316E+04  0.24675805108E+04  0.80009210966E+02 0.  0.
         24    2    4    4    0    0  0.87308625552E+02  0.36075470297E+03 -0.64532030319E+03  0.74905116796E+03  0.82901186378E+02 0.  0.
         13    1    3    3    0    0  0.75232749707E+02 -0.26033430283E+02  0.17098076376E+03  0.18860574672E+03  0.00000000000E+00 0.  1.
        -13    1    3    3    0    0  0.19251330537E+03 -0.88532880777E+02  0.19557399476E+03  0.28835504357E+03  0.00000000000E+00 0. -1.
          4    1    6    6  502    0 -0.30025436465E+01  0.23997852170E+02 -0.91327279330E+02  0.94475309615E+02  0.00000000000E+00 0. -1.
          1    1    5    5  503    0 -0.32837172795E+01 -0.97110446870E+01 -0.14935929699E+03  0.14971067692E+03  0.00000000000E+00 0. -1.
         -2    1    5    5    0  503 -0.35177096335E+03 -0.23647734722E+03 -0.22787839346E+04  0.23178698339E+04  0.00000000000E+00 0.  1.
         -3    1    6    6    0  502  0.90311169199E+02  0.33675685080E+03 -0.55399302386E+03  0.65457585835E+03  0.00000000000E+00 0.  1.
<mgrwt>
<rscale>  0 0.25130201E+04</rscale>
<asrwt>0</asrwt>
<pdfrwt beam="1">  1        2 0.49234624E+00 0.25130201E+04</pdfrwt>
<pdfrwt beam="2">  1       -2 0.75898748E-01 0.25130201E+04</pdfrwt>
<totfact> 0.17967796E+00</totfact>
</mgrwt>
</event>
<event>
12    1  0.1504874E-007  0.1912394E+04  0.7818608E-02  0.8648711E-01
          2   -1    0    0  501    0  0.00000000000E+00  0.00000000000E+00  0.12328758432E+04  0.12328758432E+04  0.00000000000E+00 0. -1.
         -2   -1    0    0    0  501 -0.00000000000E+00 -0.00000000000E+00 -0.74161003707E+03  0.74161003707E+03  0.00000000000E+00 0.  1.
         23    2    1    2    0    0 -0.59207798131E+03 -0.40822654408E+03 -0.13678762148E+02  0.72502067868E+03  0.90899002888E+02 0.  0.
        254    2    1    2    0    0  0.59207798131E+03  0.40822654408E+03  0.50494456832E+03  0.12494652016E+04  0.88825054223E+03 0.  0.
        -24    2    4    4    0    0  0.16904377710E+03  0.62404705919E+03  0.36533525288E+03  0.74698728408E+03  0.80682246661E+02 0.  0.
         24    2    4    4    0    0  0.42303420421E+03 -0.21582051510E+03  0.13960931544E+03  0.50247791755E+03  0.86353135428E+02 0.  0.
         11    1    3    3    0    0 -0.13814377531E+03 -0.13010950741E+03 -0.31493950021E+02  0.19236438200E+03  0.00000000000E+00 0. -1.
        -11    1    3    3    0    0 -0.45393420601E+03 -0.27811703667E+03  0.17815187873E+02  0.53265629668E+03  0.00000000000E+00 0.  1.
          4    1    6    6  502    0  0.37004210179E+03 -0.17611331265E+03  0.14802450613E+03  0.43572733493E+03  0.00000000000E+00 0. -1.
          3    1    5    5  503    0  0.12358223904E+03  0.53348242858E+03  0.33160751132E+03  0.64018717026E+03  0.00000000000E+00 0. -1.
         -4    1    5    5    0  503  0.45461538068E+02  0.90564630610E+02  0.33727741559E+02  0.10680011382E+03  0.00000000000E+00 0.  1.
         -3    1    6    6    0  502  0.52992102423E+02 -0.39707202458E+02 -0.84151906966E+01  0.66750582624E+02  0.00000000000E+00 0.  1.
<mgrwt>
<rscale>  0 0.19123944E+04</rscale>
<asrwt>0</asrwt>
<pdfrwt beam="1">  1        2 0.18967321E+00 0.19123944E+04</pdfrwt>
<pdfrwt beam="2">  1       -2 0.11409385E+00 0.19123944E+04</pdfrwt>
<totfact> 0.10185317E+01</totfact>
</mgrwt>
</event>
<event>
12    1  0.1504874E-007  0.2145528E+04  0.7818608E-02  0.8541449E-01
          2   -1    0    0  501    0  0.00000000000E+00  0.00000000000E+00  0.10965346526E+04  0.10965346526E+04  0.00000000000E+00 0.  1.
         -2   -1    0    0    0  501 -0.00000000000E+00 -0.00000000000E+00 -0.10495083970E+04  0.10495083970E+04  0.00000000000E+00 0. -1.
         23    2    1    2    0    0  0.62972646299E+03 -0.32037937285E+03 -0.50189818954E+03  0.87197102180E+03  0.96090111195E+02 0.  0.
        254    2    1    2    0    0 -0.62972646299E+03  0.32037937285E+03  0.54892444511E+03  0.12740720279E+04  0.90705188663E+03 0.  0.
        -24    2    4    4    0    0 -0.56707921904E+03 -0.19767655257E+03  0.40187661168E+03  0.72700513078E+03  0.79854799903E+02 0.  0.
         24    2    4    4    0    0 -0.62647243947E+02  0.51805592542E+03  0.14704783344E+03  0.54706689709E+03  0.73160819716E+02 0.  0.
         11    1    3    3    0    0  0.14187671472E+01  0.25162301601E+01 -0.11896341777E+02  0.12242028513E+02  0.00000000000E+00 0.  1.
        -11    1    3    3    0    0  0.62830769584E+03 -0.32289560301E+03 -0.49000184776E+03  0.85972899329E+03  0.00000000000E+00 0. -1.
          2    1    6    6  502    0 -0.27638309302E+01  0.71602858605E+00  0.73155281017E+01  0.78529236437E+01  0.00000000000E+00 0. -1.
          3    1    5    5  503    0 -0.13295850822E+03 -0.74284554913E+02  0.12911799954E+03  0.19966877025E+03  0.00000000000E+00 0. -1.
         -4    1    5    5    0  503 -0.43412071082E+03 -0.12339199765E+03  0.27275861214E+03  0.52733636053E+03  0.00000000000E+00 0.  1.
         -1    1    6    6    0  502 -0.59883413017E+02  0.51733989683E+03  0.13973230534E+03  0.53921397345E+03  0.00000000000E+00 0.  1.
<mgrwt>
<rscale>  0 0.21455277E+04</rscale>
<asrwt>0</asrwt>
<pdfrwt beam="1">  1        2 0.16869764E+00 0.21455277E+04</pdfrwt>
<pdfrwt beam="2">  1       -2 0.16146283E+00 0.21455277E+04</pdfrwt>
<totfact> 0.49389206E+00</totfact>
</mgrwt>
</event>
<event>
12    1  0.1504874E-007  0.1802225E+04  0.7818608E-02  0.8705117E-01
         -2   -1    0    0    0  501 -0.00000000000E+00  0.00000000000E+00  0.11627692652E+04  0.11627692652E+04  0.00000000000E+00 0. -1.
          2   -1    0    0  501    0  0.00000000000E+00 -0.00000000000E+00 -0.69833588404E+03  0.69833588404E+03  0.00000000000E+00 0.  1.
         23    2    1    2    0    0  0.60436024102E+03  0.22132129753E+03  0.40446977507E+03  0.76523390797E+03  0.88049516197E+02 0.  0.
        254    2    1    2    0    0 -0.60436024102E+03 -0.22132129753E+03  0.59963606040E+02  0.10958712412E+04  0.88493148076E+03 0.  0.
        -24    2    4    4    0    0 -0.80099037284E+03 -0.30197731347E+03 -0.43929532992E+01  0.86066223708E+03  0.89130876111E+02 0.  0.
         24    2    4    4    0    0  0.19663013182E+03  0.80656015937E+02  0.64356559339E+02  0.23520900414E+03  0.77541648512E+02 0.  0.
         11    1    3    3    0    0  0.25966465630E+03  0.62532027067E+02  0.20360687389E+03  0.33584482613E+03  0.00000000000E+00 0. -1.
        -11    1    3    3    0    0  0.34469558472E+03  0.15878927046E+03  0.20086290118E+03  0.42938908184E+03  0.00000000000E+00 0.  1.
          2    1    6    6  502    0  0.82049037991E+02 -0.41117459194E+01  0.10393478550E+02  0.82806856516E+02  0.00000000000E+00 0. -1.
          3    1    5    5  503    0  0.23502291966E+01 -0.19244711475E+01 -0.65053479034E+00  0.31065031768E+01  0.00000000000E+00 0. -1.
         -4    1    5    5    0  503 -0.80334060203E+03 -0.30005284232E+03 -0.37424185089E+01  0.85755573390E+03  0.00000000000E+00 0.  1.
         -1    1    6    6    0  502  0.11458109383E+03  0.84767761856E+02  0.53963080789E+02  0.15240214763E+03  0.00000000000E+00 0.  1.
<mgrwt>
<rscale>  0 0.18022247E+04</rscale>
<asrwt>0</asrwt>
<pdfrwt beam="1">  1        2 0.10743629E+00 0.18022247E+04</pdfrwt>
<pdfrwt beam="2">  1       -2 0.17888758E+00 0.18022247E+04</pdfrwt>
<totfact> 0.71547239E+00</totfact>
</mgrwt>
</event>
<event>
12    1  0.1504874E-007  0.1594033E+04  0.7818608E-02  0.8824222E-01
          1   -1    0    0  501    0  0.00000000000E+00  0.00000000000E+00  0.11025224782E+04  0.11025224782E+04  0.00000000000E+00 0. -1.
         -1   -1    0    0    0  501 -0.00000000000E+00 -0.00000000000E+00 -0.57616514632E+03  0.57616514632E+03  0.00000000000E+00 0.  1.
         23    2    1    2    0    0  0.30948725889E+02  0.20804361449E+03  0.70165007599E+03  0.73799740652E+03  0.89929826684E+02 0.  0.
        254    2    1    2    0    0 -0.30948725889E+02 -0.20804361449E+03 -0.17529274413E+03  0.94069021798E+03  0.89996142745E+03 0.  0.
        -24    2    4    4    0    0  0.20866281700E+03 -0.40416293505E+03 -0.34699981192E+03  0.57765385929E+03  0.79920350411E+02 0.  0.
         24    2    4    4    0    0 -0.23961154289E+03  0.19611932057E+03  0.17170706779E+03  0.36303635869E+03  0.80222199046E+02 0.  0.
         11    1    3    3    0    0  0.29299158875E+02  0.18187629333E+03  0.46913966500E+03  0.50401334512E+03  0.00000000000E+00 0. -1.
        -11    1    3    3    0    0  0.16495670131E+01  0.26167321157E+02  0.23251041099E+03  0.23398406140E+03  0.00000000000E+00 0.  1.
          2    1    6    6  502    0 -0.10923657657E+03  0.51077617578E+02  0.37459925147E+02  0.12627271546E+03  0.00000000000E+00 0. -1.
          3    1    5    5  503    0  0.48103023224E+02 -0.46604532230E+02 -0.29262373837E+02  0.73090148380E+02  0.00000000000E+00 0. -1.
         -4    1    5    5    0  503  0.16055979378E+03 -0.35755840282E+03 -0.31773743808E+03  0.50456371091E+03  0.00000000000E+00 0.  1.
         -1    1    6    6    0  502 -0.13037496632E+03  0.14504170299E+03  0.13424714264E+03  0.23676364323E+03  0.00000000000E+00 0.  1.
<mgrwt>
<rscale>  0 0.15940327E+04</rscale>
<asrwt>0</asrwt>
<pdfrwt beam="1">  1        1 0.16961884E+00 0.15940327E+04</pdfrwt>
<pdfrwt beam="2">  1       -1 0.88640792E-01 0.15940327E+04</pdfrwt>
<totfact> 0.15140441E+01</totfact>
</mgrwt>
</event>
<event>
12    1  0.1504874E-007  0.1782701E+04  0.7818608E-02  0.8715553E-01
         -2   -1    0    0    0  501 -0.00000000000E+00  0.00000000000E+00  0.31806487402E+03  0.31806487402E+03  0.00000000000E+00 0.  1.
          2   -1    0    0  501    0  0.00000000000E+00 -0.00000000000E+00 -0.24979372312E+04  0.24979372312E+04  0.00000000000E+00 0. -1.
         23    2    1    2    0    0 -0.36955563923E+03  0.50424055957E+03 -0.48641808622E+03  0.79794390409E+03  0.96343173464E+02 0.  0.
        254    2    1    2    0    0  0.36955563923E+03 -0.50424055957E+03 -0.16934542709E+04  0.20180582011E+04  0.90218713295E+03 0.  0.
        -24    2    4    4    0    0  0.48897431869E+03  0.80062562276E+01 -0.46454424050E+03  0.67905775038E+03  0.78473514557E+02 0.  0.
         24    2    4    4    0    0 -0.11941867946E+03 -0.51224681580E+03 -0.12289100304E+04  0.13390004507E+04  0.77747815605E+02 0.  0.
         13    1    3    3    0    0 -0.18804101073E+03  0.33034968072E+03 -0.31521039504E+03  0.49380960543E+03  0.00000000000E+00 0. -1.
        -13    1    3    3    0    0 -0.18151462850E+03  0.17389087885E+03 -0.17120769117E+03  0.30413429867E+03  0.00000000000E+00 0.  1.
          2    1    6    6  502    0 -0.17397650693E+02 -0.16474863518E+03 -0.46392669951E+03  0.49261828383E+03  0.00000000000E+00 0. -1.
          1    1    5    5  503    0  0.16735002193E+03 -0.22056655489E+02 -0.19859110022E+03  0.26063566713E+03  0.00000000000E+00 0. -1.
         -2    1    5    5    0  503  0.32162429676E+03  0.30062911716E+02 -0.26595314028E+03  0.41842208325E+03  0.00000000000E+00 0.  1.
         -1    1    6    6    0  502 -0.10202102877E+03 -0.34749818062E+03 -0.76498333091E+03  0.84638216688E+03  0.00000000000E+00 0.  1.
<mgrwt>
<rscale>  0 0.17827014E+04</rscale>
<asrwt>0</asrwt>
<pdfrwt beam="1">  1        2 0.38429804E+00 0.17827014E+04</pdfrwt>
<pdfrwt beam="2">  1       -2 0.48933057E-01 0.17827014E+04</pdfrwt>
<totfact> 0.13065875E+01</totfact>
</mgrwt>
</event>
<event>
12    1  0.1504874E-007  0.3015590E+04  0.7818608E-02  0.8239293E-01
         -1   -1    0    0    0  501 -0.00000000000E+00  0.00000000000E+00  0.15187392360E+04  0.15187392360E+04  0.00000000000E+00 0.  1.
          1   -1    0    0  501    0  0.00000000000E+00 -0.00000000000E+00 -0.14969298410E+04  0.14969298410E+04  0.00000000000E+00 0. -1.
         23    2    1    2    0    0  0.59350571245E+03 -0.42082296417E+03 -0.11524999845E+04  0.13658886078E+04  0.89746736530E+02 0.  0.
        254    2    1    2    0    0 -0.59350571245E+03  0.42082296417E+03  0.11743093795E+04  0.16497804691E+04  0.90190469535E+03 0.  0.
        -24    2    4    4    0    0 -0.47919647694E+03 -0.61579658743E+02  0.15527624163E+03  0.51374059857E+03  0.79983582832E+02 0.  0.
         24    2    4    4    0    0 -0.11430923551E+03  0.48240262291E+03  0.10190331379E+04  0.11360398705E+04  0.79869639903E+02 0.  0.
         13    1    3    3    0    0  0.39471564741E+03 -0.33011882505E+03 -0.80949864700E+03  0.95920119916E+03  0.00000000000E+00 0. -1.
        -13    1    3    3    0    0  0.19879006504E+03 -0.90704139122E+02 -0.34300133754E+03  0.40668740866E+03  0.00000000000E+00 0.  1.
          2    1    6    6  502    0 -0.91879366518E+02  0.21692775167E+03  0.46440595128E+03  0.52074211950E+03  0.00000000000E+00 0. -1.
          3    1    5    5  503    0 -0.10708229478E+03 -0.78483181353E+01  0.70137965540E+02  0.12824799477E+03  0.00000000000E+00 0. -1.
         -4    1    5    5    0  503 -0.37211418216E+03 -0.53731340608E+02  0.85138276090E+02  0.38549260380E+03  0.00000000000E+00 0.  1.
         -1    1    6    6    0  502 -0.22429868989E+02  0.26547487124E+03  0.55462718664E+03  0.61529775104E+03  0.00000000000E+00 0.  1.
<mgrwt>
<rscale>  0 0.30155902E+04</rscale>
<asrwt>0</asrwt>
<pdfrwt beam="1">  1        1 0.23029690E+00 0.30155902E+04</pdfrwt>
<pdfrwt beam="2">  1       -1 0.23365219E+00 0.30155902E+04</pdfrwt>
<totfact> 0.49882660E-01</totfact>
</mgrwt>
</event>
<event>
12    1  0.1504874E-007  0.2076522E+04  0.7818608E-02  0.8571657E-01
         -2   -1    0    0    0  501 -0.00000000000E+00  0.00000000000E+00  0.75208057882E+03  0.75208057882E+03  0.00000000000E+00 0.  1.
          2   -1    0    0  501    0  0.00000000000E+00 -0.00000000000E+00 -0.14333382819E+04  0.14333382819E+04  0.00000000000E+00 0. -1.
         23    2    1    2    0    0  0.48970095337E+03 -0.49197613458E+03  0.21816732060E+03  0.73323875062E+03  0.90523725668E+02 0.  0.
        254    2    1    2    0    0 -0.48970095337E+03  0.49197613458E+03 -0.89942502372E+03  0.14521801101E+04  0.90444135149E+03 0.  0.
        -24    2    4    4    0    0 -0.16281321184E+03  0.66522400570E+03 -0.32126403358E+03  0.76132079241E+03  0.85835015984E+02 0.  0.
         24    2    4    4    0    0 -0.32688774152E+03 -0.17324787112E+03 -0.57816099014E+03  0.69085931774E+03  0.78396721754E+02 0.  0.
         13    1    3    3    0    0  0.15756695460E+03 -0.10662994114E+03  0.77369702909E+02  0.20538588183E+03  0.00000000000E+00 0. -1.
        -13    1    3    3    0    0  0.33213399877E+03 -0.38534619344E+03  0.14079761769E+03  0.52785286878E+03  0.00000000000E+00 0.  1.
          4    1    6    6  502    0 -0.28765599711E+03 -0.15428759166E+03 -0.54804917679E+03  0.63789382643E+03  0.00000000000E+00 0. -1.
          1    1    5    5  503    0 -0.41478717541E+02  0.17150547182E+03 -0.42474998244E+02  0.18149032026E+03  0.00000000000E+00 0. -1.
         -2    1    5    5    0  503 -0.12133449430E+03  0.49371853388E+03 -0.27878903534E+03  0.57983047215E+03  0.00000000000E+00 0.  1.
         -3    1    6    6    0  502 -0.39231744407E+02 -0.18960279462E+02 -0.30111813351E+02  0.52965491311E+02  0.00000000000E+00 0.  1.
<mgrwt>
<rscale>  0 0.20765220E+04</rscale>
<asrwt>0</asrwt>
<pdfrwt beam="1">  1        2 0.22051358E+00 0.20765220E+04</pdfrwt>
<pdfrwt beam="2">  1       -2 0.11570471E+00 0.20765220E+04</pdfrwt>
<totfact> 0.74295044E+00</totfact>
</mgrwt>
</event>
<event>
12    1  0.1504874E-007  0.3644824E+04  0.7818608E-02  0.8080301E-01
          1   -1    0    0  501    0  0.00000000000E+00  0.00000000000E+00  0.16101883836E+04  0.16101883836E+04  0.00000000000E+00 0. -1.
         -1   -1    0    0    0  501 -0.00000000000E+00 -0.00000000000E+00 -0.20626068064E+04  0.20626068064E+04  0.00000000000E+00 0.  1.
         23    2    1    2    0    0  0.13366880714E+04  0.10769381832E+04 -0.41990881136E+03  0.17695155620E+04  0.91274660958E+02 0.  0.
        254    2    1    2    0    0 -0.13366880714E+04 -0.10769381832E+04 -0.32509611434E+02  0.19032796280E+04  0.82151422200E+03 0.  0.
        -24    2    4    4    0    0 -0.27647529123E+03 -0.12552342472E+03 -0.31973570895E+03  0.44788533109E+03  0.78585173019E+02 0.  0.
         24    2    4    4    0    0 -0.10602127802E+04 -0.95141475848E+03  0.28722609751E+03  0.14553942969E+04  0.80203157948E+02 0.  0.
         13    1    3    3    0    0  0.59724637561E+01  0.61579565911E+01  0.42958264452E+01  0.95940021650E+01  0.00000000000E+00 0.  1.
        -13    1    3    3    0    0  0.13307156077E+04  0.10707802266E+04 -0.42420463780E+03  0.17599215599E+04  0.00000000000E+00 0. -1.
          2    1    6    6  502    0 -0.70506475731E+03 -0.67972734754E+03  0.21004838142E+03  0.10016316197E+04  0.00000000000E+00 0. -1.
          3    1    5    5  503    0 -0.57326720946E+02 -0.54929862251E+02 -0.52678628780E+02  0.95282110763E+02  0.00000000000E+00 0. -1.
         -4    1    5    5    0  503 -0.21914857028E+03 -0.70593562468E+02 -0.26705708017E+03  0.35260322033E+03  0.00000000000E+00 0.  1.
         -3    1    6    6    0  502 -0.35514802288E+03 -0.27168741094E+03  0.77177716090E+02  0.45376267726E+03  0.00000000000E+00 0.  1.
<mgrwt>
<rscale>  0 0.36448240E+04</rscale>
<asrwt>0</asrwt>
<pdfrwt beam="1">  1        1 0.24772129E+00 0.36448240E+04</pdfrwt>
<pdfrwt beam="2">  1       -1 0.31732412E+00 0.36448240E+04</pdfrwt>
<totfact> 0.11274264E-01</totfact>
</mgrwt>
</event>
<event>
12    1  0.1504874E-007  0.1045560E+04  0.7818608E-02  0.9259940E-01
          1   -1    0    0  501    0  0.00000000000E+00  0.00000000000E+00  0.10775097154E+04  0.10775097154E+04  0.00000000000E+00 0. -1.
         -1   -1    0    0    0  501 -0.00000000000E+00 -0.00000000000E+00 -0.25363930694E+03  0.25363930694E+03  0.00000000000E+00 0.  1.
         23    2    1    2    0    0  0.16800630017E+02 -0.11731605831E+02  0.23146042753E+03  0.24968040754E+03  0.91359097282E+02 0.  0.
        254    2    1    2    0    0 -0.16800630017E+02  0.11731605831E+02  0.59240998093E+03  0.10814686148E+04  0.90454678569E+03 0.  0.
        -24    2    4    4    0    0 -0.24282746794E+03  0.28652323515E+03 -0.27304162937E+01  0.38336675351E+03  0.76823623056E+02 0.  0.
         24    2    4    4    0    0  0.22602683793E+03 -0.27479162931E+03  0.59514039722E+03  0.69810186127E+03  0.80966321999E+02 0.  0.
         11    1    3    3    0    0  0.31679471489E+02  0.32781548573E+02  0.94943354661E+02  0.10532074551E+03  0.00000000000E+00 0.  1.
        -11    1    3    3    0    0 -0.14878841472E+02 -0.44513154404E+02  0.13651707287E+03  0.14435966203E+03  0.00000000000E+00 0. -1.
          4    1    6    6  502    0  0.18370966396E+03 -0.16984497073E+03  0.37903295410E+03  0.45416135349E+03  0.00000000000E+00 0. -1.
          1    1    5    5  503    0 -0.99369210284E+02  0.12517823348E+03  0.36482508791E+02  0.16393536390E+03  0.00000000000E+00 0. -1.
         -2    1    5    5    0  503 -0.14345825766E+03  0.16134500166E+03 -0.39212925084E+02  0.21943138961E+03  0.00000000000E+00 0.  1.
         -3    1    6    6    0  502  0.42317173966E+02 -0.10494665858E+03  0.21610744312E+03  0.24394050777E+03  0.00000000000E+00 0.  1.
<mgrwt>
<rscale>  0 0.10455598E+04</rscale>
<asrwt>0</asrwt>
<pdfrwt beam="1">  1        1 0.16577072E+00 0.10455598E+04</pdfrwt>
<pdfrwt beam="2">  1       -1 0.39021432E-01 0.10455598E+04</pdfrwt>
<totfact> 0.83952802E+01</totfact>
</mgrwt>
</event>
<event>
12    1  0.1504874E-007  0.1255128E+04  0.7818608E-02  0.9065926E-01
         -1   -1    0    0    0  501 -0.00000000000E+00  0.00000000000E+00  0.17391194317E+03  0.17391194317E+03  0.00000000000E+00 0.  1.
          1   -1    0    0  501    0  0.00000000000E+00 -0.00000000000E+00 -0.22645738366E+04  0.22645738366E+04  0.00000000000E+00 0. -1.
         23    2    1    2    0    0 -0.17714446440E+03  0.21145138925E+03 -0.55475039198E+03  0.62612839946E+03  0.90536865008E+02 0.  0.
        254    2    1    2    0    0  0.17714446440E+03 -0.21145138925E+03 -0.15359115014E+04  0.18123573803E+04  0.92169587303E+03 0.  0.
        -24    2    4    4    0    0  0.26209252467E+03 -0.29712480641E+03 -0.16016034154E+04  0.16518444592E+04  0.80504503934E+02 0.  0.
         24    2    4    4    0    0 -0.84948060274E+02  0.85673417162E+02  0.65691914017E+02  0.16051292102E+03  0.83023267190E+02 0.  0.
         13    1    3    3    0    0 -0.47672752966E+02  0.99020546097E+02 -0.29574525469E+03  0.31550438285E+03  0.00000000000E+00 0.  1.
        -13    1    3    3    0    0 -0.12947171143E+03  0.11243084315E+03 -0.25900513729E+03  0.31062401661E+03  0.00000000000E+00 0. -1.
          2    1    6    6  502    0  0.13992120984E+02 -0.16329166236E+01  0.10069065782E+02  0.17315656270E+02  0.00000000000E+00 0. -1.
          3    1    5    5  503    0  0.25270684497E+02 -0.55083297263E+02 -0.35164784552E+03  0.35683187132E+03  0.00000000000E+00 0. -1.
         -4    1    5    5    0  503  0.23682184018E+03 -0.24204150915E+03 -0.12499555699E+04  0.12950125879E+04  0.00000000000E+00 0.  1.
         -1    1    6    6    0  502 -0.98940181258E+02  0.87306333786E+02  0.55622848235E+02  0.14319726475E+03  0.00000000000E+00 0.  1.
<mgrwt>
<rscale>  0 0.12551278E+04</rscale>
<asrwt>0</asrwt>
<pdfrwt beam="1">  1        1 0.34839598E+00 0.12551278E+04</pdfrwt>
<pdfrwt beam="2">  1       -1 0.26755683E-01 0.12551278E+04</pdfrwt>
<totfact> 0.24252032E+01</totfact>
</mgrwt>
</event>
<event>
12    1  0.1504874E-007  0.1729481E+04  0.7818608E-02  0.8744727E-01
         -2   -1    0    0    0  501 -0.00000000000E+00  0.00000000000E+00  0.42974645846E+03  0.42974645846E+03  0.00000000000E+00 0.  1.
          2   -1    0    0  501    0  0.00000000000E+00 -0.00000000000E+00 -0.17400398341E+04  0.17400398341E+04  0.00000000000E+00 0. -1.
         23    2    1    2    0    0 -0.55509637501E+03 -0.24320246810E+03 -0.14577111767E+03  0.62982162649E+03  0.90258719276E+02 0.  0.
        254    2    1    2    0    0  0.55509637501E+03  0.24320246810E+03 -0.11645222580E+04  0.15399646661E+04  0.80504636972E+03 0.  0.
        -24    2    4    4    0    0 -0.12177911992E+02  0.30065143652E+03 -0.79833766103E+03  0.85687264392E+03  0.79675084321E+02 0.  0.
         24    2    4    4    0    0  0.56727428700E+03 -0.57448968427E+02 -0.36618459694E+03  0.68309202214E+03  0.86157129788E+02 0.  0.
         13    1    3    3    0    0 -0.16388567631E+03 -0.11698573496E+03 -0.38741603372E+02  0.20504899150E+03  0.00000000000E+00 0. -1.
        -13    1    3    3    0    0 -0.39121069870E+03 -0.12621673314E+03 -0.10702951430E+03  0.42477263498E+03  0.00000000000E+00 0.  1.
          2    1    6    6  502    0  0.39533250958E+02 -0.23425383560E+02 -0.15285450057E+02  0.48428003363E+02  0.00000000000E+00 0. -1.
          1    1    5    5  503    0  0.20281207131E+02  0.24151175546E+02 -0.10806127254E+03  0.11256929095E+03  0.00000000000E+00 0. -1.
         -2    1    5    5    0  503 -0.32459119124E+02  0.27650026098E+03 -0.69027638849E+03  0.74430335297E+03  0.00000000000E+00 0.  1.
         -1    1    6    6    0  502  0.52774103604E+03 -0.34023584866E+02 -0.35089914688E+03  0.63466401878E+03  0.00000000000E+00 0.  1.
<mgrwt>
<rscale>  0 0.17294808E+04</rscale>
<asrwt>0</asrwt>
<pdfrwt beam="1">  1        2 0.26769843E+00 0.17294808E+04</pdfrwt>
<pdfrwt beam="2">  1       -2 0.66114840E-01 0.17294808E+04</pdfrwt>
<totfact> 0.18612189E+01</totfact>
</mgrwt>
</event>
<event>
12    1  0.1504874E-007  0.2326975E+04  0.7818608E-02  0.8467361E-01
          1   -1    0    0  501    0  0.00000000000E+00  0.00000000000E+00  0.25722550399E+04  0.25722550399E+04  0.00000000000E+00 0.  1.
         -1   -1    0    0    0  501 -0.00000000000E+00 -0.00000000000E+00 -0.52627092577E+03  0.52627092577E+03  0.00000000000E+00 0. -1.
         23    2    1    2    0    0  0.51303209742E+03 -0.21429776579E+03  0.19600004278E+04  0.20393382278E+04  0.90406110084E+02 0.  0.
        254    2    1    2    0    0 -0.51303209742E+03  0.21429776579E+03  0.85983686316E+02  0.10591877379E+04  0.89741852245E+03 0.  0.
        -24    2    4    4    0    0 -0.73334246054E+03  0.48025660154E+02  0.17353348387E+03  0.75917657123E+03  0.78342630882E+02 0.  0.
         24    2    4    4    0    0  0.22031036313E+03  0.16627210563E+03 -0.87549797557E+02  0.30001116668E+03  0.78477155071E+02 0.  0.
         13    1    3    3    0    0  0.43293273665E+03 -0.16175035571E+03  0.17176847688E+04  0.17787734249E+04  0.00000000000E+00 0.  1.
        -13    1    3    3    0    0  0.80099360762E+02 -0.52547410077E+02  0.24231565902E+03  0.26056480289E+03  0.00000000000E+00 0. -1.
          4    1    6    6  502    0  0.13397880281E+03  0.78991048088E+02 -0.84951342667E+02  0.17721917475E+03  0.00000000000E+00 0. -1.
          3    1    5    5  503    0 -0.25379641305E+03  0.42874459528E+02  0.88101649369E+02  0.27205282424E+03  0.00000000000E+00 0. -1.
         -4    1    5    5    0  503 -0.47954604749E+03  0.51512006267E+01  0.85431834504E+02  0.48712374699E+03  0.00000000000E+00 0.  1.
         -3    1    6    6    0  502  0.86331560321E+02  0.87281057545E+02 -0.25984548901E+01  0.12279199193E+03  0.00000000000E+00 0.  1.
<mgrwt>
<rscale>  0 0.23269749E+04</rscale>
<asrwt>0</asrwt>
<pdfrwt beam="1">  1        1 0.39573154E+00 0.23269749E+04</pdfrwt>
<pdfrwt beam="2">  1       -1 0.80964759E-01 0.23269749E+04</pdfrwt>
<totfact> 0.16541692E+00</totfact>
</mgrwt>
</event>
<event>
12    1  0.1504874E-007  0.1428244E+04  0.7818608E-02  0.8933624E-01
         -2   -1    0    0    0  501 -0.00000000000E+00  0.00000000000E+00  0.20058350692E+03  0.20058350692E+03  0.00000000000E+00 0.  1.
          2   -1    0    0  501    0  0.00000000000E+00 -0.00000000000E+00 -0.25424341682E+04  0.25424341682E+04  0.00000000000E+00 0. -1.
         23    2    1    2    0    0 -0.33193526923E+03  0.14009246661E+03 -0.10985270587E+04  0.11597660159E+04  0.92133548455E+02 0.  0.
        254    2    1    2    0    0  0.33193526923E+03 -0.14009246661E+03 -0.12433236026E+04  0.15832516592E+04  0.91160589817E+03 0.  0.
        -24    2    4    4    0    0  0.63046273889E+03  0.11051428597E+02 -0.78066579361E+03  0.10067423052E+04  0.80533152270E+02 0.  0.
         24    2    4    4    0    0 -0.29852746966E+03 -0.15114389521E+03 -0.46265780896E+03  0.57650935400E+03  0.79672202539E+02 0.  0.
         13    1    3    3    0    0 -0.26434036953E+03  0.13922405140E+03 -0.96358045228E+03  0.10088342061E+04  0.00000000000E+00 0. -1.
        -13    1    3    3    0    0 -0.67594899702E+02  0.86841521112E+00 -0.13494660640E+03  0.15093180973E+03  0.00000000000E+00 0.  1.
          4    1    6    6  502    0 -0.30037683384E+03 -0.15613930903E+03 -0.45361699357E+03  0.56601599181E+03  0.00000000000E+00 0. -1.
          3    1    5    5  503    0  0.57094481977E+03  0.79977539145E+01 -0.73958228699E+03  0.93435748540E+03  0.00000000000E+00 0. -1.
         -4    1    5    5    0  503  0.59517919121E+02  0.30536746824E+01 -0.41083506628E+02  0.72384819834E+02  0.00000000000E+00 0.  1.
         -3    1    6    6    0  502  0.18493641799E+01  0.49954138192E+01 -0.90408153883E+01  0.10493362187E+02  0.00000000000E+00 0.  1.
<mgrwt>
<rscale>  0 0.14282442E+04</rscale>
<asrwt>0</asrwt>
<pdfrwt beam="1">  1        2 0.39114370E+00 0.14282442E+04</pdfrwt>
<pdfrwt beam="2">  1       -2 0.30859002E-01 0.14282442E+04</pdfrwt>
<totfact> 0.31188015E+01</totfact>
</mgrwt>
</event>
<event>
12    1  0.1504874E-007  0.3075238E+04  0.7818608E-02  0.8222567E-01
          1   -1    0    0  501    0  0.00000000000E+00  0.00000000000E+00  0.88114515184E+03  0.88114515184E+03  0.00000000000E+00 0. -1.
         -1   -1    0    0    0  501 -0.00000000000E+00 -0.00000000000E+00 -0.26831805091E+04  0.26831805091E+04  0.00000000000E+00 0.  1.
         23    2    1    2    0    0 -0.18975131556E+03  0.13349217497E+04 -0.12698469890E+04  0.18544087710E+04  0.91098161588E+02 0.  0.
        254    2    1    2    0    0  0.18975131556E+03 -0.13349217497E+04 -0.53218836823E+03  0.17099168899E+04  0.90695626771E+03 0.  0.
        -24    2    4    4    0    0  0.21649296788E+03  0.51163429139E+02 -0.88119334030E+02  0.25201423742E+03  0.79115467591E+02 0.  0.
         24    2    4    4    0    0 -0.26741652319E+02 -0.13860851788E+04 -0.44406903420E+03  0.14579026525E+04  0.79596470055E+02 0.  0.
         11    1    3    3    0    0  0.97423381257E+01  0.38524871803E+02 -0.35644030754E+02  0.53381418378E+02  0.00000000000E+00 0. -1.
        -11    1    3    3    0    0 -0.19949365368E+03  0.12963968779E+04 -0.12342029582E+04  0.18010273526E+04  0.00000000000E+00 0.  1.
          2    1    6    6  502    0 -0.52900756063E+02 -0.73133877135E+03 -0.24357642154E+03  0.77264763094E+03  0.00000000000E+00 0. -1.
          3    1    5    5  503    0  0.18958478828E+03  0.35616672362E+02 -0.10173624522E+03  0.21808531103E+03  0.00000000000E+00 0. -1.
         -4    1    5    5    0  503  0.26908179596E+02  0.15546756778E+02  0.13616911190E+02  0.33928926387E+02  0.00000000000E+00 0.  1.
         -3    1    6    6    0  502  0.26159103744E+02 -0.65474640747E+03 -0.20049261266E+03  0.68525502153E+03  0.00000000000E+00 0.  1.
<mgrwt>
<rscale>  0 0.30752375E+04</rscale>
<asrwt>0</asrwt>
<pdfrwt beam="1">  1        1 0.13556079E+00 0.30752375E+04</pdfrwt>
<pdfrwt beam="2">  1       -1 0.41279700E+00 0.30752375E+04</pdfrwt>
<totfact> 0.93138346E-02</totfact>
</mgrwt>
</event>
<event>
12    1  0.1504874E-007  0.1708321E+04  0.7818608E-02  0.8756633E-01
          1   -1    0    0  501    0  0.00000000000E+00  0.00000000000E+00  0.71305878505E+03  0.71305878505E+03  0.00000000000E+00 0. -1.
         -1   -1    0    0    0  501 -0.00000000000E+00 -0.00000000000E+00 -0.10231842108E+04  0.10231842108E+04  0.00000000000E+00 0.  1.
         23    2    1    2    0    0 -0.29921413186E+03  0.56665004068E+02  0.42672687859E+03  0.53228299570E+03  0.92137610183E+02 0.  0.
        254    2    1    2    0    0  0.29921413186E+03 -0.56665004068E+02 -0.73685230430E+03  0.12039600001E+04  0.90212435069E+03 0.  0.
        -24    2    4    4    0    0  0.60574037988E+03  0.68862427912E+01 -0.58535220531E+03  0.84618416857E+03  0.80134978102E+02 0.  0.
         24    2    4    4    0    0 -0.30652624803E+03 -0.63551246859E+02 -0.15150009899E+03  0.35777583153E+03  0.83989070294E+02 0.  0.
         11    1    3    3    0    0 -0.11543792866E+03  0.22570530726E+02  0.24410191623E+03  0.27096326271E+03  0.00000000000E+00 0. -1.
        -11    1    3    3    0    0 -0.18377620319E+03  0.34094473341E+02  0.18262496236E+03  0.26131973299E+03  0.00000000000E+00 0.  1.
          4    1    6    6  502    0 -0.95779289378E+02 -0.44046006379E+02 -0.86513913523E+02  0.13637587831E+03  0.00000000000E+00 0. -1.
          1    1    5    5  503    0  0.36060036630E+03  0.19985106844E+02 -0.29783446803E+03  0.46812113712E+03  0.00000000000E+00 0. -1.
         -2    1    5    5    0  503  0.24514001359E+03 -0.13098864053E+02 -0.28751773728E+03  0.37806303145E+03  0.00000000000E+00 0.  1.
         -3    1    6    6    0  502 -0.21074695865E+03 -0.19505240480E+02 -0.64986185466E+02  0.22139995322E+03  0.00000000000E+00 0.  1.
<mgrwt>
<rscale>  0 0.17083214E+04</rscale>
<asrwt>0</asrwt>
<pdfrwt beam="1">  1        1 0.10970135E+00 0.17083214E+04</pdfrwt>
<pdfrwt beam="2">  1       -1 0.15741295E+00 0.17083214E+04</pdfrwt>
<totfact> 0.77021475E+00</totfact>
</mgrwt>
</event>
<event>
12    1  0.1504874E-007  0.1395601E+04  0.7818608E-02  0.8957009E-01
         -2   -1    0    0    0  501 -0.00000000000E+00  0.00000000000E+00  0.24812840455E+03  0.24812840455E+03  0.00000000000E+00 0.  1.
          2   -1    0    0  501    0  0.00000000000E+00 -0.00000000000E+00 -0.19623926790E+04  0.19623926790E+04  0.00000000000E+00 0. -1.
         23    2    1    2    0    0 -0.30747639860E+02  0.37019826187E+03 -0.71593158484E+03  0.81157983855E+03  0.90064586454E+02 0.  0.
        254    2    1    2    0    0  0.30747639860E+02 -0.37019826187E+03 -0.99833268966E+03  0.13989412450E+04  0.90684964432E+03 0.  0.
        -24    2    4    4    0    0 -0.11518983757E+03 -0.56059407337E+03 -0.98904017385E+03  0.11455289120E+04  0.80632555854E+02 0.  0.
         24    2    4    4    0    0  0.14593747743E+03  0.19039581150E+03 -0.92925158117E+01  0.25341233300E+03  0.81136596613E+02 0.  0.
         13    1    3    3    0    0  0.81857790835E+01  0.94398780628E+02 -0.11334484010E+03  0.14773350852E+03  0.00000000000E+00 0.  1.
        -13    1    3    3    0    0 -0.38933418943E+02  0.27579948124E+03 -0.60258674474E+03  0.66384633003E+03  0.00000000000E+00 0. -1.
          4    1    6    6  502    0  0.73448865411E+02  0.78879775437E+02 -0.43259137298E+02  0.11613831307E+03  0.00000000000E+00 0. -1.
          3    1    5    5  503    0 -0.77868016373E+02 -0.19535737597E+03 -0.33716902456E+03  0.39738002396E+03  0.00000000000E+00 0. -1.
         -4    1    5    5    0  503 -0.37321821196E+02 -0.36523669741E+03 -0.65187114929E+03  0.74814888809E+03  0.00000000000E+00 0.  1.
         -3    1    6    6    0  502  0.72488612018E+02  0.11151603607E+03  0.33966621486E+02  0.13727401993E+03  0.00000000000E+00 0.  1.
<mgrwt>
<rscale>  0 0.13956008E+04</rscale>
<asrwt>0</asrwt>
<pdfrwt beam="1">  1        2 0.30190657E+00 0.13956008E+04</pdfrwt>
<pdfrwt beam="2">  1       -2 0.38173601E-01 0.13956008E+04</pdfrwt>
<totfact> 0.44248697E+01</totfact>
</mgrwt>
</event>
<event>
12    1  0.1504874E-007  0.2296286E+04  0.7818608E-02  0.8479387E-01
          2   -1    0    0  501    0  0.00000000000E+00  0.00000000000E+00  0.32106598301E+04  0.32106598301E+04  0.00000000000E+00 0. -1.
         -2   -1    0    0    0  501 -0.00000000000E+00 -0.00000000000E+00 -0.41057972967E+03  0.41057972967E+03  0.00000000000E+00 0.  1.
         23    2    1    2    0    0  0.89515065999E+03 -0.54207428672E+02  0.17612669011E+04  0.19782398260E+04  0.84490017133E+02 0.  0.
        254    2    1    2    0    0 -0.89515065999E+03  0.54207428672E+02  0.10388131993E+04  0.16429997337E+04  0.90337263214E+03 0.  0.
        -24    2    4    4    0    0 -0.39050724726E+03  0.25322846303E+03  0.98352371418E+03  0.10910795536E+04  0.80716363859E+02 0.  0.
         24    2    4    4    0    0 -0.50464341274E+03 -0.19902103435E+03  0.55289485123E+02  0.55192018005E+03  0.85349937632E+02 0.  0.
         11    1    3    3    0    0  0.91826398860E+02  0.15802235996E+02  0.15293058487E+03  0.17907976429E+03  0.00000000000E+00 0.  1.
        -11    1    3    3    0    0  0.80332426113E+03 -0.70009664668E+02  0.16083363162E+04  0.17991600617E+04  0.00000000000E+00 0. -1.
          4    1    6    6  502    0 -0.47352973767E+03 -0.20732381121E+03  0.51108174211E+02  0.51944741854E+03  0.00000000000E+00 0. -1.
          3    1    5    5  503    0 -0.19938426171E+03  0.13602018917E+03  0.41712995252E+03  0.48192631488E+03  0.00000000000E+00 0. -1.
         -4    1    5    5    0  503 -0.19112298554E+03  0.11720827386E+03  0.56639376166E+03  0.60915323877E+03  0.00000000000E+00 0.  1.
         -3    1    6    6    0  502 -0.31113675065E+02  0.83027768586E+01  0.41813109125E+01  0.32472761517E+02  0.00000000000E+00 0.  1.
<mgrwt>
<rscale>  0 0.22962856E+04</rscale>
<asrwt>0</asrwt>
<pdfrwt beam="1">  1        2 0.49394765E+00 0.22962856E+04</pdfrwt>
<pdfrwt beam="2">  1       -2 0.63166114E-01 0.22962856E+04</pdfrwt>
<totfact> 0.26905842E+00</totfact>
</mgrwt>
</event>
<event>
12    1  0.1504874E-007  0.2030649E+04  0.7818608E-02  0.8592424E-01
         -3   -1    0    0    0  501 -0.00000000000E+00  0.00000000000E+00  0.17238550456E+04  0.17238550456E+04  0.00000000000E+00 0.  1.
          3   -1    0    0  501    0  0.00000000000E+00 -0.00000000000E+00 -0.59801060061E+03  0.59801060061E+03  0.00000000000E+00 0. -1.
         23    2    1    2    0    0  0.62352926567E+03 -0.40362726498E+03  0.82704188530E+03  0.11153123581E+04  0.90662350716E+02 0.  0.
        254    2    1    2    0    0 -0.62352926567E+03  0.40362726498E+03  0.29880255968E+03  0.12065532881E+04  0.90265394990E+03 0.  0.
        -24    2    4    4    0    0 -0.80279647497E+02  0.58107005213E+03  0.16760252143E+03  0.61531061866E+03  0.80183071519E+02 0.  0.
         24    2    4    4    0    0 -0.54324961817E+03 -0.17744278715E+03  0.13120003825E+03  0.59124266948E+03  0.75817899119E+02 0.  0.
         11    1    3    3    0    0  0.27508548750E+03 -0.15850466174E+03  0.41612594357E+03  0.52340859196E+03  0.00000000000E+00 0. -1.
        -11    1    3    3    0    0  0.34844377817E+03 -0.24512260324E+03  0.41091594173E+03  0.59190376611E+03  0.00000000000E+00 0.  1.
          4    1    6    6  502    0 -0.76156112110E+02 -0.22500039460E+02 -0.80019981572E+01  0.79812512564E+02  0.00000000000E+00 0. -1.
          1    1    5    5  503    0 -0.50764044341E+02  0.22049263159E+03  0.99503014185E+02  0.24717370130E+03  0.00000000000E+00 0. -1.
         -2    1    5    5    0  503 -0.29515603156E+02  0.36057742054E+03  0.68099507246E+02  0.36813691736E+03  0.00000000000E+00 0.  1.
         -3    1    6    6    0  502 -0.46709350606E+03 -0.15494274769E+03  0.13920203641E+03  0.51143015692E+03  0.00000000000E+00 0.  1.
<mgrwt>
<rscale>  0 0.20306488E+04</rscale>
<asrwt>0</asrwt>
<pdfrwt beam="1">  1        3 0.92001631E-01 0.20306488E+04</pdfrwt>
<pdfrwt beam="2">  1       -3 0.26520847E+00 0.20306488E+04</pdfrwt>
<totfact> 0.15359779E-01</totfact>
</mgrwt>
</event>
<event>
12    1  0.1504874E-007  0.1980443E+04  0.7818608E-02  0.8615819E-01
          1   -1    0    0  501    0  0.00000000000E+00  0.00000000000E+00  0.23251955959E+04  0.23251955959E+04  0.00000000000E+00 0. -1.
         -1   -1    0    0    0  501 -0.00000000000E+00 -0.00000000000E+00 -0.42170145255E+03  0.42170145255E+03  0.00000000000E+00 0.  1.
         23    2    1    2    0    0  0.60604741732E+03  0.75132185265E+02  0.14355132687E+04  0.15627070244E+04  0.91741932869E+02 0.  0.
        254    2    1    2    0    0 -0.60604741732E+03 -0.75132185265E+02  0.46798087468E+03  0.11841900241E+04  0.90020086466E+03 0.  0.
        -24    2    4    4    0    0 -0.49235704841E+03 -0.40382811657E+03  0.63752035763E+02  0.64498770092E+03  0.80325596301E+02 0.  0.
         24    2    4    4    0    0 -0.11369036891E+03  0.32869593131E+03  0.40422883892E+03  0.53920232316E+03  0.79822777687E+02 0.  0.
         13    1    3    3    0    0  0.30116491297E+03  0.26559424872E+02  0.82327635781E+03  0.87703458836E+03  0.00000000000E+00 0. -1.
        -13    1    3    3    0    0  0.30488250435E+03  0.48572760392E+02  0.61223691089E+03  0.68567243606E+03  0.00000000000E+00 0.  1.
          2    1    6    6  502    0 -0.15018380880E+02  0.15247171824E+03  0.14884178982E+03  0.21360490403E+03  0.00000000000E+00 0. -1.
          1    1    5    5  503    0 -0.43885938801E+03 -0.35584349844E+03  0.81808299108E+02  0.57088944256E+03  0.00000000000E+00 0. -1.
         -2    1    5    5    0  503 -0.53497660395E+02 -0.47984618137E+02 -0.18056263345E+02  0.74098258357E+02  0.00000000000E+00 0.  1.
         -1    1    6    6    0  502 -0.98671988035E+02  0.17622421306E+03  0.25538704910E+03  0.32559741913E+03  0.00000000000E+00 0.  1.
<mgrwt>
<rscale>  0 0.19804427E+04</rscale>
<asrwt>0</asrwt>
<pdfrwt beam="1">  1        1 0.35772239E+00 0.19804427E+04</pdfrwt>
<pdfrwt beam="2">  1       -1 0.64877148E-01 0.19804427E+04</pdfrwt>
<totfact> 0.40043442E+00</totfact>
</mgrwt>
</event>
<event>
12    1  0.1504874E-007  0.1951531E+04  0.7818608E-02  0.8629623E-01
         -2   -1    0    0    0  501 -0.00000000000E+00  0.00000000000E+00  0.19304073757E+03  0.19304073757E+03  0.00000000000E+00 0.  1.
          2   -1    0    0  501    0  0.00000000000E+00 -0.00000000000E+00 -0.49322147228E+04  0.49322147228E+04  0.00000000000E+00 0. -1.
         23    2    1    2    0    0 -0.10755479925E+03 -0.67701521324E+03 -0.93932212795E+03  0.11664724511E+04  0.91729413482E+02 0.  0.
        254    2    1    2    0    0  0.10755479925E+03  0.67701521324E+03 -0.37998518573E+04  0.39587830093E+04  0.87359667091E+03 0.  0.
        -24    2    4    4    0    0 -0.14300367091E+03  0.31777503061E+03 -0.31538481777E+04  0.31740302506E+04  0.79238148451E+02 0.  0.
         24    2    4    4    0    0  0.25055847016E+03  0.35924018263E+03 -0.64600367964E+03  0.78475275867E+03  0.81750121352E+02 0.  0.
         11    1    3    3    0    0 -0.28016950323E+02 -0.39083737985E+03 -0.48232458721E+03  0.62143045823E+03  0.00000000000E+00 0.  1.
        -11    1    3    3    0    0 -0.79537848929E+02 -0.28617783339E+03 -0.45699754074E+03  0.54504199286E+03  0.00000000000E+00 0. -1.
          4    1    6    6  502    0  0.13497106539E+03  0.14457065861E+03 -0.34184116496E+03  0.39493448303E+03  0.00000000000E+00 0. -1.
          1    1    5    5  503    0 -0.10293311752E+03  0.23361981991E+03 -0.19612943573E+04  0.19778394786E+04  0.00000000000E+00 0. -1.
         -2    1    5    5    0  503 -0.40070553389E+02  0.84155210699E+02 -0.11925538203E+04  0.11961907720E+04  0.00000000000E+00 0.  1.
         -3    1    6    6    0  502  0.11558740477E+03  0.21466952402E+03 -0.30416251467E+03  0.38981827564E+03  0.00000000000E+00 0.  1.
<mgrwt>
<rscale>  0 0.19515311E+04</rscale>
<asrwt>0</asrwt>
<pdfrwt beam="1">  1        2 0.75880219E+00 0.19515311E+04</pdfrwt>
<pdfrwt beam="2">  1       -2 0.29698578E-01 0.19515311E+04</pdfrwt>
<totfact> 0.41662523E-01</totfact>
</mgrwt>
</event>
<event>
12    1  0.1504874E-007  0.1286723E+04  0.7818608E-02  0.9040161E-01
          2   -1    0    0  501    0  0.00000000000E+00  0.00000000000E+00  0.33615880823E+04  0.33615880823E+04  0.00000000000E+00 0. -1.
         -2   -1    0    0    0  501 -0.00000000000E+00 -0.00000000000E+00 -0.12313042675E+03  0.12313042675E+03  0.00000000000E+00 0.  1.
         23    2    1    2    0    0 -0.28172440362E+03  0.20090485264E+02  0.11219015258E+04  0.11603957699E+04  0.89905739434E+02 0.  0.
        254    2    1    2    0    0  0.28172440362E+03 -0.20090485264E+02  0.21165561298E+04  0.23243227392E+04  0.91809263052E+03 0.  0.
        -24    2    4    4    0    0 -0.25533480527E+03  0.23777047350E+03  0.73228537322E+03  0.81518483934E+03  0.80955503833E+02 0.  0.
         24    2    4    4    0    0  0.53705920889E+03 -0.25786095877E+03  0.13842707566E+04  0.15091378999E+04  0.79792263991E+02 0.  0.
         11    1    3    3    0    0 -0.22738633523E+03  0.40408146692E+02  0.98495081251E+03  0.10116647008E+04  0.00000000000E+00 0. -1.
        -11    1    3    3    0    0 -0.54338068389E+02 -0.20317661428E+02  0.13695071327E+03  0.14873106907E+03  0.00000000000E+00 0.  1.
          4    1    6    6  502    0  0.10388088943E+03 -0.81962126323E+02  0.26697694159E+03  0.29796932171E+03  0.00000000000E+00 0. -1.
          1    1    5    5  503    0 -0.25865763209E+03  0.24084032402E+03  0.72582782290E+03  0.80730035353E+03  0.00000000000E+00 0. -1.
         -2    1    5    5    0  503  0.33228268220E+01 -0.30698505188E+01  0.64575503173E+01  0.78844858042E+01  0.00000000000E+00 0.  1.
         -3    1    6    6    0  502  0.43317831946E+03 -0.17589883244E+03  0.11172938150E+04  0.12111685782E+04  0.00000000000E+00 0.  1.
<mgrwt>
<rscale>  0 0.12867226E+04</rscale>
<asrwt>0</asrwt>
<pdfrwt beam="1">  1        2 0.51716733E+00 0.12867226E+04</pdfrwt>
<pdfrwt beam="2">  1       -2 0.18943145E-01 0.12867226E+04</pdfrwt>
<totfact> 0.23788409E+01</totfact>
</mgrwt>
</event>
<event>
12    1  0.1504874E-007  0.1320848E+04  0.7818608E-02  0.9013194E-01
          2   -1    0    0  501    0  0.00000000000E+00  0.00000000000E+00  0.20097825006E+04  0.20097825006E+04  0.00000000000E+00 0.  1.
         -2   -1    0    0    0  501 -0.00000000000E+00 -0.00000000000E+00 -0.21701844295E+03  0.21701844295E+03  0.00000000000E+00 0. -1.
         23    2    1    2    0    0 -0.15757338461E+03 -0.18709627586E+03  0.75454836762E+02  0.27153782001E+03  0.90581274691E+02 0.  0.
        254    2    1    2    0    0  0.15757338461E+03  0.18709627586E+03  0.17173092209E+04  0.19552631235E+04  0.90225746556E+03 0.  0.
        -24    2    4    4    0    0  0.22933273898E+03 -0.78747564333E+02  0.45460967364E+02  0.25936766610E+03  0.80063740905E+02 0.  0.
         24    2    4    4    0    0 -0.71759354368E+02  0.26584384019E+03  0.16718482535E+04  0.16958954574E+04  0.71850312873E+02 0.  0.
         13    1    3    3    0    0 -0.13938130297E+03 -0.15038475823E+03  0.25029100389E+02  0.20656519308E+03  0.00000000000E+00 0. -1.
        -13    1    3    3    0    0 -0.18192081644E+02 -0.36711517626E+02  0.50425736373E+02  0.64972626927E+02  0.00000000000E+00 0.  1.
          4    1    6    6  502    0 -0.66093374116E+02  0.25592089213E+03  0.14595747202E+04  0.14833145995E+04  0.00000000000E+00 0. -1.
          3    1    5    5  503    0  0.17580047015E+03 -0.21726048289E+02  0.32048690964E+02  0.18001373578E+03  0.00000000000E+00 0. -1.
         -4    1    5    5    0  503  0.53532268832E+02 -0.57021516044E+02  0.13412276400E+02  0.79353930315E+02  0.00000000000E+00 0.  1.
         -3    1    6    6    0  502 -0.56659802521E+01  0.99229480634E+01  0.21227353332E+03  0.21258085798E+03  0.00000000000E+00 0.  1.
<mgrwt>
<rscale>  0 0.13208480E+04</rscale>
<asrwt>0</asrwt>
<pdfrwt beam="1">  1        2 0.30919730E+00 0.13208480E+04</pdfrwt>
<pdfrwt beam="2">  1       -2 0.33387454E-01 0.13208480E+04</pdfrwt>
<totfact> 0.54179115E+01</totfact>
</mgrwt>
</event>
<event>
12    1  0.1504874E-007  0.3195451E+04  0.7818608E-02  0.8190020E-01
          2   -1    0    0  501    0  0.00000000000E+00  0.00000000000E+00  0.36451836243E+04  0.36451836243E+04  0.00000000000E+00 0. -1.
         -2   -1    0    0    0  501 -0.00000000000E+00 -0.00000000000E+00 -0.70030140692E+03  0.70030140692E+03  0.00000000000E+00 0.  1.
         23    2    1    2    0    0 -0.12299733464E+04  0.68801174167E+02  0.26238344952E+03  0.12622704364E+04  0.83147734008E+02 0.  0.
        254    2    1    2    0    0  0.12299733464E+04 -0.68801174167E+02  0.26824987679E+04  0.30832145948E+04  0.89041819595E+03 0.  0.
        -24    2    4    4    0    0  0.29106930442E+03 -0.10162297296E+03  0.16683492757E+04  0.16984923131E+04  0.80238790820E+02 0.  0.
         24    2    4    4    0    0  0.93890404197E+03  0.32821798798E+02  0.10141494922E+04  0.13847222817E+04  0.79614912915E+02 0.  0.
         11    1    3    3    0    0 -0.57608449102E+03 -0.26069258242E+01  0.14563617695E+03  0.59421379393E+03  0.00000000000E+00 0. -1.
        -11    1    3    3    0    0 -0.65388885536E+03  0.71408099991E+02  0.11674727257E+03  0.66805664248E+03  0.00000000000E+00 0.  1.
          4    1    6    6  502    0  0.68024561674E+03 -0.11770703699E+02  0.72743728840E+03  0.99601087199E+03  0.00000000000E+00 0. -1.
          3    1    5    5  503    0  0.29532270122E+03 -0.10288590594E+03  0.16178447269E+04  0.16477932418E+04  0.00000000000E+00 0. -1.
         -4    1    5    5    0  503 -0.42533967965E+01  0.12629329769E+01  0.50504548814E+02  0.50699071342E+02  0.00000000000E+00 0.  1.
         -3    1    6    6    0  502  0.25865842523E+03  0.44592502496E+02  0.28671220383E+03  0.38871140971E+03  0.00000000000E+00 0.  1.
<mgrwt>
<rscale>  0 0.31954513E+04</rscale>
<asrwt>0</asrwt>
<pdfrwt beam="1">  1        2 0.56079747E+00 0.31954513E+04</pdfrwt>
<pdfrwt beam="2">  1       -2 0.10773868E+00 0.31954513E+04</pdfrwt>
<totfact> 0.37213582E-01</totfact>
</mgrwt>
</event>
<event>
12    1  0.1504874E-007  0.1184148E+04  0.7818608E-02  0.9126846E-01
          1   -1    0    0  501    0  0.00000000000E+00  0.00000000000E+00  0.14005721993E+04  0.14005721993E+04  0.00000000000E+00 0. -1.
         -1   -1    0    0    0  501 -0.00000000000E+00 -0.00000000000E+00 -0.25029167544E+03  0.25029167544E+03  0.00000000000E+00 0.  1.
         23    2    1    2    0    0  0.16122252707E+03  0.12473527514E+03  0.41664623296E+03  0.47343176661E+03  0.94825956888E+02 0.  0.
        254    2    1    2    0    0 -0.16122252707E+03 -0.12473527514E+03  0.73363429090E+03  0.11774321081E+04  0.89809548734E+03 0.  0.
        -24    2    4    4    0    0  0.31093418101E+02 -0.47863908152E+02 -0.19690142354E+03  0.22081079720E+03  0.82033427406E+02 0.  0.
         24    2    4    4    0    0 -0.19231594517E+03 -0.76871366990E+02  0.93053571444E+03  0.95662131094E+03  0.79580065708E+02 0.  0.
         13    1    3    3    0    0 -0.95807622933E+01  0.31656881340E+01  0.45423141274E+01  0.11065496153E+02  0.00000000000E+00 0.  1.
        -13    1    3    3    0    0  0.17080328936E+03  0.12156958701E+03  0.41210391883E+03  0.46236627046E+03  0.00000000000E+00 0. -1.
          4    1    6    6  502    0 -0.58130412249E+00 -0.22513247906E+02  0.10146187825E+03  0.10393121275E+03  0.00000000000E+00 0. -1.
          3    1    5    5  503    0 -0.12516725166E+00 -0.18379948767E+02  0.89964788283E+00  0.18402378917E+02  0.00000000000E+00 0. -1.
         -4    1    5    5    0  503  0.31218585353E+02 -0.29483959385E+02 -0.19780107143E+03  0.20240841828E+03  0.00000000000E+00 0.  1.
         -3    1    6    6    0  502 -0.19173464105E+03 -0.54358119083E+02  0.82907383619E+03  0.85269009818E+03  0.00000000000E+00 0.  1.
<mgrwt>
<rscale>  0 0.11841479E+04</rscale>
<asrwt>0</asrwt>
<pdfrwt beam="1">  1        1 0.21547264E+00 0.11841479E+04</pdfrwt>
<pdfrwt beam="2">  1       -1 0.38506412E-01 0.11841479E+04</pdfrwt>
<totfact> 0.49639670E+01</totfact>
</mgrwt>
</event>
<event>
12    1  0.1504874E-007  0.3279085E+04  0.7818608E-02  0.8168238E-01
         -1   -1    0    0    0  501 -0.00000000000E+00  0.00000000000E+00  0.15784199893E+04  0.15784199893E+04  0.00000000000E+00 0.  1.
          1   -1    0    0  501    0  0.00000000000E+00 -0.00000000000E+00 -0.17030322797E+04  0.17030322797E+04  0.00000000000E+00 0. -1.
         23    2    1    2    0    0  0.56298836445E+03 -0.25637424906E+03  0.13258703241E+04  0.14658961834E+04  0.90751584321E+02 0.  0.
        254    2    1    2    0    0 -0.56298836445E+03  0.25637424906E+03 -0.14504826145E+04  0.18155560856E+04  0.89981133073E+03 0.  0.
        -24    2    4    4    0    0 -0.29773083976E+03 -0.30179559890E+03 -0.83653431061E+03  0.94055903903E+03  0.71675774199E+02 0.  0.
         24    2    4    4    0    0 -0.26525752469E+03  0.55816984796E+03 -0.61394830389E+03  0.87499704658E+03  0.82293244496E+02 0.  0.
         11    1    3    3    0    0  0.39555662547E+03 -0.16908453322E+03  0.10115529347E+04  0.10992242551E+04  0.00000000000E+00 0.  1.
        -11    1    3    3    0    0  0.16743173898E+03 -0.87289715837E+02  0.31431738946E+03  0.36667192833E+03  0.00000000000E+00 0. -1.
          4    1    6    6  502    0 -0.21930951276E+03  0.38380647409E+03 -0.41218517965E+03  0.60440110379E+03  0.00000000000E+00 0. -1.
          3    1    5    5  503    0 -0.29933108719E+03 -0.29745573681E+03 -0.80709601993E+03  0.91075957338E+03  0.00000000000E+00 0. -1.
         -4    1    5    5    0  503  0.16002474222E+01 -0.43398620960E+01 -0.29438290679E+02  0.29799465649E+02  0.00000000000E+00 0.  1.
         -3    1    6    6    0  502 -0.45948011925E+02  0.17436337387E+03 -0.20176312425E+03  0.27059594279E+03  0.00000000000E+00 0.  1.
<mgrwt>
<rscale>  0 0.32790854E+04</rscale>
<asrwt>0</asrwt>
<pdfrwt beam="1">  1        1 0.26200497E+00 0.32790854E+04</pdfrwt>
<pdfrwt beam="2">  1       -1 0.24283384E+00 0.32790854E+04</pdfrwt>
<totfact> 0.30620404E-01</totfact>
</mgrwt>
</event>
<event>
12    1  0.1504874E-007  0.1111024E+04  0.7818608E-02  0.9194513E-01
          2   -1    0    0  501    0  0.00000000000E+00  0.00000000000E+00  0.74345016037E+03  0.74345016037E+03  0.00000000000E+00 0. -1.
         -2   -1    0    0    0  501 -0.00000000000E+00 -0.00000000000E+00 -0.41508303899E+03  0.41508303899E+03  0.00000000000E+00 0.  1.
         23    2    1    2    0    0  0.13758271681E+03  0.30993547257E+02  0.15962293393E+03  0.23168821768E+03  0.91161094992E+02 0.  0.
        254    2    1    2    0    0 -0.13758271681E+03 -0.30993547257E+02  0.16874418745E+03  0.92684498169E+03  0.90037626321E+03 0.  0.
        -24    2    4    4    0    0 -0.29223152665E+03 -0.30675875198E+03 -0.16388332166E+03  0.46070262143E+03  0.76739593373E+02 0.  0.
         24    2    4    4    0    0  0.15464880984E+03  0.27576520472E+03  0.33262750911E+03  0.46614236026E+03  0.81761468243E+02 0.  0.
         13    1    3    3    0    0  0.85529221439E+02 -0.27242838942E+02  0.88335276693E+02  0.12593864023E+03  0.00000000000E+00 0. -1.
        -13    1    3    3    0    0  0.52053495369E+02  0.58236386199E+02  0.71287657233E+02  0.10574957745E+03  0.00000000000E+00 0.  1.
          2    1    6    6  502    0  0.13446311325E+03  0.27000274304E+03  0.28903889435E+03  0.41776224401E+03  0.00000000000E+00 0. -1.
          3    1    5    5  503    0 -0.17910461733E+03 -0.22739518325E+03 -0.13560610180E+03  0.31964988372E+03  0.00000000000E+00 0. -1.
         -4    1    5    5    0  503 -0.11312690932E+03 -0.79363568729E+02 -0.28277219855E+02  0.14105273771E+03  0.00000000000E+00 0.  1.
         -1    1    6    6    0  502  0.20185696589E+02  0.57624616876E+01  0.43588614768E+02  0.48380116255E+02  0.00000000000E+00 0.  1.
<mgrwt>
<rscale>  0 0.11110239E+04</rscale>
<asrwt>0</asrwt>
<pdfrwt beam="1">  1        2 0.11437695E+00 0.11110239E+04</pdfrwt>
<pdfrwt beam="2">  1       -2 0.63858929E-01 0.11110239E+04</pdfrwt>
<totfact> 0.85387945E+01</totfact>
</mgrwt>
</event>
<event>
12    1  0.1504874E-007  0.1213548E+04  0.7818608E-02  0.9101080E-01
         -2   -1    0    0    0  501 -0.00000000000E+00  0.00000000000E+00  0.19314675443E+03  0.19314675443E+03  0.00000000000E+00 0.  1.
          2   -1    0    0  501    0  0.00000000000E+00 -0.00000000000E+00 -0.19061908894E+04  0.19061908894E+04  0.00000000000E+00 0. -1.
         23    2    1    2    0    0  0.88949076951E+02 -0.11133488306E+03  0.23624003618E+01  0.16939901324E+03  0.91558998874E+02 0.  0.
        254    2    1    2    0    0 -0.88949076951E+02  0.11133488306E+03 -0.17154065354E+04  0.19299386306E+04  0.87277496635E+03 0.  0.
        -24    2    4    4    0    0  0.56678756222E+02 -0.35892080899E+03 -0.90428302215E+03  0.97769295557E+03  0.78224693496E+02 0.  0.
         24    2    4    4    0    0 -0.14562783317E+03  0.47025569206E+03 -0.81112351320E+03  0.95224567504E+03  0.80638639954E+02 0.  0.
         13    1    3    3    0    0 -0.13816997443E+02 -0.83598412468E+01 -0.16036868876E+02  0.22759119653E+02  0.00000000000E+00 0. -1.
        -13    1    3    3    0    0  0.10276607439E+03 -0.10297504182E+03  0.18399269238E+02  0.14663989359E+03  0.00000000000E+00 0.  1.
          2    1    6    6  502    0 -0.70130076197E+02  0.16081355311E+03 -0.22667098448E+03  0.28663384597E+03  0.00000000000E+00 0. -1.
          1    1    5    5  503    0  0.48352357561E+00 -0.39460437480E+02 -0.48666630157E+02  0.62656211280E+02  0.00000000000E+00 0. -1.
         -2    1    5    5    0  503  0.56195232647E+02 -0.31946037151E+03 -0.85561639200E+03  0.91503674429E+03  0.00000000000E+00 0.  1.
         -1    1    6    6    0  502 -0.75497756976E+02  0.30944213895E+03 -0.58445252873E+03  0.66561182907E+03  0.00000000000E+00 0.  1.
<mgrwt>
<rscale>  0 0.12135478E+04</rscale>
<asrwt>0</asrwt>
<pdfrwt beam="1">  1        2 0.29326013E+00 0.12135478E+04</pdfrwt>
<pdfrwt beam="2">  1       -2 0.29714886E-01 0.12135478E+04</pdfrwt>
<totfact> 0.77587121E+01</totfact>
</mgrwt>
</event>
<event>
12    1  0.1504874E-007  0.2084856E+04  0.7818608E-02  0.8567944E-01
         -1   -1    0    0    0  501 -0.00000000000E+00  0.00000000000E+00  0.38326092449E+04  0.38326092449E+04  0.00000000000E+00 0.  1.
          1   -1    0    0  501    0  0.00000000000E+00 -0.00000000000E+00 -0.28352899356E+03  0.28352899356E+03  0.00000000000E+00 0. -1.
         23    2    1    2    0    0 -0.14592616299E+03 -0.69512609569E+03  0.23426968675E+04  0.24511133410E+04  0.12342310718E+03 0.  0.
        254    2    1    2    0    0  0.14592616299E+03  0.69512609569E+03  0.12063833838E+04  0.16650248975E+04  0.90136136288E+03 0.  0.
        -24    2    4    4    0    0  0.40399712741E+03  0.67668488079E+03  0.11356361576E+04  0.13846683462E+04  0.80751715707E+02 0.  0.
         24    2    4    4    0    0 -0.25807096442E+03  0.18441214901E+02  0.70747226177E+02  0.28035655127E+03  0.81571592750E+02 0.  0.
         13    1    3    3    0    0 -0.14300610935E+03 -0.61379413125E+03  0.21788572065E+04  0.22681738711E+04  0.00000000000E+00 0.  1.
        -13    1    3    3    0    0 -0.29200536423E+01 -0.81331964436E+02  0.16383966101E+03  0.18293946997E+03  0.00000000000E+00 0. -1.
          4    1    6    6  502    0 -0.10896585575E+03 -0.73055065706E+01  0.68717801957E+02  0.12903125378E+03  0.00000000000E+00 0. -1.
          3    1    5    5  503    0  0.27449182976E+03  0.49844783126E+03  0.76382065991E+03  0.95247992399E+03  0.00000000000E+00 0. -1.
         -4    1    5    5    0  503  0.12950529765E+03  0.17823704952E+03  0.37181549772E+03  0.43218842221E+03  0.00000000000E+00 0.  1.
         -3    1    6    6    0  502 -0.14910510867E+03  0.25746721471E+02  0.20294242203E+01  0.15132529749E+03  0.00000000000E+00 0.  1.
<mgrwt>
<rscale>  0 0.20848557E+04</rscale>
<asrwt>0</asrwt>
<pdfrwt beam="1">  1        1 0.43619848E-01 0.20848557E+04</pdfrwt>
<pdfrwt beam="2">  1       -1 0.58963216E+00 0.20848557E+04</pdfrwt>
<totfact> 0.41389775E-02</totfact>
</mgrwt>
</event>
<event>
12    1  0.1504874E-007  0.1503791E+04  0.7818608E-02  0.8881936E-01
          1   -1    0    0  501    0  0.00000000000E+00  0.00000000000E+00  0.13491395153E+04  0.13491395153E+04  0.00000000000E+00 0. -1.
         -1   -1    0    0    0  501 -0.00000000000E+00 -0.00000000000E+00 -0.41904243961E+03  0.41904243961E+03  0.00000000000E+00 0.  1.
         23    2    1    2    0    0  0.13251210742E+03 -0.24090074054E+03  0.73988722711E+03  0.79439451738E+03  0.89648842701E+02 0.  0.
        254    2    1    2    0    0 -0.13251210742E+03  0.24090074054E+03  0.19020984857E+03  0.97378743753E+03  0.91459803279E+03 0.  0.
        -24    2    4    4    0    0  0.31301804069E+02 -0.33499128616E+03  0.12701454906E+03  0.36641597227E+03  0.70206868055E+02 0.  0.
         24    2    4    4    0    0 -0.16381391149E+03  0.57589202670E+03  0.63195299513E+02  0.60737146525E+03  0.80123822334E+02 0.  0.
         13    1    3    3    0    0  0.55951950250E+02 -0.27323121091E+02  0.16450929512E+03  0.17589906726E+03  0.00000000000E+00 0.  1.
        -13    1    3    3    0    0  0.76560157171E+02 -0.21357761945E+03  0.57537793199E+03  0.61849545012E+03  0.00000000000E+00 0. -1.
          2    1    6    6  502    0  0.76313920074E+01  0.57178418364E+02  0.31915629563E+01  0.57773659610E+02  0.00000000000E+00 0. -1.
          3    1    5    5  503    0  0.17381150869E+02 -0.31854625013E+02  0.32139234284E+02  0.48474239764E+02  0.00000000000E+00 0. -1.
         -4    1    5    5    0  503  0.13920653200E+02 -0.30313666115E+03  0.94875314776E+02  0.31794173251E+03  0.00000000000E+00 0.  1.
         -1    1    6    6    0  502 -0.17144530350E+03  0.51871360834E+03  0.60003736557E+02  0.54959780564E+03  0.00000000000E+00 0.  1.
<mgrwt>
<rscale>  0 0.15037908E+04</rscale>
<asrwt>0</asrwt>
<pdfrwt beam="1">  1        1 0.20755992E+00 0.15037908E+04</pdfrwt>
<pdfrwt beam="2">  1       -1 0.64468068E-01 0.15037908E+04</pdfrwt>
<totfact> 0.19689116E+01</totfact>
</mgrwt>
</event>
<event>
12    1  0.1504874E-007  0.1236650E+04  0.7818608E-02  0.9081368E-01
          1   -1    0    0  501    0  0.00000000000E+00  0.00000000000E+00  0.11141260765E+04  0.11141260765E+04  0.00000000000E+00 0. -1.
         -1   -1    0    0    0  501 -0.00000000000E+00 -0.00000000000E+00 -0.34316226291E+03  0.34316226291E+03  0.00000000000E+00 0.  1.
         23    2    1    2    0    0  0.12717039523E+03 -0.23384325795E+03  0.27183700636E+03  0.39131719054E+03  0.91535822865E+02 0.  0.
        254    2    1    2    0    0 -0.12717039523E+03  0.23384325795E+03  0.49912680724E+03  0.10659711489E+04  0.90349982946E+03 0.  0.
        -24    2    4    4    0    0 -0.63926805874E+02  0.57166400598E+03  0.37722664845E+03  0.69290499118E+03  0.83252689219E+02 0.  0.
         24    2    4    4    0    0 -0.63243589361E+02 -0.33782074802E+03  0.12190015879E+03  0.37306615770E+03  0.78715309308E+02 0.  0.
         13    1    3    3    0    0  0.10786160962E+03 -0.20886865015E+03  0.18568935029E+03  0.29956764621E+03  0.00000000000E+00 0. -1.
        -13    1    3    3    0    0  0.19308785614E+02 -0.24974607800E+02  0.86147656075E+02  0.91749544325E+02  0.00000000000E+00 0.  1.
          4    1    6    6  502    0 -0.18478530692E+02 -0.17570633597E+02 -0.44687571072E+01  0.25887314493E+02  0.00000000000E+00 0. -1.
          1    1    5    5  503    0 -0.28641209883E+02  0.25232443139E+03  0.21627479907E+03  0.33356067857E+03  0.00000000000E+00 0. -1.
         -2    1    5    5    0  503 -0.35285595991E+02  0.31933957459E+03  0.16095184938E+03  0.35934431261E+03  0.00000000000E+00 0.  1.
         -3    1    6    6    0  502 -0.44765058668E+02 -0.32025011442E+03  0.12636891590E+03  0.34717884321E+03  0.00000000000E+00 0.  1.
<mgrwt>
<rscale>  0 0.12366504E+04</rscale>
<asrwt>0</asrwt>
<pdfrwt beam="1">  1        1 0.17140401E+00 0.12366504E+04</pdfrwt>
<pdfrwt beam="2">  1       -1 0.52794195E-01 0.12366504E+04</pdfrwt>
<totfact> 0.44159380E+01</totfact>
</mgrwt>
</event>
<event>
12    1  0.1504874E-007  0.1338646E+04  0.7818608E-02  0.8999467E-01
          1   -1    0    0  501    0  0.00000000000E+00  0.00000000000E+00  0.12579962223E+04  0.12579962223E+04  0.00000000000E+00 0. -1.
         -1   -1    0    0    0  501 -0.00000000000E+00 -0.00000000000E+00 -0.35611675196E+03  0.35611675196E+03  0.00000000000E+00 0.  1.
         23    2    1    2    0    0  0.34102122615E+03 -0.22653092504E+02  0.37013349128E+03  0.51201510681E+03  0.91389435657E+02 0.  0.
        254    2    1    2    0    0 -0.34102122615E+03  0.22653092504E+02  0.53174597909E+03  0.11020978675E+04  0.90280523035E+03 0.  0.
        -24    2    4    4    0    0 -0.19530057668E+03 -0.18494592470E+03 -0.18597104496E+03  0.33653995591E+03  0.79539939954E+02 0.  0.
         24    2    4    4    0    0 -0.14572064947E+03  0.20759901720E+03  0.71771702404E+03  0.76555791157E+03  0.81420696061E+02 0.  0.
         13    1    3    3    0    0  0.26450318716E+03  0.14933211263E+01  0.22992305489E+03  0.35046936699E+03  0.00000000000E+00 0. -1.
        -13    1    3    3    0    0  0.76518038985E+02 -0.24146413630E+02  0.14021043639E+03  0.16154573982E+03  0.00000000000E+00 0.  1.
          4    1    6    6  502    0 -0.13909296153E+03  0.14089184257E+03  0.50063727321E+03  0.53836329980E+03  0.00000000000E+00 0. -1.
          1    1    5    5  503    0 -0.45803753666E+01 -0.20223620560E+02 -0.40653731421E+02  0.45636614089E+02  0.00000000000E+00 0. -1.
         -2    1    5    5    0  503 -0.19072020131E+03 -0.16472230414E+03 -0.14531731353E+03  0.29090334182E+03  0.00000000000E+00 0.  1.
         -1    1    6    6    0  502 -0.66276879378E+01  0.66707174631E+02  0.21707975084E+03  0.22719461177E+03  0.00000000000E+00 0.  1.
<mgrwt>
<rscale>  0 0.13386464E+04</rscale>
<asrwt>0</asrwt>
<pdfrwt beam="1">  1        1 0.19353788E+00 0.13386464E+04</pdfrwt>
<pdfrwt beam="2">  1       -1 0.54787193E-01 0.13386464E+04</pdfrwt>
<totfact> 0.31975591E+01</totfact>
</mgrwt>
</event>
<event>
12    1  0.1504874E-007  0.1643191E+04  0.7818608E-02  0.8794445E-01
          1   -1    0    0  501    0  0.00000000000E+00  0.00000000000E+00  0.80460934152E+03  0.80460934152E+03  0.00000000000E+00 0. -1.
         -1   -1    0    0    0  501 -0.00000000000E+00 -0.00000000000E+00 -0.83894070409E+03  0.83894070409E+03  0.00000000000E+00 0.  1.
         23    2    1    2    0    0 -0.13829377553E+03 -0.54569528314E+03  0.95130055960E+02  0.57821767024E+03  0.91528335711E+02 0.  0.
        254    2    1    2    0    0  0.13829377553E+03  0.54569528314E+03 -0.12946141854E+03  0.10653323754E+04  0.89513367757E+03 0.  0.
        -24    2    4    4    0    0 -0.26643713360E+03  0.93641404435E+02  0.21416438270E+03  0.36347394949E+03  0.80557248931E+02 0.  0.
         24    2    4    4    0    0  0.40473090913E+03  0.45205387871E+03 -0.34362580124E+03  0.70185842587E+03  0.79791858152E+02 0.  0.
         13    1    3    3    0    0 -0.82704030880E+02 -0.37757722298E+03  0.23610553002E+02  0.38724924048E+03  0.00000000000E+00 0.  1.
        -13    1    3    3    0    0 -0.55589744653E+02 -0.16811806016E+03  0.71519502958E+02  0.19096842976E+03  0.00000000000E+00 0. -1.
          2    1    6    6  502    0  0.39810197244E+01  0.28847016389E+02 -0.17674984474E+02  0.34064702388E+02  0.00000000000E+00 0. -1.
          3    1    5    5  503    0 -0.44933268023E-01  0.10283360007E+02  0.22897794838E+02  0.25100966525E+02  0.00000000000E+00 0. -1.
         -4    1    5    5    0  503 -0.26639220033E+03  0.83358044428E+02  0.19126658787E+03  0.33837298297E+03  0.00000000000E+00 0.  1.
         -1    1    6    6    0  502  0.40074988941E+03  0.42320686232E+03 -0.32595081677E+03  0.66779372349E+03  0.00000000000E+00 0.  1.
<mgrwt>
<rscale>  0 0.16431914E+04</rscale>
<asrwt>0</asrwt>
<pdfrwt beam="1">  1        1 0.12378605E+00 0.16431914E+04</pdfrwt>
<pdfrwt beam="2">  1       -1 0.12906780E+00 0.16431914E+04</pdfrwt>
<totfact> 0.10819103E+01</totfact>
</mgrwt>
</event>
<event>
12    1  0.1504874E-007  0.2870823E+04  0.7818608E-02  0.8281612E-01
         -1   -1    0    0    0  501 -0.00000000000E+00  0.00000000000E+00  0.72190486411E+03  0.72190486411E+03  0.00000000000E+00 0.  1.
          1   -1    0    0  501    0  0.00000000000E+00 -0.00000000000E+00 -0.28541233274E+04  0.28541233274E+04  0.00000000000E+00 0. -1.
         23    2    1    2    0    0  0.84095963914E+03 -0.33371967697E+03 -0.21318365222E+04  0.23176578356E+04  0.90713550191E+02 0.  0.
        254    2    1    2    0    0 -0.84095963914E+03  0.33371967697E+03 -0.38194118032E+00  0.12583703560E+04  0.87459354527E+03 0.  0.
        -24    2    4    4    0    0 -0.92847101698E+03  0.62551670418E+02  0.11444733514E+03  0.94118413541E+03  0.82208535958E+02 0.  0.
         24    2    4    4    0    0  0.87511377838E+02  0.27116800656E+03 -0.11482927632E+03  0.31718622055E+03  0.78936726422E+02 0.  0.
         13    1    3    3    0    0  0.13875366687E+03 -0.36955536301E+02 -0.41621000904E+03  0.44028293558E+03  0.00000000000E+00 0.  1.
        -13    1    3    3    0    0  0.70220597227E+03 -0.29676414067E+03 -0.17156265131E+04  0.18773749000E+04  0.00000000000E+00 0. -1.
          2    1    6    6  502    0  0.58737029299E+02  0.23130767679E+03 -0.12111819775E+03  0.26762454629E+03  0.00000000000E+00 0. -1.
          1    1    5    5  503    0 -0.85595129420E+03  0.46925248308E+02  0.85265465293E+02  0.86146665434E+03  0.00000000000E+00 0. -1.
         -2    1    5    5    0  503 -0.72519722777E+02  0.15626422110E+02  0.29181869850E+02  0.79717481067E+02  0.00000000000E+00 0.  1.
         -1    1    6    6    0  502  0.28774348539E+02  0.39860329768E+02  0.62889214257E+01  0.49561674263E+02  0.00000000000E+00 0.  1.
<mgrwt>
<rscale>  0 0.28708225E+04</rscale>
<asrwt>0</asrwt>
<pdfrwt beam="1">  1        1 0.43909589E+00 0.28708225E+04</pdfrwt>
<pdfrwt beam="2">  1       -1 0.11106229E+00 0.28708225E+04</pdfrwt>
<totfact> 0.48901749E-01</totfact>
</mgrwt>
</event>
<event>
12    1  0.1504874E-007  0.1172446E+04  0.7818608E-02  0.9137322E-01
          1   -1    0    0  501    0  0.00000000000E+00  0.00000000000E+00  0.81115813228E+03  0.81115813228E+03  0.00000000000E+00 0. -1.
         -1   -1    0    0    0  501 -0.00000000000E+00 -0.00000000000E+00 -0.42366253176E+03  0.42366253176E+03  0.00000000000E+00 0.  1.
         23    2    1    2    0    0  0.32919502971E+02  0.40199863244E+02  0.32739484586E+03  0.34398019226E+03  0.91843698166E+02 0.  0.
        254    2    1    2    0    0 -0.32919502971E+02 -0.40199863244E+02  0.60100754662E+02  0.89084047178E+03  0.88729077690E+03 0.  0.
        -24    2    4    4    0    0  0.26721285378E+03 -0.21260368052E+03 -0.24036260324E+03  0.42565096143E+03  0.82471363102E+02 0.  0.
         24    2    4    4    0    0 -0.30013235676E+03  0.17240381727E+03  0.30046335791E+03  0.46518951035E+03  0.79501844715E+02 0.  0.
         13    1    3    3    0    0 -0.21036336643E+01 -0.84024221117E+01 -0.22393980557E+01  0.89465566331E+01  0.00000000000E+00 0.  1.
        -13    1    3    3    0    0  0.35023136635E+02  0.48602285355E+02  0.32963424391E+03  0.33503363563E+03  0.00000000000E+00 0. -1.
          4    1    6    6  502    0 -0.74744343882E+02  0.85415674684E+02  0.99496370124E+02  0.15093734492E+03  0.00000000000E+00 0. -1.
          3    1    5    5  503    0  0.11435573939E+03 -0.12968345111E+03 -0.85931649702E+02  0.19307843236E+03  0.00000000000E+00 0. -1.
         -4    1    5    5    0  503  0.15285711439E+03 -0.82920229412E+02 -0.15443095354E+03  0.23257252907E+03  0.00000000000E+00 0.  1.
         -3    1    6    6    0  502 -0.22538801287E+03  0.86988142591E+02  0.20096698778E+03  0.31425216543E+03  0.00000000000E+00 0.  1.
<mgrwt>
<rscale>  0 0.11724458E+04</rscale>
<asrwt>0</asrwt>
<pdfrwt beam="1">  1        1 0.12479356E+00 0.11724458E+04</pdfrwt>
<pdfrwt beam="2">  1       -1 0.65178851E-01 0.11724458E+04</pdfrwt>
<totfact> 0.51174853E+01</totfact>
</mgrwt>
</event>
<event>
12    1  0.1504874E-007  0.1394784E+04  0.7818608E-02  0.8957603E-01
         -2   -1    0    0    0  501 -0.00000000000E+00  0.00000000000E+00  0.12161454596E+04  0.12161454596E+04  0.00000000000E+00 0.  1.
          2   -1    0    0  501    0  0.00000000000E+00 -0.00000000000E+00 -0.39991558083E+03  0.39991558083E+03  0.00000000000E+00 0. -1.
         23    2    1    2    0    0  0.37573521553E+03 -0.85568300604E+02  0.32256959089E+03  0.51351023899E+03  0.10555916974E+03 0.  0.
        254    2    1    2    0    0 -0.37573521553E+03  0.85568300604E+02  0.49366028790E+03  0.11025508015E+04  0.90742432396E+03 0.  0.
        -24    2    4    4    0    0 -0.43228165288E+03  0.39011423356E+03  0.10049342195E+03  0.59652014468E+03  0.81736237453E+02 0.  0.
         24    2    4    4    0    0  0.56546437353E+02 -0.30454593296E+03  0.39316686595E+03  0.50603065679E+03  0.74438674578E+02 0.  0.
         11    1    3    3    0    0  0.32254663182E+03 -0.62897896603E+02  0.31497674449E+03  0.45519536978E+03  0.00000000000E+00 0.  1.
        -11    1    3    3    0    0  0.53188583707E+02 -0.22670404001E+02  0.75928464040E+01  0.58314869209E+02  0.00000000000E+00 0. -1.
          4    1    6    6  502    0  0.65685858633E+02 -0.18698988661E+03  0.21532201420E+03  0.29264896978E+03  0.00000000000E+00 0. -1.
          1    1    5    5  503    0 -0.33639571326E+03  0.27054963196E+03  0.10058300705E+03  0.44325626962E+03  0.00000000000E+00 0. -1.
         -2    1    5    5    0  503 -0.95885939628E+02  0.11956460160E+03 -0.89585104012E-01  0.15326387506E+03  0.00000000000E+00 0.  1.
         -3    1    6    6    0  502 -0.91394212798E+01 -0.11755604635E+03  0.17784485175E+03  0.21338168700E+03  0.00000000000E+00 0.  1.
<mgrwt>
<rscale>  0 0.13947839E+04</rscale>
<asrwt>0</asrwt>
<pdfrwt beam="1">  1        2 0.61525475E-01 0.13947839E+04</pdfrwt>
<pdfrwt beam="2">  1       -2 0.18709930E+00 0.13947839E+04</pdfrwt>
<totfact> 0.12542582E+01</totfact>
</mgrwt>
</event>
<event>
12    1  0.2346650E-007  0.2160451E+04  0.7818608E-02  0.8535072E-01
          1   -1    0    0  501    0  0.00000000000E+00  0.00000000000E+00  0.20431838828E+04  0.20431838828E+04  0.00000000000E+00 0. -1.
         -1   -1    0    0    0  501 -0.00000000000E+00 -0.00000000000E+00 -0.57111215544E+03  0.57111215544E+03  0.00000000000E+00 0.  1.
         23    2    1    2    0    0  0.87897881101E+03 -0.91870177151E+02  0.49500077828E+03  0.10170899883E+04  0.91664573673E+02 0.  0.
        254    2    1    2    0    0 -0.87897881101E+03  0.91870177151E+02  0.97707094912E+03  0.15972060500E+04  0.90297045739E+03 0.  0.
        -24    2    4    4    0    0 -0.41296678015E+03 -0.35300719150E+03  0.70229970644E+03  0.89146406369E+03  0.79546592816E+02 0.  0.
         24    2    4    4    0    0 -0.46601203087E+03  0.44487736865E+03  0.27477124267E+03  0.70574198632E+03  0.86541489492E+02 0.  0.
         13    1    3    3    0    0  0.66606670672E+03 -0.96023429353E+02  0.34198467984E+03  0.75486348305E+03  0.00000000000E+00 0.  1.
        -13    1    3    3    0    0  0.21291210429E+03  0.41532522017E+01  0.15301609844E+03  0.26222650522E+03  0.00000000000E+00 0. -1.
          4    1    6    6  502    0 -0.37915136113E+03  0.36143730053E+03  0.18504233497E+03  0.55554778606E+03  0.00000000000E+00 0. -1.
          3    1    5    5  503    0 -0.35726725868E+03 -0.30913554887E+03  0.64906445171E+03  0.80280093683E+03  0.00000000000E+00 0. -1.
         -4    1    5    5    0  503 -0.55699521461E+02 -0.43871642633E+02  0.53235254731E+02  0.88663126860E+02  0.00000000000E+00 0.  1.
         -3    1    6    6    0  502 -0.86860669737E+02  0.83440068125E+02  0.89728907703E+02  0.15019420027E+03  0.00000000000E+00 0.  1.
<mgrwt>
<rscale>  0 0.21604510E+04</rscale>
<asrwt>0</asrwt>
<pdfrwt beam="1">  1        1 0.31433598E+00 0.21604510E+04</pdfrwt>
<pdfrwt beam="2">  1       -1 0.87863409E-01 0.21604510E+04</pdfrwt>
<totfact> 0.32449368E+00</totfact>
</mgrwt>
</event>
<event>
12    1  0.1504874E-007  0.2965112E+04  0.7818608E-02  0.8253764E-01
         -2   -1    0    0    0  501 -0.00000000000E+00  0.00000000000E+00  0.59766108229E+03  0.59766108229E+03  0.00000000000E+00 0.  1.
          2   -1    0    0  501    0  0.00000000000E+00 -0.00000000000E+00 -0.36776229884E+04  0.36776229884E+04  0.00000000000E+00 0. -1.
         23    2    1    2    0    0 -0.14392672965E+03  0.71610330791E+03  0.23118844902E+03  0.77149585782E+03  0.90768433726E+02 0.  0.
        254    2    1    2    0    0  0.14392672965E+03 -0.71610330791E+03 -0.33111503551E+04  0.35037882129E+04  0.88277761376E+03 0.  0.
        -24    2    4    4    0    0 -0.25399184530E+03 -0.56901982017E+03 -0.25730343856E+04  0.26485205262E+04  0.76548120529E+02 0.  0.
         24    2    4    4    0    0  0.39791857495E+03 -0.14708348774E+03 -0.73811596949E+03  0.85526768669E+03  0.81822288042E+02 0.  0.
         13    1    3    3    0    0 -0.42322610237E+02  0.15992023558E+03  0.91757206556E+02  0.18916942152E+03  0.00000000000E+00 0. -1.
        -13    1    3    3    0    0 -0.10160411941E+03  0.55618307233E+03  0.13943124246E+03  0.58232643629E+03  0.00000000000E+00 0.  1.
          4    1    6    6  502    0  0.32619566752E+03 -0.11064366646E+03 -0.52949721656E+03  0.63167470804E+03  0.00000000000E+00 0. -1.
          3    1    5    5  503    0 -0.17075215577E+03 -0.29226819179E+03 -0.13453075565E+04  0.13872380531E+04  0.00000000000E+00 0. -1.
         -4    1    5    5    0  503 -0.83239689532E+02 -0.27675162838E+03 -0.12277268292E+04  0.12612824730E+04  0.00000000000E+00 0.  1.
         -3    1    6    6    0  502  0.71722907432E+02 -0.36439821281E+02 -0.20861875294E+03  0.22359297865E+03  0.00000000000E+00 0.  1.
<mgrwt>
<rscale>  0 0.29651119E+04</rscale>
<asrwt>0</asrwt>
<pdfrwt beam="1">  1        2 0.56578815E+00 0.29651119E+04</pdfrwt>
<pdfrwt beam="2">  1       -2 0.91947859E-01 0.29651119E+04</pdfrwt>
<totfact> 0.52311119E-01</totfact>
</mgrwt>
</event>
<event>
12    1  0.1504874E-007  0.1571605E+04  0.7818608E-02  0.8838185E-01
         -1   -1    0    0    0  501 -0.00000000000E+00  0.00000000000E+00  0.91025423156E+03  0.91025423156E+03  0.00000000000E+00 0.  1.
          1   -1    0    0  501    0  0.00000000000E+00 -0.00000000000E+00 -0.67836580884E+03  0.67836580884E+03  0.00000000000E+00 0. -1.
         23    2    1    2    0    0  0.20253863545E+03  0.16647632331E+03  0.53672579365E+03  0.60420252257E+03  0.90828660846E+02 0.  0.
        254    2    1    2    0    0 -0.20253863545E+03 -0.16647632331E+03 -0.30483737093E+03  0.98441751784E+03  0.89856316508E+03 0.  0.
        -24    2    4    4    0    0  0.33504359576E+03 -0.18131282422E+03 -0.16752997297E+03  0.42373109727E+03  0.79706961209E+02 0.  0.
         24    2    4    4    0    0 -0.53758223121E+03  0.14836500914E+02 -0.13730739796E+03  0.56068642056E+03  0.79379868970E+02 0.  0.
         13    1    3    3    0    0  0.19781591921E+03  0.16819386905E+03  0.53930293135E+03  0.59855489910E+03  0.00000000000E+00 0.  1.
        -13    1    3    3    0    0  0.47227162427E+01 -0.17175457397E+01 -0.25771376972E+01  0.56476234636E+01  0.00000000000E+00 0. -1.
          2    1    6    6  502    0 -0.15744043991E+03  0.99453962711E+01 -0.77760151449E+02  0.17587792408E+03  0.00000000000E+00 0. -1.
          1    1    5    5  503    0  0.75799868352E+02 -0.45959921529E+02 -0.77471255022E+02  0.11772735359E+03  0.00000000000E+00 0. -1.
         -2    1    5    5    0  503  0.25924372741E+03 -0.13535290270E+03 -0.90058717947E+02  0.30600374368E+03  0.00000000000E+00 0.  1.
         -1    1    6    6    0  502 -0.38014179130E+03  0.48911046427E+01 -0.59547246516E+02  0.38480849648E+03  0.00000000000E+00 0.  1.
<mgrwt>
<rscale>  0 0.15716047E+04</rscale>
<asrwt>0</asrwt>
<pdfrwt beam="1">  1        1 0.10436397E+00 0.15716047E+04</pdfrwt>
<pdfrwt beam="2">  1       -1 0.14003911E+00 0.15716047E+04</pdfrwt>
<totfact> 0.11511307E+01</totfact>
</mgrwt>
</event>
<event>
12    1  0.1504874E-007  0.1628945E+04  0.7818608E-02  0.8802961E-01
          2   -1    0    0  501    0  0.00000000000E+00  0.00000000000E+00  0.10963857202E+04  0.10963857202E+04  0.00000000000E+00 0. -1.
         -2   -1    0    0    0  501 -0.00000000000E+00 -0.00000000000E+00 -0.60504763434E+03  0.60504763434E+03  0.00000000000E+00 0.  1.
         23    2    1    2    0    0  0.31277424950E+03 -0.18819592617E+03  0.61248352520E+03  0.71873034640E+03  0.90508587523E+02 0.  0.
        254    2    1    2    0    0 -0.31277424950E+03  0.18819592617E+03 -0.12114543938E+03  0.98270300811E+03  0.90431385420E+03 0.  0.
        -24    2    4    4    0    0 -0.44155987632E+03 -0.12682475883E+03  0.20014963046E+03  0.50807365273E+03  0.83781371417E+02 0.  0.
         24    2    4    4    0    0  0.12878562682E+03  0.31502068501E+03 -0.32129506984E+03  0.47462935538E+03  0.78858946421E+02 0.  0.
         11    1    3    3    0    0  0.25365101833E+03 -0.18720478469E+03  0.53882894789E+03  0.62427646568E+03  0.00000000000E+00 0. -1.
        -11    1    3    3    0    0  0.59123231168E+02 -0.99114148533E+00  0.73654577305E+02  0.94453880720E+02  0.00000000000E+00 0.  1.
          2    1    6    6  502    0  0.62373447790E+02  0.19167481430E+03 -0.23704070661E+03  0.31115587415E+03  0.00000000000E+00 0. -1.
          3    1    5    5  503    0 -0.36571141874E+03 -0.13591198838E+03  0.17549263644E+03  0.42780202877E+03  0.00000000000E+00 0. -1.
         -4    1    5    5    0  503 -0.75848457585E+02  0.90872295411E+01  0.24656994022E+02  0.80271623958E+02  0.00000000000E+00 0.  1.
         -1    1    6    6    0  502  0.66412179030E+02  0.12334587070E+03 -0.84254363225E+02  0.16347348123E+03  0.00000000000E+00 0.  1.
<mgrwt>
<rscale>  0 0.16289452E+04</rscale>
<asrwt>0</asrwt>
<pdfrwt beam="1">  1        2 0.16867473E+00 0.16289452E+04</pdfrwt>
<pdfrwt beam="2">  1       -2 0.93084251E-01 0.16289452E+04</pdfrwt>
<totfact> 0.20482825E+01</totfact>
</mgrwt>
</event>
<event>
12    1  0.1504874E-007  0.1861278E+04  0.7818608E-02  0.8674375E-01
         -2   -1    0    0    0  501 -0.00000000000E+00  0.00000000000E+00  0.77183718814E+03  0.77183718814E+03  0.00000000000E+00 0. -1.
          2   -1    0    0  501    0  0.00000000000E+00 -0.00000000000E+00 -0.11221131140E+04  0.11221131140E+04  0.00000000000E+00 0.  1.
         23    2    1    2    0    0 -0.23899376513E+03  0.62001519514E+03  0.10357492366E+03  0.67862982435E+03  0.90960495342E+02 0.  0.
        254    2    1    2    0    0  0.23899376513E+03 -0.62001519514E+03 -0.45385084954E+03  0.12153204778E+04  0.91076144417E+03 0.  0.
        -24    2    4    4    0    0  0.34490624494E+03 -0.80809272689E+03 -0.43679389906E+03  0.98472521317E+03  0.83190517201E+02 0.  0.
         24    2    4    4    0    0 -0.10591247981E+03  0.18807753175E+03 -0.17056950483E+02  0.23059526464E+03  0.79326068768E+02 0.  0.
         11    1    3    3    0    0 -0.63761818041E+02  0.76527815525E+02  0.17719575397E+02  0.10117341222E+03  0.00000000000E+00 0.  1.
        -11    1    3    3    0    0 -0.17523194709E+03  0.54348737961E+03  0.85855348264E+02  0.57745641213E+03  0.00000000000E+00 0. -1.
          4    1    6    6  502    0 -0.72252804172E+02  0.73620484594E+02 -0.37096395150E+02  0.10962018973E+03  0.00000000000E+00 0. -1.
          1    1    5    5  503    0  0.43578477405E+02 -0.18721497613E+03 -0.10373790733E+03  0.21842638210E+03  0.00000000000E+00 0. -1.
         -2    1    5    5    0  503  0.30132776754E+03 -0.62087775076E+03 -0.33305599173E+03  0.76629883107E+03  0.00000000000E+00 0.  1.
         -3    1    6    6    0  502 -0.33659675636E+02  0.11445704716E+03  0.20039444667E+02  0.12097507491E+03  0.00000000000E+00 0.  1.
<mgrwt>
<rscale>  0 0.18612777E+04</rscale>
<asrwt>0</asrwt>
<pdfrwt beam="1">  1        2 0.17263279E+00 0.18612777E+04</pdfrwt>
<pdfrwt beam="2">  1       -2 0.11874418E+00 0.18612777E+04</pdfrwt>
<totfact> 0.10813233E+01</totfact>
</mgrwt>
</event>
<event>
12    1  0.1504874E-007  0.1522828E+04  0.7818608E-02  0.8869413E-01
          2   -1    0    0  501    0  0.00000000000E+00  0.00000000000E+00  0.24516318707E+04  0.24516318707E+04  0.00000000000E+00 0. -1.
         -2   -1    0    0    0  501 -0.00000000000E+00 -0.00000000000E+00 -0.23647554781E+03  0.23647554781E+03  0.00000000000E+00 0.  1.
         23    2    1    2    0    0  0.26591113266E+03  0.35292882359E+03  0.34875536660E+03  0.57058733810E+03  0.93124216334E+02 0.  0.
        254    2    1    2    0    0 -0.26591113266E+03 -0.35292882359E+03  0.18664009563E+04  0.21175200805E+04  0.89731336576E+03 0.  0.
        -24    2    4    4    0    0 -0.12181032988E+03  0.61592770862E+02  0.15778090194E+04  0.15855057325E+04  0.75602250329E+02 0.  0.
         24    2    4    4    0    0 -0.14410080278E+03 -0.41452159446E+03  0.28859193693E+03  0.53201434795E+03  0.84621313675E+02 0.  0.
         13    1    3    3    0    0  0.39121031266E+02  0.57036357140E+02  0.10299471760E+03  0.12406253656E+03  0.00000000000E+00 0. -1.
        -13    1    3    3    0    0  0.22679010139E+03  0.29589246645E+03  0.24576064900E+03  0.44652480154E+03  0.00000000000E+00 0.  1.
          2    1    6    6  502    0 -0.18509061008E+02 -0.17957218150E+03  0.11773287618E+03  0.21552211915E+03  0.00000000000E+00 0. -1.
          1    1    5    5  503    0 -0.52202735618E+02  0.31000083291E+02  0.34106718913E+03  0.34642886466E+03  0.00000000000E+00 0. -1.
         -2    1    5    5    0  503 -0.69607594257E+02  0.30592687571E+02  0.12367418303E+04  0.12390768679E+04  0.00000000000E+00 0.  1.
         -1    1    6    6    0  502 -0.12559174178E+03 -0.23494941295E+03  0.17085906076E+03  0.31649222880E+03  0.00000000000E+00 0.  1.
<mgrwt>
<rscale>  0 0.15228276E+04</rscale>
<asrwt>0</asrwt>
<pdfrwt beam="1">  1        2 0.37717412E+00 0.15228276E+04</pdfrwt>
<pdfrwt beam="2">  1       -2 0.36380855E-01 0.15228276E+04</pdfrwt>
<totfact> 0.25526669E+01</totfact>
</mgrwt>
</event>
<event>
12    1  0.1653455E-007  0.1956971E+04  0.7818608E-02  0.8627007E-01
          1   -1    0    0  501    0  0.00000000000E+00  0.00000000000E+00  0.17544761269E+04  0.17544761269E+04  0.00000000000E+00 0. -1.
         -1   -1    0    0    0  501 -0.00000000000E+00 -0.00000000000E+00 -0.54570910523E+03  0.54570910523E+03  0.00000000000E+00 0.  1.
         23    2    1    2    0    0  0.69322237171E+03 -0.75151683419E+02  0.48260104263E+02  0.70496501961E+03  0.91878229494E+02 0.  0.
        254    2    1    2    0    0 -0.69322237171E+03  0.75151683419E+02  0.11605069174E+04  0.15952202125E+04  0.84365051347E+03 0.  0.
        -24    2    4    4    0    0  0.72937531453E+00  0.31316007787E+03  0.18710870751E+03  0.37370892129E+03  0.81110560778E+02 0.  0.
         24    2    4    4    0    0 -0.69395174702E+03 -0.23800839445E+03  0.97339820988E+03  0.12215112912E+04  0.79804363994E+02 0.  0.
         11    1    3    3    0    0  0.13975496539E+03 -0.27305192017E+02 -0.25158654406E+02  0.14460284145E+03  0.00000000000E+00 0. -1.
        -11    1    3    3    0    0  0.55346740631E+03 -0.47846491403E+02  0.73418758669E+02  0.56036217816E+03  0.00000000000E+00 0.  1.
          2    1    6    6  502    0 -0.69165818681E+03 -0.24082733853E+03  0.97303190325E+03  0.12178587517E+04  0.00000000000E+00 0. -1.
          3    1    5    5  503    0 -0.40336609130E+01  0.30909603467E+03  0.16433351015E+03  0.35008874822E+03  0.00000000000E+00 0. -1.
         -4    1    5    5    0  503  0.47630362276E+01  0.40640431938E+01  0.22775197363E+02  0.23620173076E+02  0.00000000000E+00 0.  1.
         -1    1    6    6    0  502 -0.22935602089E+01  0.28189440868E+01  0.36630662966E+00  0.36525394924E+01  0.00000000000E+00 0.  1.
<mgrwt>
<rscale>  0 0.19569707E+04</rscale>
<asrwt>0</asrwt>
<pdfrwt beam="1">  1        1 0.26991940E+00 0.19569707E+04</pdfrwt>
<pdfrwt beam="2">  1       -1 0.83955248E-01 0.19569707E+04</pdfrwt>
<totfact> 0.57282642E+00</totfact>
</mgrwt>
</event>
<event>
12    1  0.1504874E-007  0.2610989E+04  0.7818608E-02  0.8364478E-01
          2   -1    0    0  501    0  0.00000000000E+00  0.00000000000E+00  0.92378943407E+03  0.92378943407E+03  0.00000000000E+00 0. -1.
         -2   -1    0    0    0  501 -0.00000000000E+00 -0.00000000000E+00 -0.18449181131E+04  0.18449181131E+04  0.00000000000E+00 0.  1.
         23    2    1    2    0    0  0.92627262435E+03 -0.66201789356E+03 -0.54046269871E+03  0.12637128553E+04  0.92852496110E+02 0.  0.
        254    2    1    2    0    0 -0.92627262435E+03  0.66201789356E+03 -0.38066598030E+03  0.15049946918E+04  0.90766390686E+03 0.  0.
        -24    2    4    4    0    0 -0.80982540471E+03  0.78572017276E+03 -0.54542885984E+03  0.12552816235E+04  0.71175396306E+02 0.  0.
         24    2    4    4    0    0 -0.11644721964E+03 -0.12370227920E+03  0.16476287955E+03  0.24971306836E+03  0.79671834362E+02 0.  0.
         11    1    3    3    0    0  0.70530152017E+02 -0.31073757285E+02 -0.18307478833E+02  0.79216440949E+02  0.00000000000E+00 0.  1.
        -11    1    3    3    0    0  0.85574247233E+03 -0.63094413627E+03 -0.52215521987E+03  0.11844964144E+04  0.00000000000E+00 0. -1.
          2    1    6    6  502    0 -0.30185235254E+02 -0.79257870718E-01  0.59825233330E+01  0.30772476250E+02  0.00000000000E+00 0. -1.
          3    1    5    5  503    0 -0.35056850696E+03  0.31302077793E+03 -0.19475271027E+03  0.50873264456E+03  0.00000000000E+00 0. -1.
         -4    1    5    5    0  503 -0.45925689775E+03  0.47269939483E+03 -0.35067614957E+03  0.74654897889E+03  0.00000000000E+00 0.  1.
         -1    1    6    6    0  502 -0.86261984387E+02 -0.12362302133E+03  0.15878035621E+03  0.21894059211E+03  0.00000000000E+00 0.  1.
<mgrwt>
<rscale>  0 0.26109890E+04</rscale>
<asrwt>0</asrwt>
<pdfrwt beam="1">  1        2 0.14212145E+00 0.26109890E+04</pdfrwt>
<pdfrwt beam="2">  1       -2 0.28383356E+00 0.26109890E+04</pdfrwt>
<totfact> 0.99663429E-01</totfact>
</mgrwt>
</event>
<event>
12    1  0.1504874E-007  0.1378453E+04  0.7818608E-02  0.8969565E-01
          2   -1    0    0  501    0  0.00000000000E+00  0.00000000000E+00  0.11325169963E+04  0.11325169963E+04  0.00000000000E+00 0. -1.
         -2   -1    0    0    0  501 -0.00000000000E+00 -0.00000000000E+00 -0.41944886005E+03  0.41944886005E+03  0.00000000000E+00 0.  1.
         23    2    1    2    0    0  0.12520154699E+03 -0.28882340975E+03  0.50531739626E+03  0.60235776064E+03  0.91623203653E+02 0.  0.
        254    2    1    2    0    0 -0.12520154699E+03  0.28882340975E+03  0.20775074000E+03  0.94960809572E+03  0.87149341713E+03 0.  0.
        -24    2    4    4    0    0  0.67994854199E+02  0.52138293791E+03  0.31608666543E+03  0.61850878107E+03  0.78605750852E+02 0.  0.
         24    2    4    4    0    0 -0.19319640119E+03 -0.23255952815E+03 -0.10833592543E+03  0.33109931464E+03  0.80506520566E+02 0.  0.
         13    1    3    3    0    0  0.28473863788E+02 -0.95313534826E+02  0.90345281908E+02  0.13437894479E+03  0.00000000000E+00 0.  1.
        -13    1    3    3    0    0  0.96727683199E+02 -0.19350987493E+03  0.41497211435E+03  0.46797881585E+03  0.00000000000E+00 0. -1.
          2    1    6    6  502    0 -0.80497982904E+02 -0.14968169153E+03 -0.82191678091E+02  0.18878560850E+03  0.00000000000E+00 0. -1.
          3    1    5    5  503    0  0.20504740427E+02  0.29103598711E+03  0.21547490755E+03  0.36270073884E+03  0.00000000000E+00 0. -1.
         -4    1    5    5    0  503  0.47490113772E+02  0.23034695080E+03  0.10061175788E+03  0.25580804223E+03  0.00000000000E+00 0.  1.
         -1    1    6    6    0  502 -0.11269841828E+03 -0.82877836626E+02 -0.26144247335E+02  0.14231370614E+03  0.00000000000E+00 0.  1.
<mgrwt>
<rscale>  0 0.13784527E+04</rscale>
<asrwt>0</asrwt>
<pdfrwt beam="1">  1        2 0.17423338E+00 0.13784527E+04</pdfrwt>
<pdfrwt beam="2">  1       -2 0.64530594E-01 0.13784527E+04</pdfrwt>
<totfact> 0.44979212E+01</totfact>
</mgrwt>
</event>
<event>
12    1  0.1504874E-007  0.1971197E+04  0.7818608E-02  0.8620207E-01
         -1   -1    0    0    0  501 -0.00000000000E+00  0.00000000000E+00  0.53944411970E+03  0.53944411970E+03  0.00000000000E+00 0.  1.
          1   -1    0    0  501    0  0.00000000000E+00 -0.00000000000E+00 -0.18007505588E+04  0.18007505588E+04  0.00000000000E+00 0. -1.
         23    2    1    2    0    0  0.29433884402E+03 -0.47416072513E+03  0.14191817182E+03  0.58294264846E+03  0.90651064825E+02 0.  0.
        254    2    1    2    0    0 -0.29433884402E+03  0.47416072513E+03 -0.14032246110E+04  0.17572520301E+04  0.89857200048E+03 0.  0.
        -24    2    4    4    0    0 -0.13235719129E+03 -0.54055115384E+02 -0.11192633673E+04  0.11311858895E+04  0.79941538913E+02 0.  0.
         24    2    4    4    0    0 -0.16198165273E+03  0.52821584051E+03 -0.28396124363E+03  0.62606614054E+03  0.77940967818E+02 0.  0.
         13    1    3    3    0    0  0.14960017665E+03 -0.23330210523E+03  0.11702418560E+03  0.30084006578E+03  0.00000000000E+00 0.  1.
        -13    1    3    3    0    0  0.14473866737E+03 -0.24085861990E+03  0.24893986212E+02  0.28210258269E+03  0.00000000000E+00 0. -1.
          2    1    6    6  502    0 -0.71998156486E+02  0.17952747053E+03 -0.62347488479E+02  0.20322661374E+03  0.00000000000E+00 0. -1.
          3    1    5    5  503    0 -0.44923242354E+02  0.14172930779E+02 -0.21207365973E+03  0.21724227678E+03  0.00000000000E+00 0. -1.
         -4    1    5    5    0  503 -0.87433948936E+02 -0.68228046162E+02 -0.90718970760E+03  0.91394361274E+03  0.00000000000E+00 0.  1.
         -1    1    6    6    0  502 -0.89983496240E+02  0.34868836998E+03 -0.22161375515E+03  0.42283952680E+03  0.00000000000E+00 0.  1.
<mgrwt>
<rscale>  0 0.19711969E+04</rscale>
<asrwt>0</asrwt>
<pdfrwt beam="1">  1        1 0.27703855E+00 0.19711969E+04</pdfrwt>
<pdfrwt beam="2">  1       -1 0.82991404E-01 0.19711969E+04</pdfrwt>
<totfact> 0.54554810E+00</totfact>
</mgrwt>
</event>
<event>
12    1  0.1504874E-007  0.1358093E+04  0.7818608E-02  0.8984725E-01
         -1   -1    0    0    0  501 -0.00000000000E+00  0.00000000000E+00  0.52710777097E+03  0.52710777097E+03  0.00000000000E+00 0.  1.
          1   -1    0    0  501    0  0.00000000000E+00 -0.00000000000E+00 -0.87478106419E+03  0.87478106419E+03  0.00000000000E+00 0. -1.
         23    2    1    2    0    0  0.60086419784E+02  0.25199103383E+03  0.17793426524E+03  0.32695671026E+03  0.90167780649E+02 0.  0.
        254    2    1    2    0    0 -0.60086419784E+02 -0.25199103383E+03 -0.52560755847E+03  0.10749321249E+04  0.90116918980E+03 0.  0.
        -24    2    4    4    0    0  0.33372891546E+03  0.29735022793E+02  0.13485301527E+02  0.34589541255E+03  0.84868265383E+02 0.  0.
         24    2    4    4    0    0 -0.39381533525E+03 -0.28172605662E+03 -0.53909285999E+03  0.72903671235E+03  0.80083250460E+02 0.  0.
         13    1    3    3    0    0  0.30892736379E+02  0.20803079579E+03  0.17585264186E+03  0.27414471508E+03  0.00000000000E+00 0.  1.
        -13    1    3    3    0    0  0.29193683405E+02  0.43960238040E+02  0.20816233803E+01  0.52811995183E+02  0.00000000000E+00 0. -1.
          2    1    6    6  502    0 -0.38203739368E+03 -0.28705135298E+03 -0.52457992531E+03  0.70960210502E+03  0.00000000000E+00 0. -1.
          3    1    5    5  503    0  0.25433141199E+03 -0.12273033170E+02  0.22494979641E+02  0.25561908884E+03  0.00000000000E+00 0. -1.
         -4    1    5    5    0  503  0.79397503468E+02  0.42008055963E+02 -0.90096781145E+01  0.90276323709E+02  0.00000000000E+00 0.  1.
         -1    1    6    6    0  502 -0.11777941564E+02  0.53252963561E+01 -0.14512934684E+02  0.19434607326E+02  0.00000000000E+00 0.  1.
<mgrwt>
<rscale>  0 0.13580926E+04</rscale>
<asrwt>0</asrwt>
<pdfrwt beam="1">  1        1 0.13458170E+00 0.13580926E+04</pdfrwt>
<pdfrwt beam="2">  1       -1 0.81093504E-01 0.13580926E+04</pdfrwt>
<totfact> 0.28309248E+01</totfact>
</mgrwt>
</event>
<event>
12    1  0.1504874E-007  0.1204209E+04  0.7818608E-02  0.9109180E-01
          2   -1    0    0  501    0  0.00000000000E+00  0.00000000000E+00  0.38788420729E+03  0.38788420729E+03  0.00000000000E+00 0.  1.
         -2   -1    0    0    0  501 -0.00000000000E+00 -0.00000000000E+00 -0.93463460121E+03  0.93463460121E+03  0.00000000000E+00 0. -1.
         23    2    1    2    0    0  0.14463436138E+03 -0.20989514326E+03 -0.12688888968E+03  0.29869099872E+03  0.90224457536E+02 0.  0.
        254    2    1    2    0    0 -0.14463436138E+03  0.20989514326E+03 -0.41986150424E+03  0.10238278098E+04  0.89831210149E+03 0.  0.
        -24    2    4    4    0    0  0.16490447741E+03  0.33113690777E+02  0.21955736022E+03  0.28755977118E+03  0.78709493623E+02 0.  0.
         24    2    4    4    0    0 -0.30953883879E+03  0.17678145248E+03 -0.63941886445E+03  0.73626803860E+03  0.78537671124E+02 0.  0.
         13    1    3    3    0    0  0.12432971381E+03 -0.17417490273E+03 -0.63624816877E+02  0.22325521673E+03  0.00000000000E+00 0. -1.
        -13    1    3    3    0    0  0.20304647573E+02 -0.35720240530E+02 -0.63264072803E+02  0.75435781989E+02  0.00000000000E+00 0.  1.
          4    1    6    6  502    0 -0.77135109868E+02  0.61679171357E+02 -0.11772294230E+03  0.15366468852E+03  0.00000000000E+00 0. -1.
          3    1    5    5  503    0  0.98173587386E+02 -0.20198825661E+02  0.12217117209E+03  0.15802481168E+03  0.00000000000E+00 0. -1.
         -4    1    5    5    0  503  0.66730890027E+02  0.53312516438E+02  0.97386188128E+02  0.12953495949E+03  0.00000000000E+00 0.  1.
         -3    1    6    6    0  502 -0.23240372892E+03  0.11510228112E+03 -0.52169592215E+03  0.58260335008E+03  0.00000000000E+00 0.  1.
<mgrwt>
<rscale>  0 0.12042093E+04</rscale>
<asrwt>0</asrwt>
<pdfrwt beam="1">  1        2 0.59674494E-01 0.12042093E+04</pdfrwt>
<pdfrwt beam="2">  1       -2 0.14378994E+00 0.12042093E+04</pdfrwt>
<totfact> 0.27177839E+01</totfact>
</mgrwt>
</event>
<event>
12    1  0.1504874E-007  0.1888892E+04  0.7818608E-02  0.8660405E-01
          1   -1    0    0  501    0  0.00000000000E+00  0.00000000000E+00  0.74207700314E+03  0.74207700314E+03  0.00000000000E+00 0. -1.
         -1   -1    0    0    0  501 -0.00000000000E+00 -0.00000000000E+00 -0.12020023123E+04  0.12020023123E+04  0.00000000000E+00 0.  1.
         23    2    1    2    0    0 -0.41934922667E+03  0.15797529586E+02 -0.79147557673E+03  0.90015691658E+03  0.88008806675E+02 0.  0.
        254    2    1    2    0    0  0.41934922667E+03 -0.15797529586E+02  0.33155026755E+03  0.10439223989E+04  0.89651829827E+03 0.  0.
        -24    2    4    4    0    0 -0.11202427364E+03  0.17730019518E+03 -0.17164170431E+03  0.28298584177E+03  0.81457442162E+02 0.  0.
         24    2    4    4    0    0  0.53137350032E+03 -0.19309772477E+03  0.50319197186E+03  0.76093655712E+03  0.78598697616E+02 0.  0.
         13    1    3    3    0    0 -0.25475796887E+03  0.26320933808E+02 -0.56153560396E+03  0.61718445280E+03  0.00000000000E+00 0.  1.
        -13    1    3    3    0    0 -0.16459125780E+03 -0.10523404222E+02 -0.22993997277E+03  0.28297246378E+03  0.00000000000E+00 0. -1.
          2    1    6    6  502    0  0.43908903304E+03 -0.17455794709E+03  0.38280739143E+03  0.60812100339E+03  0.00000000000E+00 0. -1.
          1    1    5    5  503    0 -0.11298681023E+03  0.15736142723E+03 -0.17690318886E+03  0.26234209783E+03  0.00000000000E+00 0. -1.
         -2    1    5    5    0  503  0.96253658478E+00  0.19938767956E+02  0.52614845429E+01  0.20643743940E+02  0.00000000000E+00 0.  1.
         -1    1    6    6    0  502  0.92284467278E+02 -0.18539777675E+02  0.12038458043E+03  0.15281555373E+03  0.00000000000E+00 0.  1.
<mgrwt>
<rscale>  0 0.18888920E+04</rscale>
<asrwt>0</asrwt>
<pdfrwt beam="1">  1        1 0.11416569E+00 0.18888920E+04</pdfrwt>
<pdfrwt beam="2">  1       -1 0.18492343E+00 0.18888920E+04</pdfrwt>
<totfact> 0.44750701E+00</totfact>
</mgrwt>
</event>
<event>
12    1  0.1504874E-007  0.1424869E+04  0.7818608E-02  0.8936011E-01
          2   -1    0    0  501    0  0.00000000000E+00  0.00000000000E+00  0.11042236660E+04  0.11042236660E+04  0.00000000000E+00 0. -1.
         -2   -1    0    0    0  501 -0.00000000000E+00 -0.00000000000E+00 -0.45965581826E+03  0.45965581826E+03  0.00000000000E+00 0.  1.
         23    2    1    2    0    0 -0.19652962903E+03  0.19094079560E+03  0.45848212092E+03  0.54168668152E+03  0.90201569973E+02 0.  0.
        254    2    1    2    0    0  0.19652962903E+03 -0.19094079560E+03  0.18608572686E+03  0.10221928028E+04  0.96704081909E+03 0.  0.
        -24    2    4    4    0    0 -0.14148419543E+03  0.25027900061E+03 -0.18306086810E+03  0.35022166073E+03  0.80539273108E+02 0.  0.
         24    2    4    4    0    0  0.33801382445E+03 -0.44121979621E+03  0.36914659496E+03  0.67197114204E+03  0.79672787539E+02 0.  0.
         13    1    3    3    0    0 -0.20164724378E+03  0.17995256452E+03  0.45475457270E+03  0.52900496954E+03  0.00000000000E+00 0. -1.
        -13    1    3    3    0    0  0.51176147575E+01  0.10988231081E+02  0.37275482154E+01  0.12681711982E+02  0.00000000000E+00 0.  1.
          2    1    6    6  502    0  0.24739549978E+03 -0.31471515885E+03  0.30670092165E+03  0.50429715433E+03  0.00000000000E+00 0. -1.
          3    1    5    5  503    0  0.80471815451E+01  0.27443305272E+02 -0.29263742706E+02  0.40917707319E+02  0.00000000000E+00 0. -1.
         -4    1    5    5    0  503 -0.14953137697E+03  0.22283569534E+03 -0.15379712540E+03  0.30930395341E+03  0.00000000000E+00 0.  1.
         -1    1    6    6    0  502  0.90618324677E+02 -0.12650463736E+03  0.62445673308E+02  0.16767398771E+03  0.00000000000E+00 0.  1.
<mgrwt>
<rscale>  0 0.14248689E+04</rscale>
<asrwt>0</asrwt>
<pdfrwt beam="1">  1        2 0.16988056E+00 0.14248689E+04</pdfrwt>
<pdfrwt beam="2">  1       -2 0.70716280E-01 0.14248689E+04</pdfrwt>
<totfact> 0.38255405E+01</totfact>
</mgrwt>
</event>
<event>
12    1  0.1504874E-007  0.1977535E+04  0.7818608E-02  0.8617196E-01
         -1   -1    0    0    0  501 -0.00000000000E+00  0.00000000000E+00  0.55681011032E+03  0.55681011032E+03  0.00000000000E+00 0.  1.
          1   -1    0    0  501    0  0.00000000000E+00 -0.00000000000E+00 -0.17558249288E+04  0.17558249288E+04  0.00000000000E+00 0. -1.
         23    2    1    2    0    0  0.75883679334E+02 -0.21640307851E+03  0.41915167611E+03  0.48664646325E+03  0.92455542986E+02 0.  0.
        254    2    1    2    0    0 -0.75883679334E+02  0.21640307851E+03 -0.16181664946E+04  0.18259885758E+04  0.81436039305E+03 0.  0.
        -24    2    4    4    0    0 -0.28011694376E+03  0.16531841941E+03 -0.19940361731E+03  0.38936250444E+03  0.77753940677E+02 0.  0.
         24    2    4    4    0    0  0.20423326443E+03  0.51084659104E+02 -0.14187628772E+04  0.14366260714E+04  0.81764897398E+02 0.  0.
         11    1    3    3    0    0  0.45076555505E+02 -0.21811288377E+02  0.77929368552E+02  0.92631607132E+02  0.00000000000E+00 0. -1.
        -11    1    3    3    0    0  0.30807123829E+02 -0.19459179014E+03  0.34122230756E+03  0.39401485612E+03  0.00000000000E+00 0.  1.
          2    1    6    6  502    0  0.50277797837E+02  0.33693926067E+00 -0.16682540353E+03  0.17423744071E+03  0.00000000000E+00 0. -1.
          1    1    5    5  503    0 -0.11851059333E+02  0.24423611475E+02 -0.36026951784E+02  0.45109884279E+02  0.00000000000E+00 0. -1.
         -2    1    5    5    0  503 -0.26826588443E+03  0.14089480793E+03 -0.16337666553E+03  0.34425262016E+03  0.00000000000E+00 0.  1.
         -1    1    6    6    0  502  0.15395546659E+03  0.50747719844E+02 -0.12519374737E+04  0.12623886307E+04  0.00000000000E+00 0.  1.
<mgrwt>
<rscale>  0 0.19775349E+04</rscale>
<asrwt>0</asrwt>
<pdfrwt beam="1">  1        1 0.27012691E+00 0.19775349E+04</pdfrwt>
<pdfrwt beam="2">  1       -1 0.85663095E-01 0.19775349E+04</pdfrwt>
<totfact> 0.54620574E+00</totfact>
</mgrwt>
</event>
<event>
12    1  0.1504874E-007  0.1341340E+04  0.7818608E-02  0.8997410E-01
          2   -1    0    0  501    0  0.00000000000E+00  0.00000000000E+00  0.12032276862E+04  0.12032276862E+04  0.00000000000E+00 0. -1.
         -2   -1    0    0    0  501 -0.00000000000E+00 -0.00000000000E+00 -0.37382628503E+03  0.37382628503E+03  0.00000000000E+00 0.  1.
         23    2    1    2    0    0  0.14148742145E+03 -0.24588688294E+03  0.50583551631E+03  0.58611381296E+03  0.84739498187E+02 0.  0.
        254    2    1    2    0    0 -0.14148742145E+03  0.24588688294E+03  0.32356588487E+03  0.99094015828E+03  0.89263008342E+03 0.  0.
        -24    2    4    4    0    0 -0.27269206229E+03  0.53672031747E+03  0.20838572234E+03  0.64218837589E+03  0.80942206792E+02 0.  0.
         24    2    4    4    0    0  0.13120464084E+03 -0.29083343453E+03  0.11518016252E+03  0.34875178239E+03  0.81009823249E+02 0.  0.
         13    1    3    3    0    0  0.86965157360E+02 -0.15677240907E+03  0.39512293665E+03  0.43389245431E+03  0.00000000000E+00 0. -1.
        -13    1    3    3    0    0  0.54522264093E+02 -0.89114473869E+02  0.11071257966E+03  0.15222135865E+03  0.00000000000E+00 0.  1.
          2    1    6    6  502    0  0.35708281347E+02 -0.77012949044E+02 -0.59594534167E+01  0.85097536758E+02  0.00000000000E+00 0. -1.
          1    1    5    5  503    0 -0.14467832696E+03  0.25700939307E+03  0.14269593885E+03  0.32763970666E+03  0.00000000000E+00 0. -1.
         -2    1    5    5    0  503 -0.12801373533E+03  0.27971092439E+03  0.65689783493E+02  0.31454866923E+03  0.00000000000E+00 0.  1.
         -1    1    6    6    0  502  0.95496359490E+02 -0.21382048549E+03  0.12113961594E+03  0.26365424563E+03  0.00000000000E+00 0.  1.
<mgrwt>
<rscale>  0 0.13413398E+04</rscale>
<asrwt>0</asrwt>
<pdfrwt beam="1">  1        2 0.18511195E+00 0.13413398E+04</pdfrwt>
<pdfrwt beam="2">  1       -2 0.57511737E-01 0.13413398E+04</pdfrwt>
<totfact> 0.52187897E+01</totfact>
</mgrwt>
</event>
<event>
12    1  0.1525069E-007  0.1813090E+04  0.7818608E-02  0.8699369E-01
         -1   -1    0    0    0  501 -0.00000000000E+00  0.00000000000E+00  0.61597809022E+03  0.61597809022E+03  0.00000000000E+00 0.  1.
          1   -1    0    0  501    0  0.00000000000E+00 -0.00000000000E+00 -0.13341774418E+04  0.13341774418E+04  0.00000000000E+00 0. -1.
         23    2    1    2    0    0 -0.28063885357E+03  0.45117547095E+03  0.18227208183E+03  0.56870010335E+03  0.88764993212E+02 0.  0.
        254    2    1    2    0    0  0.28063885357E+03 -0.45117547095E+03 -0.90047143337E+03  0.13814554286E+04  0.90291352148E+03 0.  0.
        -24    2    4    4    0    0  0.33482703726E+03  0.11467486869E+03 -0.66040402160E+02  0.36862203884E+03  0.79129023845E+02 0.  0.
         24    2    4    4    0    0 -0.54188183689E+02 -0.56585033964E+03 -0.83443103121E+03  0.10128333898E+04  0.80208250870E+02 0.  0.
         11    1    3    3    0    0 -0.20074300817E+03  0.35923344731E+03  0.17344296092E+03  0.44657461380E+03  0.00000000000E+00 0.  1.
        -11    1    3    3    0    0 -0.79895845400E+02  0.91942023638E+02  0.88291209075E+01  0.12212548955E+03  0.00000000000E+00 0. -1.
          4    1    6    6  502    0  0.14681062597E+02 -0.56392523099E+02 -0.11064172451E+03  0.12504895626E+03  0.00000000000E+00 0. -1.
          3    1    5    5  503    0  0.30243534994E+02  0.26330727121E+02  0.12316541044E+02  0.41948489638E+02  0.00000000000E+00 0. -1.
         -4    1    5    5    0  503  0.30458350226E+03  0.88344141571E+02 -0.78356943204E+02  0.32667354920E+03  0.00000000000E+00 0.  1.
         -3    1    6    6    0  502 -0.68869246286E+02 -0.50945781654E+03 -0.72378930670E+03  0.88778443353E+03  0.00000000000E+00 0.  1.
<mgrwt>
<rscale>  0 0.18130903E+04</rscale>
<asrwt>0</asrwt>
<pdfrwt beam="1">  1        1 0.20525806E+00 0.18130903E+04</pdfrwt>
<pdfrwt beam="2">  1       -1 0.94765862E-01 0.18130903E+04</pdfrwt>
<totfact> 0.86792559E+00</totfact>
</mgrwt>
</event>
<event>
12    1  0.1504874E-007  0.2923501E+04  0.7818608E-02  0.8265919E-01
          1   -1    0    0  501    0  0.00000000000E+00  0.00000000000E+00  0.21673287991E+04  0.21673287991E+04  0.00000000000E+00 0. -1.
         -1   -1    0    0    0  501 -0.00000000000E+00 -0.00000000000E+00 -0.98587484518E+03  0.98587484518E+03  0.00000000000E+00 0.  1.
         23    2    1    2    0    0 -0.11732868460E+04 -0.25816846816E+03  0.11178419452E+04  0.16434279342E+04  0.89620196719E+02 0.  0.
        254    2    1    2    0    0  0.11732868460E+04  0.25816846816E+03  0.63612008743E+02  0.15097757100E+04  0.91220788533E+03 0.  0.
        -24    2    4    4    0    0  0.20677097381E+03  0.12052440796E+03 -0.36143897174E+03  0.44206465658E+03  0.86617906857E+02 0.  0.
         24    2    4    4    0    0  0.96651587219E+03  0.13764406020E+03  0.42505098048E+03  0.10677110535E+04  0.78992019747E+02 0.  0.
         11    1    3    3    0    0 -0.88886844797E+03 -0.19340187975E+03  0.79244310382E+03  0.12064234239E+04  0.00000000000E+00 0. -1.
        -11    1    3    3    0    0 -0.28441839802E+03 -0.64766588412E+02  0.32539884134E+03  0.43700451034E+03  0.00000000000E+00 0.  1.
          4    1    6    6  502    0  0.62424858860E+03  0.50656626650E+02  0.27404710273E+03  0.68363309510E+03  0.00000000000E+00 0. -1.
          1    1    5    5  503    0 -0.82076710909E+01  0.33871476533E+01 -0.70656313472E+01  0.11347324808E+02  0.00000000000E+00 0. -1.
         -2    1    5    5    0  503  0.21497864490E+03  0.11713726031E+03 -0.35437334039E+03  0.43071733178E+03  0.00000000000E+00 0.  1.
         -1    1    6    6    0  502  0.34226728359E+03  0.86987433555E+02  0.15100387774E+03  0.38407795837E+03  0.00000000000E+00 0.  1.
<mgrwt>
<rscale>  0 0.29235013E+04</rscale>
<asrwt>0</asrwt>
<pdfrwt beam="1">  1        1 0.33343520E+00 0.29235013E+04</pdfrwt>
<pdfrwt beam="2">  1       -1 0.15167305E+00 0.29235013E+04</pdfrwt>
<totfact> 0.66502035E-01</totfact>
</mgrwt>
</event>
<event>
12    1  0.1504874E-007  0.2955826E+04  0.7818608E-02  0.8256459E-01
         -2   -1    0    0    0  501 -0.00000000000E+00  0.00000000000E+00  0.11773014123E+04  0.11773014123E+04  0.00000000000E+00 0.  1.
          2   -1    0    0  501    0  0.00000000000E+00 -0.00000000000E+00 -0.18552823972E+04  0.18552823972E+04  0.00000000000E+00 0. -1.
         23    2    1    2    0    0 -0.83486637405E+03  0.42485502802E+03  0.67505993360E+03  0.11581952175E+04  0.90590234646E+02 0.  0.
        254    2    1    2    0    0  0.83486637405E+03 -0.42485502802E+03 -0.13530409185E+04  0.18743885919E+04  0.89727877997E+03 0.  0.
        -24    2    4    4    0    0 -0.13683843998E+03 -0.24025806471E+03 -0.44243043808E+03  0.52783312552E+03  0.80090071452E+02 0.  0.
         24    2    4    4    0    0  0.97170481404E+03 -0.18459696331E+03 -0.91061048044E+03  0.13465554664E+04  0.75590293840E+02 0.  0.
         11    1    3    3    0    0 -0.14724258857E+03  0.65659931760E+02  0.15904518095E+03  0.22646628029E+03  0.00000000000E+00 0.  1.
        -11    1    3    3    0    0 -0.68762378548E+03  0.35919509626E+03  0.51601475265E+03  0.93172893724E+03  0.00000000000E+00 0. -1.
          4    1    6    6  502    0  0.21645735414E+02 -0.16345679334E+02 -0.24539089277E+02  0.36577123958E+02  0.00000000000E+00 0. -1.
          1    1    5    5  503    0 -0.13939819539E+01 -0.60748931476E+02 -0.69197132030E+02  0.92090276047E+02  0.00000000000E+00 0. -1.
         -2    1    5    5    0  503 -0.13544445803E+03 -0.17950913323E+03 -0.37323330605E+03  0.43574284947E+03  0.00000000000E+00 0.  1.
         -3    1    6    6    0  502  0.95005907862E+03 -0.16825128397E+03 -0.88607139116E+03  0.13099783424E+04  0.00000000000E+00 0.  1.
<mgrwt>
<rscale>  0 0.29558258E+04</rscale>
<asrwt>0</asrwt>
<pdfrwt beam="1">  1        2 0.28542806E+00 0.29558258E+04</pdfrwt>
<pdfrwt beam="2">  1       -2 0.18112329E+00 0.29558258E+04</pdfrwt>
<totfact> 0.12304970E+00</totfact>
</mgrwt>
</event>
<event>
12    1  0.1504874E-007  0.1736366E+04  0.7818608E-02  0.8740891E-01
          1   -1    0    0  501    0  0.00000000000E+00  0.00000000000E+00  0.73053335044E+03  0.73053335044E+03  0.00000000000E+00 0. -1.
         -1   -1    0    0    0  501 -0.00000000000E+00 -0.00000000000E+00 -0.10317690233E+04  0.10317690233E+04  0.00000000000E+00 0.  1.
         23    2    1    2    0    0 -0.40497268570E+03 -0.42524450916E+03 -0.34448142163E+03  0.68710583389E+03  0.92796596896E+02 0.  0.
        254    2    1    2    0    0  0.40497268570E+03  0.42524450916E+03  0.43245748751E+02  0.10751965399E+04  0.89963416778E+03 0.  0.
        -24    2    4    4    0    0  0.36176916815E+03  0.11704048914E+03 -0.37990987921E+03  0.54326896196E+03  0.78957213647E+02 0.  0.
         24    2    4    4    0    0  0.43203517544E+02  0.30820402002E+03  0.42315562796E+03  0.53192757791E+03  0.83845099955E+02 0.  0.
         13    1    3    3    0    0 -0.34820181836E+03 -0.39139169323E+03 -0.27676786926E+03  0.59247988767E+03  0.00000000000E+00 0.  1.
        -13    1    3    3    0    0 -0.56770867331E+02 -0.33852815927E+02 -0.67713552371E+02  0.94625946222E+02  0.00000000000E+00 0. -1.
          4    1    6    6  502    0  0.25529104598E+02  0.29701674533E+03  0.41100885064E+03  0.50773906437E+03  0.00000000000E+00 0. -1.
          1    1    5    5  503    0  0.29955472792E+03  0.11800892036E+03 -0.34511794979E+03  0.47198044405E+03  0.00000000000E+00 0. -1.
         -4    1    5    5    0  503  0.62214440233E+02 -0.96843122387E+00 -0.34791929420E+02  0.71288517906E+02  0.00000000000E+00 0.  1.
         -3    1    6    6    0  502  0.17674412947E+02  0.11187274695E+02  0.12146777320E+02  0.24188513542E+02  0.00000000000E+00 0.  1.
<mgrwt>
<rscale>  0 0.17363660E+04</rscale>
<asrwt>0</asrwt>
<pdfrwt beam="1">  1        1 0.11238975E+00 0.17363660E+04</pdfrwt>
<pdfrwt beam="2">  1       -1 0.15873370E+00 0.17363660E+04</pdfrwt>
<totfact> 0.72328183E+00</totfact>
</mgrwt>
</event>
<event>
12    1  0.1504874E-007  0.1580147E+04  0.7818608E-02  0.8832838E-01
          3   -1    0    0  501    0  0.00000000000E+00  0.00000000000E+00  0.33907927318E+03  0.33907927318E+03  0.00000000000E+00 0. -1.
         -3   -1    0    0    0  501 -0.00000000000E+00 -0.00000000000E+00 -0.18409152524E+04  0.18409152524E+04  0.00000000000E+00 0.  1.
         23    2    1    2    0    0  0.17132250524E+03 -0.85550942100E+01  0.18030872043E+03  0.26535212720E+03  0.92064794080E+02 0.  0.
        254    2    1    2    0    0 -0.17132250524E+03  0.85550942100E+01 -0.16821446997E+04  0.19146423984E+04  0.89823166985E+03 0.  0.
        -24    2    4    4    0    0 -0.45382169218E+03 -0.19124453478E+03 -0.13022914026E+04  0.13945499781E+04  0.79234739391E+02 0.  0.
         24    2    4    4    0    0  0.28249918694E+03  0.19979962899E+03 -0.37985329711E+03  0.52009242029E+03  0.80510346782E+02 0.  0.
         11    1    3    3    0    0  0.96039406099E+02 -0.47135618219E+02  0.12380050646E+03  0.16362120715E+03  0.00000000000E+00 0. -1.
        -11    1    3    3    0    0  0.75283099141E+02  0.38580524009E+02  0.56508213969E+02  0.10173092005E+03  0.00000000000E+00 0.  1.
          4    1    6    6  502    0  0.27753170776E+03  0.17546339281E+03 -0.36581919113E+03  0.49156376150E+03  0.00000000000E+00 0. -1.
          3    1    5    5  503    0 -0.42127864535E+03 -0.18695477169E+03 -0.11533037533E+04  0.12419892637E+04  0.00000000000E+00 0. -1.
         -4    1    5    5    0  503 -0.32543046837E+02 -0.42897630995E+01 -0.14898764926E+03  0.15256071446E+03  0.00000000000E+00 0.  1.
         -3    1    6    6    0  502  0.49674791893E+01  0.24336236182E+02 -0.14034105987E+02  0.28528658782E+02  0.00000000000E+00 0.  1.
<mgrwt>
<rscale>  0 0.15801471E+04</rscale>
<asrwt>0</asrwt>
<pdfrwt beam="1">  1        3 0.52166042E-01 0.15801471E+04</pdfrwt>
<pdfrwt beam="2">  1       -3 0.28321773E+00 0.15801471E+04</pdfrwt>
<totfact> 0.43312613E-01</totfact>
</mgrwt>
</event>
<event>
12    1  0.1504874E-007  0.1398533E+04  0.7818608E-02  0.8954881E-01
          1   -1    0    0  501    0  0.00000000000E+00  0.00000000000E+00  0.10353683681E+04  0.10353683681E+04  0.00000000000E+00 0. -1.
         -1   -1    0    0    0  501 -0.00000000000E+00 -0.00000000000E+00 -0.47227017402E+03  0.47227017402E+03  0.00000000000E+00 0.  1.
         23    2    1    2    0    0 -0.24523669264E+03 -0.68435206409E+02  0.51399055410E+03  0.58081656052E+03  0.91308128723E+02 0.  0.
        254    2    1    2    0    0  0.24523669264E+03  0.68435206409E+02  0.49107640000E+02  0.92682198163E+03  0.88981066100E+03 0.  0.
        -24    2    4    4    0    0  0.98429449363E+02 -0.39254734320E+03  0.12317028857E+03  0.43012216344E+03  0.77797058713E+02 0.  0.
         24    2    4    4    0    0  0.14680724328E+03  0.46098254961E+03 -0.74062648569E+02  0.49669981818E+03  0.84664961725E+02 0.  0.
         11    1    3    3    0    0  0.58459882689E+01  0.23441938054E+01  0.33410628501E+02  0.33999131170E+02  0.00000000000E+00 0.  1.
        -11    1    3    3    0    0 -0.25108268091E+03 -0.70779400215E+02  0.48057992560E+03  0.54681742935E+03  0.00000000000E+00 0. -1.
          2    1    6    6  502    0  0.14615665519E+03  0.46481874352E+03 -0.73522105569E+02  0.49277148070E+03  0.00000000000E+00 0. -1.
          1    1    5    5  503    0  0.91081803920E+01 -0.19401056816E+03  0.51716744270E+02  0.20099174397E+03  0.00000000000E+00 0. -1.
         -2    1    5    5    0  503  0.89321268971E+02 -0.19853677505E+03  0.71453544299E+02  0.22913041948E+03  0.00000000000E+00 0.  1.
         -1    1    6    6    0  502  0.65058808534E+00 -0.38361939134E+01 -0.54054299909E+00  0.39283374768E+01  0.00000000000E+00 0.  1.
<mgrwt>
<rscale>  0 0.13985329E+04</rscale>
<asrwt>0</asrwt>
<pdfrwt beam="1">  1        1 0.15928744E+00 0.13985329E+04</pdfrwt>
<pdfrwt beam="2">  1       -1 0.72656950E-01 0.13985329E+04</pdfrwt>
<totfact> 0.26462368E+01</totfact>
</mgrwt>
</event>
<event>
12    1  0.1504874E-007  0.1704271E+04  0.7818608E-02  0.8758932E-01
         -1   -1    0    0    0  501 -0.00000000000E+00  0.00000000000E+00  0.10730881087E+04  0.10730881087E+04  0.00000000000E+00 0.  1.
          1   -1    0    0  501    0  0.00000000000E+00 -0.00000000000E+00 -0.67667808734E+03  0.67667808734E+03  0.00000000000E+00 0. -1.
         23    2    1    2    0    0  0.52730850532E+03 -0.10466583644E+03 -0.16203220126E+03  0.56890820506E+03  0.91612850841E+02 0.  0.
        254    2    1    2    0    0 -0.52730850532E+03  0.10466583644E+03  0.55844222263E+03  0.11808579910E+04  0.89081910721E+03 0.  0.
        -24    2    4    4    0    0 -0.39159726643E+03 -0.28430770017E+03  0.98329271426E+01  0.49031080002E+03  0.78286056952E+02 0.  0.
         24    2    4    4    0    0 -0.13571123889E+03  0.38897353660E+03  0.54860929549E+03  0.69054719097E+03  0.78519496457E+02 0.  0.
         11    1    3    3    0    0  0.22641519213E+03 -0.88992814058E+02 -0.57403569795E+02  0.24995745639E+03  0.00000000000E+00 0. -1.
        -11    1    3    3    0    0  0.30089331319E+03 -0.15673022380E+02 -0.10462863146E+03  0.31895074867E+03  0.00000000000E+00 0.  1.
          2    1    6    6  502    0 -0.29039569811E+02  0.20105810753E+03  0.27534351127E+03  0.34217204506E+03  0.00000000000E+00 0. -1.
          1    1    5    5  503    0 -0.20722543890E+03 -0.13384233993E+03 -0.31761560976E+02  0.24872665969E+03  0.00000000000E+00 0. -1.
         -2    1    5    5    0  503 -0.18437182753E+03 -0.15046536024E+03  0.41594488119E+02  0.24158414033E+03  0.00000000000E+00 0.  1.
         -1    1    6    6    0  502 -0.10667166908E+03  0.18791542907E+03  0.27326578422E+03  0.34837514592E+03  0.00000000000E+00 0.  1.
<mgrwt>
<rscale>  0 0.17042714E+04</rscale>
<asrwt>0</asrwt>
<pdfrwt beam="1">  1        1 0.10410432E+00 0.17042714E+04</pdfrwt>
<pdfrwt beam="2">  1       -1 0.16509048E+00 0.17042714E+04</pdfrwt>
<totfact> 0.72994127E+00</totfact>
</mgrwt>
</event>
<event>
12    1  0.1504874E-007  0.1598232E+04  0.7818608E-02  0.8821635E-01
         -2   -1    0    0    0  501 -0.00000000000E+00  0.00000000000E+00  0.26419424157E+03  0.26419424157E+03  0.00000000000E+00 0.  1.
          2   -1    0    0  501    0  0.00000000000E+00 -0.00000000000E+00 -0.24171099663E+04  0.24171099663E+04  0.00000000000E+00 0. -1.
         23    2    1    2    0    0 -0.11195131621E+03 -0.41043251008E+03 -0.12943436349E+04  0.13655159244E+04  0.91215963639E+02 0.  0.
        254    2    1    2    0    0  0.11195131621E+03  0.41043251008E+03 -0.85857208985E+03  0.13157882835E+04  0.90175652535E+03 0.  0.
        -24    2    4    4    0    0 -0.19067223996E+03  0.59497920895E+03 -0.48651018654E+03  0.79560169203E+03  0.77030698894E+02 0.  0.
         24    2    4    4    0    0  0.30262355617E+03 -0.18454669887E+03 -0.37206190331E+03  0.52018659148E+03  0.80780748008E+02 0.  0.
         11    1    3    3    0    0  0.11923680975E+02 -0.13757134438E+02 -0.36251573172E+02  0.40566112377E+02  0.00000000000E+00 0.  1.
        -11    1    3    3    0    0 -0.12387499719E+03 -0.39667537565E+03 -0.12580920617E+04  0.13249498120E+04  0.00000000000E+00 0. -1.
          4    1    6    6  502    0  0.30699953022E+03 -0.18170493569E+03 -0.37131151388E+03  0.51491517316E+03  0.00000000000E+00 0. -1.
          3    1    5    5  503    0 -0.17227351038E+03  0.46239424670E+03 -0.35434066330E+03  0.60748984142E+03  0.00000000000E+00 0. -1.
         -4    1    5    5    0  503 -0.18398729581E+02  0.13258496225E+03 -0.13216952324E+03  0.18811185061E+03  0.00000000000E+00 0.  1.
         -3    1    6    6    0  502 -0.43759740480E+01 -0.28417631811E+01 -0.75038943077E+00  0.52714183238E+01  0.00000000000E+00 0.  1.
<mgrwt>
<rscale>  0 0.15982322E+04</rscale>
<asrwt>0</asrwt>
<pdfrwt beam="1">  1        2 0.37186307E+00 0.15982322E+04</pdfrwt>
<pdfrwt beam="2">  1       -2 0.40645268E-01 0.15982322E+04</pdfrwt>
<totfact> 0.21400036E+01</totfact>
</mgrwt>
</event>
<event>
12    1  0.1504874E-007  0.1776473E+04  0.7818608E-02  0.8718912E-01
          2   -1    0    0  501    0  0.00000000000E+00  0.00000000000E+00  0.44225207085E+04  0.44225207085E+04  0.00000000000E+00 0. -1.
         -2   -1    0    0    0  501 -0.00000000000E+00 -0.00000000000E+00 -0.17839698867E+03  0.17839698867E+03  0.00000000000E+00 0.  1.
         23    2    1    2    0    0  0.46902972424E+03  0.29231864578E+03  0.70185394891E+03  0.89810885106E+03  0.92528211132E+02 0.  0.
        254    2    1    2    0    0 -0.46902972424E+03 -0.29231864578E+03  0.35422697709E+04  0.37028088461E+04  0.92610968465E+03 0.  0.
        -24    2    4    4    0    0 -0.38945819714E+03 -0.13684947435E+03  0.49425422573E+03  0.64875105180E+03  0.78646179878E+02 0.  0.
         24    2    4    4    0    0 -0.79571527108E+02 -0.15546917142E+03  0.30480155452E+04  0.30540577943E+04  0.79799474477E+02 0.  0.
         11    1    3    3    0    0  0.28046296380E+03  0.21864309081E+03  0.40744171041E+03  0.54080775013E+03  0.00000000000E+00 0.  1.
        -11    1    3    3    0    0  0.18856676044E+03  0.73675554968E+02  0.29441223849E+03  0.35730110092E+03  0.00000000000E+00 0. -1.
          4    1    6    6  502    0 -0.26505069829E+02 -0.11536625442E+03  0.15233911248E+04  0.15279831185E+04  0.00000000000E+00 0. -1.
          3    1    5    5  503    0 -0.13162316930E+03 -0.15991178906E+02  0.19359790802E+03  0.23464979542E+03  0.00000000000E+00 0. -1.
         -4    1    5    5    0  503 -0.25783502783E+03 -0.12085829545E+03  0.30065631771E+03  0.41410125638E+03  0.00000000000E+00 0.  1.
         -3    1    6    6    0  502 -0.53066457278E+02 -0.40102917004E+02  0.15246244204E+04  0.15260746758E+04  0.00000000000E+00 0.  1.
<mgrwt>
<rscale>  0 0.17764733E+04</rscale>
<asrwt>0</asrwt>
<pdfrwt beam="1">  1        2 0.68038772E+00 0.17764733E+04</pdfrwt>
<pdfrwt beam="2">  1       -2 0.27445694E-01 0.17764733E+04</pdfrwt>
<totfact> 0.17093014E+00</totfact>
</mgrwt>
</event>
<event>
12    1  0.1504874E-007  0.2237379E+04  0.7818608E-02  0.8503029E-01
         -2   -1    0    0    0  501 -0.00000000000E+00  0.00000000000E+00  0.84034780861E+03  0.84034780861E+03  0.00000000000E+00 0.  1.
          2   -1    0    0  501    0  0.00000000000E+00 -0.00000000000E+00 -0.14892246793E+04  0.14892246793E+04  0.00000000000E+00 0. -1.
         23    2    1    2    0    0  0.23695026714E+03 -0.43262581502E+03  0.55588594492E+03  0.74850980974E+03  0.89147218690E+02 0.  0.
        254    2    1    2    0    0 -0.23695026714E+03  0.43262581502E+03 -0.12047628156E+04  0.15810626782E+04  0.89721526153E+03 0.  0.
        -24    2    4    4    0    0 -0.13156732637E+03 -0.12935773896E+02  0.10801055345E+03  0.18837094477E+03  0.79624352833E+02 0.  0.
         24    2    4    4    0    0 -0.10538294077E+03  0.44556158891E+03 -0.13127733691E+04  0.13926917334E+04  0.81152030451E+02 0.  0.
         11    1    3    3    0    0  0.21121652573E+03 -0.35367277063E+03  0.50257331973E+03  0.64982827819E+03  0.00000000000E+00 0.  1.
        -11    1    3    3    0    0  0.25733741402E+02 -0.78953044383E+02  0.53312625185E+02  0.98681531544E+02  0.00000000000E+00 0. -1.
          4    1    6    6  502    0 -0.84174921399E+02  0.21153370960E+03 -0.71583147534E+03  0.75116351667E+03  0.00000000000E+00 0. -1.
          1    1    5    5  503    0 -0.59476740879E+02  0.23714616197E+02  0.80690485347E+02  0.10300883531E+03  0.00000000000E+00 0. -1.
         -2    1    5    5    0  503 -0.72090585492E+02 -0.36650390093E+02  0.27320068101E+02  0.85362109460E+02  0.00000000000E+00 0.  1.
         -3    1    6    6    0  502 -0.21208019367E+02  0.23402787931E+03 -0.59694189372E+03  0.64152821673E+03  0.00000000000E+00 0.  1.
<mgrwt>
<rscale>  0 0.22373794E+04</rscale>
<asrwt>0</asrwt>
<pdfrwt beam="1">  1        2 0.22911149E+00 0.22373794E+04</pdfrwt>
<pdfrwt beam="2">  1       -2 0.12928428E+00 0.22373794E+04</pdfrwt>
<totfact> 0.51673269E+00</totfact>
</mgrwt>
</event>
<event>
12    1  0.1504874E-007  0.2046339E+04  0.7818608E-02  0.8585257E-01
         -1   -1    0    0    0  501 -0.00000000000E+00  0.00000000000E+00  0.85831645237E+03  0.85831645237E+03  0.00000000000E+00 0.  1.
          1   -1    0    0  501    0  0.00000000000E+00 -0.00000000000E+00 -0.12196848505E+04  0.12196848505E+04  0.00000000000E+00 0. -1.
         23    2    1    2    0    0 -0.32807273691E+02 -0.23485650300E+03  0.65473565410E+03  0.70217657110E+03  0.90217880905E+02 0.  0.
        254    2    1    2    0    0  0.32807273691E+02  0.23485650300E+03 -0.10161040522E+04  0.13758247317E+04  0.89676772543E+03 0.  0.
        -24    2    4    4    0    0 -0.10758209792E+03  0.16009169191E+03  0.10989061152E+03  0.23589202597E+03  0.79786238177E+02 0.  0.
         24    2    4    4    0    0  0.14038937161E+03  0.74764811085E+02 -0.11259946637E+04  0.11399327058E+04  0.79269403597E+02 0.  0.
         11    1    3    3    0    0  0.12894653193E+02 -0.92861015672E+02  0.35779353579E+03  0.36987248420E+03  0.00000000000E+00 0. -1.
        -11    1    3    3    0    0 -0.45701926885E+02 -0.14199548732E+03  0.29694211831E+03  0.33230408690E+03  0.00000000000E+00 0.  1.
          2    1    6    6  502    0  0.14200498002E+03  0.86169124042E+02 -0.10433835316E+04  0.10565224684E+04  0.00000000000E+00 0. -1.
          1    1    5    5  503    0 -0.92485109585E+02  0.14847737928E+03  0.64104554939E+02  0.18630196354E+03  0.00000000000E+00 0. -1.
         -2    1    5    5    0  503 -0.15096988335E+02  0.11614312628E+02  0.45786056579E+02  0.49590062429E+02  0.00000000000E+00 0.  1.
         -1    1    6    6    0  502 -0.16156084064E+01 -0.11404312957E+02 -0.82611132122E+02  0.83410237351E+02  0.00000000000E+00 0.  1.
<mgrwt>
<rscale>  0 0.20463388E+04</rscale>
<asrwt>0</asrwt>
<pdfrwt beam="1">  1        1 0.18764382E+00 0.20463388E+04</pdfrwt>
<pdfrwt beam="2">  1       -1 0.13204869E+00 0.20463388E+04</pdfrwt>
<totfact> 0.46559915E+00</totfact>
</mgrwt>
</event>
<event>
12    1  0.1504874E-007  0.1344719E+04  0.7818608E-02  0.8994835E-01
          1   -1    0    0  501    0  0.00000000000E+00  0.00000000000E+00  0.57850142308E+03  0.57850142308E+03  0.00000000000E+00 0. -1.
         -1   -1    0    0    0  501 -0.00000000000E+00 -0.00000000000E+00 -0.78144572268E+03  0.78144572268E+03  0.00000000000E+00 0.  1.
         23    2    1    2    0    0 -0.35520471037E+01  0.15309720761E+03  0.27305431273E+03  0.32639998071E+03  0.92341310834E+02 0.  0.
        254    2    1    2    0    0  0.35520471037E+01 -0.15309720761E+03 -0.47599861233E+03  0.10335471650E+04  0.90454059689E+03 0.  0.
        -24    2    4    4    0    0  0.28060126227E+03 -0.18534540274E+03  0.12314074790E+03  0.36754308277E+03  0.82669747787E+02 0.  0.
         24    2    4    4    0    0 -0.27704921516E+03  0.32248195121E+02 -0.59913936023E+03  0.66600408228E+03  0.82445442093E+02 0.  0.
         11    1    3    3    0    0  0.38048931525E+02  0.33460335494E+02  0.98039385039E+02  0.11035867098E+03  0.00000000000E+00 0.  1.
        -11    1    3    3    0    0 -0.41600978629E+02  0.11963687212E+03  0.17501492770E+03  0.21604130973E+03  0.00000000000E+00 0. -1.
          4    1    6    6  502    0 -0.11617572907E+02  0.16357302432E+02 -0.83060859857E+02  0.85449609614E+02  0.00000000000E+00 0. -1.
          3    1    5    5  503    0  0.12707324622E+03 -0.13322378370E+03  0.68816521946E+02  0.19654999400E+03  0.00000000000E+00 0. -1.
         -2    1    5    5    0  503  0.15352801605E+03 -0.52121619035E+02  0.54324225951E+02  0.17099308877E+03  0.00000000000E+00 0.  1.
         -3    1    6    6    0  502 -0.26543164226E+03  0.15890892690E+02 -0.51607850037E+03  0.58055447266E+03  0.00000000000E+00 0.  1.
<mgrwt>
<rscale>  0 0.13447192E+04</rscale>
<asrwt>0</asrwt>
<pdfrwt beam="1">  1        1 0.89000219E-01 0.13447192E+04</pdfrwt>
<pdfrwt beam="2">  1       -1 0.12022242E+00 0.13447192E+04</pdfrwt>
<totfact> 0.21791805E+01</totfact>
</mgrwt>
</event>
<event>
12    1  0.1504874E-007  0.2727444E+04  0.7818608E-02  0.8326155E-01
          2   -1    0    0  501    0  0.00000000000E+00  0.00000000000E+00  0.12962193265E+04  0.12962193265E+04  0.00000000000E+00 0. -1.
         -2   -1    0    0    0  501 -0.00000000000E+00 -0.00000000000E+00 -0.14347397098E+04  0.14347397098E+04  0.00000000000E+00 0.  1.
         23    2    1    2    0    0  0.22518660702E+03 -0.66941241462E+03  0.93318806018E+03  0.11741085188E+04  0.94174674469E+02 0.  0.
        254    2    1    2    0    0 -0.22518660702E+03  0.66941241462E+03 -0.10717084435E+04  0.15568505176E+04  0.88113708206E+03 0.  0.
        -24    2    4    4    0    0 -0.20320904620E+02 -0.69105974031E+02  0.10575028026E+03  0.15021397460E+03  0.78692703458E+02 0.  0.
         24    2    4    4    0    0 -0.20486570240E+03  0.73851838865E+03 -0.11774587237E+04  0.14066365430E+04  0.69555384354E+02 0.  0.
         11    1    3    3    0    0  0.16748967713E+03 -0.57146503449E+03  0.73879461342E+03  0.94891651815E+03  0.00000000000E+00 0. -1.
        -11    1    3    3    0    0  0.57696929893E+02 -0.97947380126E+02  0.19439344676E+03  0.22519200061E+03  0.00000000000E+00 0.  1.
          2    1    6    6  502    0 -0.98627556787E+02  0.26622294748E+03 -0.47903638542E+03  0.55684639828E+03  0.00000000000E+00 0. -1.
          1    1    5    5  503    0  0.62451152892E+00 -0.75976439514E+02  0.10301199603E+03  0.12800109648E+03  0.00000000000E+00 0. -1.
         -2    1    5    5    0  503 -0.20945416149E+02  0.68704654825E+01  0.27382842378E+01  0.22212878115E+02  0.00000000000E+00 0.  1.
         -3    1    6    6    0  502 -0.10623814561E+03  0.47229544117E+03 -0.69842233833E+03  0.84979014469E+03  0.00000000000E+00 0.  1.
<mgrwt>
<rscale>  0 0.27274437E+04</rscale>
<asrwt>0</asrwt>
<pdfrwt beam="1">  1        2 0.19941836E+00 0.27274437E+04</pdfrwt>
<pdfrwt beam="2">  1       -2 0.22072919E+00 0.27274437E+04</pdfrwt>
<totfact> 0.14223041E+00</totfact>
</mgrwt>
</event>
<event>
12    1  0.1652584E-007  0.1620794E+04  0.7818608E-02  0.8807874E-01
          2   -1    0    0  501    0  0.00000000000E+00  0.00000000000E+00  0.15283540234E+04  0.15283540234E+04  0.00000000000E+00 0. -1.
         -2   -1    0    0    0  501 -0.00000000000E+00 -0.00000000000E+00 -0.42970632354E+03  0.42970632354E+03  0.00000000000E+00 0.  1.
         23    2    1    2    0    0  0.42141452527E+03  0.42476574316E+02  0.78767096722E+03  0.89873946190E+03  0.88952831851E+02 0.  0.
        254    2    1    2    0    0 -0.42141452527E+03 -0.42476574316E+02  0.31097673268E+03  0.10593208851E+04  0.91981506175E+03 0.  0.
        -24    2    4    4    0    0 -0.58174717581E+03 -0.29885194929E+03  0.34698689573E+03  0.74455251806E+03  0.78843402862E+02 0.  0.
         24    2    4    4    0    0  0.16033265054E+03  0.25637537498E+03 -0.36010163050E+02  0.31476836702E+03  0.79671207520E+02 0.  0.
         13    1    3    3    0    0  0.97203925467E+02  0.10784193084E+02  0.26930692887E+03  0.28651548629E+03  0.00000000000E+00 0.  1.
        -13    1    3    3    0    0  0.32421059980E+03  0.31692381232E+02  0.51836403835E+03  0.61222397561E+03  0.00000000000E+00 0. -1.
          4    1    6    6  502    0  0.14317658512E+03  0.20869104559E+03 -0.57808662162E+02  0.25960225048E+03  0.00000000000E+00 0. -1.
          1    1    5    5  503    0 -0.35057940310E+03 -0.14808819117E+03  0.23093335334E+03  0.44515867275E+03  0.00000000000E+00 0. -1.
         -2    1    5    5    0  503 -0.23116777272E+03 -0.15076375813E+03  0.11605354238E+03  0.29939384531E+03  0.00000000000E+00 0.  1.
         -3    1    6    6    0  502  0.17156065426E+02  0.47684329388E+02  0.21798499111E+02  0.55166116535E+02  0.00000000000E+00 0.  1.
<mgrwt>
<rscale>  0 0.16207941E+04</rscale>
<asrwt>0</asrwt>
<pdfrwt beam="1">  1        2 0.23513139E+00 0.16207941E+04</pdfrwt>
<pdfrwt beam="2">  1       -2 0.66108666E-01 0.16207941E+04</pdfrwt>
<totfact> 0.24654160E+01</totfact>
</mgrwt>
</event>
<event>
12    1  0.1504874E-007  0.3496115E+04  0.7818608E-02  0.8114711E-01
         -2   -1    0    0    0  501 -0.00000000000E+00  0.00000000000E+00  0.42248809683E+04  0.42248809683E+04  0.00000000000E+00 0.  1.
          2   -1    0    0  501    0  0.00000000000E+00 -0.00000000000E+00 -0.72326401976E+03  0.72326401976E+03  0.00000000000E+00 0. -1.
         23    2    1    2    0    0 -0.54034624851E+03  0.13878181544E+04  0.25705262463E+04  0.29722758448E+04  0.93836115541E+02 0.  0.
        254    2    1    2    0    0  0.54034624851E+03 -0.13878181544E+04  0.93109070226E+03  0.19758691433E+04  0.90505009663E+03 0.  0.
        -24    2    4    4    0    0  0.22289782614E+02 -0.35689541574E+03 -0.14724741315E+03  0.39457263885E+03  0.78323651995E+02 0.  0.
         24    2    4    4    0    0  0.51805646589E+03 -0.10309227387E+04  0.10783381154E+04  0.15812965044E+04  0.80630941408E+02 0.  0.
         13    1    3    3    0    0 -0.52792331874E+03  0.13339036808E+04  0.24394849296E+04  0.28300333535E+04  0.00000000000E+00 0. -1.
        -13    1    3    3    0    0 -0.12422929762E+02  0.53914473649E+02  0.13104131664E+03  0.14224249126E+03  0.00000000000E+00 0.  1.
          4    1    6    6  502    0  0.36940932345E+03 -0.65037489545E+03  0.68908615465E+03  0.10170007283E+04  0.00000000000E+00 0. -1.
          3    1    5    5  503    0  0.51402992195E-01 -0.33347724860E+03 -0.13865651141E+03  0.36115468450E+03  0.00000000000E+00 0. -1.
         -4    1    5    5    0  503  0.22238379622E+02 -0.23418167144E+02 -0.85909017378E+01  0.33417954354E+02  0.00000000000E+00 0.  1.
         -3    1    6    6    0  502  0.14864714244E+03 -0.38054784325E+03  0.38925196076E+03  0.56429577609E+03  0.00000000000E+00 0.  1.
<mgrwt>
<rscale>  0 0.34961146E+04</rscale>
<asrwt>0</asrwt>
<pdfrwt beam="1">  1        2 0.11127139E+00 0.34961146E+04</pdfrwt>
<pdfrwt beam="2">  1       -2 0.64998167E+00 0.34961146E+04</pdfrwt>
<totfact> 0.10779686E-02</totfact>
</mgrwt>
</event>
<event>
12    1  0.1504874E-007  0.1545211E+04  0.7818608E-02  0.8854933E-01
         -1   -1    0    0    0  501 -0.00000000000E+00  0.00000000000E+00  0.47848707685E+03  0.47848707685E+03  0.00000000000E+00 0.  1.
          1   -1    0    0  501    0  0.00000000000E+00 -0.00000000000E+00 -0.12475136413E+04  0.12475136413E+04  0.00000000000E+00 0. -1.
         23    2    1    2    0    0  0.66914800533E+02 -0.48383835021E+01  0.30146196703E+03  0.32643874310E+03  0.10574466865E+03 0.  0.
        254    2    1    2    0    0 -0.66914800533E+02  0.48383835021E+01 -0.10704885315E+04  0.13995619750E+04  0.89907008930E+03 0.  0.
        -24    2    4    4    0    0  0.88266247986E+02 -0.12690973282E+03  0.10596946063E+03  0.20302174560E+03  0.78046728190E+02 0.  0.
         24    2    4    4    0    0 -0.15518104852E+03  0.13174811632E+03 -0.11764579921E+04  0.11965402294E+04  0.78844083441E+02 0.  0.
         11    1    3    3    0    0  0.69059337811E+02 -0.10731625048E+02  0.30890134653E+03  0.31670870181E+03  0.00000000000E+00 0.  1.
        -11    1    3    3    0    0 -0.21445372783E+01  0.58932415461E+01 -0.74393795036E+01  0.97300412875E+01  0.00000000000E+00 0. -1.
          2    1    6    6  502    0 -0.15413556793E+03  0.11029986605E+03 -0.11238161444E+04  0.11396870448E+04  0.00000000000E+00 0. -1.
          1    1    5    5  503    0  0.58022084763E+02 -0.12903191236E+03  0.76934056066E+02  0.16104237241E+03  0.00000000000E+00 0. -1.
         -2    1    5    5    0  503  0.30244163223E+02  0.21221795422E+01  0.29035404567E+02  0.41979373190E+02  0.00000000000E+00 0.  1.
         -1    1    6    6    0  502 -0.10454805909E+01  0.21448250275E+02 -0.52641847732E+02  0.56853184626E+02  0.00000000000E+00 0.  1.
<mgrwt>
<rscale>  0 0.15452109E+04</rscale>
<asrwt>0</asrwt>
<pdfrwt beam="1">  1        1 0.19192518E+00 0.15452109E+04</pdfrwt>
<pdfrwt beam="2">  1       -1 0.73613396E-01 0.15452109E+04</pdfrwt>
<totfact> 0.17681052E+01</totfact>
</mgrwt>
</event>
<event>
12    1  0.1504874E-007  0.1600951E+04  0.7818608E-02  0.8819964E-01
         -4   -1    0    0    0  501 -0.00000000000E+00  0.00000000000E+00  0.23358292663E+03  0.23358292663E+03  0.00000000000E+00 0.  1.
          4   -1    0    0  501    0  0.00000000000E+00 -0.00000000000E+00 -0.27431853554E+04  0.27431853554E+04  0.00000000000E+00 0. -1.
         23    2    1    2    0    0  0.15570435464E+03  0.43278469298E+03 -0.32946847285E+03  0.57313466554E+03  0.91582933508E+02 0.  0.
        254    2    1    2    0    0 -0.15570435464E+03 -0.43278469298E+03 -0.21801339560E+04  0.24036336165E+04  0.90162301437E+03 0.  0.
        -24    2    4    4    0    0 -0.26169971656E+03  0.13640182489E+03 -0.27642854692E+03  0.41223144649E+03  0.80186186098E+02 0.  0.
         24    2    4    4    0    0  0.10599536192E+03 -0.56918651787E+03 -0.19037054090E+04  0.19914021700E+04  0.79874962000E+02 0.  0.
         11    1    3    3    0    0  0.13954601700E+03  0.36143060715E+03 -0.23313533854E+03  0.45216950442E+03  0.00000000000E+00 0.  1.
        -11    1    3    3    0    0  0.16158337635E+02  0.71354085824E+02 -0.96333134311E+02  0.12096516112E+03  0.00000000000E+00 0. -1.
          2    1    6    6  502    0  0.11889813270E+02 -0.84831595548E+02 -0.19730766921E+03  0.21510017106E+03  0.00000000000E+00 0. -1.
          1    1    5    5  503    0 -0.10821644379E+03  0.14312661578E+02 -0.11066774745E+03  0.15544452810E+03  0.00000000000E+00 0. -1.
         -2    1    5    5    0  503 -0.15348327276E+03  0.12208916331E+03 -0.16576079947E+03  0.25678691839E+03  0.00000000000E+00 0.  1.
         -1    1    6    6    0  502  0.94105548653E+02 -0.48435492232E+03 -0.17063977398E+04  0.17763019990E+04  0.00000000000E+00 0.  1.
<mgrwt>
<rscale>  0 0.16009513E+04</rscale>
<asrwt>0</asrwt>
<pdfrwt beam="1">  1        4 0.42202850E+00 0.16009513E+04</pdfrwt>
<pdfrwt beam="2">  1       -4 0.35935836E-01 0.16009513E+04</pdfrwt>
<totfact> 0.69987673E-02</totfact>
</mgrwt>
</event>
<event>
12    1  0.1504874E-007  0.1715289E+04  0.7818608E-02  0.8752692E-01
         -2   -1    0    0    0  501 -0.00000000000E+00  0.00000000000E+00  0.23168954839E+03  0.23168954839E+03  0.00000000000E+00 0.  1.
          2   -1    0    0  501    0  0.00000000000E+00 -0.00000000000E+00 -0.31747407188E+04  0.31747407188E+04  0.00000000000E+00 0. -1.
         23    2    1    2    0    0 -0.13828700541E+03 -0.12760215650E+03  0.96390118021E+02  0.23021554489E+03  0.91118253106E+02 0.  0.
        254    2    1    2    0    0  0.13828700541E+03  0.12760215650E+03 -0.30394412885E+04  0.31762147223E+04  0.90262451224E+03 0.  0.
        -24    2    4    4    0    0  0.43267646783E+03 -0.18962588828E+03 -0.17121923102E+04  0.17779062623E+04  0.78621033301E+02 0.  0.
         24    2    4    4    0    0 -0.29438946242E+03  0.31722804478E+03 -0.13272489782E+04  0.13983084601E+04  0.79861826096E+02 0.  0.
         11    1    3    3    0    0 -0.34879714172E+02  0.92579385848E+01  0.68990843211E+01  0.36741002328E+02  0.00000000000E+00 0. -1.
        -11    1    3    3    0    0 -0.10340729124E+03 -0.13686009509E+03  0.89491033700E+02  0.19347454257E+03  0.00000000000E+00 0.  1.
          4    1    6    6  502    0 -0.20318761116E+02  0.43444947542E+02 -0.92192567270E+02  0.10392201393E+03  0.00000000000E+00 0. -1.
          3    1    5    5  503    0  0.12842739740E+03 -0.37428992926E+02 -0.37598711365E+03  0.39907497484E+03  0.00000000000E+00 0. -1.
         -4    1    5    5    0  503  0.30424907043E+03 -0.15219689535E+03 -0.13362051966E+04  0.13788312874E+04  0.00000000000E+00 0.  1.
         -1    1    6    6    0  502 -0.27407070131E+03  0.27378309724E+03 -0.12350564110E+04  0.12943864461E+04  0.00000000000E+00 0.  1.
<mgrwt>
<rscale>  0 0.17152892E+04</rscale>
<asrwt>0</asrwt>
<pdfrwt beam="1">  1        2 0.48842164E+00 0.17152892E+04</pdfrwt>
<pdfrwt beam="2">  1       -2 0.35644547E-01 0.17152892E+04</pdfrwt>
<totfact> 0.95277786E+00</totfact>
</mgrwt>
</event>
<event>
12    1  0.1504874E-007  0.1684186E+04  0.7818608E-02  0.8770435E-01
         -2   -1    0    0    0  501 -0.00000000000E+00  0.00000000000E+00  0.73561985729E+03  0.73561985729E+03  0.00000000000E+00 0.  1.
          2   -1    0    0  501    0  0.00000000000E+00 -0.00000000000E+00 -0.96397705911E+03  0.96397705911E+03  0.00000000000E+00 0. -1.
         23    2    1    2    0    0  0.29821927248E+03 -0.41934549237E+03 -0.38917764525E+03  0.65140587045E+03  0.89916583800E+02 0.  0.
        254    2    1    2    0    0 -0.29821927248E+03  0.41934549237E+03  0.16082044343E+03  0.10481910460E+04  0.89891928300E+03 0.  0.
        -24    2    4    4    0    0  0.75874962117E+02  0.31300891765E+03  0.44839830487E+03  0.55825922432E+03  0.82829519668E+02 0.  0.
         24    2    4    4    0    0 -0.37409423460E+03  0.10633657473E+03 -0.28757786145E+03  0.48993182163E+03  0.77962811464E+02 0.  0.
         11    1    3    3    0    0  0.12941792754E+03 -0.21762289806E+03 -0.14118261609E+03  0.28989870096E+03  0.00000000000E+00 0.  1.
        -11    1    3    3    0    0  0.16880134494E+03 -0.20172259431E+03 -0.24799502915E+03  0.36150716949E+03  0.00000000000E+00 0. -1.
          2    1    6    6  502    0 -0.36082061469E+03  0.10464057096E+03 -0.29201941355E+03  0.47583243160E+03  0.00000000000E+00 0. -1.
          1    1    5    5  503    0  0.61934804787E+02  0.17303359921E+03  0.31328222863E+03  0.36321109740E+03  0.00000000000E+00 0. -1.
         -2    1    5    5    0  503  0.13940157331E+02  0.13997531843E+03  0.13511607625E+03  0.19504812693E+03  0.00000000000E+00 0.  1.
         -1    1    6    6    0  502 -0.13273619912E+02  0.16960037675E+01  0.44415520986E+01  0.14099390036E+02  0.00000000000E+00 0.  1.
<mgrwt>
<rscale>  0 0.16841861E+04</rscale>
<asrwt>0</asrwt>
<pdfrwt beam="1">  1        2 0.14830416E+00 0.16841861E+04</pdfrwt>
<pdfrwt beam="2">  1       -2 0.11317229E+00 0.16841861E+04</pdfrwt>
<totfact> 0.15529821E+01</totfact>
</mgrwt>
</event>
<event>
12    1  0.1504874E-007  0.1358962E+04  0.7818608E-02  0.8984072E-01
          1   -1    0    0  501    0  0.00000000000E+00  0.00000000000E+00  0.84098145775E+03  0.84098145775E+03  0.00000000000E+00 0. -1.
         -1   -1    0    0    0  501 -0.00000000000E+00 -0.00000000000E+00 -0.54899444984E+03  0.54899444984E+03  0.00000000000E+00 0.  1.
         23    2    1    2    0    0  0.19210820886E+03  0.30181217489E+03  0.17742758294E+03  0.40946803436E+03  0.90484093348E+02 0.  0.
        254    2    1    2    0    0 -0.19210820886E+03 -0.30181217489E+03  0.11455942498E+03  0.98050787322E+03  0.90569071695E+03 0.  0.
        -24    2    4    4    0    0  0.25066965686E+03 -0.38181458633E+03  0.21713807660E+03  0.51230080355E+03  0.81764991288E+02 0.  0.
         24    2    4    4    0    0 -0.44277786572E+03  0.80002411436E+02 -0.10257865163E+03  0.46820706967E+03  0.79011746703E+02 0.  0.
         11    1    3    3    0    0  0.16814271651E+03  0.25951982935E+03  0.18489129763E+03  0.36028781118E+03  0.00000000000E+00 0. -1.
        -11    1    3    3    0    0  0.23965492345E+02  0.42292345541E+02 -0.74637146982E+01  0.49180223178E+02  0.00000000000E+00 0.  1.
          2    1    6    6  502    0 -0.23131435830E+03  0.81017132638E+02 -0.46977083052E+02  0.24955351023E+03  0.00000000000E+00 0. -1.
          1    1    5    5  503    0  0.23755104046E+03 -0.32959592934E+03  0.21185969949E+03  0.45820138119E+03  0.00000000000E+00 0. -1.
         -2    1    5    5    0  503  0.13118616402E+02 -0.52218656992E+02  0.52783771154E+01  0.54099422356E+02  0.00000000000E+00 0.  1.
         -1    1    6    6    0  502 -0.21146350742E+03 -0.10147212021E+01 -0.55601568577E+02  0.21865355945E+03  0.00000000000E+00 0.  1.
<mgrwt>
<rscale>  0 0.13589616E+04</rscale>
<asrwt>0</asrwt>
<pdfrwt beam="1">  1        1 0.12938176E+00 0.13589616E+04</pdfrwt>
<pdfrwt beam="2">  1       -1 0.84460685E-01 0.13589616E+04</pdfrwt>
<totfact> 0.27687379E+01</totfact>
</mgrwt>
</event>
<event>
12    1  0.1504874E-007  0.1167301E+04  0.7818608E-02  0.9141970E-01
          1   -1    0    0  501    0  0.00000000000E+00  0.00000000000E+00  0.89322072461E+03  0.89322072461E+03  0.00000000000E+00 0. -1.
         -1   -1    0    0    0  501 -0.00000000000E+00 -0.00000000000E+00 -0.38137012348E+03  0.38137012348E+03  0.00000000000E+00 0.  1.
         23    2    1    2    0    0  0.15741839198E+03 -0.65023300015E+01 -0.66671837819E+02  0.19459127317E+03  0.92724318311E+02 0.  0.
        254    2    1    2    0    0 -0.15741839198E+03  0.65023300015E+01  0.57852243894E+03  0.10799995749E+04  0.89826946906E+03 0.  0.
        -24    2    4    4    0    0  0.33694611706E+03 -0.16186197425E+03  0.21230147888E+03  0.43718151249E+03  0.79522150518E+02 0.  0.
         24    2    4    4    0    0 -0.49436450904E+03  0.16836430425E+03  0.36622096007E+03  0.64281806243E+03  0.79714885952E+02 0.  0.
         13    1    3    3    0    0  0.30840668745E+02 -0.31238353144E+02  0.93487034040E+01  0.44881842778E+02  0.00000000000E+00 0. -1.
        -13    1    3    3    0    0  0.12657772324E+03  0.24736023142E+02 -0.76020541222E+02  0.14970943039E+03  0.00000000000E+00 0.  1.
          2    1    6    6  502    0 -0.11465565433E+03  0.77758300577E+01  0.97447202012E+02  0.15067295637E+03  0.00000000000E+00 0. -1.
          1    1    5    5  503    0  0.75062379439E+02 -0.99966451775E+01  0.19248209335E+02  0.78133138197E+02  0.00000000000E+00 0. -1.
         -2    1    5    5    0  503  0.26188373762E+03 -0.15186532907E+03  0.19305326954E+03  0.35904837430E+03  0.00000000000E+00 0.  1.
         -1    1    6    6    0  502 -0.37970885472E+03  0.16058847419E+03  0.26877375806E+03  0.49214510606E+03  0.00000000000E+00 0.  1.
<mgrwt>
<rscale>  0 0.11673006E+04</rscale>
<asrwt>0</asrwt>
<pdfrwt beam="1">  1        1 0.13741857E+00 0.11673006E+04</pdfrwt>
<pdfrwt beam="2">  1       -1 0.58672327E-01 0.11673006E+04</pdfrwt>
<totfact> 0.53828200E+01</totfact>
</mgrwt>
</event>
<event>
12    1  0.1504874E-007  0.2026590E+04  0.7818608E-02  0.8594289E-01
         -1   -1    0    0    0  501 -0.00000000000E+00  0.00000000000E+00  0.10742243925E+04  0.10742243925E+04  0.00000000000E+00 0.  1.
          1   -1    0    0  501    0  0.00000000000E+00 -0.00000000000E+00 -0.95582121520E+03  0.95582121520E+03  0.00000000000E+00 0. -1.
         23    2    1    2    0    0  0.61571420378E+02 -0.57477410042E+03  0.61718883699E+03  0.85057104541E+03  0.91611879505E+02 0.  0.
        254    2    1    2    0    0 -0.61571420378E+02  0.57477410042E+03 -0.49878565966E+03  0.11794745623E+04  0.89900878890E+03 0.  0.
        -24    2    4    4    0    0  0.12299070056E+03  0.76632982139E+03 -0.44171159965E+03  0.89640854101E+03  0.77788351029E+02 0.  0.
         24    2    4    4    0    0 -0.18456212094E+03 -0.19155572097E+03 -0.57074060008E+02  0.28306602129E+03  0.78180261984E+02 0.  0.
         13    1    3    3    0    0  0.33743368049E+02 -0.78057050390E+02  0.62963921782E+02  0.10581102707E+03  0.00000000000E+00 0. -1.
        -13    1    3    3    0    0  0.27828052330E+02 -0.49671705003E+03  0.55422491521E+03  0.74476001835E+03  0.00000000000E+00 0.  1.
          4    1    6    6  502    0  0.41130520230E+01 -0.25598655207E+02 -0.68899701385E+01  0.26826852850E+02  0.00000000000E+00 0. -1.
          1    1    5    5  503    0 -0.99152099687E+01  0.98471039193E+02 -0.51282582504E+02  0.11146640847E+03  0.00000000000E+00 0. -1.
         -2    1    5    5    0  503  0.13290591053E+03  0.66785878220E+03 -0.39042901715E+03  0.78494213255E+03  0.00000000000E+00 0.  1.
         -3    1    6    6    0  502 -0.18867517296E+03 -0.16595706576E+03 -0.50184089869E+02  0.25623916844E+03  0.00000000000E+00 0.  1.
<mgrwt>
<rscale>  0 0.20265897E+04</rscale>
<asrwt>0</asrwt>
<pdfrwt beam="1">  1        1 0.14704942E+00 0.20265897E+04</pdfrwt>
<pdfrwt beam="2">  1       -1 0.16526529E+00 0.20265897E+04</pdfrwt>
<totfact> 0.40488223E+00</totfact>
</mgrwt>
</event>
<event>
12    1  0.1504874E-007  0.1381879E+04  0.7818608E-02  0.8967041E-01
         -1   -1    0    0    0  501 -0.00000000000E+00  0.00000000000E+00  0.49527752159E+03  0.49527752159E+03  0.00000000000E+00 0.  1.
          1   -1    0    0  501    0  0.00000000000E+00 -0.00000000000E+00 -0.96389900199E+03  0.96389900199E+03  0.00000000000E+00 0. -1.
         23    2    1    2    0    0  0.14602591535E+03  0.42718374057E+03 -0.22921835798E+03  0.51471204503E+03  0.92617047595E+02 0.  0.
        254    2    1    2    0    0 -0.14602591535E+03 -0.42718374057E+03 -0.23940312242E+03  0.94446447855E+03  0.79428570430E+03 0.  0.
        -24    2    4    4    0    0 -0.14431247207E+03 -0.28654403105E+03  0.25953839874E+03  0.42031637930E+03  0.79825478135E+02 0.  0.
         24    2    4    4    0    0 -0.17134432723E+01 -0.14063970952E+03 -0.49894152116E+03  0.52414809925E+03  0.77499191118E+02 0.  0.
         13    1    3    3    0    0  0.29971054636E+02  0.80193341967E+02 -0.87289262842E+02  0.12226467854E+03  0.00000000000E+00 0.  1.
        -13    1    3    3    0    0  0.11605486071E+03  0.34699039860E+03 -0.14192909514E+03  0.39244736649E+03  0.00000000000E+00 0. -1.
          2    1    6    6  502    0 -0.86156449862E+01 -0.10027005641E+03 -0.44600274270E+03  0.45721631647E+03  0.00000000000E+00 0. -1.
          3    1    5    5  503    0 -0.12307383213E+03 -0.19575348511E+03  0.14627683196E+03  0.27361196366E+03  0.00000000000E+00 0. -1.
         -4    1    5    5    0  503 -0.21238639944E+02 -0.90790545936E+02  0.11326156679E+03  0.14670441564E+03  0.00000000000E+00 0.  1.
         -1    1    6    6    0  502  0.69022017140E+01 -0.40369653111E+02 -0.52938778465E+02  0.66931782781E+02  0.00000000000E+00 0.  1.
<mgrwt>
<rscale>  0 0.13818792E+04</rscale>
<asrwt>0</asrwt>
<pdfrwt beam="1">  1        1 0.14829215E+00 0.13818792E+04</pdfrwt>
<pdfrwt beam="2">  1       -1 0.76196542E-01 0.13818792E+04</pdfrwt>
<totfact> 0.27290713E+01</totfact>
</mgrwt>
</event>
<event>
12    1  0.1504874E-007  0.2297872E+04  0.7818608E-02  0.8478761E-01
          2   -1    0    0  501    0  0.00000000000E+00  0.00000000000E+00  0.18291705933E+04  0.18291705933E+04  0.00000000000E+00 0. -1.
         -2   -1    0    0    0  501 -0.00000000000E+00 -0.00000000000E+00 -0.72166795366E+03  0.72166795366E+03  0.00000000000E+00 0.  1.
         23    2    1    2    0    0 -0.87582229116E+03  0.35723023398E+03  0.70625278419E+03  0.11838935850E+04  0.90182590688E+02 0.  0.
        254    2    1    2    0    0  0.87582229116E+03 -0.35723023398E+03  0.40124985545E+03  0.13669449620E+04  0.90158691027E+03 0.  0.
        -24    2    4    4    0    0 -0.10862867475E+03  0.11290462790E+03 -0.54069266196E+02  0.18206988385E+03  0.75354582351E+02 0.  0.
         24    2    4    4    0    0  0.98445096591E+03 -0.47013486187E+03  0.45531912165E+03  0.11848750781E+04  0.80268023260E+02 0.  0.
         11    1    3    3    0    0 -0.17413752824E+03  0.48957323813E+02  0.17230832174E+03  0.24982164846E+03  0.00000000000E+00 0.  1.
        -11    1    3    3    0    0 -0.70168476292E+03  0.30827291016E+03  0.53394446245E+03  0.93407193654E+03  0.00000000000E+00 0. -1.
          4    1    6    6  502    0  0.51365303824E+02 -0.98165131389E+01  0.33875249167E+02  0.62308032172E+02  0.00000000000E+00 0. -1.
          3    1    5    5  503    0 -0.17463879422E+02  0.19732815198E+02  0.19137033831E+02  0.32566810467E+02  0.00000000000E+00 0. -1.
         -4    1    5    5    0  503 -0.91164795323E+02  0.93171812701E+02 -0.73206300027E+02  0.14950307339E+03  0.00000000000E+00 0.  1.
         -3    1    6    6    0  502  0.93308566209E+03 -0.46031834874E+03  0.42144387248E+03  0.11225670459E+04  0.00000000000E+00 0.  1.
<mgrwt>
<rscale>  0 0.22978719E+04</rscale>
<asrwt>0</asrwt>
<pdfrwt beam="1">  1        2 0.28141086E+00 0.22978719E+04</pdfrwt>
<pdfrwt beam="2">  1       -2 0.11102584E+00 0.22978719E+04</pdfrwt>
<totfact> 0.48424700E+00</totfact>
</mgrwt>
</event>
<event>
12    1  0.1504874E-007  0.2414632E+04  0.7818608E-02  0.8434046E-01
         -2   -1    0    0    0  501 -0.00000000000E+00  0.00000000000E+00  0.75398483936E+03  0.75398483936E+03  0.00000000000E+00 0.  1.
          2   -1    0    0  501    0  0.00000000000E+00 -0.00000000000E+00 -0.19332118015E+04  0.19332118015E+04  0.00000000000E+00 0. -1.
         23    2    1    2    0    0 -0.60434130338E+03  0.72128301260E+03 -0.26826248800E+02  0.94548413601E+03  0.87994366802E+02 0.  0.
        254    2    1    2    0    0  0.60434130338E+03 -0.72128301260E+03 -0.11524007134E+04  0.17417125049E+04  0.90557023487E+03 0.  0.
        -24    2    4    4    0    0  0.15565247466E+03 -0.37475688796E+03  0.43876312092E+02  0.41552092358E+03  0.77859419666E+02 0.  0.
         24    2    4    4    0    0  0.44868882872E+03 -0.34652612464E+03 -0.11962770255E+04  0.13261915813E+04  0.79393756769E+02 0.  0.
         11    1    3    3    0    0 -0.15196090448E+03  0.16068293248E+03  0.28567974527E+02  0.22299607720E+03  0.00000000000E+00 0. -1.
        -11    1    3    3    0    0 -0.45238039890E+03  0.56060008012E+03 -0.55394223327E+02  0.72248805880E+03  0.00000000000E+00 0.  1.
          2    1    6    6  502    0  0.41084966083E+03 -0.29528415703E+03 -0.10163678899E+04  0.11353386564E+04  0.00000000000E+00 0. -1.
          3    1    5    5  503    0  0.15874773442E+03 -0.32584315476E+03  0.50884967988E+02  0.36601077122E+03  0.00000000000E+00 0. -1.
         -4    1    5    5    0  503 -0.30952597638E+01 -0.48913733203E+02 -0.70086558959E+01  0.49510152356E+02  0.00000000000E+00 0.  1.
         -3    1    6    6    0  502  0.37839167892E+02 -0.51241967609E+02 -0.17990913557E+03  0.19085292488E+03  0.00000000000E+00 0.  1.
<mgrwt>
<rscale>  0 0.24146324E+04</rscale>
<asrwt>0</asrwt>
<pdfrwt beam="1">  1        2 0.29741720E+00 0.24146324E+04</pdfrwt>
<pdfrwt beam="2">  1       -2 0.11599767E+00 0.24146324E+04</pdfrwt>
<totfact> 0.37737100E+00</totfact>
</mgrwt>
</event>
<event>
12    1  0.1504874E-007  0.1483899E+04  0.7818608E-02  0.8895231E-01
          2   -1    0    0  501    0  0.00000000000E+00  0.00000000000E+00  0.19173404828E+04  0.19173404828E+04  0.00000000000E+00 0. -1.
         -2   -1    0    0    0  501 -0.00000000000E+00 -0.00000000000E+00 -0.28711070198E+03  0.28711070198E+03  0.00000000000E+00 0.  1.
         23    2    1    2    0    0 -0.19498232306E+03  0.25305557775E+03  0.24566812161E+02  0.33320003622E+03  0.91452195945E+02 0.  0.
        254    2    1    2    0    0  0.19498232306E+03 -0.25305557775E+03  0.16056629687E+04  0.18712511486E+04  0.90629579075E+03 0.  0.
        -24    2    4    4    0    0  0.17122794583E+03 -0.47389361320E+03  0.15441032784E+04  0.16261561854E+04  0.78960995718E+02 0.  0.
         24    2    4    4    0    0  0.23754377232E+02  0.22083803545E+03  0.61559690309E+02  0.24509496322E+03  0.83356086680E+02 0.  0.
         13    1    3    3    0    0 -0.12046797032E+02  0.71368973212E+02 -0.99955021991E+01  0.73065489256E+02  0.00000000000E+00 0. -1.
        -13    1    3    3    0    0 -0.18293552603E+03  0.18168660454E+03  0.34562314360E+02  0.26013454697E+03  0.00000000000E+00 0.  1.
          4    1    6    6  502    0 -0.19957192379E+02  0.10984720907E+02  0.38345148144E+01  0.23101019997E+02  0.00000000000E+00 0. -1.
          3    1    5    5  503    0  0.65609063558E+02 -0.17171121725E+03  0.68903912588E+03  0.71313687910E+03  0.00000000000E+00 0. -1.
         -4    1    5    5    0  503  0.10561888227E+03 -0.30218239595E+03  0.85506415250E+03  0.91301930626E+03  0.00000000000E+00 0.  1.
         -3    1    6    6    0  502  0.43711569611E+02  0.20985331454E+03  0.57725175494E+02  0.22199394322E+03  0.00000000000E+00 0.  1.
<mgrwt>
<rscale>  0 0.14838989E+04</rscale>
<asrwt>0</asrwt>
<pdfrwt beam="1">  1        2 0.29497545E+00 0.14838989E+04</pdfrwt>
<pdfrwt beam="2">  1       -2 0.44170878E-01 0.14838989E+04</pdfrwt>
<totfact> 0.34927799E+01</totfact>
</mgrwt>
</event>
<event>
12    1  0.1504874E-007  0.1583713E+04  0.7818608E-02  0.8830617E-01
          2   -1    0    0  501    0  0.00000000000E+00  0.00000000000E+00  0.86157261016E+03  0.86157261016E+03  0.00000000000E+00 0. -1.
         -2   -1    0    0    0  501 -0.00000000000E+00 -0.00000000000E+00 -0.72778129351E+03  0.72778129351E+03  0.00000000000E+00 0.  1.
         23    2    1    2    0    0 -0.36142442116E+03  0.36336684113E+03  0.80079489927E+01  0.52042447140E+03  0.90080129561E+02 0.  0.
        254    2    1    2    0    0  0.36142442116E+03 -0.36336684113E+03  0.12578336765E+03  0.10689294323E+04  0.92958356383E+03 0.  0.
        -24    2    4    4    0    0 -0.16767178613E+03  0.16463869513E+03 -0.12151636351E+03  0.27748803990E+03  0.83747584380E+02 0.  0.
         24    2    4    4    0    0  0.52909620729E+03 -0.52800553626E+03  0.24729973116E+03  0.79144139237E+03  0.80558535466E+02 0.  0.
         13    1    3    3    0    0 -0.65694524485E+02  0.24280667324E+02  0.80229943594E+01  0.70496026778E+02  0.00000000000E+00 0. -1.
        -13    1    3    3    0    0 -0.29572989668E+03  0.33908617380E+03 -0.15045366754E-01  0.44992844462E+03  0.00000000000E+00 0.  1.
          2    1    6    6  502    0  0.30305128598E+03 -0.32445742365E+03  0.10823811168E+03  0.45697723194E+03  0.00000000000E+00 0. -1.
          3    1    5    5  503    0 -0.10476726178E+03  0.10253586075E+03 -0.28818700578E+02  0.14939979714E+03  0.00000000000E+00 0. -1.
         -4    1    5    5    0  503 -0.62904524345E+02  0.62102834374E+02 -0.92697662933E+02  0.12808824276E+03  0.00000000000E+00 0.  1.
         -1    1    6    6    0  502  0.22604492131E+03 -0.20354811261E+03  0.13906161948E+03  0.33446416043E+03  0.00000000000E+00 0.  1.
<mgrwt>
<rscale>  0 0.15837126E+04</rscale>
<asrwt>0</asrwt>
<pdfrwt beam="1">  1        2 0.13254963E+00 0.15837126E+04</pdfrwt>
<pdfrwt beam="2">  1       -2 0.11196635E+00 0.15837126E+04</pdfrwt>
<totfact> 0.18827355E+01</totfact>
</mgrwt>
</event>
<event>
12    1  0.1504874E-007  0.1462619E+04  0.7818608E-02  0.8909698E-01
          2   -1    0    0  501    0  0.00000000000E+00  0.00000000000E+00  0.16740031931E+04  0.16740031931E+04  0.00000000000E+00 0. -1.
         -2   -1    0    0    0  501 -0.00000000000E+00 -0.00000000000E+00 -0.31948198449E+03  0.31948198449E+03  0.00000000000E+00 0.  1.
         23    2    1    2    0    0 -0.53389788386E+01 -0.38746531808E+03  0.11373446256E+03  0.41394793354E+03  0.90881715964E+02 0.  0.
        254    2    1    2    0    0  0.53389788386E+01  0.38746531808E+03  0.12407867461E+04  0.15795372440E+04  0.89734512799E+03 0.  0.
        -24    2    4    4    0    0 -0.32142346834E+03  0.23814113747E+03  0.16099400716E+03  0.43862058818E+03  0.80278905556E+02 0.  0.
         24    2    4    4    0    0  0.32676244718E+03  0.14932418061E+03  0.10797927389E+04  0.11409166559E+04  0.81651998513E+02 0.  0.
         11    1    3    3    0    0  0.72662643836E+00 -0.78540108162E+02 -0.13675524238E+02  0.79725131165E+02  0.00000000000E+00 0. -1.
        -11    1    3    3    0    0 -0.60656052769E+01 -0.30892520992E+03  0.12740998680E+03  0.33422280238E+03  0.00000000000E+00 0.  1.
          2    1    6    6  502    0  0.24317912883E+03  0.14738456348E+03  0.85773723697E+03  0.90364343960E+03  0.00000000000E+00 0. -1.
          3    1    5    5  503    0 -0.28128916772E+03  0.21800787957E+03  0.11416707198E+03  0.37374476820E+03  0.00000000000E+00 0. -1.
         -4    1    5    5    0  503 -0.40134300623E+02  0.20133257907E+02  0.46826935182E+02  0.64875819987E+02  0.00000000000E+00 0.  1.
         -1    1    6    6    0  502  0.83583318355E+02  0.19396171290E+01  0.22205550191E+03  0.23727321625E+03  0.00000000000E+00 0.  1.
<mgrwt>
<rscale>  0 0.14626194E+04</rscale>
<asrwt>0</asrwt>
<pdfrwt beam="1">  1        2 0.25753895E+00 0.14626194E+04</pdfrwt>
<pdfrwt beam="2">  1       -2 0.49151075E-01 0.14626194E+04</pdfrwt>
<totfact> 0.38492018E+01</totfact>
</mgrwt>
</event>
<event>
12    1  0.1504874E-007  0.2679315E+04  0.7818608E-02  0.8341748E-01
         -2   -1    0    0    0  501 -0.00000000000E+00  0.00000000000E+00  0.76123915889E+03  0.76123915889E+03  0.00000000000E+00 0.  1.
          2   -1    0    0  501    0  0.00000000000E+00 -0.00000000000E+00 -0.23575808607E+04  0.23575808607E+04  0.00000000000E+00 0. -1.
         23    2    1    2    0    0  0.11750524363E+03  0.11764316583E+04 -0.85735594106E+03  0.14633423806E+04  0.92264751275E+02 0.  0.
        254    2    1    2    0    0 -0.11750524363E+03 -0.11764316583E+04 -0.73898576073E+03  0.16554776389E+04  0.89258463433E+03 0.  0.
        -24    2    4    4    0    0  0.68700204050E+02 -0.12221072518E+04 -0.76464140296E+03  0.14452975179E+04  0.77088177071E+02 0.  0.
         24    2    4    4    0    0 -0.18620544768E+03  0.45675593517E+02  0.25655642224E+02  0.21018012105E+03  0.82211572878E+02 0.  0.
         11    1    3    3    0    0  0.10335788176E+03  0.80909797668E+03 -0.54544789373E+03  0.98124196423E+03  0.00000000000E+00 0. -1.
        -11    1    3    3    0    0  0.14147361876E+02  0.36733368164E+03 -0.31190804732E+03  0.48210041640E+03  0.00000000000E+00 0.  1.
          4    1    6    6  502    0 -0.60866501677E+01  0.26823795667E+02  0.33264860224E+01  0.27706115453E+02  0.00000000000E+00 0. -1.
          1    1    5    5  503    0  0.19662677536E+02 -0.25379430598E+03 -0.19621728375E+03  0.32140222942E+03  0.00000000000E+00 0. -1.
         -2    1    5    5    0  503  0.49037526514E+02 -0.96831294585E+03 -0.56842411921E+03  0.11238952885E+04  0.00000000000E+00 0.  1.
         -1    1    6    6    0  502 -0.18011879752E+03  0.18851797851E+02  0.22329156202E+02  0.18247400559E+03  0.00000000000E+00 0.  1.
<mgrwt>
<rscale>  0 0.26793155E+04</rscale>
<asrwt>0</asrwt>
<pdfrwt beam="1">  1        2 0.36270474E+00 0.26793155E+04</pdfrwt>
<pdfrwt beam="2">  1       -2 0.11711372E+00 0.26793155E+04</pdfrwt>
<totfact> 0.20830451E+00</totfact>
</mgrwt>
</event>
<event>
12    1  0.1504874E-007  0.1287272E+04  0.7818608E-02  0.9039720E-01
          1   -1    0    0  501    0  0.00000000000E+00  0.00000000000E+00  0.13698507089E+04  0.13698507089E+04  0.00000000000E+00 0. -1.
         -1   -1    0    0    0  501 -0.00000000000E+00 -0.00000000000E+00 -0.30241805446E+03  0.30241805446E+03  0.00000000000E+00 0.  1.
         23    2    1    2    0    0 -0.27552043743E+03  0.16824673822E+03  0.23798650149E+03  0.41147283932E+03  0.91944799972E+02 0.  0.
        254    2    1    2    0    0  0.27552043743E+03 -0.16824673822E+03  0.82944615291E+03  0.12607959240E+04  0.89297646388E+03 0.  0.
        -24    2    4    4    0    0 -0.32146735472E+03 -0.37226711406E+02  0.29002330905E+03  0.44173356351E+03  0.79296488851E+02 0.  0.
         24    2    4    4    0    0  0.59698779215E+03 -0.13102002682E+03  0.53942284386E+03  0.81906236049E+03  0.79532851682E+02 0.  0.
         13    1    3    3    0    0 -0.25326950493E+02 -0.11164192036E+02  0.16712009296E+02  0.32332411908E+02  0.00000000000E+00 0. -1.
        -13    1    3    3    0    0 -0.25019348693E+03  0.17941093026E+03  0.22127449219E+03  0.37914042741E+03  0.00000000000E+00 0.  1.
          2    1    6    6  502    0  0.30145336399E+03 -0.25842797077E+02  0.25754963593E+03  0.39733335600E+03  0.00000000000E+00 0. -1.
          1    1    5    5  503    0 -0.26634104007E+03 -0.19721632349E+02  0.27189265813E+03  0.38111954811E+03  0.00000000000E+00 0. -1.
         -2    1    5    5    0  503 -0.55126314651E+02 -0.17505079057E+02  0.18130650922E+02  0.60614015398E+02  0.00000000000E+00 0.  1.
         -1    1    6    6    0  502  0.29553442816E+03 -0.10517722974E+03  0.28187320793E+03  0.42172900449E+03  0.00000000000E+00 0.  1.
<mgrwt>
<rscale>  0 0.12872724E+04</rscale>
<asrwt>0</asrwt>
<pdfrwt beam="1">  1        1 0.21074626E+00 0.12872724E+04</pdfrwt>
<pdfrwt beam="2">  1       -1 0.46525855E-01 0.12872724E+04</pdfrwt>
<totfact> 0.36494507E+01</totfact>
</mgrwt>
</event>
<event>
12    1  0.1504874E-007  0.1534939E+04  0.7818608E-02  0.8861545E-01
         -2   -1    0    0    0  501 -0.00000000000E+00  0.00000000000E+00  0.30352609150E+03  0.30352609150E+03  0.00000000000E+00 0. -1.
          2   -1    0    0  501    0  0.00000000000E+00 -0.00000000000E+00 -0.19405573429E+04  0.19405573429E+04  0.00000000000E+00 0.  1.
         23    2    1    2    0    0 -0.45173777172E+03  0.73342365145E+02 -0.31497270842E+03  0.56589525795E+03  0.10762675783E+03 0.  0.
        254    2    1    2    0    0  0.45173777172E+03 -0.73342365145E+02 -0.13220585429E+04  0.16781881764E+04  0.92683906239E+03 0.  0.
        -24    2    4    4    0    0  0.73115618215E+02 -0.23939024511E+03 -0.12156372097E+04  0.12437496992E+04  0.80535120685E+02 0.  0.
         24    2    4    4    0    0  0.37862215350E+03  0.16604787996E+03 -0.10642133324E+03  0.43443847718E+03  0.80527366278E+02 0.  0.
         11    1    3    3    0    0 -0.25487078451E+03  0.42162401750E+02 -0.11247488749E+03  0.28175767112E+03  0.00000000000E+00 0. -1.
        -11    1    3    3    0    0 -0.19686698721E+03  0.31179963395E+02 -0.20249782093E+03  0.28413758683E+03  0.00000000000E+00 0.  1.
          2    1    6    6  502    0  0.33723110713E+03  0.11683467102E+03 -0.89950672952E+02  0.36805744597E+03  0.00000000000E+00 0. -1.
          3    1    5    5  503    0  0.24267597454E+02 -0.67036243404E+02 -0.54321795719E+03  0.54787637587E+03  0.00000000000E+00 0. -1.
         -4    1    5    5    0  503  0.48848020761E+02 -0.17235400170E+03 -0.67241925250E+03  0.69587332336E+03  0.00000000000E+00 0.  1.
         -1    1    6    6    0  502  0.41391046377E+02  0.49213208938E+02 -0.16470660289E+02  0.66381031210E+02  0.00000000000E+00 0.  1.
<mgrwt>
<rscale>  0 0.15349395E+04</rscale>
<asrwt>0</asrwt>
<pdfrwt beam="1">  1        2 0.29854730E+00 0.15349395E+04</pdfrwt>
<pdfrwt beam="2">  1       -2 0.46696320E-01 0.15349395E+04</pdfrwt>
<totfact> 0.30210444E+01</totfact>
</mgrwt>
</event>
<event>
12    1  0.1504874E-007  0.1585434E+04  0.7818608E-02  0.8829547E-01
         -1   -1    0    0    0  501 -0.00000000000E+00  0.00000000000E+00  0.35936849381E+03  0.35936849381E+03  0.00000000000E+00 0.  1.
          1   -1    0    0  501    0  0.00000000000E+00 -0.00000000000E+00 -0.17486240075E+04  0.17486240075E+04  0.00000000000E+00 0. -1.
         23    2    1    2    0    0  0.24512111500E+03  0.32314917030E+03 -0.94454736525E+03  0.10318728977E+04  0.89901082252E+02 0.  0.
        254    2    1    2    0    0 -0.24512111500E+03 -0.32314917030E+03 -0.44470814840E+03  0.10761196035E+04  0.89205286646E+03 0.  0.
        -24    2    4    4    0    0 -0.23391022832E+01  0.28637058799E+03 -0.24388209738E+03  0.38483217970E+03  0.81263423789E+02 0.  0.
         24    2    4    4    0    0 -0.24278201272E+03 -0.60951975828E+03 -0.20082605102E+03  0.69128742383E+03  0.84200701539E+02 0.  0.
         13    1    3    3    0    0  0.81539578543E+02  0.14553195717E+03 -0.29507800447E+03  0.33896796626E+03  0.00000000000E+00 0.  1.
        -13    1    3    3    0    0  0.16358153646E+03  0.17761721312E+03 -0.64946936078E+03  0.69290493147E+03  0.00000000000E+00 0. -1.
          2    1    6    6  502    0 -0.12207106112E+03 -0.41098501814E+03 -0.14155853881E+03  0.45149623365E+03  0.00000000000E+00 0. -1.
          3    1    5    5  503    0  0.31419829380E+01 -0.29062760807E+01  0.23734947559E+01  0.48940754792E+01  0.00000000000E+00 0. -1.
         -4    1    5    5    0  503 -0.54810852212E+01  0.28927686407E+03 -0.24625559213E+03  0.37993810422E+03  0.00000000000E+00 0.  1.
         -1    1    6    6    0  502 -0.12071095160E+03 -0.19853474015E+03 -0.59267512215E+02  0.23979119018E+03  0.00000000000E+00 0.  1.
<mgrwt>
<rscale>  0 0.15854342E+04</rscale>
<asrwt>0</asrwt>
<pdfrwt beam="1">  1        1 0.26901908E+00 0.15854342E+04</pdfrwt>
<pdfrwt beam="2">  1       -1 0.55287460E-01 0.15854342E+04</pdfrwt>
<totfact> 0.14030795E+01</totfact>
</mgrwt>
</event>
<event>
12    1  0.1504874E-007  0.1360762E+04  0.7818608E-02  0.8982721E-01
          2   -1    0    0  501    0  0.00000000000E+00  0.00000000000E+00  0.42959512160E+03  0.42959512160E+03  0.00000000000E+00 0. -1.
         -2   -1    0    0    0  501 -0.00000000000E+00 -0.00000000000E+00 -0.10775691530E+04  0.10775691530E+04  0.00000000000E+00 0.  1.
         23    2    1    2    0    0 -0.36614326763E+03  0.15647905255E+02 -0.75347003642E+02  0.38462872139E+03  0.89198279083E+02 0.  0.
        254    2    1    2    0    0  0.36614326763E+03 -0.15647905255E+02 -0.57262702773E+03  0.11225355532E+04  0.89324050842E+03 0.  0.
        -24    2    4    4    0    0  0.23766530844E+03 -0.36026266870E+03 -0.13984256521E+01  0.43849218319E+03  0.77456115485E+02 0.  0.
         24    2    4    4    0    0  0.12847795918E+03  0.34461476344E+03 -0.57122860208E+03  0.68404336999E+03  0.79669912866E+02 0.  0.
         13    1    3    3    0    0 -0.24740275500E+03  0.51218130104E+02 -0.60476271603E+02  0.25978606479E+03  0.00000000000E+00 0. -1.
        -13    1    3    3    0    0 -0.11874051263E+03 -0.35570224849E+02 -0.14870732039E+02  0.12484265659E+03  0.00000000000E+00 0.  1.
          4    1    6    6  502    0  0.69771164698E+01  0.90464861185E+02 -0.18439450801E+03  0.20550889482E+03  0.00000000000E+00 0. -1.
          3    1    5    5  503    0  0.81260813408E+02 -0.10973870060E+03  0.34879368743E+02  0.14093428458E+03  0.00000000000E+00 0. -1.
         -4    1    5    5    0  503  0.15640449504E+03 -0.25052396810E+03 -0.36277794395E+02  0.29755789861E+03  0.00000000000E+00 0.  1.
         -3    1    6    6    0  502  0.12150084271E+03  0.25414990226E+03 -0.38683409406E+03  0.47853447517E+03  0.00000000000E+00 0.  1.
<mgrwt>
<rscale>  0 0.13607622E+04</rscale>
<asrwt>0</asrwt>
<pdfrwt beam="1">  1        2 0.66091558E-01 0.13607622E+04</pdfrwt>
<pdfrwt beam="2">  1       -2 0.16577987E+00 0.13607622E+04</pdfrwt>
<totfact> 0.16338372E+01</totfact>
</mgrwt>
</event>
<event>
12    1  0.1614065E-007  0.2339506E+04  0.7818608E-02  0.8462505E-01
         -2   -1    0    0    0  501 -0.00000000000E+00  0.00000000000E+00  0.80362215304E+03  0.80362215304E+03  0.00000000000E+00 0.  1.
          2   -1    0    0  501    0  0.00000000000E+00 -0.00000000000E+00 -0.17026937242E+04  0.17026937242E+04  0.00000000000E+00 0. -1.
         23    2    1    2    0    0  0.18238690224E+03  0.31427009916E+03 -0.13772971238E+04  0.14273763447E+04  0.91788806341E+02 0.  0.
        254    2    1    2    0    0 -0.18238690224E+03 -0.31427009916E+03  0.47822555257E+03  0.10789395326E+04  0.89631476529E+03 0.  0.
        -24    2    4    4    0    0 -0.45909796396E+03 -0.44836031245E+03  0.28249943762E+03  0.70571042846E+03  0.80145906246E+02 0.  0.
         24    2    4    4    0    0  0.27671106173E+03  0.13409021329E+03  0.19572611495E+03  0.37322910410E+03  0.80262413960E+02 0.  0.
         11    1    3    3    0    0  0.10905577943E+03  0.22107571905E+03 -0.10691008873E+04  0.10971528352E+04  0.00000000000E+00 0. -1.
        -11    1    3    3    0    0  0.73331122811E+02  0.93194380110E+02 -0.30819623650E+03  0.33022350953E+03  0.00000000000E+00 0.  1.
          4    1    6    6  502    0  0.22735771806E+03  0.12476258904E+03  0.19235398657E+03  0.32288897742E+03  0.00000000000E+00 0. -1.
          3    1    5    5  503    0 -0.38598896758E+03 -0.37907071045E+03  0.20468565577E+03  0.57842744082E+03  0.00000000000E+00 0. -1.
         -4    1    5    5    0  503 -0.73108996387E+02 -0.69289602004E+02  0.77813781851E+02  0.12728298765E+03  0.00000000000E+00 0.  1.
         -3    1    6    6    0  502  0.49353343664E+02  0.93276242524E+01  0.33721283737E+01  0.50340126686E+02  0.00000000000E+00 0.  1.
<mgrwt>
<rscale>  0 0.23395063E+04</rscale>
<asrwt>0</asrwt>
<pdfrwt beam="1">  1        2 0.26195288E+00 0.23395063E+04</pdfrwt>
<pdfrwt beam="2">  1       -2 0.12363418E+00 0.23395063E+04</pdfrwt>
<totfact> 0.43536102E+00</totfact>
</mgrwt>
</event>
<event>
12    1  0.1504874E-007  0.1839968E+04  0.7818608E-02  0.8685329E-01
         -2   -1    0    0    0  501 -0.00000000000E+00  0.00000000000E+00  0.61666329256E+03  0.61666329256E+03  0.00000000000E+00 0.  1.
          2   -1    0    0  501    0  0.00000000000E+00 -0.00000000000E+00 -0.13725009665E+04  0.13725009665E+04  0.00000000000E+00 0. -1.
         23    2    1    2    0    0  0.19072405902E+03 -0.31271922100E+02  0.44804318639E+03  0.49646361198E+03  0.91541364139E+02 0.  0.
        254    2    1    2    0    0 -0.19072405902E+03  0.31271922100E+02 -0.12038808603E+04  0.14927006470E+04  0.86108797232E+03 0.  0.
        -24    2    4    4    0    0  0.30544618229E+03  0.50185634989E+02 -0.75009143608E+03  0.81528742666E+03  0.78996565425E+02 0.  0.
         24    2    4    4    0    0 -0.49617024132E+03 -0.18913712889E+02 -0.45378942421E+03  0.67741322037E+03  0.80132344932E+02 0.  0.
         11    1    3    3    0    0  0.18428340406E+02  0.65439340360E+01  0.58917962705E+01  0.20424007101E+02  0.00000000000E+00 0. -1.
        -11    1    3    3    0    0  0.17229571862E+03 -0.37815856136E+02  0.44215139012E+03  0.47603960488E+03  0.00000000000E+00 0.  1.
          2    1    6    6  502    0 -0.36172779342E+02  0.19708826420E+02 -0.41758981038E+02  0.58657653392E+02  0.00000000000E+00 0. -1.
          3    1    5    5  503    0  0.13371107896E+03  0.15430149587E+02 -0.42741740557E+03  0.44810978648E+03  0.00000000000E+00 0. -1.
         -4    1    5    5    0  503  0.17173510334E+03  0.34755485402E+02 -0.32267403051E+03  0.36717764018E+03  0.00000000000E+00 0.  1.
         -1    1    6    6    0  502 -0.45999746198E+03 -0.38622539309E+02 -0.41203044317E+03  0.61875556698E+03  0.00000000000E+00 0.  1.
<mgrwt>
<rscale>  0 0.18399684E+04</rscale>
<asrwt>0</asrwt>
<pdfrwt beam="1">  1        2 0.21115400E+00 0.18399684E+04</pdfrwt>
<pdfrwt beam="2">  1       -2 0.94871275E-01 0.18399684E+04</pdfrwt>
<totfact> 0.13205270E+01</totfact>
</mgrwt>
</event>
<event>
12    1  0.1504874E-007  0.2655656E+04  0.7818608E-02  0.8349538E-01
         -1   -1    0    0    0  501 -0.00000000000E+00  0.00000000000E+00  0.17408062897E+04  0.17408062897E+04  0.00000000000E+00 0.  1.
          1   -1    0    0  501    0  0.00000000000E+00 -0.00000000000E+00 -0.10128221392E+04  0.10128221392E+04  0.00000000000E+00 0. -1.
         23    2    1    2    0    0 -0.16388226418E+03 -0.34103561333E+03  0.14751005995E+04  0.15260566530E+04  0.98815199108E+02 0.  0.
        254    2    1    2    0    0  0.16388226418E+03  0.34103561333E+03 -0.74711644895E+03  0.12275717758E+04  0.89754486822E+03 0.  0.
        -24    2    4    4    0    0  0.16731632705E+03  0.48230433550E+03 -0.58628326037E+02  0.52013952810E+03  0.80595426240E+02 0.  0.
         24    2    4    4    0    0 -0.34340628761E+01 -0.14126872217E+03 -0.68848812292E+03  0.70743224774E+03  0.80472635662E+02 0.  0.
         13    1    3    3    0    0 -0.29819974687E+02 -0.64020296903E+01  0.12306598309E+03  0.12678901005E+03  0.00000000000E+00 0. -1.
        -13    1    3    3    0    0 -0.13406228949E+03 -0.33463358364E+03  0.13520346164E+04  0.13992676430E+04  0.00000000000E+00 0.  1.
          4    1    6    6  502    0 -0.33661866197E+02 -0.76266693145E+02 -0.26145483296E+03  0.27442368592E+03  0.00000000000E+00 0. -1.
          3    1    5    5  503    0  0.18779308814E+02  0.21719408994E+02 -0.19308750007E+02  0.34600910297E+02  0.00000000000E+00 0. -1.
         -4    1    5    5    0  503  0.14853701824E+03  0.46058492651E+03 -0.39319576030E+02  0.48553861780E+03  0.00000000000E+00 0.  1.
         -3    1    6    6    0  502  0.30227803321E+02 -0.65002029030E+02 -0.42703328996E+03  0.43300856182E+03  0.00000000000E+00 0.  1.
<mgrwt>
<rscale>  0 0.26556560E+04</rscale>
<asrwt>0</asrwt>
<pdfrwt beam="1">  1        1 0.15581879E+00 0.26556560E+04</pdfrwt>
<pdfrwt beam="2">  1       -1 0.26781635E+00 0.26556560E+04</pdfrwt>
<totfact> 0.69180761E-01</totfact>
</mgrwt>
</event>
<event>
12    1  0.1504874E-007  0.2268110E+04  0.7818608E-02  0.8490602E-01
         -2   -1    0    0    0  501 -0.00000000000E+00  0.00000000000E+00  0.88528413257E+03  0.88528413257E+03  0.00000000000E+00 0.  1.
          2   -1    0    0  501    0  0.00000000000E+00 -0.00000000000E+00 -0.14527321197E+04  0.14527321197E+04  0.00000000000E+00 0. -1.
         23    2    1    2    0    0  0.69379100303E+03  0.43733928892E+03 -0.73838476766E+03  0.11073162359E+04  0.91244570056E+02 0.  0.
        254    2    1    2    0    0 -0.69379100303E+03 -0.43733928892E+03  0.17093678049E+03  0.12307000165E+04  0.90154952057E+03 0.  0.
        -24    2    4    4    0    0 -0.72210627315E+02  0.25877492826E+03  0.12277688788E+02  0.28067587120E+03  0.80307937574E+02 0.  0.
         24    2    4    4    0    0 -0.62158037572E+03 -0.69611421718E+03  0.15865909170E+03  0.95002414526E+03  0.80224699154E+02 0.  0.
         13    1    3    3    0    0  0.16213161230E+03  0.10305251746E+03 -0.22733276487E+03  0.29763512401E+03  0.00000000000E+00 0.  1.
        -13    1    3    3    0    0  0.53165939074E+03  0.33428677147E+03 -0.51105200279E+03  0.80968111186E+03  0.00000000000E+00 0. -1.
          2    1    6    6  502    0 -0.32904486514E+02 -0.31912054209E+02 -0.92297228654E+01  0.46757589980E+02  0.00000000000E+00 0. -1.
          1    1    5    5  503    0 -0.68797409512E+01  0.53928766466E+01  0.16832920694E+02  0.18967371277E+02  0.00000000000E+00 0. -1.
         -2    1    5    5    0  503 -0.65330886363E+02  0.25338205161E+03 -0.45552319061E+01  0.26170849992E+03  0.00000000000E+00 0.  1.
         -1    1    6    6    0  502 -0.58867588920E+03 -0.66420216297E+03  0.16788881456E+03  0.90326655528E+03  0.00000000000E+00 0.  1.
<mgrwt>
<rscale>  0 0.22681100E+04</rscale>
<asrwt>0</asrwt>
<pdfrwt beam="1">  1        2 0.22349725E+00 0.22681100E+04</pdfrwt>
<pdfrwt beam="2">  1       -2 0.13619756E+00 0.22681100E+04</pdfrwt>
<totfact> 0.47343329E+00</totfact>
</mgrwt>
</event>
<event>
12    1  0.1504874E-007  0.1960793E+04  0.7818608E-02  0.8625174E-01
          1   -1    0    0  501    0  0.00000000000E+00  0.00000000000E+00  0.26910373805E+04  0.26910373805E+04  0.00000000000E+00 0. -1.
         -1   -1    0    0    0  501 -0.00000000000E+00 -0.00000000000E+00 -0.35717729150E+03  0.35717729150E+03  0.00000000000E+00 0.  1.
         23    2    1    2    0    0  0.63364934006E+03  0.21358049237E+03  0.15078041267E+04  0.16519331087E+04  0.91003287244E+02 0.  0.
        254    2    1    2    0    0 -0.63364934006E+03 -0.21358049237E+03  0.82605596230E+03  0.13962815633E+04  0.90559684090E+03 0.  0.
        -24    2    4    4    0    0 -0.77358923642E+02  0.11556248484E+03 -0.15207627348E+03  0.22112501362E+03  0.80187204223E+02 0.  0.
         24    2    4    4    0    0 -0.55629041642E+03 -0.32914297721E+03  0.97813223578E+03  0.11751565497E+04  0.80349976362E+02 0.  0.
         13    1    3    3    0    0  0.48389851257E+02  0.17002041648E+02  0.66643527192E+02  0.84095224843E+02  0.00000000000E+00 0.  1.
        -13    1    3    3    0    0  0.58525948880E+03  0.19657845072E+03  0.14411605995E+04  0.15678378839E+04  0.00000000000E+00 0. -1.
          2    1    6    6  502    0 -0.53978744850E+03 -0.30715745603E+03  0.91045441984E+03  0.11021086348E+04  0.00000000000E+00 0. -1.
          3    1    5    5  503    0 -0.45420955748E+02  0.11429841388E+03 -0.14144506841E+03  0.18744038523E+03  0.00000000000E+00 0. -1.
         -4    1    5    5    0  503 -0.31937967894E+02  0.12640709610E+01 -0.10631205077E+02  0.33684628393E+02  0.00000000000E+00 0.  1.
         -1    1    6    6    0  502 -0.16502967915E+02 -0.21985521182E+02  0.67677815936E+02  0.73047914834E+02  0.00000000000E+00 0.  1.
<mgrwt>
<rscale>  0 0.19607931E+04</rscale>
<asrwt>0</asrwt>
<pdfrwt beam="1">  1        1 0.41400574E+00 0.19607931E+04</pdfrwt>
<pdfrwt beam="2">  1       -1 0.54950354E-01 0.19607931E+04</pdfrwt>
<totfact> 0.31053966E+00</totfact>
</mgrwt>
</event>
<event>
12    1  0.1504874E-007  0.2397538E+04  0.7818608E-02  0.8440426E-01
          2   -1    0    0  501    0  0.00000000000E+00  0.00000000000E+00  0.29506170084E+04  0.29506170084E+04  0.00000000000E+00 0. -1.
         -2   -1    0    0    0  501 -0.00000000000E+00 -0.00000000000E+00 -0.48703275353E+03  0.48703275353E+03  0.00000000000E+00 0.  1.
         23    2    1    2    0    0 -0.12650585500E+03  0.50810451381E+03 -0.20880253302E+03  0.57014910820E+03  0.85425871290E+02 0.  0.
        254    2    1    2    0    0  0.12650585500E+03 -0.50810451381E+03  0.26723867879E+04  0.28675006537E+04  0.89818423876E+03 0.  0.
        -24    2    4    4    0    0 -0.89658833715E+02 -0.53975956574E+03  0.25406640252E+04  0.26001397725E+04  0.79837660667E+02 0.  0.
         24    2    4    4    0    0  0.21616468871E+03  0.31655051929E+02  0.13172276266E+03  0.26736088125E+03  0.80010872147E+02 0.  0.
         11    1    3    3    0    0 -0.12318170145E+03  0.41555869459E+03 -0.19930152083E+03  0.47705749803E+03  0.00000000000E+00 0.  1.
        -11    1    3    3    0    0 -0.33241535503E+01  0.92545819218E+02 -0.95010121886E+01  0.93091610170E+02  0.00000000000E+00 0. -1.
          4    1    6    6  502    0  0.27899807758E+01  0.17313265771E+02  0.18069410771E+02  0.25180086775E+02  0.00000000000E+00 0. -1.
          1    1    5    5  503    0 -0.36246040084E+02 -0.92329191176E+02  0.36055350799E+03  0.37394824119E+03  0.00000000000E+00 0. -1.
         -2    1    5    5    0  503 -0.53412793631E+02 -0.44743037456E+03  0.21801105172E+04  0.22261915313E+04  0.00000000000E+00 0.  1.
         -3    1    6    6    0  502  0.21337470794E+03  0.14341786158E+02  0.11365335189E+03  0.24218079448E+03  0.00000000000E+00 0.  1.
<mgrwt>
<rscale>  0 0.23975380E+04</rscale>
<asrwt>0</asrwt>
<pdfrwt beam="1">  1        2 0.45394107E+00 0.23975380E+04</pdfrwt>
<pdfrwt beam="2">  1       -2 0.74928118E-01 0.23975380E+04</pdfrwt>
<totfact> 0.26913695E+00</totfact>
</mgrwt>
</event>
<event>
12    1  0.1504874E-007  0.2195949E+04  0.7818608E-02  0.8520116E-01
          2   -1    0    0  501    0  0.00000000000E+00  0.00000000000E+00  0.23484395303E+04  0.23484395303E+04  0.00000000000E+00 0. -1.
         -2   -1    0    0    0  501 -0.00000000000E+00 -0.00000000000E+00 -0.51333997484E+03  0.51333997484E+03  0.00000000000E+00 0.  1.
         23    2    1    2    0    0  0.62434632079E+03  0.15848321462E+03 -0.77345830164E+02  0.65526853018E+03  0.92028319574E+02 0.  0.
        254    2    1    2    0    0 -0.62434632079E+03 -0.15848321462E+03  0.19124453857E+04  0.22065109750E+04  0.89236655701E+03 0.  0.
        -24    2    4    4    0    0 -0.35118909933E+03  0.31391334264E+03  0.50930855773E+03  0.69889511854E+03  0.84757356990E+02 0.  0.
         24    2    4    4    0    0 -0.27315722146E+03 -0.47239655726E+03  0.14031368279E+04  0.15076158565E+04  0.79619330724E+02 0.  0.
         13    1    3    3    0    0  0.37270105026E+03  0.93845297393E+02 -0.52363610663E+00  0.38433486298E+03  0.00000000000E+00 0.  1.
        -13    1    3    3    0    0  0.25164527053E+03  0.64637917224E+02 -0.76822194057E+02  0.27093366720E+03  0.00000000000E+00 0. -1.
          4    1    6    6  502    0 -0.19119260123E+02 -0.86792150051E+02  0.25829245912E+03  0.27315456770E+03  0.00000000000E+00 0. -1.
          3    1    5    5  503    0 -0.15607760442E+03  0.89034625188E+02  0.16812501065E+03  0.24607600917E+03  0.00000000000E+00 0. -1.
         -4    1    5    5    0  503 -0.19511149491E+03  0.22487871745E+03  0.34118354708E+03  0.45281910937E+03  0.00000000000E+00 0.  1.
         -3    1    6    6    0  502 -0.25403796134E+03 -0.38560440721E+03  0.11448443688E+04  0.12344612888E+04  0.00000000000E+00 0.  1.
<mgrwt>
<rscale>  0 0.21959489E+04</rscale>
<asrwt>0</asrwt>
<pdfrwt beam="1">  1        2 0.36129838E+00 0.21959489E+04</pdfrwt>
<pdfrwt beam="2">  1       -2 0.78975382E-01 0.21959489E+04</pdfrwt>
<totfact> 0.55354818E+00</totfact>
</mgrwt>
</event>
<event>
12    1  0.1832982E-007  0.1689932E+04  0.7818608E-02  0.8767127E-01
          1   -1    0    0  501    0  0.00000000000E+00  0.00000000000E+00  0.15770918239E+04  0.15770918239E+04  0.00000000000E+00 0. -1.
         -1   -1    0    0    0  501 -0.00000000000E+00 -0.00000000000E+00 -0.45271144806E+03  0.45271144806E+03  0.00000000000E+00 0.  1.
         23    2    1    2    0    0 -0.46669519090E+02 -0.30674008803E+02 -0.31424437679E+03  0.33193026721E+03  0.91155005971E+02 0.  0.
        254    2    1    2    0    0  0.46669519090E+02  0.30674008803E+02  0.14386247527E+04  0.16978730048E+04  0.90000701253E+03 0.  0.
        -24    2    4    4    0    0 -0.32840533532E+03  0.12535269194E+02  0.11979221937E+04  0.12447470715E+04  0.79815365442E+02 0.  0.
         24    2    4    4    0    0  0.37507485441E+03  0.18138739609E+02  0.24070255893E+03  0.45312593328E+03  0.79845032729E+02 0.  0.
         13    1    3    3    0    0  0.24014700090E+02 -0.14905868135E+02 -0.45205850936E+02  0.53314722958E+02  0.00000000000E+00 0. -1.
        -13    1    3    3    0    0 -0.70684219181E+02 -0.15768140668E+02 -0.26903852586E+03  0.27861554425E+03  0.00000000000E+00 0.  1.
          2    1    6    6  502    0  0.33198434209E+03  0.36911553162E+02  0.19127595921E+03  0.38491889889E+03  0.00000000000E+00 0. -1.
          1    1    5    5  503    0 -0.26668806332E+03  0.49739956580E+01  0.10666266784E+04  0.10994724802E+04  0.00000000000E+00 0. -1.
         -2    1    5    5    0  503 -0.61717272000E+02  0.75612735358E+01  0.13129551535E+03  0.14527459128E+03  0.00000000000E+00 0.  1.
         -1    1    6    6    0  502  0.43090512318E+02 -0.18772813553E+02  0.49426599723E+02  0.68207034393E+02  0.00000000000E+00 0.  1.
<mgrwt>
<rscale>  0 0.16899320E+04</rscale>
<asrwt>0</asrwt>
<pdfrwt beam="1">  1        1 0.24262951E+00 0.16899320E+04</pdfrwt>
<pdfrwt beam="2">  1       -1 0.69647916E-01 0.16899320E+04</pdfrwt>
<totfact> 0.11488400E+01</totfact>
</mgrwt>
</event>
<event>
12    1  0.1504874E-007  0.1192947E+04  0.7818608E-02  0.9119052E-01
          1   -1    0    0  501    0  0.00000000000E+00  0.00000000000E+00  0.76339583438E+03  0.76339583438E+03  0.00000000000E+00 0. -1.
         -1   -1    0    0    0  501 -0.00000000000E+00 -0.00000000000E+00 -0.46605032341E+03  0.46605032341E+03  0.00000000000E+00 0.  1.
         23    2    1    2    0    0 -0.18613985799E+03 -0.10746030276E+03 -0.48463956425E+02  0.23889671620E+03  0.92342420050E+02 0.  0.
        254    2    1    2    0    0  0.18613985799E+03  0.10746030276E+03  0.34580946739E+03  0.99054944160E+03  0.90299958201E+03 0.  0.
        -24    2    4    4    0    0 -0.14856926461E+03  0.16881145534E+03  0.54057866434E+03  0.59083851699E+03  0.79339315463E+02 0.  0.
         24    2    4    4    0    0  0.33470912260E+03 -0.61351152588E+02 -0.19476919695E+03  0.39971092460E+03  0.77715008158E+02 0.  0.
         13    1    3    3    0    0 -0.19546302096E+02 -0.28214649417E+02  0.22715884331E+02  0.41159880567E+02  0.00000000000E+00 0. -1.
        -13    1    3    3    0    0 -0.16659355589E+03 -0.79245653340E+02 -0.71179840756E+02  0.19773683564E+03  0.00000000000E+00 0.  1.
          2    1    6    6  502    0  0.28606158266E+03 -0.79628992398E+02 -0.16165260064E+03  0.33808810804E+03  0.00000000000E+00 0. -1.
          3    1    5    5  503    0 -0.13385006735E+03  0.17473727665E+03  0.47742380762E+03  0.52572088456E+03  0.00000000000E+00 0. -1.
         -4    1    5    5    0  503 -0.14719197262E+02 -0.59258213031E+01  0.63154856725E+02  0.65117632436E+02  0.00000000000E+00 0.  1.
         -1    1    6    6    0  502  0.48647539932E+02  0.18277839810E+02 -0.33116596307E+02  0.61622816557E+02  0.00000000000E+00 0.  1.
<mgrwt>
<rscale>  0 0.11929474E+04</rscale>
<asrwt>0</asrwt>
<pdfrwt beam="1">  1        1 0.11744551E+00 0.11929474E+04</pdfrwt>
<pdfrwt beam="2">  1       -1 0.71700050E-01 0.11929474E+04</pdfrwt>
<totfact> 0.46333178E+01</totfact>
</mgrwt>
</event>
<event>
12    1  0.1504874E-007  0.1804038E+04  0.7818608E-02  0.8704155E-01
         -1   -1    0    0    0  501 -0.00000000000E+00  0.00000000000E+00  0.63526108448E+03  0.63526108448E+03  0.00000000000E+00 0.  1.
          1   -1    0    0  501    0  0.00000000000E+00 -0.00000000000E+00 -0.12807936709E+04  0.12807936709E+04  0.00000000000E+00 0. -1.
         23    2    1    2    0    0  0.27277676531E+03 -0.42009069148E+03 -0.71708398831E+03  0.87923216641E+03  0.89198673719E+02 0.  0.
        254    2    1    2    0    0 -0.27277676531E+03  0.42009069148E+03  0.71551401892E+02  0.10368225890E+04  0.90498515189E+03 0.  0.
        -24    2    4    4    0    0  0.77742609643E+02 -0.36033711824E+01 -0.33194129581E+03  0.35016308132E+03  0.79826449362E+02 0.  0.
         24    2    4    4    0    0 -0.35051937496E+03  0.42369406266E+03  0.40349269770E+03  0.68665950765E+03  0.79463396578E+02 0.  0.
         11    1    3    3    0    0  0.68347958077E+02 -0.16874433958E+03 -0.30263335801E+03  0.35317565728E+03  0.00000000000E+00 0.  1.
        -11    1    3    3    0    0  0.20442880724E+03 -0.25134635189E+03 -0.41445063030E+03  0.52605650912E+03  0.00000000000E+00 0. -1.
          2    1    6    6  502    0 -0.15473847007E+03  0.24927121398E+03  0.21334199653E+03  0.36276016832E+03  0.00000000000E+00 0. -1.
          3    1    5    5  503    0  0.17308441579E+02  0.29617100431E+02 -0.55467442555E+02  0.65218034096E+02  0.00000000000E+00 0. -1.
         -4    1    5    5    0  503  0.60434168064E+02 -0.33220471613E+02 -0.27647385326E+03  0.28494504723E+03  0.00000000000E+00 0.  1.
         -1    1    6    6    0  502 -0.19578090489E+03  0.17442284867E+03  0.19015070118E+03  0.32389933933E+03  0.00000000000E+00 0.  1.
<mgrwt>
<rscale>  0 0.18040381E+04</rscale>
<asrwt>0</asrwt>
<pdfrwt beam="1">  1        1 0.19704518E+00 0.18040381E+04</pdfrwt>
<pdfrwt beam="2">  1       -1 0.97732474E-01 0.18040381E+04</pdfrwt>
<totfact> 0.88459024E+00</totfact>
</mgrwt>
</event>
<event>
12    1  0.1504874E-007  0.2428260E+04  0.7818608E-02  0.8428999E-01
         -2   -1    0    0    0  501 -0.00000000000E+00  0.00000000000E+00  0.10557324450E+04  0.10557324450E+04  0.00000000000E+00 0.  1.
          2   -1    0    0  501    0  0.00000000000E+00 -0.00000000000E+00 -0.13962924352E+04  0.13962924352E+04  0.00000000000E+00 0. -1.
         23    2    1    2    0    0 -0.19967230481E+03 -0.10168308501E+04 -0.11642690251E+02  0.10403707181E+04  0.91769667813E+02 0.  0.
        254    2    1    2    0    0  0.19967230481E+03  0.10168308501E+04 -0.32891729990E+03  0.14116541621E+04  0.90042594149E+03 0.  0.
        -24    2    4    4    0    0  0.36541601832E+03  0.13063902347E+03 -0.31539502811E+03  0.50657307038E+03  0.80912489654E+02 0.  0.
         24    2    4    4    0    0 -0.16574371351E+03  0.88619182661E+03 -0.13522271793E+02  0.90508109168E+03  0.78625686501E+02 0.  0.
         13    1    3    3    0    0 -0.14190026354E+03 -0.83311846707E+03  0.19199148801E+02  0.84533465106E+03  0.00000000000E+00 0.  1.
        -13    1    3    3    0    0 -0.57772041274E+02 -0.18371238301E+03 -0.30841839051E+02  0.19503606708E+03  0.00000000000E+00 0. -1.
          4    1    6    6  502    0 -0.15079916580E+03  0.71308189621E+03  0.14971749750E+02  0.72900640080E+03  0.00000000000E+00 0. -1.
          3    1    5    5  503    0  0.36473087631E+03  0.13719977555E+03 -0.30835690233E+03  0.49692692597E+03  0.00000000000E+00 0. -1.
         -4    1    5    5    0  503  0.68514200759E+00 -0.65607520787E+01 -0.70381257751E+01  0.96461444025E+01  0.00000000000E+00 0.  1.
         -3    1    6    6    0  502 -0.14944547704E+02  0.17310993039E+03 -0.28494021543E+02  0.17607469089E+03  0.00000000000E+00 0.  1.
<mgrwt>
<rscale>  0 0.24282596E+04</rscale>
<asrwt>0</asrwt>
<pdfrwt beam="1">  1        2 0.21481422E+00 0.24282596E+04</pdfrwt>
<pdfrwt beam="2">  1       -2 0.16242038E+00 0.24282596E+04</pdfrwt>
<totfact> 0.31544995E+00</totfact>
</mgrwt>
</event>
<event>
12    1  0.1504874E-007  0.2813061E+04  0.7818608E-02  0.8299225E-01
         -1   -1    0    0    0  501 -0.00000000000E+00  0.00000000000E+00  0.14714451957E+04  0.14714451957E+04  0.00000000000E+00 0.  1.
          1   -1    0    0  501    0  0.00000000000E+00 -0.00000000000E+00 -0.13444798682E+04  0.13444798682E+04  0.00000000000E+00 0. -1.
         23    2    1    2    0    0  0.86921594444E+02 -0.69811958473E+03 -0.98717868246E+03  0.12156529723E+04  0.91455343473E+02 0.  0.
        254    2    1    2    0    0 -0.86921594444E+02  0.69811958473E+03  0.11141440100E+04  0.16002720915E+04  0.90809006915E+03 0.  0.
        -24    2    4    4    0    0  0.14865310829E+03  0.24019482996E+03 -0.74937338554E+02  0.30191484780E+03  0.75800182512E+02 0.  0.
         24    2    4    4    0    0 -0.23557470274E+03  0.45792475477E+03  0.11890813485E+04  0.12983572437E+04  0.81403668384E+02 0.  0.
         13    1    3    3    0    0  0.94467838130E+02 -0.61178239894E+03 -0.82089353839E+03  0.10281381607E+04  0.00000000000E+00 0. -1.
        -13    1    3    3    0    0 -0.75462436861E+01 -0.86337185795E+02 -0.16628514408E+03  0.18751481164E+03  0.00000000000E+00 0.  1.
          2    1    6    6  502    0 -0.22719713119E+03  0.44513365176E+03  0.11031333659E+04  0.12110597539E+04  0.00000000000E+00 0. -1.
          1    1    5    5  503    0  0.91884780573E+02  0.19811042357E+03 -0.36308044493E+02  0.22137937330E+03  0.00000000000E+00 0. -1.
         -2    1    5    5    0  503  0.56768327720E+02  0.42084406388E+02 -0.38629294061E+02  0.80535474499E+02  0.00000000000E+00 0.  1.
         -1    1    6    6    0  502 -0.83775715490E+01  0.12791103008E+02  0.85947982582E+02  0.87297489833E+02  0.00000000000E+00 0.  1.
<mgrwt>
<rscale>  0 0.28130613E+04</rscale>
<asrwt>0</asrwt>
<pdfrwt beam="1">  1        1 0.20684306E+00 0.28130613E+04</pdfrwt>
<pdfrwt beam="2">  1       -1 0.22637618E+00 0.28130613E+04</pdfrwt>
<totfact> 0.72552557E-01</totfact>
</mgrwt>
</event>
<event>
12    1  0.1504874E-007  0.1351814E+04  0.7818608E-02  0.8989456E-01
         -1   -1    0    0    0  501 -0.00000000000E+00  0.00000000000E+00  0.77410756574E+03  0.77410756574E+03  0.00000000000E+00 0.  1.
          1   -1    0    0  501    0  0.00000000000E+00 -0.00000000000E+00 -0.59016344661E+03  0.59016344661E+03  0.00000000000E+00 0. -1.
         23    2    1    2    0    0 -0.33960233825E+03 -0.12549585479E+03 -0.29652177708E+02  0.37498302124E+03  0.93027183468E+02 0.  0.
        254    2    1    2    0    0  0.33960233825E+03  0.12549585479E+03  0.21359629684E+03  0.98928799110E+03  0.89553804699E+03 0.  0.
        -24    2    4    4    0    0  0.51336478650E+03  0.26397596769E+03 -0.10583793314E+03  0.59218245293E+03  0.79067527693E+02 0.  0.
         24    2    4    4    0    0 -0.17376244825E+03 -0.13848011289E+03  0.31943422998E+03  0.39710553817E+03  0.79274529796E+02 0.  0.
         11    1    3    3    0    0 -0.15136993259E+03 -0.30651416138E+02 -0.52149208744E+02  0.16300891318E+03  0.00000000000E+00 0. -1.
        -11    1    3    3    0    0 -0.18823240566E+03 -0.94844438655E+02  0.22497031036E+02  0.21197410806E+03  0.00000000000E+00 0.  1.
          4    1    6    6  502    0 -0.16046507045E+03 -0.97162410319E+02  0.28722076228E+03  0.34305296835E+03  0.00000000000E+00 0. -1.
          1    1    5    5  503    0  0.38715972240E+03  0.23581207111E+03 -0.80451671000E+02  0.46040466429E+03  0.00000000000E+00 0. -1.
         -2    1    5    5    0  503  0.12620506410E+03  0.28163896574E+02 -0.25386262139E+02  0.13177778864E+03  0.00000000000E+00 0.  1.
         -3    1    6    6    0  502 -0.13297377798E+02 -0.41317702575E+02  0.32213467706E+02  0.54052569819E+02  0.00000000000E+00 0.  1.
<mgrwt>
<rscale>  0 0.13518136E+04</rscale>
<asrwt>0</asrwt>
<pdfrwt beam="1">  1        1 0.90794376E-01 0.13518136E+04</pdfrwt>
<pdfrwt beam="2">  1       -1 0.11909347E+00 0.13518136E+04</pdfrwt>
<totfact> 0.21659292E+01</totfact>
</mgrwt>
</event>
<event>
12    1  0.1504874E-007  0.1316289E+04  0.7818608E-02  0.9016747E-01
         -2   -1    0    0    0  501 -0.00000000000E+00  0.00000000000E+00  0.18927243829E+03  0.18927243829E+03  0.00000000000E+00 0.  1.
          2   -1    0    0  501    0  0.00000000000E+00 -0.00000000000E+00 -0.22885216749E+04  0.22885216749E+04  0.00000000000E+00 0. -1.
         23    2    1    2    0    0 -0.31543401798E+01 -0.32976266539E+03 -0.39788103043E+03  0.52546429032E+03  0.95131701752E+02 0.  0.
        254    2    1    2    0    0  0.31543401798E+01  0.32976266539E+03 -0.17013682062E+04  0.19523298229E+04  0.89899087812E+03 0.  0.
        -24    2    4    4    0    0 -0.23560313103E+03  0.21746225294E+03 -0.12662619739E+03  0.35363789403E+03  0.78910705394E+02 0.  0.
         24    2    4    4    0    0  0.23875747121E+03  0.11230041245E+03 -0.15747420088E+04  0.15986919288E+04  0.79918561140E+02 0.  0.
         13    1    3    3    0    0 -0.13268715371E+02 -0.21220047339E+03 -0.31960511557E+03  0.38386524929E+03  0.00000000000E+00 0. -1.
        -13    1    3    3    0    0  0.10114375192E+02 -0.11756219200E+03 -0.78275914866E+02  0.14159904104E+03  0.00000000000E+00 0.  1.
          2    1    6    6  502    0  0.18469426384E+03  0.53485289655E+02 -0.98806594365E+03  0.10066016870E+04  0.00000000000E+00 0. -1.
          1    1    5    5  503    0 -0.13520760645E+03  0.13863640454E+03 -0.11557130996E+03  0.22551691111E+03  0.00000000000E+00 0. -1.
         -2    1    5    5    0  503 -0.10039552458E+03  0.78825848395E+02 -0.11054887425E+02  0.12812098293E+03  0.00000000000E+00 0.  1.
         -1    1    6    6    0  502  0.54063207366E+02  0.58815122795E+02 -0.58667606512E+03  0.59209024181E+03  0.00000000000E+00 0.  1.
<mgrwt>
<rscale>  0 0.13162888E+04</rscale>
<asrwt>0</asrwt>
<pdfrwt beam="1">  1        2 0.35208027E+00 0.13162888E+04</pdfrwt>
<pdfrwt beam="2">  1       -2 0.29118836E-01 0.13162888E+04</pdfrwt>
<totfact> 0.48975168E+01</totfact>
</mgrwt>
</event>
<event>
12    1  0.1504874E-007  0.2178025E+04  0.7818608E-02  0.8527631E-01
          2   -1    0    0  501    0  0.00000000000E+00  0.00000000000E+00  0.86558361048E+03  0.86558361048E+03  0.00000000000E+00 0. -1.
         -2   -1    0    0    0  501 -0.00000000000E+00 -0.00000000000E+00 -0.13701142549E+04  0.13701142549E+04  0.00000000000E+00 0.  1.
         23    2    1    2    0    0 -0.63898762624E+03 -0.60540457885E+03 -0.16164203631E+02  0.88519532635E+03  0.92138991439E+02 0.  0.
        254    2    1    2    0    0  0.63898762624E+03  0.60540457885E+03 -0.48836644079E+03  0.13505025390E+04  0.90029741579E+03 0.  0.
        -24    2    4    4    0    0 -0.19651710797E+02  0.40594176897E+03  0.11624661004E+03  0.43071355115E+03  0.82619484803E+02 0.  0.
         24    2    4    4    0    0  0.65863933703E+03  0.19946280988E+03 -0.60461305083E+03  0.91978898789E+03  0.82847161618E+02 0.  0.
         13    1    3    3    0    0 -0.63760444967E+03 -0.59877608087E+03 -0.23776580389E+02  0.87500717428E+03  0.00000000000E+00 0. -1.
        -13    1    3    3    0    0 -0.13831765703E+01 -0.66284979782E+01  0.76123767575E+01  0.10188152078E+02  0.00000000000E+00 0.  1.
          4    1    6    6  502    0  0.10775397584E+03  0.52979580693E+02 -0.74165959632E+02  0.14113236641E+03  0.00000000000E+00 0. -1.
          1    1    5    5  503    0  0.41645447552E+01  0.99254654875E+02 -0.64148611221E+01  0.99548884427E+02  0.00000000000E+00 0. -1.
         -2    1    5    5    0  503 -0.23816255552E+02  0.30668711409E+03  0.12266147116E+03  0.33116466672E+03  0.00000000000E+00 0.  1.
         -3    1    6    6    0  502  0.55088536119E+03  0.14648322919E+03 -0.53044709120E+03  0.77865662148E+03  0.00000000000E+00 0.  1.
<mgrwt>
<rscale>  0 0.21780252E+04</rscale>
<asrwt>0</asrwt>
<pdfrwt beam="1">  1        2 0.13316671E+00 0.21780252E+04</pdfrwt>
<pdfrwt beam="2">  1       -2 0.21078681E+00 0.21780252E+04</pdfrwt>
<totfact> 0.32070897E+00</totfact>
</mgrwt>
</event>
<event>
12    1  0.1504874E-007  0.1570262E+04  0.7818608E-02  0.8839029E-01
          2   -1    0    0  501    0  0.00000000000E+00  0.00000000000E+00  0.10551908035E+04  0.10551908035E+04  0.00000000000E+00 0. -1.
         -2   -1    0    0    0  501 -0.00000000000E+00 -0.00000000000E+00 -0.58418855329E+03  0.58418855329E+03  0.00000000000E+00 0.  1.
         23    2    1    2    0    0 -0.52398905776E+03  0.31724871768E+02  0.18320888277E+03  0.56336739280E+03  0.90809274900E+02 0.  0.
        254    2    1    2    0    0  0.52398905776E+03 -0.31724871768E+02  0.28779336742E+03  0.10760119640E+04  0.89409491897E+03 0.  0.
        -24    2    4    4    0    0  0.46442888313E+03  0.32906936857E+03 -0.43996147764E+02  0.57616165510E+03  0.77754453075E+02 0.  0.
         24    2    4    4    0    0  0.59560174622E+02 -0.36079424034E+03  0.33178951518E+03  0.49985030886E+03  0.77756997237E+02 0.  0.
         11    1    3    3    0    0 -0.40045870230E+03  0.24162774363E+02  0.17959949177E+03  0.43955317011E+03  0.00000000000E+00 0. -1.
        -11    1    3    3    0    0 -0.12353035546E+03  0.75620974047E+01  0.36093910021E+01  0.12381422269E+03  0.00000000000E+00 0.  1.
          4    1    6    6  502    0 -0.18737872681E+02 -0.67900353246E+02  0.55738052466E+02  0.89823695850E+02  0.00000000000E+00 0. -1.
          1    1    5    5  503    0  0.31598390747E+03  0.18086501517E+03 -0.14893821234E+02  0.36438963954E+03  0.00000000000E+00 0. -1.
         -2    1    5    5    0  503  0.14844497566E+03  0.14820435340E+03 -0.29102326529E+02  0.21177201556E+03  0.00000000000E+00 0.  1.
         -3    1    6    6    0  502  0.78298047303E+02 -0.29289388709E+03  0.27605146272E+03  0.41002661301E+03  0.00000000000E+00 0.  1.
<mgrwt>
<rscale>  0 0.15702616E+04</rscale>
<asrwt>0</asrwt>
<pdfrwt beam="1">  1        2 0.16233705E+00 0.15702616E+04</pdfrwt>
<pdfrwt beam="2">  1       -2 0.89875162E-01 0.15702616E+04</pdfrwt>
<totfact> 0.23678614E+01</totfact>
</mgrwt>
</event>
<event>
12    1  0.1504874E-007  0.1458927E+04  0.7818608E-02  0.8912235E-01
          2   -1    0    0  501    0  0.00000000000E+00  0.00000000000E+00  0.15159965054E+04  0.15159965054E+04  0.00000000000E+00 0. -1.
         -2   -1    0    0    0  501 -0.00000000000E+00 -0.00000000000E+00 -0.35100132771E+03  0.35100132771E+03  0.00000000000E+00 0.  1.
         23    2    1    2    0    0  0.34125786372E+03 -0.10629618879E+03  0.20850601051E+02  0.36905810410E+03  0.89517190168E+02 0.  0.
        254    2    1    2    0    0 -0.34125786372E+03  0.10629618879E+03  0.11441445766E+04  0.14979397290E+04  0.89833223822E+03 0.  0.
        -24    2    4    4    0    0  0.23146007772E+03  0.24547993148E+03  0.26251511920E+03  0.43432155369E+03  0.76725874747E+02 0.  0.
         24    2    4    4    0    0 -0.57271794143E+03 -0.13918374268E+03  0.88162945745E+03  0.10636181753E+04  0.81456540609E+02 0.  0.
         11    1    3    3    0    0  0.34407248910E+03 -0.96010760348E+02  0.23755402349E+02  0.35800595386E+03  0.00000000000E+00 0.  1.
        -11    1    3    3    0    0 -0.28146253818E+01 -0.10285428445E+02 -0.29048012984E+01  0.11052150240E+02  0.00000000000E+00 0. -1.
          4    1    6    6  502    0 -0.23683055720E+03 -0.48494947026E+02  0.43274726786E+03  0.49569211266E+03  0.00000000000E+00 0. -1.
          3    1    5    5  503    0  0.25427375604E+02  0.43271280663E+02  0.10864218725E+02  0.51351595972E+02  0.00000000000E+00 0. -1.
         -4    1    5    5    0  503  0.20603270211E+03  0.20220865081E+03  0.25165090048E+03  0.38296995772E+03  0.00000000000E+00 0.  1.
         -3    1    6    6    0  502 -0.33588738423E+03 -0.90688795657E+02  0.44888218958E+03  0.56792606268E+03  0.00000000000E+00 0.  1.
<mgrwt>
<rscale>  0 0.14589267E+04</rscale>
<asrwt>0</asrwt>
<pdfrwt beam="1">  1        2 0.23323023E+00 0.14589267E+04</pdfrwt>
<pdfrwt beam="2">  1       -2 0.54000205E-01 0.14589267E+04</pdfrwt>
<totfact> 0.38908119E+01</totfact>
</mgrwt>
</event>
<event>
12    1  0.1504874E-007  0.1787353E+04  0.7818608E-02  0.8713054E-01
          2   -1    0    0  501    0  0.00000000000E+00  0.00000000000E+00  0.81901448727E+03  0.81901448727E+03  0.00000000000E+00 0. -1.
         -2   -1    0    0    0  501 -0.00000000000E+00 -0.00000000000E+00 -0.97514523774E+03  0.97514523774E+03  0.00000000000E+00 0.  1.
         23    2    1    2    0    0  0.55874137510E+02 -0.20638217382E+03 -0.68662568870E+03  0.72507621831E+03  0.92548176952E+02 0.  0.
        254    2    1    2    0    0 -0.55874137510E+02  0.20638217382E+03  0.53049493823E+03  0.10690835067E+04  0.90321600069E+03 0.  0.
        -24    2    4    4    0    0  0.39181107168E+03 -0.34883208399E+02  0.15365860332E+03  0.43068926753E+03  0.84554861911E+02 0.  0.
         24    2    4    4    0    0 -0.44768520919E+03  0.24126538221E+03  0.37683633491E+03  0.63839423917E+03  0.83129718605E+02 0.  0.
         11    1    3    3    0    0 -0.95772447456E+01 -0.12775572016E+03 -0.32761557544E+03  0.35177437786E+03  0.00000000000E+00 0. -1.
        -11    1    3    3    0    0  0.65451382255E+02 -0.78626453656E+02 -0.35901011327E+03  0.37330184045E+03  0.00000000000E+00 0.  1.
          4    1    6    6  502    0 -0.13530212665E+03  0.10728514033E+03  0.96564111689E+02  0.19784184208E+03  0.00000000000E+00 0. -1.
          3    1    5    5  503    0  0.36512792834E+03 -0.51473046585E+02  0.15311553426E+03  0.39926463081E+03  0.00000000000E+00 0. -1.
         -4    1    5    5    0  503  0.26683143338E+02  0.16589838186E+02  0.54306906416E+00  0.31424636727E+02  0.00000000000E+00 0.  1.
         -3    1    6    6    0  502 -0.31238308254E+03  0.13398024188E+03  0.28027222322E+03  0.44055239709E+03  0.00000000000E+00 0.  1.
<mgrwt>
<rscale>  0 0.17873534E+04</rscale>
<asrwt>0</asrwt>
<pdfrwt beam="1">  1        2 0.12600223E+00 0.17873534E+04</pdfrwt>
<pdfrwt beam="2">  1       -2 0.15002234E+00 0.17873534E+04</pdfrwt>
<totfact> 0.94439849E+00</totfact>
</mgrwt>
</event>
<event>
12    1  0.1504874E-007  0.1744199E+04  0.7818608E-02  0.8736550E-01
          1   -1    0    0  501    0  0.00000000000E+00  0.00000000000E+00  0.94386208263E+03  0.94386208263E+03  0.00000000000E+00 0. -1.
         -1   -1    0    0    0  501 -0.00000000000E+00 -0.00000000000E+00 -0.80579281715E+03  0.80579281715E+03  0.00000000000E+00 0.  1.
         23    2    1    2    0    0 -0.29555509663E+03  0.14245309431E+03 -0.50723464850E+03  0.61107810002E+03  0.92107309501E+02 0.  0.
        254    2    1    2    0    0  0.29555509663E+03 -0.14245309431E+03  0.64530391398E+03  0.11385767998E+04  0.87880275849E+03 0.  0.
        -24    2    4    4    0    0 -0.22552009353E+03  0.39909062616E+02  0.50882768509E+03  0.56431032514E+03  0.84193135555E+02 0.  0.
         24    2    4    4    0    0  0.52107519016E+03 -0.18236215692E+03  0.13647622889E+03  0.57426647463E+03  0.79880615599E+02 0.  0.
         11    1    3    3    0    0 -0.27931709836E+03  0.14434150601E+03 -0.43326353940E+03  0.53532215195E+03  0.00000000000E+00 0.  1.
        -11    1    3    3    0    0 -0.16237998265E+02 -0.18884117047E+01 -0.73971109094E+02  0.75755948063E+02  0.00000000000E+00 0. -1.
          2    1    6    6  502    0  0.27098424307E+03 -0.13667105547E+03  0.69283032298E+02  0.31130624144E+03  0.00000000000E+00 0. -1.
          3    1    5    5  503    0 -0.22807985502E+03  0.48296874719E+02  0.50086036843E+03  0.55246186931E+03  0.00000000000E+00 0. -1.
         -4    1    5    5    0  503  0.25597614891E+01 -0.83878121025E+01  0.79673166584E+01  0.11848455827E+02  0.00000000000E+00 0.  1.
         -1    1    6    6    0  502  0.25009094709E+03 -0.45691101454E+02  0.67193196597E+02  0.26296023318E+03  0.00000000000E+00 0.  1.
<mgrwt>
<rscale>  0 0.17441987E+04</rscale>
<asrwt>0</asrwt>
<pdfrwt beam="1">  1        1 0.14520955E+00 0.17441987E+04</pdfrwt>
<pdfrwt beam="2">  1       -1 0.12396813E+00 0.17441987E+04</pdfrwt>
<totfact> 0.90814680E+00</totfact>
</mgrwt>
</event>
<event>
12    1  0.1504874E-007  0.1432238E+04  0.7818608E-02  0.8930808E-01
         -2   -1    0    0    0  501 -0.00000000000E+00  0.00000000000E+00  0.35684331090E+03  0.35684331090E+03  0.00000000000E+00 0.  1.
          2   -1    0    0  501    0  0.00000000000E+00 -0.00000000000E+00 -0.14371195515E+04  0.14371195515E+04  0.00000000000E+00 0. -1.
         23    2    1    2    0    0 -0.26324879369E+03 -0.33997991691E+03 -0.32805710251E+03  0.54961247719E+03  0.97806652576E+02 0.  0.
        254    2    1    2    0    0  0.26324879369E+03  0.33997991691E+03 -0.75221913806E+03  0.12443503852E+04  0.89313379635E+03 0.  0.
        -24    2    4    4    0    0  0.48676689296E+03  0.29915123180E+03 -0.14891963688E+03  0.59487928937E+03  0.72600572326E+02 0.  0.
         24    2    4    4    0    0 -0.22351809927E+03  0.40828685119E+02 -0.60329950118E+03  0.64947109582E+03  0.78835867232E+02 0.  0.
         11    1    3    3    0    0 -0.14221752400E+03 -0.11528762662E+03 -0.16717317201E+03  0.24791920140E+03  0.00000000000E+00 0. -1.
        -11    1    3    3    0    0 -0.12103126969E+03 -0.22469229030E+03 -0.16088393050E+03  0.30169327579E+03  0.00000000000E+00 0.  1.
          2    1    6    6  502    0 -0.70624571542E+02  0.55622403165E+01 -0.29685977403E+03  0.30519582903E+03  0.00000000000E+00 0. -1.
          3    1    5    5  503    0  0.10871948572E+02  0.62244015388E+01  0.74708572333E+01  0.14586162897E+02  0.00000000000E+00 0. -1.
         -4    1    5    5    0  503  0.47589494439E+03  0.29292683026E+03 -0.15639049412E+03  0.58029312647E+03  0.00000000000E+00 0.  1.
         -1    1    6    6    0  502 -0.15289352773E+03  0.35266444802E+02 -0.30643972715E+03  0.34427526679E+03  0.00000000000E+00 0.  1.
<mgrwt>
<rscale>  0 0.14322381E+04</rscale>
<asrwt>0</asrwt>
<pdfrwt beam="1">  1        2 0.22109532E+00 0.14322381E+04</pdfrwt>
<pdfrwt beam="2">  1       -2 0.54898970E-01 0.14322381E+04</pdfrwt>
<totfact> 0.41755916E+01</totfact>
</mgrwt>
</event>
<event>
12    1  0.1504874E-007  0.1955898E+04  0.7818608E-02  0.8627522E-01
          2   -1    0    0  501    0  0.00000000000E+00  0.00000000000E+00  0.25629712068E+04  0.25629712068E+04  0.00000000000E+00 0. -1.
         -2   -1    0    0    0  501 -0.00000000000E+00 -0.00000000000E+00 -0.37315441494E+03  0.37315441494E+03  0.00000000000E+00 0.  1.
         23    2    1    2    0    0 -0.26517586134E+03 -0.53843163839E+03  0.15124359397E+03  0.62570317615E+03  0.91667732951E+02 0.  0.
        254    2    1    2    0    0  0.26517586134E+03  0.53843163839E+03  0.20385731979E+04  0.23104224456E+04  0.90666660207E+03 0.  0.
        -24    2    4    4    0    0  0.20983295524E+03  0.30910072860E+03  0.20221992776E+04  0.20579705086E+04  0.79872188508E+02 0.  0.
         24    2    4    4    0    0  0.55342906102E+02  0.22933090980E+03  0.16373920247E+02  0.25245193694E+03  0.88364991689E+02 0.  0.
         13    1    3    3    0    0 -0.23442676532E+02 -0.36567975997E+02 -0.12298889906E+02  0.45144641370E+02  0.00000000000E+00 0. -1.
        -13    1    3    3    0    0 -0.24173318481E+03 -0.50186366240E+03  0.16354248388E+03  0.58055853478E+03  0.00000000000E+00 0.  1.
          4    1    6    6  502    0  0.45620271189E+01  0.17148300325E+03  0.30381440129E+02  0.17421327274E+03  0.00000000000E+00 0. -1.
          3    1    5    5  503    0  0.99504471939E+02  0.79781100679E+02  0.68485690926E+03  0.69663128707E+03  0.00000000000E+00 0. -1.
         -4    1    5    5    0  503  0.11032848330E+03  0.22931962792E+03  0.13373423684E+04  0.13613392216E+04  0.00000000000E+00 0.  1.
         -3    1    6    6    0  502  0.50780878983E+02  0.57847906543E+02 -0.14007519881E+02  0.78238664195E+02  0.00000000000E+00 0.  1.
<mgrwt>
<rscale>  0 0.19558978E+04</rscale>
<asrwt>0</asrwt>
<pdfrwt beam="1">  1        2 0.39430325E+00 0.19558978E+04</pdfrwt>
<pdfrwt beam="2">  1       -2 0.57408373E-01 0.19558978E+04</pdfrwt>
<totfact> 0.84861295E+00</totfact>
</mgrwt>
</event>
<event>
12    1  0.1504874E-007  0.1149147E+04  0.7818608E-02  0.9158571E-01
          1   -1    0    0  501    0  0.00000000000E+00  0.00000000000E+00  0.25697251476E+04  0.25697251476E+04  0.00000000000E+00 0. -1.
         -1   -1    0    0    0  501 -0.00000000000E+00 -0.00000000000E+00 -0.12847074985E+03  0.12847074985E+03  0.00000000000E+00 0.  1.
         23    2    1    2    0    0  0.77144935752E+02 -0.18647058823E+03  0.60088666475E+03  0.64039086213E+03  0.91175934561E+02 0.  0.
        254    2    1    2    0    0 -0.77144935752E+02  0.18647058823E+03  0.18403677330E+04  0.20578050353E+04  0.89826808321E+03 0.  0.
        -24    2    4    4    0    0  0.59422342120E+02 -0.11714292070E+03  0.16669721400E+04  0.16740551789E+04  0.80069642698E+02 0.  0.
         24    2    4    4    0    0 -0.13656727787E+03  0.30361350893E+03  0.17339559298E+03  0.38374985645E+03  0.79788072208E+02 0.  0.
         11    1    3    3    0    0  0.86862177194E+02 -0.14563252761E+03  0.38847762416E+03  0.42387348985E+03  0.00000000000E+00 0.  1.
        -11    1    3    3    0    0 -0.97172414420E+01 -0.40838060624E+02  0.21240904059E+03  0.21651737228E+03  0.00000000000E+00 0. -1.
          2    1    6    6  502    0 -0.49463343391E+02  0.92288696517E+02  0.97042148956E+02  0.14276205560E+03  0.00000000000E+00 0. -1.
          3    1    5    5  503    0 -0.18307245924E+02 -0.99147114329E+01  0.28077163460E+03  0.28154247913E+03  0.00000000000E+00 0. -1.
         -4    1    5    5    0  503  0.77729588044E+02 -0.10722820927E+03  0.13862005054E+04  0.13925126997E+04  0.00000000000E+00 0.  1.
         -1    1    6    6    0  502 -0.87103934481E+02  0.21132481242E+03  0.76353444028E+02  0.24098780085E+03  0.00000000000E+00 0.  1.
<mgrwt>
<rscale>  0 0.11491467E+04</rscale>
<asrwt>0</asrwt>
<pdfrwt beam="1">  1        1 0.39534229E+00 0.11491467E+04</pdfrwt>
<pdfrwt beam="2">  1       -1 0.19764733E-01 0.11491467E+04</pdfrwt>
<totfact> 0.25317947E+01</totfact>
</mgrwt>
</event>
<event>
12    1  0.1504874E-007  0.1418564E+04  0.7818608E-02  0.8940489E-01
          2   -1    0    0  501    0  0.00000000000E+00  0.00000000000E+00  0.12572710788E+04  0.12572710788E+04  0.00000000000E+00 0. -1.
         -2   -1    0    0    0  501 -0.00000000000E+00 -0.00000000000E+00 -0.40013740821E+03  0.40013740821E+03  0.00000000000E+00 0.  1.
         23    2    1    2    0    0  0.16472726174E+03  0.19809493434E+03  0.63660849202E+03  0.69285695814E+03  0.91671798111E+02 0.  0.
        254    2    1    2    0    0 -0.16472726174E+03 -0.19809493434E+03  0.22052517858E+03  0.96455152888E+03  0.90296822962E+03 0.  0.
        -24    2    4    4    0    0 -0.50819514172E+03 -0.95396869050E+01  0.23202672125E+03  0.56455026683E+03  0.80791687078E+02 0.  0.
         24    2    4    4    0    0  0.34346787999E+03 -0.18855524744E+03 -0.11501542673E+02  0.40000126205E+03  0.79658384634E+02 0.  0.
         13    1    3    3    0    0  0.65130670635E+02  0.13028497141E+03  0.26757394607E+03  0.30465061078E+03  0.00000000000E+00 0. -1.
        -13    1    3    3    0    0  0.99596591100E+02  0.67809962932E+02  0.36903454595E+03  0.38820634737E+03  0.00000000000E+00 0.  1.
          4    1    6    6  502    0  0.42981561939E+02 -0.12061511582E+01  0.13350334797E+02  0.45023337355E+02  0.00000000000E+00 0. -1.
          1    1    5    5  503    0 -0.57518479802E+02  0.18555188498E+02  0.46997062458E+02  0.76559744113E+02  0.00000000000E+00 0. -1.
         -2    1    5    5    0  503 -0.45067666192E+03 -0.28094875403E+02  0.18502965879E+03  0.48799052271E+03  0.00000000000E+00 0.  1.
         -3    1    6    6    0  502  0.30048631805E+03 -0.18734909628E+03 -0.24851877470E+02  0.35497792470E+03  0.00000000000E+00 0.  1.
<mgrwt>
<rscale>  0 0.14185643E+04</rscale>
<asrwt>0</asrwt>
<pdfrwt beam="1">  1        2 0.19342632E+00 0.14185643E+04</pdfrwt>
<pdfrwt beam="2">  1       -2 0.61559602E-01 0.14185643E+04</pdfrwt>
<totfact> 0.41751370E+01</totfact>
</mgrwt>
</event>
<event>
12    1  0.1504874E-007  0.1345665E+04  0.7818608E-02  0.8994116E-01
         -2   -1    0    0    0  501 -0.00000000000E+00  0.00000000000E+00  0.31025904616E+03  0.31025904616E+03  0.00000000000E+00 0.  1.
          2   -1    0    0  501    0  0.00000000000E+00 -0.00000000000E+00 -0.14591158510E+04  0.14591158510E+04  0.00000000000E+00 0. -1.
         23    2    1    2    0    0  0.14756997544E+03  0.32508105541E+03 -0.20575879679E+03  0.42266446565E+03  0.94095578164E+02 0.  0.
        254    2    1    2    0    0 -0.14756997544E+03 -0.32508105541E+03 -0.94309800806E+03  0.13467104315E+04  0.89260323958E+03 0.  0.
        -24    2    4    4    0    0 -0.16203689727E+03 -0.62119294907E+03 -0.55767009411E+03  0.85400507029E+03  0.78689835252E+02 0.  0.
         24    2    4    4    0    0  0.14466921834E+02  0.29611189366E+03 -0.38542791396E+03  0.49270536122E+03  0.79450303470E+02 0.  0.
         13    1    3    3    0    0  0.57377396429E+02  0.39390205553E+02 -0.40189031735E+02  0.80367357716E+02  0.00000000000E+00 0. -1.
        -13    1    3    3    0    0  0.90192579013E+02  0.28569084986E+03 -0.16556976505E+03  0.34229710793E+03  0.00000000000E+00 0.  1.
          4    1    6    6  502    0  0.38509527497E+02  0.80724716621E+02 -0.97206702838E+02  0.13209317415E+03  0.00000000000E+00 0. -1.
          1    1    5    5  503    0 -0.11523389085E+03 -0.30074806643E+03 -0.30020890865E+03  0.44028813055E+03  0.00000000000E+00 0. -1.
         -2    1    5    5    0  503 -0.46803006420E+02 -0.32044488264E+03 -0.25746118545E+03  0.41371693975E+03  0.00000000000E+00 0.  1.
         -3    1    6    6    0  502 -0.24042605663E+02  0.21538717704E+03 -0.28822121112E+03  0.36061218707E+03  0.00000000000E+00 0.  1.
<mgrwt>
<rscale>  0 0.13456655E+04</rscale>
<asrwt>0</asrwt>
<pdfrwt beam="1">  1        2 0.22447936E+00 0.13456655E+04</pdfrwt>
<pdfrwt beam="2">  1       -2 0.47732161E-01 0.13456655E+04</pdfrwt>
<totfact> 0.54393500E+01</totfact>
</mgrwt>
</event>
<event>
12    1  0.1504874E-007  0.2897134E+04  0.7818608E-02  0.8273731E-01
         -2   -1    0    0    0  501 -0.00000000000E+00  0.00000000000E+00  0.58430945677E+03  0.58430945677E+03  0.00000000000E+00 0.  1.
          2   -1    0    0  501    0  0.00000000000E+00 -0.00000000000E+00 -0.35911547499E+04  0.35911547499E+04  0.00000000000E+00 0. -1.
         23    2    1    2    0    0  0.11794519194E+03  0.21760868712E+03  0.48590234143E+03  0.55392773643E+03  0.97315172343E+02 0.  0.
        254    2    1    2    0    0 -0.11794519194E+03 -0.21760868712E+03 -0.34927476346E+04  0.36215364702E+04  0.92464899152E+03 0.  0.
        -24    2    4    4    0    0 -0.24073246791E+03 -0.24956930239E+03 -0.44514737423E+03  0.57026527071E+03  0.82518703277E+02 0.  0.
         24    2    4    4    0    0  0.12278727597E+03  0.31960615274E+02 -0.30476002603E+04  0.30512711995E+04  0.79311980359E+02 0.  0.
         11    1    3    3    0    0  0.41552339710E+02  0.81790072425E+01  0.92983893516E+02  0.10217385942E+03  0.00000000000E+00 0. -1.
        -11    1    3    3    0    0  0.76392852228E+02  0.20942967987E+03  0.39291844792E+03  0.45175387701E+03  0.00000000000E+00 0.  1.
          4    1    6    6  502    0  0.59211528869E+02  0.27881715669E+02 -0.76883679427E+03  0.77161739965E+03  0.00000000000E+00 0. -1.
          1    1    5    5  503    0 -0.41152433434E+02 -0.63731755770E+01 -0.46272668271E+02  0.62251907388E+02  0.00000000000E+00 0. -1.
         -2    1    5    5    0  503 -0.19958003448E+03 -0.24319612681E+03 -0.39887470596E+03  0.50801336332E+03  0.00000000000E+00 0.  1.
         -3    1    6    6    0  502  0.63575747105E+02  0.40788996049E+01 -0.22787634661E+04  0.22796537999E+04  0.00000000000E+00 0.  1.
<mgrwt>
<rscale>  0 0.28971335E+04</rscale>
<asrwt>0</asrwt>
<pdfrwt beam="1">  1        2 0.55248536E+00 0.28971335E+04</pdfrwt>
<pdfrwt beam="2">  1       -2 0.89893761E-01 0.28971335E+04</pdfrwt>
<totfact> 0.64060361E-01</totfact>
</mgrwt>
</event>
<event>
12    1  0.1504874E-007  0.1333734E+04  0.7818608E-02  0.9003233E-01
          2   -1    0    0  501    0  0.00000000000E+00  0.00000000000E+00  0.16787606452E+04  0.16787606452E+04  0.00000000000E+00 0. -1.
         -2   -1    0    0    0  501 -0.00000000000E+00 -0.00000000000E+00 -0.26490471739E+03  0.26490471739E+03  0.00000000000E+00 0.  1.
         23    2    1    2    0    0  0.73653750312E+02 -0.34749757441E+03  0.35316711647E+03  0.50896101245E+03  0.90193463625E+02 0.  0.
        254    2    1    2    0    0 -0.73653750312E+02  0.34749757441E+03  0.10606888113E+04  0.14347043501E+04  0.89840769066E+03 0.  0.
        -24    2    4    4    0    0 -0.25958513122E+03 -0.22817859765E+03  0.42806993228E+03  0.55594988782E+03  0.79915568346E+02 0.  0.
         24    2    4    4    0    0  0.18593138091E+03  0.57567617207E+03  0.63261887906E+03  0.87875446232E+03  0.77648087001E+02 0.  0.
         13    1    3    3    0    0  0.26450982148E+02 -0.14084581814E+03  0.20585487220E+03  0.25082549183E+03  0.00000000000E+00 0. -1.
        -13    1    3    3    0    0  0.47202768164E+02 -0.20665175628E+03  0.14731224427E+03  0.25813552062E+03  0.00000000000E+00 0.  1.
          4    1    6    6  502    0  0.12168672626E+03  0.42877210239E+03  0.50707858935E+03  0.67511619067E+03  0.00000000000E+00 0. -1.
          3    1    5    5  503    0 -0.18733532658E+03 -0.13699658255E+03  0.33198723195E+03  0.40506556308E+03  0.00000000000E+00 0. -1.
         -4    1    5    5    0  503 -0.72249804640E+02 -0.91182015103E+02  0.96082700332E+02  0.15088432474E+03  0.00000000000E+00 0.  1.
         -3    1    6    6    0  502  0.64244654648E+02  0.14690406968E+03  0.12554028972E+03  0.20363827165E+03  0.00000000000E+00 0.  1.
<mgrwt>
<rscale>  0 0.13337340E+04</rscale>
<asrwt>0</asrwt>
<pdfrwt beam="1">  1        2 0.25827086E+00 0.13337340E+04</pdfrwt>
<pdfrwt beam="2">  1       -2 0.40754573E-01 0.13337340E+04</pdfrwt>
<totfact> 0.56174065E+01</totfact>
</mgrwt>
</event>
<event>
12    1  0.1504874E-007  0.1627544E+04  0.7818608E-02  0.8803803E-01
         -1   -1    0    0    0  501 -0.00000000000E+00  0.00000000000E+00  0.73940897696E+03  0.73940897696E+03  0.00000000000E+00 0.  1.
          1   -1    0    0  501    0  0.00000000000E+00 -0.00000000000E+00 -0.89561406049E+03  0.89561406049E+03  0.00000000000E+00 0. -1.
         23    2    1    2    0    0  0.14907677704E+03  0.38327639939E+03  0.30793215532E+03  0.52154417860E+03  0.89785489720E+02 0.  0.
        254    2    1    2    0    0 -0.14907677704E+03 -0.38327639939E+03 -0.46413723885E+03  0.11134788589E+04  0.92481733809E+03 0.  0.
        -24    2    4    4    0    0  0.23125673337E+03 -0.48927551759E+03 -0.72306555218E+02  0.55143964183E+03  0.77377204702E+02 0.  0.
         24    2    4    4    0    0 -0.38033351041E+03  0.10599911820E+03 -0.39183068363E+03  0.56203921703E+03  0.80420175567E+02 0.  0.
         11    1    3    3    0    0  0.11865700960E+03  0.34673271427E+03  0.23798630941E+03  0.43696744105E+03  0.00000000000E+00 0.  1.
        -11    1    3    3    0    0  0.30419767444E+02  0.36543685119E+02  0.69945845911E+02  0.84576737544E+02  0.00000000000E+00 0. -1.
          2    1    6    6  502    0 -0.38378461888E+03  0.10383882855E+03 -0.39145284554E+03  0.55795023639E+03  0.00000000000E+00 0. -1.
          3    1    5    5  503    0  0.18850422857E+03 -0.38805808582E+03 -0.25993924919E+02  0.43220204336E+03  0.00000000000E+00 0. -1.
         -4    1    5    5    0  503  0.42752504805E+02 -0.10121743177E+03 -0.46312630299E+02  0.11923759846E+03  0.00000000000E+00 0.  1.
         -1    1    6    6    0  502  0.34511084710E+01  0.21602896457E+01 -0.37783809538E+00  0.40889806380E+01  0.00000000000E+00 0.  1.
<mgrwt>
<rscale>  0 0.16275443E+04</rscale>
<asrwt>0</asrwt>
<pdfrwt beam="1">  1        1 0.13778678E+00 0.16275443E+04</pdfrwt>
<pdfrwt beam="2">  1       -1 0.11375523E+00 0.16275443E+04</pdfrwt>
<totfact> 0.12379424E+01</totfact>
</mgrwt>
</event>
<event>
12    1  0.1504874E-007  0.2515651E+04  0.7818608E-02  0.8397431E-01
         -2   -1    0    0    0  501 -0.00000000000E+00  0.00000000000E+00  0.16060643714E+04  0.16060643714E+04  0.00000000000E+00 0.  1.
          2   -1    0    0  501    0  0.00000000000E+00 -0.00000000000E+00 -0.98509465871E+03  0.98509465871E+03  0.00000000000E+00 0. -1.
         23    2    1    2    0    0 -0.26293670349E+03 -0.20100750753E+03 -0.80454840602E+03  0.87466618235E+03  0.90570772250E+02 0.  0.
        254    2    1    2    0    0  0.26293670349E+03  0.20100750753E+03  0.14255181187E+04  0.17164928477E+04  0.89705410177E+03 0.  0.
        -24    2    4    4    0    0 -0.21408700151E+03 -0.16546828736E+03  0.19054974807E+03  0.34063468381E+03  0.80683226165E+02 0.  0.
         24    2    4    4    0    0  0.47702370500E+03  0.36647579489E+03  0.12349683706E+04  0.13758581639E+04  0.77347834318E+02 0.  0.
         13    1    3    3    0    0 -0.70099188561E+02 -0.85979870776E+02 -0.18533714490E+03  0.21600067522E+03  0.00000000000E+00 0.  1.
        -13    1    3    3    0    0 -0.19283751493E+03 -0.11502763676E+03 -0.61921126113E+03  0.65866550713E+03  0.00000000000E+00 0. -1.
          2    1    6    6  502    0  0.26639041984E+03  0.20358468378E+03  0.77430938331E+03  0.84378054038E+03  0.00000000000E+00 0. -1.
          1    1    5    5  503    0 -0.20277312135E+03 -0.16316731293E+03  0.15425468593E+03  0.30254754814E+03  0.00000000000E+00 0. -1.
         -2    1    5    5    0  503 -0.11313880158E+02 -0.23009744235E+01  0.36295062140E+02  0.38087135667E+02  0.00000000000E+00 0.  1.
         -1    1    6    6    0  502  0.21063328516E+03  0.16289111111E+03  0.46065898729E+03  0.53207762353E+03  0.00000000000E+00 0.  1.
<mgrwt>
<rscale>  0 0.25156514E+04</rscale>
<asrwt>0</asrwt>
<pdfrwt beam="1">  1        2 0.15155302E+00 0.25156514E+04</pdfrwt>
<pdfrwt beam="2">  1       -2 0.24708683E+00 0.25156514E+04</pdfrwt>
<totfact> 0.15361163E+00</totfact>
</mgrwt>
</event>
<event>
12    1  0.1504874E-007  0.2232039E+04  0.7818608E-02  0.8505210E-01
          3   -1    0    0  501    0  0.00000000000E+00  0.00000000000E+00  0.15321106993E+04  0.15321106993E+04  0.00000000000E+00 0. -1.
         -3   -1    0    0    0  501 -0.00000000000E+00 -0.00000000000E+00 -0.81293085965E+03  0.81293085965E+03  0.00000000000E+00 0.  1.
         23    2    1    2    0    0  0.10194546610E+03  0.16050554354E+03  0.12584633329E+04  0.12758153345E+04  0.88430197906E+02 0.  0.
        254    2    1    2    0    0 -0.10194546610E+03 -0.16050554354E+03 -0.53928349325E+03  0.10692262245E+04  0.90347281386E+03 0.  0.
        -24    2    4    4    0    0  0.13426896922E+03 -0.19368238281E+03 -0.71840762266E+03  0.76044730430E+03  0.81422164180E+02 0.  0.
         24    2    4    4    0    0 -0.23621443533E+03  0.33176839265E+02  0.17912412941E+03  0.30877892015E+03  0.79755913084E+02 0.  0.
         11    1    3    3    0    0  0.11168674196E+03  0.12443579853E+03  0.11194560163E+04  0.11318745376E+04  0.00000000000E+00 0. -1.
        -11    1    3    3    0    0 -0.97412758587E+01  0.36069745007E+02  0.13900731659E+03  0.14394079695E+03  0.00000000000E+00 0.  1.
          2    1    6    6  502    0  0.92453078113E+00  0.89407224657E+01  0.20683813584E+02  0.22552414943E+02  0.00000000000E+00 0. -1.
          3    1    5    5  503    0 -0.82032302284E+01 -0.35585865352E+02 -0.10506082115E+03  0.11122689846E+03  0.00000000000E+00 0. -1.
         -4    1    5    5    0  503  0.14247219945E+03 -0.15809651745E+03 -0.61334680151E+03  0.64922040585E+03  0.00000000000E+00 0.  1.
         -1    1    6    6    0  502 -0.23713896611E+03  0.24236116799E+02  0.15844031582E+03  0.28622650520E+03  0.00000000000E+00 0.  1.
<mgrwt>
<rscale>  0 0.22320395E+04</rscale>
<asrwt>0</asrwt>
<pdfrwt beam="1">  1        3 0.23570934E+00 0.22320395E+04</pdfrwt>
<pdfrwt beam="2">  1       -3 0.12506629E+00 0.22320395E+04</pdfrwt>
<totfact> 0.10867909E-01</totfact>
</mgrwt>
</event>
<event>
12    1  0.1504874E-007  0.2205153E+04  0.7818608E-02  0.8516286E-01
         -1   -1    0    0    0  501 -0.00000000000E+00  0.00000000000E+00  0.63425982851E+03  0.63425982851E+03  0.00000000000E+00 0.  1.
          1   -1    0    0  501    0  0.00000000000E+00 -0.00000000000E+00 -0.19166824578E+04  0.19166824578E+04  0.00000000000E+00 0. -1.
         23    2    1    2    0    0 -0.11841865441E+03 -0.29902472199E+03 -0.15323807569E+04  0.15684204418E+04  0.91176401879E+02 0.  0.
        254    2    1    2    0    0  0.11841865441E+03  0.29902472199E+03  0.24995812762E+03  0.98252184444E+03  0.89410924789E+03 0.  0.
        -24    2    4    4    0    0  0.35436965495E+03 -0.13694254710E+03  0.28098885702E+03  0.47945361952E+03  0.81178334198E+02 0.  0.
         24    2    4    4    0    0 -0.23595100054E+03  0.43596726909E+03 -0.31030729404E+02  0.50306822492E+03  0.79839829567E+02 0.  0.
         11    1    3    3    0    0 -0.11140411457E+03 -0.16285801127E+03 -0.95297578543E+03  0.97318880809E+03  0.00000000000E+00 0.  1.
        -11    1    3    3    0    0 -0.70145398435E+01 -0.13616671072E+03 -0.57940497143E+03  0.59523163373E+03  0.00000000000E+00 0. -1.
          4    1    6    6  502    0 -0.93472561466E+02  0.14420206450E+03 -0.46427564043E+02  0.17800807244E+03  0.00000000000E+00 0. -1.
          3    1    5    5  503    0  0.70031017467E+02 -0.97658979288E+00  0.76677900023E+02  0.10384987957E+03  0.00000000000E+00 0. -1.
         -4    1    5    5    0  503  0.28433863748E+03 -0.13596595731E+03  0.20431095700E+03  0.37560373995E+03  0.00000000000E+00 0.  1.
         -3    1    6    6    0  502 -0.14247843907E+03  0.29176520459E+03  0.15396834640E+02  0.32506015248E+03  0.00000000000E+00 0.  1.
<mgrwt>
<rscale>  0 0.22051528E+04</rscale>
<asrwt>0</asrwt>
<pdfrwt beam="1">  1        1 0.29487422E+00 0.22051528E+04</pdfrwt>
<pdfrwt beam="2">  1       -1 0.97578436E-01 0.22051528E+04</pdfrwt>
<totfact> 0.31173060E+00</totfact>
</mgrwt>
</event>
<event>
12    1  0.1504874E-007  0.1399863E+04  0.7818608E-02  0.8953917E-01
          2   -1    0    0  501    0  0.00000000000E+00  0.00000000000E+00  0.21579595336E+04  0.21579595336E+04  0.00000000000E+00 0. -1.
         -2   -1    0    0    0  501 -0.00000000000E+00 -0.00000000000E+00 -0.22702202085E+03  0.22702202085E+03  0.00000000000E+00 0.  1.
         23    2    1    2    0    0  0.66292480887E+02 -0.39999217663E+03  0.59412292549E+03  0.72496942844E+03  0.90610083283E+02 0.  0.
        254    2    1    2    0    0 -0.66292480887E+02  0.39999217663E+03  0.13368145872E+04  0.16600121260E+04  0.89676004784E+03 0.  0.
        -24    2    4    4    0    0 -0.13623265179E+03  0.66480554722E+03  0.80131855655E+03  0.10532259285E+04  0.81533284200E+02 0.  0.
         24    2    4    4    0    0  0.69940170902E+02 -0.26481337059E+03  0.53549603069E+03  0.60678619746E+03  0.80098325780E+02 0.  0.
         13    1    3    3    0    0 -0.13641720367E+02 -0.31623777052E+02  0.83199603737E+02  0.90046287384E+02  0.00000000000E+00 0.  1.
        -13    1    3    3    0    0  0.79934201254E+02 -0.36836839958E+03  0.51092332175E+03  0.63492314105E+03  0.00000000000E+00 0. -1.
          4    1    6    6  502    0  0.33759545212E+02 -0.73616146516E+02  0.92549992976E+02  0.12298188940E+03  0.00000000000E+00 0. -1.
          3    1    5    5  503    0  0.29466314883E+01  0.15527254577E+03  0.18275473357E+03  0.23982814420E+03  0.00000000000E+00 0. -1.
         -4    1    5    5    0  503 -0.13917928328E+03  0.50953300145E+03  0.61856382298E+03  0.81339778433E+03  0.00000000000E+00 0.  1.
         -3    1    6    6    0  502  0.36180625690E+02 -0.19119722408E+03  0.44294603771E+03  0.48380430806E+03  0.00000000000E+00 0.  1.
<mgrwt>
<rscale>  0 0.13998633E+04</rscale>
<asrwt>0</asrwt>
<pdfrwt beam="1">  1        2 0.33199376E+00 0.13998633E+04</pdfrwt>
<pdfrwt beam="2">  1       -2 0.34926466E-01 0.13998633E+04</pdfrwt>
<totfact> 0.40874488E+01</totfact>
</mgrwt>
</event>
<event>
12    1  0.1504874E-007  0.1201061E+04  0.7818608E-02  0.9111928E-01
         -2   -1    0    0    0  501 -0.00000000000E+00  0.00000000000E+00  0.22999417093E+03  0.22999417093E+03  0.00000000000E+00 0.  1.
          2   -1    0    0  501    0  0.00000000000E+00 -0.00000000000E+00 -0.15680268630E+04  0.15680268630E+04  0.00000000000E+00 0. -1.
         23    2    1    2    0    0  0.13753839384E+03  0.30250026361E+02  0.12040435270E+02  0.16959679237E+03  0.93734870911E+02 0.  0.
        254    2    1    2    0    0 -0.13753839384E+03 -0.30250026361E+02 -0.13500731273E+04  0.16284242415E+04  0.89957555960E+03 0.  0.
        -24    2    4    4    0    0  0.11884811580E+03 -0.32392045839E+03 -0.11069048779E+04  0.11620135370E+04  0.77380317327E+02 0.  0.
         24    2    4    4    0    0 -0.25638650964E+03  0.29367043203E+03 -0.24316824942E+03  0.46641070451E+03  0.80198396376E+02 0.  0.
         13    1    3    3    0    0  0.68354081206E+02  0.62404226683E+02  0.11801615757E+02  0.93305123439E+02  0.00000000000E+00 0.  1.
        -13    1    3    3    0    0  0.69184312636E+02 -0.32154200323E+02  0.23881951301E+00  0.76291668930E+02  0.00000000000E+00 0. -1.
          4    1    6    6  502    0 -0.21290987700E+02  0.33734335053E+02 -0.10023012082E+00  0.39891372059E+02  0.00000000000E+00 0. -1.
          3    1    5    5  503    0  0.14963029939E+02 -0.15458632833E+02 -0.14368511493E+03  0.14528686743E+03  0.00000000000E+00 0. -1.
         -4    1    5    5    0  503  0.10388508586E+03 -0.30846182556E+03 -0.96321976297E+03  0.10167266696E+04  0.00000000000E+00 0.  1.
         -3    1    6    6    0  502 -0.23509552194E+03  0.25993609698E+03 -0.24306801930E+03  0.42651933245E+03  0.00000000000E+00 0.  1.
<mgrwt>
<rscale>  0 0.12010613E+04</rscale>
<asrwt>0</asrwt>
<pdfrwt beam="1">  1        2 0.24123490E+00 0.12010613E+04</pdfrwt>
<pdfrwt beam="2">  1       -2 0.35383719E-01 0.12010613E+04</pdfrwt>
<totfact> 0.85988084E+01</totfact>
</mgrwt>
</event>
<event>
12    1  0.1504874E-007  0.1268379E+04  0.7818608E-02  0.9055023E-01
          1   -1    0    0  501    0  0.00000000000E+00  0.00000000000E+00  0.68814662275E+03  0.68814662275E+03  0.00000000000E+00 0. -1.
         -1   -1    0    0    0  501 -0.00000000000E+00 -0.00000000000E+00 -0.58446333993E+03  0.58446333993E+03  0.00000000000E+00 0.  1.
         23    2    1    2    0    0  0.15448203861E+03 -0.19233072446E+03  0.19929870605E+03  0.33025092086E+03  0.92140591885E+02 0.  0.
        254    2    1    2    0    0 -0.15448203861E+03  0.19233072446E+03 -0.95615423241E+02  0.94235904182E+03  0.90445698997E+03 0.  0.
        -24    2    4    4    0    0 -0.24472687203E+03 -0.92151389148E+02  0.32256134693E+03  0.42280772735E+03  0.79607985517E+02 0.  0.
         24    2    4    4    0    0  0.90244833418E+02  0.28448211360E+03 -0.41817677017E+03  0.51955131446E+03  0.77379288764E+02 0.  0.
         13    1    3    3    0    0  0.10290056199E+03 -0.17865513494E+03  0.17940764738E+03  0.27330072601E+03  0.00000000000E+00 0. -1.
        -13    1    3    3    0    0  0.51581476621E+02 -0.13675589516E+02  0.19891058679E+02  0.56950194858E+02  0.00000000000E+00 0.  1.
          4    1    6    6  502    0  0.14395887912E+02  0.63579539589E+02 -0.15225006409E+03  0.16561908543E+03  0.00000000000E+00 0. -1.
          3    1    5    5  503    0 -0.11897822978E+03 -0.17813970961E+02  0.19367914173E+03  0.22800168127E+03  0.00000000000E+00 0. -1.
         -4    1    5    5    0  503 -0.12574864225E+03 -0.74337418187E+02  0.12888220520E+03  0.19480604608E+03  0.00000000000E+00 0.  1.
         -3    1    6    6    0  502  0.75848945507E+02  0.22090257401E+03 -0.26592670608E+03  0.35393222903E+03  0.00000000000E+00 0.  1.
<mgrwt>
<rscale>  0 0.12683792E+04</rscale>
<asrwt>0</asrwt>
<pdfrwt beam="1">  1        1 0.10586871E+00 0.12683792E+04</pdfrwt>
<pdfrwt beam="2">  1       -1 0.89917437E-01 0.12683792E+04</pdfrwt>
<totfact> 0.33346504E+01</totfact>
</mgrwt>
</event>
<event>
12    1  0.1504874E-007  0.1680712E+04  0.7818608E-02  0.8772442E-01
          1   -1    0    0  501    0  0.00000000000E+00  0.00000000000E+00  0.12875974650E+04  0.12875974650E+04  0.00000000000E+00 0. -1.
         -1   -1    0    0    0  501 -0.00000000000E+00 -0.00000000000E+00 -0.54846212472E+03  0.54846212472E+03  0.00000000000E+00 0.  1.
         23    2    1    2    0    0 -0.34504493281E+03 -0.40569304457E+03 -0.39332477510E+02  0.54104110872E+03  0.86807750005E+02 0.  0.
        254    2    1    2    0    0  0.34504493281E+03  0.40569304457E+03  0.77846781777E+03  0.12950184810E+04  0.88736569165E+03 0.  0.
        -24    2    4    4    0    0 -0.17778358873E+03 -0.43591492004E+02  0.51417368405E+03  0.55203086361E+03  0.82802623201E+02 0.  0.
         24    2    4    4    0    0  0.52282852154E+03  0.44928453658E+03  0.26429413372E+03  0.74298761738E+03  0.83504207745E+02 0.  0.
         11    1    3    3    0    0 -0.30048485340E+02 -0.82932324926E+02 -0.14216441194E+02  0.89346455941E+02  0.00000000000E+00 0. -1.
        -11    1    3    3    0    0 -0.31499644747E+03 -0.32276071965E+03 -0.25116036316E+02  0.45169465278E+03  0.00000000000E+00 0.  1.
          4    1    6    6  502    0  0.30252391899E+03  0.25991169355E+03  0.19674070344E+03  0.44472656138E+03  0.00000000000E+00 0. -1.
          1    1    5    5  503    0 -0.55334991569E+02 -0.44225751931E+02  0.12077940077E+03  0.14001979173E+03  0.00000000000E+00 0. -1.
         -2    1    5    5    0  503 -0.12244859716E+03  0.63425992690E+00  0.39339428328E+03  0.41201107188E+03  0.00000000000E+00 0.  1.
         -3    1    6    6    0  502  0.22030460255E+03  0.18937284303E+03  0.67553430272E+02  0.29826105600E+03  0.00000000000E+00 0.  1.
<mgrwt>
<rscale>  0 0.16807123E+04</rscale>
<asrwt>0</asrwt>
<pdfrwt beam="1">  1        1 0.19809192E+00 0.16807123E+04</pdfrwt>
<pdfrwt beam="2">  1       -1 0.84378789E-01 0.16807123E+04</pdfrwt>
<totfact> 0.12241994E+01</totfact>
</mgrwt>
</event>
<event>
12    1  0.1504874E-007  0.1275578E+04  0.7818608E-02  0.9049160E-01
          3   -1    0    0  501    0  0.00000000000E+00  0.00000000000E+00  0.80852849873E+03  0.80852849873E+03  0.00000000000E+00 0. -1.
         -3   -1    0    0    0  501 -0.00000000000E+00 -0.00000000000E+00 -0.50310483293E+03  0.50310483293E+03  0.00000000000E+00 0.  1.
         23    2    1    2    0    0 -0.71928736836E+02 -0.23963924066E+03 -0.12731994000E+03  0.29862198515E+03  0.10180380173E+03 0.  0.
        254    2    1    2    0    0  0.71928736836E+02  0.23963924066E+03  0.43274360580E+03  0.10130113465E+04  0.88109264607E+03 0.  0.
        -24    2    4    4    0    0 -0.39061657581E+03  0.26483332109E+02  0.19423143344E+03  0.44501987169E+03  0.83869900953E+02 0.  0.
         24    2    4    4    0    0  0.46254531265E+03  0.21315590855E+03  0.23851217236E+03  0.56799147482E+03  0.79640765304E+02 0.  0.
         11    1    3    3    0    0 -0.19645073259E+01 -0.79755008652E+02  0.45076982768E+01  0.79906445534E+02  0.00000000000E+00 0.  1.
        -11    1    3    3    0    0 -0.69964229510E+02 -0.15988423201E+03 -0.13182763828E+03  0.21871553962E+03  0.00000000000E+00 0. -1.
          2    1    6    6  502    0  0.71024759437E+02  0.43296815431E+02  0.71533670825E+02  0.10970960186E+03  0.00000000000E+00 0. -1.
          1    1    5    5  503    0 -0.17397064093E+03  0.53303828571E+02  0.82390858001E+02  0.19973816743E+03  0.00000000000E+00 0. -1.
         -2    1    5    5    0  503 -0.21664593489E+03 -0.26820496462E+02  0.11184057544E+03  0.24528170427E+03  0.00000000000E+00 0.  1.
         -1    1    6    6    0  502  0.39152055321E+03  0.16985909312E+03  0.16697850154E+03  0.45828187295E+03  0.00000000000E+00 0.  1.
<mgrwt>
<rscale>  0 0.12755777E+04</rscale>
<asrwt>0</asrwt>
<pdfrwt beam="1">  1        3 0.12438900E+00 0.12755777E+04</pdfrwt>
<pdfrwt beam="2">  1       -3 0.77400743E-01 0.12755777E+04</pdfrwt>
<totfact> 0.20892194E+00</totfact>
</mgrwt>
</event>
<event>
12    1  0.1504874E-007  0.1185027E+04  0.7818608E-02  0.9126064E-01
         -2   -1    0    0    0  501 -0.00000000000E+00  0.00000000000E+00  0.16213172957E+03  0.16213172957E+03  0.00000000000E+00 0.  1.
          2   -1    0    0  501    0  0.00000000000E+00 -0.00000000000E+00 -0.21653533292E+04  0.21653533292E+04  0.00000000000E+00 0. -1.
         23    2    1    2    0    0  0.20453022240E+03 -0.74393381210E+02 -0.21791922713E+03  0.32168923085E+03  0.92888022086E+02 0.  0.
        254    2    1    2    0    0 -0.20453022240E+03  0.74393381210E+02 -0.17853023725E+04  0.20057958279E+04  0.88800076297E+03 0.  0.
        -24    2    4    4    0    0 -0.53586950831E+03  0.66241912817E+02 -0.84779794434E+03  0.10082449402E+04  0.79072018630E+02 0.  0.
         24    2    4    4    0    0  0.33133928591E+03  0.81514683933E+01 -0.93750442817E+03  0.99755088770E+03  0.79630722054E+02 0.  0.
         11    1    3    3    0    0  0.17712142620E+03 -0.91657959450E+02 -0.16146253137E+03  0.25659955219E+03  0.00000000000E+00 0.  1.
        -11    1    3    3    0    0  0.27408796204E+02  0.17264578239E+02 -0.56456695769E+02  0.65089678662E+02  0.00000000000E+00 0. -1.
          2    1    6    6  502    0  0.32186575392E+03  0.91391961474E+01 -0.84029569327E+03  0.89987662520E+03  0.00000000000E+00 0. -1.
          1    1    5    5  503    0 -0.41075505279E+03  0.63674489795E+02 -0.70463359202E+03  0.81809697044E+03  0.00000000000E+00 0. -1.
         -2    1    5    5    0  503 -0.12511445552E+03  0.25674230221E+01 -0.14316435232E+03  0.19014796980E+03  0.00000000000E+00 0.  1.
         -1    1    6    6    0  502  0.94735319844E+01 -0.98772775408E+00 -0.97208734900E+02  0.97674262501E+02  0.00000000000E+00 0.  1.
<mgrwt>
<rscale>  0 0.11850274E+04</rscale>
<asrwt>0</asrwt>
<pdfrwt beam="1">  1        2 0.33313124E+00 0.11850274E+04</pdfrwt>
<pdfrwt beam="2">  1       -2 0.24943346E-01 0.11850274E+04</pdfrwt>
<totfact> 0.77059358E+01</totfact>
</mgrwt>
</event>
<event>
12    1  0.3580761E-007  0.2639126E+04  0.7818608E-02  0.8355031E-01
         -2   -1    0    0    0  501 -0.00000000000E+00  0.00000000000E+00  0.79516407895E+03  0.79516407895E+03  0.00000000000E+00 0.  1.
          2   -1    0    0  501    0  0.00000000000E+00 -0.00000000000E+00 -0.21897959325E+04  0.21897959325E+04  0.00000000000E+00 0. -1.
         23    2    1    2    0    0  0.81199795210E+03  0.27765465768E+03  0.27554411666E+03  0.90599917937E+03  0.92071546384E+02 0.  0.
        254    2    1    2    0    0 -0.81199795210E+03 -0.27765465768E+03 -0.16701759702E+04  0.20789608320E+04  0.89227663125E+03 0.  0.
        -24    2    4    4    0    0 -0.41236488457E+03 -0.19873993482E+03 -0.12646530082E+03  0.48062171278E+03  0.73901277197E+02 0.  0.
         24    2    4    4    0    0 -0.39963306753E+03 -0.78914722864E+02 -0.15437106694E+04  0.15983391193E+04  0.75572397851E+02 0.  0.
         11    1    3    3    0    0  0.61207357669E+02  0.10595468336E+02  0.44152425586E+02  0.76210506279E+02  0.00000000000E+00 0. -1.
        -11    1    3    3    0    0  0.75079059443E+03  0.26705918935E+03  0.23139169107E+03  0.82978867309E+03  0.00000000000E+00 0.  1.
          4    1    6    6  502    0 -0.10899203603E+02  0.90512491936E+01 -0.32493703969E+02  0.35447969600E+02  0.00000000000E+00 0. -1.
          1    1    5    5  503    0 -0.68919375903E+02 -0.19742362494E+02 -0.45639228755E+02  0.84985766179E+02  0.00000000000E+00 0. -1.
         -2    1    5    5    0  503 -0.34344550866E+03 -0.17899757233E+03 -0.80826072062E+02  0.39563594660E+03  0.00000000000E+00 0.  1.
         -3    1    6    6    0  502 -0.38873386393E+03 -0.87965972058E+02 -0.15112169654E+04  0.15628911497E+04  0.00000000000E+00 0.  1.
<mgrwt>
<rscale>  0 0.26391264E+04</rscale>
<asrwt>0</asrwt>
<pdfrwt beam="1">  1        2 0.33689168E+00 0.26391264E+04</pdfrwt>
<pdfrwt beam="2">  1       -2 0.12233294E+00 0.26391264E+04</pdfrwt>
<totfact> 0.23347763E+00</totfact>
</mgrwt>
</event>
<event>
12    1  0.1504874E-007  0.1426905E+04  0.7818608E-02  0.8934570E-01
          2   -1    0    0  501    0  0.00000000000E+00  0.00000000000E+00  0.12375312032E+04  0.12375312032E+04  0.00000000000E+00 0. -1.
         -2   -1    0    0    0  501 -0.00000000000E+00 -0.00000000000E+00 -0.41131453545E+03  0.41131453545E+03  0.00000000000E+00 0.  1.
         23    2    1    2    0    0 -0.41460780863E+02  0.32325416632E+03 -0.65959820168E+02  0.34290846937E+03  0.83804940730E+02 0.  0.
        254    2    1    2    0    0  0.41460780863E+02 -0.32325416632E+03  0.89217648795E+03  0.13059372693E+04  0.89625945650E+03 0.  0.
        -24    2    4    4    0    0  0.97253468238E+02  0.12200251270E+03 -0.10690128795E+03  0.20774588063E+03  0.85951238295E+02 0.  0.
         24    2    4    4    0    0 -0.55792687375E+02 -0.44525667902E+03  0.99907777590E+03  0.10981913887E+04  0.80632435835E+02 0.  0.
         11    1    3    3    0    0 -0.64282046188E+02  0.22824729597E+03 -0.31053735980E+02  0.23915129960E+03  0.00000000000E+00 0.  1.
        -11    1    3    3    0    0  0.22821265325E+02  0.95006870351E+02 -0.34906084188E+02  0.10375716977E+03  0.00000000000E+00 0. -1.
          2    1    6    6  502    0 -0.23531917370E+02 -0.12666139930E+03  0.37919794670E+03  0.40048463639E+03  0.00000000000E+00 0. -1.
          1    1    5    5  503    0 -0.13281887836E+02  0.71290620601E+01 -0.23262810432E+02  0.27719856052E+02  0.00000000000E+00 0. -1.
         -2    1    5    5    0  503  0.11053535607E+03  0.11487345064E+03 -0.83638477522E+02  0.18002602458E+03  0.00000000000E+00 0.  1.
         -1    1    6    6    0  502 -0.32260770004E+02 -0.31859527972E+03  0.61987982920E+03  0.69770675229E+03  0.00000000000E+00 0.  1.
<mgrwt>
<rscale>  0 0.14269051E+04</rscale>
<asrwt>0</asrwt>
<pdfrwt beam="1">  1        2 0.19038941E+00 0.14269051E+04</pdfrwt>
<pdfrwt beam="2">  1       -2 0.63279160E-01 0.14269051E+04</pdfrwt>
<totfact> 0.40415852E+01</totfact>
</mgrwt>
</event>
<event>
12    1  0.1524034E-007  0.2449193E+04  0.7818608E-02  0.8421313E-01
         -2   -1    0    0    0  501 -0.00000000000E+00  0.00000000000E+00  0.74387045518E+03  0.74387045518E+03  0.00000000000E+00 0.  1.
          2   -1    0    0  501    0  0.00000000000E+00 -0.00000000000E+00 -0.20159911970E+04  0.20159911970E+04  0.00000000000E+00 0. -1.
         23    2    1    2    0    0  0.98771038646E+03 -0.18493431354E+03 -0.95589429568E+03  0.13899619052E+04  0.92128635976E+02 0.  0.
        254    2    1    2    0    0 -0.98771038646E+03  0.18493431354E+03 -0.31622644611E+03  0.13698997469E+04  0.87570180062E+03 0.  0.
        -24    2    4    4    0    0 -0.68660559020E+03 -0.22284307465E+03 -0.43010533126E+03  0.84407401752E+03  0.79900429641E+02 0.  0.
         24    2    4    4    0    0 -0.30110479626E+03  0.40777738819E+03  0.11387888515E+03  0.52582572942E+03  0.81103641046E+02 0.  0.
         13    1    3    3    0    0  0.96440159845E+03 -0.16912639486E+03 -0.94145690032E+03  0.13583133938E+04  0.00000000000E+00 0.  1.
        -13    1    3    3    0    0  0.23308788011E+02 -0.15807918679E+02 -0.14437395361E+02  0.31648511439E+02  0.00000000000E+00 0. -1.
          4    1    6    6  502    0 -0.26965459140E+03  0.34963878975E+03  0.12477160261E+03  0.45883421274E+03  0.00000000000E+00 0. -1.
          3    1    5    5  503    0 -0.49051605061E+03 -0.19088103757E+03 -0.33397121466E+03  0.62336052059E+03  0.00000000000E+00 0. -1.
         -4    1    5    5    0  503 -0.19608953959E+03 -0.31962037074E+02 -0.96134116601E+02  0.22071349693E+03  0.00000000000E+00 0.  1.
         -3    1    6    6    0  502 -0.31450204857E+02  0.58138598441E+02 -0.10892717457E+02  0.66991516685E+02  0.00000000000E+00 0.  1.
<mgrwt>
<rscale>  0 0.24491928E+04</rscale>
<asrwt>0</asrwt>
<pdfrwt beam="1">  1        2 0.31015249E+00 0.24491928E+04</pdfrwt>
<pdfrwt beam="2">  1       -2 0.11444161E+00 0.24491928E+04</pdfrwt>
<totfact> 0.34979805E+00</totfact>
</mgrwt>
</event>
<event>
12    1  0.1504874E-007  0.1109607E+04  0.7818608E-02  0.9195879E-01
          1   -1    0    0  501    0  0.00000000000E+00  0.00000000000E+00  0.75406558609E+03  0.75406558609E+03  0.00000000000E+00 0. -1.
         -1   -1    0    0    0  501 -0.00000000000E+00 -0.00000000000E+00 -0.40819644688E+03  0.40819644688E+03  0.00000000000E+00 0.  1.
         23    2    1    2    0    0  0.16565510143E+03 -0.71630952831E+01  0.24774384382E+02  0.19067165358E+03  0.90823932932E+02 0.  0.
        254    2    1    2    0    0 -0.16565510143E+03  0.71630952831E+01  0.32109475483E+03  0.97159037939E+03  0.90188308621E+03 0.  0.
        -24    2    4    4    0    0  0.57925203912E+02  0.42279206917E+03  0.10359654112E+03  0.44604754100E+03  0.78215743298E+02 0.  0.
         24    2    4    4    0    0 -0.22358030534E+03 -0.41562897389E+03  0.21749821371E+03  0.52554283839E+03  0.78448742124E+02 0.  0.
         11    1    3    3    0    0  0.15616331664E+03  0.22043729659E+02  0.26456548192E+02  0.15991515383E+03  0.00000000000E+00 0.  1.
        -11    1    3    3    0    0  0.94917847843E+01 -0.29206824942E+02 -0.16821638105E+01  0.30756499747E+02  0.00000000000E+00 0. -1.
          4    1    6    6  502    0 -0.11061757997E+03 -0.22977580912E+03  0.76097284509E+02  0.26612772904E+03  0.00000000000E+00 0. -1.
          1    1    5    5  503    0  0.75770808901E+02  0.34001147205E+03  0.72360020535E+02  0.35578784293E+03  0.00000000000E+00 0. -1.
         -2    1    5    5    0  503 -0.17845604990E+02  0.82780597126E+02  0.31236520588E+02  0.90259698074E+02  0.00000000000E+00 0.  1.
         -3    1    6    6    0  502 -0.11296272536E+03 -0.18585316477E+03  0.14140092920E+03  0.25941510934E+03  0.00000000000E+00 0.  1.
<mgrwt>
<rscale>  0 0.11096069E+04</rscale>
<asrwt>0</asrwt>
<pdfrwt beam="1">  1        1 0.11601009E+00 0.11096069E+04</pdfrwt>
<pdfrwt beam="2">  1       -1 0.62799453E-01 0.11096069E+04</pdfrwt>
<totfact> 0.62212510E+01</totfact>
</mgrwt>
</event>
<event>
12    1  0.1504874E-007  0.1299273E+04  0.7818608E-02  0.9030142E-01
          1   -1    0    0  501    0  0.00000000000E+00  0.00000000000E+00  0.75246956498E+03  0.75246956498E+03  0.00000000000E+00 0. -1.
         -1   -1    0    0    0  501 -0.00000000000E+00 -0.00000000000E+00 -0.56085641374E+03  0.56085641374E+03  0.00000000000E+00 0.  1.
         23    2    1    2    0    0  0.13791446194E+03  0.27436951699E+03  0.17386258919E+03  0.36442284642E+03  0.90976812463E+02 0.  0.
        254    2    1    2    0    0 -0.13791446194E+03 -0.27436951699E+03  0.17750562048E+02  0.94890313230E+03  0.89766532816E+03 0.  0.
        -24    2    4    4    0    0  0.30232685286E+03 -0.36644445686E+03 -0.55490503848E+02  0.48570392312E+03  0.84534247473E+02 0.  0.
         24    2    4    4    0    0 -0.44024131480E+03  0.92074939866E+02  0.73241065896E+02  0.46319920918E+03  0.83060483051E+02 0.  0.
         13    1    3    3    0    0  0.32613961330E+02  0.96289315937E+02  0.10556353582E+03  0.14655702963E+03  0.00000000000E+00 0. -1.
        -13    1    3    3    0    0  0.10530050061E+03  0.17808020105E+03  0.68299053371E+02  0.21786581680E+03  0.00000000000E+00 0.  1.
          2    1    6    6  502    0 -0.33509361317E+03  0.35826387092E+02  0.68266011719E+02  0.34384808849E+03  0.00000000000E+00 0. -1.
          1    1    5    5  503    0  0.28926727013E+03 -0.31945872244E+03 -0.33666384152E+02  0.43227636338E+03  0.00000000000E+00 0. -1.
         -2    1    5    5    0  503  0.13059582729E+02 -0.46985734415E+02 -0.21824119696E+02  0.53427559743E+02  0.00000000000E+00 0.  1.
         -1    1    6    6    0  502 -0.10514770163E+03  0.56248552774E+02  0.49750541774E+01  0.11935112069E+03  0.00000000000E+00 0.  1.
<mgrwt>
<rscale>  0 0.12992727E+04</rscale>
<asrwt>0</asrwt>
<pdfrwt beam="1">  1        1 0.11576455E+00 0.12992727E+04</pdfrwt>
<pdfrwt beam="2">  1       -1 0.86285602E-01 0.12992727E+04</pdfrwt>
<totfact> 0.31740299E+01</totfact>
</mgrwt>
</event>
<event>
12    1  0.1504874E-007  0.3145951E+04  0.7818608E-02  0.8203239E-01
          2   -1    0    0  501    0  0.00000000000E+00  0.00000000000E+00  0.18712216131E+04  0.18712216131E+04  0.00000000000E+00 0. -1.
         -2   -1    0    0    0  501 -0.00000000000E+00 -0.00000000000E+00 -0.13222651976E+04  0.13222651976E+04  0.00000000000E+00 0.  1.
         23    2    1    2    0    0 -0.92032898907E+03 -0.11166437417E+04  0.20071746894E+03  0.14636257102E+04  0.89521077699E+02 0.  0.
        254    2    1    2    0    0  0.92032898907E+03  0.11166437417E+04  0.34823894649E+03  0.17298611005E+04  0.88161804041E+03 0.  0.
        -24    2    4    4    0    0 -0.19109675090E+02  0.88069452530E+02 -0.19764093769E+03  0.23164867461E+03  0.80484532980E+02 0.  0.
         24    2    4    4    0    0  0.93943866416E+03  0.10285742891E+04  0.54587988418E+03  0.14982124259E+04  0.78393578100E+02 0.  0.
         11    1    3    3    0    0 -0.80684331405E+03 -0.94577180897E+03  0.14891462129E+03  0.12520607064E+04  0.00000000000E+00 0.  1.
        -11    1    3    3    0    0 -0.11348567501E+03 -0.17087193269E+03  0.51802847641E+02  0.21156500381E+03  0.00000000000E+00 0. -1.
          2    1    6    6  502    0  0.71559857815E+03  0.74898926286E+03  0.43240022575E+03  0.11225133390E+04  0.00000000000E+00 0. -1.
          3    1    5    5  503    0 -0.51400114753E+01  0.10133097023E+03 -0.16247104064E+03  0.19154953482E+03  0.00000000000E+00 0. -1.
         -4    1    5    5    0  503 -0.13969663615E+02 -0.13261517701E+02 -0.35169897048E+02  0.40099139787E+02  0.00000000000E+00 0.  1.
         -1    1    6    6    0  502  0.22384008601E+03  0.27958502627E+03  0.11347965843E+03  0.37569908690E+03  0.00000000000E+00 0.  1.
<mgrwt>
<rscale>  0 0.31459506E+04</rscale>
<asrwt>0</asrwt>
<pdfrwt beam="1">  1        2 0.28788025E+00 0.31459506E+04</pdfrwt>
<pdfrwt beam="2">  1       -2 0.20342541E+00 0.31459506E+04</pdfrwt>
<totfact> 0.84170275E-01</totfact>
</mgrwt>
</event>
<event>
12    1  0.1504874E-007  0.1365901E+04  0.7818608E-02  0.8978878E-01
         -2   -1    0    0    0  501 -0.00000000000E+00  0.00000000000E+00  0.34954703620E+03  0.34954703620E+03  0.00000000000E+00 0.  1.
          2   -1    0    0  501    0  0.00000000000E+00 -0.00000000000E+00 -0.13343601604E+04  0.13343601604E+04  0.00000000000E+00 0. -1.
         23    2    1    2    0    0  0.98056020359E+02 -0.26434201032E+03 -0.58994239249E+03  0.66034225675E+03  0.92348189152E+02 0.  0.
        254    2    1    2    0    0 -0.98056020359E+02  0.26434201032E+03 -0.39487073166E+03  0.10235649398E+04  0.90126056706E+03 0.  0.
        -24    2    4    4    0    0  0.18983504243E+03  0.12653434594E+03  0.21976942316E+03  0.32661635806E+03  0.79569855848E+02 0.  0.
         24    2    4    4    0    0 -0.28789106279E+03  0.13780766438E+03 -0.61464015482E+03  0.69694858175E+03  0.77990956522E+02 0.  0.
         13    1    3    3    0    0  0.70041722121E+02 -0.21221028758E+03 -0.36704706676E+03  0.42972386274E+03  0.00000000000E+00 0. -1.
        -13    1    3    3    0    0  0.28014298238E+02 -0.52131722746E+02 -0.22289532573E+03  0.23061839401E+03  0.00000000000E+00 0.  1.
          4    1    6    6  502    0 -0.76244742490E+02  0.61190087274E+02 -0.13064438869E+03  0.16317304873E+03  0.00000000000E+00 0. -1.
          3    1    5    5  503    0  0.17060304542E+02  0.74000995130E+01 -0.48428568468E+01  0.19216366105E+02  0.00000000000E+00 0. -1.
         -4    1    5    5    0  503  0.17277473789E+03  0.11913424643E+03  0.22461228000E+03  0.30739999195E+03  0.00000000000E+00 0.  1.
         -3    1    6    6    0  502 -0.21164632030E+03  0.76617577106E+02 -0.48399576613E+03  0.53377553302E+03  0.00000000000E+00 0.  1.
<mgrwt>
<rscale>  0 0.13659014E+04</rscale>
<asrwt>0</asrwt>
<pdfrwt beam="1">  1        2 0.20528618E+00 0.13659014E+04</pdfrwt>
<pdfrwt beam="2">  1       -2 0.53776467E-01 0.13659014E+04</pdfrwt>
<totfact> 0.50171767E+01</totfact>
</mgrwt>
</event>
<event>
12    1  0.1504874E-007  0.1922196E+04  0.7818608E-02  0.8643886E-01
          2   -1    0    0  501    0  0.00000000000E+00  0.00000000000E+00  0.17951439689E+04  0.17951439689E+04  0.00000000000E+00 0. -1.
         -2   -1    0    0    0  501 -0.00000000000E+00 -0.00000000000E+00 -0.51455991880E+03  0.51455991880E+03  0.00000000000E+00 0.  1.
         23    2    1    2    0    0 -0.21836809985E+03 -0.12563475266E+03 -0.33013377521E+03  0.42734401635E+03  0.10082599200E+03 0.  0.
        254    2    1    2    0    0  0.21836809985E+03  0.12563475266E+03  0.16107178253E+04  0.18823598714E+04  0.94095592586E+03 0.  0.
        -24    2    4    4    0    0  0.46836785641E+03 -0.65771538787E+02  0.14343411481E+04  0.15124259244E+04  0.80020643874E+02 0.  0.
         24    2    4    4    0    0 -0.24999975656E+03  0.19140629145E+03  0.17637667725E+03  0.36993394699E+03  0.81278202323E+02 0.  0.
         11    1    3    3    0    0  0.11027719159E+02 -0.60288509447E+01 -0.17631032725E+02  0.21652042595E+02  0.00000000000E+00 0. -1.
        -11    1    3    3    0    0 -0.22939581901E+03 -0.11960590171E+03 -0.31250274249E+03  0.40569197375E+03  0.00000000000E+00 0.  1.
          4    1    6    6  502    0 -0.94844244869E+02  0.11956970256E+03  0.65030559544E+02  0.16589550395E+03  0.00000000000E+00 0. -1.
          1    1    5    5  503    0 -0.50654704183E+00  0.53925163245E+01  0.17885756239E+02  0.18687859654E+02  0.00000000000E+00 0. -1.
         -2    1    5    5    0  503  0.46887440345E+03 -0.71164055111E+02  0.14164553918E+04  0.14937380647E+04  0.00000000000E+00 0.  1.
         -3    1    6    6    0  502 -0.15515551169E+03  0.71836588881E+02  0.11134611770E+03  0.20403844304E+03  0.00000000000E+00 0.  1.
<mgrwt>
<rscale>  0 0.19221958E+04</rscale>
<asrwt>0</asrwt>
<pdfrwt beam="1">  1        2 0.27617599E+00 0.19221958E+04</pdfrwt>
<pdfrwt beam="2">  1       -2 0.79163065E-01 0.19221958E+04</pdfrwt>
<totfact> 0.11488084E+01</totfact>
</mgrwt>
</event>
<event>
12    1  0.1504874E-007  0.1336115E+04  0.7818608E-02  0.9001406E-01
         -2   -1    0    0    0  501 -0.00000000000E+00  0.00000000000E+00  0.23035671503E+03  0.23035671503E+03  0.00000000000E+00 0.  1.
          2   -1    0    0  501    0  0.00000000000E+00 -0.00000000000E+00 -0.19374322690E+04  0.19374322690E+04  0.00000000000E+00 0. -1.
         23    2    1    2    0    0  0.11404369656E+03  0.18553472017E+03 -0.17188377375E+02  0.23962684011E+03  0.98470732039E+02 0.  0.
        254    2    1    2    0    0 -0.11404369656E+03 -0.18553472017E+03 -0.16898871766E+04  0.19281621439E+04  0.90258599951E+03 0.  0.
        -24    2    4    4    0    0 -0.47339011455E+03 -0.20074700614E+02 -0.12095539747E+04  0.13015693538E+04  0.80998585656E+02 0.  0.
         24    2    4    4    0    0  0.35934641798E+03 -0.16546001956E+03 -0.48033320181E+03  0.62659279005E+03  0.73428016383E+02 0.  0.
         11    1    3    3    0    0  0.10974194997E+02  0.37228714002E+02  0.34331572061E+02  0.51817631577E+02  0.00000000000E+00 0. -1.
        -11    1    3    3    0    0  0.10306950157E+03  0.14830600617E+03 -0.51519949436E+02  0.18780920853E+03  0.00000000000E+00 0.  1.
          2    1    6    6  502    0  0.57695789393E+02 -0.22931586720E+02 -0.38899752269E+02  0.73265629799E+02  0.00000000000E+00 0. -1.
          1    1    5    5  503    0 -0.77646245788E+02  0.22262026891E+02 -0.16367501783E+03  0.18252136529E+03  0.00000000000E+00 0. -1.
         -2    1    5    5    0  503 -0.39574386876E+03 -0.42336727505E+02 -0.10458789569E+04  0.11190479885E+04  0.00000000000E+00 0.  1.
         -1    1    6    6    0  502  0.30165062859E+03 -0.14252843284E+03 -0.44143344955E+03  0.55332716025E+03  0.00000000000E+00 0.  1.
<mgrwt>
<rscale>  0 0.13361146E+04</rscale>
<asrwt>0</asrwt>
<pdfrwt beam="1">  1        2 0.29806650E+00 0.13361146E+04</pdfrwt>
<pdfrwt beam="2">  1       -2 0.35439495E-01 0.13361146E+04</pdfrwt>
<totfact> 0.52963006E+01</totfact>
</mgrwt>
</event>
<event>
12    1  0.1504874E-007  0.2031969E+04  0.7818608E-02  0.8591818E-01
          1   -1    0    0  501    0  0.00000000000E+00  0.00000000000E+00  0.23724582510E+04  0.23724582510E+04  0.00000000000E+00 0. -1.
         -1   -1    0    0    0  501 -0.00000000000E+00 -0.00000000000E+00 -0.43508632785E+03  0.43508632785E+03  0.00000000000E+00 0.  1.
         23    2    1    2    0    0  0.72530417016E+03 -0.73474463028E+02  0.11906697561E+04  0.13990836632E+04  0.90972481526E+02 0.  0.
        254    2    1    2    0    0 -0.72530417016E+03  0.73474463028E+02  0.74670216697E+03  0.14084609156E+04  0.94590347749E+03 0.  0.
        -24    2    4    4    0    0 -0.48666786929E+03 -0.76278518012E+02 -0.10334775083E+03  0.50941689939E+03  0.78490715865E+02 0.  0.
         24    2    4    4    0    0 -0.23863630088E+03  0.14975298104E+03  0.85004991780E+03  0.89904401624E+03  0.79511263112E+02 0.  0.
         11    1    3    3    0    0  0.61134087874E+03 -0.66763316234E+02  0.10608122150E+04  0.12261800707E+04  0.00000000000E+00 0. -1.
        -11    1    3    3    0    0  0.11396329143E+03 -0.67111467946E+01  0.12985754120E+03  0.17290359247E+03  0.00000000000E+00 0.  1.
          4    1    6    6  502    0 -0.15181574598E+03  0.11919979288E+03  0.47179052471E+03  0.50974788921E+03  0.00000000000E+00 0. -1.
          3    1    5    5  503    0 -0.45585120713E+03 -0.72567752866E+02 -0.11592633606E+03  0.47592574756E+03  0.00000000000E+00 0. -1.
         -4    1    5    5    0  503 -0.30816662156E+02 -0.37107651456E+01  0.12578585233E+02  0.33491151829E+02  0.00000000000E+00 0.  1.
         -3    1    6    6    0  502 -0.86820554895E+02  0.30553188162E+02  0.37825939310E+03  0.38929612703E+03  0.00000000000E+00 0.  1.
<mgrwt>
<rscale>  0 0.20319686E+04</rscale>
<asrwt>0</asrwt>
<pdfrwt beam="1">  1        1 0.36499357E+00 0.20319686E+04</pdfrwt>
<pdfrwt beam="2">  1       -1 0.66936360E-01 0.20319686E+04</pdfrwt>
<totfact> 0.34721984E+00</totfact>
</mgrwt>
</event>
<event>
12    1  0.1504874E-007  0.1741196E+04  0.7818608E-02  0.8738211E-01
         -1   -1    0    0    0  501 -0.00000000000E+00  0.00000000000E+00  0.37945258510E+03  0.37945258510E+03  0.00000000000E+00 0.  1.
          1   -1    0    0  501    0  0.00000000000E+00 -0.00000000000E+00 -0.19974584596E+04  0.19974584596E+04  0.00000000000E+00 0. -1.
         23    2    1    2    0    0  0.71132056475E+02 -0.17125255215E+03 -0.13618342346E+04  0.13784937354E+04  0.10613806949E+03 0.  0.
        254    2    1    2    0    0 -0.71132056475E+02  0.17125255215E+03 -0.25617163994E+03  0.99841730939E+03  0.94700898016E+03 0.  0.
        -24    2    4    4    0    0 -0.43854776746E+02  0.34346713185E+03 -0.54560396967E+03  0.65126170411E+03  0.81025942843E+02 0.  0.
         24    2    4    4    0    0 -0.27277279729E+02 -0.17221457970E+03  0.28943232974E+03  0.34715560528E+03  0.79649415141E+02 0.  0.
         11    1    3    3    0    0  0.25271766910E+02 -0.15463385791E+03 -0.11748317795E+04  0.11852341551E+04  0.00000000000E+00 0. -1.
        -11    1    3    3    0    0  0.45860289565E+02 -0.16618694234E+02 -0.18700245507E+03  0.19325958025E+03  0.00000000000E+00 0.  1.
          4    1    6    6  502    0 -0.52383028528E+02 -0.12346428203E+03  0.17708877558E+03  0.22214374863E+03  0.00000000000E+00 0. -1.
          1    1    5    5  503    0 -0.10823078965E+02  0.25414255478E+03 -0.33955342884E+03  0.42426655327E+03  0.00000000000E+00 0. -1.
         -2    1    5    5    0  503 -0.33031697781E+02  0.89324577070E+02 -0.20605054083E+03  0.22699515084E+03  0.00000000000E+00 0.  1.
         -3    1    6    6    0  502  0.25105748799E+02 -0.48750297668E+02  0.11234355415E+03  0.12501185666E+03  0.00000000000E+00 0.  1.
<mgrwt>
<rscale>  0 0.17411959E+04</rscale>
<asrwt>0</asrwt>
<pdfrwt beam="1">  1        1 0.30730131E+00 0.17411959E+04</pdfrwt>
<pdfrwt beam="2">  1       -1 0.58377319E-01 0.17411959E+04</pdfrwt>
<totfact> 0.84378626E+00</totfact>
</mgrwt>
</event>
<event>
12    1  0.1504874E-007  0.1148685E+04  0.7818608E-02  0.9158998E-01
         -1   -1    0    0    0  501 -0.00000000000E+00  0.00000000000E+00  0.15806145076E+03  0.15806145076E+03  0.00000000000E+00 0.  1.
          1   -1    0    0  501    0  0.00000000000E+00 -0.00000000000E+00 -0.20869671767E+04  0.20869671767E+04  0.00000000000E+00 0. -1.
         23    2    1    2    0    0  0.46228334084E+02 -0.20327274724E+03 -0.33881922098E+03  0.40821734301E+03  0.91575466068E+02 0.  0.
        254    2    1    2    0    0 -0.46228334084E+02  0.20327274724E+03 -0.15900865050E+04  0.18368112845E+04  0.89556894362E+03 0.  0.
        -24    2    4    4    0    0  0.23304346680E+03  0.35689651822E+03 -0.13818289798E+04  0.14481671134E+04  0.77796379519E+02 0.  0.
         24    2    4    4    0    0 -0.27927180088E+03 -0.15362377097E+03 -0.20825752516E+03  0.38864417109E+03  0.77974952122E+02 0.  0.
         13    1    3    3    0    0 -0.21474659806E+02 -0.13625394512E+02 -0.50448669230E+02  0.56496731024E+02  0.00000000000E+00 0. -1.
        -13    1    3    3    0    0  0.67702993890E+02 -0.18964735273E+03 -0.28837055175E+03  0.35172061199E+03  0.00000000000E+00 0.  1.
          4    1    6    6  502    0 -0.98631845419E+02 -0.83818726396E+02 -0.11733648027E+03  0.17470452034E+03  0.00000000000E+00 0. -1.
          1    1    5    5  503    0  0.89873661665E+02  0.20698361252E+03 -0.69164669677E+03  0.72752638719E+03  0.00000000000E+00 0. -1.
         -2    1    5    5    0  503  0.14316980513E+03  0.14991290569E+03 -0.69018228305E+03  0.72064072618E+03  0.00000000000E+00 0.  1.
         -3    1    6    6    0  502 -0.18063995546E+03 -0.69805044578E+02 -0.90921044895E+02  0.21393965075E+03  0.00000000000E+00 0.  1.
<mgrwt>
<rscale>  0 0.11486846E+04</rscale>
<asrwt>0</asrwt>
<pdfrwt beam="1">  1        1 0.32107188E+00 0.11486846E+04</pdfrwt>
<pdfrwt beam="2">  1       -1 0.24317146E-01 0.11486846E+04</pdfrwt>
<totfact> 0.38064685E+01</totfact>
</mgrwt>
</event>
<event>
12    1  0.1504874E-007  0.1452453E+04  0.7818608E-02  0.8916702E-01
         -1   -1    0    0    0  501 -0.00000000000E+00  0.00000000000E+00  0.61841267755E+03  0.61841267755E+03  0.00000000000E+00 0.  1.
          1   -1    0    0  501    0  0.00000000000E+00 -0.00000000000E+00 -0.85283667922E+03  0.85283667922E+03  0.00000000000E+00 0. -1.
         23    2    1    2    0    0 -0.37705167449E+03  0.16721490926E+03  0.10493720975E+03  0.43523471957E+03  0.91042034288E+02 0.  0.
        254    2    1    2    0    0  0.37705167449E+03 -0.16721490926E+03 -0.33936121142E+03  0.10360146372E+04  0.88771138642E+03 0.  0.
        -24    2    4    4    0    0  0.14014154549E+03 -0.52092751476E+03 -0.20035634519E+03  0.58132012852E+03  0.82372922492E+02 0.  0.
         24    2    4    4    0    0  0.23691012900E+03  0.35371260550E+03 -0.13900486623E+03  0.45469450868E+03  0.78649392100E+02 0.  0.
         11    1    3    3    0    0 -0.33848398408E+03  0.13679794645E+03  0.62646276018E+02  0.37041819816E+03  0.00000000000E+00 0.  1.
        -11    1    3    3    0    0 -0.38567690414E+02  0.30416962817E+02  0.42290933735E+02  0.64816521405E+02  0.00000000000E+00 0. -1.
          4    1    6    6  502    0  0.20403959989E+03  0.32909151037E+03 -0.14442387583E+03  0.41326944773E+03  0.00000000000E+00 0. -1.
          1    1    5    5  503    0  0.54520865998E+02 -0.85519809071E+02 -0.27378184904E+02  0.10505107130E+03  0.00000000000E+00 0. -1.
         -2    1    5    5    0  503  0.85620679490E+02 -0.43540770569E+03 -0.17297816029E+03  0.47626905722E+03  0.00000000000E+00 0.  1.
         -3    1    6    6    0  502  0.32870529116E+02  0.24621095135E+02  0.54190096013E+01  0.41425060955E+02  0.00000000000E+00 0.  1.
<mgrwt>
<rscale>  0 0.14524531E+04</rscale>
<asrwt>0</asrwt>
<pdfrwt beam="1">  1        1 0.13120564E+00 0.14524531E+04</pdfrwt>
<pdfrwt beam="2">  1       -1 0.95140412E-01 0.14524531E+04</pdfrwt>
<totfact> 0.20648242E+01</totfact>
</mgrwt>
</event>
<event>
12    1  0.1504874E-007  0.2006167E+04  0.7818608E-02  0.8603743E-01
         -1   -1    0    0    0  501 -0.00000000000E+00  0.00000000000E+00  0.11290671831E+04  0.11290671831E+04  0.00000000000E+00 0.  1.
          1   -1    0    0  501    0  0.00000000000E+00 -0.00000000000E+00 -0.89115716537E+03  0.89115716537E+03  0.00000000000E+00 0. -1.
         23    2    1    2    0    0 -0.18105125724E+03 -0.77471433180E+03  0.76504201307E+01  0.80096846082E+03  0.92358500724E+02 0.  0.
        254    2    1    2    0    0  0.18105125724E+03  0.77471433180E+03  0.23025959755E+03  0.12192558876E+04  0.89476454085E+03 0.  0.
        -24    2    4    4    0    0 -0.21135830050E+03  0.85797833925E+02 -0.20006873884E+03  0.31370830197E+03  0.79698174197E+02 0.  0.
         24    2    4    4    0    0  0.39240955774E+03  0.68891649788E+03  0.43032833639E+03  0.90554758563E+03  0.79011079594E+02 0.  0.
         11    1    3    3    0    0 -0.77946363748E+02 -0.38524889942E+03  0.48431276255E+02  0.39602769934E+03  0.00000000000E+00 0.  1.
        -11    1    3    3    0    0 -0.10310489349E+03 -0.38946543238E+03 -0.40780856124E+02  0.40494076148E+03  0.00000000000E+00 0. -1.
          2    1    6    6  502    0  0.22017855157E+03  0.30805714594E+03  0.21239067225E+03  0.43415158343E+03  0.00000000000E+00 0. -1.
          1    1    5    5  503    0 -0.12460229728E+03  0.54976517052E+02 -0.66701252141E+02  0.15164830020E+03  0.00000000000E+00 0. -1.
         -2    1    5    5    0  503 -0.86756003216E+02  0.30821316873E+02 -0.13336748670E+03  0.16206000178E+03  0.00000000000E+00 0.  1.
         -1    1    6    6    0  502  0.17223100617E+03  0.38085935194E+03  0.21793766413E+03  0.47139600220E+03  0.00000000000E+00 0.  1.
<mgrwt>
<rscale>  0 0.20061668E+04</rscale>
<asrwt>0</asrwt>
<pdfrwt beam="1">  1        1 0.13710110E+00 0.20061668E+04</pdfrwt>
<pdfrwt beam="2">  1       -1 0.17370265E+00 0.20061668E+04</pdfrwt>
<totfact> 0.39659986E+00</totfact>
</mgrwt>
</event>
<event>
12    1  0.1504874E-007  0.1471795E+04  0.7818608E-02  0.8903428E-01
          2   -1    0    0  501    0  0.00000000000E+00  0.00000000000E+00  0.17364657360E+04  0.17364657360E+04  0.00000000000E+00 0. -1.
         -2   -1    0    0    0  501 -0.00000000000E+00 -0.00000000000E+00 -0.31186643349E+03  0.31186643349E+03  0.00000000000E+00 0.  1.
         23    2    1    2    0    0 -0.29391044825E+03  0.31658608166E+03  0.28337962766E+03  0.52415278723E+03  0.88442254007E+02 0.  0.
        254    2    1    2    0    0  0.29391044825E+03 -0.31658608166E+03  0.11412196749E+04  0.15241793823E+04  0.91330736577E+03 0.  0.
        -24    2    4    4    0    0  0.28079327095E+03  0.27895283553E+03  0.53731150329E+03  0.67206118256E+03  0.79391662512E+02 0.  0.
         24    2    4    4    0    0  0.13117177298E+02 -0.59553891718E+03  0.60390817158E+03  0.85211819972E+03  0.81004224437E+02 0.  0.
         11    1    3    3    0    0 -0.98684168188E+02  0.96503424435E+02  0.14101381157E+03  0.19732301192E+03  0.00000000000E+00 0. -1.
        -11    1    3    3    0    0 -0.19522628006E+03  0.22008265722E+03  0.14236581609E+03  0.32682977531E+03  0.00000000000E+00 0.  1.
          4    1    6    6  502    0 -0.29369789858E+02 -0.37707651835E+03  0.39494357230E+03  0.54683609112E+03  0.00000000000E+00 0. -1.
          3    1    5    5  503    0  0.24077220635E+03  0.21934029176E+03  0.48059188599E+03  0.58056005703E+03  0.00000000000E+00 0. -1.
         -4    1    5    5    0  503  0.40021064601E+02  0.59612543770E+02  0.56719617295E+02  0.91501125526E+02  0.00000000000E+00 0.  1.
         -3    1    6    6    0  502  0.42486967156E+02 -0.21846239883E+03  0.20896459928E+03  0.30528210861E+03  0.00000000000E+00 0.  1.
<mgrwt>
<rscale>  0 0.14717953E+04</rscale>
<asrwt>0</asrwt>
<pdfrwt beam="1">  1        2 0.26714857E+00 0.14717953E+04</pdfrwt>
<pdfrwt beam="2">  1       -2 0.47979452E-01 0.14717953E+04</pdfrwt>
<totfact> 0.37292403E+01</totfact>
</mgrwt>
</event>
<event>
12    1  0.1504874E-007  0.1537496E+04  0.7818608E-02  0.8859895E-01
          2   -1    0    0  501    0  0.00000000000E+00  0.00000000000E+00  0.18285671533E+04  0.18285671533E+04  0.00000000000E+00 0. -1.
         -2   -1    0    0    0  501 -0.00000000000E+00 -0.00000000000E+00 -0.32318917368E+03  0.32318917368E+03  0.00000000000E+00 0.  1.
         23    2    1    2    0    0  0.19307635074E+03  0.35107320106E+02 -0.14562783440E+03  0.26069053990E+03  0.90780451089E+02 0.  0.
        254    2    1    2    0    0 -0.19307635074E+03 -0.35107320106E+02  0.16510058140E+04  0.18910657871E+04  0.90099867482E+03 0.  0.
        -24    2    4    4    0    0  0.31536254371E+03 -0.19841079014E+03  0.72658172055E+03  0.82048667335E+03  0.80355515658E+02 0.  0.
         24    2    4    4    0    0 -0.50843889444E+03  0.16330347003E+03  0.92442409347E+03  0.10705791137E+04  0.80010008560E+02 0.  0.
         11    1    3    3    0    0  0.69049732540E+02 -0.39591177162E+00 -0.40771271141E+01  0.69171130362E+02  0.00000000000E+00 0. -1.
        -11    1    3    3    0    0  0.12402661820E+03  0.35503231878E+02 -0.14155070728E+03  0.19151940953E+03  0.00000000000E+00 0.  1.
          4    1    6    6  502    0 -0.35128365671E+03  0.13563776010E+03  0.58820504485E+03  0.69841462200E+03  0.00000000000E+00 0. -1.
          3    1    5    5  503    0  0.27879567492E+03 -0.20081222678E+03  0.63826133426E+03  0.72486558036E+03  0.00000000000E+00 0. -1.
         -2    1    5    5    0  503  0.36566868788E+02  0.24014366445E+01  0.88320386286E+02  0.95621092990E+02  0.00000000000E+00 0.  1.
         -3    1    6    6    0  502 -0.15715523773E+03  0.27665709933E+02  0.33621904862E+03  0.37216449174E+03  0.00000000000E+00 0.  1.
<mgrwt>
<rscale>  0 0.15374955E+04</rscale>
<asrwt>0</asrwt>
<pdfrwt beam="1">  1        2 0.28131802E+00 0.15374955E+04</pdfrwt>
<pdfrwt beam="2">  1       -2 0.49721412E-01 0.15374955E+04</pdfrwt>
<totfact> 0.30680608E+01</totfact>
</mgrwt>
</event>
<event>
12    1  0.1504874E-007  0.2083584E+04  0.7818608E-02  0.8568510E-01
          1   -1    0    0  501    0  0.00000000000E+00  0.00000000000E+00  0.33291939288E+04  0.33291939288E+04  0.00000000000E+00 0. -1.
         -1   -1    0    0    0  501 -0.00000000000E+00 -0.00000000000E+00 -0.32600385961E+03  0.32600385961E+03  0.00000000000E+00 0.  1.
         23    2    1    2    0    0 -0.60301942207E+03  0.34651428150E+03  0.20809961131E+04  0.21962659385E+04  0.96616143246E+02 0.  0.
        254    2    1    2    0    0  0.60301942207E+03 -0.34651428150E+03  0.92219395608E+03  0.14589318499E+04  0.89125522685E+03 0.  0.
        -24    2    4    4    0    0  0.54392460374E+03 -0.57864160678E+03  0.90410500563E+03  0.12059998216E+04  0.79684533282E+02 0.  0.
         24    2    4    4    0    0  0.59094818333E+02  0.23212732527E+03  0.18088950457E+02  0.25293202832E+03  0.79196642166E+02 0.  0.
         11    1    3    3    0    0 -0.87956112769E+02  0.49676208583E+02  0.42368794113E+03  0.43556339944E+03  0.00000000000E+00 0.  1.
        -11    1    3    3    0    0 -0.51506330931E+03  0.29683807292E+03  0.16573081719E+04  0.17607025390E+04  0.00000000000E+00 0. -1.
          4    1    6    6  502    0  0.93945592934E+01  0.19304622897E+02 -0.21996759765E+02  0.30737333158E+02  0.00000000000E+00 0. -1.
          1    1    5    5  503    0  0.63181784380E+01 -0.95756928248E+01  0.32373215879E+02  0.34345864063E+02  0.00000000000E+00 0. -1.
         -2    1    5    5    0  503  0.53760642530E+03 -0.56906591395E+03  0.87173178975E+03  0.11716539575E+04  0.00000000000E+00 0.  1.
         -3    1    6    6    0  502  0.49700259040E+02  0.21282270237E+03  0.40085710222E+02  0.22219469516E+03  0.00000000000E+00 0.  1.
<mgrwt>
<rscale>  0 0.20835835E+04</rscale>
<asrwt>0</asrwt>
<pdfrwt beam="1">  1        1 0.51218366E+00 0.20835835E+04</pdfrwt>
<pdfrwt beam="2">  1       -1 0.50154442E-01 0.20835835E+04</pdfrwt>
<totfact> 0.12502233E+00</totfact>
</mgrwt>
</event>
<event>
12    1  0.1504874E-007  0.1493611E+04  0.7818608E-02  0.8888712E-01
          1   -1    0    0  501    0  0.00000000000E+00  0.00000000000E+00  0.39687292845E+03  0.39687292845E+03  0.00000000000E+00 0. -1.
         -1   -1    0    0    0  501 -0.00000000000E+00 -0.00000000000E+00 -0.14052830208E+04  0.14052830208E+04  0.00000000000E+00 0.  1.
         23    2    1    2    0    0  0.20367250178E+03 -0.35382784094E+03 -0.53223845553E+03  0.67699297086E+03  0.91460811488E+02 0.  0.
        254    2    1    2    0    0 -0.20367250178E+03  0.35382784094E+03 -0.47617163681E+03  0.11251629784E+04  0.93411758961E+03 0.  0.
        -24    2    4    4    0    0 -0.31069999457E+03  0.63306707201E+03 -0.34596589024E+03  0.78974489154E+03  0.81830264706E+02 0.  0.
         24    2    4    4    0    0  0.10702749279E+03 -0.27923923106E+03 -0.13020574657E+03  0.33541808685E+03  0.78245282058E+02 0.  0.
         11    1    3    3    0    0  0.18331699932E+00 -0.34959478014E+01 -0.36922781463E+02  0.37088368083E+02  0.00000000000E+00 0. -1.
        -11    1    3    3    0    0  0.20348918478E+03 -0.35033189314E+03 -0.49531567406E+03  0.63990460277E+03  0.00000000000E+00 0.  1.
          4    1    6    6  502    0  0.64721125205E+02 -0.17082499746E+03 -0.12006818360E+03  0.21860094354E+03  0.00000000000E+00 0. -1.
          1    1    5    5  503    0 -0.14053461695E+03  0.20957009153E+03 -0.10136986635E+03  0.27192912979E+03  0.00000000000E+00 0. -1.
         -2    1    5    5    0  503 -0.17016537762E+03  0.42349698048E+03 -0.24459602389E+03  0.51781576175E+03  0.00000000000E+00 0.  1.
         -3    1    6    6    0  502  0.42306367587E+02 -0.10841423360E+03 -0.10137562973E+02  0.11681714330E+03  0.00000000000E+00 0.  1.
<mgrwt>
<rscale>  0 0.14936114E+04</rscale>
<asrwt>0</asrwt>
<pdfrwt beam="1">  1        1 0.61057373E-01 0.14936114E+04</pdfrwt>
<pdfrwt beam="2">  1       -1 0.21619739E+00 0.14936114E+04</pdfrwt>
<totfact> 0.68489704E+00</totfact>
</mgrwt>
</event>
<event>
12    1  0.1504874E-007  0.1334100E+04  0.7818608E-02  0.9002952E-01
          1   -1    0    0  501    0  0.00000000000E+00  0.00000000000E+00  0.52910159922E+03  0.52910159922E+03  0.00000000000E+00 0. -1.
         -1   -1    0    0    0  501 -0.00000000000E+00 -0.00000000000E+00 -0.84096425062E+03  0.84096425062E+03  0.00000000000E+00 0.  1.
         23    2    1    2    0    0 -0.57835357155E+02 -0.18328806353E+03  0.21478412790E+03  0.30259738973E+03  0.92160272934E+02 0.  0.
        254    2    1    2    0    0  0.57835357155E+02  0.18328806353E+03 -0.52664677929E+03  0.10674684601E+04  0.90840114510E+03 0.  0.
        -24    2    4    4    0    0  0.16941705843E+03  0.45933994241E+03 -0.47905719955E+02  0.49840998765E+03  0.80138850792E+02 0.  0.
         24    2    4    4    0    0 -0.11158170127E+03 -0.27605187888E+03 -0.47874105934E+03  0.56905847245E+03  0.77326756588E+02 0.  0.
         11    1    3    3    0    0 -0.67721812486E+02 -0.99829489091E+02  0.83480665487E+02  0.14670103029E+03  0.00000000000E+00 0.  1.
        -11    1    3    3    0    0  0.98864553309E+01 -0.83458574442E+02  0.13130346241E+03  0.15589635944E+03  0.00000000000E+00 0. -1.
          2    1    6    6  502    0 -0.39993544035E+02 -0.18884322261E+03 -0.33082168989E+03  0.38301989085E+03  0.00000000000E+00 0. -1.
          1    1    5    5  503    0  0.17163084205E+03  0.44121620347E+03 -0.58938350308E+02  0.47707715653E+03  0.00000000000E+00 0. -1.
         -2    1    5    5    0  503 -0.22137836200E+01  0.18123738940E+02  0.11032630353E+02  0.21332831120E+02  0.00000000000E+00 0.  1.
         -1    1    6    6    0  502 -0.71588157239E+02 -0.87208656273E+02 -0.14791936945E+03  0.18603858160E+03  0.00000000000E+00 0.  1.
<mgrwt>
<rscale>  0 0.13340997E+04</rscale>
<asrwt>0</asrwt>
<pdfrwt beam="1">  1        1 0.81400246E-01 0.13340997E+04</pdfrwt>
<pdfrwt beam="2">  1       -1 0.12937912E+00 0.13340997E+04</pdfrwt>
<totfact> 0.20613953E+01</totfact>
</mgrwt>
</event>
<event>
12    1  0.1504874E-007  0.1192057E+04  0.7818608E-02  0.9119837E-01
         -2   -1    0    0    0  501 -0.00000000000E+00  0.00000000000E+00  0.28396420861E+04  0.28396420861E+04  0.00000000000E+00 0.  1.
          2   -1    0    0  501    0  0.00000000000E+00 -0.00000000000E+00 -0.12510382413E+03  0.12510382413E+03  0.00000000000E+00 0. -1.
         23    2    1    2    0    0  0.11393492760E+03 -0.16847902320E+03  0.92611120879E+03  0.95257100064E+03  0.91341070785E+02 0.  0.
        254    2    1    2    0    0 -0.11393492760E+03  0.16847902320E+03  0.17884270532E+04  0.20121749096E+04  0.89944993930E+03 0.  0.
        -24    2    4    4    0    0 -0.24408208047E+03 -0.20429500169E+03  0.22535691360E+03  0.39796123674E+03  0.79214252009E+02 0.  0.
         24    2    4    4    0    0  0.13014715287E+03  0.37277402489E+03  0.15630701396E+04  0.16142136728E+04  0.81232785171E+02 0.  0.
         13    1    3    3    0    0  0.43031810006E+02 -0.16796613764E+02  0.10738398132E+03  0.11689817086E+03  0.00000000000E+00 0. -1.
        -13    1    3    3    0    0  0.70903117591E+02 -0.15168240944E+03  0.81872722748E+03  0.83567282978E+03  0.00000000000E+00 0.  1.
          2    1    6    6  502    0  0.81668967836E+02  0.14947903100E+03  0.55391394445E+03  0.57951225946E+03  0.00000000000E+00 0. -1.
          3    1    5    5  503    0 -0.10320275077E+03 -0.10866911491E+03  0.62592716618E+02  0.16241192221E+03  0.00000000000E+00 0. -1.
         -4    1    5    5    0  503 -0.14087932969E+03 -0.95625886778E+02  0.16276419698E+03  0.23554931453E+03  0.00000000000E+00 0.  1.
         -1    1    6    6    0  502  0.48478185032E+02  0.22329499389E+03  0.10091561951E+04  0.10347014134E+04  0.00000000000E+00 0.  1.
<mgrwt>
<rscale>  0 0.11920572E+04</rscale>
<asrwt>0</asrwt>
<pdfrwt beam="1">  1        2 0.19246744E-01 0.11920572E+04</pdfrwt>
<pdfrwt beam="2">  1       -2 0.43686797E+00 0.11920572E+04</pdfrwt>
<totfact> 0.12723951E+00</totfact>
</mgrwt>
</event>
<event>
12    1  0.1504874E-007  0.1502808E+04  0.7818608E-02  0.8882588E-01
         -2   -1    0    0    0  501 -0.00000000000E+00  0.00000000000E+00  0.43818809736E+03  0.43818809736E+03  0.00000000000E+00 0.  1.
          2   -1    0    0  501    0  0.00000000000E+00 -0.00000000000E+00 -0.12885058581E+04  0.12885058581E+04  0.00000000000E+00 0. -1.
         23    2    1    2    0    0 -0.27274701435E+03  0.20843827822E+03  0.67984650121E+02  0.36323837255E+03  0.97379427906E+02 0.  0.
        254    2    1    2    0    0  0.27274701435E+03 -0.20843827822E+03 -0.91830241085E+03  0.13634555829E+04  0.94757287799E+03 0.  0.
        -24    2    4    4    0    0  0.26380915588E+03 -0.56953348938E+03 -0.51176883300E+03  0.81364760909E+03  0.78431033988E+02 0.  0.
         24    2    4    4    0    0  0.89378584721E+01  0.36109521116E+03 -0.40653357785E+03  0.54980797382E+03  0.80929730718E+02 0.  0.
         13    1    3    3    0    0 -0.27091097354E+01  0.28580643310E+01  0.20109021738E+02  0.20490987349E+02  0.00000000000E+00 0. -1.
        -13    1    3    3    0    0 -0.27003790462E+03  0.20558021389E+03  0.47875628383E+02  0.34274738520E+03  0.00000000000E+00 0.  1.
          4    1    6    6  502    0  0.35486975361E+02  0.87572742318E+02 -0.12086826080E+03  0.15341918748E+03  0.00000000000E+00 0. -1.
          3    1    5    5  503    0  0.17651853394E+03 -0.29333853350E+03 -0.29380316022E+03  0.45113920803E+03  0.00000000000E+00 0. -1.
         -4    1    5    5    0  503  0.87290621938E+02 -0.27619495587E+03 -0.21796567278E+03  0.36250840106E+03  0.00000000000E+00 0.  1.
         -3    1    6    6    0  502 -0.26549116889E+02  0.27352246884E+03 -0.28566531705E+03  0.39638878634E+03  0.00000000000E+00 0.  1.
<mgrwt>
<rscale>  0 0.15028079E+04</rscale>
<asrwt>0</asrwt>
<pdfrwt beam="1">  1        2 0.19823167E+00 0.15028079E+04</pdfrwt>
<pdfrwt beam="2">  1       -2 0.67413554E-01 0.15028079E+04</pdfrwt>
<totfact> 0.32724875E+01</totfact>
</mgrwt>
</event>
<event>
12    1  0.1504874E-007  0.1497442E+04  0.7818608E-02  0.8886156E-01
          1   -1    0    0  501    0  0.00000000000E+00  0.00000000000E+00  0.65237076504E+03  0.65237076504E+03  0.00000000000E+00 0. -1.
         -1   -1    0    0    0  501 -0.00000000000E+00 -0.00000000000E+00 -0.85930129833E+03  0.85930129833E+03  0.00000000000E+00 0.  1.
         23    2    1    2    0    0  0.33712822262E+03  0.18092661712E+03 -0.33698907117E+03  0.51797197041E+03  0.91342480607E+02 0.  0.
        254    2    1    2    0    0 -0.33712822262E+03 -0.18092661712E+03  0.13005853788E+03  0.99370009297E+03  0.90781868906E+03 0.  0.
        -24    2    4    4    0    0 -0.37099955024E+03  0.90421867727E+02 -0.28997048186E+03  0.48623999186E+03  0.80806366639E+02 0.  0.
         24    2    4    4    0    0  0.33871327613E+02 -0.27134848485E+03  0.42002901974E+03  0.50746010111E+03  0.79461372562E+02 0.  0.
         13    1    3    3    0    0  0.16537553865E+03  0.37988753786E+02 -0.13673929783E+03  0.21792165970E+03  0.00000000000E+00 0. -1.
        -13    1    3    3    0    0  0.17175268398E+03  0.14293786334E+03 -0.20024977335E+03  0.30005031070E+03  0.00000000000E+00 0.  1.
          4    1    6    6  502    0  0.48999414832E+02 -0.11091058515E+03  0.14853228950E+03  0.19173925414E+03  0.00000000000E+00 0. -1.
          3    1    5    5  503    0 -0.23203746135E+03  0.62586235772E+02 -0.13269027574E+03  0.27452710186E+03  0.00000000000E+00 0. -1.
         -4    1    5    5    0  503 -0.13896208888E+03  0.27835631954E+02 -0.15728020612E+03  0.21171288999E+03  0.00000000000E+00 0.  1.
         -3    1    6    6    0  502 -0.15128087220E+02 -0.16043789970E+03  0.27149673024E+03  0.31572084697E+03  0.00000000000E+00 0.  1.
<mgrwt>
<rscale>  0 0.14974419E+04</rscale>
<asrwt>0</asrwt>
<pdfrwt beam="1">  1        1 0.10036473E+00 0.14974419E+04</pdfrwt>
<pdfrwt beam="2">  1       -1 0.13220020E+00 0.14974419E+04</pdfrwt>
<totfact> 0.14247516E+01</totfact>
</mgrwt>
</event>
<event>
12    1  0.1504874E-007  0.1698166E+04  0.7818608E-02  0.8762411E-01
          2   -1    0    0  501    0  0.00000000000E+00  0.00000000000E+00  0.12762560734E+04  0.12762560734E+04  0.00000000000E+00 0.  1.
         -2   -1    0    0    0  501 -0.00000000000E+00 -0.00000000000E+00 -0.56488811578E+03  0.56488811578E+03  0.00000000000E+00 0. -1.
         23    2    1    2    0    0  0.46955591386E+03 -0.29979563466E+02 -0.15732857709E+03  0.50493663220E+03  0.93953131372E+02 0.  0.
        254    2    1    2    0    0 -0.46955591386E+03  0.29979563466E+02  0.86869653469E+03  0.13362075570E+04  0.89968629836E+03 0.  0.
        -24    2    4    4    0    0 -0.63026391787E+03 -0.19059558942E+03  0.36337894214E+03  0.75630569074E+03  0.79967226920E+02 0.  0.
         24    2    4    4    0    0  0.16070800401E+03  0.22057515289E+03  0.50531759255E+03  0.57990186623E+03  0.80373157796E+02 0.  0.
         13    1    3    3    0    0  0.13294515519E+03 -0.44686628699E+02 -0.70601255728E+02  0.15702180226E+03  0.00000000000E+00 0.  1.
        -13    1    3    3    0    0  0.33661075867E+03  0.14707065233E+02 -0.86727321358E+02  0.34791482994E+03  0.00000000000E+00 0. -1.
          4    1    6    6  502    0  0.31662254077E+02  0.34273349695E+01  0.60229188484E+02  0.68130757398E+02  0.00000000000E+00 0. -1.
          3    1    5    5  503    0 -0.17821727772E+03 -0.66295173312E+02  0.14493837007E+03  0.23908906123E+03  0.00000000000E+00 0. -1.
         -4    1    5    5    0  503 -0.45204664014E+03 -0.12430041611E+03  0.21844057208E+03  0.51721662951E+03  0.00000000000E+00 0.  1.
         -3    1    6    6    0  502  0.12904574993E+03  0.21714781792E+03  0.44508840406E+03  0.51177110883E+03  0.00000000000E+00 0.  1.
<mgrwt>
<rscale>  0 0.16981659E+04</rscale>
<asrwt>0</asrwt>
<pdfrwt beam="1">  1        2 0.19634709E+00 0.16981659E+04</pdfrwt>
<pdfrwt beam="2">  1       -2 0.86905864E-01 0.16981659E+04</pdfrwt>
<totfact> 0.18608159E+01</totfact>
</mgrwt>
</event>
<event>
12    1  0.1504874E-007  0.1976204E+04  0.7818608E-02  0.8617828E-01
          1   -1    0    0  501    0  0.00000000000E+00  0.00000000000E+00  0.10458713822E+04  0.10458713822E+04  0.00000000000E+00 0. -1.
         -1   -1    0    0    0  501 -0.00000000000E+00 -0.00000000000E+00 -0.93352333088E+03  0.93352333088E+03  0.00000000000E+00 0.  1.
         23    2    1    2    0    0 -0.76051564903E+03 -0.12042138250E+03  0.15553742371E+03  0.79072358853E+03  0.90368918950E+02 0.  0.
        254    2    1    2    0    0  0.76051564903E+03  0.12042138250E+03 -0.43189372373E+02  0.11886711246E+04  0.90453764912E+03 0.  0.
        -24    2    4    4    0    0  0.21138089375E+03 -0.93757849702E+02  0.38495905567E+03  0.45626120625E+03  0.80674637684E+02 0.  0.
         24    2    4    4    0    0  0.54913475527E+03  0.21417923220E+03 -0.42814842804E+03  0.73240991830E+03  0.75441958057E+02 0.  0.
         13    1    3    3    0    0 -0.48270539008E+03 -0.78811246125E+02  0.14283763153E+03  0.50952752144E+03  0.00000000000E+00 0. -1.
        -13    1    3    3    0    0 -0.27781025895E+03 -0.41610136372E+02  0.12699792177E+02  0.28119606709E+03  0.00000000000E+00 0.  1.
          2    1    6    6  502    0  0.25111500657E+03  0.61042420180E+02 -0.16834261552E+03  0.30842204815E+03  0.00000000000E+00 0. -1.
          1    1    5    5  503    0 -0.16620493403E+01  0.50729738710E+01  0.31134334266E+02  0.31588672687E+02  0.00000000000E+00 0. -1.
         -2    1    5    5    0  503  0.21304294309E+03 -0.98830823573E+02  0.35382472140E+03  0.42467253356E+03  0.00000000000E+00 0.  1.
         -1    1    6    6    0  502  0.29801974870E+03  0.15313681202E+03 -0.25980581253E+03  0.42398787015E+03  0.00000000000E+00 0.  1.
<mgrwt>
<rscale>  0 0.19762038E+04</rscale>
<asrwt>0</asrwt>
<pdfrwt beam="1">  1        1 0.16090329E+00 0.19762038E+04</pdfrwt>
<pdfrwt beam="2">  1       -1 0.14361897E+00 0.19762038E+04</pdfrwt>
<totfact> 0.50790504E+00</totfact>
</mgrwt>
</event>
<event>
12    1  0.1504874E-007  0.1298017E+04  0.7818608E-02  0.9031139E-01
          2   -1    0    0  501    0  0.00000000000E+00  0.00000000000E+00  0.11982894537E+04  0.11982894537E+04  0.00000000000E+00 0. -1.
         -2   -1    0    0    0  501 -0.00000000000E+00 -0.00000000000E+00 -0.35151129343E+03  0.35151129343E+03  0.00000000000E+00 0.  1.
         23    2    1    2    0    0 -0.20374419585E+02 -0.12138597234E+03  0.49256764423E+03  0.51568097631E+03  0.90301239950E+02 0.  0.
        254    2    1    2    0    0  0.20374419585E+02  0.12138597234E+03  0.35421051607E+03  0.10341197709E+04  0.96373696594E+03 0.  0.
        -24    2    4    4    0    0 -0.33248579918E+03 -0.37160316491E+01  0.51565439107E+03  0.61837359664E+03  0.76979467688E+02 0.  0.
         24    2    4    4    0    0  0.35286021876E+03  0.12510200399E+03 -0.16144387499E+03  0.41574617422E+03  0.81362836871E+02 0.  0.
         13    1    3    3    0    0 -0.42381124247E+02 -0.12316518988E+03  0.40856720249E+03  0.42882745089E+03  0.00000000000E+00 0. -1.
        -13    1    3    3    0    0  0.22006704662E+02  0.17792175446E+01  0.84000441738E+02  0.86853525416E+02  0.00000000000E+00 0.  1.
          4    1    6    6  502    0  0.30054282912E+03  0.12388460402E+03 -0.11221234310E+03  0.34389678276E+03  0.00000000000E+00 0. -1.
          1    1    5    5  503    0 -0.19764377978E+03 -0.17169792545E+02  0.24135094145E+03  0.31242301836E+03  0.00000000000E+00 0. -1.
         -2    1    5    5    0  503 -0.13484201940E+03  0.13453760896E+02  0.27430344961E+03  0.30595057827E+03  0.00000000000E+00 0.  1.
         -3    1    6    6    0  502  0.52317389638E+02  0.12173999711E+01 -0.49231531890E+02  0.71849391462E+02  0.00000000000E+00 0.  1.
<mgrwt>
<rscale>  0 0.12980174E+04</rscale>
<asrwt>0</asrwt>
<pdfrwt beam="1">  1        2 0.18435222E+00 0.12980174E+04</pdfrwt>
<pdfrwt beam="2">  1       -2 0.54078661E-01 0.12980174E+04</pdfrwt>
<totfact> 0.59922736E+01</totfact>
</mgrwt>
</event>
<event>
12    1  0.1504874E-007  0.2258943E+04  0.7818608E-02  0.8494288E-01
          2   -1    0    0  501    0  0.00000000000E+00  0.00000000000E+00  0.48086599404E+04  0.48086599404E+04  0.00000000000E+00 0. -1.
         -2   -1    0    0    0  501 -0.00000000000E+00 -0.00000000000E+00 -0.26529336137E+03  0.26529336137E+03  0.00000000000E+00 0.  1.
         23    2    1    2    0    0  0.57287465168E+02 -0.67191515603E+03  0.33807790549E+04  0.34486221017E+04  0.92604273960E+02 0.  0.
        254    2    1    2    0    0 -0.57287465168E+02  0.67191515603E+03  0.11625875241E+04  0.16253312001E+04  0.91396932562E+03 0.  0.
        -24    2    4    4    0    0 -0.39052937692E+02  0.70362473353E+03  0.12891070820E+04  0.14710070834E+04  0.73836799191E+02 0.  0.
         24    2    4    4    0    0 -0.18234527476E+02 -0.31709577497E+02 -0.12651955786E+03  0.15432411672E+03  0.80440904912E+02 0.  0.
         11    1    3    3    0    0  0.31899803027E+02 -0.48087054267E+03  0.21949169645E+04  0.22472014946E+04  0.00000000000E+00 0.  1.
        -11    1    3    3    0    0  0.25387662141E+02 -0.19104461336E+03  0.11858620904E+04  0.12014206071E+04  0.00000000000E+00 0. -1.
          2    1    6    6  502    0 -0.43056970899E+02 -0.33044757095E+02 -0.11449938436E+03  0.12671214517E+03  0.00000000000E+00 0. -1.
          3    1    5    5  503    0  0.17561446877E+02  0.64120685619E+02  0.11471257636E+03  0.13258522510E+03  0.00000000000E+00 0. -1.
         -4    1    5    5    0  503 -0.56614384569E+02  0.63950404791E+03  0.11743945056E+04  0.13384218583E+04  0.00000000000E+00 0.  1.
         -1    1    6    6    0  502  0.24822443422E+02  0.13351795986E+01 -0.12020173501E+02  0.27611971553E+02  0.00000000000E+00 0.  1.
<mgrwt>
<rscale>  0 0.22589427E+04</rscale>
<asrwt>0</asrwt>
<pdfrwt beam="1">  1        2 0.73979377E+00 0.22589427E+04</pdfrwt>
<pdfrwt beam="2">  1       -2 0.40814367E-01 0.22589427E+04</pdfrwt>
<totfact> 0.30508775E-01</totfact>
</mgrwt>
</event>
<event>
12    1  0.1504874E-007  0.1751699E+04  0.7818608E-02  0.8732416E-01
         -2   -1    0    0    0  501 -0.00000000000E+00  0.00000000000E+00  0.21084340659E+04  0.21084340659E+04  0.00000000000E+00 0.  1.
          2   -1    0    0  501    0  0.00000000000E+00 -0.00000000000E+00 -0.36383023797E+03  0.36383023797E+03  0.00000000000E+00 0. -1.
         23    2    1    2    0    0 -0.23483232176E+03  0.38451718363E+03  0.23816283508E+01  0.45974962619E+03  0.91456890237E+02 0.  0.
        254    2    1    2    0    0  0.23483232176E+03 -0.38451718363E+03  0.17422221996E+04  0.20125146777E+04  0.90104242482E+03 0.  0.
        -24    2    4    4    0    0 -0.74099880400E+02  0.24605468653E+03  0.72986945695E+03  0.77797874941E+03  0.80670994220E+02 0.  0.
         24    2    4    4    0    0  0.30893220216E+03 -0.63057187017E+03  0.10123527426E+04  0.12345359283E+04  0.78491360709E+02 0.  0.
         11    1    3    3    0    0 -0.23437763941E+03  0.38661382827E+03  0.96077874885E+01  0.45221171993E+03  0.00000000000E+00 0. -1.
        -11    1    3    3    0    0 -0.45468235582E+00 -0.20966446396E+01 -0.72261591377E+01  0.75379062526E+01  0.00000000000E+00 0.  1.
          4    1    6    6  502    0  0.70293016789E+02 -0.10958511236E+03  0.14382155165E+03  0.19399650455E+03  0.00000000000E+00 0. -1.
          1    1    5    5  503    0 -0.15995484337E+02  0.28667489280E+01  0.80757532897E+02  0.82376288386E+02  0.00000000000E+00 0. -1.
         -2    1    5    5    0  503 -0.58104396063E+02  0.24318793760E+03  0.64911192405E+03  0.69560246102E+03  0.00000000000E+00 0.  1.
         -3    1    6    6    0  502  0.23863918537E+03 -0.52098675781E+03  0.86853119099E+03  0.10405394237E+04  0.00000000000E+00 0.  1.
<mgrwt>
<rscale>  0 0.17516987E+04</rscale>
<asrwt>0</asrwt>
<pdfrwt beam="1">  1        2 0.55973884E-01 0.17516987E+04</pdfrwt>
<pdfrwt beam="2">  1       -2 0.32437446E+00 0.17516987E+04</pdfrwt>
<totfact> 0.18921292E+00</totfact>
</mgrwt>
</event>
<event>
12    1  0.1504874E-007  0.1594595E+04  0.7818608E-02  0.8823875E-01
          2   -1    0    0  501    0  0.00000000000E+00  0.00000000000E+00  0.25546941728E+04  0.25546941728E+04  0.00000000000E+00 0. -1.
         -2   -1    0    0    0  501 -0.00000000000E+00 -0.00000000000E+00 -0.24882965090E+03  0.24882965090E+03  0.00000000000E+00 0.  1.
         23    2    1    2    0    0  0.47744248773E+02  0.44157108397E+03  0.24513435804E+03  0.51543927163E+03  0.91226387442E+02 0.  0.
        254    2    1    2    0    0 -0.47744248773E+02 -0.44157108397E+03  0.20607301639E+04  0.22880845521E+04  0.88963901315E+03 0.  0.
        -24    2    4    4    0    0  0.31106312691E+03 -0.44761427776E+03  0.16363980069E+04  0.17266111199E+04  0.79175196376E+02 0.  0.
         24    2    4    4    0    0 -0.35880737568E+03  0.60431937934E+01  0.42433215697E+03  0.56147343220E+03  0.80096083531E+02 0.  0.
         13    1    3    3    0    0 -0.15672445720E+02  0.14479582149E+03  0.47111715831E+02  0.15307177808E+03  0.00000000000E+00 0. -1.
        -13    1    3    3    0    0  0.63416694492E+02  0.29677526247E+03  0.19802264221E+03  0.36236749355E+03  0.00000000000E+00 0.  1.
          4    1    6    6  502    0 -0.15451284243E+03  0.10336238530E+02  0.12483739688E+03  0.19891061299E+03  0.00000000000E+00 0. -1.
          1    1    5    5  503    0  0.65791336929E+02 -0.57476861573E+02  0.20432082855E+03  0.22221406484E+03  0.00000000000E+00 0. -1.
         -2    1    5    5    0  503  0.24527178998E+03 -0.39013741619E+03  0.14320771784E+04  0.15043970551E+04  0.00000000000E+00 0.  1.
         -3    1    6    6    0  502 -0.20429453325E+03 -0.42930447362E+01  0.29949476009E+03  0.36256281921E+03  0.00000000000E+00 0.  1.
<mgrwt>
<rscale>  0 0.15945954E+04</rscale>
<asrwt>0</asrwt>
<pdfrwt beam="1">  1        2 0.39302985E+00 0.15945954E+04</pdfrwt>
<pdfrwt beam="2">  1       -2 0.38281487E-01 0.15945954E+04</pdfrwt>
<totfact> 0.20048452E+01</totfact>
</mgrwt>
</event>
<event>
12    1  0.1504874E-007  0.2594128E+04  0.7818608E-02  0.8370199E-01
          1   -1    0    0  501    0  0.00000000000E+00  0.00000000000E+00  0.16180178516E+04  0.16180178516E+04  0.00000000000E+00 0. -1.
         -1   -1    0    0    0  501 -0.00000000000E+00 -0.00000000000E+00 -0.10397752623E+04  0.10397752623E+04  0.00000000000E+00 0.  1.
         23    2    1    2    0    0 -0.34023805904E+03 -0.70098251473E+03 -0.59745234472E+03  0.98617503452E+03  0.91942763333E+02 0.  0.
        254    2    1    2    0    0  0.34023805904E+03  0.70098251473E+03  0.11756949340E+04  0.16716180793E+04  0.89716776716E+03 0.  0.
        -24    2    4    4    0    0  0.15004097212E+03  0.55928946246E+03  0.12746744198E+04  0.14024374460E+04  0.81969002830E+02 0.  0.
         24    2    4    4    0    0  0.19019708693E+03  0.14169305226E+03 -0.98979485735E+02  0.26918063331E+03  0.80058864692E+02 0.  0.
         11    1    3    3    0    0 -0.32062363179E+03 -0.61473736378E+03 -0.55481394894E+03  0.88798651883E+03  0.00000000000E+00 0.  1.
        -11    1    3    3    0    0 -0.19614427251E+02 -0.86245150949E+02 -0.42638395773E+02  0.98188515687E+02  0.00000000000E+00 0. -1.
          2    1    6    6  502    0  0.43358903588E+02  0.48981521921E+02 -0.65023362420E+02  0.92234601265E+02  0.00000000000E+00 0. -1.
          3    1    5    5  503    0  0.96935134159E+02  0.20980307264E+03  0.52308082549E+03  0.57186300765E+03  0.00000000000E+00 0. -1.
         -4    1    5    5    0  503  0.53105837956E+02  0.34948638983E+03  0.75159359430E+03  0.83057443838E+03  0.00000000000E+00 0.  1.
         -1    1    6    6    0  502  0.14683818334E+03  0.92711530340E+02 -0.33956123314E+02  0.17694603204E+03  0.00000000000E+00 0.  1.
<mgrwt>
<rscale>  0 0.25941279E+04</rscale>
<asrwt>0</asrwt>
<pdfrwt beam="1">  1        1 0.24892582E+00 0.25941279E+04</pdfrwt>
<pdfrwt beam="2">  1       -1 0.15996543E+00 0.25941279E+04</pdfrwt>
<totfact> 0.13975004E+00</totfact>
</mgrwt>
</event>
<event>
12    1  0.1504874E-007  0.2131029E+04  0.7818608E-02  0.8547697E-01
         -2   -1    0    0    0  501 -0.00000000000E+00  0.00000000000E+00  0.65280153426E+03  0.65280153426E+03  0.00000000000E+00 0.  1.
          2   -1    0    0  501    0  0.00000000000E+00 -0.00000000000E+00 -0.17391514421E+04  0.17391514421E+04  0.00000000000E+00 0. -1.
         23    2    1    2    0    0  0.24193039501E+03  0.81719936333E+03 -0.65618898175E+03  0.10794534402E+04  0.91052921018E+02 0.  0.
        254    2    1    2    0    0 -0.24193039501E+03 -0.81719936333E+03 -0.43016092609E+03  0.13124995361E+04  0.90070610886E+03 0.  0.
        -24    2    4    4    0    0  0.20703317939E+03 -0.50173585052E+03 -0.51349020871E+03  0.75165012912E+03  0.81878697443E+02 0.  0.
         24    2    4    4    0    0 -0.44896357440E+03 -0.31546351281E+03  0.83329282620E+02  0.56084940701E+03  0.80763661034E+02 0.  0.
         13    1    3    3    0    0  0.15792081279E+03  0.44358205383E+03 -0.40874287400E+03  0.62351804998E+03  0.00000000000E+00 0. -1.
        -13    1    3    3    0    0  0.84009582216E+02  0.37361730950E+03 -0.24744610775E+03  0.45593539027E+03  0.00000000000E+00 0.  1.
          4    1    6    6  502    0 -0.37077908583E+03 -0.29475725492E+03  0.67824540123E+02  0.47849674823E+03  0.00000000000E+00 0. -1.
          1    1    5    5  503    0  0.17694099598E+03 -0.46773261121E+03 -0.49156898136E+03  0.70122890349E+03  0.00000000000E+00 0. -1.
         -2    1    5    5    0  503  0.30092183406E+02 -0.34003239308E+02 -0.21921227356E+02  0.50421225633E+02  0.00000000000E+00 0.  1.
         -3    1    6    6    0  502 -0.78184488567E+02 -0.20706257891E+02  0.15504742497E+02  0.82352658780E+02  0.00000000000E+00 0.  1.
<mgrwt>
<rscale>  0 0.21310286E+04</rscale>
<asrwt>0</asrwt>
<pdfrwt beam="1">  1        2 0.26756175E+00 0.21310286E+04</pdfrwt>
<pdfrwt beam="2">  1       -2 0.10043101E+00 0.21310286E+04</pdfrwt>
<totfact> 0.70102116E+00</totfact>
</mgrwt>
</event>
<event>
12    1  0.1504874E-007  0.1612822E+04  0.7818608E-02  0.8812709E-01
         -2   -1    0    0    0  501 -0.00000000000E+00  0.00000000000E+00  0.27667283191E+03  0.27667283191E+03  0.00000000000E+00 0.  1.
          2   -1    0    0  501    0  0.00000000000E+00 -0.00000000000E+00 -0.23504255293E+04  0.23504255293E+04  0.00000000000E+00 0. -1.
         23    2    1    2    0    0 -0.36636248519E+03 -0.41426084806E+03 -0.74460871132E+03  0.93216296636E+03  0.93016891346E+02 0.  0.
        254    2    1    2    0    0  0.36636248519E+03  0.41426084806E+03 -0.13291439860E+04  0.16949353948E+04  0.89462211922E+03 0.  0.
        -24    2    4    4    0    0 -0.81761033942E+02  0.13378800008E+03 -0.11003976970E+04  0.11144072766E+04  0.80276963814E+02 0.  0.
         24    2    4    4    0    0  0.44812351914E+03  0.28047284798E+03 -0.22874628898E+03  0.58052811817E+03  0.72168721836E+02 0.  0.
         11    1    3    3    0    0 -0.25387715470E+03 -0.30115019751E+03 -0.59433701885E+03  0.71300879596E+03  0.00000000000E+00 0.  1.
        -11    1    3    3    0    0 -0.11248533049E+03 -0.11311065055E+03 -0.15027169247E+03  0.21915417039E+03  0.00000000000E+00 0. -1.
          4    1    6    6  502    0  0.11320254692E+03  0.10730559684E+03 -0.55115642672E+02  0.16542986976E+03  0.00000000000E+00 0. -1.
          1    1    5    5  503    0  0.10886487835E+02  0.40343181704E+01 -0.29433774766E+02  0.31640771758E+02  0.00000000000E+00 0. -1.
         -4    1    5    5    0  503 -0.92647521777E+02  0.12975368191E+03 -0.10709639223E+04  0.10827665049E+04  0.00000000000E+00 0.  1.
         -3    1    6    6    0  502  0.33492097222E+03  0.17316725114E+03 -0.17363064631E+03  0.41509824842E+03  0.00000000000E+00 0.  1.
<mgrwt>
<rscale>  0 0.16128222E+04</rscale>
<asrwt>0</asrwt>
<pdfrwt beam="1">  1        2 0.36160393E+00 0.16128222E+04</pdfrwt>
<pdfrwt beam="2">  1       -2 0.42565051E-01 0.16128222E+04</pdfrwt>
<totfact> 0.21299411E+01</totfact>
</mgrwt>
</event>
<event>
12    1  0.1504874E-007  0.1849161E+04  0.7818608E-02  0.8680585E-01
          2   -1    0    0  501    0  0.00000000000E+00  0.00000000000E+00  0.42124999247E+03  0.42124999247E+03  0.00000000000E+00 0. -1.
         -2   -1    0    0    0  501 -0.00000000000E+00 -0.00000000000E+00 -0.20293145719E+04  0.20293145719E+04  0.00000000000E+00 0.  1.
         23    2    1    2    0    0  0.47767256831E+03 -0.49731382095E+03 -0.76024590293E+03  0.10324840213E+04  0.11205936934E+03 0.  0.
        254    2    1    2    0    0 -0.47767256831E+03  0.49731382095E+03 -0.84781867655E+03  0.14180805431E+04  0.90369452775E+03 0.  0.
        -24    2    4    4    0    0 -0.23448366269E+03  0.30269434735E+02 -0.84978097444E+03  0.88539666555E+03  0.76816170761E+02 0.  0.
         24    2    4    4    0    0 -0.24318890562E+03  0.46704438621E+03  0.19622978972E+01  0.53268387758E+03  0.80479564583E+02 0.  0.
         13    1    3    3    0    0  0.32393810261E+03 -0.27890541726E+03 -0.41282739605E+03  0.59426474322E+03  0.00000000000E+00 0. -1.
        -13    1    3    3    0    0  0.15373446570E+03 -0.21840840369E+03 -0.34741850687E+03  0.43821927806E+03  0.00000000000E+00 0.  1.
          2    1    6    6  502    0 -0.23024613966E+03  0.41524322964E+03  0.22837997137E+02  0.47535439275E+03  0.00000000000E+00 0. -1.
          1    1    5    5  503    0 -0.17032515277E+03  0.55814830735E+02 -0.63249871877E+03  0.65740442822E+03  0.00000000000E+00 0. -1.
         -2    1    5    5    0  503 -0.64158509919E+02 -0.25545396000E+02 -0.21728225568E+03  0.22799223733E+03  0.00000000000E+00 0.  1.
         -1    1    6    6    0  502 -0.12942765959E+02  0.51801156573E+02 -0.20875699240E+02  0.57329484837E+02  0.00000000000E+00 0.  1.
<mgrwt>
<rscale>  0 0.18491606E+04</rscale>
<asrwt>0</asrwt>
<pdfrwt beam="1">  1        2 0.64807691E-01 0.18491606E+04</pdfrwt>
<pdfrwt beam="2">  1       -2 0.31220224E+00 0.18491606E+04</pdfrwt>
<totfact> 0.18898816E+00</totfact>
</mgrwt>
</event>
<event>
12    1  0.1504874E-007  0.1381431E+04  0.7818608E-02  0.8967370E-01
          2   -1    0    0  501    0  0.00000000000E+00  0.00000000000E+00  0.24528155380E+04  0.24528155380E+04  0.00000000000E+00 0.  1.
         -2   -1    0    0    0  501 -0.00000000000E+00 -0.00000000000E+00 -0.19450635866E+03  0.19450635866E+03  0.00000000000E+00 0. -1.
         23    2    1    2    0    0  0.96791999292E+02  0.16000109355E+03 -0.57076485858E+01  0.20506670503E+03  0.83968656042E+02 0.  0.
        254    2    1    2    0    0 -0.96791999292E+02 -0.16000109355E+03  0.22640168280E+04  0.24422551917E+04  0.89658752105E+03 0.  0.
        -24    2    4    4    0    0 -0.39997334931E+03  0.17873655980E+03  0.94177634029E+03  0.10417627002E+04  0.80008814637E+02 0.  0.
         24    2    4    4    0    0  0.30318135002E+03 -0.33873765335E+03  0.13222404877E+04  0.14004924915E+04  0.79982389606E+02 0.  0.
         11    1    3    3    0    0  0.12365175748E+02  0.11720162353E+01 -0.21154112730E+02  0.24530953482E+02  0.00000000000E+00 0.  1.
        -11    1    3    3    0    0  0.84426823545E+02  0.15882907731E+03  0.15446464145E+02  0.18053575155E+03  0.00000000000E+00 0. -1.
          2    1    6    6  502    0  0.27564222608E+03 -0.26912136764E+03  0.11457622095E+04  0.12087911267E+04  0.00000000000E+00 0. -1.
          3    1    5    5  503    0 -0.38949658212E+03  0.18662339638E+03  0.90657915891E+03  0.10042019971E+04  0.00000000000E+00 0. -1.
         -4    1    5    5    0  503 -0.10476767198E+02 -0.78868365739E+01  0.35197181377E+02  0.37560703121E+02  0.00000000000E+00 0.  1.
         -1    1    6    6    0  502  0.27539123944E+02 -0.69616285712E+02  0.17647827820E+03  0.19170136479E+03  0.00000000000E+00 0.  1.
<mgrwt>
<rscale>  0 0.13814315E+04</rscale>
<asrwt>0</asrwt>
<pdfrwt beam="1">  1        2 0.37735621E+00 0.13814315E+04</pdfrwt>
<pdfrwt beam="2">  1       -2 0.29924057E-01 0.13814315E+04</pdfrwt>
<totfact> 0.37351703E+01</totfact>
</mgrwt>
</event>
<event>
12    1  0.1504874E-007  0.1223563E+04  0.7818608E-02  0.9092478E-01
         -2   -1    0    0    0  501 -0.00000000000E+00  0.00000000000E+00  0.33491495548E+03  0.33491495548E+03  0.00000000000E+00 0.  1.
          2   -1    0    0  501    0  0.00000000000E+00 -0.00000000000E+00 -0.11175272740E+04  0.11175272740E+04  0.00000000000E+00 0. -1.
         23    2    1    2    0    0  0.12117008589E+03  0.16714909336E+03 -0.38500681641E+03  0.44647479119E+03  0.92132954801E+02 0.  0.
        254    2    1    2    0    0 -0.12117008589E+03 -0.16714909336E+03 -0.39760550210E+03  0.10059674383E+04  0.90069936298E+03 0.  0.
        -24    2    4    4    0    0  0.11152431006E+03  0.16318824064E+03 -0.53149240526E+03  0.57261012470E+03  0.79561953476E+02 0.  0.
         24    2    4    4    0    0 -0.23269439596E+03 -0.33033733400E+03  0.13388690316E+03  0.43335731358E+03  0.81261443832E+02 0.  0.
         11    1    3    3    0    0 -0.49704610040E+01  0.35123800595E+02 -0.26963679804E+02  0.44558129217E+02  0.00000000000E+00 0.  1.
        -11    1    3    3    0    0  0.12614054690E+03  0.13202529277E+03 -0.35804313660E+03  0.40191666197E+03  0.00000000000E+00 0. -1.
          4    1    6    6  502    0 -0.17377757221E+03 -0.18464627194E+03  0.64935009654E+02  0.26174309127E+03  0.00000000000E+00 0. -1.
          3    1    5    5  503    0  0.19989991156E+02  0.39611725611E+02 -0.48535748310E+02  0.65760226705E+02  0.00000000000E+00 0. -1.
         -4    1    5    5    0  503  0.91534318909E+02  0.12357651503E+03 -0.48295665695E+03  0.50684989800E+03  0.00000000000E+00 0.  1.
         -3    1    6    6    0  502 -0.58916823745E+02 -0.14569106206E+03  0.68951893508E+02  0.17161422232E+03  0.00000000000E+00 0.  1.
<mgrwt>
<rscale>  0 0.12235630E+04</rscale>
<asrwt>0</asrwt>
<pdfrwt beam="1">  1        2 0.17192727E+00 0.12235630E+04</pdfrwt>
<pdfrwt beam="2">  1       -2 0.51525378E-01 0.12235630E+04</pdfrwt>
<totfact> 0.74486056E+01</totfact>
</mgrwt>
</event>
<event>
12    1  0.1504874E-007  0.2711468E+04  0.7818608E-02  0.8331293E-01
          2   -1    0    0  501    0  0.00000000000E+00  0.00000000000E+00  0.46878778440E+04  0.46878778440E+04  0.00000000000E+00 0. -1.
         -2   -1    0    0    0  501 -0.00000000000E+00 -0.00000000000E+00 -0.39207830368E+03  0.39207830368E+03  0.00000000000E+00 0.  1.
         23    2    1    2    0    0 -0.49305878952E+03  0.10944885779E+04  0.18423157227E+04  0.22008019129E+04  0.91594871863E+02 0.  0.
        254    2    1    2    0    0  0.49305878952E+03 -0.10944885779E+04  0.24534838177E+04  0.28791542349E+04  0.91045815240E+03 0.  0.
        -24    2    4    4    0    0 -0.24583735529E+03 -0.35772975512E+03  0.53244036574E+03  0.69165061660E+03  0.80506207371E+02 0.  0.
         24    2    4    4    0    0  0.73889614480E+03 -0.73675882281E+03  0.19210434520E+04  0.21875036183E+04  0.77350241039E+02 0.  0.
         13    1    3    3    0    0 -0.30272122728E+03  0.67617978353E+03  0.10544066419E+04  0.12886553486E+04  0.00000000000E+00 0.  1.
        -13    1    3    3    0    0 -0.19033756224E+03  0.41830879440E+03  0.78790908077E+03  0.91214656423E+03  0.00000000000E+00 0. -1.
          4    1    6    6  502    0  0.22782882502E+02 -0.68972598907E+01  0.44138656748E+02  0.50148309529E+02  0.00000000000E+00 0. -1.
          1    1    5    5  503    0 -0.23456118119E+01 -0.58731054345E+01 -0.23508590638E+01  0.67469845527E+01  0.00000000000E+00 0. -1.
         -2    1    5    5    0  503 -0.24349174347E+03 -0.35185664969E+03  0.53479122481E+03  0.68490363205E+03  0.00000000000E+00 0.  1.
         -3    1    6    6    0  502  0.71611326230E+03 -0.72986156291E+03  0.18769047952E+04  0.21373553087E+04  0.00000000000E+00 0.  1.
<mgrwt>
<rscale>  0 0.27114684E+04</rscale>
<asrwt>0</asrwt>
<pdfrwt beam="1">  1        2 0.72121193E+00 0.27114684E+04</pdfrwt>
<pdfrwt beam="2">  1       -2 0.60319743E-01 0.27114684E+04</pdfrwt>
<totfact> 0.17806398E-01</totfact>
</mgrwt>
</event>
<event>
12    1  0.1504874E-007  0.1406134E+04  0.7818608E-02  0.8949390E-01
         -1   -1    0    0    0  501 -0.00000000000E+00  0.00000000000E+00  0.84278832743E+03  0.84278832743E+03  0.00000000000E+00 0.  1.
          1   -1    0    0  501    0  0.00000000000E+00 -0.00000000000E+00 -0.58650919549E+03  0.58650919549E+03  0.00000000000E+00 0. -1.
         23    2    1    2    0    0  0.10191416373E+03  0.39092327047E+03  0.91506332462E+02  0.42330336754E+03  0.87205687444E+02 0.  0.
        254    2    1    2    0    0 -0.10191416373E+03 -0.39092327047E+03  0.16477279948E+03  0.10059941554E+04  0.90645830850E+03 0.  0.
        -24    2    4    4    0    0  0.51738778725E+02  0.28161625435E+03  0.33409516824E+02  0.29921184320E+03  0.80168044499E+02 0.  0.
         24    2    4    4    0    0 -0.15365294246E+03 -0.67253952482E+03  0.13136328265E+03  0.70678231218E+03  0.79789006854E+02 0.  0.
         11    1    3    3    0    0  0.52595127940E+01  0.46389853259E+02 -0.16511825162E+02  0.49520918110E+02  0.00000000000E+00 0.  1.
        -11    1    3    3    0    0  0.96654650936E+02  0.34453341721E+03  0.10801815762E+03  0.37378244943E+03  0.00000000000E+00 0. -1.
          4    1    6    6  502    0  0.71022268686E+01 -0.50580137529E+02  0.19739970781E+02  0.54758180990E+02  0.00000000000E+00 0. -1.
          1    1    5    5  503    0 -0.68920279040E+01  0.17917309427E+03  0.19867158492E+02  0.18040288730E+03  0.00000000000E+00 0. -1.
         -2    1    5    5    0  503  0.58630806629E+02  0.10244316007E+03  0.13542358331E+02  0.11880895589E+03  0.00000000000E+00 0.  1.
         -3    1    6    6    0  502 -0.16075516932E+03 -0.62195938729E+03  0.11162331187E+03  0.65202413119E+03  0.00000000000E+00 0.  1.
<mgrwt>
<rscale>  0 0.14061339E+04</rscale>
<asrwt>0</asrwt>
<pdfrwt beam="1">  1        1 0.90232184E-01 0.14061339E+04</pdfrwt>
<pdfrwt beam="2">  1       -1 0.12965974E+00 0.14061339E+04</pdfrwt>
<totfact> 0.17613778E+01</totfact>
</mgrwt>
</event>
<event>
12    1  0.1504874E-007  0.1079408E+04  0.7818608E-02  0.9225498E-01
          1   -1    0    0  501    0  0.00000000000E+00  0.00000000000E+00  0.23994553909E+04  0.23994553909E+04  0.00000000000E+00 0. -1.
         -1   -1    0    0    0  501 -0.00000000000E+00 -0.00000000000E+00 -0.12139430070E+03  0.12139430070E+03  0.00000000000E+00 0.  1.
         23    2    1    2    0    0  0.81174325896E+02  0.41775415489E+02  0.52396181747E+03  0.53980679572E+03  0.92308905361E+02 0.  0.
        254    2    1    2    0    0 -0.81174325896E+02 -0.41775415489E+02  0.17540992727E+04  0.19810428959E+04  0.91615077373E+03 0.  0.
        -24    2    4    4    0    0  0.31325361429E+03 -0.35633087393E+02  0.14232435653E+04  0.14599338102E+04  0.79918334734E+02 0.  0.
         24    2    4    4    0    0 -0.39442794019E+03 -0.61423280959E+01  0.33085570739E+03  0.52110908564E+03  0.80486345593E+02 0.  0.
         13    1    3    3    0    0  0.51697402041E+02  0.47359655012E+00  0.42930999783E+03  0.43241174812E+03  0.00000000000E+00 0. -1.
        -13    1    3    3    0    0  0.29476923855E+02  0.41301818939E+02  0.94651819642E+02  0.10739504760E+03  0.00000000000E+00 0.  1.
          2    1    6    6  502    0 -0.32087323854E+03 -0.71825743001E+01  0.22404355294E+03  0.39141632337E+03  0.00000000000E+00 0. -1.
          1    1    5    5  503    0  0.26090148923E+03 -0.58742766203E+02  0.11372764406E+04  0.11682970521E+04  0.00000000000E+00 0. -1.
         -2    1    5    5    0  503  0.52352125065E+02  0.23109678809E+02  0.28596712472E+03  0.29163675810E+03  0.00000000000E+00 0.  1.
         -1    1    6    6    0  502 -0.73554701645E+02  0.10402462042E+01  0.10681215445E+03  0.12969276227E+03  0.00000000000E+00 0.  1.
<mgrwt>
<rscale>  0 0.10794076E+04</rscale>
<asrwt>0</asrwt>
<pdfrwt beam="1">  1        1 0.36914695E+00 0.10794076E+04</pdfrwt>
<pdfrwt beam="2">  1       -1 0.18676048E-01 0.10794076E+04</pdfrwt>
<totfact> 0.36680960E+01</totfact>
</mgrwt>
</event>
<event>
12    1  0.1504874E-007  0.1698616E+04  0.7818608E-02  0.8762154E-01
          2   -1    0    0  501    0  0.00000000000E+00  0.00000000000E+00  0.87134899113E+03  0.87134899113E+03  0.00000000000E+00 0. -1.
         -2   -1    0    0    0  501 -0.00000000000E+00 -0.00000000000E+00 -0.82782431023E+03  0.82782431023E+03  0.00000000000E+00 0.  1.
         23    2    1    2    0    0 -0.31172238699E+03 -0.27728692847E+03 -0.43366026551E+03  0.60837916408E+03  0.89471191714E+02 0.  0.
        254    2    1    2    0    0  0.31172238699E+03  0.27728692847E+03  0.47718494641E+03  0.10907941373E+04  0.88773165406E+03 0.  0.
        -24    2    4    4    0    0 -0.65479169365E+02 -0.69862647598E+02 -0.20079763801E+03  0.23694557700E+03  0.81579432938E+02 0.  0.
         24    2    4    4    0    0  0.37720155635E+03  0.34714957607E+03  0.67798258443E+03  0.85384856029E+03  0.81259687709E+02 0.  0.
         13    1    3    3    0    0 -0.70114603180E+02 -0.90890808276E+02 -0.73408268011E+02  0.13625700136E+03  0.00000000000E+00 0. -1.
        -13    1    3    3    0    0 -0.24160778381E+03 -0.18639612020E+03 -0.36025199750E+03  0.47212216271E+03  0.00000000000E+00 0.  1.
          2    1    6    6  502    0  0.18409453172E+03  0.12465041113E+03  0.25400200015E+03  0.33755819896E+03  0.00000000000E+00 0. -1.
          1    1    5    5  503    0 -0.30514105636E+02 -0.16795595946E+00 -0.12196851805E+02  0.32861863093E+02  0.00000000000E+00 0. -1.
         -2    1    5    5    0  503 -0.34965063728E+02 -0.69694691638E+02 -0.18860078621E+03  0.20408371391E+03  0.00000000000E+00 0.  1.
         -1    1    6    6    0  502  0.19310702463E+03  0.22249916494E+03  0.42398058428E+03  0.51629036133E+03  0.00000000000E+00 0.  1.
<mgrwt>
<rscale>  0 0.16986158E+04</rscale>
<asrwt>0</asrwt>
<pdfrwt beam="1">  1        2 0.13405369E+00 0.16986158E+04</pdfrwt>
<pdfrwt beam="2">  1       -2 0.12735759E+00 0.16986158E+04</pdfrwt>
<totfact> 0.13352222E+01</totfact>
</mgrwt>
</event>
<event>
12    1  0.1504874E-007  0.1432601E+04  0.7818608E-02  0.8930552E-01
         -1   -1    0    0    0  501 -0.00000000000E+00  0.00000000000E+00  0.27060446635E+03  0.27060446635E+03  0.00000000000E+00 0.  1.
          1   -1    0    0  501    0  0.00000000000E+00 -0.00000000000E+00 -0.18960754747E+04  0.18960754747E+04  0.00000000000E+00 0. -1.
         23    2    1    2    0    0 -0.25714804606E+03 -0.22759184408E+03 -0.99339527766E+03  0.10549195187E+04  0.89988045114E+02 0.  0.
        254    2    1    2    0    0  0.25714804606E+03  0.22759184408E+03 -0.63207573073E+03  0.11117604223E+04  0.84768410520E+03 0.  0.
        -24    2    4    4    0    0  0.39048802646E+03  0.88603406656E+02  0.39122003769E+02  0.40969020157E+03  0.77356755369E+02 0.  0.
         24    2    4    4    0    0 -0.13333998040E+03  0.13898843742E+03 -0.67119773450E+03  0.70207022077E+03  0.72793268839E+02 0.  0.
         11    1    3    3    0    0 -0.16023647712E+03 -0.12864168875E+03 -0.71549292884E+03  0.74441557205E+03  0.00000000000E+00 0. -1.
        -11    1    3    3    0    0 -0.96911568946E+02 -0.98950155334E+02 -0.27790234882E+03  0.31050394670E+03  0.00000000000E+00 0.  1.
          2    1    6    6  502    0 -0.40748947972E+01  0.47079952570E+02 -0.15988619198E+03  0.16672348691E+03  0.00000000000E+00 0. -1.
          1    1    5    5  503    0  0.10570618257E+03  0.51944624730E+02 -0.10713424394E+02  0.11826588069E+03  0.00000000000E+00 0. -1.
         -2    1    5    5    0  503  0.28478184389E+03  0.36658781927E+02  0.49835428163E+02  0.29142432088E+03  0.00000000000E+00 0.  1.
         -1    1    6    6    0  502 -0.12926508560E+03  0.91908484852E+02 -0.51131154252E+03  0.53534673386E+03  0.00000000000E+00 0.  1.
<mgrwt>
<rscale>  0 0.14326011E+04</rscale>
<asrwt>0</asrwt>
<pdfrwt beam="1">  1        1 0.29170392E+00 0.14326011E+04</pdfrwt>
<pdfrwt beam="2">  1       -1 0.41631456E-01 0.14326011E+04</pdfrwt>
<totfact> 0.19303935E+01</totfact>
</mgrwt>
</event>
<event>
12    1  0.1504874E-007  0.2546480E+04  0.7818608E-02  0.8386611E-01
         -1   -1    0    0    0  501 -0.00000000000E+00  0.00000000000E+00  0.53560091309E+03  0.53560091309E+03  0.00000000000E+00 0.  1.
          1   -1    0    0  501    0  0.00000000000E+00 -0.00000000000E+00 -0.30267686678E+04  0.30267686678E+04  0.00000000000E+00 0. -1.
         23    2    1    2    0    0  0.23346666082E+03 -0.28684855491E+03 -0.25545249516E+04  0.25829107519E+04  0.95086533000E+02 0.  0.
        254    2    1    2    0    0 -0.23346666082E+03  0.28684855491E+03  0.63357196826E+02  0.97945882906E+03  0.90473017428E+03 0.  0.
        -24    2    4    4    0    0 -0.45616497924E+03  0.43703496460E+03 -0.11564037556E+03  0.64693889289E+03  0.77917816269E+02 0.  0.
         24    2    4    4    0    0  0.22269831843E+03 -0.15018640970E+03  0.17899757239E+03  0.33251993617E+03  0.79867880553E+02 0.  0.
         11    1    3    3    0    0 -0.43609844862E+01 -0.15666969484E+02 -0.22930371125E+03  0.22987967312E+03  0.00000000000E+00 0.  1.
        -11    1    3    3    0    0  0.23782764530E+03 -0.27118158542E+03 -0.23252212403E+04  0.23530310788E+04  0.00000000000E+00 0. -1.
          2    1    6    6  502    0  0.16795921955E+03 -0.67602709098E+02  0.11990365249E+03  0.21715734293E+03  0.00000000000E+00 0. -1.
          3    1    5    5  503    0 -0.29060140841E+03  0.22807016574E+03 -0.79851179098E+02  0.37794363320E+03  0.00000000000E+00 0. -1.
         -4    1    5    5    0  503 -0.16556357084E+03  0.20896479886E+03 -0.35789196463E+02  0.26899525969E+03  0.00000000000E+00 0.  1.
         -1    1    6    6    0  502  0.54739098880E+02 -0.82583700599E+02  0.59093919897E+02  0.11536259324E+03  0.00000000000E+00 0.  1.
<mgrwt>
<rscale>  0 0.25464800E+04</rscale>
<asrwt>0</asrwt>
<pdfrwt beam="1">  1        1 0.46565672E+00 0.25464800E+04</pdfrwt>
<pdfrwt beam="2">  1       -1 0.82400141E-01 0.25464800E+04</pdfrwt>
<totfact> 0.74018620E-01</totfact>
</mgrwt>
</event>
<event>
12    1  0.1504874E-007  0.1397958E+04  0.7818608E-02  0.8955298E-01
         -2   -1    0    0    0  501 -0.00000000000E+00  0.00000000000E+00  0.56787887409E+03  0.56787887409E+03  0.00000000000E+00 0.  1.
          2   -1    0    0  501    0  0.00000000000E+00 -0.00000000000E+00 -0.86034532129E+03  0.86034532129E+03  0.00000000000E+00 0. -1.
         23    2    1    2    0    0  0.36572729555E+02  0.36427088058E+02 -0.40335469095E+03  0.41667078047E+03  0.90857224785E+02 0.  0.
        254    2    1    2    0    0 -0.36572729555E+02 -0.36427088058E+02  0.11088824375E+03  0.10115534149E+04  0.10041312720E+04 0.  0.
        -24    2    4    4    0    0 -0.22766806750E+02 -0.29709905544E+03  0.46925172391E+03  0.56156601004E+03  0.79831240815E+02 0.  0.
         24    2    4    4    0    0 -0.13805922805E+02  0.26067196738E+03 -0.35836348016E+03  0.44998740488E+03  0.76966242966E+02 0.  0.
         13    1    3    3    0    0 -0.10700683687E+02 -0.19967231654E+00 -0.20031636541E+01  0.10888395888E+02  0.00000000000E+00 0.  1.
        -13    1    3    3    0    0  0.47273413242E+02  0.36626760374E+02 -0.40135152730E+03  0.40578238458E+03  0.00000000000E+00 0. -1.
          2    1    6    6  502    0  0.17799856864E+02  0.91703064232E+02 -0.80830896274E+02  0.12353105151E+03  0.00000000000E+00 0. -1.
          3    1    5    5  503    0 -0.35543718656E+02 -0.54243997276E+02  0.86997635073E+02  0.10850970318E+03  0.00000000000E+00 0. -1.
         -4    1    5    5    0  503  0.12776911906E+02 -0.24285505816E+03  0.38225408883E+03  0.45305630686E+03  0.00000000000E+00 0.  1.
         -1    1    6    6    0  502 -0.31605779669E+02  0.16896890315E+03 -0.27753258388E+03  0.32645635337E+03  0.00000000000E+00 0.  1.
<mgrwt>
<rscale>  0 0.13979584E+04</rscale>
<asrwt>0</asrwt>
<pdfrwt beam="1">  1        2 0.13236082E+00 0.13979584E+04</pdfrwt>
<pdfrwt beam="2">  1       -2 0.87365981E-01 0.13979584E+04</pdfrwt>
<totfact> 0.34397521E+01</totfact>
</mgrwt>
</event>
<event>
12    1  0.1504874E-007  0.1295388E+04  0.7818608E-02  0.9033231E-01
          1   -1    0    0  501    0  0.00000000000E+00  0.00000000000E+00  0.70418119129E+03  0.70418119129E+03  0.00000000000E+00 0. -1.
         -1   -1    0    0    0  501 -0.00000000000E+00 -0.00000000000E+00 -0.59573805542E+03  0.59573805542E+03  0.00000000000E+00 0.  1.
         23    2    1    2    0    0 -0.30874936933E+02  0.44334817344E+02  0.34492760564E+03  0.36098725486E+03  0.91749154082E+02 0.  0.
        254    2    1    2    0    0  0.30874936933E+02 -0.44334817344E+02 -0.23648446977E+03  0.93893199185E+03  0.90705542450E+03 0.  0.
        -24    2    4    4    0    0 -0.16482270645E+03  0.12360599671E+03 -0.50930695814E+03  0.55516208228E+03  0.79789679882E+02 0.  0.
         24    2    4    4    0    0  0.19569764338E+03 -0.16794081405E+03  0.27282248837E+03  0.38376990957E+03  0.79658952314E+02 0.  0.
         13    1    3    3    0    0 -0.79801744788E+01 -0.15831368826E+02  0.10897273178E+02  0.20810237536E+02  0.00000000000E+00 0.  1.
        -13    1    3    3    0    0 -0.22894762454E+02  0.60166186170E+02  0.33403033246E+03  0.34017701732E+03  0.00000000000E+00 0. -1.
          4    1    6    6  502    0  0.44870643251E+02 -0.17141171089E+01  0.36757233491E+02  0.58029363577E+02  0.00000000000E+00 0. -1.
          1    1    5    5  503    0 -0.12453170676E+01  0.14123242051E+02 -0.99837663056E+02  0.10083935613E+03  0.00000000000E+00 0. -1.
         -2    1    5    5    0  503 -0.16357738938E+03  0.10948275465E+03 -0.40946929508E+03  0.45432272615E+03  0.00000000000E+00 0.  1.
         -3    1    6    6    0  502  0.15082700013E+03 -0.16622669694E+03  0.23606525488E+03  0.32574054599E+03  0.00000000000E+00 0.  1.
<mgrwt>
<rscale>  0 0.12953880E+04</rscale>
<asrwt>0</asrwt>
<pdfrwt beam="1">  1        1 0.10833557E+00 0.12953880E+04</pdfrwt>
<pdfrwt beam="2">  1       -1 0.91652008E-01 0.12953880E+04</pdfrwt>
<totfact> 0.30801723E+01</totfact>
</mgrwt>
</event>
<event>
12    1  0.1504874E-007  0.1988933E+04  0.7818608E-02  0.8611812E-01
         -1   -1    0    0    0  501 -0.00000000000E+00  0.00000000000E+00  0.18212463758E+04  0.18212463758E+04  0.00000000000E+00 0.  1.
          1   -1    0    0  501    0  0.00000000000E+00 -0.00000000000E+00 -0.54301497645E+03  0.54301497645E+03  0.00000000000E+00 0. -1.
         23    2    1    2    0    0  0.37748548649E+03 -0.61086470843E+03  0.95421809601E+03  0.11978008690E+04  0.92432475850E+02 0.  0.
        254    2    1    2    0    0 -0.37748548649E+03  0.61086470843E+03  0.32401330331E+03  0.11664604832E+04  0.86022930291E+03 0.  0.
        -24    2    4    4    0    0 -0.11484423401E+03 -0.19505183134E+03  0.18500074052E+03  0.30378442333E+03  0.82615294395E+02 0.  0.
         24    2    4    4    0    0 -0.26264125248E+03  0.80591653977E+03  0.13901256278E+03  0.86267605986E+03  0.80022465961E+02 0.  0.
         11    1    3    3    0    0  0.44693434138E+02 -0.14328809709E+03  0.19688017866E+03  0.24756976102E+03  0.00000000000E+00 0. -1.
        -11    1    3    3    0    0  0.33279205235E+03 -0.46757661134E+03  0.75733791735E+03  0.95023110801E+03  0.00000000000E+00 0.  1.
          2    1    6    6  502    0 -0.57896772469E+01  0.89416433402E+02  0.25093123118E+02  0.93050973948E+02  0.00000000000E+00 0. -1.
          3    1    5    5  503    0 -0.18494940061E+02 -0.36193081685E+02 -0.13109224574E+01  0.40665962271E+02  0.00000000000E+00 0. -1.
         -4    1    5    5    0  503 -0.96349293949E+02 -0.15885874965E+03  0.18631166298E+03  0.26311846105E+03  0.00000000000E+00 0.  1.
         -1    1    6    6    0  502 -0.25685157523E+03  0.71650010637E+03  0.11391943967E+03  0.76962508591E+03  0.00000000000E+00 0.  1.
<mgrwt>
<rscale>  0 0.19889334E+04</rscale>
<asrwt>0</asrwt>
<pdfrwt beam="1">  1        1 0.83540766E-01 0.19889334E+04</pdfrwt>
<pdfrwt beam="2">  1       -1 0.28019175E+00 0.19889334E+04</pdfrwt>
<totfact> 0.16282376E+00</totfact>
</mgrwt>
</event>
<event>
12    1  0.1624401E-007  0.2031105E+04  0.7818608E-02  0.8592215E-01
         -2   -1    0    0    0  501 -0.00000000000E+00  0.00000000000E+00  0.54854725546E+03  0.54854725546E+03  0.00000000000E+00 0.  1.
          2   -1    0    0  501    0  0.00000000000E+00 -0.00000000000E+00 -0.18801422770E+04  0.18801422770E+04  0.00000000000E+00 0. -1.
         23    2    1    2    0    0 -0.18903406478E+03 -0.71028258558E+03 -0.86842381328E+03  0.11412236236E+04  0.89421533404E+02 0.  0.
        254    2    1    2    0    0  0.18903406478E+03  0.71028258558E+03 -0.46317120828E+03  0.12874659089E+04  0.95016086493E+03 0.  0.
        -24    2    4    4    0    0 -0.34642675339E+03  0.45647885879E+03 -0.97953661930E+02  0.58692009683E+03  0.80596750494E+02 0.  0.
         24    2    4    4    0    0  0.53546081818E+03  0.25380372679E+03 -0.36521754635E+03  0.70054581202E+03  0.79031380087E+02 0.  0.
         13    1    3    3    0    0 -0.68355685239E+02 -0.30371674074E+03 -0.43404356963E+03  0.53414434252E+03  0.00000000000E+00 0.  1.
        -13    1    3    3    0    0 -0.12067837955E+03 -0.40656584484E+03 -0.43438024364E+03  0.60707928110E+03  0.00000000000E+00 0. -1.
          2    1    6    6  502    0  0.10260937046E+03  0.78393238382E+02 -0.58274086690E+02  0.14166881064E+03  0.00000000000E+00 0. -1.
          3    1    5    5  503    0 -0.50710791175E+02  0.33809298100E+02 -0.25267019675E+02  0.65977839180E+02  0.00000000000E+00 0. -1.
         -4    1    5    5    0  503 -0.29571596222E+03  0.42266956069E+03 -0.72686642255E+02  0.52094225765E+03  0.00000000000E+00 0.  1.
         -1    1    6    6    0  502  0.43285144772E+03  0.17541048840E+03 -0.30694345966E+03  0.55887700137E+03  0.00000000000E+00 0.  1.
<mgrwt>
<rscale>  0 0.20311050E+04</rscale>
<asrwt>0</asrwt>
<pdfrwt beam="1">  1        2 0.28925266E+00 0.20311050E+04</pdfrwt>
<pdfrwt beam="2">  1       -2 0.84391885E-01 0.20311050E+04</pdfrwt>
<totfact> 0.88397382E+00</totfact>
</mgrwt>
</event>
<event>
12    1  0.1504874E-007  0.1386650E+04  0.7818608E-02  0.8963539E-01
          2   -1    0    0  501    0  0.00000000000E+00  0.00000000000E+00  0.30038611133E+04  0.30038611133E+04  0.00000000000E+00 0. -1.
         -2   -1    0    0    0  501 -0.00000000000E+00 -0.00000000000E+00 -0.16002711523E+03  0.16002711523E+03  0.00000000000E+00 0.  1.
         23    2    1    2    0    0  0.29807782383E+03  0.25258473994E+03  0.98183094615E+03  0.10610239561E+04  0.95553067479E+02 0.  0.
        254    2    1    2    0    0 -0.29807782383E+03 -0.25258473994E+03  0.18620030519E+04  0.21028642725E+04  0.89573061966E+03 0.  0.
        -24    2    4    4    0    0 -0.41893229670E+03  0.19338924286E+03  0.12322406907E+04  0.13179539401E+04  0.75377715889E+02 0.  0.
         24    2    4    4    0    0  0.12085447287E+03 -0.44597398280E+03  0.62976236126E+03  0.78491033233E+03  0.77362789386E+02 0.  0.
         13    1    3    3    0    0  0.18834575706E+03  0.20156608616E+03  0.59790474372E+03  0.65847786133E+03  0.00000000000E+00 0. -1.
        -13    1    3    3    0    0  0.10973206676E+03  0.51018653777E+02  0.38392620243E+03  0.40254609478E+03  0.00000000000E+00 0.  1.
          2    1    6    6  502    0  0.44237793666E+02 -0.27522770889E+03  0.41647156029E+03  0.50115450179E+03  0.00000000000E+00 0. -1.
          1    1    5    5  503    0 -0.14240651251E+03  0.10139576161E+03  0.51022167096E+03  0.53933928912E+03  0.00000000000E+00 0. -1.
         -2    1    5    5    0  503 -0.27652578419E+03  0.91993481259E+02  0.72201901973E+03  0.77861465101E+03  0.00000000000E+00 0.  1.
         -1    1    6    6    0  502  0.76616679204E+02 -0.17074627391E+03  0.21329080098E+03  0.28375583054E+03  0.00000000000E+00 0.  1.
<mgrwt>
<rscale>  0 0.13866495E+04</rscale>
<asrwt>0</asrwt>
<pdfrwt beam="1">  1        2 0.46213244E+00 0.13866495E+04</pdfrwt>
<pdfrwt beam="2">  1       -2 0.24619558E-01 0.13866495E+04</pdfrwt>
<totfact> 0.25119474E+01</totfact>
</mgrwt>
</event>
<event>
12    1  0.1504874E-007  0.1204549E+04  0.7818608E-02  0.9108884E-01
          1   -1    0    0  501    0  0.00000000000E+00  0.00000000000E+00  0.29145996581E+04  0.29145996581E+04  0.00000000000E+00 0. -1.
         -1   -1    0    0    0  501 -0.00000000000E+00 -0.00000000000E+00 -0.12445431026E+03  0.12445431026E+03  0.00000000000E+00 0.  1.
         23    2    1    2    0    0  0.29911404354E+02  0.22758214796E+03  0.27454220280E+03  0.36906701805E+03  0.90270241542E+02 0.  0.
        254    2    1    2    0    0 -0.29911404354E+02 -0.22758214796E+03  0.25156031451E+04  0.26699869504E+04  0.86480217702E+03 0.  0.
        -24    2    4    4    0    0  0.23966281813E+03 -0.32957566581E+03  0.58954136949E+03  0.72091153184E+03  0.78077042125E+02 0.  0.
         24    2    4    4    0    0 -0.26957422248E+03  0.10199351785E+03  0.19260617756E+04  0.19490754185E+04  0.78154235983E+02 0.  0.
         13    1    3    3    0    0  0.18271776382E+01  0.18670712538E+03  0.16643365818E+03  0.25012607185E+03  0.00000000000E+00 0.  1.
        -13    1    3    3    0    0  0.28084226716E+02  0.40875022587E+02  0.10810854462E+03  0.11894094619E+03  0.00000000000E+00 0. -1.
          4    1    6    6  502    0 -0.28281063959E+02  0.39343477008E+02  0.26180233776E+03  0.26624836491E+03  0.00000000000E+00 0. -1.
          3    1    5    5  503    0  0.42261140242E+01 -0.44565188699E+02  0.74897973723E+02  0.87256074581E+02  0.00000000000E+00 0. -1.
         -4    1    5    5    0  503  0.23543670410E+03 -0.28501047711E+03  0.51464339577E+03  0.63365545726E+03  0.00000000000E+00 0.  1.
         -3    1    6    6    0  502 -0.24129315852E+03  0.62650040838E+02  0.16642594378E+04  0.16828270536E+04  0.00000000000E+00 0.  1.
<mgrwt>
<rscale>  0 0.12045489E+04</rscale>
<asrwt>0</asrwt>
<pdfrwt beam="1">  1        1 0.44839990E+00 0.12045489E+04</pdfrwt>
<pdfrwt beam="2">  1       -1 0.19146819E-01 0.12045489E+04</pdfrwt>
<totfact> 0.15186897E+01</totfact>
</mgrwt>
</event>
<event>
12    1  0.1504874E-007  0.1882260E+04  0.7818608E-02  0.8663737E-01
         -2   -1    0    0    0  501 -0.00000000000E+00  0.00000000000E+00  0.38507488577E+03  0.38507488577E+03  0.00000000000E+00 0.  1.
          2   -1    0    0  501    0  0.00000000000E+00 -0.00000000000E+00 -0.23001387192E+04  0.23001387192E+04  0.00000000000E+00 0. -1.
         23    2    1    2    0    0 -0.21058227481E+02 -0.63023895437E+03 -0.12460348539E+04  0.13994201589E+04  0.90162827340E+02 0.  0.
        254    2    1    2    0    0  0.21058227481E+02  0.63023895437E+03 -0.66902897957E+03  0.12857934461E+04  0.89889956169E+03 0.  0.
        -24    2    4    4    0    0  0.67698455321E+02  0.69585054339E+03 -0.10600007520E+03  0.71156260025E+03  0.79336363386E+02 0.  0.
         24    2    4    4    0    0 -0.46640227839E+02 -0.65611589016E+02 -0.56302890437E+03  0.57423084586E+03  0.79115900523E+02 0.  0.
         13    1    3    3    0    0 -0.15086116882E+02 -0.11502663581E+03 -0.30913303620E+03  0.33018472396E+03  0.00000000000E+00 0. -1.
        -13    1    3    3    0    0 -0.59721105990E+01 -0.51521231856E+03 -0.93690181769E+03  0.10692354349E+04  0.00000000000E+00 0.  1.
          4    1    6    6  502    0 -0.27431235349E+02  0.12251214122E+02 -0.10413908118E+03  0.10838594535E+03  0.00000000000E+00 0. -1.
          3    1    5    5  503    0  0.34543798647E+02  0.98065397816E+02 -0.28909453663E+02  0.10791595241E+03  0.00000000000E+00 0. -1.
         -4    1    5    5    0  503  0.33154656673E+02  0.59778514557E+03 -0.77090621540E+02  0.60364664784E+03  0.00000000000E+00 0.  1.
         -3    1    6    6    0  502 -0.19208992490E+02 -0.77862803137E+02 -0.45888982319E+03  0.46584490051E+03  0.00000000000E+00 0.  1.
<mgrwt>
<rscale>  0 0.18822600E+04</rscale>
<asrwt>0</asrwt>
<pdfrwt beam="1">  1        2 0.35386749E+00 0.18822600E+04</pdfrwt>
<pdfrwt beam="2">  1       -2 0.59242291E-01 0.18822600E+04</pdfrwt>
<totfact> 0.11314321E+01</totfact>
</mgrwt>
</event>
<event>
12    1  0.1504874E-007  0.1807140E+04  0.7818608E-02  0.8702512E-01
         -2   -1    0    0    0  501 -0.00000000000E+00  0.00000000000E+00  0.20325345673E+04  0.20325345673E+04  0.00000000000E+00 0.  1.
          2   -1    0    0  501    0  0.00000000000E+00 -0.00000000000E+00 -0.40168497300E+03  0.40168497300E+03  0.00000000000E+00 0. -1.
         23    2    1    2    0    0 -0.60457727942E+03 -0.12052005689E+03  0.97614099202E+03  0.11581270263E+04  0.91477876165E+02 0.  0.
        254    2    1    2    0    0  0.60457727942E+03  0.12052005689E+03  0.65470860231E+03  0.12760925140E+04  0.90538940767E+03 0.  0.
        -24    2    4    4    0    0  0.40981251060E+03  0.34356332483E+03 -0.12261219789E+02  0.54183203124E+03  0.86310836804E+02 0.  0.
         24    2    4    4    0    0  0.19476476882E+03 -0.22304326794E+03  0.66696982210E+03  0.73426048279E+03  0.81290211287E+02 0.  0.
         13    1    3    3    0    0 -0.68577809123E+02 -0.12793939410E+02  0.17327394526E+03  0.18678988435E+03  0.00000000000E+00 0.  1.
        -13    1    3    3    0    0 -0.53599947030E+03 -0.10772611748E+03  0.80286704676E+03  0.97133714195E+03  0.00000000000E+00 0. -1.
          4    1    6    6  502    0  0.13154033892E+03 -0.95699836177E+02  0.31159233166E+03  0.35149836494E+03  0.00000000000E+00 0. -1.
          1    1    5    5  503    0  0.14581487519E+02  0.23662686547E+02 -0.18381502125E+02  0.33322997063E+02  0.00000000000E+00 0. -1.
         -2    1    5    5    0  503  0.39523102308E+03  0.31990063829E+03  0.61202823357E+01  0.50850903418E+03  0.00000000000E+00 0.  1.
         -3    1    6    6    0  502  0.63224429897E+02 -0.12734343176E+03  0.35537749044E+03  0.38276211785E+03  0.00000000000E+00 0.  1.
<mgrwt>
<rscale>  0 0.18071398E+04</rscale>
<asrwt>0</asrwt>
<pdfrwt beam="1">  1        2 0.61797689E-01 0.18071398E+04</pdfrwt>
<pdfrwt beam="2">  1       -2 0.31269762E+00 0.18071398E+04</pdfrwt>
<totfact> 0.19877346E+00</totfact>
</mgrwt>
</event>
<event>
12    1  0.1504874E-007  0.2441711E+04  0.7818608E-02  0.8424051E-01
         -2   -1    0    0    0  501 -0.00000000000E+00  0.00000000000E+00  0.77319712136E+03  0.77319712136E+03  0.00000000000E+00 0.  1.
          2   -1    0    0  501    0  0.00000000000E+00 -0.00000000000E+00 -0.19276947660E+04  0.19276947660E+04  0.00000000000E+00 0. -1.
         23    2    1    2    0    0  0.35765854686E+03 -0.77486411884E+02  0.59158593262E+03  0.70181337828E+03  0.92974846520E+02 0.  0.
        254    2    1    2    0    0 -0.35765854686E+03  0.77486411884E+02 -0.17460835773E+04  0.19990785091E+04  0.90198849579E+03 0.  0.
        -24    2    4    4    0    0  0.21231721294E+02  0.29155179518E+03 -0.14137055454E+04  0.14457941097E+04  0.79397754364E+02 0.  0.
         24    2    4    4    0    0 -0.37889026815E+03 -0.21406538330E+03 -0.33237803192E+03  0.55328439939E+03  0.79162155619E+02 0.  0.
         13    1    3    3    0    0  0.34785880747E+03 -0.91639045705E+02  0.57225758891E+03  0.67593062713E+03  0.00000000000E+00 0.  1.
        -13    1    3    3    0    0  0.97997393912E+01  0.14152633821E+02  0.19328343712E+02  0.25882751146E+02  0.00000000000E+00 0. -1.
          4    1    6    6  502    0 -0.34633139114E+03 -0.19131023876E+03 -0.32680467540E+03  0.51317281281E+03  0.00000000000E+00 0. -1.
          3    1    5    5  503    0  0.17132795354E+02  0.28232155464E+03 -0.14023855419E+04  0.14306237105E+04  0.00000000000E+00 0. -1.
         -4    1    5    5    0  503  0.40989259400E+01  0.92302405429E+01 -0.11320003536E+02  0.15170399283E+02  0.00000000000E+00 0.  1.
         -3    1    6    6    0  502 -0.32558877008E+02 -0.22755144542E+02 -0.55733565160E+01  0.40111586581E+02  0.00000000000E+00 0.  1.
<mgrwt>
<rscale>  0 0.24417109E+04</rscale>
<asrwt>0</asrwt>
<pdfrwt beam="1">  1        2 0.29656842E+00 0.24417109E+04</pdfrwt>
<pdfrwt beam="2">  1       -2 0.11895340E+00 0.24417109E+04</pdfrwt>
<totfact> 0.35645807E+00</totfact>
</mgrwt>
</event>
<event>
12    1  0.1504874E-007  0.2383619E+04  0.7818608E-02  0.8445662E-01
         -1   -1    0    0    0  501 -0.00000000000E+00  0.00000000000E+00  0.11467870899E+04  0.11467870899E+04  0.00000000000E+00 0.  1.
          1   -1    0    0  501    0  0.00000000000E+00 -0.00000000000E+00 -0.12385999460E+04  0.12385999460E+04  0.00000000000E+00 0. -1.
         23    2    1    2    0    0  0.26187825109E+03 -0.20859072483E+03  0.92584225414E+03  0.98880779155E+03  0.92014456454E+02 0.  0.
        254    2    1    2    0    0 -0.26187825109E+03  0.20859072483E+03 -0.10176551103E+04  0.13965792443E+04  0.89594718221E+03 0.  0.
        -24    2    4    4    0    0 -0.57276424623E+03  0.24546669191E+03 -0.74318897824E+03  0.97292747200E+03  0.77105316233E+02 0.  0.
         24    2    4    4    0    0  0.31088599514E+03 -0.36875967079E+02 -0.27446613206E+03  0.42365177234E+03  0.78353223555E+02 0.  0.
         13    1    3    3    0    0 -0.75260469375E+01 -0.71962339212E+01  0.20330709416E+02  0.22842173944E+02  0.00000000000E+00 0. -1.
        -13    1    3    3    0    0  0.26940429803E+03 -0.20139449091E+03  0.90551154473E+03  0.96596561761E+03  0.00000000000E+00 0.  1.
          4    1    6    6  502    0  0.48731240061E+02 -0.26238207720E+02 -0.79071467836E+02  0.96516704917E+02  0.00000000000E+00 0. -1.
          3    1    5    5  503    0 -0.75395968870E+02  0.55002582601E+02 -0.14006495364E+03  0.16830932075E+03  0.00000000000E+00 0. -1.
         -4    1    5    5    0  503 -0.49736827736E+03  0.19046410931E+03 -0.60312402460E+03  0.80461815124E+03  0.00000000000E+00 0.  1.
         -3    1    6    6    0  502  0.26215475508E+03 -0.10637759360E+02 -0.19539466423E+03  0.32713506743E+03  0.00000000000E+00 0.  1.
<mgrwt>
<rscale>  0 0.23836195E+04</rscale>
<asrwt>0</asrwt>
<pdfrwt beam="1">  1        1 0.19055384E+00 0.23836195E+04</pdfrwt>
<pdfrwt beam="2">  1       -1 0.17642878E+00 0.23836195E+04</pdfrwt>
<totfact> 0.19850130E+00</totfact>
</mgrwt>
</event>
<event>
12    1  0.1504874E-007  0.1872092E+04  0.7818608E-02  0.8668874E-01
          1   -1    0    0  501    0  0.00000000000E+00  0.00000000000E+00  0.60405599127E+03  0.60405599127E+03  0.00000000000E+00 0. -1.
         -1   -1    0    0    0  501 -0.00000000000E+00 -0.00000000000E+00 -0.14504981594E+04  0.14504981594E+04  0.00000000000E+00 0.  1.
         23    2    1    2    0    0  0.72171846773E+02 -0.29136275574E+03  0.38634181182E+03  0.49855467943E+03  0.95894431165E+02 0.  0.
        254    2    1    2    0    0 -0.72171846773E+02  0.29136275574E+03 -0.12327839800E+04  0.15559994713E+04  0.90070915528E+03 0.  0.
        -24    2    4    4    0    0 -0.12081887377E+03 -0.29299392947E+03 -0.26152743217E+03  0.41839508456E+03  0.78836578056E+02 0.  0.
         24    2    4    4    0    0  0.48647027001E+02  0.58435668520E+03 -0.97125654782E+03  0.11376043867E+04  0.83457715213E+02 0.  0.
         11    1    3    3    0    0  0.47186679417E+02 -0.60935102836E+02  0.57123838832E+02  0.95931238056E+02  0.00000000000E+00 0. -1.
        -11    1    3    3    0    0  0.24985167356E+02 -0.23042765290E+03  0.32921797299E+03  0.40262344138E+03  0.00000000000E+00 0.  1.
          2    1    6    6  502    0  0.67778482778E+02  0.47137620829E+03 -0.81316810094E+03  0.94235439876E+03  0.00000000000E+00 0. -1.
          1    1    5    5  503    0 -0.11926988465E+03 -0.27879876282E+03 -0.22044019720E+03  0.37489723402E+03  0.00000000000E+00 0. -1.
         -2    1    5    5    0  503 -0.15489891195E+01 -0.14195166643E+02 -0.41087234975E+02  0.43497850535E+02  0.00000000000E+00 0.  1.
         -1    1    6    6    0  502 -0.19131455777E+02  0.11298047691E+03 -0.15808844688E+03  0.19524998796E+03  0.00000000000E+00 0.  1.
<mgrwt>
<rscale>  0 0.18720920E+04</rscale>
<asrwt>0</asrwt>
<pdfrwt beam="1">  1        1 0.92931692E-01 0.18720920E+04</pdfrwt>
<pdfrwt beam="2">  1       -1 0.22315356E+00 0.18720920E+04</pdfrwt>
<totfact> 0.33339028E+00</totfact>
</mgrwt>
</event>
<event>
12    1  0.1504874E-007  0.1623206E+04  0.7818608E-02  0.8806417E-01
         -2   -1    0    0    0  501 -0.00000000000E+00  0.00000000000E+00  0.63498332831E+03  0.63498332831E+03  0.00000000000E+00 0.  1.
          2   -1    0    0  501    0  0.00000000000E+00 -0.00000000000E+00 -0.10373493845E+04  0.10373493845E+04  0.00000000000E+00 0. -1.
         23    2    1    2    0    0 -0.52967348764E+03 -0.18937041661E+03 -0.19244027705E+03  0.60113717238E+03  0.88980231421E+02 0.  0.
        254    2    1    2    0    0  0.52967348764E+03  0.18937041661E+03 -0.20992577917E+03  0.10711955405E+04  0.88711661858E+03 0.  0.
        -24    2    4    4    0    0  0.71037401405E+03  0.29450297289E+03 -0.12064915329E+02  0.77285930216E+03  0.76175441390E+02 0.  0.
         24    2    4    4    0    0 -0.18070052641E+03 -0.10513255628E+03 -0.19786086384E+03  0.29833623831E+03  0.78422286461E+02 0.  0.
         11    1    3    3    0    0 -0.31291833510E+03 -0.12410436056E+03 -0.15907575135E+03  0.37232361115E+03  0.00000000000E+00 0. -1.
        -11    1    3    3    0    0 -0.21675515254E+03 -0.65266056045E+02 -0.33364525697E+02  0.22881356122E+03  0.00000000000E+00 0.  1.
          4    1    6    6  502    0 -0.70573674067E+02  0.62708276542E+00 -0.60643890478E+02  0.93052233484E+02  0.00000000000E+00 0. -1.
          3    1    5    5  503    0  0.54033001896E+02  0.92203653654E+01 -0.16300601918E+02  0.57186449918E+02  0.00000000000E+00 0. -1.
         -4    1    5    5    0  503  0.65634101215E+03  0.28528260752E+03  0.42356865891E+01  0.71567285224E+03  0.00000000000E+00 0.  1.
         -3    1    6    6    0  502 -0.11012685234E+03 -0.10575963905E+03 -0.13721697336E+03  0.20528400482E+03  0.00000000000E+00 0.  1.
<mgrwt>
<rscale>  0 0.16232062E+04</rscale>
<asrwt>0</asrwt>
<pdfrwt beam="1">  1        2 0.15959221E+00 0.16232062E+04</pdfrwt>
<pdfrwt beam="2">  1       -2 0.97689744E-01 0.16232062E+04</pdfrwt>
<totfact> 0.19926151E+01</totfact>
</mgrwt>
</event>
<event>
12    1  0.1504874E-007  0.1654579E+04  0.7818608E-02  0.8787702E-01
         -2   -1    0    0    0  501 -0.00000000000E+00  0.00000000000E+00  0.54654398406E+03  0.54654398406E+03  0.00000000000E+00 0.  1.
          2   -1    0    0  501    0  0.00000000000E+00 -0.00000000000E+00 -0.12522471924E+04  0.12522471924E+04  0.00000000000E+00 0. -1.
         23    2    1    2    0    0  0.32328914216E+03  0.27474351415E+03 -0.67322180169E+03  0.80109163921E+03  0.92305753560E+02 0.  0.
        254    2    1    2    0    0 -0.32328914216E+03 -0.27474351415E+03 -0.32481406651E+02  0.99769953726E+03  0.90241312982E+03 0.  0.
        -24    2    4    4    0    0 -0.61271401033E+03 -0.43806782423E+02 -0.23065034462E+02  0.61909016929E+03  0.73506117098E+02 0.  0.
         24    2    4    4    0    0  0.28942486817E+03 -0.23093673172E+03 -0.94163721886E+01  0.37860936797E+03  0.78472014576E+02 0.  0.
         11    1    3    3    0    0  0.21080066494E+03  0.21902880098E+03 -0.52687807517E+03  0.60828532950E+03  0.00000000000E+00 0. -1.
        -11    1    3    3    0    0  0.11248847722E+03  0.55714713168E+02 -0.14634372652E+03  0.19280630971E+03  0.00000000000E+00 0.  1.
          2    1    6    6  502    0  0.12431719292E+03 -0.94024056312E+02  0.34568320391E+02  0.15965668291E+03  0.00000000000E+00 0. -1.
          1    1    5    5  503    0 -0.69942287385E+02 -0.25539902704E+02 -0.14977806009E+02  0.75950937240E+02  0.00000000000E+00 0. -1.
         -2    1    5    5    0  503 -0.54277172295E+03 -0.18266879719E+02 -0.80872284529E+01  0.54313923205E+03  0.00000000000E+00 0.  1.
         -1    1    6    6    0  502  0.16510767525E+03 -0.13691267541E+03 -0.43984692579E+02  0.21895268506E+03  0.00000000000E+00 0.  1.
<mgrwt>
<rscale>  0 0.16545793E+04</rscale>
<asrwt>0</asrwt>
<pdfrwt beam="1">  1        2 0.19265341E+00 0.16545793E+04</pdfrwt>
<pdfrwt beam="2">  1       -2 0.84083690E-01 0.16545793E+04</pdfrwt>
<totfact> 0.20798554E+01</totfact>
</mgrwt>
</event>
<event>
12    1  0.1504874E-007  0.1167545E+04  0.7818608E-02  0.9141749E-01
         -1   -1    0    0    0  501 -0.00000000000E+00  0.00000000000E+00  0.32340735827E+03  0.32340735827E+03  0.00000000000E+00 0.  1.
          1   -1    0    0  501    0  0.00000000000E+00 -0.00000000000E+00 -0.10537486679E+04  0.10537486679E+04  0.00000000000E+00 0. -1.
         23    2    1    2    0    0  0.85813212097E+02  0.19403420787E+03 -0.13871222400E+03  0.27017861319E+03  0.93499843564E+02 0.  0.
        254    2    1    2    0    0 -0.85813212097E+02 -0.19403420787E+03 -0.59162908568E+03  0.11069774130E+04  0.91124137128E+03 0.  0.
        -24    2    4    4    0    0  0.31654306166E+03 -0.35122869838E+03 -0.40995725419E+03  0.63104817085E+03  0.81214131823E+02 0.  0.
         24    2    4    4    0    0 -0.40235627376E+03  0.15719449051E+03 -0.18167183149E+03  0.47592924218E+03  0.83086162044E+02 0.  0.
         11    1    3    3    0    0  0.74192044067E+02  0.18597552616E+03 -0.90127619847E+02  0.21957764820E+03  0.00000000000E+00 0. -1.
        -11    1    3    3    0    0  0.11621168030E+02  0.80586817145E+01 -0.48584604151E+02  0.50600964989E+02  0.00000000000E+00 0.  1.
          4    1    6    6  502    0 -0.42308674400E+02  0.47153448348E+02 -0.28721690132E+02  0.69558659451E+02  0.00000000000E+00 0. -1.
          3    1    5    5  503    0  0.91572375730E+02 -0.10333198504E+03 -0.73456841708E+02  0.15639343568E+03  0.00000000000E+00 0. -1.
         -4    1    5    5    0  503  0.22497068593E+03 -0.24789671334E+03 -0.33650041248E+03  0.47465473517E+03  0.00000000000E+00 0.  1.
         -3    1    6    6    0  502 -0.36004759936E+03  0.11004104216E+03 -0.15295014135E+03  0.40637058273E+03  0.00000000000E+00 0.  1.
<mgrwt>
<rscale>  0 0.11675446E+04</rscale>
<asrwt>0</asrwt>
<pdfrwt beam="1">  1        1 0.16211518E+00 0.11675446E+04</pdfrwt>
<pdfrwt beam="2">  1       -1 0.49754979E-01 0.11675446E+04</pdfrwt>
<totfact> 0.55236708E+01</totfact>
</mgrwt>
</event>
<event>
12    1  0.2123710E-007  0.1793254E+04  0.7818608E-02  0.8709895E-01
         -1   -1    0    0    0  501 -0.00000000000E+00  0.00000000000E+00  0.12840130546E+04  0.12840130546E+04  0.00000000000E+00 0.  1.
          1   -1    0    0  501    0  0.00000000000E+00 -0.00000000000E+00 -0.62611500145E+03  0.62611500145E+03  0.00000000000E+00 0. -1.
         23    2    1    2    0    0 -0.67003342214E+01  0.63613545106E+03  0.39938102011E+03  0.75674993519E+03  0.91935078286E+02 0.  0.
        254    2    1    2    0    0  0.67003342214E+01 -0.63613545106E+03  0.25851703299E+03  0.11533781208E+04  0.92668054185E+03 0.  0.
        -24    2    4    4    0    0 -0.10026379729E+02 -0.55132699532E+03 -0.26393852443E+03  0.61778385629E+03  0.89058207742E+02 0.  0.
         24    2    4    4    0    0  0.16726713950E+02 -0.84808455740E+02  0.52245555742E+03  0.53559426451E+03  0.80181977894E+02 0.  0.
         11    1    3    3    0    0 -0.16188965604E+02  0.24514000874E+03  0.10471064917E+03  0.26705809582E+03  0.00000000000E+00 0.  1.
        -11    1    3    3    0    0  0.94886313828E+01  0.39099544231E+03  0.29467037095E+03  0.48969183937E+03  0.00000000000E+00 0. -1.
          2    1    6    6  502    0 -0.67578747656E+01 -0.68643271613E+02  0.47683355808E+03  0.48179644013E+03  0.00000000000E+00 0. -1.
          1    1    5    5  503    0 -0.50008609723E+01 -0.46266668432E+03 -0.25557862649E+03  0.52858859589E+03  0.00000000000E+00 0. -1.
         -2    1    5    5    0  503 -0.50255187566E+01 -0.88660310999E+02 -0.83598979424E+01  0.89195260406E+02  0.00000000000E+00 0.  1.
         -1    1    6    6    0  502  0.23484588716E+02 -0.16165184127E+02  0.45621999335E+02  0.53797824383E+02  0.00000000000E+00 0.  1.
<mgrwt>
<rscale>  0 0.17932538E+04</rscale>
<asrwt>0</asrwt>
<pdfrwt beam="1">  1        1 0.96325386E-01 0.17932538E+04</pdfrwt>
<pdfrwt beam="2">  1       -1 0.19754047E+00 0.17932538E+04</pdfrwt>
<totfact> 0.47556404E+00</totfact>
</mgrwt>
</event>
<event>
12    1  0.1504874E-007  0.1115610E+04  0.7818608E-02  0.9190110E-01
         -2   -1    0    0    0  501 -0.00000000000E+00  0.00000000000E+00  0.56756951029E+03  0.56756951029E+03  0.00000000000E+00 0.  1.
          2   -1    0    0  501    0  0.00000000000E+00 -0.00000000000E+00 -0.54820835087E+03  0.54820835087E+03  0.00000000000E+00 0. -1.
         23    2    1    2    0    0 -0.15824534393E+03  0.61489900539E+01 -0.76417971476E+02  0.19841318608E+03  0.91916740004E+02 0.  0.
        254    2    1    2    0    0  0.15824534393E+03 -0.61489900539E+01  0.95779130896E+02  0.91736467509E+03  0.89850147815E+03 0.  0.
        -24    2    4    4    0    0 -0.24231424198E+03  0.27329274662E+03 -0.96762544677E+02  0.38622938091E+03  0.80031415107E+02 0.  0.
         24    2    4    4    0    0  0.40055958590E+03 -0.27944173668E+03  0.19254167557E+03  0.53113529418E+03  0.80602343834E+02 0.  0.
         13    1    3    3    0    0 -0.16306519184E+03  0.97418443887E+01 -0.87862520916E+02  0.18548580243E+03  0.00000000000E+00 0. -1.
        -13    1    3    3    0    0  0.48198479118E+01 -0.35928543348E+01  0.11444549440E+02  0.12927383650E+02  0.00000000000E+00 0.  1.
          2    1    6    6  502    0  0.38248912933E+02 -0.53507917193E+02  0.90439654610E+01  0.66391790563E+02  0.00000000000E+00 0. -1.
          3    1    5    5  503    0 -0.22137115391E+03  0.27325074630E+03 -0.98531321751E+02  0.36521169135E+03  0.00000000000E+00 0. -1.
         -4    1    5    5    0  503 -0.20943088071E+02  0.42000323630E-01  0.17687770741E+01  0.21017689557E+02  0.00000000000E+00 0.  1.
         -1    1    6    6    0  502  0.36231067297E+03 -0.22593381949E+03  0.18349771011E+03  0.46474350361E+03  0.00000000000E+00 0.  1.
<mgrwt>
<rscale>  0 0.11156099E+04</rscale>
<asrwt>0</asrwt>
<pdfrwt beam="1">  1        2 0.84339746E-01 0.11156099E+04</pdfrwt>
<pdfrwt beam="2">  1       -2 0.87318387E-01 0.11156099E+04</pdfrwt>
<totfact> 0.62144013E+01</totfact>
</mgrwt>
</event>
<event>
12    1  0.1504874E-007  0.2527213E+04  0.7818608E-02  0.8393355E-01
         -2   -1    0    0    0  501 -0.00000000000E+00  0.00000000000E+00  0.65042865195E+03  0.65042865195E+03  0.00000000000E+00 0.  1.
          2   -1    0    0  501    0  0.00000000000E+00 -0.00000000000E+00 -0.24548442045E+04  0.24548442045E+04  0.00000000000E+00 0. -1.
         23    2    1    2    0    0 -0.30641211727E+03 -0.94421901230E+03 -0.13812757803E+04  0.17034121076E+04  0.90841061514E+02 0.  0.
        254    2    1    2    0    0  0.30641211727E+03  0.94421901230E+03 -0.42313977232E+03  0.14018607489E+04  0.89483426593E+03 0.  0.
        -24    2    4    4    0    0  0.28631916456E+03  0.10326100214E+04 -0.12666631339E+03  0.10821548674E+04  0.82174702760E+02 0.  0.
         24    2    4    4    0    0  0.20092952714E+02 -0.88391009122E+02 -0.29647345892E+03  0.31970588146E+03  0.78093799685E+02 0.  0.
         11    1    3    3    0    0 -0.20537936782E+03 -0.54286427749E+03 -0.86573435998E+03  0.10422947235E+04  0.00000000000E+00 0. -1.
        -11    1    3    3    0    0 -0.10103274945E+03 -0.40135473481E+03 -0.51554142028E+03  0.66111738416E+03  0.00000000000E+00 0.  1.
          4    1    6    6  502    0 -0.44056859146E+01 -0.31473401754E+01  0.37949978735E+01  0.66119458117E+01  0.00000000000E+00 0. -1.
          1    1    5    5  503    0  0.12704356956E+03  0.31685549356E+03 -0.46319842318E+02  0.34450399150E+03  0.00000000000E+00 0. -1.
         -2    1    5    5    0  503  0.15927559499E+03  0.71575452786E+03 -0.80346471075E+02  0.73765087590E+03  0.00000000000E+00 0.  1.
         -3    1    6    6    0  502  0.24498638629E+02 -0.85243668946E+02 -0.30026845680E+03  0.31309393565E+03  0.00000000000E+00 0.  1.
<mgrwt>
<rscale>  0 0.25272127E+04</rscale>
<asrwt>0</asrwt>
<pdfrwt beam="1">  1        2 0.37766834E+00 0.25272127E+04</pdfrwt>
<pdfrwt beam="2">  1       -2 0.10006595E+00 0.25272127E+04</pdfrwt>
<totfact> 0.27127295E+00</totfact>
</mgrwt>
</event>
<event>
12    1  0.1504874E-007  0.1440586E+04  0.7818608E-02  0.8924953E-01
         -1   -1    0    0    0  501 -0.00000000000E+00  0.00000000000E+00  0.19018423659E+03  0.19018423659E+03  0.00000000000E+00 0. -1.
          1   -1    0    0  501    0  0.00000000000E+00 -0.00000000000E+00 -0.27279974466E+04  0.27279974466E+04  0.00000000000E+00 0.  1.
         23    2    1    2    0    0  0.75182936772E+02  0.26945728577E+03 -0.10147227677E+03  0.31251259557E+03  0.95434776702E+02 0.  0.
        254    2    1    2    0    0 -0.75182936772E+02 -0.26945728577E+03 -0.24363409333E+04  0.26056690877E+04  0.88062168290E+03 0.  0.
        -24    2    4    4    0    0 -0.24423641154E+03 -0.10691238641E+03 -0.23094343713E+04  0.23260381401E+04  0.76711344281E+02 0.  0.
         24    2    4    4    0    0  0.16905347477E+03 -0.16254489935E+03 -0.12690656194E+03  0.27963094761E+03  0.84191862798E+02 0.  0.
         13    1    3    3    0    0  0.47526775984E+02  0.14871833192E+03 -0.10575323243E+03  0.18857275215E+03  0.00000000000E+00 0.  1.
        -13    1    3    3    0    0  0.27656160788E+02  0.12073895385E+03  0.42809556604E+01  0.12393984342E+03  0.00000000000E+00 0. -1.
          2    1    6    6  502    0  0.34405323668E+02 -0.59096004661E+01  0.39234288685E+01  0.35128947728E+02  0.00000000000E+00 0. -1.
          3    1    5    5  503    0 -0.13466630929E+02  0.91308282031E+01 -0.76356145145E+02  0.78070372573E+02  0.00000000000E+00 0. -1.
         -4    1    5    5    0  503 -0.23076978061E+03 -0.11604321461E+03 -0.22330782262E+04  0.22479677675E+04  0.00000000000E+00 0.  1.
         -1    1    6    6    0  502  0.13464815110E+03 -0.15663529889E+03 -0.13082999080E+03  0.24450199988E+03  0.00000000000E+00 0.  1.
<mgrwt>
<rscale>  0 0.14405861E+04</rscale>
<asrwt>0</asrwt>
<pdfrwt beam="1">  1        1 0.41969187E+00 0.14405861E+04</pdfrwt>
<pdfrwt beam="2">  1       -1 0.29259117E-01 0.14405861E+04</pdfrwt>
<totfact> 0.97628190E+00</totfact>
</mgrwt>
</event>
<event>
12    1  0.1504874E-007  0.1556306E+04  0.7818608E-02  0.8847850E-01
         -2   -1    0    0    0  501 -0.00000000000E+00  0.00000000000E+00  0.25499986943E+03  0.25499986943E+03  0.00000000000E+00 0.  1.
          2   -1    0    0  501    0  0.00000000000E+00 -0.00000000000E+00 -0.23745963265E+04  0.23745963265E+04  0.00000000000E+00 0. -1.
         23    2    1    2    0    0 -0.30683667498E+03  0.39326374410E+03 -0.50544789696E+03  0.71596096682E+03  0.91199846140E+02 0.  0.
        254    2    1    2    0    0  0.30683667498E+03 -0.39326374410E+03 -0.16141485601E+04  0.19136352291E+04  0.89873193914E+03 0.  0.
        -24    2    4    4    0    0  0.55371600882E+03 -0.36624601892E+03 -0.14695432360E+04  0.16147420952E+04  0.84244566149E+02 0.  0.
         24    2    4    4    0    0 -0.24687933384E+03 -0.27017725174E+02 -0.14460532413E+03  0.29889313387E+03  0.82140384458E+02 0.  0.
         13    1    3    3    0    0 -0.21485838992E+03  0.30920942409E+03 -0.32938872181E+03  0.50027145203E+03  0.00000000000E+00 0.  1.
        -13    1    3    3    0    0 -0.91978285064E+02  0.84054320010E+02 -0.17605917515E+03  0.21568951479E+03  0.00000000000E+00 0. -1.
          2    1    6    6  502    0 -0.25945041356E+02 -0.30240656100E+02 -0.14063691350E+02  0.42254347312E+02  0.00000000000E+00 0. -1.
          1    1    5    5  503    0  0.64855824305E+02 -0.37493393485E+02 -0.11043728043E+03  0.13344821246E+03  0.00000000000E+00 0. -1.
         -2    1    5    5    0  503  0.48886018451E+03 -0.32875262544E+03 -0.13591059555E+04  0.14812938828E+04  0.00000000000E+00 0.  1.
         -1    1    6    6    0  502 -0.22093429248E+03  0.32229309258E+01 -0.13054163278E+03  0.25663878656E+03  0.00000000000E+00 0.  1.
<mgrwt>
<rscale>  0 0.15563056E+04</rscale>
<asrwt>0</asrwt>
<pdfrwt beam="1">  1        2 0.36532250E+00 0.15563056E+04</pdfrwt>
<pdfrwt beam="2">  1       -2 0.39230751E-01 0.15563056E+04</pdfrwt>
<totfact> 0.24339179E+01</totfact>
</mgrwt>
</event>
<event>
12    1  0.1504874E-007  0.1095660E+04  0.7818608E-02  0.9209432E-01
          2   -1    0    0  501    0  0.00000000000E+00  0.00000000000E+00  0.12428718189E+04  0.12428718189E+04  0.00000000000E+00 0. -1.
         -2   -1    0    0    0  501 -0.00000000000E+00 -0.00000000000E+00 -0.24147127053E+03  0.24147127053E+03  0.00000000000E+00 0.  1.
         23    2    1    2    0    0  0.10124107799E+03  0.31814862795E+02  0.23414025093E+03  0.27300648498E+03  0.91918128631E+02 0.  0.
        254    2    1    2    0    0 -0.10124107799E+03 -0.31814862795E+02  0.76726029745E+03  0.12113366045E+04  0.93133563440E+03 0.  0.
        -24    2    4    4    0    0 -0.92982769127E+02  0.34673906456E+03  0.73574180042E+03  0.82251538683E+03  0.79635359190E+02 0.  0.
         24    2    4    4    0    0 -0.82583088613E+01 -0.37855392736E+03  0.31518497030E+02  0.38882121763E+03  0.82566627916E+02 0.  0.
         13    1    3    3    0    0  0.31794055596E+02 -0.26357291739E+01  0.16830185714E+03  0.17129893215E+03  0.00000000000E+00 0. -1.
        -13    1    3    3    0    0  0.69447022393E+02  0.34450591969E+02  0.65838393785E+02  0.10170755283E+03  0.00000000000E+00 0.  1.
          4    1    6    6  502    0  0.26030752482E+02 -0.26356160624E+03  0.35233006971E+00  0.26484418909E+03  0.00000000000E+00 0. -1.
          3    1    5    5  503    0 -0.48441419870E+02  0.59791746558E+02  0.13933196389E+03  0.15916978444E+03  0.00000000000E+00 0. -1.
         -4    1    5    5    0  503 -0.44541349257E+02  0.28694731800E+03  0.59640983653E+03  0.66334560239E+03  0.00000000000E+00 0.  1.
         -3    1    6    6    0  502 -0.34289061343E+02 -0.11499232112E+03  0.31166166960E+02  0.12397702854E+03  0.00000000000E+00 0.  1.
<mgrwt>
<rscale>  0 0.10956602E+04</rscale>
<asrwt>0</asrwt>
<pdfrwt beam="1">  1        2 0.19121104E+00 0.10956602E+04</pdfrwt>
<pdfrwt beam="2">  1       -2 0.37149427E-01 0.10956602E+04</pdfrwt>
<totfact> 0.12103780E+02</totfact>
</mgrwt>
</event>
<event>
12    1  0.1504874E-007  0.1716842E+04  0.7818608E-02  0.8751816E-01
         -4   -1    0    0    0  501 -0.00000000000E+00  0.00000000000E+00  0.73232373640E+03  0.73232373640E+03  0.00000000000E+00 0.  1.
          4   -1    0    0  501    0  0.00000000000E+00 -0.00000000000E+00 -0.10062310506E+04  0.10062310506E+04  0.00000000000E+00 0. -1.
         23    2    1    2    0    0 -0.33232112106E+03  0.19394306326E+03  0.38829152175E+03  0.55361920155E+03  0.87593807898E+02 0.  0.
        254    2    1    2    0    0  0.33232112106E+03 -0.19394306326E+03 -0.66219883594E+03  0.11849355854E+04  0.90416469963E+03 0.  0.
        -24    2    4    4    0    0 -0.58681969087E+02  0.17921851112E+02  0.19278184015E+03  0.21798654842E+03  0.81169767503E+02 0.  0.
         24    2    4    4    0    0  0.39100309014E+03 -0.21186491437E+03 -0.85498067609E+03  0.96694903703E+03  0.78919739507E+02 0.  0.
         11    1    3    3    0    0 -0.32120940561E+03  0.19635376098E+03  0.39006912279E+03  0.54211087635E+03  0.00000000000E+00 0.  1.
        -11    1    3    3    0    0 -0.11111715445E+02 -0.24106977213E+01 -0.17776010359E+01  0.11508325208E+02  0.00000000000E+00 0. -1.
          2    1    6    6  502    0  0.24944822150E+03 -0.17696947255E+03 -0.58343256218E+03  0.65873831225E+03  0.00000000000E+00 0. -1.
          3    1    5    5  503    0 -0.74666116350E+02  0.30810077882E+01  0.11454756019E+03  0.13676865535E+03  0.00000000000E+00 0. -1.
         -4    1    5    5    0  503  0.15984147263E+02  0.14840843324E+02  0.78234279954E+02  0.81217893066E+02  0.00000000000E+00 0.  1.
         -1    1    6    6    0  502  0.14155486864E+03 -0.34895441815E+02 -0.27154811392E+03  0.30821072478E+03  0.00000000000E+00 0.  1.
<mgrwt>
<rscale>  0 0.17168423E+04</rscale>
<asrwt>0</asrwt>
<pdfrwt beam="1">  1        4 0.15480478E+00 0.17168423E+04</pdfrwt>
<pdfrwt beam="2">  1       -4 0.11266519E+00 0.17168423E+04</pdfrwt>
<totfact> 0.32191790E-01</totfact>
</mgrwt>
</event>
<event>
12    1  0.1504874E-007  0.1907159E+04  0.7818608E-02  0.8651301E-01
         -2   -1    0    0    0  501 -0.00000000000E+00  0.00000000000E+00  0.18621624784E+04  0.18621624784E+04  0.00000000000E+00 0.  1.
          2   -1    0    0  501    0  0.00000000000E+00 -0.00000000000E+00 -0.48831059243E+03  0.48831059243E+03  0.00000000000E+00 0. -1.
         23    2    1    2    0    0 -0.70032909423E+03 -0.47882925567E+02  0.25176639257E+03  0.75065301695E+03  0.85673920440E+02 0.  0.
        254    2    1    2    0    0  0.70032909423E+03  0.47882925567E+02  0.11220854934E+04  0.15998200538E+04  0.89866274845E+03 0.  0.
        -24    2    4    4    0    0 -0.17443288004E+03  0.16624175253E+03  0.25055016133E+03  0.35670916483E+03  0.80018091745E+02 0.  0.
         24    2    4    4    0    0  0.87476197427E+03 -0.11835882696E+03  0.87153533203E+03  0.12431108890E+04  0.80830216076E+02 0.  0.
         11    1    3    3    0    0 -0.63398282667E+03 -0.36307164037E+02  0.20020655690E+03  0.66583413858E+03  0.00000000000E+00 0. -1.
        -11    1    3    3    0    0 -0.66346267563E+02 -0.11575761530E+02  0.51559835663E+02  0.84818878371E+02  0.00000000000E+00 0.  1.
          4    1    6    6  502    0  0.73624585186E+03 -0.72879951192E+02  0.70806466445E+03  0.10240727565E+04  0.00000000000E+00 0. -1.
          1    1    5    5  503    0 -0.11170037981E+03  0.14375882058E+03  0.21306407487E+03  0.28024966252E+03  0.00000000000E+00 0. -1.
         -2    1    5    5    0  503 -0.62732500236E+02  0.22482931946E+02  0.37486086462E+02  0.76459502307E+02  0.00000000000E+00 0.  1.
         -3    1    6    6    0  502  0.13851612241E+03 -0.45478875769E+02  0.16347066759E+03  0.21903813246E+03  0.00000000000E+00 0.  1.
<mgrwt>
<rscale>  0 0.19071588E+04</rscale>
<asrwt>0</asrwt>
<pdfrwt beam="1">  1        2 0.75124708E-01 0.19071588E+04</pdfrwt>
<pdfrwt beam="2">  1       -2 0.28648653E+00 0.19071588E+04</pdfrwt>
<totfact> 0.22796468E+00</totfact>
</mgrwt>
</event>
<event>
12    1  0.1504874E-007  0.1910198E+04  0.7818608E-02  0.8649797E-01
         -1   -1    0    0    0  501 -0.00000000000E+00  0.00000000000E+00  0.11326969442E+04  0.11326969442E+04  0.00000000000E+00 0.  1.
          1   -1    0    0  501    0  0.00000000000E+00 -0.00000000000E+00 -0.80534699304E+03  0.80534699304E+03  0.00000000000E+00 0. -1.
         23    2    1    2    0    0 -0.50111762296E+03  0.22385799773E+02  0.66723138534E+03  0.83971371498E+03  0.91112049014E+02 0.  0.
        254    2    1    2    0    0  0.50111762296E+03 -0.22385799773E+02 -0.33988143421E+03  0.10983302222E+04  0.91607308205E+03 0.  0.
        -24    2    4    4    0    0  0.34103963515E+03  0.13584419272E+02 -0.65025499126E+03  0.73871620099E+03  0.79859268405E+02 0.  0.
         24    2    4    4    0    0  0.16007798781E+03 -0.35970219045E+02  0.31037355704E+03  0.35961402124E+03  0.77920988967E+02 0.  0.
         13    1    3    3    0    0 -0.35673636027E+03  0.24218403581E+02  0.53772450079E+03  0.64575150063E+03  0.00000000000E+00 0.  1.
        -13    1    3    3    0    0 -0.14438126269E+03 -0.18326038077E+01  0.12950688455E+03  0.19396221435E+03  0.00000000000E+00 0. -1.
          2    1    6    6  502    0  0.11348080467E+03  0.77128644468E+01  0.16068321782E+03  0.19686664978E+03  0.00000000000E+00 0. -1.
          1    1    5    5  503    0  0.32941195306E+03 -0.33866319776E+01 -0.62074387032E+03  0.70274224054E+03  0.00000000000E+00 0. -1.
         -2    1    5    5    0  503  0.11627682098E+02  0.16971051250E+02 -0.29511120934E+02  0.35973960447E+02  0.00000000000E+00 0.  1.
         -1    1    6    6    0  502  0.46597183134E+02 -0.43683083492E+02  0.14969033923E+03  0.16274737146E+03  0.00000000000E+00 0.  1.
<mgrwt>
<rscale>  0 0.19101980E+04</rscale>
<asrwt>0</asrwt>
<pdfrwt beam="1">  1        1 0.12389954E+00 0.19101980E+04</pdfrwt>
<pdfrwt beam="2">  1       -1 0.17426107E+00 0.19101980E+04</pdfrwt>
<totfact> 0.46824835E+00</totfact>
</mgrwt>
</event>
<event>
12    1  0.1504874E-007  0.1554073E+04  0.7818608E-02  0.8849270E-01
         -1   -1    0    0    0  501 -0.00000000000E+00  0.00000000000E+00  0.80421983576E+03  0.80421983576E+03  0.00000000000E+00 0.  1.
          1   -1    0    0  501    0  0.00000000000E+00 -0.00000000000E+00 -0.75077193608E+03  0.75077193608E+03  0.00000000000E+00 0. -1.
         23    2    1    2    0    0  0.41963238407E+03 -0.27820013808E+03 -0.10812849688E+03  0.52303495721E+03  0.91581330165E+02 0.  0.
        254    2    1    2    0    0 -0.41963238407E+03  0.27820013808E+03  0.16157639656E+03  0.10319568146E+04  0.88619483228E+03 0.  0.
        -24    2    4    4    0    0  0.16389246200E+03  0.36673473285E+02  0.32498824407E+03  0.37463650654E+03  0.80805139132E+02 0.  0.
         24    2    4    4    0    0 -0.58352484607E+03  0.24152666480E+03 -0.16341184751E+03  0.65732030809E+03  0.80809527532E+02 0.  0.
         13    1    3    3    0    0  0.35096937044E+03 -0.23103054173E+03 -0.53880341018E+02  0.42362448153E+03  0.00000000000E+00 0.  1.
        -13    1    3    3    0    0  0.68663013632E+02 -0.47169596346E+02 -0.54248155866E+02  0.99410475682E+02  0.00000000000E+00 0. -1.
          4    1    6    6  502    0 -0.45332183387E+02  0.95101681517E+01 -0.33109085663E+02  0.56935592580E+02  0.00000000000E+00 0. -1.
          3    1    5    5  503    0  0.31667239289E+00 -0.24870084834E+01 -0.42432575771E+01  0.49285624137E+01  0.00000000000E+00 0. -1.
         -4    1    5    5    0  503  0.16357578960E+03  0.39160481768E+02  0.32923150164E+03  0.36970794413E+03  0.00000000000E+00 0.  1.
         -3    1    6    6    0  502 -0.53819266268E+03  0.23201649664E+03 -0.13030276185E+03  0.60038471551E+03  0.00000000000E+00 0.  1.
<mgrwt>
<rscale>  0 0.15540729E+04</rscale>
<asrwt>0</asrwt>
<pdfrwt beam="1">  1        1 0.11550337E+00 0.15540729E+04</pdfrwt>
<pdfrwt beam="2">  1       -1 0.12372613E+00 0.15540729E+04</pdfrwt>
<totfact> 0.13523953E+01</totfact>
</mgrwt>
</event>
<event>
12    1  0.1504874E-007  0.2034994E+04  0.7818608E-02  0.8590432E-01
         -1   -1    0    0    0  501 -0.00000000000E+00  0.00000000000E+00  0.20363507612E+03  0.20363507612E+03  0.00000000000E+00 0.  1.
          1   -1    0    0  501    0  0.00000000000E+00 -0.00000000000E+00 -0.50840969574E+04  0.50840969574E+04  0.00000000000E+00 0. -1.
         23    2    1    2    0    0 -0.68962934600E+03 -0.38681625785E+03 -0.24324281546E+04  0.25593231981E+04  0.90625894548E+02 0.  0.
        254    2    1    2    0    0  0.68962934600E+03  0.38681625785E+03 -0.24480337266E+04  0.27284088354E+04  0.90891704470E+03 0.  0.
        -24    2    4    4    0    0  0.80536520198E+03  0.40332543110E+03 -0.24186227195E+04  0.25821383159E+04  0.80111868848E+02 0.  0.
         24    2    4    4    0    0 -0.11573585598E+03 -0.16509173251E+02 -0.29411007129E+02  0.14627051943E+03  0.82841513471E+02 0.  0.
         13    1    3    3    0    0 -0.20540209788E+03 -0.81339591085E+02 -0.59090921417E+03  0.63085644189E+03  0.00000000000E+00 0. -1.
        -13    1    3    3    0    0 -0.48422724812E+03 -0.30547666676E+03 -0.18415189405E+04  0.19284667562E+04  0.00000000000E+00 0.  1.
          4    1    6    6  502    0  0.66991164051E+01 -0.15263246021E+02 -0.15986048138E+02  0.23095423243E+02  0.00000000000E+00 0. -1.
          1    1    5    5  503    0  0.19591031328E+03  0.91217339222E+02 -0.68121573056E+03  0.71467218037E+03  0.00000000000E+00 0. -1.
         -4    1    5    5    0  503  0.60945488870E+03  0.31210809188E+03 -0.17374069889E+04  0.18674661356E+04  0.00000000000E+00 0.  1.
         -3    1    6    6    0  502 -0.12243497239E+03 -0.12459272304E+01 -0.13424958991E+02  0.12317509619E+03  0.00000000000E+00 0.  1.
<mgrwt>
<rscale>  0 0.20349943E+04</rscale>
<asrwt>0</asrwt>
<pdfrwt beam="1">  1        1 0.78216865E+00 0.20349943E+04</pdfrwt>
<pdfrwt beam="2">  1       -1 0.31328478E-01 0.20349943E+04</pdfrwt>
<totfact> 0.59926137E-02</totfact>
</mgrwt>
</event>
<event>
12    1  0.1504874E-007  0.2206851E+04  0.7818608E-02  0.8515582E-01
          1   -1    0    0  501    0  0.00000000000E+00  0.00000000000E+00  0.37744770734E+04  0.37744770734E+04  0.00000000000E+00 0. -1.
         -1   -1    0    0    0  501 -0.00000000000E+00 -0.00000000000E+00 -0.32257401581E+03  0.32257401581E+03  0.00000000000E+00 0.  1.
         23    2    1    2    0    0  0.49443082860E+03  0.23322577107E+03  0.28106172646E+04  0.28647865435E+04  0.92609001714E+02 0.  0.
        254    2    1    2    0    0 -0.49443082860E+03 -0.23322577107E+03  0.64128579303E+03  0.12322645458E+04  0.89909528852E+03 0.  0.
        -24    2    4    4    0    0 -0.63202517193E+03 -0.30591859946E+03  0.16457542331E+03  0.72504989294E+03  0.74634240440E+02 0.  0.
         24    2    4    4    0    0  0.13759434333E+03  0.72692828389E+02  0.47671036973E+03  0.50721465282E+03  0.76141163732E+02 0.  0.
         13    1    3    3    0    0  0.27740595616E+03  0.90266996183E+02  0.13404320511E+04  0.13718091262E+04  0.00000000000E+00 0. -1.
        -13    1    3    3    0    0  0.21702487243E+03  0.14295877489E+03  0.14701852134E+04  0.14929774172E+04  0.00000000000E+00 0.  1.
          2    1    6    6  502    0  0.14636977506E+03  0.63240170862E+02  0.42516552784E+03  0.45408056150E+03  0.00000000000E+00 0. -1.
          3    1    5    5  503    0 -0.52633286040E+03 -0.26283126873E+03  0.16464293911E+03  0.61091231217E+03  0.00000000000E+00 0. -1.
         -4    1    5    5    0  503 -0.10569231153E+03 -0.43087330729E+02 -0.67515803420E-01  0.11413758077E+03  0.00000000000E+00 0.  1.
         -1    1    6    6    0  502 -0.87754317238E+01  0.94526575266E+01  0.51544841883E+02  0.53134091326E+02  0.00000000000E+00 0.  1.
<mgrwt>
<rscale>  0 0.22068514E+04</rscale>
<asrwt>0</asrwt>
<pdfrwt beam="1">  1        1 0.58068875E+00 0.22068514E+04</pdfrwt>
<pdfrwt beam="2">  1       -1 0.49626774E-01 0.22068514E+04</pdfrwt>
<totfact> 0.55767091E-01</totfact>
</mgrwt>
</event>
<event>
12    1  0.1504874E-007  0.2446132E+04  0.7818608E-02  0.8422432E-01
          2   -1    0    0  501    0  0.00000000000E+00  0.00000000000E+00  0.11776937404E+04  0.11776937404E+04  0.00000000000E+00 0.  1.
         -2   -1    0    0    0  501 -0.00000000000E+00 -0.00000000000E+00 -0.12701863661E+04  0.12701863661E+04  0.00000000000E+00 0. -1.
         23    2    1    2    0    0 -0.70929159901E+03 -0.64146568482E+03  0.40144869963E+03  0.10411572421E+04  0.90964538017E+02 0.  0.
        254    2    1    2    0    0  0.70929159901E+03  0.64146568482E+03 -0.49394132534E+03  0.14067228644E+04  0.90571429660E+03 0.  0.
        -24    2    4    4    0    0  0.62659601518E+03  0.12518515073E+02 -0.43223086967E+03  0.76484078512E+03  0.73339092057E+02 0.  0.
         24    2    4    4    0    0  0.82695583832E+02  0.62894716975E+03 -0.61710455679E+02  0.64188207927E+03  0.76100732106E+02 0.  0.
         11    1    3    3    0    0 -0.56085576157E+03 -0.54161097103E+03  0.35264988280E+03  0.85572400286E+03  0.00000000000E+00 0.  1.
        -11    1    3    3    0    0 -0.14843583744E+03 -0.99854713787E+02  0.48798816822E+02  0.18543323927E+03  0.00000000000E+00 0. -1.
          4    1    6    6  502    0  0.73978604060E+02  0.52127939264E+03 -0.22558981504E+02  0.52698571773E+03  0.00000000000E+00 0. -1.
          3    1    5    5  503    0  0.26639859330E+03  0.84535961339E+01 -0.22803427585E+03  0.35076958928E+03  0.00000000000E+00 0. -1.
         -4    1    5    5    0  503  0.36019742188E+03  0.40649189387E+01 -0.20419659381E+03  0.41407119584E+03  0.00000000000E+00 0.  1.
         -3    1    6    6    0  502  0.87169797724E+01  0.10766777711E+03 -0.39151474175E+02  0.11489636153E+03  0.00000000000E+00 0.  1.
<mgrwt>
<rscale>  0 0.24461321E+04</rscale>
<asrwt>0</asrwt>
<pdfrwt beam="1">  1        2 0.18118365E+00 0.24461321E+04</pdfrwt>
<pdfrwt beam="2">  1       -2 0.19541329E+00 0.24461321E+04</pdfrwt>
<totfact> 0.24955289E+00</totfact>
</mgrwt>
</event>
<event>
12    1  0.1504874E-007  0.1521602E+04  0.7818608E-02  0.8870214E-01
          1   -1    0    0  501    0  0.00000000000E+00  0.00000000000E+00  0.76189189909E+03  0.76189189909E+03  0.00000000000E+00 0. -1.
         -1   -1    0    0    0  501 -0.00000000000E+00 -0.00000000000E+00 -0.75971137837E+03  0.75971137837E+03  0.00000000000E+00 0.  1.
         23    2    1    2    0    0 -0.41820893002E+03  0.26932179565E+01 -0.24291337848E+03  0.49162060422E+03  0.88192666787E+02 0.  0.
        254    2    1    2    0    0  0.41820893002E+03 -0.26932179565E+01  0.24509389920E+03  0.10299826732E+04  0.90878343141E+03 0.  0.
        -24    2    4    4    0    0 -0.15553018936E+03  0.35146442904E+02  0.39202527603E+03  0.43070675792E+03  0.79997387573E+02 0.  0.
         24    2    4    4    0    0  0.57373911938E+03 -0.37839660861E+02 -0.14693137684E+03  0.59927591533E+03  0.83272901680E+02 0.  0.
         13    1    3    3    0    0 -0.30479160299E+03  0.72212412094E+01 -0.21963102440E+03  0.37574972316E+03  0.00000000000E+00 0.  1.
        -13    1    3    3    0    0 -0.11341732703E+03 -0.45280232529E+01 -0.23282354084E+02  0.11587088106E+03  0.00000000000E+00 0. -1.
          2    1    6    6  502    0  0.36532549966E+03 -0.46534248561E+02 -0.59297991259E+02  0.37302065460E+03  0.00000000000E+00 0. -1.
          3    1    5    5  503    0 -0.15278266738E+02  0.25237100538E+02  0.28843751751E+02  0.41258922589E+02  0.00000000000E+00 0. -1.
         -4    1    5    5    0  503 -0.14025192262E+03  0.99093423666E+01  0.36318152428E+03  0.38944783533E+03  0.00000000000E+00 0.  1.
         -1    1    6    6    0  502  0.20841361972E+03  0.86945877002E+01 -0.87633385577E+02  0.22625526073E+03  0.00000000000E+00 0.  1.
<mgrwt>
<rscale>  0 0.15216017E+04</rscale>
<asrwt>0</asrwt>
<pdfrwt beam="1">  1        1 0.11721414E+00 0.15216017E+04</pdfrwt>
<pdfrwt beam="2">  1       -1 0.11687867E+00 0.15216017E+04</pdfrwt>
<totfact> 0.15237022E+01</totfact>
</mgrwt>
</event>
<event>
12    1  0.1504874E-007  0.1531951E+04  0.7818608E-02  0.8863480E-01
          2   -1    0    0  501    0  0.00000000000E+00  0.00000000000E+00  0.19980974077E+03  0.19980974077E+03  0.00000000000E+00 0. -1.
         -2   -1    0    0    0  501 -0.00000000000E+00 -0.00000000000E+00 -0.29363839189E+04  0.29363839189E+04  0.00000000000E+00 0.  1.
         23    2    1    2    0    0  0.78553869244E+02 -0.37588243339E+03 -0.15383009228E+04  0.15881659618E+04  0.91886228904E+02 0.  0.
        254    2    1    2    0    0 -0.78553869244E+02  0.37588243339E+03 -0.11982732554E+04  0.15480276979E+04  0.90170540911E+03 0.  0.
        -24    2    4    4    0    0  0.15906060211E+02 -0.10886834441E+03 -0.10017605686E+04  0.10108857426E+04  0.79122870348E+02 0.  0.
         24    2    4    4    0    0 -0.94459929454E+02  0.48475077781E+03 -0.19651268677E+03  0.53714195531E+03  0.77448364946E+02 0.  0.
         13    1    3    3    0    0  0.87110374833E+02 -0.35744193607E+03 -0.15035391193E+04  0.15478962621E+04  0.00000000000E+00 0.  1.
        -13    1    3    3    0    0 -0.85565055899E+01 -0.18440497326E+02 -0.34761803501E+02  0.40269699678E+02  0.00000000000E+00 0. -1.
          4    1    6    6  502    0 -0.76152868734E+02  0.46733476835E+03 -0.19417375470E+03  0.51176605215E+03  0.00000000000E+00 0. -1.
          3    1    5    5  503    0  0.20320441766E+02 -0.62722293508E+02 -0.28080731629E+03  0.28844367793E+03  0.00000000000E+00 0. -1.
         -4    1    5    5    0  503 -0.44143815555E+01 -0.46146050907E+02 -0.72095325231E+03  0.72244206467E+03  0.00000000000E+00 0.  1.
         -3    1    6    6    0  502 -0.18307060720E+02  0.17416009459E+02 -0.23389320759E+01  0.25375903155E+02  0.00000000000E+00 0.  1.
<mgrwt>
<rscale>  0 0.15319505E+04</rscale>
<asrwt>0</asrwt>
<pdfrwt beam="1">  1        2 0.30739959E-01 0.15319505E+04</pdfrwt>
<pdfrwt beam="2">  1       -2 0.45175139E+00 0.15319505E+04</pdfrwt>
<totfact> 0.56877362E-01</totfact>
</mgrwt>
</event>
<event>
12    1  0.1504874E-007  0.2646434E+04  0.7818608E-02  0.8352598E-01
         -2   -1    0    0    0  501 -0.00000000000E+00  0.00000000000E+00  0.80722709803E+03  0.80722709803E+03  0.00000000000E+00 0. -1.
          2   -1    0    0  501    0  0.00000000000E+00 -0.00000000000E+00 -0.21690342949E+04  0.21690342949E+04  0.00000000000E+00 0.  1.
         23    2    1    2    0    0  0.25402295237E+03  0.90936528135E+03  0.17069835126E+03  0.96456468828E+03  0.98864733390E+02 0.  0.
        254    2    1    2    0    0 -0.25402295237E+03 -0.90936528135E+03 -0.15325055481E+04  0.20116967047E+04  0.89826360340E+03 0.  0.
        -24    2    4    4    0    0 -0.35882243921E+03 -0.98792000187E+03 -0.98126329290E+03  0.14402620439E+04  0.82083079917E+02 0.  0.
         24    2    4    4    0    0  0.10479948684E+03  0.78554720523E+02 -0.55124225525E+03  0.57143466081E+03  0.74268237089E+02 0.  0.
         13    1    3    3    0    0  0.61076895797E+01  0.15288968118E+02 -0.10081204105E+02  0.19305105395E+02  0.00000000000E+00 0.  1.
        -13    1    3    3    0    0  0.24791526279E+03  0.89407631323E+03  0.18077955537E+03  0.94525958289E+03  0.00000000000E+00 0. -1.
          2    1    6    6  502    0  0.10274972381E+03  0.64927681966E+02 -0.54040081682E+03  0.55390085073E+03  0.00000000000E+00 0. -1.
          1    1    5    5  503    0 -0.30866584807E+03 -0.90511250395E+03 -0.90970552799E+03  0.13198740085E+04  0.00000000000E+00 0. -1.
         -4    1    5    5    0  503 -0.50156591134E+02 -0.82807497925E+02 -0.71557764910E+02  0.12038803539E+03  0.00000000000E+00 0.  1.
         -1    1    6    6    0  502  0.20497630298E+01  0.13627038558E+02 -0.10841438431E+02  0.17533810071E+02  0.00000000000E+00 0.  1.
<mgrwt>
<rscale>  0 0.26464340E+04</rscale>
<asrwt>0</asrwt>
<pdfrwt beam="1">  1        2 0.33369757E+00 0.26464340E+04</pdfrwt>
<pdfrwt beam="2">  1       -2 0.12418879E+00 0.26464340E+04</pdfrwt>
<totfact> 0.23082697E+00</totfact>
</mgrwt>
</event>
<event>
12    1  0.1504874E-007  0.1863687E+04  0.7818608E-02  0.8673146E-01
         -2   -1    0    0    0  501 -0.00000000000E+00  0.00000000000E+00  0.58395547442E+03  0.58395547442E+03  0.00000000000E+00 0.  1.
          2   -1    0    0  501    0  0.00000000000E+00 -0.00000000000E+00 -0.14869844968E+04  0.14869844968E+04  0.00000000000E+00 0. -1.
         23    2    1    2    0    0  0.46720044844E+03 -0.81263866908E+02  0.27676068598E+03  0.55529678388E+03  0.82933502204E+02 0.  0.
        254    2    1    2    0    0 -0.46720044844E+03  0.81263866908E+02 -0.11797897083E+04  0.15156431873E+04  0.82485783035E+03 0.  0.
        -24    2    4    4    0    0  0.81456436343E+02 -0.14496237728E+03 -0.76328068480E+03  0.78506509406E+03  0.77977921719E+02 0.  0.
         24    2    4    4    0    0 -0.54865688479E+03  0.22622624419E+03 -0.41650902352E+03  0.73057809325E+03  0.89788044197E+02 0.  0.
         13    1    3    3    0    0  0.11704168988E+03  0.49798387145E+00  0.10311459248E+03  0.15598597482E+03  0.00000000000E+00 0. -1.
        -13    1    3    3    0    0  0.35015875856E+03 -0.81761850779E+02  0.17364609350E+03  0.39931080906E+03  0.00000000000E+00 0.  1.
          2    1    6    6  502    0 -0.54769172378E+03  0.22296766778E+03 -0.40046952092E+03  0.71418249934E+03  0.00000000000E+00 0. -1.
          3    1    5    5  503    0  0.87446110760E+02 -0.14136551286E+03 -0.62871203190E+03  0.65031519248E+03  0.00000000000E+00 0. -1.
         -4    1    5    5    0  503 -0.59896744169E+01 -0.35968644255E+01 -0.13456865290E+03  0.13474990158E+03  0.00000000000E+00 0.  1.
         -1    1    6    6    0  502 -0.96516100140E+00  0.32585764043E+01 -0.16039502602E+02  0.16395593910E+02  0.00000000000E+00 0.  1.
<mgrwt>
<rscale>  0 0.18636875E+04</rscale>
<asrwt>0</asrwt>
<pdfrwt beam="1">  1        2 0.22876684E+00 0.18636875E+04</pdfrwt>
<pdfrwt beam="2">  1       -2 0.89839305E-01 0.18636875E+04</pdfrwt>
<totfact> 0.12869562E+01</totfact>
</mgrwt>
</event>
<event>
12    1  0.1504874E-007  0.1824329E+04  0.7818608E-02  0.8693468E-01
          1   -1    0    0  501    0  0.00000000000E+00  0.00000000000E+00  0.12285206640E+04  0.12285206640E+04  0.00000000000E+00 0. -1.
         -1   -1    0    0    0  501 -0.00000000000E+00 -0.00000000000E+00 -0.67727317168E+03  0.67727317168E+03  0.00000000000E+00 0.  1.
         23    2    1    2    0    0  0.29721613291E+03 -0.13700673025E+03 -0.42135114911E+03  0.54146207268E+03  0.92391079138E+02 0.  0.
        254    2    1    2    0    0 -0.29721613291E+03  0.13700673025E+03  0.97259864147E+03  0.13643317630E+04  0.89907995665E+03 0.  0.
        -24    2    4    4    0    0 -0.44956265617E+03 -0.18919319209E+03  0.83358245905E+03  0.96898968028E+03  0.78617038214E+02 0.  0.
         24    2    4    4    0    0  0.15234652325E+03  0.32619992234E+03  0.13901618242E+03  0.39534208276E+03  0.85755530128E+02 0.  0.
         11    1    3    3    0    0  0.20512116628E+03 -0.10100758106E+03 -0.22076351809E+03  0.31782661186E+03  0.00000000000E+00 0. -1.
        -11    1    3    3    0    0  0.92094966637E+02 -0.35999149192E+02 -0.20058763101E+03  0.22363546082E+03  0.00000000000E+00 0.  1.
          4    1    6    6  502    0  0.50930385730E+02  0.35297734004E+02  0.20760822389E+02  0.65351709716E+02  0.00000000000E+00 0. -1.
          3    1    5    5  503    0 -0.80326417491E+02 -0.19403210255E+02  0.94458425799E+02  0.12550383309E+03  0.00000000000E+00 0. -1.
         -4    1    5    5    0  503 -0.36923623868E+03 -0.16978998183E+03  0.73912403325E+03  0.84348584719E+03  0.00000000000E+00 0.  1.
         -3    1    6    6    0  502  0.10141613752E+03  0.29090218833E+03  0.11825536003E+03  0.32999037305E+03  0.00000000000E+00 0.  1.
<mgrwt>
<rscale>  0 0.18243290E+04</rscale>
<asrwt>0</asrwt>
<pdfrwt beam="1">  1        1 0.18900318E+00 0.18243290E+04</pdfrwt>
<pdfrwt beam="2">  1       -1 0.10419587E+00 0.18243290E+04</pdfrwt>
<totfact> 0.83140815E+00</totfact>
</mgrwt>
</event>
<event>
12    1  0.1504874E-007  0.3046091E+04  0.7818608E-02  0.8230691E-01
          1   -1    0    0  501    0  0.00000000000E+00  0.00000000000E+00  0.25916129734E+04  0.25916129734E+04  0.00000000000E+00 0. -1.
         -1   -1    0    0    0  501 -0.00000000000E+00 -0.00000000000E+00 -0.89506693035E+03  0.89506693035E+03  0.00000000000E+00 0.  1.
         23    2    1    2    0    0 -0.11200551065E+04  0.41917512572E+03 -0.27205660092E+02  0.11999122417E+04  0.93904271916E+02 0.  0.
        254    2    1    2    0    0  0.11200551065E+04 -0.41917512572E+03  0.17237517031E+04  0.22867676620E+04  0.90981051789E+03 0.  0.
        -24    2    4    4    0    0  0.40229487167E+03 -0.58354027164E+03  0.11360296395E+04  0.13414118554E+04  0.80386638647E+02 0.  0.
         24    2    4    4    0    0  0.71776023481E+03  0.16436514593E+03  0.58772206361E+03  0.94535580658E+03  0.78004622311E+02 0.  0.
         13    1    3    3    0    0 -0.42295298965E+03  0.13154118128E+03  0.27721837471E+02  0.44380267473E+03  0.00000000000E+00 0. -1.
        -13    1    3    3    0    0 -0.69710211684E+03  0.28763394444E+03 -0.54927497563E+02  0.75610956698E+03  0.00000000000E+00 0.  1.
          2    1    6    6  502    0  0.43424792588E+03  0.13835014577E+03  0.36277387792E+03  0.58250915055E+03  0.00000000000E+00 0. -1.
          3    1    5    5  503    0  0.35619381278E+03 -0.46662338213E+03  0.91403462838E+03  0.10863105978E+04  0.00000000000E+00 0. -1.
         -4    1    5    5    0  503  0.46101058888E+02 -0.11691688952E+03  0.22199501111E+03  0.25510125763E+03  0.00000000000E+00 0.  1.
         -1    1    6    6    0  502  0.28351230893E+03  0.26015000153E+02  0.22494818569E+03  0.36284665603E+03  0.00000000000E+00 0.  1.
<mgrwt>
<rscale>  0 0.30460907E+04</rscale>
<asrwt>0</asrwt>
<pdfrwt beam="1">  1        1 0.39870968E+00 0.30460907E+04</pdfrwt>
<pdfrwt beam="2">  1       -1 0.13770261E+00 0.30460907E+04</pdfrwt>
<totfact> 0.43371291E-01</totfact>
</mgrwt>
</event>
<event>
12    1  0.1504874E-007  0.1277978E+04  0.7818608E-02  0.9047213E-01
          1   -1    0    0  501    0  0.00000000000E+00  0.00000000000E+00  0.39518037890E+03  0.39518037890E+03  0.00000000000E+00 0. -1.
         -1   -1    0    0    0  501 -0.00000000000E+00 -0.00000000000E+00 -0.10332166874E+04  0.10332166874E+04  0.00000000000E+00 0.  1.
         23    2    1    2    0    0  0.22653272059E+03  0.16468571163E+03 -0.11379292364E+02  0.29469819018E+03  0.90989438334E+02 0.  0.
        254    2    1    2    0    0 -0.22653272059E+03 -0.16468571163E+03 -0.62665701614E+03  0.11336988761E+04  0.90229466847E+03 0.  0.
        -24    2    4    4    0    0 -0.10783161187E+03  0.22202548459E+03  0.11656216452E+03  0.28369762583E+03  0.77295746186E+02 0.  0.
         24    2    4    4    0    0 -0.11870110872E+03 -0.38671119621E+03 -0.74321918066E+03  0.85000125030E+03  0.80572157235E+02 0.  0.
         13    1    3    3    0    0  0.79887805911E+02  0.76354158029E+02 -0.46579062983E+02  0.11992342594E+03  0.00000000000E+00 0.  1.
        -13    1    3    3    0    0  0.14664491467E+03  0.88331553598E+02  0.35199770620E+02  0.17477476423E+03  0.00000000000E+00 0. -1.
          2    1    6    6  502    0 -0.96287767048E+02 -0.36551582264E+03 -0.65121860265E+03  0.75296667863E+03  0.00000000000E+00 0. -1.
          3    1    5    5  503    0 -0.77212355636E+02  0.17992374987E+03  0.55601355746E+02  0.20353332502E+03  0.00000000000E+00 0. -1.
         -4    1    5    5    0  503 -0.30619256232E+02  0.42101734714E+02  0.60960808776E+02  0.80164300812E+02  0.00000000000E+00 0.  1.
         -1    1    6    6    0  502 -0.22413341671E+02 -0.21195373574E+02 -0.92000578009E+02  0.97034571673E+02  0.00000000000E+00 0.  1.
<mgrwt>
<rscale>  0 0.12779780E+04</rscale>
<asrwt>0</asrwt>
<pdfrwt beam="1">  1        1 0.60796981E-01 0.12779780E+04</pdfrwt>
<pdfrwt beam="2">  1       -1 0.15895642E+00 0.12779780E+04</pdfrwt>
<totfact> 0.17859474E+01</totfact>
</mgrwt>
</event>
<event>
12    1  0.1504874E-007  0.1564438E+04  0.7818608E-02  0.8842698E-01
         -2   -1    0    0    0  501 -0.00000000000E+00  0.00000000000E+00  0.71440328834E+03  0.71440328834E+03  0.00000000000E+00 0.  1.
          2   -1    0    0  501    0  0.00000000000E+00 -0.00000000000E+00 -0.85647210546E+03  0.85647210546E+03  0.00000000000E+00 0. -1.
         23    2    1    2    0    0 -0.93336642349E+01 -0.45632718256E+03  0.26404198977E+03  0.53524984830E+03  0.91938092820E+02 0.  0.
        254    2    1    2    0    0  0.93336642349E+01  0.45632718256E+03 -0.40611080689E+03  0.10356255455E+04  0.83622524967E+03 0.  0.
        -24    2    4    4    0    0  0.36879415630E+02  0.65843844470E+03 -0.12008854011E+03  0.67521592478E+03  0.81203514987E+02 0.  0.
         24    2    4    4    0    0 -0.27545751396E+02 -0.20211126214E+03 -0.28602226678E+03  0.36040962072E+03  0.80489918075E+02 0.  0.
         13    1    3    3    0    0 -0.79760511600E+01 -0.24469729360E+03  0.88647016744E+02  0.26038178981E+03  0.00000000000E+00 0. -1.
        -13    1    3    3    0    0 -0.13576130749E+01 -0.21162988896E+03  0.17539497303E+03  0.27486805849E+03  0.00000000000E+00 0.  1.
          4    1    6    6  502    0  0.23321365730E+02 -0.24102830901E+02 -0.34686650030E+02  0.48249313438E+02  0.00000000000E+00 0. -1.
          1    1    5    5  503    0 -0.27918546564E+01  0.16965860841E+03 -0.65157724610E+02  0.18176184125E+03  0.00000000000E+00 0. -1.
         -2    1    5    5    0  503  0.39671270287E+02  0.48877983629E+03 -0.54930815500E+02  0.49345408352E+03  0.00000000000E+00 0.  1.
         -3    1    6    6    0  502 -0.50867117125E+02 -0.17800843124E+03 -0.25133561675E+03  0.31216030729E+03  0.00000000000E+00 0.  1.
<mgrwt>
<rscale>  0 0.15644379E+04</rscale>
<asrwt>0</asrwt>
<pdfrwt beam="1">  1        2 0.13176494E+00 0.15644379E+04</pdfrwt>
<pdfrwt beam="2">  1       -2 0.10990820E+00 0.15644379E+04</pdfrwt>
<totfact> 0.19885618E+01</totfact>
</mgrwt>
</event>
<event>
12    1  0.1504874E-007  0.1402348E+04  0.7818608E-02  0.8952120E-01
          2   -1    0    0  501    0  0.00000000000E+00  0.00000000000E+00  0.11311486678E+04  0.11311486678E+04  0.00000000000E+00 0. -1.
         -2   -1    0    0    0  501 -0.00000000000E+00 -0.00000000000E+00 -0.43464252952E+03  0.43464252952E+03  0.00000000000E+00 0.  1.
         23    2    1    2    0    0 -0.31756178434E+03  0.17537336249E+03  0.23048334354E+02  0.37484498385E+03  0.91521762771E+02 0.  0.
        254    2    1    2    0    0  0.31756178434E+03 -0.17537336249E+03  0.67345780393E+03  0.11909462135E+04  0.91280127440E+03 0.  0.
        -24    2    4    4    0    0  0.59552356451E+03 -0.96186517912E+01  0.59994430208E+03  0.84970688721E+03  0.85602536361E+02 0.  0.
         24    2    4    4    0    0 -0.27796178017E+03 -0.16575471070E+03  0.73513501847E+02  0.34123932625E+03  0.79389341039E+02 0.  0.
         11    1    3    3    0    0 -0.25755627881E+01  0.15489009375E+01 -0.12939493725E+02  0.13283942022E+02  0.00000000000E+00 0. -1.
        -11    1    3    3    0    0 -0.31498622155E+03  0.17382446155E+03  0.35987828079E+02  0.36156104183E+03  0.00000000000E+00 0.  1.
          4    1    6    6  502    0 -0.17609769272E+03 -0.14334964750E+03  0.33485029766E+02  0.22952290962E+03  0.00000000000E+00 0. -1.
          1    1    5    5  503    0  0.36050247093E+03  0.19970299142E+02  0.40807155789E+03  0.54486993013E+03  0.00000000000E+00 0. -1.
         -2    1    5    5    0  503  0.23502109358E+03 -0.29588950933E+02  0.19187274419E+03  0.30483695709E+03  0.00000000000E+00 0.  1.
         -3    1    6    6    0  502 -0.10186408744E+03 -0.22405063204E+02  0.40028472080E+02  0.11171641663E+03  0.00000000000E+00 0.  1.
<mgrwt>
<rscale>  0 0.14023485E+04</rscale>
<asrwt>0</asrwt>
<pdfrwt beam="1">  1        2 0.17402287E+00 0.14023485E+04</pdfrwt>
<pdfrwt beam="2">  1       -2 0.66868082E-01 0.14023485E+04</pdfrwt>
<totfact> 0.41665645E+01</totfact>
</mgrwt>
</event>
<event>
12    1  0.1504874E-007  0.2235859E+04  0.7818608E-02  0.8503649E-01
         -2   -1    0    0    0  501 -0.00000000000E+00  0.00000000000E+00  0.91384126623E+03  0.91384126623E+03  0.00000000000E+00 0.  1.
          2   -1    0    0  501    0  0.00000000000E+00 -0.00000000000E+00 -0.13675970233E+04  0.13675970233E+04  0.00000000000E+00 0. -1.
         23    2    1    2    0    0 -0.62291099772E+03  0.22113280579E+03 -0.86109724672E+03  0.10893431485E+04  0.90896633746E+02 0.  0.
        254    2    1    2    0    0  0.62291099772E+03 -0.22113280579E+03  0.40734148969E+03  0.11920951410E+04  0.90456945948E+03 0.  0.
        -24    2    4    4    0    0  0.81209872373E+03 -0.33900706398E+03  0.33335229661E+03  0.94443404710E+03  0.80011181440E+02 0.  0.
         24    2    4    4    0    0 -0.18918772601E+03  0.11787425820E+03  0.73989193086E+02  0.24766109387E+03  0.78582951724E+02 0.  0.
         13    1    3    3    0    0 -0.96025519941E+02  0.18513715735E+01 -0.10996593792E+03  0.14600286147E+03  0.00000000000E+00 0.  1.
        -13    1    3    3    0    0 -0.52688547778E+03  0.21928143421E+03 -0.75113130881E+03  0.94334028704E+03  0.00000000000E+00 0. -1.
          2    1    6    6  502    0 -0.13558683070E+03  0.10576750364E+03  0.24476823093E+02  0.17369418054E+03  0.00000000000E+00 0. -1.
          3    1    5    5  503    0  0.24685664033E+02 -0.24301793143E+02  0.45181369995E+01  0.34933833466E+02  0.00000000000E+00 0. -1.
         -4    1    5    5    0  503  0.78741305970E+03 -0.31470527084E+03  0.32883415961E+03  0.90950021364E+03  0.00000000000E+00 0.  1.
         -1    1    6    6    0  502 -0.53600895317E+02  0.12106754557E+02  0.49512369993E+02  0.73966913327E+02  0.00000000000E+00 0.  1.
<mgrwt>
<rscale>  0 0.22358592E+04</rscale>
<asrwt>0</asrwt>
<pdfrwt beam="1">  1        2 0.21039954E+00 0.22358592E+04</pdfrwt>
<pdfrwt beam="2">  1       -2 0.14059097E+00 0.22358592E+04</pdfrwt>
<totfact> 0.48910191E+00</totfact>
</mgrwt>
</event>
<event>
12    1  0.1954584E-007  0.2082397E+04  0.7818608E-02  0.8569038E-01
         -2   -1    0    0    0  501 -0.00000000000E+00  0.00000000000E+00  0.64951974382E+03  0.64951974382E+03  0.00000000000E+00 0.  1.
          2   -1    0    0  501    0  0.00000000000E+00 -0.00000000000E+00 -0.16690705375E+04  0.16690705375E+04  0.00000000000E+00 0. -1.
         23    2    1    2    0    0 -0.20032434015E+03  0.32039068092E+03  0.42500165363E+03  0.57570634124E+03  0.89617833512E+02 0.  0.
        254    2    1    2    0    0  0.20032434015E+03 -0.32039068092E+03 -0.14445524473E+04  0.17428839401E+04  0.89896197135E+03 0.  0.
        -24    2    4    4    0    0  0.42972321443E+02 -0.46379575505E+02 -0.14114167257E+04  0.14150036135E+04  0.78360495169E+02 0.  0.
         24    2    4    4    0    0  0.15735201871E+03 -0.27401110541E+03 -0.33135721600E+02  0.32788032658E+03  0.81029555289E+02 0.  0.
         13    1    3    3    0    0 -0.28978556913E+02  0.45831464220E+02  0.21216603265E+02  0.58227348620E+02  0.00000000000E+00 0. -1.
        -13    1    3    3    0    0 -0.17134578324E+03  0.27455921670E+03  0.40378505036E+03  0.51747899262E+03  0.00000000000E+00 0.  1.
          4    1    6    6  502    0  0.14318552913E+02  0.70122459800E+00  0.63047733516E+01  0.15660869723E+02  0.00000000000E+00 0. -1.
          3    1    5    5  503    0  0.28833456378E+02  0.10037608280E+02 -0.21306728328E+03  0.21524355738E+03  0.00000000000E+00 0. -1.
         -4    1    5    5    0  503  0.14138865066E+02 -0.56417183784E+02 -0.11983494425E+04  0.11997600562E+04  0.00000000000E+00 0.  1.
         -3    1    6    6    0  502  0.14303346579E+03 -0.27471233001E+03 -0.39440494952E+02  0.31221945686E+03  0.00000000000E+00 0.  1.
<mgrwt>
<rscale>  0 0.20823970E+04</rscale>
<asrwt>0</asrwt>
<pdfrwt beam="1">  1        2 0.25678008E+00 0.20823970E+04</pdfrwt>
<pdfrwt beam="2">  1       -2 0.99926117E-01 0.20823970E+04</pdfrwt>
<totfact> 0.77925158E+00</totfact>
</mgrwt>
</event>
<event>
12    1  0.1504874E-007  0.1164517E+04  0.7818608E-02  0.9144494E-01
          2   -1    0    0  501    0  0.00000000000E+00  0.00000000000E+00  0.23879599204E+04  0.23879599204E+04  0.00000000000E+00 0. -1.
         -2   -1    0    0    0  501 -0.00000000000E+00 -0.00000000000E+00 -0.14197272902E+03  0.14197272902E+03  0.00000000000E+00 0.  1.
         23    2    1    2    0    0  0.20776961034E+02 -0.21596551836E+03  0.38896313896E+03  0.45449016595E+03  0.90532868336E+02 0.  0.
        254    2    1    2    0    0 -0.20776961034E+02  0.21596551836E+03  0.18570240524E+04  0.20754424835E+04  0.90102740450E+03 0.  0.
        -24    2    4    4    0    0 -0.12460354972E+03 -0.11505415111E+03  0.16539553471E+04  0.16645850093E+04  0.80693623832E+02 0.  0.
         24    2    4    4    0    0  0.10382658869E+03  0.33101966948E+03  0.20306870536E+03  0.41085747413E+03  0.84929281496E+02 0.  0.
         13    1    3    3    0    0  0.34066240084E+02 -0.15289829035E+03  0.33725607559E+03  0.37186026466E+03  0.00000000000E+00 0. -1.
        -13    1    3    3    0    0 -0.13289279051E+02 -0.63067228010E+02  0.51707063365E+02  0.82629901297E+02  0.00000000000E+00 0.  1.
          4    1    6    6  502    0 -0.11085140485E+02  0.12261073795E+02  0.19238044960E+02  0.25363687509E+02  0.00000000000E+00 0. -1.
          1    1    5    5  503    0 -0.29018863046E+02 -0.16313887351E+02  0.69895544073E+03  0.69974777275E+03  0.00000000000E+00 0. -1.
         -2    1    5    5    0  503 -0.95584686675E+02 -0.98740263762E+02  0.95499990632E+03  0.96483723658E+03  0.00000000000E+00 0.  1.
         -3    1    6    6    0  502  0.11491172917E+03  0.31875859568E+03  0.18383066040E+03  0.38549378662E+03  0.00000000000E+00 0.  1.
<mgrwt>
<rscale>  0 0.11645174E+04</rscale>
<asrwt>0</asrwt>
<pdfrwt beam="1">  1        2 0.36737842E+00 0.11645174E+04</pdfrwt>
<pdfrwt beam="2">  1       -2 0.21841960E-01 0.11645174E+04</pdfrwt>
<totfact> 0.73469567E+01</totfact>
</mgrwt>
</event>
<event>
12    1  0.1504874E-007  0.1474884E+04  0.7818608E-02  0.8901328E-01
         -2   -1    0    0    0  501 -0.00000000000E+00  0.00000000000E+00  0.62338998489E+03  0.62338998489E+03  0.00000000000E+00 0.  1.
          2   -1    0    0  501    0  0.00000000000E+00 -0.00000000000E+00 -0.87236085744E+03  0.87236085744E+03  0.00000000000E+00 0. -1.
         23    2    1    2    0    0  0.44134650756E+03  0.89589022174E+02 -0.13338776246E+03  0.47835531276E+03  0.90656370111E+02 0.  0.
        254    2    1    2    0    0 -0.44134650756E+03 -0.89589022174E+02 -0.11558311009E+03  0.10173955296E+04  0.90494269189E+03 0.  0.
        -24    2    4    4    0    0  0.25269283954E+03  0.93699152030E+02  0.25912361184E+02  0.28148264658E+03  0.76992386721E+02 0.  0.
         24    2    4    4    0    0 -0.69403934710E+03 -0.18328817420E+03 -0.14149547127E+03  0.73591288299E+03  0.79130479762E+02 0.  0.
         13    1    3    3    0    0  0.36481321145E+03  0.63354482340E+02 -0.73006033467E+02  0.37740210731E+03  0.00000000000E+00 0. -1.
        -13    1    3    3    0    0  0.76533296112E+02  0.26234539834E+02 -0.60381728997E+02  0.10095320545E+03  0.00000000000E+00 0.  1.
          4    1    6    6  502    0 -0.33119101708E+03 -0.64231683632E+02 -0.99500776296E+02  0.35172944639E+03  0.00000000000E+00 0. -1.
          1    1    5    5  503    0  0.60964312271E+01 -0.90515558633E+01 -0.59709339133E+01  0.12439822710E+02  0.00000000000E+00 0. -1.
         -2    1    5    5    0  503  0.24659640832E+03  0.10275070789E+03  0.31883295097E+02  0.26904282387E+03  0.00000000000E+00 0.  1.
         -3    1    6    6    0  502 -0.36284833003E+03 -0.11905649057E+03 -0.41994694977E+02  0.38418343660E+03  0.00000000000E+00 0.  1.
<mgrwt>
<rscale>  0 0.14748844E+04</rscale>
<asrwt>0</asrwt>
<pdfrwt beam="1">  1        2 0.13420936E+00 0.14748844E+04</pdfrwt>
<pdfrwt beam="2">  1       -2 0.95906153E-01 0.14748844E+04</pdfrwt>
<totfact> 0.27028452E+01</totfact>
</mgrwt>
</event>
<event>
12    1  0.1504874E-007  0.1575054E+04  0.7818608E-02  0.8836022E-01
          1   -1    0    0  501    0  0.00000000000E+00  0.00000000000E+00  0.79480169770E+03  0.79480169770E+03  0.00000000000E+00 0. -1.
         -1   -1    0    0    0  501 -0.00000000000E+00 -0.00000000000E+00 -0.78031840893E+03  0.78031840893E+03  0.00000000000E+00 0.  1.
         23    2    1    2    0    0  0.49690841779E+02  0.50298776580E+03  0.14146757418E+03  0.53292055565E+03  0.92332939891E+02 0.  0.
        254    2    1    2    0    0 -0.49690841779E+02 -0.50298776580E+03 -0.12698428541E+03  0.10421995510E+04  0.90254585646E+03 0.  0.
        -24    2    4    4    0    0  0.31617933980E+03 -0.28445795690E+03  0.22151114593E+03  0.48568347684E+03  0.77042506075E+02 0.  0.
         24    2    4    4    0    0 -0.36587018158E+03 -0.21852980890E+03 -0.34849543134E+03  0.55651607414E+03  0.81515691521E+02 0.  0.
         11    1    3    3    0    0 -0.10035516491E+02  0.21505951823E+03  0.94562667629E+02  0.23514549981E+03  0.00000000000E+00 0. -1.
        -11    1    3    3    0    0  0.59726358271E+02  0.28792824757E+03  0.46904906549E+02  0.29777505584E+03  0.00000000000E+00 0.  1.
          2    1    6    6  502    0 -0.36257922347E+03 -0.20821393503E+03 -0.35039672877E+03  0.54552232179E+03  0.00000000000E+00 0. -1.
          1    1    5    5  503    0  0.13556707816E+03 -0.11924454475E+03  0.13730423583E+03  0.22682624916E+03  0.00000000000E+00 0. -1.
         -2    1    5    5    0  503  0.18061226164E+03 -0.16521341215E+03  0.84206910095E+02  0.25885722767E+03  0.00000000000E+00 0.  1.
         -1    1    6    6    0  502 -0.32909581134E+01 -0.10315873867E+02  0.19012974304E+01  0.10993752356E+02  0.00000000000E+00 0.  1.
<mgrwt>
<rscale>  0 0.15750535E+04</rscale>
<asrwt>0</asrwt>
<pdfrwt beam="1">  1        1 0.12227718E+00 0.15750535E+04</pdfrwt>
<pdfrwt beam="2">  1       -1 0.12004899E+00 0.15750535E+04</pdfrwt>
<totfact> 0.13289345E+01</totfact>
</mgrwt>
</event>
<event>
12    1  0.1504874E-007  0.1474511E+04  0.7818608E-02  0.8901582E-01
          1   -1    0    0  501    0  0.00000000000E+00  0.00000000000E+00  0.27988192243E+04  0.27988192243E+04  0.00000000000E+00 0. -1.
         -1   -1    0    0    0  501 -0.00000000000E+00 -0.00000000000E+00 -0.19420524933E+03  0.19420524933E+03  0.00000000000E+00 0.  1.
         23    2    1    2    0    0  0.41647434975E+03 -0.12488896514E+03  0.53224319603E+03  0.69343984079E+03  0.92346388512E+02 0.  0.
        254    2    1    2    0    0 -0.41647434975E+03  0.12488896514E+03  0.20723707790E+04  0.22995846329E+04  0.89683928359E+03 0.  0.
        -24    2    4    4    0    0 -0.13419050266E+03  0.52077367831E+02 -0.36096183044E+02  0.16962810868E+03  0.82168227310E+02 0.  0.
         24    2    4    4    0    0 -0.28228384709E+03  0.72811597306E+02  0.21084669620E+04  0.21299565242E+04  0.78077948291E+02 0.  0.
         13    1    3    3    0    0  0.10224683263E+03  0.90953907222E+01  0.11344669426E+03  0.15299442262E+03  0.00000000000E+00 0. -1.
        -13    1    3    3    0    0  0.31422751713E+03 -0.13398435586E+03  0.41879650177E+03  0.54044541818E+03  0.00000000000E+00 0.  1.
          4    1    6    6  502    0 -0.18966869160E+03  0.23022468163E+02  0.15443095573E+04  0.15560836274E+04  0.00000000000E+00 0. -1.
          1    1    5    5  503    0 -0.12377505979E+03  0.71944799923E+02 -0.28747839332E+02  0.14602314176E+03  0.00000000000E+00 0. -1.
         -2    1    5    5    0  503 -0.10415442870E+02 -0.19867432092E+02 -0.73483437125E+01  0.23604966923E+02  0.00000000000E+00 0.  1.
         -3    1    6    6    0  502 -0.92615155489E+02  0.49789129144E+02  0.56415740470E+03  0.57387289680E+03  0.00000000000E+00 0.  1.
<mgrwt>
<rscale>  0 0.14745106E+04</rscale>
<asrwt>0</asrwt>
<pdfrwt beam="1">  1        1 0.43058754E+00 0.14745106E+04</pdfrwt>
<pdfrwt beam="2">  1       -1 0.29877733E-01 0.14745106E+04</pdfrwt>
<totfact> 0.83594032E+00</totfact>
</mgrwt>
</event>
<event>
12    1  0.1504874E-007  0.1154556E+04  0.7818608E-02  0.9153590E-01
         -1   -1    0    0    0  501 -0.00000000000E+00  0.00000000000E+00  0.25947007874E+03  0.25947007874E+03  0.00000000000E+00 0.  1.
          1   -1    0    0  501    0  0.00000000000E+00 -0.00000000000E+00 -0.12843489436E+04  0.12843489436E+04  0.00000000000E+00 0. -1.
         23    2    1    2    0    0  0.18023216873E+03  0.48167321847E+01 -0.56298293018E+02  0.20921309967E+03  0.89965480734E+02 0.  0.
        254    2    1    2    0    0 -0.18023216873E+03 -0.48167321847E+01 -0.96858057182E+03  0.13346059227E+04  0.90028762577E+03 0.  0.
        -24    2    4    4    0    0 -0.33776511481E+03 -0.19060602628E+03 -0.99994070990E+03  0.10754891473E+04  0.79872101842E+02 0.  0.
         24    2    4    4    0    0  0.15753294608E+03  0.18578929410E+03  0.31360138074E+02  0.25911677534E+03  0.82606017338E+02 0.  0.
         13    1    3    3    0    0  0.14732559507E+03 -0.71424462030E+01 -0.56063152599E+01  0.14760513633E+03  0.00000000000E+00 0.  1.
        -13    1    3    3    0    0  0.32906573655E+02  0.11959178388E+02 -0.50691977759E+02  0.61607963337E+02  0.00000000000E+00 0. -1.
          4    1    6    6  502    0  0.15461458832E+03  0.19423029636E+03  0.29610032175E+02  0.25001566541E+03  0.00000000000E+00 0. -1.
          3    1    5    5  503    0 -0.26773046294E+03 -0.17666402413E+03 -0.75405380863E+03  0.81944305752E+03  0.00000000000E+00 0. -1.
         -4    1    5    5    0  503 -0.70034651866E+02 -0.13942002154E+02 -0.24588690127E+03  0.25604608980E+03  0.00000000000E+00 0.  1.
         -3    1    6    6    0  502  0.29183577569E+01 -0.84410022640E+01  0.17501058989E+01  0.91011099255E+01  0.00000000000E+00 0.  1.
<mgrwt>
<rscale>  0 0.11545564E+04</rscale>
<asrwt>0</asrwt>
<pdfrwt beam="1">  1        1 0.19759215E+00 0.11545564E+04</pdfrwt>
<pdfrwt beam="2">  1       -1 0.39918474E-01 0.11545564E+04</pdfrwt>
<totfact> 0.56314548E+01</totfact>
</mgrwt>
</event>
<event>
12    1  0.1504874E-007  0.1972387E+04  0.7818608E-02  0.8619640E-01
         -2   -1    0    0    0  501 -0.00000000000E+00  0.00000000000E+00  0.10900648532E+04  0.10900648532E+04  0.00000000000E+00 0.  1.
          2   -1    0    0  501    0  0.00000000000E+00 -0.00000000000E+00 -0.89222020500E+03  0.89222020500E+03  0.00000000000E+00 0. -1.
         23    2    1    2    0    0  0.58911792737E+03  0.19381891115E+03  0.55152036044E+03  0.83498498010E+03  0.91648820731E+02 0.  0.
        254    2    1    2    0    0 -0.58911792737E+03 -0.19381891115E+03 -0.35367571220E+03  0.11473000781E+04  0.89810091705E+03 0.  0.
        -24    2    4    4    0    0 -0.40744988995E+03 -0.54553023554E+03 -0.26122866037E+03  0.73357027699E+03  0.79159886152E+02 0.  0.
         24    2    4    4    0    0 -0.18166803743E+03  0.35171132438E+03 -0.92447051830E+02  0.41372980115E+03  0.76952969039E+02 0.  0.
         13    1    3    3    0    0  0.27536402602E+03  0.10227915238E+03  0.32048016716E+03  0.43473429745E+03  0.00000000000E+00 0. -1.
        -13    1    3    3    0    0  0.31375390135E+03  0.91539758775E+02  0.23104019328E+03  0.40025068265E+03  0.00000000000E+00 0.  1.
          4    1    6    6  502    0 -0.12147496342E+03  0.16921837716E+03 -0.72377005296E+02  0.22052087612E+03  0.00000000000E+00 0. -1.
          3    1    5    5  503    0 -0.36628299889E+03 -0.52139314221E+03 -0.25046104719E+03  0.68464938485E+03  0.00000000000E+00 0. -1.
         -4    1    5    5    0  503 -0.41166891056E+02 -0.24137093329E+02 -0.10767613177E+02  0.48920892134E+02  0.00000000000E+00 0.  1.
         -3    1    6    6    0  502 -0.60193074002E+02  0.18249294722E+03 -0.20070046534E+02  0.19320892503E+03  0.00000000000E+00 0.  1.
<mgrwt>
<rscale>  0 0.19723873E+04</rscale>
<asrwt>0</asrwt>
<pdfrwt beam="1">  1        2 0.13726465E+00 0.19723873E+04</pdfrwt>
<pdfrwt beam="2">  1       -2 0.16770228E+00 0.19723873E+04</pdfrwt>
<totfact> 0.61153364E+00</totfact>
</mgrwt>
</event>
<event>
12    1  0.1504874E-007  0.1353453E+04  0.7818608E-02  0.8988218E-01
          1   -1    0    0  501    0  0.00000000000E+00  0.00000000000E+00  0.50040851713E+04  0.50040851713E+04  0.00000000000E+00 0. -1.
         -1   -1    0    0    0  501 -0.00000000000E+00 -0.00000000000E+00 -0.91516965317E+02  0.91516965317E+02  0.00000000000E+00 0.  1.
         23    2    1    2    0    0  0.34861981375E+03 -0.32829277707E+02  0.87472908917E+03  0.94652489156E+03  0.90248849789E+02 0.  0.
        254    2    1    2    0    0 -0.34861981375E+03  0.32829277707E+02  0.40378391169E+04  0.41490772451E+04  0.88774079336E+03 0.  0.
        -24    2    4    4    0    0 -0.51758190971E+03 -0.12694486527E+03  0.36535074103E+04  0.36930187163E+04  0.79150551637E+02 0.  0.
         24    2    4    4    0    0  0.16896209596E+03  0.15977414297E+03  0.38433170659E+03  0.45605852882E+03  0.78756297452E+02 0.  0.
         11    1    3    3    0    0  0.75263254430E+02 -0.79101004712E+01  0.10586780437E+03  0.13013500359E+03  0.00000000000E+00 0. -1.
        -11    1    3    3    0    0  0.27335655932E+03 -0.24919177235E+02  0.76886128480E+03  0.81638988797E+03  0.00000000000E+00 0.  1.
          4    1    6    6  502    0  0.14845894591E+03  0.14981133687E+03  0.28742102849E+03  0.35650293532E+03  0.00000000000E+00 0. -1.
          1    1    5    5  503    0 -0.46748925732E+03 -0.10307419255E+03  0.31012481371E+04  0.31379787289E+04  0.00000000000E+00 0. -1.
         -2    1    5    5    0  503 -0.50092652390E+02 -0.23870672720E+02  0.55225927315E+03  0.55503998741E+03  0.00000000000E+00 0.  1.
         -3    1    6    6    0  502  0.20503150053E+02  0.99628061001E+01  0.96910678099E+02  0.99555593500E+02  0.00000000000E+00 0.  1.
<mgrwt>
<rscale>  0 0.13534529E+04</rscale>
<asrwt>0</asrwt>
<pdfrwt beam="1">  1        1 0.76985904E+00 0.13534529E+04</pdfrwt>
<pdfrwt beam="2">  1       -1 0.14079537E-01 0.13534529E+04</pdfrwt>
<totfact> 0.32232781E-01</totfact>
</mgrwt>
</event>
<event>
12    1  0.1504874E-007  0.2154327E+04  0.7818608E-02  0.8537682E-01
         -2   -1    0    0    0  501 -0.00000000000E+00  0.00000000000E+00  0.60791533900E+03  0.60791533900E+03  0.00000000000E+00 0.  1.
          2   -1    0    0  501    0  0.00000000000E+00 -0.00000000000E+00 -0.19086229593E+04  0.19086229593E+04  0.00000000000E+00 0. -1.
         23    2    1    2    0    0 -0.58561621217E+03  0.94746148792E+02 -0.13017993796E+04  0.14336570958E+04  0.93636867830E+02 0.  0.
        254    2    1    2    0    0  0.58561621217E+03 -0.94746148792E+02  0.10917592083E+01  0.10828812026E+04  0.90592898522E+03 0.  0.
        -24    2    4    4    0    0  0.23069383019E+03  0.20221182612E+03  0.36908236947E+03  0.48625010095E+03  0.78154330040E+02 0.  0.
         24    2    4    4    0    0  0.35492238198E+03 -0.29695797491E+03 -0.36799061026E+03  0.59663110162E+03  0.79985286677E+02 0.  0.
         13    1    3    3    0    0 -0.98375984006E+01 -0.11294706439E+02 -0.27995579039E+02  0.31750609153E+02  0.00000000000E+00 0.  1.
        -13    1    3    3    0    0 -0.57577861377E+03  0.10604085523E+03 -0.12738038005E+04  0.14019064866E+04  0.00000000000E+00 0. -1.
          4    1    6    6  502    0  0.63981592909E+02 -0.55058276397E+02 -0.11010171821E+03  0.13873516636E+03  0.00000000000E+00 0. -1.
          1    1    5    5  503    0  0.20475907061E+02 -0.40790341664E+01  0.36077615755E+02  0.41683277801E+02  0.00000000000E+00 0. -1.
         -2    1    5    5    0  503  0.21021792313E+03  0.20629086029E+03  0.33300475372E+03  0.44456682314E+03  0.00000000000E+00 0.  1.
         -3    1    6    6    0  502  0.29094078907E+03 -0.24189969852E+03 -0.25788889205E+03  0.45789593526E+03  0.00000000000E+00 0.  1.
<mgrwt>
<rscale>  0 0.21543270E+04</rscale>
<asrwt>0</asrwt>
<pdfrwt beam="1">  1        2 0.29363430E+00 0.21543270E+04</pdfrwt>
<pdfrwt beam="2">  1       -2 0.93525438E-01 0.21543270E+04</pdfrwt>
<totfact> 0.66604070E+00</totfact>
</mgrwt>
</event>
<event>
12    1  0.1504874E-007  0.1194951E+04  0.7818608E-02  0.9117288E-01
          1   -1    0    0  501    0  0.00000000000E+00  0.00000000000E+00  0.10354453675E+04  0.10354453675E+04  0.00000000000E+00 0. -1.
         -1   -1    0    0    0  501 -0.00000000000E+00 -0.00000000000E+00 -0.34475667973E+03  0.34475667973E+03  0.00000000000E+00 0.  1.
         23    2    1    2    0    0  0.34714265557E+01 -0.35361218062E+02  0.41087750477E+03  0.42245549939E+03  0.91574333135E+02 0.  0.
        254    2    1    2    0    0 -0.34714265557E+01  0.35361218062E+02  0.27981118299E+03  0.95774654783E+03  0.91527137244E+03 0.  0.
        -24    2    4    4    0    0 -0.32017234494E+02 -0.14425255602E+02 -0.32941170114E+03  0.34094289739E+03  0.80602724047E+02 0.  0.
         24    2    4    4    0    0  0.28545807939E+02  0.49786473665E+02  0.60922288413E+03  0.61680365044E+03  0.77463956366E+02 0.  0.
         11    1    3    3    0    0 -0.41374345504E+02 -0.26330214187E+02  0.26745359719E+03  0.27191274942E+03  0.00000000000E+00 0. -1.
        -11    1    3    3    0    0  0.44845772059E+02 -0.90310038756E+01  0.14342390758E+03  0.15054274997E+03  0.00000000000E+00 0.  1.
          4    1    6    6  502    0  0.52092475272E+02  0.41223362235E+02  0.34081202428E+03  0.34722590264E+03  0.00000000000E+00 0. -1.
          3    1    5    5  503    0 -0.52465092052E+02 -0.98341157100E+01 -0.13144393757E+03  0.14186896927E+03  0.00000000000E+00 0. -1.
         -4    1    5    5    0  503  0.20447857557E+02 -0.45911398922E+01 -0.19796776357E+03  0.19907392812E+03  0.00000000000E+00 0.  1.
         -3    1    6    6    0  502 -0.23546667334E+02  0.85631114298E+01  0.26841085986E+03  0.26957774780E+03  0.00000000000E+00 0.  1.
<mgrwt>
<rscale>  0 0.11949506E+04</rscale>
<asrwt>0</asrwt>
<pdfrwt beam="1">  1        1 0.15929929E+00 0.11949506E+04</pdfrwt>
<pdfrwt beam="2">  1       -1 0.53039490E-01 0.11949506E+04</pdfrwt>
<totfact> 0.50385546E+01</totfact>
</mgrwt>
</event>
<event>
12    1  0.1504874E-007  0.1000907E+04  0.7818608E-02  0.9307550E-01
          2   -1    0    0  501    0  0.00000000000E+00  0.00000000000E+00  0.18175327202E+04  0.18175327202E+04  0.00000000000E+00 0. -1.
         -2   -1    0    0    0  501 -0.00000000000E+00 -0.00000000000E+00 -0.13779881363E+03  0.13779881363E+03  0.00000000000E+00 0.  1.
         23    2    1    2    0    0 -0.47092881492E+02 -0.16634521761E+02  0.16770711909E+03  0.19689322351E+03  0.90259718968E+02 0.  0.
        254    2    1    2    0    0  0.47092881492E+02  0.16634521761E+02  0.15120267875E+04  0.17584383104E+04  0.89631793376E+03 0.  0.
        -24    2    4    4    0    0 -0.27421557793E+03 -0.30934895362E+03  0.58203164711E+03  0.71873111870E+03  0.83202310523E+02 0.  0.
         24    2    4    4    0    0  0.32130845942E+03  0.32598347538E+03  0.92999514040E+03  0.10397071916E+04  0.81214105172E+02 0.  0.
         11    1    3    3    0    0 -0.10183771585E+02  0.18928760339E+02  0.13362211583E+03  0.13533985743E+03  0.00000000000E+00 0. -1.
        -11    1    3    3    0    0 -0.36909109907E+02 -0.35563282100E+02  0.34085003266E+02  0.61553366078E+02  0.00000000000E+00 0.  1.
          4    1    6    6  502    0  0.28643248456E+03  0.31815838436E+03  0.83810343305E+03  0.94110875580E+03  0.00000000000E+00 0. -1.
          1    1    5    5  503    0 -0.27389758224E+03 -0.29331503043E+03  0.53330850904E+03  0.66743655762E+03  0.00000000000E+00 0. -1.
         -2    1    5    5    0  503 -0.31799569777E+00 -0.16033923186E+02  0.48723138068E+02  0.51294561088E+02  0.00000000000E+00 0.  1.
         -3    1    6    6    0  502  0.34875974863E+02  0.78250910168E+01  0.91891707352E+02  0.98598435850E+02  0.00000000000E+00 0.  1.
<mgrwt>
<rscale>  0 0.10009073E+04</rscale>
<asrwt>0</asrwt>
<pdfrwt beam="1">  1        2 0.27962040E+00 0.10009073E+04</pdfrwt>
<pdfrwt beam="2">  1       -2 0.21199819E-01 0.10009073E+04</pdfrwt>
<totfact> 0.16269466E+02</totfact>
</mgrwt>
</event>
<event>
12    1  0.1504874E-007  0.2169241E+04  0.7818608E-02  0.8531341E-01
         -1   -1    0    0    0  501 -0.00000000000E+00  0.00000000000E+00  0.13568472848E+04  0.13568472848E+04  0.00000000000E+00 0.  1.
          1   -1    0    0  501    0  0.00000000000E+00 -0.00000000000E+00 -0.86701074709E+03  0.86701074709E+03  0.00000000000E+00 0. -1.
         23    2    1    2    0    0 -0.66628748739E+03  0.40664695189E+03 -0.25026546946E+03  0.82464602376E+03  0.90041656822E+02 0.  0.
        254    2    1    2    0    0  0.66628748739E+03 -0.40664695189E+03  0.74010200719E+03  0.13992120081E+04  0.89484216672E+03 0.  0.
        -24    2    4    4    0    0  0.27364064045E+03  0.62811555608E+02  0.72459019589E+03  0.78122503441E+03  0.80356149681E+02 0.  0.
         24    2    4    4    0    0  0.39264684694E+03 -0.46945850750E+03  0.15511811301E+02  0.61798697373E+03  0.84287880082E+02 0.  0.
         13    1    3    3    0    0 -0.31134278009E+03  0.14938942445E+03 -0.13995598251E+03  0.37261133087E+03  0.00000000000E+00 0.  1.
        -13    1    3    3    0    0 -0.35494470730E+03  0.25725752744E+03 -0.11030948695E+03  0.45203469289E+03  0.00000000000E+00 0. -1.
          2    1    6    6  502    0  0.20300136449E+03 -0.25972146963E+03  0.48932980714E+02  0.33325550614E+03  0.00000000000E+00 0. -1.
          3    1    5    5  503    0  0.25740811035E+03  0.76321996780E+02  0.63992263401E+03  0.69396322668E+03  0.00000000000E+00 0. -1.
         -4    1    5    5    0  503  0.16232530096E+02 -0.13510441172E+02  0.84667561878E+02  0.87261807730E+02  0.00000000000E+00 0.  1.
         -1    1    6    6    0  502  0.18964548245E+03 -0.20973703787E+03 -0.33421169413E+02  0.28473146759E+03  0.00000000000E+00 0.  1.
<mgrwt>
<rscale>  0 0.21692406E+04</rscale>
<asrwt>0</asrwt>
<pdfrwt beam="1">  1        1 0.13338627E+00 0.21692406E+04</pdfrwt>
<pdfrwt beam="2">  1       -1 0.20874574E+00 0.21692406E+04</pdfrwt>
<totfact> 0.23224619E+00</totfact>
</mgrwt>
</event>
<event>
12    1  0.1504874E-007  0.1883505E+04  0.7818608E-02  0.8663111E-01
          2   -1    0    0  501    0  0.00000000000E+00  0.00000000000E+00  0.33586491036E+04  0.33586491036E+04  0.00000000000E+00 0. -1.
         -2   -1    0    0    0  501 -0.00000000000E+00 -0.00000000000E+00 -0.26406374508E+03  0.26406374508E+03  0.00000000000E+00 0.  1.
         23    2    1    2    0    0  0.69570617181E+03  0.83267601585E+02  0.12107254921E+04  0.14018759721E+04  0.91975284008E+02 0.  0.
        254    2    1    2    0    0 -0.69570617181E+03 -0.83267601585E+02  0.18838598664E+04  0.22208368766E+04  0.94458872810E+03 0.  0.
        -24    2    4    4    0    0 -0.71123305752E+02  0.10194183717E+02  0.14421975481E+04  0.14460290788E+04  0.76836729326E+02 0.  0.
         24    2    4    4    0    0 -0.62458286606E+03 -0.93461785303E+02  0.44166231834E+03  0.77480779784E+03  0.80141489068E+02 0.  0.
         13    1    3    3    0    0  0.65029509302E+03  0.10057573732E+03  0.11228282129E+04  0.13014385820E+04  0.00000000000E+00 0. -1.
        -13    1    3    3    0    0  0.45411078785E+02 -0.17308135735E+02  0.87897279237E+02  0.10043739013E+03  0.00000000000E+00 0.  1.
          4    1    6    6  502    0 -0.20262803542E+03 -0.64827107994E+02  0.16779436792E+03  0.27095317783E+03  0.00000000000E+00 0. -1.
          1    1    5    5  503    0 -0.23576026732E+02 -0.11713428402E+02  0.12264968576E+03  0.12544312998E+03  0.00000000000E+00 0. -1.
         -2    1    5    5    0  503 -0.47547279020E+02  0.21907612119E+02  0.13195478623E+04  0.13205859488E+04  0.00000000000E+00 0.  1.
         -3    1    6    6    0  502 -0.42195483063E+03 -0.28634677309E+02  0.27386795042E+03  0.50385462001E+03  0.00000000000E+00 0.  1.
<mgrwt>
<rscale>  0 0.18835047E+04</rscale>
<asrwt>0</asrwt>
<pdfrwt beam="1">  1        2 0.51671522E+00 0.18835047E+04</pdfrwt>
<pdfrwt beam="2">  1       -2 0.40625194E-01 0.18835047E+04</pdfrwt>
<totfact> 0.55042815E+00</totfact>
</mgrwt>
</event>
<event>
12    1  0.1504874E-007  0.1448084E+04  0.7818608E-02  0.8919730E-01
         -2   -1    0    0    0  501 -0.00000000000E+00  0.00000000000E+00  0.30259956166E+03  0.30259956166E+03  0.00000000000E+00 0.  1.
          2   -1    0    0  501    0  0.00000000000E+00 -0.00000000000E+00 -0.17324439966E+04  0.17324439966E+04  0.00000000000E+00 0. -1.
         23    2    1    2    0    0  0.12607239861E+03 -0.11105945451E+03 -0.10256616716E+04  0.10433086449E+04  0.91008854757E+02 0.  0.
        254    2    1    2    0    0 -0.12607239861E+03  0.11105945451E+03 -0.40418276333E+03  0.99173491342E+03  0.88991346782E+03 0.  0.
        -24    2    4    4    0    0  0.60046007470E+02  0.32933624490E+03 -0.55895726610E+03  0.65619109634E+03  0.78010540151E+02 0.  0.
         24    2    4    4    0    0 -0.18611840608E+03 -0.21827679039E+03  0.15477450277E+03  0.33554381708E+03  0.79684930637E+02 0.  0.
         13    1    3    3    0    0  0.70638063106E+02 -0.94834271872E+02 -0.85497503326E+03  0.86311388737E+03  0.00000000000E+00 0. -1.
        -13    1    3    3    0    0  0.55434335505E+02 -0.16225182636E+02 -0.17068663839E+03  0.18019475749E+03  0.00000000000E+00 0.  1.
          4    1    6    6  502    0 -0.72469440908E+02 -0.13685226162E+03  0.10519102247E+03  0.18720446732E+03  0.00000000000E+00 0. -1.
          1    1    5    5  503    0  0.15255184304E+02  0.20050581872E+03 -0.39231097543E+03  0.44084374264E+03  0.00000000000E+00 0. -1.
         -2    1    5    5    0  503  0.44790823166E+02  0.12883042617E+03 -0.16664629067E+03  0.21534735369E+03  0.00000000000E+00 0.  1.
         -3    1    6    6    0  502 -0.11364896517E+03 -0.81424528766E+02  0.49583480308E+02  0.14833934977E+03  0.00000000000E+00 0.  1.
<mgrwt>
<rscale>  0 0.14480840E+04</rscale>
<asrwt>0</asrwt>
<pdfrwt beam="1">  1        2 0.26652984E+00 0.14480840E+04</pdfrwt>
<pdfrwt beam="2">  1       -2 0.46553780E-01 0.14480840E+04</pdfrwt>
<totfact> 0.39911294E+01</totfact>
</mgrwt>
</event>
<event>
12    1  0.1504874E-007  0.1390373E+04  0.7818608E-02  0.8960817E-01
         -2   -1    0    0    0  501 -0.00000000000E+00  0.00000000000E+00  0.40152300632E+03  0.40152300632E+03  0.00000000000E+00 0.  1.
          2   -1    0    0  501    0  0.00000000000E+00 -0.00000000000E+00 -0.12036271642E+04  0.12036271642E+04  0.00000000000E+00 0. -1.
         23    2    1    2    0    0  0.20372009366E+03 -0.33049711312E+03 -0.11518954581E+03  0.41554171943E+03  0.93145428157E+02 0.  0.
        254    2    1    2    0    0 -0.20372009366E+03  0.33049711312E+03 -0.68691461212E+03  0.11896084511E+04  0.89027319646E+03 0.  0.
        -24    2    4    4    0    0 -0.35999674260E+03  0.39680777254E+03 -0.71399884634E+02  0.54606366860E+03  0.77675759492E+02 0.  0.
         24    2    4    4    0    0  0.15627664894E+03 -0.66310659418E+02 -0.61551472748E+03  0.64354478253E+03  0.80448821144E+02 0.  0.
         11    1    3    3    0    0  0.15917068021E+03 -0.28195934325E+03 -0.12845822922E+03  0.34833589155E+03  0.00000000000E+00 0.  1.
        -11    1    3    3    0    0  0.44549413450E+02 -0.48537769867E+02  0.13268683414E+02  0.67205827887E+02  0.00000000000E+00 0. -1.
          4    1    6    6  502    0  0.64114999464E+01  0.36431483925E+00 -0.14711560607E+03  0.14725570144E+03  0.00000000000E+00 0. -1.
          1    1    5    5  503    0 -0.10322671458E+03  0.75842241978E+02  0.40704325088E+01  0.12815759319E+03  0.00000000000E+00 0. -1.
         -4    1    5    5    0  503 -0.25677002801E+03  0.32096553056E+03 -0.75470317143E+02  0.41790607541E+03  0.00000000000E+00 0.  1.
         -3    1    6    6    0  502  0.14986514899E+03 -0.66674974258E+02 -0.46839912141E+03  0.49628908109E+03  0.00000000000E+00 0.  1.
<mgrwt>
<rscale>  0 0.13903726E+04</rscale>
<asrwt>0</asrwt>
<pdfrwt beam="1">  1        2 0.18517341E+00 0.13903726E+04</pdfrwt>
<pdfrwt beam="2">  1       -2 0.61772771E-01 0.13903726E+04</pdfrwt>
<totfact> 0.44691014E+01</totfact>
</mgrwt>
</event>
<event>
12    1  0.1504874E-007  0.1625207E+04  0.7818608E-02  0.8805210E-01
         -1   -1    0    0    0  501 -0.00000000000E+00  0.00000000000E+00  0.38915990653E+03  0.38915990653E+03  0.00000000000E+00 0.  1.
          1   -1    0    0  501    0  0.00000000000E+00 -0.00000000000E+00 -0.16967944593E+04  0.16967944593E+04  0.00000000000E+00 0. -1.
         23    2    1    2    0    0 -0.21577177238E+03  0.17435431554E+03 -0.10471412646E+04  0.10872534327E+04  0.93050061434E+02 0.  0.
        254    2    1    2    0    0  0.21577177238E+03 -0.17435431554E+03 -0.26049328825E+03  0.99870093315E+03  0.92335795635E+03 0.  0.
        -24    2    4    4    0    0 -0.25416415075E+03 -0.27914502290E+03  0.89678788368E+02  0.39681394946E+03  0.83052188798E+02 0.  0.
         24    2    4    4    0    0  0.46993592314E+03  0.10479070736E+03 -0.35017207662E+03  0.60188698369E+03  0.88468037708E+02 0.  0.
         13    1    3    3    0    0 -0.28902724502E+01 -0.57168587244E+01 -0.92627373915E+02  0.92848621674E+02  0.00000000000E+00 0.  1.
        -13    1    3    3    0    0 -0.21288149993E+03  0.18007117426E+03 -0.95451389065E+03  0.99440481106E+03  0.00000000000E+00 0. -1.
          2    1    6    6  502    0  0.31164211108E+03  0.82088062774E+02 -0.18326138620E+03  0.37073439431E+03  0.00000000000E+00 0. -1.
          1    1    5    5  503    0  0.11492298326E+01 -0.25635550588E+02  0.13682524922E+02  0.29081156638E+02  0.00000000000E+00 0. -1.
         -4    1    5    5    0  503 -0.25531338059E+03 -0.25350947231E+03  0.75996263445E+02  0.36773279282E+03  0.00000000000E+00 0.  1.
         -1    1    6    6    0  502  0.15829381206E+03  0.22702644583E+02 -0.16691069041E+03  0.23115258939E+03  0.00000000000E+00 0.  1.
<mgrwt>
<rscale>  0 0.16252069E+04</rscale>
<asrwt>0</asrwt>
<pdfrwt beam="1">  1        1 0.26104530E+00 0.16252069E+04</pdfrwt>
<pdfrwt beam="2">  1       -1 0.59870755E-01 0.16252069E+04</pdfrwt>
<totfact> 0.12974034E+01</totfact>
</mgrwt>
</event>
<event>
12    1  0.1504874E-007  0.1086337E+04  0.7818608E-02  0.9218612E-01
         -1   -1    0    0    0  501 -0.00000000000E+00  0.00000000000E+00  0.50186498232E+03  0.50186498232E+03  0.00000000000E+00 0.  1.
          1   -1    0    0  501    0  0.00000000000E+00 -0.00000000000E+00 -0.58787089921E+03  0.58787089921E+03  0.00000000000E+00 0. -1.
         23    2    1    2    0    0 -0.55582889962E+02  0.11186457850E+03  0.10246589202E+03  0.18556388257E+03  0.91277346086E+02 0.  0.
        254    2    1    2    0    0  0.55582889962E+02 -0.11186457850E+03 -0.18847180890E+03  0.90417199896E+03  0.87544402413E+03 0.  0.
        -24    2    4    4    0    0  0.18804897078E+03 -0.40938952774E+03  0.92292179240E+02  0.46656212814E+03  0.78741172368E+02 0.  0.
         24    2    4    4    0    0 -0.13246608082E+03  0.29752494925E+03 -0.28076398814E+03  0.43760987083E+03  0.81274990108E+02 0.  0.
         11    1    3    3    0    0 -0.80789479326E+02  0.93144485670E+02  0.80776192063E+02  0.14740294565E+03  0.00000000000E+00 0.  1.
        -11    1    3    3    0    0  0.25206589364E+02  0.18720092825E+02  0.21689699955E+02  0.38160936924E+02  0.00000000000E+00 0. -1.
          4    1    6    6  502    0 -0.69997860990E+02  0.22511959475E+03 -0.16654805000E+03  0.28864647138E+03  0.00000000000E+00 0. -1.
          3    1    5    5  503    0  0.10268428415E+03 -0.25621556080E+03  0.19549213627E+02  0.27671763146E+03  0.00000000000E+00 0. -1.
         -4    1    5    5    0  503  0.85364686627E+02 -0.15317396694E+03  0.72742965612E+02  0.18984449667E+03  0.00000000000E+00 0.  1.
         -3    1    6    6    0  502 -0.62468219828E+02  0.72405354496E+02 -0.11421593814E+03  0.14896339944E+03  0.00000000000E+00 0.  1.
<mgrwt>
<rscale>  0 0.10863366E+04</rscale>
<asrwt>0</asrwt>
<pdfrwt beam="1">  1        1 0.90441677E-01 0.10863366E+04</pdfrwt>
<pdfrwt beam="2">  1       -1 0.77209997E-01 0.10863366E+04</pdfrwt>
<totfact> 0.59203588E+01</totfact>
</mgrwt>
</event>
<event>
12    1  0.1504874E-007  0.1433990E+04  0.7818608E-02  0.8929576E-01
          2   -1    0    0  501    0  0.00000000000E+00  0.00000000000E+00  0.12358097167E+04  0.12358097167E+04  0.00000000000E+00 0. -1.
         -2   -1    0    0    0  501 -0.00000000000E+00 -0.00000000000E+00 -0.41598790442E+03  0.41598790442E+03  0.00000000000E+00 0.  1.
         23    2    1    2    0    0  0.19867469155E+03  0.86278905967E+02  0.66947511318E+03  0.70917070778E+03  0.88376936656E+02 0.  0.
        254    2    1    2    0    0 -0.19867469155E+03 -0.86278905967E+02  0.15034669909E+03  0.94262691332E+03  0.90500037852E+03 0.  0.
        -24    2    4    4    0    0 -0.48095166599E+03 -0.99841269079E+02  0.33097506952E+03  0.59747092127E+03  0.78385082101E+02 0.  0.
         24    2    4    4    0    0  0.28227697443E+03  0.13562363112E+02 -0.18062837043E+03  0.34515599205E+03  0.81497378217E+02 0.  0.
         13    1    3    3    0    0  0.15583742967E+03  0.23109093089E+02  0.45905142613E+03  0.48533240825E+03  0.00000000000E+00 0. -1.
        -13    1    3    3    0    0  0.42837261883E+02  0.63169812878E+02  0.21042368706E+03  0.22383829953E+03  0.00000000000E+00 0.  1.
          4    1    6    6  502    0  0.90861714817E+02  0.32543936935E+02 -0.30717522340E+02  0.10128437801E+03  0.00000000000E+00 0. -1.
          1    1    5    5  503    0 -0.15858346572E+03 -0.16826087634E+02  0.68541713355E+02  0.17357937462E+03  0.00000000000E+00 0. -1.
         -2    1    5    5    0  503 -0.32236820027E+03 -0.83015181445E+02  0.26243335617E+03  0.42389154665E+03  0.00000000000E+00 0.  1.
         -3    1    6    6    0  502  0.19141525962E+03 -0.18981573823E+02 -0.14991084809E+03  0.24387161404E+03  0.00000000000E+00 0.  1.
<mgrwt>
<rscale>  0 0.14339901E+04</rscale>
<asrwt>0</asrwt>
<pdfrwt beam="1">  1        2 0.19012457E+00 0.14339901E+04</pdfrwt>
<pdfrwt beam="2">  1       -2 0.63998140E-01 0.14339901E+04</pdfrwt>
<totfact> 0.39521808E+01</totfact>
</mgrwt>
</event>
<event>
12    1  0.1504874E-007  0.1266235E+04  0.7818608E-02  0.9056778E-01
          1   -1    0    0  501    0  0.00000000000E+00  0.00000000000E+00  0.36834575636E+03  0.36834575636E+03  0.00000000000E+00 0. -1.
         -1   -1    0    0    0  501 -0.00000000000E+00 -0.00000000000E+00 -0.10882099004E+04  0.10882099004E+04  0.00000000000E+00 0.  1.
         23    2    1    2    0    0  0.15201155093E+03 -0.14792786235E+03 -0.42325529927E+03  0.48196338590E+03  0.90296693817E+02 0.  0.
        254    2    1    2    0    0 -0.15201155093E+03  0.14792786235E+03 -0.29660884478E+03  0.97459227087E+03  0.90380480390E+03 0.  0.
        -24    2    4    4    0    0 -0.47853213539E+03  0.23162103856E+03 -0.32705166996E+02  0.53898212335E+03  0.82406257281E+02 0.  0.
         24    2    4    4    0    0  0.32652058446E+03 -0.83693176212E+02 -0.26390367778E+03  0.43561014751E+03  0.80565561194E+02 0.  0.
         13    1    3    3    0    0  0.97256552395E+02 -0.14551596506E+03 -0.30568814010E+03  0.35224845219E+03  0.00000000000E+00 0.  1.
        -13    1    3    3    0    0  0.54754998534E+02 -0.24118972897E+01 -0.11756715917E+03  0.12971493371E+03  0.00000000000E+00 0. -1.
          2    1    6    6  502    0  0.20663398849E+03 -0.32114989755E+02 -0.11902616385E+03  0.24061630337E+03  0.00000000000E+00 0. -1.
          3    1    5    5  503    0 -0.20002402786E+03  0.91187758370E+02 -0.53938049356E+02  0.22634957955E+03  0.00000000000E+00 0. -1.
         -4    1    5    5    0  503 -0.27850810753E+03  0.14043328019E+03  0.21232882360E+02  0.31263254380E+03  0.00000000000E+00 0.  1.
         -1    1    6    6    0  502  0.11988659597E+03 -0.51578186457E+02 -0.14487751393E+03  0.19499384415E+03  0.00000000000E+00 0.  1.
<mgrwt>
<rscale>  0 0.12662346E+04</rscale>
<asrwt>0</asrwt>
<pdfrwt beam="1">  1        1 0.56668578E-01 0.12662346E+04</pdfrwt>
<pdfrwt beam="2">  1       -1 0.16741691E+00 0.12662346E+04</pdfrwt>
<totfact> 0.16953129E+01</totfact>
</mgrwt>
</event>
<event>
12    1  0.1504874E-007  0.1656192E+04  0.7818608E-02  0.8786752E-01
          1   -1    0    0  501    0  0.00000000000E+00  0.00000000000E+00  0.43816660199E+03  0.43816660199E+03  0.00000000000E+00 0. -1.
         -1   -1    0    0    0  501 -0.00000000000E+00 -0.00000000000E+00 -0.15650276446E+04  0.15650276446E+04  0.00000000000E+00 0.  1.
         23    2    1    2    0    0  0.54584724570E+03 -0.18871105933E+02 -0.59454756412E+03  0.81238736410E+03  0.90449372945E+02 0.  0.
        254    2    1    2    0    0 -0.54584724570E+03  0.18871105933E+02 -0.53231347854E+03  0.11908068825E+04  0.91452613838E+03 0.  0.
        -24    2    4    4    0    0 -0.10943834496E+03 -0.27246360462E+03 -0.58278342614E+03  0.65779655906E+03  0.82744330019E+02 0.  0.
         24    2    4    4    0    0 -0.43640890074E+03  0.29133471055E+03  0.50469947595E+02  0.53301032347E+03  0.78893263975E+02 0.  0.
         11    1    3    3    0    0  0.27897507259E+03 -0.22985217903E+02 -0.36757299731E+03  0.46202307272E+03  0.00000000000E+00 0.  1.
        -11    1    3    3    0    0  0.26687217311E+03  0.41141119698E+01 -0.22697456681E+03  0.35036429138E+03  0.00000000000E+00 0. -1.
          2    1    6    6  502    0 -0.73472481593E+02  0.44896793374E+02  0.38053805916E+02  0.94138301193E+02  0.00000000000E+00 0. -1.
          3    1    5    5  503    0 -0.67252535758E+02 -0.85165343865E+02 -0.26727629986E+03  0.28846604624E+03  0.00000000000E+00 0. -1.
         -4    1    5    5    0  503 -0.42185809200E+02 -0.18729826075E+03 -0.31550712627E+03  0.36933051283E+03  0.00000000000E+00 0.  1.
         -1    1    6    6    0  502 -0.36293641915E+03  0.24643791717E+03  0.12416141680E+02  0.43887202228E+03  0.00000000000E+00 0.  1.
<mgrwt>
<rscale>  0 0.16561918E+04</rscale>
<asrwt>0</asrwt>
<pdfrwt beam="1">  1        1 0.67410247E-01 0.16561918E+04</pdfrwt>
<pdfrwt beam="2">  1       -1 0.24077348E+00 0.16561918E+04</pdfrwt>
<totfact> 0.40632927E+00</totfact>
</mgrwt>
</event>
<event>
12    1  0.1504874E-007  0.1417178E+04  0.7818608E-02  0.8941477E-01
         -2   -1    0    0    0  501 -0.00000000000E+00  0.00000000000E+00  0.34256563973E+03  0.34256563973E+03  0.00000000000E+00 0.  1.
          2   -1    0    0  501    0  0.00000000000E+00 -0.00000000000E+00 -0.14657001750E+04  0.14657001750E+04  0.00000000000E+00 0. -1.
         23    2    1    2    0    0 -0.40136762255E+03 -0.80733617130E+02 -0.40010459789E+03  0.57944842633E+03  0.89793675486E+02 0.  0.
        254    2    1    2    0    0  0.40136762255E+03  0.80733617130E+02 -0.72302993732E+03  0.12288173884E+04  0.90532093662E+03 0.  0.
        -24    2    4    4    0    0  0.52312373925E+03  0.24840527740E+03 -0.80279213718E+03  0.99283645150E+03  0.76716201073E+02 0.  0.
         24    2    4    4    0    0 -0.12175611670E+03 -0.16767166027E+03  0.79762199852E+02  0.23598093685E+03  0.79916559123E+02 0.  0.
         11    1    3    3    0    0 -0.10744467320E+03 -0.34728547267E+02 -0.16656332565E+03  0.20123064192E+03  0.00000000000E+00 0.  1.
        -11    1    3    3    0    0 -0.29392294935E+03 -0.46005069863E+02 -0.23354127224E+03  0.37821778441E+03  0.00000000000E+00 0. -1.
          4    1    6    6  502    0 -0.59392397167E+02 -0.63088341611E+02 -0.62945269179E+01  0.86874718748E+02  0.00000000000E+00 0. -1.
          3    1    5    5  503    0  0.49024141407E+01 -0.19192074024E+01 -0.23416495519E+02  0.24001026725E+02  0.00000000000E+00 0. -1.
         -4    1    5    5    0  503  0.51822132511E+03  0.25032448480E+03 -0.77937564166E+03  0.96883542477E+03  0.00000000000E+00 0.  1.
         -3    1    6    6    0  502 -0.62363719534E+02 -0.10458331866E+03  0.86056726770E+02  0.14910621810E+03  0.00000000000E+00 0.  1.
<mgrwt>
<rscale>  0 0.14171782E+04</rscale>
<asrwt>0</asrwt>
<pdfrwt beam="1">  1        2 0.22549233E+00 0.14171782E+04</pdfrwt>
<pdfrwt beam="2">  1       -2 0.52702407E-01 0.14171782E+04</pdfrwt>
<totfact> 0.43820665E+01</totfact>
</mgrwt>
</event>
<event>
12    1  0.1504874E-007  0.1526703E+04  0.7818608E-02  0.8866887E-01
          1   -1    0    0  501    0  0.00000000000E+00  0.00000000000E+00  0.13827370370E+04  0.13827370370E+04  0.00000000000E+00 0. -1.
         -1   -1    0    0    0  501 -0.00000000000E+00 -0.00000000000E+00 -0.42141464444E+03  0.42141464444E+03  0.00000000000E+00 0.  1.
         23    2    1    2    0    0 -0.21655297569E+03 -0.40626531837E+03  0.56022354393E+03  0.73096238702E+03  0.92243654909E+02 0.  0.
        254    2    1    2    0    0  0.21655297569E+03  0.40626531837E+03  0.40109884867E+03  0.10731892945E+04  0.88255780273E+03 0.  0.
        -24    2    4    4    0    0 -0.27180548014E+03  0.39580207144E+03  0.11048846945E+03  0.49929597044E+03  0.80939887700E+02 0.  0.
         24    2    4    4    0    0  0.48835845582E+03  0.10463246931E+02  0.29061037922E+03  0.57389332403E+03  0.79345409048E+02 0.  0.
         13    1    3    3    0    0 -0.81225982786E+02 -0.14447411608E+03  0.27346352588E+03  0.31976980859E+03  0.00000000000E+00 0. -1.
        -13    1    3    3    0    0 -0.13532699290E+03 -0.26179120229E+03  0.28676001805E+03  0.41119257843E+03  0.00000000000E+00 0.  1.
          4    1    6    6  502    0  0.99758738423E+02  0.31128025907E+02  0.45450247282E+02  0.11395825932E+03  0.00000000000E+00 0. -1.
          3    1    5    5  503    0 -0.12398998463E+03  0.15798370537E+03  0.75804095113E+01  0.20097221215E+03  0.00000000000E+00 0. -1.
         -4    1    5    5    0  503 -0.14781549551E+03  0.23781836607E+03  0.10290805994E+03  0.29832375828E+03  0.00000000000E+00 0.  1.
         -3    1    6    6    0  502  0.38859971740E+03 -0.20664778976E+02  0.24516013194E+03  0.45993506471E+03  0.00000000000E+00 0.  1.
<mgrwt>
<rscale>  0 0.15267032E+04</rscale>
<asrwt>0</asrwt>
<pdfrwt beam="1">  1        1 0.21272877E+00 0.15267032E+04</pdfrwt>
<pdfrwt beam="2">  1       -1 0.64833023E-01 0.15267032E+04</pdfrwt>
<totfact> 0.18395605E+01</totfact>
</mgrwt>
</event>
<event>
12    1  0.1504874E-007  0.2147099E+04  0.7818608E-02  0.8540775E-01
         -1   -1    0    0    0  501 -0.00000000000E+00  0.00000000000E+00  0.75243906788E+03  0.75243906788E+03  0.00000000000E+00 0.  1.
          1   -1    0    0  501    0  0.00000000000E+00 -0.00000000000E+00 -0.15316970156E+04  0.15316970156E+04  0.00000000000E+00 0. -1.
         23    2    1    2    0    0 -0.98019233617E+02 -0.73054535390E+03 -0.82836164574E+03  0.11126105773E+04  0.91733288772E+02 0.  0.
        254    2    1    2    0    0  0.98019233617E+02  0.73054535390E+03  0.49103698057E+02  0.11715255062E+04  0.90926154335E+03 0.  0.
        -24    2    4    4    0    0 -0.91997416263E+02 -0.18981195630E+03  0.34501147946E+02  0.22841237724E+03  0.80559180197E+02 0.  0.
         24    2    4    4    0    0  0.19001664988E+03  0.92035731020E+03  0.14602550112E+02  0.94311312894E+03  0.78007908838E+02 0.  0.
         13    1    3    3    0    0 -0.74114057973E+02 -0.36196728869E+03 -0.35696418440E+03  0.51374764293E+03  0.00000000000E+00 0. -1.
        -13    1    3    3    0    0 -0.23905175644E+02 -0.36857806520E+03 -0.47139746133E+03  0.59886293434E+03  0.00000000000E+00 0.  1.
          2    1    6    6  502    0  0.15235147478E+03  0.66185120528E+03  0.41924805008E+02  0.68045255461E+03  0.00000000000E+00 0. -1.
          1    1    5    5  503    0  0.73789509780E+01 -0.26564313425E+02  0.24746466797E+02  0.37047257446E+02  0.00000000000E+00 0. -1.
         -2    1    5    5    0  503 -0.99376367241E+02 -0.16324764288E+03  0.97546811483E+01  0.19136511980E+03  0.00000000000E+00 0.  1.
         -1    1    6    6    0  502  0.37665175100E+02  0.25850610492E+03 -0.27322254896E+02  0.26266057433E+03  0.00000000000E+00 0.  1.
<mgrwt>
<rscale>  0 0.21470991E+04</rscale>
<asrwt>0</asrwt>
<pdfrwt beam="1">  1        1 0.23564569E+00 0.21470991E+04</pdfrwt>
<pdfrwt beam="2">  1       -1 0.11575986E+00 0.21470991E+04</pdfrwt>
<totfact> 0.38484048E+00</totfact>
</mgrwt>
</event>
<event>
12    1  0.1504874E-007  0.4227364E+04  0.7818608E-02  0.7960187E-01
          1   -1    0    0  501    0  0.00000000000E+00  0.00000000000E+00  0.17882739855E+04  0.17882739855E+04  0.00000000000E+00 0. -1.
         -1   -1    0    0    0  501 -0.00000000000E+00 -0.00000000000E+00 -0.24983035248E+04  0.24983035248E+04  0.00000000000E+00 0.  1.
         23    2    1    2    0    0 -0.85663173745E+03 -0.85252023066E+03 -0.19751964870E+04  0.23173430710E+04  0.89827998084E+02 0.  0.
        254    2    1    2    0    0  0.85663173745E+03  0.85252023066E+03  0.12651669476E+04  0.19692344393E+04  0.90367482790E+03 0.  0.
        -24    2    4    4    0    0 -0.51761245797E+02 -0.13419779195E+03  0.16359941985E+03  0.23183908611E+03  0.79349339899E+02 0.  0.
         24    2    4    4    0    0  0.90839298325E+03  0.98671802261E+03  0.11015675277E+04  0.17373953532E+04  0.79380899092E+02 0.  0.
         13    1    3    3    0    0 -0.49663696932E+03 -0.44688506674E+03 -0.10336132539E+04  0.12307359184E+04  0.00000000000E+00 0.  1.
        -13    1    3    3    0    0 -0.35999476813E+03 -0.40563516392E+03 -0.94158323309E+03  0.10866071526E+04  0.00000000000E+00 0. -1.
          4    1    6    6  502    0  0.43379076504E+03  0.52909543817E+03  0.55314402600E+03  0.87982084769E+03  0.00000000000E+00 0. -1.
          1    1    5    5  503    0 -0.44596349995E+02 -0.12807053559E+03  0.10243512704E+03  0.16995249857E+03  0.00000000000E+00 0. -1.
         -2    1    5    5    0  503 -0.71648958022E+01 -0.61272563619E+01  0.61164292809E+02  0.61886587539E+02  0.00000000000E+00 0.  1.
         -3    1    6    6    0  502  0.47460221820E+03  0.45762258443E+03  0.54842350171E+03  0.85757450553E+03  0.00000000000E+00 0.  1.
<mgrwt>
<rscale>  0 0.42273638E+04</rscale>
<asrwt>0</asrwt>
<pdfrwt beam="1">  1        1 0.27511908E+00 0.42273638E+04</pdfrwt>
<pdfrwt beam="2">  1       -1 0.38435438E+00 0.42273638E+04</pdfrwt>
<totfact> 0.29131504E-02</totfact>
</mgrwt>
</event>
<event>
12    1  0.1504874E-007  0.2595248E+04  0.7818608E-02  0.8369817E-01
          1   -1    0    0  501    0  0.00000000000E+00  0.00000000000E+00  0.13018131710E+04  0.13018131710E+04  0.00000000000E+00 0. -1.
         -1   -1    0    0    0  501 -0.00000000000E+00 -0.00000000000E+00 -0.12934483177E+04  0.12934483177E+04  0.00000000000E+00 0.  1.
         23    2    1    2    0    0  0.10789137958E+04 -0.50687173204E+01  0.36833438061E+03  0.11439824691E+04  0.94578025682E+02 0.  0.
        254    2    1    2    0    0 -0.10789137958E+04  0.50687173204E+01 -0.35996952726E+03  0.14512790196E+04  0.90141669691E+03 0.  0.
        -24    2    4    4    0    0 -0.92287974643E+03 -0.96616238270E+02  0.11155966140E+03  0.93809810024E+03  0.80874988433E+02 0.  0.
         24    2    4    4    0    0 -0.15603404938E+03  0.10168495559E+03 -0.47152918866E+03  0.51318091935E+03  0.79551401423E+02 0.  0.
         11    1    3    3    0    0  0.16272552543E+03  0.63256615635E+01  0.21435585694E+02  0.16425314291E+03  0.00000000000E+00 0.  1.
        -11    1    3    3    0    0  0.91618827037E+03 -0.11394378884E+02  0.34689879492E+03  0.97972932617E+03  0.00000000000E+00 0. -1.
          4    1    6    6  502    0 -0.12323366181E+03  0.51672180718E+02 -0.38860361507E+03  0.41093712330E+03  0.00000000000E+00 0. -1.
          1    1    5    5  503    0 -0.74692881522E+03 -0.45988546416E+02  0.91174465568E+02  0.75387690280E+03  0.00000000000E+00 0. -1.
         -2    1    5    5    0  503 -0.17595093121E+03 -0.50627691854E+02  0.20385195828E+02  0.18422119743E+03  0.00000000000E+00 0.  1.
         -3    1    6    6    0  502 -0.32800387572E+02  0.50012774873E+02 -0.82925573596E+02  0.10224379605E+03  0.00000000000E+00 0.  1.
<mgrwt>
<rscale>  0 0.25952480E+04</rscale>
<asrwt>0</asrwt>
<pdfrwt beam="1">  1        1 0.20027895E+00 0.25952480E+04</pdfrwt>
<pdfrwt beam="2">  1       -1 0.19899205E+00 0.25952480E+04</pdfrwt>
<totfact> 0.12153458E+00</totfact>
</mgrwt>
</event>
<event>
12    1  0.1504874E-007  0.2056678E+04  0.7818608E-02  0.8580571E-01
          1   -1    0    0  501    0  0.00000000000E+00  0.00000000000E+00  0.12244239788E+04  0.12244239788E+04  0.00000000000E+00 0. -1.
         -1   -1    0    0    0  501 -0.00000000000E+00 -0.00000000000E+00 -0.86365595483E+03  0.86365595483E+03  0.00000000000E+00 0.  1.
         23    2    1    2    0    0  0.64846026948E+03  0.33101073102E+03 -0.25177106948E+03  0.77584453996E+03  0.92072002328E+02 0.  0.
        254    2    1    2    0    0 -0.64846026948E+03 -0.33101073102E+03  0.61253909349E+03  0.13122353937E+04  0.90370833918E+03 0.  0.
        -24    2    4    4    0    0  0.61392234295E+02  0.19204041722E+03  0.30699033736E+03  0.37573100479E+03  0.79260282959E+02 0.  0.
         24    2    4    4    0    0 -0.70985250377E+03 -0.52305114824E+03  0.30554875613E+03  0.93650438892E+03  0.78786720310E+02 0.  0.
         11    1    3    3    0    0  0.33717753404E+03  0.14406504159E+03 -0.16737191650E+03  0.40305928113E+03  0.00000000000E+00 0.  1.
        -11    1    3    3    0    0  0.31128273543E+03  0.18694568943E+03 -0.84399152985E+02  0.37278525883E+03  0.00000000000E+00 0. -1.
          2    1    6    6  502    0 -0.24543686877E+03 -0.13700321718E+03  0.86606376408E+02  0.29412548768E+03  0.00000000000E+00 0. -1.
          3    1    5    5  503    0  0.74521046588E+01  0.31735053262E+02  0.11656215167E+03  0.12103463418E+03  0.00000000000E+00 0. -1.
         -4    1    5    5    0  503  0.53940129636E+02  0.16030536396E+03  0.19042818568E+03  0.25469637061E+03  0.00000000000E+00 0.  1.
         -1    1    6    6    0  502 -0.46441563500E+03 -0.38604793106E+03  0.21894237972E+03  0.64237890123E+03  0.00000000000E+00 0.  1.
<mgrwt>
<rscale>  0 0.20566780E+04</rscale>
<asrwt>0</asrwt>
<pdfrwt beam="1">  1        1 0.18837292E+00 0.20566780E+04</pdfrwt>
<pdfrwt beam="2">  1       -1 0.13287015E+00 0.20566780E+04</pdfrwt>
<totfact> 0.45426583E+00</totfact>
</mgrwt>
</event>
<event>
12    1  0.2251404E-007  0.1942735E+04  0.7818608E-02  0.8633872E-01
          2   -1    0    0  501    0  0.00000000000E+00  0.00000000000E+00  0.20979173100E+04  0.20979173100E+04  0.00000000000E+00 0. -1.
         -2   -1    0    0    0  501 -0.00000000000E+00 -0.00000000000E+00 -0.44975794086E+03  0.44975794086E+03  0.00000000000E+00 0.  1.
         23    2    1    2    0    0  0.92843393424E+02  0.46903177415E+03  0.14431267111E+04  0.15230189033E+04  0.91439459882E+02 0.  0.
        254    2    1    2    0    0 -0.92843393424E+02 -0.46903177415E+03  0.20503265807E+03  0.10246563475E+04  0.88276358036E+03 0.  0.
        -24    2    4    4    0    0 -0.97391503395E+02 -0.67718620588E+03  0.33493513541E+03  0.76577684815E+03  0.78526262232E+02 0.  0.
         24    2    4    4    0    0  0.45481099713E+01  0.20815443174E+03 -0.12990247734E+03  0.25887949938E+03  0.82431722211E+02 0.  0.
         13    1    3    3    0    0  0.10874060413E+03  0.44392769411E+03  0.13591031950E+04  0.14338960252E+04  0.00000000000E+00 0. -1.
        -13    1    3    3    0    0 -0.15897210708E+02  0.25104080037E+02  0.84023516071E+02  0.89122878072E+02  0.00000000000E+00 0.  1.
          2    1    6    6  502    0  0.18942156124E+02  0.18839715222E+03 -0.13666612087E+03  0.23351642520E+03  0.00000000000E+00 0. -1.
          3    1    5    5  503    0 -0.93456330490E+02 -0.67561067451E+03  0.33733418946E+03  0.76090618647E+03  0.00000000000E+00 0. -1.
         -2    1    5    5    0  503 -0.39351729058E+01 -0.15755313723E+01 -0.23990540528E+01  0.48706616852E+01  0.00000000000E+00 0.  1.
         -1    1    6    6    0  502 -0.14394046153E+02  0.19757279515E+02  0.67636435275E+01  0.25363074187E+02  0.00000000000E+00 0.  1.
<mgrwt>
<rscale>  0 0.19427352E+04</rscale>
<asrwt>0</asrwt>
<pdfrwt beam="1">  1        2 0.32275650E+00 0.19427352E+04</pdfrwt>
<pdfrwt beam="2">  1       -2 0.69193530E-01 0.19427352E+04</pdfrwt>
<totfact> 0.10484051E+01</totfact>
</mgrwt>
</event>
<event>
12    1  0.1504874E-007  0.2005320E+04  0.7818608E-02  0.8604137E-01
         -2   -1    0    0    0  501 -0.00000000000E+00  0.00000000000E+00  0.27658031709E+03  0.27658031709E+03  0.00000000000E+00 0.  1.
          2   -1    0    0  501    0  0.00000000000E+00 -0.00000000000E+00 -0.36348482508E+04  0.36348482508E+04  0.00000000000E+00 0. -1.
         23    2    1    2    0    0  0.70032908746E+03  0.12240930614E+03 -0.64065915157E+03  0.96138565579E+03  0.91506074653E+02 0.  0.
        254    2    1    2    0    0 -0.70032908746E+03 -0.12240930614E+03 -0.27176087822E+04  0.29500429121E+04  0.90106094219E+03 0.  0.
        -24    2    4    4    0    0 -0.13268773557E+03  0.33772103750E+03 -0.13157995111E+04  0.13670524028E+04  0.76435489271E+02 0.  0.
         24    2    4    4    0    0 -0.56764135189E+03 -0.46013034365E+03 -0.14018092710E+04  0.15829905094E+04  0.82783349297E+02 0.  0.
         11    1    3    3    0    0  0.32980986662E+03  0.35073825863E+02 -0.24510280748E+03  0.41240769587E+03  0.00000000000E+00 0.  1.
        -11    1    3    3    0    0  0.37051922084E+03  0.87335480280E+02 -0.39555634409E+03  0.54897795992E+03  0.00000000000E+00 0. -1.
          2    1    6    6  502    0 -0.56357939080E+03 -0.44192002368E+03 -0.13555775819E+04  0.15331358771E+04  0.00000000000E+00 0. -1.
          3    1    5    5  503    0 -0.74063466581E+02  0.13936382608E+03 -0.69530463665E+03  0.71299103139E+03  0.00000000000E+00 0. -1.
         -4    1    5    5    0  503 -0.58624268985E+02  0.19835721143E+03 -0.62049487450E+03  0.65406137137E+03  0.00000000000E+00 0.  1.
         -1    1    6    6    0  502 -0.40619610955E+01 -0.18210319961E+02 -0.46231689170E+02  0.49854632328E+02  0.00000000000E+00 0.  1.
<mgrwt>
<rscale>  0 0.20053204E+04</rscale>
<asrwt>0</asrwt>
<pdfrwt beam="1">  1        2 0.55920740E+00 0.20053204E+04</pdfrwt>
<pdfrwt beam="2">  1       -2 0.42550820E-01 0.20053204E+04</pdfrwt>
<totfact> 0.31890879E+00</totfact>
</mgrwt>
</event>
<event>
12    1  0.1504874E-007  0.1275091E+04  0.7818608E-02  0.9049555E-01
          2   -1    0    0  501    0  0.00000000000E+00  0.00000000000E+00  0.20890140167E+03  0.20890140167E+03  0.00000000000E+00 0. -1.
         -2   -1    0    0    0  501 -0.00000000000E+00 -0.00000000000E+00 -0.19457228417E+04  0.19457228417E+04  0.00000000000E+00 0.  1.
         23    2    1    2    0    0  0.25665393516E+03 -0.72337481494E+02 -0.68201396521E+03  0.73795722486E+03  0.91289995727E+02 0.  0.
        254    2    1    2    0    0 -0.25665393516E+03  0.72337481494E+02 -0.10548074748E+04  0.14166670185E+04  0.90731619556E+03 0.  0.
        -24    2    4    4    0    0 -0.12120810800E+03  0.37483822608E+03 -0.11594446079E+03  0.41794817772E+03  0.77733262483E+02 0.  0.
         24    2    4    4    0    0 -0.13544582716E+03 -0.30250074458E+03 -0.93886301405E+03  0.99871884080E+03  0.78251461662E+02 0.  0.
         13    1    3    3    0    0  0.19638894408E+03 -0.47079757125E+02 -0.39540205316E+03  0.44399088339E+03  0.00000000000E+00 0.  1.
        -13    1    3    3    0    0  0.60264991081E+02 -0.25257724369E+02 -0.28661191205E+03  0.29396634147E+03  0.00000000000E+00 0. -1.
          4    1    6    6  502    0 -0.12348260156E+03 -0.26444664024E+03 -0.88367096434E+03  0.93062041221E+03  0.00000000000E+00 0. -1.
          3    1    5    5  503    0 -0.10350672038E+03  0.36095338623E+03 -0.95279871717E+02  0.38740062229E+03  0.00000000000E+00 0. -1.
         -4    1    5    5    0  503 -0.17701387618E+02  0.13884839845E+02 -0.20664589069E+02  0.30547555426E+02  0.00000000000E+00 0.  1.
         -3    1    6    6    0  502 -0.11963225593E+02 -0.38054104346E+02 -0.55192049713E+02  0.68098428585E+02  0.00000000000E+00 0.  1.
<mgrwt>
<rscale>  0 0.12750909E+04</rscale>
<asrwt>0</asrwt>
<pdfrwt beam="1">  1        2 0.32138678E-01 0.12750909E+04</pdfrwt>
<pdfrwt beam="2">  1       -2 0.29934197E+00 0.12750909E+04</pdfrwt>
<totfact> 0.52231849E+00</totfact>
</mgrwt>
</event>
<event>
12    1  0.1504874E-007  0.2322139E+04  0.7818608E-02  0.8469243E-01
         -2   -1    0    0    0  501 -0.00000000000E+00  0.00000000000E+00  0.98589539182E+03  0.98589539182E+03  0.00000000000E+00 0.  1.
          2   -1    0    0  501    0  0.00000000000E+00 -0.00000000000E+00 -0.13673683482E+04  0.13673683482E+04  0.00000000000E+00 0. -1.
         23    2    1    2    0    0 -0.78672735191E+03  0.52612101011E+03  0.11092883677E+03  0.95735591954E+03  0.92097265599E+02 0.  0.
        254    2    1    2    0    0  0.78672735191E+03 -0.52612101011E+03 -0.49240179313E+03  0.13959078205E+04  0.90019768598E+03 0.  0.
        -24    2    4    4    0    0  0.97374961346E+03 -0.49610149877E+03 -0.37279665725E+03  0.11577537639E+04  0.84329255570E+02 0.  0.
         24    2    4    4    0    0 -0.18702226155E+03 -0.30019511338E+02 -0.11960513588E+03  0.23815405658E+03  0.80829875417E+02 0.  0.
         13    1    3    3    0    0 -0.12301319864E+03  0.73980286009E+02 -0.15495108542E+02  0.14437945888E+03  0.00000000000E+00 0. -1.
        -13    1    3    3    0    0 -0.66371415327E+03  0.45214072410E+03  0.12642394531E+03  0.81297646066E+03  0.00000000000E+00 0.  1.
          4    1    6    6  502    0 -0.11022875316E+02 -0.27386400566E+02 -0.12123899301E+02  0.31914066655E+02  0.00000000000E+00 0. -1.
          1    1    5    5  503    0  0.37204463195E+03 -0.14755970377E+03 -0.11957725438E+03  0.41771975546E+03  0.00000000000E+00 0. -1.
         -2    1    5    5    0  503  0.60170498151E+03 -0.34854179499E+03 -0.25321940288E+03  0.74003400843E+03  0.00000000000E+00 0.  1.
         -3    1    6    6    0  502 -0.17599938623E+03 -0.26331107718E+01 -0.10748123658E+03  0.20623998992E+03  0.00000000000E+00 0.  1.
<mgrwt>
<rscale>  0 0.23221388E+04</rscale>
<asrwt>0</asrwt>
<pdfrwt beam="1">  1        2 0.21036436E+00 0.23221388E+04</pdfrwt>
<pdfrwt beam="2">  1       -2 0.15167621E+00 0.23221388E+04</pdfrwt>
<totfact> 0.39781272E+00</totfact>
</mgrwt>
</event>
<event>
12    1  0.1504874E-007  0.1579022E+04  0.7818608E-02  0.8833540E-01
         -2   -1    0    0    0  501 -0.00000000000E+00  0.00000000000E+00  0.45931999284E+03  0.45931999284E+03  0.00000000000E+00 0. -1.
          2   -1    0    0  501    0  0.00000000000E+00 -0.00000000000E+00 -0.13570657430E+04  0.13570657430E+04  0.00000000000E+00 0.  1.
         23    2    1    2    0    0  0.22088028741E+02 -0.24095312239E+03  0.23498123250E+03  0.34982362632E+03  0.92812185064E+02 0.  0.
        254    2    1    2    0    0 -0.22088028741E+02  0.24095312239E+03 -0.11327269827E+04  0.14665621095E+04  0.89954861771E+03 0.  0.
        -24    2    4    4    0    0  0.17921647169E+03 -0.23251925168E+03 -0.78154891626E+03  0.83848212598E+03  0.77780595052E+02 0.  0.
         24    2    4    4    0    0 -0.20130450043E+03  0.47347237407E+03 -0.35117806640E+03  0.62807998353E+03  0.80366911672E+02 0.  0.
         13    1    3    3    0    0  0.17620398638E+01  0.67571333568E+01 -0.10527001066E+01  0.70619978191E+01  0.00000000000E+00 0.  1.
        -13    1    3    3    0    0  0.20325988877E+02 -0.24771025575E+03  0.23603393261E+03  0.34276162850E+03  0.00000000000E+00 0. -1.
          4    1    6    6  502    0 -0.18300417765E+03  0.44780406991E+03 -0.34895013758E+03  0.59647733619E+03  0.00000000000E+00 0. -1.
          3    1    5    5  503    0  0.17546043602E+03 -0.23503910300E+03 -0.78056495803E+03  0.83385334337E+03  0.00000000000E+00 0. -1.
         -4    1    5    5    0  503  0.37560356775E+01  0.25198513215E+01 -0.98395822598E+00  0.46287826136E+01  0.00000000000E+00 0.  1.
         -3    1    6    6    0  502 -0.18300322786E+02  0.25668304157E+02 -0.22279288171E+01  0.31602647345E+02  0.00000000000E+00 0.  1.
<mgrwt>
<rscale>  0 0.15790218E+04</rscale>
<asrwt>0</asrwt>
<pdfrwt beam="1">  1        2 0.20877934E+00 0.15790218E+04</pdfrwt>
<pdfrwt beam="2">  1       -2 0.70664615E-01 0.15790218E+04</pdfrwt>
<totfact> 0.26787899E+01</totfact>
</mgrwt>
</event>
<event>
12    1  0.1504874E-007  0.1773278E+04  0.7818608E-02  0.8720640E-01
          1   -1    0    0  501    0  0.00000000000E+00  0.00000000000E+00  0.19132229046E+04  0.19132229046E+04  0.00000000000E+00 0. -1.
         -1   -1    0    0    0  501 -0.00000000000E+00 -0.00000000000E+00 -0.41089245520E+03  0.41089245520E+03  0.00000000000E+00 0.  1.
         23    2    1    2    0    0  0.21220449343E+03 -0.12908826686E+03  0.12952629048E+04  0.13221669641E+04  0.93407498490E+02 0.  0.
        254    2    1    2    0    0 -0.21220449343E+03  0.12908826686E+03  0.20706754462E+03  0.10019483957E+04  0.94832963254E+03 0.  0.
        -24    2    4    4    0    0  0.29286097118E+03  0.31305835529E+03  0.69528400648E+02  0.44145574740E+03  0.79220553831E+02 0.  0.
         24    2    4    4    0    0 -0.50506546462E+03 -0.18397008844E+03  0.13753914398E+03  0.56049264831E+03  0.79365456565E+02 0.  0.
         11    1    3    3    0    0  0.18448441442E+03 -0.13244863071E+03  0.12355386794E+04  0.12562376237E+04  0.00000000000E+00 0. -1.
        -11    1    3    3    0    0  0.27720079010E+02  0.33603638502E+01  0.59724225338E+02  0.65929340341E+02  0.00000000000E+00 0.  1.
          4    1    6    6  502    0 -0.11035108346E+03 -0.12445092978E+02  0.47604767962E+02  0.12082407001E+03  0.00000000000E+00 0. -1.
          3    1    5    5  503    0  0.35208818908E+02  0.13463744490E+02 -0.85871839367E+01  0.38661001960E+02  0.00000000000E+00 0. -1.
         -4    1    5    5    0  503  0.25765215228E+03  0.29959461080E+03  0.78115584584E+02  0.40279474544E+03  0.00000000000E+00 0.  1.
         -3    1    6    6    0  502 -0.39471438116E+03 -0.17152499546E+03  0.89934376015E+02  0.43966857830E+03  0.00000000000E+00 0.  1.
<mgrwt>
<rscale>  0 0.17732782E+04</rscale>
<asrwt>0</asrwt>
<pdfrwt beam="1">  1        1 0.29434198E+00 0.17732782E+04</pdfrwt>
<pdfrwt beam="2">  1       -1 0.63214225E-01 0.17732782E+04</pdfrwt>
<totfact> 0.81927999E+00</totfact>
</mgrwt>
</event>
<event>
12    1  0.1504874E-007  0.2334542E+04  0.7818608E-02  0.8464425E-01
         -2   -1    0    0    0  501 -0.00000000000E+00  0.00000000000E+00  0.79544382461E+03  0.79544382461E+03  0.00000000000E+00 0.  1.
          2   -1    0    0  501    0  0.00000000000E+00 -0.00000000000E+00 -0.17129077174E+04  0.17129077174E+04  0.00000000000E+00 0. -1.
         23    2    1    2    0    0  0.35573520631E+03 -0.28695732144E+03 -0.13218027028E+04  0.14015852049E+04  0.91578709918E+02 0.  0.
        254    2    1    2    0    0 -0.35573520631E+03  0.28695732144E+03  0.40433880996E+03  0.11067663372E+04  0.92333623914E+03 0.  0.
        -24    2    4    4    0    0  0.14132784363E+03 -0.19548078611E+03 -0.70902559678E+02  0.26310141868E+03  0.77517007290E+02 0.  0.
         24    2    4    4    0    0 -0.49706304994E+03  0.48243810755E+03  0.47524136963E+03  0.84366491849E+03  0.78089256983E+02 0.  0.
         13    1    3    3    0    0  0.26624464873E+03 -0.26015155595E+03 -0.10306359497E+04  0.10957990262E+04  0.00000000000E+00 0. -1.
        -13    1    3    3    0    0  0.89490557575E+02 -0.26805765483E+02 -0.29116675306E+03  0.30578617864E+03  0.00000000000E+00 0.  1.
          4    1    6    6  502    0 -0.41632716803E+02  0.29616375024E+02  0.60354987862E+02  0.79076781281E+02  0.00000000000E+00 0. -1.
          3    1    5    5  503    0  0.69509184898E+02 -0.13303395590E+03 -0.75099868987E+02  0.16783786977E+03  0.00000000000E+00 0. -1.
         -4    1    5    5    0  503  0.71818658730E+02 -0.62446830213E+02  0.41973093091E+01  0.95263548909E+02  0.00000000000E+00 0.  1.
         -3    1    6    6    0  502 -0.45543033313E+03  0.45282173252E+03  0.41488638177E+03  0.76458813721E+03  0.00000000000E+00 0.  1.
<mgrwt>
<rscale>  0 0.23345422E+04</rscale>
<asrwt>0</asrwt>
<pdfrwt beam="1">  1        2 0.26352426E+00 0.23345422E+04</pdfrwt>
<pdfrwt beam="2">  1       -2 0.12237597E+00 0.23345422E+04</pdfrwt>
<totfact> 0.44101837E+00</totfact>
</mgrwt>
</event>
<event>
12    1  0.1504874E-007  0.1812473E+04  0.7818608E-02  0.8699694E-01
         -2   -1    0    0    0  501 -0.00000000000E+00  0.00000000000E+00  0.51478527787E+03  0.51478527787E+03  0.00000000000E+00 0.  1.
          2   -1    0    0  501    0  0.00000000000E+00 -0.00000000000E+00 -0.15953540518E+04  0.15953540518E+04  0.00000000000E+00 0. -1.
         23    2    1    2    0    0  0.43810790262E+03 -0.28857177211E+02 -0.10111320087E+04  0.11061107859E+04  0.91224232621E+02 0.  0.
        254    2    1    2    0    0 -0.43810790262E+03  0.28857177211E+02 -0.69436765229E+02  0.10040285438E+04  0.90026695005E+03 0.  0.
        -24    2    4    4    0    0 -0.58757273404E+03  0.30578355897E+03  0.17870760403E+02  0.66812671513E+03  0.85607480283E+02 0.  0.
         24    2    4    4    0    0  0.14946483142E+03 -0.27692638176E+03 -0.87307525631E+02  0.33590182865E+03  0.78609654082E+02 0.  0.
         13    1    3    3    0    0  0.22299863992E+03  0.19910192593E+02 -0.43575107006E+03  0.48990183123E+03  0.00000000000E+00 0.  1.
        -13    1    3    3    0    0  0.21510926270E+03 -0.48767369805E+02 -0.57538093863E+03  0.61620895465E+03  0.00000000000E+00 0. -1.
          2    1    6    6  502    0  0.13306147846E+03 -0.17119498800E+03 -0.49331974021E+02  0.22236619489E+03  0.00000000000E+00 0. -1.
          3    1    5    5  503    0 -0.58653668307E+03  0.31007348788E+03  0.18178615412E+02  0.66370272753E+03  0.00000000000E+00 0. -1.
         -2    1    5    5    0  503 -0.10360509698E+01 -0.42899289086E+01 -0.30785500895E+00  0.44239876084E+01  0.00000000000E+00 0.  1.
         -1    1    6    6    0  502  0.16403352952E+02 -0.10573139376E+03 -0.37975551611E+02  0.11353563376E+03  0.00000000000E+00 0.  1.
<mgrwt>
<rscale>  0 0.18124732E+04</rscale>
<asrwt>0</asrwt>
<pdfrwt beam="1">  1        2 0.24543909E+00 0.18124732E+04</pdfrwt>
<pdfrwt beam="2">  1       -2 0.79197734E-01 0.18124732E+04</pdfrwt>
<totfact> 0.14960511E+01</totfact>
</mgrwt>
</event>
<event>
12    1  0.1504874E-007  0.2101057E+04  0.7818608E-02  0.8560778E-01
          1   -1    0    0  501    0  0.00000000000E+00  0.00000000000E+00  0.19086808025E+04  0.19086808025E+04  0.00000000000E+00 0. -1.
         -1   -1    0    0    0  501 -0.00000000000E+00 -0.00000000000E+00 -0.57820556984E+03  0.57820556984E+03  0.00000000000E+00 0.  1.
         23    2    1    2    0    0  0.28838504232E+03 -0.32347591262E+03 -0.32521359025E+03  0.54982719960E+03  0.93506531630E+02 0.  0.
        254    2    1    2    0    0 -0.28838504232E+03  0.32347591262E+03  0.16556888229E+04  0.19370591727E+04  0.90724316568E+03 0.  0.
        -24    2    4    4    0    0 -0.40489131289E+03  0.57023055775E+03  0.13299727824E+04  0.15046479450E+04  0.77704389129E+02 0.  0.
         24    2    4    4    0    0  0.11650627057E+03 -0.24675464513E+03  0.32571604049E+03  0.43241122775E+03  0.80168353383E+02 0.  0.
         11    1    3    3    0    0  0.42177467447E+01 -0.79510217828E+01 -0.33413860496E+02  0.34604829261E+02  0.00000000000E+00 0. -1.
        -11    1    3    3    0    0  0.28416729558E+03 -0.31552489084E+03 -0.29179972975E+03  0.51522237034E+03  0.00000000000E+00 0.  1.
          4    1    6    6  502    0  0.39414710457E+01 -0.18170291257E+02  0.66039630752E+02  0.68607051447E+02  0.00000000000E+00 0. -1.
          1    1    5    5  503    0 -0.17223598261E+03  0.17850099119E+03  0.46704912507E+03  0.52883146917E+03  0.00000000000E+00 0. -1.
         -2    1    5    5    0  503 -0.23265533028E+03  0.39172956657E+03  0.86292365734E+03  0.97581647579E+03  0.00000000000E+00 0.  1.
         -3    1    6    6    0  502  0.11256479952E+03 -0.22858435387E+03  0.25967640973E+03  0.36380417631E+03  0.00000000000E+00 0.  1.
<mgrwt>
<rscale>  0 0.21010568E+04</rscale>
<asrwt>0</asrwt>
<pdfrwt beam="1">  1        1 0.29364320E+00 0.21010568E+04</pdfrwt>
<pdfrwt beam="2">  1       -1 0.88954704E-01 0.21010568E+04</pdfrwt>
<totfact> 0.39172030E+00</totfact>
</mgrwt>
</event>
<event>
12    1  0.1504874E-007  0.2959726E+04  0.7818608E-02  0.8255326E-01
          1   -1    0    0  501    0  0.00000000000E+00  0.00000000000E+00  0.10533749301E+04  0.10533749301E+04  0.00000000000E+00 0. -1.
         -1   -1    0    0    0  501 -0.00000000000E+00 -0.00000000000E+00 -0.20790263525E+04  0.20790263525E+04  0.00000000000E+00 0.  1.
         23    2    1    2    0    0 -0.10695961433E+04 -0.68589984280E+02 -0.13184158576E+04  0.17016204782E+04  0.92473685251E+02 0.  0.
        254    2    1    2    0    0  0.10695961433E+04  0.68589984280E+02  0.29276443523E+03  0.14307808043E+04  0.90148887945E+03 0.  0.
        -24    2    4    4    0    0  0.36096135786E+03 -0.40202910417E+03  0.10675937986E+03  0.55633843579E+03  0.78704431131E+02 0.  0.
         24    2    4    4    0    0  0.70863478543E+03  0.47061908845E+03  0.18600505538E+03  0.87444236852E+03  0.80037426936E+02 0.  0.
         11    1    3    3    0    0 -0.52285240242E+03 -0.58337538537E+02 -0.58477903149E+03  0.78660308847E+03  0.00000000000E+00 0. -1.
        -11    1    3    3    0    0 -0.54674374088E+03 -0.10252445743E+02 -0.73363682615E+03  0.91501738973E+03  0.00000000000E+00 0.  1.
          4    1    6    6  502    0  0.28890053693E+03  0.17942303830E+03  0.35788612051E+02  0.34196048261E+03  0.00000000000E+00 0. -1.
          1    1    5    5  503    0 -0.27988070555E+01 -0.13395559930E+02  0.28270644876E+01  0.13973784040E+02  0.00000000000E+00 0. -1.
         -2    1    5    5    0  503  0.36376016492E+03 -0.38863354424E+03  0.10393231537E+03  0.54236465175E+03  0.00000000000E+00 0.  1.
         -3    1    6    6    0  502  0.41973424850E+03  0.29119605015E+03  0.15021644332E+03  0.53248188592E+03  0.00000000000E+00 0.  1.
<mgrwt>
<rscale>  0 0.29597258E+04</rscale>
<asrwt>0</asrwt>
<pdfrwt beam="1">  1        1 0.16205768E+00 0.29597258E+04</pdfrwt>
<pdfrwt beam="2">  1       -1 0.31985021E+00 0.29597258E+04</pdfrwt>
<totfact> 0.28814888E-01</totfact>
</mgrwt>
</event>
<event>
12    1  0.1504874E-007  0.1207971E+04  0.7818608E-02  0.9105908E-01
         -2   -1    0    0    0  501 -0.00000000000E+00  0.00000000000E+00  0.57999592034E+03  0.57999592034E+03  0.00000000000E+00 0. -1.
          2   -1    0    0  501    0  0.00000000000E+00 -0.00000000000E+00 -0.62896682576E+03  0.62896682576E+03  0.00000000000E+00 0.  1.
         23    2    1    2    0    0  0.16217815207E+03  0.28444522502E+02  0.18600905730E+03  0.26495246834E+03  0.92139010285E+02 0.  0.
        254    2    1    2    0    0 -0.16217815207E+03 -0.28444522502E+02 -0.23497996272E+03  0.94401027775E+03  0.89934919679E+03 0.  0.
        -24    2    4    4    0    0  0.35250278073E+03  0.44260092559E+02 -0.20384754770E+03  0.41731646889E+03  0.79887710533E+02 0.  0.
         24    2    4    4    0    0 -0.51468093279E+03 -0.72704615061E+02 -0.31132415021E+02  0.52669380886E+03  0.79086771297E+02 0.  0.
         11    1    3    3    0    0  0.64924997594E+02  0.20129377836E+02  0.14291122233E+03  0.15825316626E+03  0.00000000000E+00 0.  1.
        -11    1    3    3    0    0  0.97253154474E+02  0.83151446665E+01  0.43097834971E+02  0.10669930208E+03  0.00000000000E+00 0. -1.
          2    1    6    6  502    0 -0.90678485654E+02 -0.37084662595E+02  0.13370451122E+02  0.98876837143E+02  0.00000000000E+00 0. -1.
          1    1    5    5  503    0  0.19486739035E+02 -0.15155624885E+02 -0.59016916568E+01  0.25382197074E+02  0.00000000000E+00 0. -1.
         -2    1    5    5    0  503  0.33301604169E+03  0.59415717444E+02 -0.19794585604E+03  0.39193427182E+03  0.00000000000E+00 0.  1.
         -1    1    6    6    0  502 -0.42400244714E+03 -0.35619952466E+02 -0.44502866143E+02  0.42781697172E+03  0.00000000000E+00 0.  1.
<mgrwt>
<rscale>  0 0.12079705E+04</rscale>
<asrwt>0</asrwt>
<pdfrwt beam="1">  1        2 0.96764127E-01 0.12079705E+04</pdfrwt>
<pdfrwt beam="2">  1       -2 0.89230142E-01 0.12079705E+04</pdfrwt>
<totfact> 0.49802094E+01</totfact>
</mgrwt>
</event>
<event>
12    1  0.1504874E-007  0.1999243E+04  0.7818608E-02  0.8606975E-01
          1   -1    0    0  501    0  0.00000000000E+00  0.00000000000E+00  0.18176125126E+04  0.18176125126E+04  0.00000000000E+00 0. -1.
         -1   -1    0    0    0  501 -0.00000000000E+00 -0.00000000000E+00 -0.54975576427E+03  0.54975576427E+03  0.00000000000E+00 0.  1.
         23    2    1    2    0    0  0.59713166644E+03 -0.33229983440E+03  0.99970771052E+03  0.12139222835E+04  0.84866936485E+02 0.  0.
        254    2    1    2    0    0 -0.59713166644E+03  0.33229983440E+03  0.26814903777E+03  0.11534459933E+04  0.88968778011E+03 0.  0.
        -24    2    4    4    0    0 -0.38157218421E+03 -0.42883649018E+02 -0.25694573658E+03  0.46861333347E+03  0.78364568835E+02 0.  0.
         24    2    4    4    0    0 -0.21555948223E+03  0.37518348342E+03  0.52509477435E+03  0.68483265986E+03  0.77734891495E+02 0.  0.
         11    1    3    3    0    0  0.14850935960E+03 -0.50040704775E+02  0.19202415595E+03  0.24785555973E+03  0.00000000000E+00 0.  1.
        -11    1    3    3    0    0  0.44862230684E+03 -0.28225912963E+03  0.80768355457E+03  0.96606672377E+03  0.00000000000E+00 0. -1.
          2    1    6    6  502    0 -0.25455460453E+02  0.16607362323E+02  0.62090027020E+02  0.69129996424E+02  0.00000000000E+00 0. -1.
          1    1    5    5  503    0 -0.16184497038E+03  0.14876173524E+02 -0.83104630046E+02  0.18254170622E+03  0.00000000000E+00 0. -1.
         -2    1    5    5    0  503 -0.21972721383E+03 -0.57759822542E+02 -0.17384110653E+03  0.28607162725E+03  0.00000000000E+00 0.  1.
         -1    1    6    6    0  502 -0.19010402178E+03  0.35857612110E+03  0.46300474733E+03  0.61570266344E+03  0.00000000000E+00 0.  1.
<mgrwt>
<rscale>  0 0.19992428E+04</rscale>
<asrwt>0</asrwt>
<pdfrwt beam="1">  1        1 0.27963269E+00 0.19992428E+04</pdfrwt>
<pdfrwt beam="2">  1       -1 0.84577810E-01 0.19992428E+04</pdfrwt>
<totfact> 0.50878940E+00</totfact>
</mgrwt>
</event>
<event>
12    1  0.1504874E-007  0.2324761E+04  0.7818608E-02  0.8468222E-01
          1   -1    0    0  501    0  0.00000000000E+00  0.00000000000E+00  0.71982596468E+03  0.71982596468E+03  0.00000000000E+00 0. -1.
         -1   -1    0    0    0  501 -0.00000000000E+00 -0.00000000000E+00 -0.18770204472E+04  0.18770204472E+04  0.00000000000E+00 0.  1.
         23    2    1    2    0    0  0.42203655417E+03 -0.45070221514E+03  0.36340817450E+03  0.72212914954E+03  0.90319806998E+02 0.  0.
        254    2    1    2    0    0 -0.42203655417E+03  0.45070221514E+03 -0.15206026570E+04  0.18747172623E+04  0.90613742520E+03 0.  0.
        -24    2    4    4    0    0 -0.55071401487E+01  0.13491366664E+03  0.88706160122E+02  0.18072507760E+03  0.80998424617E+02 0.  0.
         24    2    4    4    0    0 -0.41652941402E+03  0.31578854849E+03 -0.16093088171E+04  0.16939921847E+04  0.80718603141E+02 0.  0.
         13    1    3    3    0    0  0.30439999303E+03 -0.36941984603E+03  0.25262935764E+03  0.54125037713E+03  0.00000000000E+00 0. -1.
        -13    1    3    3    0    0  0.11763656113E+03 -0.81282369103E+02  0.11077881687E+03  0.18087877241E+03  0.00000000000E+00 0.  1.
          2    1    6    6  502    0 -0.40470726169E+03  0.30342998007E+03 -0.15883140240E+04  0.16669130629E+04  0.00000000000E+00 0. -1.
          1    1    5    5  503    0  0.17781462917E+02  0.12686742214E+03  0.89162165394E+02  0.15608143696E+03  0.00000000000E+00 0. -1.
         -2    1    5    5    0  503 -0.23288603066E+02  0.80462444968E+01 -0.45600527204E+00  0.24643640641E+02  0.00000000000E+00 0.  1.
         -1    1    6    6    0  502 -0.11822152327E+02  0.12358568429E+02 -0.20994793125E+02  0.27079121803E+02  0.00000000000E+00 0.  1.
<mgrwt>
<rscale>  0 0.23247607E+04</rscale>
<asrwt>0</asrwt>
<pdfrwt beam="1">  1        1 0.11074246E+00 0.23247607E+04</pdfrwt>
<pdfrwt beam="2">  1       -1 0.28877238E+00 0.23247607E+04</pdfrwt>
<totfact> 0.91952220E-01</totfact>
</mgrwt>
</event>
<event>
12    1  0.1504874E-007  0.2012221E+04  0.7818608E-02  0.8600928E-01
          1   -1    0    0  501    0  0.00000000000E+00  0.00000000000E+00  0.96793993404E+03  0.96793993404E+03  0.00000000000E+00 0. -1.
         -1   -1    0    0    0  501 -0.00000000000E+00 -0.00000000000E+00 -0.10457862214E+04  0.10457862214E+04  0.00000000000E+00 0.  1.
         23    2    1    2    0    0 -0.79371819473E+03 -0.41323834764E+02 -0.11689827484E+03  0.80865469383E+03  0.92525538261E+02 0.  0.
        254    2    1    2    0    0  0.79371819473E+03  0.41323834764E+02  0.39051987519E+02  0.12050714616E+04  0.90497289342E+03 0.  0.
        -24    2    4    4    0    0  0.63877262903E+03  0.16334886451E+03 -0.35712263196E+03  0.75415126491E+03  0.80586803923E+02 0.  0.
         24    2    4    4    0    0  0.15494556570E+03 -0.12202502975E+03  0.39617461948E+03  0.45092019667E+03  0.86466516234E+02 0.  0.
         13    1    3    3    0    0 -0.28754140436E+03 -0.35841601736E+01 -0.85934565605E+02  0.30012939708E+03  0.00000000000E+00 0.  1.
        -13    1    3    3    0    0 -0.50617679037E+03 -0.37739674591E+02 -0.30963709235E+02  0.50852529675E+03  0.00000000000E+00 0. -1.
          2    1    6    6  502    0  0.25583276507E+02 -0.60866968183E+02  0.78967771193E+02  0.10293299150E+03  0.00000000000E+00 0. -1.
          3    1    5    5  503    0  0.70884568118E+02  0.85379222367E+01 -0.13760053925E+02  0.72710777725E+02  0.00000000000E+00 0. -1.
         -4    1    5    5    0  503  0.56788806091E+03  0.15481094228E+03 -0.34336257804E+03  0.68144048718E+03  0.00000000000E+00 0.  1.
         -1    1    6    6    0  502  0.12936228919E+03 -0.61158061567E+02  0.31720684829E+03  0.34798720517E+03  0.00000000000E+00 0.  1.
<mgrwt>
<rscale>  0 0.20122209E+04</rscale>
<asrwt>0</asrwt>
<pdfrwt beam="1">  1        1 0.14891384E+00 0.20122209E+04</pdfrwt>
<pdfrwt beam="2">  1       -1 0.16089019E+00 0.20122209E+04</pdfrwt>
<totfact> 0.42764998E+00</totfact>
</mgrwt>
</event>
<event>
12    1  0.1504874E-007  0.3447270E+04  0.7818608E-02  0.8126401E-01
          2   -1    0    0  501    0  0.00000000000E+00  0.00000000000E+00  0.12683563686E+04  0.12683563686E+04  0.00000000000E+00 0. -1.
         -2   -1    0    0    0  501 -0.00000000000E+00 -0.00000000000E+00 -0.23423366677E+04  0.23423366677E+04  0.00000000000E+00 0.  1.
         23    2    1    2    0    0  0.52058026692E+03 -0.15234013043E+03 -0.20828320917E+04  0.21541921584E+04  0.90238590331E+02 0.  0.
        254    2    1    2    0    0 -0.52058026692E+03  0.15234013043E+03  0.10088517927E+04  0.14565008780E+04  0.89966745982E+03 0.  0.
        -24    2    4    4    0    0 -0.43972431102E+03 -0.75365124899E+02  0.40170538413E+02  0.45507893349E+03  0.80285688655E+02 0.  0.
         24    2    4    4    0    0 -0.80855955901E+02  0.22770525533E+03  0.96868125427E+03  0.10014219445E+04  0.78199549743E+02 0.  0.
         11    1    3    3    0    0  0.41400040330E+03 -0.87866908271E+02 -0.16835406180E+04  0.17359222160E+04  0.00000000000E+00 0.  1.
        -11    1    3    3    0    0  0.10657986362E+03 -0.64473222161E+02 -0.39929147370E+03  0.41826994235E+03  0.00000000000E+00 0. -1.
          2    1    6    6  502    0  0.13598345272E+02  0.11884468879E+02  0.83194294430E+02  0.85131934198E+02  0.00000000000E+00 0. -1.
          1    1    5    5  503    0 -0.35780640393E+02  0.15549414901E+02 -0.68997910517E+00  0.39019413141E+02  0.00000000000E+00 0. -1.
         -2    1    5    5    0  503 -0.40394367062E+03 -0.90914539800E+02  0.40860517518E+02  0.41605952035E+03  0.00000000000E+00 0.  1.
         -1    1    6    6    0  502 -0.94454301173E+02  0.21582078645E+03  0.88548695984E+03  0.91629001027E+03  0.00000000000E+00 0.  1.
<mgrwt>
<rscale>  0 0.34472700E+04</rscale>
<asrwt>0</asrwt>
<pdfrwt beam="1">  1        2 0.19513175E+00 0.34472700E+04</pdfrwt>
<pdfrwt beam="2">  1       -2 0.36035949E+00 0.34472700E+04</pdfrwt>
<totfact> 0.19035756E-01</totfact>
</mgrwt>
</event>
<event>
12    1  0.1504874E-007  0.2359600E+04  0.7818608E-02  0.8454785E-01
          2   -1    0    0  501    0  0.00000000000E+00  0.00000000000E+00  0.87962557837E+03  0.87962557837E+03  0.00000000000E+00 0. -1.
         -2   -1    0    0    0  501 -0.00000000000E+00 -0.00000000000E+00 -0.15824095847E+04  0.15824095847E+04  0.00000000000E+00 0.  1.
         23    2    1    2    0    0  0.66450842383E+03 -0.54672703116E+02  0.48424002080E+03  0.82837023885E+03  0.84547649681E+02 0.  0.
        254    2    1    2    0    0 -0.66450842383E+03  0.54672703116E+02 -0.11870240271E+04  0.16336649242E+04  0.90292551955E+03 0.  0.
        -24    2    4    4    0    0 -0.29250658163E+03 -0.21125615239E+02  0.75394809003E+02  0.31312435716E+03  0.79725114658E+02 0.  0.
         24    2    4    4    0    0 -0.37200184219E+03  0.75798318355E+02 -0.12624188361E+04  0.13205405671E+04  0.77429424433E+02 0.  0.
         11    1    3    3    0    0  0.44570393458E+03 -0.75438243525E+02  0.31490166943E+03  0.55091377483E+03  0.00000000000E+00 0. -1.
        -11    1    3    3    0    0  0.21880448925E+03  0.20765540409E+02  0.16933835137E+03  0.27745646402E+03  0.00000000000E+00 0.  1.
          2    1    6    6  502    0  0.11780199630E+01  0.22685337071E+01 -0.57766760780E+00  0.26206251312E+01  0.00000000000E+00 0. -1.
          1    1    5    5  503    0 -0.37211709115E+02 -0.25631960487E+02  0.28772042094E+02  0.53568079114E+02  0.00000000000E+00 0. -1.
         -2    1    5    5    0  503 -0.25529487252E+03  0.45063452475E+01  0.46622766909E+02  0.25955627805E+03  0.00000000000E+00 0.  1.
         -3    1    6    6    0  502 -0.37317986216E+03  0.73529784648E+02 -0.12618411685E+04  0.13179199419E+04  0.00000000000E+00 0.  1.
<mgrwt>
<rscale>  0 0.23595999E+04</rscale>
<asrwt>0</asrwt>
<pdfrwt beam="1">  1        2 0.13532701E+00 0.23595999E+04</pdfrwt>
<pdfrwt beam="2">  1       -2 0.24344763E+00 0.23595999E+04</pdfrwt>
<totfact> 0.19259651E+00</totfact>
</mgrwt>
</event>
<event>
12    1  0.1504874E-007  0.1697003E+04  0.7818608E-02  0.8763076E-01
         -2   -1    0    0    0  501 -0.00000000000E+00  0.00000000000E+00  0.34690796072E+03  0.34690796072E+03  0.00000000000E+00 0. -1.
          2   -1    0    0  501    0  0.00000000000E+00 -0.00000000000E+00 -0.20753471684E+04  0.20753471684E+04  0.00000000000E+00 0.  1.
         23    2    1    2    0    0 -0.13876400693E+02  0.90683551052E+02 -0.14588353501E+04  0.14645059992E+04  0.90339261156E+02 0.  0.
        254    2    1    2    0    0  0.13876400693E+02 -0.90683551052E+02 -0.26960385760E+03  0.95774912992E+03  0.91442938213E+03 0.  0.
        -24    2    4    4    0    0  0.13842574061E+03 -0.44464007324E+03  0.26898475179E+02  0.47329560716E+03  0.80116935804E+02 0.  0.
         24    2    4    4    0    0 -0.12454933991E+03  0.35395652219E+03 -0.29650233278E+03  0.48445352276E+03  0.77355185323E+02 0.  0.
         13    1    3    3    0    0 -0.25341415384E+02  0.93907543854E+02 -0.14300515723E+04  0.14333556131E+04  0.00000000000E+00 0.  1.
        -13    1    3    3    0    0  0.11465014691E+02 -0.32239928021E+01 -0.28783777781E+02  0.31150386110E+02  0.00000000000E+00 0. -1.
          2    1    6    6  502    0 -0.38559256964E+02  0.72176766673E+02 -0.10480700462E+03  0.13296920757E+03  0.00000000000E+00 0. -1.
          3    1    5    5  503    0  0.41520067041E+02 -0.15689612230E+03 -0.28155473926E+02  0.16472109723E+03  0.00000000000E+00 0. -1.
         -4    1    5    5    0  503  0.96905673566E+02 -0.28774395094E+03  0.55053949106E+02  0.30857450994E+03  0.00000000000E+00 0.  1.
         -1    1    6    6    0  502 -0.85990082951E+02  0.28177975551E+03 -0.19169532816E+03  0.35148431519E+03  0.00000000000E+00 0.  1.
<mgrwt>
<rscale>  0 0.16970026E+04</rscale>
<asrwt>0</asrwt>
<pdfrwt beam="1">  1        2 0.31928418E+00 0.16970026E+04</pdfrwt>
<pdfrwt beam="2">  1       -2 0.53370456E-01 0.16970026E+04</pdfrwt>
<totfact> 0.19107831E+01</totfact>
</mgrwt>
</event>
<event>
12    1  0.1504874E-007  0.2156777E+04  0.7818608E-02  0.8536637E-01
          2   -1    0    0  501    0  0.00000000000E+00  0.00000000000E+00  0.70006861285E+03  0.70006861285E+03  0.00000000000E+00 0.  1.
         -2   -1    0    0    0  501 -0.00000000000E+00 -0.00000000000E+00 -0.16611537384E+04  0.16611537384E+04  0.00000000000E+00 0. -1.
         23    2    1    2    0    0  0.54152838701E+03  0.65397511927E+03 -0.10449371544E+03  0.85870201172E+03  0.74254682037E+02 0.  0.
        254    2    1    2    0    0 -0.54152838701E+03 -0.65397511927E+03 -0.85659141013E+03  0.15025203395E+04  0.89603687217E+03 0.  0.
        -24    2    4    4    0    0  0.13177183778E+03  0.12531917087E+03 -0.10644287322E+03  0.22576312145E+03  0.81056708091E+02 0.  0.
         24    2    4    4    0    0 -0.67330022479E+03 -0.77929429013E+03 -0.75014853691E+03  0.12767572181E+04  0.82178970581E+02 0.  0.
         11    1    3    3    0    0  0.42582307059E+03  0.46966519972E+03 -0.93329255078E+02  0.64079718876E+03  0.00000000000E+00 0.  1.
        -11    1    3    3    0    0  0.11570531642E+03  0.18430991955E+03 -0.11164460364E+02  0.21790482296E+03  0.00000000000E+00 0. -1.
          2    1    6    6  502    0 -0.12075021735E+03 -0.11683399992E+03 -0.15617841889E+03  0.22939593949E+03  0.00000000000E+00 0. -1.
          1    1    5    5  503    0 -0.27555270779E+01 -0.76406713849E+01 -0.11627827862E+02  0.14183764291E+02  0.00000000000E+00 0. -1.
         -4    1    5    5    0  503  0.13452736486E+03  0.13295984225E+03 -0.94815045358E+02  0.21157935715E+03  0.00000000000E+00 0.  1.
         -1    1    6    6    0  502 -0.55255000744E+03 -0.66246029021E+03 -0.59397011802E+03  0.10473612786E+04  0.00000000000E+00 0.  1.
<mgrwt>
<rscale>  0 0.21567768E+04</rscale>
<asrwt>0</asrwt>
<pdfrwt beam="1">  1        2 0.10770286E+00 0.21567768E+04</pdfrwt>
<pdfrwt beam="2">  1       -2 0.25556211E+00 0.21567768E+04</pdfrwt>
<totfact> 0.22318350E+00</totfact>
</mgrwt>
</event>
<event>
12    1  0.1504874E-007  0.1780357E+04  0.7818608E-02  0.8716816E-01
          2   -1    0    0  501    0  0.00000000000E+00  0.00000000000E+00  0.84960926031E+03  0.84960926031E+03  0.00000000000E+00 0.  1.
         -2   -1    0    0    0  501 -0.00000000000E+00 -0.00000000000E+00 -0.93268528111E+03  0.93268528111E+03  0.00000000000E+00 0. -1.
         23    2    1    2    0    0 -0.16295665326E+03 -0.14475571577E+03  0.59668265269E+03  0.64199690718E+03  0.92848008687E+02 0.  0.
        254    2    1    2    0    0  0.16295665326E+03  0.14475571577E+03 -0.67975867348E+03  0.11402976342E+04  0.88921187149E+03 0.  0.
        -24    2    4    4    0    0  0.65560719977E+02 -0.23690414594E+02  0.20490916987E+03  0.23095990880E+03  0.80593224441E+02 0.  0.
         24    2    4    4    0    0  0.97395933283E+02  0.16844613036E+03 -0.88466784336E+03  0.90933772545E+03  0.79986493811E+02 0.  0.
         13    1    3    3    0    0 -0.15336693439E+03 -0.14841111108E+03  0.59430382061E+03  0.63146203817E+03  0.00000000000E+00 0.  1.
        -13    1    3    3    0    0 -0.95897188717E+01  0.36553953184E+01  0.23788320790E+01  0.10534869009E+02  0.00000000000E+00 0. -1.
          2    1    6    6  502    0  0.19715806131E+02  0.99580514825E+02 -0.33858944060E+03  0.35347956268E+03  0.00000000000E+00 0. -1.
          1    1    5    5  503    0  0.13707131373E+02 -0.11027721429E+02 -0.15988835294E+01  0.17665008320E+02  0.00000000000E+00 0. -1.
         -2    1    5    5    0  503  0.51853588604E+02 -0.12662693165E+02  0.20650805340E+03  0.21329490048E+03  0.00000000000E+00 0.  1.
         -1    1    6    6    0  502  0.77680127152E+02  0.68865615535E+02 -0.54607840276E+03  0.55585816277E+03  0.00000000000E+00 0.  1.
<mgrwt>
<rscale>  0 0.17803573E+04</rscale>
<asrwt>0</asrwt>
<pdfrwt beam="1">  1        2 0.13070912E+00 0.17803573E+04</pdfrwt>
<pdfrwt beam="2">  1       -2 0.14349004E+00 0.17803573E+04</pdfrwt>
<totfact> 0.10111249E+01</totfact>
</mgrwt>
</event>
<event>
12    1  0.1504874E-007  0.1280877E+04  0.7818608E-02  0.9044869E-01
         -2   -1    0    0    0  501 -0.00000000000E+00  0.00000000000E+00  0.15497777795E+04  0.15497777795E+04  0.00000000000E+00 0.  1.
          2   -1    0    0  501    0  0.00000000000E+00 -0.00000000000E+00 -0.26465806070E+03  0.26465806070E+03  0.00000000000E+00 0. -1.
         23    2    1    2    0    0  0.30814805536E+03  0.34653074428E+02  0.26094846850E+03  0.41502381052E+03  0.89412529871E+02 0.  0.
        254    2    1    2    0    0 -0.30814805536E+03 -0.34653074428E+02  0.10241712503E+04  0.13994120296E+04  0.90181551286E+03 0.  0.
        -24    2    4    4    0    0 -0.42798891578E+03  0.31911010039E+03  0.77087809189E+03  0.94110811727E+03  0.80160386871E+02 0.  0.
         24    2    4    4    0    0  0.11984086043E+03 -0.35376317482E+03  0.25329315836E+03  0.45830391236E+03  0.79842572129E+02 0.  0.
         11    1    3    3    0    0  0.21955826675E+03  0.47926316076E+02  0.22644506461E+03  0.31902998536E+03  0.00000000000E+00 0.  1.
        -11    1    3    3    0    0  0.88589788607E+02 -0.13273241648E+02  0.34503403890E+02  0.95993825162E+02  0.00000000000E+00 0. -1.
          2    1    6    6  502    0  0.12807924080E+03 -0.35021649400E+03  0.24589236317E+03  0.44667542899E+03  0.00000000000E+00 0. -1.
          3    1    5    5  503    0 -0.27172419637E+03  0.19524505713E+03  0.54777880331E+03  0.64188494965E+03  0.00000000000E+00 0. -1.
         -4    1    5    5    0  503 -0.15626471942E+03  0.12386504326E+03  0.22309928858E+03  0.29922316762E+03  0.00000000000E+00 0.  1.
         -1    1    6    6    0  502 -0.82383803745E+01 -0.35466808144E+01  0.74007951951E+01  0.11628483371E+02  0.00000000000E+00 0.  1.
<mgrwt>
<rscale>  0 0.12808765E+04</rscale>
<asrwt>0</asrwt>
<pdfrwt beam="1">  1        2 0.40716626E-01 0.12808765E+04</pdfrwt>
<pdfrwt beam="2">  1       -2 0.23842735E+00 0.12808765E+04</pdfrwt>
<totfact> 0.93997551E+00</totfact>
</mgrwt>
</event>
<event>
12    1  0.1504874E-007  0.3407693E+04  0.7818608E-02  0.8136021E-01
          1   -1    0    0  501    0  0.00000000000E+00  0.00000000000E+00  0.23087623225E+04  0.23087623225E+04  0.00000000000E+00 0. -1.
         -1   -1    0    0    0  501 -0.00000000000E+00 -0.00000000000E+00 -0.12574235648E+04  0.12574235648E+04  0.00000000000E+00 0.  1.
         23    2    1    2    0    0 -0.13305871122E+04 -0.38445529116E+03 -0.31476805524E+03  0.14232995237E+04  0.91840467325E+02 0.  0.
        254    2    1    2    0    0  0.13305871122E+04  0.38445529116E+03  0.13661068129E+04  0.21428863636E+04  0.89858010701E+03 0.  0.
        -24    2    4    4    0    0  0.46627707768E+03 -0.25601184872E+03  0.66976183516E+03  0.85898453640E+03  0.79480425753E+02 0.  0.
         24    2    4    4    0    0  0.86431003455E+03  0.64046713989E+03  0.69634497773E+03  0.12839018271E+04  0.79231184803E+02 0.  0.
         13    1    3    3    0    0 -0.45341771272E+03 -0.98915014587E+02 -0.13669425254E+03  0.48379450286E+03  0.00000000000E+00 0. -1.
        -13    1    3    3    0    0 -0.87716939952E+03 -0.28554027657E+03 -0.17807380270E+03  0.93950502085E+03  0.00000000000E+00 0.  1.
          2    1    6    6  502    0  0.66573360031E+02  0.27240540576E+02  0.56842575853E+02  0.91679538319E+02  0.00000000000E+00 0. -1.
          1    1    5    5  503    0  0.27424044363E+03 -0.10948508688E+03  0.39432590030E+03  0.49263345483E+03  0.00000000000E+00 0. -1.
         -2    1    5    5    0  503  0.19203663406E+03 -0.14652676184E+03  0.27543593486E+03  0.36635108157E+03  0.00000000000E+00 0.  1.
         -3    1    6    6    0  502  0.79773667452E+03  0.61322659931E+03  0.63950240188E+03  0.11922222888E+04  0.00000000000E+00 0.  1.
<mgrwt>
<rscale>  0 0.34076926E+04</rscale>
<asrwt>0</asrwt>
<pdfrwt beam="1">  1        1 0.35519420E+00 0.34076926E+04</pdfrwt>
<pdfrwt beam="2">  1       -1 0.19344978E+00 0.34076926E+04</pdfrwt>
<totfact> 0.25221462E-01</totfact>
</mgrwt>
</event>
<event>
12    1  0.1504874E-007  0.1654457E+04  0.7818608E-02  0.8787774E-01
          1   -1    0    0  501    0  0.00000000000E+00  0.00000000000E+00  0.31860012674E+04  0.31860012674E+04  0.00000000000E+00 0. -1.
         -1   -1    0    0    0  501 -0.00000000000E+00 -0.00000000000E+00 -0.21478559884E+03  0.21478559884E+03  0.00000000000E+00 0.  1.
         23    2    1    2    0    0 -0.20814535977E+02 -0.39501988767E+03  0.18536246647E+03  0.44611458253E+03  0.90471101477E+02 0.  0.
        254    2    1    2    0    0  0.20814535977E+02  0.39501988767E+03  0.27858532021E+04  0.29546722837E+04  0.90146341249E+03 0.  0.
        -24    2    4    4    0    0 -0.29253541516E+03  0.42796345097E+03  0.23667876959E+04  0.24242149704E+04  0.80028374068E+02 0.  0.
         24    2    4    4    0    0  0.31334995114E+03 -0.32943563300E+02  0.41906550611E+03  0.53045731327E+03  0.80595239003E+02 0.  0.
         13    1    3    3    0    0  0.26310957114E+02 -0.27709799539E+03  0.13693404156E+03  0.31020396073E+03  0.00000000000E+00 0.  1.
        -13    1    3    3    0    0 -0.47125493090E+02 -0.11792189228E+03  0.48428424913E+02  0.13591062180E+03  0.00000000000E+00 0. -1.
          2    1    6    6  502    0  0.11126905742E+03 -0.45429355309E+02  0.12474831201E+03  0.17322462530E+03  0.00000000000E+00 0. -1.
          1    1    5    5  503    0 -0.84743995569E+02  0.19349544556E+03  0.95247527321E+03  0.97561835690E+03  0.00000000000E+00 0. -1.
         -2    1    5    5    0  503 -0.20779141959E+03  0.23446800541E+03  0.14143124227E+04  0.14485966135E+04  0.00000000000E+00 0.  1.
         -1    1    6    6    0  502  0.20208089372E+03  0.12485792009E+02  0.29431719410E+03  0.35723268797E+03  0.00000000000E+00 0.  1.
<mgrwt>
<rscale>  0 0.16544572E+04</rscale>
<asrwt>0</asrwt>
<pdfrwt beam="1">  1        1 0.49015401E+00 0.16544572E+04</pdfrwt>
<pdfrwt beam="2">  1       -1 0.33043941E-01 0.16544572E+04</pdfrwt>
<totfact> 0.35984573E+00</totfact>
</mgrwt>
</event>
<event>
12    1  0.1504874E-007  0.1797132E+04  0.7818608E-02  0.8707826E-01
         -1   -1    0    0    0  501 -0.00000000000E+00  0.00000000000E+00  0.37876411435E+03  0.37876411435E+03  0.00000000000E+00 0.  1.
          1   -1    0    0  501    0  0.00000000000E+00 -0.00000000000E+00 -0.21317241363E+04  0.21317241363E+04  0.00000000000E+00 0. -1.
         23    2    1    2    0    0 -0.44235580137E+03  0.25429745180E+03 -0.12658550409E+04  0.13676366322E+04  0.87721855730E+02 0.  0.
        254    2    1    2    0    0  0.44235580137E+03 -0.25429745180E+03 -0.48710498102E+03  0.11428516185E+04  0.89916222696E+03 0.  0.
        -24    2    4    4    0    0 -0.23491411790E+03  0.82808936640E+02 -0.20253973141E+03  0.33086211864E+03  0.80033967639E+02 0.  0.
         24    2    4    4    0    0  0.67726991926E+03 -0.33710638844E+03 -0.28456524961E+03  0.81198949987E+03  0.77551956452E+02 0.  0.
         13    1    3    3    0    0 -0.89867114997E+02  0.29808647546E+02 -0.16661453257E+03  0.19163782583E+03  0.00000000000E+00 0.  1.
        -13    1    3    3    0    0 -0.35248868637E+03  0.22448880425E+03 -0.10992405084E+04  0.11759988063E+04  0.00000000000E+00 0. -1.
          4    1    6    6  502    0  0.30882333015E+03 -0.17737419694E+03 -0.16840211316E+03  0.39394508082E+03  0.00000000000E+00 0. -1.
          1    1    5    5  503    0 -0.13605824431E+03  0.81399700468E+02 -0.15277821756E+03  0.22017933791E+03  0.00000000000E+00 0. -1.
         -2    1    5    5    0  503 -0.98855873590E+02  0.14092361714E+01 -0.49761513847E+02  0.11068278073E+03  0.00000000000E+00 0.  1.
         -3    1    6    6    0  502  0.36844658911E+03 -0.15973219149E+03 -0.11616313645E+03  0.41804441905E+03  0.00000000000E+00 0.  1.
<mgrwt>
<rscale>  0 0.17971317E+04</rscale>
<asrwt>0</asrwt>
<pdfrwt beam="1">  1        1 0.32795756E+00 0.17971317E+04</pdfrwt>
<pdfrwt beam="2">  1       -1 0.58271401E-01 0.17971317E+04</pdfrwt>
<totfact> 0.68315479E+00</totfact>
</mgrwt>
</event>
<event>
12    1  0.1504874E-007  0.1068824E+04  0.7818608E-02  0.9236123E-01
          1   -1    0    0  501    0  0.00000000000E+00  0.00000000000E+00  0.56912659304E+03  0.56912659304E+03  0.00000000000E+00 0. -1.
         -1   -1    0    0    0  501 -0.00000000000E+00 -0.00000000000E+00 -0.50181470196E+03  0.50181470196E+03  0.00000000000E+00 0.  1.
         23    2    1    2    0    0 -0.11050840150E+03  0.51448562954E+02 -0.11699908297E+03  0.19257654661E+03  0.92400646415E+02 0.  0.
        254    2    1    2    0    0  0.11050840150E+03 -0.51448562954E+02  0.18431097404E+03  0.87836474839E+03  0.85011471851E+03 0.  0.
        -24    2    4    4    0    0 -0.54494763874E+02  0.64077078358E+02  0.48948600819E+03  0.50393696829E+03  0.85325052199E+02 0.  0.
         24    2    4    4    0    0  0.16500316537E+03 -0.11552564131E+03 -0.30517503415E+03  0.37442778010E+03  0.80573833579E+02 0.  0.
         11    1    3    3    0    0 -0.75576834174E+02  0.85422152201E+01 -0.11415953345E+03  0.13717589578E+03  0.00000000000E+00 0.  1.
        -11    1    3    3    0    0 -0.34931567326E+02  0.42906347734E+02 -0.28395495199E+01  0.55400650838E+02  0.00000000000E+00 0. -1.
          4    1    6    6  502    0 -0.59080944391E+01 -0.30764288598E+01  0.41818495292E+00  0.66741945646E+01  0.00000000000E+00 0. -1.
          1    1    5    5  503    0 -0.17124880784E+02 -0.18705143367E+02  0.16661917434E+03  0.16853810604E+03  0.00000000000E+00 0. -1.
         -2    1    5    5    0  503 -0.37369883091E+02  0.82782221725E+02  0.32286683385E+03  0.33539886225E+03  0.00000000000E+00 0.  1.
         -3    1    6    6    0  502  0.17091125981E+03 -0.11244921245E+03 -0.30559321910E+03  0.36775358553E+03  0.00000000000E+00 0.  1.
<mgrwt>
<rscale>  0 0.10688238E+04</rscale>
<asrwt>0</asrwt>
<pdfrwt beam="1">  1        1 0.87557937E-01 0.10688238E+04</pdfrwt>
<pdfrwt beam="2">  1       -1 0.77202262E-01 0.10688238E+04</pdfrwt>
<totfact> 0.62101784E+01</totfact>
</mgrwt>
</event>
<event>
12    1  0.1504874E-007  0.1342735E+04  0.7818608E-02  0.8996346E-01
          2   -1    0    0  501    0  0.00000000000E+00  0.00000000000E+00  0.48099526268E+03  0.48099526268E+03  0.00000000000E+00 0. -1.
         -2   -1    0    0    0  501 -0.00000000000E+00 -0.00000000000E+00 -0.93708662323E+03  0.93708662323E+03  0.00000000000E+00 0.  1.
         23    2    1    2    0    0 -0.23068894801E+03  0.92954025106E+02 -0.22160309192E+03  0.34548101709E+03  0.91604373828E+02 0.  0.
        254    2    1    2    0    0  0.23068894801E+03 -0.92954025106E+02 -0.23448826863E+03  0.10726008688E+04  0.10166759730E+04 0.  0.
        -24    2    4    4    0    0 -0.15727723089E+03  0.36727951761E+03 -0.22436170932E+03  0.46514796072E+03  0.79962974843E+02 0.  0.
         24    2    4    4    0    0  0.38796617890E+03 -0.46023354271E+03 -0.10126559306E+02  0.60745290809E+03  0.81017396459E+02 0.  0.
         13    1    3    3    0    0  0.57228648503E+01 -0.10055920360E+01 -0.20170007409E+02  0.20990273850E+02  0.00000000000E+00 0. -1.
        -13    1    3    3    0    0 -0.23641181286E+03  0.93959617142E+02 -0.20143308451E+03  0.32449074324E+03  0.00000000000E+00 0.  1.
          4    1    6    6  502    0  0.32737306750E+01 -0.21797818787E+02  0.91252010024E+01  0.23856477312E+02  0.00000000000E+00 0. -1.
          3    1    5    5  503    0 -0.29722946246E+02  0.27985407204E+02 -0.44872207108E+02  0.60664252411E+02  0.00000000000E+00 0. -1.
         -4    1    5    5    0  503 -0.12755428465E+03  0.33929411040E+03 -0.17948950222E+03  0.40448370831E+03  0.00000000000E+00 0.  1.
         -3    1    6    6    0  502  0.38469244823E+03 -0.43843572392E+03 -0.19251760308E+02  0.58359643077E+03  0.00000000000E+00 0.  1.
<mgrwt>
<rscale>  0 0.13427349E+04</rscale>
<asrwt>0</asrwt>
<pdfrwt beam="1">  1        2 0.73999271E-01 0.13427349E+04</pdfrwt>
<pdfrwt beam="2">  1       -2 0.14416717E+00 0.13427349E+04</pdfrwt>
<totfact> 0.20924103E+01</totfact>
</mgrwt>
</event>
<event>
12    1  0.1504874E-007  0.1185843E+04  0.7818608E-02  0.9125339E-01
         -1   -1    0    0    0  501 -0.00000000000E+00  0.00000000000E+00  0.16117971739E+03  0.16117971739E+03  0.00000000000E+00 0.  1.
          1   -1    0    0  501    0  0.00000000000E+00 -0.00000000000E+00 -0.21811417856E+04  0.21811417856E+04  0.00000000000E+00 0. -1.
         23    2    1    2    0    0 -0.81788677290E+02  0.21506444530E+03 -0.38177136792E+03  0.45561274497E+03  0.94294711693E+02 0.  0.
        254    2    1    2    0    0  0.81788677290E+02 -0.21506444530E+03 -0.16381907003E+04  0.18867087580E+04  0.90722602681E+03 0.  0.
        -24    2    4    4    0    0 -0.94611597346E+02  0.29799778897E+03 -0.96757356481E+03  0.10196352281E+04  0.75520583197E+02 0.  0.
         24    2    4    4    0    0  0.17640027464E+03 -0.51306223427E+03 -0.67061713549E+03  0.86707352993E+03  0.87973011553E+02 0.  0.
         13    1    3    3    0    0 -0.54603260743E+02  0.13945686121E+03 -0.32310626440E+03  0.35612833406E+03  0.00000000000E+00 0. -1.
        -13    1    3    3    0    0 -0.27185416547E+02  0.75607584088E+02 -0.58665103520E+02  0.99484410916E+02  0.00000000000E+00 0.  1.
          4    1    6    6  502    0  0.74781573824E+02 -0.33445524441E+03 -0.38863676583E+03  0.51816129733E+03  0.00000000000E+00 0. -1.
          1    1    5    5  503    0 -0.93095720937E+02  0.24063546497E+03 -0.70152468832E+03  0.74746847999E+03  0.00000000000E+00 0. -1.
         -2    1    5    5    0  503 -0.15158764087E+01  0.57362324001E+02 -0.26604887650E+03  0.27216674812E+03  0.00000000000E+00 0.  1.
         -3    1    6    6    0  502  0.10161870081E+03 -0.17860698986E+03 -0.28198036966E+03  0.34891223259E+03  0.00000000000E+00 0.  1.
<mgrwt>
<rscale>  0 0.11858429E+04</rscale>
<asrwt>0</asrwt>
<pdfrwt beam="1">  1        1 0.33556026E+00 0.11858429E+04</pdfrwt>
<pdfrwt beam="2">  1       -1 0.24796881E-01 0.11858429E+04</pdfrwt>
<totfact> 0.31688189E+01</totfact>
</mgrwt>
</event>
<event>
12    1  0.1504874E-007  0.1522866E+04  0.7818608E-02  0.8869388E-01
         -2   -1    0    0    0  501 -0.00000000000E+00  0.00000000000E+00  0.34179555697E+03  0.34179555697E+03  0.00000000000E+00 0.  1.
          2   -1    0    0  501    0  0.00000000000E+00 -0.00000000000E+00 -0.16962769328E+04  0.16962769328E+04  0.00000000000E+00 0. -1.
         23    2    1    2    0    0 -0.14757157781E+03  0.20435028140E+03  0.11607554014E+03  0.29261705979E+03  0.92815971565E+02 0.  0.
        254    2    1    2    0    0  0.14757157781E+03 -0.20435028140E+03 -0.14705569160E+04  0.17454554300E+04  0.90583696484E+03 0.  0.
        -24    2    4    4    0    0  0.26394526759E+03 -0.51278476687E+03 -0.75471092881E+03  0.95315993954E+03  0.79435274645E+02 0.  0.
         24    2    4    4    0    0 -0.11637368978E+03  0.30843448547E+03 -0.71584598718E+03  0.79229549046E+03  0.81375668013E+02 0.  0.
         13    1    3    3    0    0 -0.62139252850E+01 -0.85471719446E+01  0.13744720717E+02  0.17337368984E+02  0.00000000000E+00 0. -1.
        -13    1    3    3    0    0 -0.14135765253E+03  0.21289745335E+03  0.10233081942E+03  0.27527969081E+03  0.00000000000E+00 0.  1.
          2    1    6    6  502    0 -0.95864413331E+01  0.10512170758E+03 -0.28758955367E+03  0.30634984029E+03  0.00000000000E+00 0. -1.
          1    1    5    5  503    0  0.70485614998E+02 -0.80861657122E+02 -0.11304307042E+03  0.15583826643E+03  0.00000000000E+00 0. -1.
         -2    1    5    5    0  503  0.19345965259E+03 -0.43192310975E+03 -0.64166785839E+03  0.79732167311E+03  0.00000000000E+00 0.  1.
         -1    1    6    6    0  502 -0.10678724844E+03  0.20331277789E+03 -0.42825643350E+03  0.48594565017E+03  0.00000000000E+00 0.  1.
<mgrwt>
<rscale>  0 0.15228656E+04</rscale>
<asrwt>0</asrwt>
<pdfrwt beam="1">  1        2 0.26096568E+00 0.15228656E+04</pdfrwt>
<pdfrwt beam="2">  1       -2 0.52583932E-01 0.15228656E+04</pdfrwt>
<totfact> 0.32427772E+01</totfact>
</mgrwt>
</event>
<event>
12    1  0.1504874E-007  0.1470682E+04  0.7818608E-02  0.8904187E-01
          1   -1    0    0  501    0  0.00000000000E+00  0.00000000000E+00  0.58693636804E+03  0.58693636804E+03  0.00000000000E+00 0. -1.
         -1   -1    0    0    0  501 -0.00000000000E+00 -0.00000000000E+00 -0.92126904501E+03  0.92126904501E+03  0.00000000000E+00 0.  1.
         23    2    1    2    0    0 -0.19019244209E+03  0.33921931921E+03 -0.32998894798E+03  0.51824355214E+03  0.91873619689E+02 0.  0.
        254    2    1    2    0    0  0.19019244209E+03 -0.33921931921E+03 -0.43437289963E+01  0.98996186091E+03  0.91036405165E+03 0.  0.
        -24    2    4    4    0    0 -0.53004574524E+02  0.25205426170E+03 -0.17684647614E+03  0.32285731884E+03  0.81371594812E+02 0.  0.
         24    2    4    4    0    0  0.24319701661E+03 -0.59127358090E+03  0.17250274715E+03  0.66710454208E+03  0.80759122838E+02 0.  0.
         13    1    3    3    0    0 -0.13621746639E+03  0.26539452745E+03 -0.19940146377E+03  0.35881805571E+03  0.00000000000E+00 0. -1.
        -13    1    3    3    0    0 -0.53974975695E+02  0.73824791753E+02 -0.13058748420E+03  0.15942549642E+03  0.00000000000E+00 0.  1.
          4    1    6    6  502    0  0.17863244694E+03 -0.50830846963E+03  0.13448236264E+03  0.55531302637E+03  0.00000000000E+00 0. -1.
          3    1    5    5  503    0 -0.31555678147E+02  0.84518930697E+02 -0.20103002479E+02  0.92430196246E+02  0.00000000000E+00 0. -1.
         -4    1    5    5    0  503 -0.21448896378E+02  0.16753533100E+03 -0.15674347366E+03  0.23042712259E+03  0.00000000000E+00 0.  1.
         -3    1    6    6    0  502  0.64564569668E+02 -0.82965111277E+02  0.38020384511E+02  0.11179151571E+03  0.00000000000E+00 0.  1.
<mgrwt>
<rscale>  0 0.14706819E+04</rscale>
<asrwt>0</asrwt>
<pdfrwt beam="1">  1        1 0.90297903E-01 0.14706819E+04</pdfrwt>
<pdfrwt beam="2">  1       -1 0.14173370E+00 0.14706819E+04</pdfrwt>
<totfact> 0.13914233E+01</totfact>
</mgrwt>
</event>
<event>
12    1  0.1504874E-007  0.2449499E+04  0.7818608E-02  0.8421201E-01
         -3   -1    0    0    0  501 -0.00000000000E+00  0.00000000000E+00  0.19017482207E+04  0.19017482207E+04  0.00000000000E+00 0.  1.
          3   -1    0    0  501    0  0.00000000000E+00 -0.00000000000E+00 -0.78875383969E+03  0.78875383969E+03  0.00000000000E+00 0. -1.
         23    2    1    2    0    0 -0.16187070372E+03 -0.12244781101E+02 -0.66450413006E+03  0.69001170446E+03  0.90544762627E+02 0.  0.
        254    2    1    2    0    0  0.16187070372E+03  0.12244781101E+02  0.17774985111E+04  0.20004903560E+04  0.90338731891E+03 0.  0.
        -24    2    4    4    0    0  0.52810767583E+03  0.42857858440E+02  0.92322902454E+03  0.10670383525E+04  0.74057414282E+02 0.  0.
         24    2    4    4    0    0 -0.36623697211E+03 -0.30613077339E+02  0.85426948657E+03  0.93345200349E+03  0.80558096483E+02 0.  0.
         13    1    3    3    0    0 -0.15142619613E+03 -0.35657978060E+02 -0.50369365107E+03  0.52717044531E+03  0.00000000000E+00 0. -1.
        -13    1    3    3    0    0 -0.10444507587E+02  0.23413196960E+02 -0.16081047898E+03  0.16284125915E+03  0.00000000000E+00 0.  1.
          4    1    6    6  502    0 -0.14704587074E+03 -0.17390392085E+02  0.25049713432E+03  0.29098750513E+03  0.00000000000E+00 0. -1.
          3    1    5    5  503    0  0.46356155154E+03  0.31360923503E+02  0.85039113177E+03  0.96903967751E+03  0.00000000000E+00 0. -1.
         -4    1    5    5    0  503  0.64546124282E+02  0.11496934937E+02  0.72837892774E+02  0.97998674973E+02  0.00000000000E+00 0.  1.
         -3    1    6    6    0  502 -0.21919110137E+03 -0.13222685254E+02  0.60377235225E+03  0.64246449837E+03  0.00000000000E+00 0.  1.
<mgrwt>
<rscale>  0 0.24494989E+04</rscale>
<asrwt>0</asrwt>
<pdfrwt beam="1">  1        3 0.12134675E+00 0.24494989E+04</pdfrwt>
<pdfrwt beam="2">  1       -3 0.29257665E+00 0.24494989E+04</pdfrwt>
<totfact> 0.53802678E-02</totfact>
</mgrwt>
</event>
<event>
12    1  0.1504874E-007  0.3861440E+04  0.7818608E-02  0.8033097E-01
          2   -1    0    0  501    0  0.00000000000E+00  0.00000000000E+00  0.19520088872E+04  0.19520088872E+04  0.00000000000E+00 0. -1.
         -2   -1    0    0    0  501 -0.00000000000E+00 -0.00000000000E+00 -0.19096633615E+04  0.19096633615E+04  0.00000000000E+00 0.  1.
         23    2    1    2    0    0 -0.12757442007E+04  0.32132761338E+03  0.12836204257E+04  0.18400718523E+04  0.86071619431E+02 0.  0.
        254    2    1    2    0    0  0.12757442007E+04 -0.32132761338E+03 -0.12412748999E+04  0.20216003964E+04  0.90295630266E+03 0.  0.
        -24    2    4    4    0    0  0.60148803251E+02 -0.30652056384E+03 -0.50139858514E+03  0.59629351544E+03  0.81195324902E+02 0.  0.
         24    2    4    4    0    0  0.12155953975E+04 -0.14807049540E+02 -0.73987631481E+03  0.14253068809E+04  0.78684970090E+02 0.  0.
         11    1    3    3    0    0 -0.24775693171E+03  0.65632389549E+02  0.20428926828E+03  0.32775785712E+03  0.00000000000E+00 0.  1.
        -11    1    3    3    0    0 -0.10279872690E+04  0.25569522383E+03  0.10793311574E+04  0.15123139952E+04  0.00000000000E+00 0. -1.
          2    1    6    6  502    0  0.67611848113E+03  0.58955448390E+01 -0.36859517500E+03  0.77008659319E+03  0.00000000000E+00 0. -1.
          1    1    5    5  503    0  0.72695592559E+02 -0.25364890100E+03 -0.44908506012E+03  0.52086447890E+03  0.00000000000E+00 0. -1.
         -2    1    5    5    0  503 -0.12546789307E+02 -0.52871662840E+02 -0.52313525018E+02  0.75429036539E+02  0.00000000000E+00 0.  1.
         -3    1    6    6    0  502  0.53947691633E+03 -0.20702594379E+02 -0.37128113981E+03  0.65522028772E+03  0.00000000000E+00 0.  1.
<mgrwt>
<rscale>  0 0.38614401E+04</rscale>
<asrwt>0</asrwt>
<pdfrwt beam="1">  1        2 0.30030906E+00 0.38614401E+04</pdfrwt>
<pdfrwt beam="2">  1       -2 0.29379436E+00 0.38614401E+04</pdfrwt>
<totfact> 0.19661441E-01</totfact>
</mgrwt>
</event>
<event>
12    1  0.1504874E-007  0.1336280E+04  0.7818608E-02  0.9001280E-01
         -1   -1    0    0    0  501 -0.00000000000E+00  0.00000000000E+00  0.46250881158E+03  0.46250881158E+03  0.00000000000E+00 0.  1.
          1   -1    0    0  501    0  0.00000000000E+00 -0.00000000000E+00 -0.96519422006E+03  0.96519422006E+03  0.00000000000E+00 0. -1.
         23    2    1    2    0    0  0.29512056498E+03 -0.17505984925E+03 -0.24325945608E+03  0.43047724489E+03  0.91615482888E+02 0.  0.
        254    2    1    2    0    0 -0.29512056498E+03  0.17505984925E+03 -0.25942595240E+03  0.99722578674E+03  0.89967513374E+03 0.  0.
        -24    2    4    4    0    0 -0.55053015582E+03 -0.63082193903E+02 -0.86496539541E+01  0.55983520036E+03  0.79232691443E+02 0.  0.
         24    2    4    4    0    0  0.25540959084E+03  0.23814204316E+03 -0.25077629845E+03  0.43739058638E+03  0.80474103812E+02 0.  0.
         11    1    3    3    0    0  0.20682733872E+03 -0.88199276573E+02 -0.19473930719E+03  0.29745597690E+03  0.00000000000E+00 0. -1.
        -11    1    3    3    0    0  0.88293226262E+02 -0.86860572680E+02 -0.48520148886E+02  0.13302126799E+03  0.00000000000E+00 0.  1.
          2    1    6    6  502    0  0.24817130647E+03  0.23858278129E+03 -0.22657195974E+03  0.41212327504E+03  0.00000000000E+00 0. -1.
          3    1    5    5  503    0 -0.54050267255E+03 -0.50468917517E+02 -0.33226018021E+01  0.54286397039E+03  0.00000000000E+00 0. -1.
         -4    1    5    5    0  503 -0.10027483270E+02 -0.12613276386E+02 -0.53270521520E+01  0.16971229965E+02  0.00000000000E+00 0.  1.
         -1    1    6    6    0  502  0.72382843665E+01 -0.44073813556E+00 -0.24204338704E+02  0.25267311348E+02  0.00000000000E+00 0.  1.
<mgrwt>
<rscale>  0 0.13362797E+04</rscale>
<asrwt>0</asrwt>
<pdfrwt beam="1">  1        1 0.14849142E+00 0.13362797E+04</pdfrwt>
<pdfrwt beam="2">  1       -1 0.71155202E-01 0.13362797E+04</pdfrwt>
<totfact> 0.31511168E+01</totfact>
</mgrwt>
</event>
<event>
12    1  0.1504874E-007  0.2793669E+04  0.7818608E-02  0.8305237E-01
          2   -1    0    0  501    0  0.00000000000E+00  0.00000000000E+00  0.28199138950E+04  0.28199138950E+04  0.00000000000E+00 0. -1.
         -2   -1    0    0    0  501 -0.00000000000E+00 -0.00000000000E+00 -0.69191693650E+03  0.69191693650E+03  0.00000000000E+00 0.  1.
         23    2    1    2    0    0  0.16415036524E+03  0.97849960117E+03  0.19138609259E+04  0.21575201329E+04  0.87307891915E+02 0.  0.
        254    2    1    2    0    0 -0.16415036524E+03 -0.97849960117E+03  0.21413603253E+03  0.13543106986E+04  0.89660270799E+03 0.  0.
        -24    2    4    4    0    0 -0.38127956479E+03 -0.10237369164E+04  0.12511984129E+03  0.11024281071E+04  0.79255132524E+02 0.  0.
         24    2    4    4    0    0  0.21712919954E+03  0.45237315252E+02  0.89016191236E+02  0.25188259150E+03  0.79557863302E+02 0.  0.
         11    1    3    3    0    0  0.39009871897E+02  0.87654223025E+02  0.20479263009E+03  0.22615272331E+03  0.00000000000E+00 0.  1.
        -11    1    3    3    0    0  0.12514049335E+03  0.89084537815E+03  0.17090682958E+04  0.19313674096E+04  0.00000000000E+00 0. -1.
          4    1    6    6  502    0  0.28398550435E+02  0.58196955130E+00  0.44669127324E+02  0.52935312328E+02  0.00000000000E+00 0. -1.
          1    1    5    5  503    0 -0.13298780364E+03 -0.37109247318E+03  0.83236391224E+02  0.40289412554E+03  0.00000000000E+00 0. -1.
         -2    1    5    5    0  503 -0.24829176115E+03 -0.65264444324E+03  0.41883450067E+02  0.69953398155E+03  0.00000000000E+00 0.  1.
         -3    1    6    6    0  502  0.18873064911E+03  0.44655345701E+02  0.44347063912E+02  0.19894727917E+03  0.00000000000E+00 0.  1.
<mgrwt>
<rscale>  0 0.27936687E+04</rscale>
<asrwt>0</asrwt>
<pdfrwt beam="1">  1        2 0.43383290E+00 0.27936687E+04</pdfrwt>
<pdfrwt beam="2">  1       -2 0.10644876E+00 0.27936687E+04</pdfrwt>
<totfact> 0.13920668E+00</totfact>
</mgrwt>
</event>
<event>
12    1  0.1504874E-007  0.1069900E+04  0.7818608E-02  0.9235036E-01
          2   -1    0    0  501    0  0.00000000000E+00  0.00000000000E+00  0.55811253902E+03  0.55811253902E+03  0.00000000000E+00 0. -1.
         -2   -1    0    0    0  501 -0.00000000000E+00 -0.00000000000E+00 -0.51274914287E+03  0.51274914287E+03  0.00000000000E+00 0.  1.
         23    2    1    2    0    0 -0.58210773724E+02  0.74566878852E+02 -0.86333293706E+02  0.15817415507E+03  0.92827324270E+02 0.  0.
        254    2    1    2    0    0  0.58210773724E+02 -0.74566878852E+02  0.13169668985E+03  0.91268752681E+03  0.89816801874E+03 0.  0.
        -24    2    4    4    0    0  0.42626799928E+03 -0.87519418235E+02  0.26211027383E+03  0.51433951802E+03  0.80494026956E+02 0.  0.
         24    2    4    4    0    0 -0.36805722555E+03  0.12952539382E+02 -0.13041358398E+03  0.39834800879E+03  0.77714500998E+02 0.  0.
         13    1    3    3    0    0 -0.51452086876E+02  0.56165980441E+02 -0.10591897846E+03  0.13046365241E+03  0.00000000000E+00 0.  1.
        -13    1    3    3    0    0 -0.67586868478E+01  0.18400898412E+02  0.19585684755E+02  0.27710502658E+02  0.00000000000E+00 0. -1.
          4    1    6    6  502    0 -0.33382427206E+03 -0.72460615734E+01 -0.10081527085E+03  0.34879058023E+03  0.00000000000E+00 0. -1.
          3    1    5    5  503    0  0.25843056194E+03 -0.91556792373E+02  0.17419524970E+03  0.32482762597E+03  0.00000000000E+00 0. -1.
         -4    1    5    5    0  503  0.16783743734E+03  0.40373741384E+01  0.87915024131E+02  0.18951189205E+03  0.00000000000E+00 0.  1.
         -3    1    6    6    0  502 -0.34232953497E+02  0.20198600956E+02 -0.29598313124E+02  0.49557428560E+02  0.00000000000E+00 0.  1.
<mgrwt>
<rscale>  0 0.10699004E+04</rscale>
<asrwt>0</asrwt>
<pdfrwt beam="1">  1        2 0.85863467E-01 0.10699004E+04</pdfrwt>
<pdfrwt beam="2">  1       -2 0.78884484E-01 0.10699004E+04</pdfrwt>
<totfact> 0.76816847E+01</totfact>
</mgrwt>
</event>
<event>
12    1  0.1504874E-007  0.1624445E+04  0.7818608E-02  0.8805670E-01
          2   -1    0    0  501    0  0.00000000000E+00  0.00000000000E+00  0.35993130042E+04  0.35993130042E+04  0.00000000000E+00 0. -1.
         -2   -1    0    0    0  501 -0.00000000000E+00 -0.00000000000E+00 -0.18328652371E+03  0.18328652371E+03  0.00000000000E+00 0.  1.
         23    2    1    2    0    0 -0.15780987760E+03 -0.22093719339E+03  0.23173172471E+04  0.23352792488E+04  0.99260996811E+02 0.  0.
        254    2    1    2    0    0  0.15780987760E+03  0.22093719339E+03  0.10987092335E+04  0.14473202791E+04  0.90214012759E+03 0.  0.
        -24    2    4    4    0    0  0.32580331345E+03 -0.21516140991E+03  0.77982752935E+03  0.87598007593E+03  0.82267165565E+02 0.  0.
         24    2    4    4    0    0 -0.16799343585E+03  0.43609860330E+03  0.31888170410E+03  0.57134020319E+03  0.79626002562E+02 0.  0.
         13    1    3    3    0    0 -0.23283196343E+02 -0.11226755636E+03  0.10423732108E+04  0.10486601080E+04  0.00000000000E+00 0.  1.
        -13    1    3    3    0    0 -0.13452668126E+03 -0.10866963703E+03  0.12749440362E+04  0.12866191408E+04  0.00000000000E+00 0. -1.
          2    1    6    6  502    0 -0.48022272432E+02  0.48926405587E+02  0.51790563542E+02  0.85919696724E+02  0.00000000000E+00 0. -1.
          3    1    5    5  503    0  0.45437782061E+02 -0.64611922141E+02  0.19036989908E+03  0.20610674660E+03  0.00000000000E+00 0. -1.
         -4    1    5    5    0  503  0.28036553139E+03 -0.15054948777E+03  0.58945763027E+03  0.66987332933E+03  0.00000000000E+00 0.  1.
         -1    1    6    6    0  502 -0.11997116341E+03  0.38717219772E+03  0.26709114056E+03  0.48542050647E+03  0.00000000000E+00 0.  1.
<mgrwt>
<rscale>  0 0.16244452E+04</rscale>
<asrwt>0</asrwt>
<pdfrwt beam="1">  1        2 0.55374041E+00 0.16244452E+04</pdfrwt>
<pdfrwt beam="2">  1       -2 0.28197929E-01 0.16244452E+04</pdfrwt>
<totfact> 0.77100097E+00</totfact>
</mgrwt>
</event>
<event>
12    1  0.1504874E-007  0.1309930E+04  0.7818608E-02  0.9021728E-01
         -2   -1    0    0    0  501 -0.00000000000E+00  0.00000000000E+00  0.10914547551E+04  0.10914547551E+04  0.00000000000E+00 0.  1.
          2   -1    0    0  501    0  0.00000000000E+00 -0.00000000000E+00 -0.39303421788E+03  0.39303421788E+03  0.00000000000E+00 0. -1.
         23    2    1    2    0    0 -0.20069097183E+03  0.71505184398E+02 -0.51902778468E+02  0.23706899835E+03  0.90099689215E+02 0.  0.
        254    2    1    2    0    0  0.20069097183E+03 -0.71505184398E+02  0.75032331571E+03  0.12474199746E+04  0.97348942341E+03 0.  0.
        -24    2    4    4    0    0  0.24703878813E+03  0.37528625544E+03  0.12685546198E+03  0.47512593257E+03  0.88229287632E+02 0.  0.
         24    2    4    4    0    0 -0.46347816300E+02 -0.44679143984E+03  0.62346785372E+03  0.77229404208E+03  0.77170020211E+02 0.  0.
         13    1    3    3    0    0 -0.17087702055E+03  0.80551245018E+02 -0.69496053121E+02  0.20128874937E+03  0.00000000000E+00 0. -1.
        -13    1    3    3    0    0 -0.29813951280E+02 -0.90460606199E+01  0.17593274654E+02  0.35780248975E+02  0.00000000000E+00 0.  1.
          4    1    6    6  502    0 -0.11724694464E+02 -0.18910301777E+02  0.12283349670E+02  0.25415519918E+02  0.00000000000E+00 0. -1.
          3    1    5    5  503    0  0.13760377904E+03  0.13530977557E+03  0.70208449593E+02  0.20536007832E+03  0.00000000000E+00 0. -1.
         -4    1    5    5    0  503  0.10943500909E+03  0.23997647987E+03  0.56647012392E+02  0.26976585425E+03  0.00000000000E+00 0.  1.
         -3    1    6    6    0  502 -0.34623121836E+02 -0.42788113806E+03  0.61118450405E+03  0.74687852217E+03  0.00000000000E+00 0.  1.
<mgrwt>
<rscale>  0 0.13099299E+04</rscale>
<asrwt>0</asrwt>
<pdfrwt beam="1">  1        2 0.60466803E-01 0.13099299E+04</pdfrwt>
<pdfrwt beam="2">  1       -2 0.16791611E+00 0.13099299E+04</pdfrwt>
<totfact> 0.17503481E+01</totfact>
</mgrwt>
</event>
<event>
12    1  0.1504874E-007  0.1484547E+04  0.7818608E-02  0.8894794E-01
         -2   -1    0    0    0  501 -0.00000000000E+00  0.00000000000E+00  0.30367051349E+03  0.30367051349E+03  0.00000000000E+00 0.  1.
          2   -1    0    0  501    0  0.00000000000E+00 -0.00000000000E+00 -0.18143685216E+04  0.18143685216E+04  0.00000000000E+00 0. -1.
         23    2    1    2    0    0  0.11334287501E+03 -0.44277824269E+03 -0.52135734094E+03  0.69951976832E+03  0.92818369936E+02 0.  0.
        254    2    1    2    0    0 -0.11334287501E+03  0.44277824269E+03 -0.98934066713E+03  0.14185192667E+04  0.90802135160E+03 0.  0.
        -24    2    4    4    0    0  0.58395458731E+02 -0.29213014146E+02  0.14334856200E+03  0.17692798974E+03  0.80568440040E+02 0.  0.
         24    2    4    4    0    0 -0.17173833374E+03  0.47199125684E+03 -0.11326892291E+04  0.12415912770E+04  0.79336041764E+02 0.  0.
         13    1    3    3    0    0  0.92780256770E+02 -0.37280410342E+03 -0.37949152701E+03  0.54000453206E+03  0.00000000000E+00 0.  1.
        -13    1    3    3    0    0  0.20562618235E+02 -0.69974139270E+02 -0.14186581393E+03  0.15951523626E+03  0.00000000000E+00 0. -1.
          4    1    6    6  502    0 -0.15262299225E+03  0.43212660987E+03 -0.96693463366E+03  0.10700419480E+04  0.00000000000E+00 0. -1.
          1    1    5    5  503    0  0.70511707914E+02 -0.36959308819E+02  0.14159468509E+03  0.16244059316E+03  0.00000000000E+00 0. -1.
         -2    1    5    5    0  503 -0.12116249182E+02  0.77462946727E+01  0.17538769093E+01  0.14487396578E+02  0.00000000000E+00 0.  1.
         -3    1    6    6    0  502 -0.19115341488E+02  0.39864646971E+02 -0.16575459548E+03  0.17154932900E+03  0.00000000000E+00 0.  1.
<mgrwt>
<rscale>  0 0.14845474E+04</rscale>
<asrwt>0</asrwt>
<pdfrwt beam="1">  1        2 0.27913361E+00 0.14845474E+04</pdfrwt>
<pdfrwt beam="2">  1       -2 0.46718541E-01 0.14845474E+04</pdfrwt>
<totfact> 0.35593055E+01</totfact>
</mgrwt>
</event>
<event>
12    1  0.1504874E-007  0.2280216E+04  0.7818608E-02  0.8485763E-01
         -2   -1    0    0    0  501 -0.00000000000E+00  0.00000000000E+00  0.82546034341E+03  0.82546034341E+03  0.00000000000E+00 0.  1.
          2   -1    0    0  501    0  0.00000000000E+00 -0.00000000000E+00 -0.15746931733E+04  0.15746931733E+04  0.00000000000E+00 0. -1.
         23    2    1    2    0    0  0.67751943824E+03 -0.67437244503E+03 -0.37632238506E+03  0.10314923795E+04  0.92451108999E+02 0.  0.
        254    2    1    2    0    0 -0.67751943824E+03  0.67437244503E+03 -0.37291044482E+03  0.13686611373E+04  0.90573744814E+03 0.  0.
        -24    2    4    4    0    0  0.19065980520E+03  0.12195890224E+03 -0.21884417737E+03  0.32494872719E+03  0.80459717762E+02 0.  0.
         24    2    4    4    0    0 -0.86817924344E+03  0.55241354279E+03 -0.15406626745E+03  0.10437124101E+04  0.81873433653E+02 0.  0.
         13    1    3    3    0    0  0.64958904734E+03 -0.64704529994E+03 -0.33919795566E+03  0.97759337340E+03  0.00000000000E+00 0. -1.
        -13    1    3    3    0    0  0.27930390904E+02 -0.27327145096E+02 -0.37124429399E+02  0.53899006052E+02  0.00000000000E+00 0.  1.
          2    1    6    6  502    0 -0.58678894175E+03  0.41476918887E+03 -0.12141991927E+03  0.72876439196E+03  0.00000000000E+00 0. -1.
          3    1    5    5  503    0  0.67842187505E+02  0.16642840581E+02 -0.10875729749E+03  0.12925825430E+03  0.00000000000E+00 0. -1.
         -4    1    5    5    0  503  0.12281761770E+03  0.10531606166E+03 -0.11008687988E+03  0.19569047290E+03  0.00000000000E+00 0.  1.
         -1    1    6    6    0  502 -0.28139030169E+03  0.13764435392E+03 -0.32646348186E+02  0.31494801810E+03  0.00000000000E+00 0.  1.
<mgrwt>
<rscale>  0 0.22802165E+04</rscale>
<asrwt>0</asrwt>
<pdfrwt beam="1">  1        2 0.24226048E+00 0.22802165E+04</pdfrwt>
<pdfrwt beam="2">  1       -2 0.12699390E+00 0.22802165E+04</pdfrwt>
<totfact> 0.48217252E+00</totfact>
</mgrwt>
</event>
<event>
12    1  0.1504874E-007  0.2266596E+04  0.7818608E-02  0.8491209E-01
         -2   -1    0    0    0  501 -0.00000000000E+00  0.00000000000E+00  0.11239051943E+04  0.11239051943E+04  0.00000000000E+00 0.  1.
          2   -1    0    0  501    0  0.00000000000E+00 -0.00000000000E+00 -0.11427693130E+04  0.11427693130E+04  0.00000000000E+00 0. -1.
         23    2    1    2    0    0  0.35136241309E+03 -0.62971804761E+03 -0.61790868275E+03  0.95408146738E+03  0.91977939594E+02 0.  0.
        254    2    1    2    0    0 -0.35136241309E+03  0.62971804761E+03  0.59904456404E+03  0.13125930398E+04  0.91871961647E+03 0.  0.
        -24    2    4    4    0    0 -0.14299076241E+03  0.23626052638E+03 -0.23009160582E+03  0.36810592852E+03  0.79337463271E+02 0.  0.
         24    2    4    4    0    0 -0.20837165068E+03  0.39345752123E+03  0.82913616986E+03  0.94448711131E+03  0.79759321978E+02 0.  0.
         13    1    3    3    0    0  0.30041953482E+02 -0.12525100684E+03 -0.10565438739E+03  0.16659286677E+03  0.00000000000E+00 0.  1.
        -13    1    3    3    0    0  0.32132045961E+03 -0.50446704077E+03 -0.51225429536E+03  0.78748860061E+03  0.00000000000E+00 0. -1.
          2    1    6    6  502    0 -0.90462573159E+02  0.94286843775E+02  0.23146514840E+03  0.26579992659E+03  0.00000000000E+00 0. -1.
          3    1    5    5  503    0 -0.31008360402E+01  0.64490354331E+01 -0.35132059445E+02  0.35853407690E+02  0.00000000000E+00 0. -1.
         -4    1    5    5    0  503 -0.13988992637E+03  0.22981149095E+03 -0.19495954638E+03  0.33225252083E+03  0.00000000000E+00 0.  1.
         -1    1    6    6    0  502 -0.11790907752E+03  0.29917067745E+03  0.59767102146E+03  0.67868718472E+03  0.00000000000E+00 0.  1.
<mgrwt>
<rscale>  0 0.22665960E+04</rscale>
<asrwt>0</asrwt>
<pdfrwt beam="1">  1        2 0.17581066E+00 0.22665960E+04</pdfrwt>
<pdfrwt beam="2">  1       -2 0.17290849E+00 0.22665960E+04</pdfrwt>
<totfact> 0.37895196E+00</totfact>
</mgrwt>
</event>
<event>
12    1  0.1504874E-007  0.1095738E+04  0.7818608E-02  0.9209356E-01
          2   -1    0    0  501    0  0.00000000000E+00  0.00000000000E+00  0.99381832695E+03  0.99381832695E+03  0.00000000000E+00 0. -1.
         -2   -1    0    0    0  501 -0.00000000000E+00 -0.00000000000E+00 -0.30202730148E+03  0.30202730148E+03  0.00000000000E+00 0.  1.
         23    2    1    2    0    0 -0.46538662306E+01  0.15605633612E+03  0.71810216864E+02  0.19465341159E+03  0.91422124706E+02 0.  0.
        254    2    1    2    0    0  0.46538662306E+01 -0.15605633612E+03  0.61998080861E+03  0.11011922168E+04  0.89658956990E+03 0.  0.
        -24    2    4    4    0    0  0.36019223573E+03 -0.24264096911E+03  0.57365517813E+03  0.72380248710E+03  0.78719059751E+02 0.  0.
         24    2    4    4    0    0 -0.35553836950E+03  0.86584632991E+02  0.46325630481E+02  0.37738972973E+03  0.79828022671E+02 0.  0.
         11    1    3    3    0    0 -0.38925840472E+02  0.29728051651E+02  0.10410206302E+02  0.50073451116E+02  0.00000000000E+00 0. -1.
        -11    1    3    3    0    0  0.34271974242E+02  0.12632828447E+03  0.61400010561E+02  0.14457996048E+03  0.00000000000E+00 0.  1.
          2    1    6    6  502    0 -0.60807101952E+02 -0.56735711490E+01  0.30213571588E+02  0.68136282299E+02  0.00000000000E+00 0. -1.
          3    1    5    5  503    0  0.79296627799E+02 -0.53225269461E+02  0.77406019383E+02  0.12293321897E+03  0.00000000000E+00 0. -1.
         -4    1    5    5    0  503  0.28089560794E+03 -0.18941569965E+03  0.49624915875E+03  0.60086926813E+03  0.00000000000E+00 0.  1.
         -1    1    6    6    0  502 -0.29473126755E+03  0.92258204140E+02  0.16112058893E+02  0.30925344743E+03  0.00000000000E+00 0.  1.
<mgrwt>
<rscale>  0 0.10957377E+04</rscale>
<asrwt>0</asrwt>
<pdfrwt beam="1">  1        2 0.15289513E+00 0.10957377E+04</pdfrwt>
<pdfrwt beam="2">  1       -2 0.46465739E-01 0.10957377E+04</pdfrwt>
<totfact> 0.11081497E+02</totfact>
</mgrwt>
</event>
<event>
12    1  0.1504874E-007  0.1128976E+04  0.7818608E-02  0.9177401E-01
          2   -1    0    0  501    0  0.00000000000E+00  0.00000000000E+00  0.88743367844E+03  0.88743367844E+03  0.00000000000E+00 0. -1.
         -2   -1    0    0    0  501 -0.00000000000E+00 -0.00000000000E+00 -0.35906562601E+03  0.35906562601E+03  0.00000000000E+00 0.  1.
         23    2    1    2    0    0  0.17223943776E+03 -0.78947582112E+02  0.37745828131E+03  0.43402843589E+03  0.10003391622E+03 0.  0.
        254    2    1    2    0    0 -0.17223943776E+03  0.78947582112E+02  0.15090977113E+03  0.81247086856E+03  0.77552305484E+03 0.  0.
        -24    2    4    4    0    0  0.14858545187E+03 -0.51510044996E+02 -0.23117795311E+03  0.29071928883E+03  0.79646328566E+02 0.  0.
         24    2    4    4    0    0 -0.32082488963E+03  0.13045762711E+03  0.38208772424E+03  0.52175157973E+03  0.79283539615E+02 0.  0.
         11    1    3    3    0    0  0.10411614449E+03 -0.54596228885E+02  0.32224907869E+03  0.34302388906E+03  0.00000000000E+00 0. -1.
        -11    1    3    3    0    0  0.68123293268E+02 -0.24351353227E+02  0.55209202618E+02  0.91004546828E+02  0.00000000000E+00 0.  1.
          4    1    6    6  502    0 -0.90938064404E+02  0.61592873386E+01  0.71517509429E+02  0.11585517914E+03  0.00000000000E+00 0. -1.
          3    1    5    5  503    0  0.12375838877E+03 -0.71526356558E+02 -0.20224491713E+03  0.24765937288E+03  0.00000000000E+00 0. -1.
         -4    1    5    5    0  503  0.24827063091E+02  0.20016311561E+02 -0.28933035985E+02  0.43059915950E+02  0.00000000000E+00 0.  1.
         -1    1    6    6    0  502 -0.22988682522E+03  0.12429833977E+03  0.31057021481E+03  0.40589640059E+03  0.00000000000E+00 0.  1.
<mgrwt>
<rscale>  0 0.11289764E+04</rscale>
<asrwt>0</asrwt>
<pdfrwt beam="1">  1        2 0.13652826E+00 0.11289764E+04</pdfrwt>
<pdfrwt beam="2">  1       -2 0.55240866E-01 0.11289764E+04</pdfrwt>
<totfact> 0.91323946E+01</totfact>
</mgrwt>
</event>
<event>
12    1  0.1600502E-007  0.1636970E+04  0.7818608E-02  0.8798153E-01
          2   -1    0    0  501    0  0.00000000000E+00  0.00000000000E+00  0.11172052008E+04  0.11172052008E+04  0.00000000000E+00 0. -1.
         -2   -1    0    0    0  501 -0.00000000000E+00 -0.00000000000E+00 -0.59963684371E+03  0.59963684371E+03  0.00000000000E+00 0.  1.
         23    2    1    2    0    0 -0.34154845075E+03  0.43013826028E+03  0.65491411835E+02  0.56066790890E+03  0.91570256489E+02 0.  0.
        254    2    1    2    0    0  0.34154845075E+03 -0.43013826028E+03  0.45207694523E+03  0.11561741356E+04  0.91142240493E+03 0.  0.
        -24    2    4    4    0    0 -0.10172909785E+03 -0.33518781312E+02  0.53392308144E+03  0.55039638302E+03  0.79937497443E+02 0.  0.
         24    2    4    4    0    0  0.44327754860E+03 -0.39661947897E+03 -0.81846136207E+02  0.60577775256E+03  0.80410815782E+02 0.  0.
         11    1    3    3    0    0 -0.32568353933E+03  0.37800219380E+03  0.77300279671E+02  0.50490668400E+03  0.00000000000E+00 0. -1.
        -11    1    3    3    0    0 -0.15864911420E+02  0.52136066482E+02 -0.11808867836E+02  0.55761224898E+02  0.00000000000E+00 0.  1.
          2    1    6    6  502    0  0.42968679074E+03 -0.39160067241E+03 -0.67294764553E+02  0.58524388942E+03  0.00000000000E+00 0. -1.
          3    1    5    5  503    0 -0.10109026933E+03 -0.36373364968E+02  0.53609428581E+03  0.54675346136E+03  0.00000000000E+00 0. -1.
         -4    1    5    5    0  503 -0.63882851850E+00  0.28545836569E+01 -0.21712043758E+01  0.36429216532E+01  0.00000000000E+00 0.  1.
         -1    1    6    6    0  502  0.13590757864E+02 -0.50188065623E+01 -0.14551371654E+02  0.20533863144E+02  0.00000000000E+00 0.  1.
<mgrwt>
<rscale>  0 0.16369696E+04</rscale>
<asrwt>0</asrwt>
<pdfrwt beam="1">  1        2 0.17187772E+00 0.16369696E+04</pdfrwt>
<pdfrwt beam="2">  1       -2 0.92251822E-01 0.16369696E+04</pdfrwt>
<totfact> 0.20293458E+01</totfact>
</mgrwt>
</event>
<event>
12    1  0.1504874E-007  0.1259444E+04  0.7818608E-02  0.9062360E-01
          2   -1    0    0  501    0  0.00000000000E+00  0.00000000000E+00  0.74172432328E+03  0.74172432328E+03  0.00000000000E+00 0. -1.
         -2   -1    0    0    0  501 -0.00000000000E+00 -0.00000000000E+00 -0.53463222520E+03  0.53463222520E+03  0.00000000000E+00 0.  1.
         23    2    1    2    0    0  0.99941606511E+02  0.75244143447E+02 -0.22610203205E+03  0.27337359424E+03  0.89224364918E+02 0.  0.
        254    2    1    2    0    0 -0.99941606511E+02 -0.75244143447E+02  0.43319413013E+03  0.10029829542E+04  0.89591720950E+03 0.  0.
        -24    2    4    4    0    0  0.35409060586E+03  0.30108880778E+02  0.38150591058E+03  0.52737193847E+03  0.79295017617E+02 0.  0.
         24    2    4    4    0    0 -0.45403221237E+03 -0.10535302423E+03  0.51688219543E+02  0.47561101576E+03  0.79307355866E+02 0.  0.
         13    1    3    3    0    0  0.76571545068E+02  0.53180487240E+02 -0.22224072199E+03  0.24100270589E+03  0.00000000000E+00 0.  1.
        -13    1    3    3    0    0  0.23370061443E+02  0.22063656208E+02 -0.38613100634E+01  0.32370888349E+02  0.00000000000E+00 0. -1.
          2    1    6    6  502    0 -0.86676051629E+02 -0.50682604715E+02  0.23637282910E+02  0.10315127479E+03  0.00000000000E+00 0. -1.
          1    1    5    5  503    0  0.13639346682E+02 -0.12188095538E+02  0.72724375161E+01  0.19684252543E+02  0.00000000000E+00 0. -1.
         -2    1    5    5    0  503  0.34045125918E+03  0.42296976315E+02  0.37423347307E+03  0.50768768593E+03  0.00000000000E+00 0.  1.
         -1    1    6    6    0  502 -0.36735616074E+03 -0.54670419510E+02  0.28050936632E+02  0.37245974098E+03  0.00000000000E+00 0.  1.
<mgrwt>
<rscale>  0 0.12594439E+04</rscale>
<asrwt>0</asrwt>
<pdfrwt beam="1">  1        2 0.11411143E+00 0.12594439E+04</pdfrwt>
<pdfrwt beam="2">  1       -2 0.82251111E-01 0.12594439E+04</pdfrwt>
<totfact> 0.48569737E+01</totfact>
</mgrwt>
</event>
<event>
12    1  0.1504874E-007  0.1325767E+04  0.7818608E-02  0.9009377E-01
         -2   -1    0    0    0  501 -0.00000000000E+00  0.00000000000E+00  0.52209497265E+03  0.52209497265E+03  0.00000000000E+00 0.  1.
          2   -1    0    0  501    0  0.00000000000E+00 -0.00000000000E+00 -0.84163759506E+03  0.84163759506E+03  0.00000000000E+00 0. -1.
         23    2    1    2    0    0 -0.33685167347E+03  0.89649992995E+01 -0.92379206253E+01  0.34936867580E+03  0.91780778620E+02 0.  0.
        254    2    1    2    0    0  0.33685167347E+03 -0.89649992995E+01 -0.31030470179E+03  0.10143638919E+04  0.90503904674E+03 0.  0.
        -24    2    4    4    0    0 -0.84612062517E+01 -0.24180358324E+03 -0.49092051797E+03  0.55326850608E+03  0.81009382075E+02 0.  0.
         24    2    4    4    0    0  0.34531287972E+03  0.23283858394E+03  0.18061581618E+03  0.46109538583E+03  0.80821350541E+02 0.  0.
         11    1    3    3    0    0 -0.13185053932E+03 -0.93075322679E+01 -0.46675160439E+02  0.14017762117E+03  0.00000000000E+00 0. -1.
        -11    1    3    3    0    0 -0.20500113415E+03  0.18272531567E+02  0.37437239814E+02  0.20919105463E+03  0.00000000000E+00 0.  1.
          4    1    6    6  502    0  0.33608738031E+03  0.20234387080E+03  0.16953340508E+03  0.42736324677E+03  0.00000000000E+00 0. -1.
          3    1    5    5  503    0  0.23810853728E+02 -0.18954077216E+03 -0.33425916890E+03  0.38499591304E+03  0.00000000000E+00 0. -1.
         -4    1    5    5    0  503 -0.32272059980E+02 -0.52262811085E+02 -0.15666134907E+03  0.16827259304E+03  0.00000000000E+00 0.  1.
         -3    1    6    6    0  502  0.92254994037E+01  0.30494713147E+02  0.11082411100E+02  0.33732139051E+02  0.00000000000E+00 0.  1.
<mgrwt>
<rscale>  0 0.13257673E+04</rscale>
<asrwt>0</asrwt>
<pdfrwt beam="1">  1        2 0.12948271E+00 0.13257673E+04</pdfrwt>
<pdfrwt beam="2">  1       -2 0.80322304E-01 0.13257673E+04</pdfrwt>
<totfact> 0.43133678E+01</totfact>
</mgrwt>
</event>
<event>
12    1  0.1504874E-007  0.1418312E+04  0.7818608E-02  0.8940669E-01
          1   -1    0    0  501    0  0.00000000000E+00  0.00000000000E+00  0.37988765326E+03  0.37988765326E+03  0.00000000000E+00 0. -1.
         -1   -1    0    0    0  501 -0.00000000000E+00 -0.00000000000E+00 -0.13238184507E+04  0.13238184507E+04  0.00000000000E+00 0.  1.
         23    2    1    2    0    0  0.34079453755E+03  0.10444141950E+03 -0.53400939646E+03  0.64837982114E+03  0.90451257733E+02 0.  0.
        254    2    1    2    0    0 -0.34079453755E+03 -0.10444141950E+03 -0.40992140096E+03  0.10553262828E+04  0.90478123394E+03 0.  0.
        -24    2    4    4    0    0  0.97961284640E+02  0.25479412186E+03  0.87245053562E+02  0.29703087166E+03  0.78097256865E+02 0.  0.
         24    2    4    4    0    0 -0.43875582219E+03 -0.35923554135E+03 -0.49716645452E+03  0.75829541114E+03  0.79250245311E+02 0.  0.
         13    1    3    3    0    0  0.79900497838E+02  0.13539458699E+02 -0.64327651314E+02  0.10346716010E+03  0.00000000000E+00 0. -1.
        -13    1    3    3    0    0  0.26089403971E+03  0.90901960797E+02 -0.46968174515E+03  0.54491266103E+03  0.00000000000E+00 0.  1.
          4    1    6    6  502    0 -0.27939456416E+03 -0.17946539109E+03 -0.27700703762E+03  0.43243733415E+03  0.00000000000E+00 0. -1.
          3    1    5    5  503    0  0.45951518395E+02  0.20995190344E+03  0.72249815736E+02  0.22674077638E+03  0.00000000000E+00 0. -1.
         -4    1    5    5    0  503  0.52009766245E+02  0.44842218419E+02  0.14995237826E+02  0.70290095285E+02  0.00000000000E+00 0.  1.
         -3    1    6    6    0  502 -0.15936125803E+03 -0.17977015026E+03 -0.22015941690E+03  0.32585807698E+03  0.00000000000E+00 0.  1.
<mgrwt>
<rscale>  0 0.14183121E+04</rscale>
<asrwt>0</asrwt>
<pdfrwt beam="1">  1        1 0.58444254E-01 0.14183121E+04</pdfrwt>
<pdfrwt beam="2">  1       -1 0.20366438E+00 0.14183121E+04</pdfrwt>
<totfact> 0.88851165E+00</totfact>
</mgrwt>
</event>
<event>
12    1  0.1504874E-007  0.1795541E+04  0.7818608E-02  0.8708675E-01
         -1   -1    0    0    0  501 -0.00000000000E+00  0.00000000000E+00  0.24564649257E+03  0.24564649257E+03  0.00000000000E+00 0.  1.
          1   -1    0    0  501    0  0.00000000000E+00 -0.00000000000E+00 -0.32811033528E+04  0.32811033528E+04  0.00000000000E+00 0. -1.
         23    2    1    2    0    0 -0.26900772635E+03 -0.57982059841E+03 -0.78870654260E+03  0.10194935200E+04  0.93551823793E+02 0.  0.
        254    2    1    2    0    0  0.26900772635E+03  0.57982059841E+03 -0.22467503176E+04  0.25072563254E+04  0.91098309994E+03 0.  0.
        -24    2    4    4    0    0 -0.27630736259E+03  0.32506678330E+03 -0.52223754827E+03  0.67914987286E+03  0.80612162549E+02 0.  0.
         24    2    4    4    0    0  0.54531508894E+03  0.25475381511E+03 -0.17245127694E+04  0.18281064526E+04  0.75900313934E+02 0.  0.
         13    1    3    3    0    0 -0.23222982122E+03 -0.51291600522E+03 -0.73624123219E+03  0.92685741635E+03  0.00000000000E+00 0. -1.
        -13    1    3    3    0    0 -0.36777905136E+02 -0.66904593197E+02 -0.52465310416E+02  0.92636103621E+02  0.00000000000E+00 0.  1.
          2    1    6    6  502    0  0.33375950943E+03  0.16448655937E+03 -0.95399534759E+03  0.10239913875E+04  0.00000000000E+00 0. -1.
          1    1    5    5  503    0 -0.29324439321E+02  0.71841325843E+02 -0.66134762846E+02  0.10195541034E+03  0.00000000000E+00 0. -1.
         -2    1    5    5    0  503 -0.24698292327E+03  0.25322545746E+03 -0.45610278542E+03  0.57719446252E+03  0.00000000000E+00 0.  1.
         -1    1    6    6    0  502  0.21155557951E+03  0.90267255737E+02 -0.77051742177E+03  0.80411506510E+03  0.00000000000E+00 0.  1.
<mgrwt>
<rscale>  0 0.17955406E+04</rscale>
<asrwt>0</asrwt>
<pdfrwt beam="1">  1        1 0.50478512E+00 0.17955406E+04</pdfrwt>
<pdfrwt beam="2">  1       -1 0.37791769E-01 0.17955406E+04</pdfrwt>
<totfact> 0.23658305E+00</totfact>
</mgrwt>
</event>
<event>
12    1  0.2777870E-007  0.1516330E+04  0.7818608E-02  0.8873666E-01
         -1   -1    0    0    0  501 -0.00000000000E+00  0.00000000000E+00  0.37670950589E+03  0.37670950589E+03  0.00000000000E+00 0.  1.
          1   -1    0    0  501    0  0.00000000000E+00 -0.00000000000E+00 -0.15258813571E+04  0.15258813571E+04  0.00000000000E+00 0. -1.
         23    2    1    2    0    0  0.40945056171E+02 -0.57268971500E+02 -0.97850365838E+03  0.98532690976E+03  0.91888393811E+02 0.  0.
        254    2    1    2    0    0 -0.40945056171E+02  0.57268971500E+02 -0.17066819286E+03  0.91726395326E+03  0.89849279083E+03 0.  0.
        -24    2    4    4    0    0 -0.30751996310E+03 -0.29698319132E+03 -0.45217528162E+00  0.43568484316E+03  0.83985322921E+02 0.  0.
         24    2    4    4    0    0  0.26657490693E+03  0.35425216282E+03 -0.17021601757E+03  0.48157911010E+03  0.79926033171E+02 0.  0.
         11    1    3    3    0    0  0.53964378209E+02 -0.39633617284E+02 -0.92618118432E+03  0.92859817140E+03  0.00000000000E+00 0. -1.
        -11    1    3    3    0    0 -0.13019322038E+02 -0.17635354216E+02 -0.52322474054E+02  0.56728738358E+02  0.00000000000E+00 0.  1.
          2    1    6    6  502    0  0.16162153004E+02  0.45943396990E+02  0.18062025627E+01  0.48736775482E+02  0.00000000000E+00 0. -1.
          1    1    5    5  503    0 -0.15522861980E+02  0.19398527807E+01  0.83239815807E+01  0.17720353897E+02  0.00000000000E+00 0. -1.
         -2    1    5    5    0  503 -0.29199710112E+03 -0.29892304410E+03 -0.87761568623E+01  0.41796448927E+03  0.00000000000E+00 0.  1.
         -1    1    6    6    0  502  0.25041275393E+03  0.30830876583E+03 -0.17202222014E+03  0.43284233462E+03  0.00000000000E+00 0.  1.
<mgrwt>
<rscale>  0 0.15163298E+04</rscale>
<asrwt>0</asrwt>
<pdfrwt beam="1">  1        1 0.23475098E+00 0.15163298E+04</pdfrwt>
<pdfrwt beam="2">  1       -1 0.57955308E-01 0.15163298E+04</pdfrwt>
<totfact> 0.18289076E+01</totfact>
</mgrwt>
</event>
<event>
12    1  0.1504874E-007  0.1059837E+04  0.7818608E-02  0.9245246E-01
         -2   -1    0    0    0  501 -0.00000000000E+00  0.00000000000E+00  0.21853948939E+03  0.21853948939E+03  0.00000000000E+00 0. -1.
          2   -1    0    0  501    0  0.00000000000E+00 -0.00000000000E+00 -0.12849561663E+04  0.12849561663E+04  0.00000000000E+00 0.  1.
         23    2    1    2    0    0  0.91362195164E+02 -0.52945558543E+02 -0.60765134576E+02  0.15230652057E+03  0.91403455920E+02 0.  0.
        254    2    1    2    0    0 -0.91362195164E+02  0.52945558543E+02 -0.10056515423E+04  0.13511891351E+04  0.89622919578E+03 0.  0.
        -24    2    4    4    0    0 -0.42162344314E+03 -0.17450650318E+03 -0.35907370719E+03  0.58638229337E+03  0.81801096067E+02 0.  0.
         24    2    4    4    0    0  0.33026124798E+03  0.22745206172E+03 -0.64657783513E+03  0.76480684174E+03  0.77843920718E+02 0.  0.
         13    1    3    3    0    0  0.10978365098E+03 -0.41652311543E+02 -0.45863902618E+02  0.12605896495E+03  0.00000000000E+00 0. -1.
        -13    1    3    3    0    0 -0.18421455821E+02 -0.11293247000E+02 -0.14901231958E+02  0.26247555624E+02  0.00000000000E+00 0.  1.
          2    1    6    6  502    0  0.21753298428E+03  0.12571967430E+03 -0.34081784207E+03  0.42341804074E+03  0.00000000000E+00 0. -1.
          3    1    5    5  503    0 -0.37612790404E+03 -0.15753146000E+03 -0.34911071699E+03  0.53681156266E+03  0.00000000000E+00 0. -1.
         -4    1    5    5    0  503 -0.45495539103E+02 -0.16975043177E+02 -0.99629902040E+01  0.49570730708E+02  0.00000000000E+00 0.  1.
         -1    1    6    6    0  502  0.11272826369E+03  0.10173238742E+03 -0.30575999307E+03  0.34138880100E+03  0.00000000000E+00 0.  1.
<mgrwt>
<rscale>  0 0.10598371E+04</rscale>
<asrwt>0</asrwt>
<pdfrwt beam="1">  1        2 0.19768556E+00 0.10598371E+04</pdfrwt>
<pdfrwt beam="2">  1       -2 0.33621460E-01 0.10598371E+04</pdfrwt>
<totfact> 0.13870988E+02</totfact>
</mgrwt>
</event>
<event>
12    1  0.1504874E-007  0.2535095E+04  0.7818608E-02  0.8390588E-01
         -2   -1    0    0    0  501 -0.00000000000E+00  0.00000000000E+00  0.65799381902E+03  0.65799381902E+03  0.00000000000E+00 0.  1.
          2   -1    0    0  501    0  0.00000000000E+00 -0.00000000000E+00 -0.24417809676E+04  0.24417809676E+04  0.00000000000E+00 0. -1.
         23    2    1    2    0    0  0.20365567035E+03 -0.18790755344E+02 -0.21119481988E+04  0.21235201323E+04  0.84757498465E+02 0.  0.
        254    2    1    2    0    0 -0.20365567035E+03  0.18790755344E+02  0.32816105016E+03  0.97625465432E+03  0.89641215448E+03 0.  0.
        -24    2    4    4    0    0  0.83323436870E+02  0.19078235289E+02  0.57659365245E+03  0.58832081448E+03  0.79714280482E+02 0.  0.
         24    2    4    4    0    0 -0.28697910722E+03 -0.28747994521E+00 -0.24843260229E+03  0.38793383984E+03  0.80105028503E+02 0.  0.
         13    1    3    3    0    0  0.17351125305E+03 -0.24641362285E+02 -0.19923449243E+04  0.20000379119E+04  0.00000000000E+00 0. -1.
        -13    1    3    3    0    0  0.30144417297E+02  0.58506069415E+01 -0.11960327446E+03  0.12348222041E+03  0.00000000000E+00 0.  1.
          4    1    6    6  502    0 -0.21607518038E+03 -0.29207953368E+01 -0.22791580796E+03  0.31407424304E+03  0.00000000000E+00 0. -1.
          3    1    5    5  503    0  0.73240050740E+02  0.46642352544E+02  0.40125139130E+03  0.41053902751E+03  0.00000000000E+00 0. -1.
         -4    1    5    5    0  503  0.10083386131E+02 -0.27564117255E+02  0.17534226114E+03  0.17778178697E+03  0.00000000000E+00 0.  1.
         -3    1    6    6    0  502 -0.70903926833E+02  0.26333153916E+01 -0.20516794330E+02  0.73859596803E+02  0.00000000000E+00 0.  1.
<mgrwt>
<rscale>  0 0.25350951E+04</rscale>
<asrwt>0</asrwt>
<pdfrwt beam="1">  1        2 0.37565861E+00 0.25350951E+04</pdfrwt>
<pdfrwt beam="2">  1       -2 0.10122982E+00 0.25350951E+04</pdfrwt>
<totfact> 0.26834661E+00</totfact>
</mgrwt>
</event>
<event>
12    1  0.1504874E-007  0.1369607E+04  0.7818608E-02  0.8976117E-01
         -1   -1    0    0    0  501 -0.00000000000E+00  0.00000000000E+00  0.48189655660E+03  0.48189655660E+03  0.00000000000E+00 0.  1.
          1   -1    0    0  501    0  0.00000000000E+00 -0.00000000000E+00 -0.97314588937E+03  0.97314588937E+03  0.00000000000E+00 0. -1.
         23    2    1    2    0    0  0.15338432067E+03 -0.24233512945E+01 -0.51894223602E+03  0.54872161287E+03  0.90894123273E+02 0.  0.
        254    2    1    2    0    0 -0.15338432067E+03  0.24233512945E+01  0.27692903249E+02  0.90632083310E+03  0.89281461298E+03 0.  0.
        -24    2    4    4    0    0 -0.28452405125E+03 -0.33693566748E+03  0.20642950169E+03  0.49336631244E+03  0.79483327366E+02 0.  0.
         24    2    4    4    0    0  0.13113973059E+03  0.33935901877E+03 -0.17873659844E+03  0.41295452065E+03  0.78882773454E+02 0.  0.
         11    1    3    3    0    0  0.35033263099E+02 -0.17819500612E+02 -0.26773368791E+03  0.27060338462E+03  0.00000000000E+00 0.  1.
        -11    1    3    3    0    0  0.11835105757E+03  0.15396149317E+02 -0.25120854812E+03  0.27811822825E+03  0.00000000000E+00 0. -1.
          2    1    6    6  502    0  0.26992579422E+02  0.17759169095E+03 -0.78825729903E+02  0.19616550087E+03  0.00000000000E+00 0. -1.
          1    1    5    5  503    0 -0.19058835523E+03 -0.26508142492E+03  0.17748826343E+03  0.37161023485E+03  0.00000000000E+00 0. -1.
         -2    1    5    5    0  503 -0.93935696017E+02 -0.71854242557E+02  0.28941238256E+02  0.12175607760E+03  0.00000000000E+00 0.  1.
         -3    1    6    6    0  502  0.10414715116E+03  0.16176732783E+03 -0.99910868533E+02  0.21678901978E+03  0.00000000000E+00 0.  1.
<mgrwt>
<rscale>  0 0.13696067E+04</rscale>
<asrwt>0</asrwt>
<pdfrwt beam="1">  1        1 0.14971475E+00 0.13696067E+04</pdfrwt>
<pdfrwt beam="2">  1       -1 0.74137933E-01 0.13696067E+04</pdfrwt>
<totfact> 0.28445386E+01</totfact>
</mgrwt>
</event>
<event>
12    1  0.1504874E-007  0.1973077E+04  0.7818608E-02  0.8619312E-01
         -1   -1    0    0    0  501 -0.00000000000E+00  0.00000000000E+00  0.37418226537E+03  0.37418226537E+03  0.00000000000E+00 0.  1.
          1   -1    0    0  501    0  0.00000000000E+00 -0.00000000000E+00 -0.26010280106E+04  0.26010280106E+04  0.00000000000E+00 0. -1.
         23    2    1    2    0    0 -0.46716424017E+03  0.62016556397E+03 -0.93786149351E+03  0.12212645566E+04  0.95158720716E+02 0.  0.
        254    2    1    2    0    0  0.46716424017E+03 -0.62016556397E+03 -0.12889842517E+04  0.17539457193E+04  0.90110900078E+03 0.  0.
        -24    2    4    4    0    0 -0.19053195679E+03  0.66872869379E+02 -0.12949479167E+03  0.25213230212E+03  0.77636263984E+02 0.  0.
         24    2    4    4    0    0  0.65769619696E+03 -0.68703843335E+03 -0.11594894600E+04  0.15018134172E+04  0.80259802470E+02 0.  0.
         13    1    3    3    0    0 -0.21556245564E+03  0.27932952382E+03 -0.50049524384E+03  0.61236234720E+03  0.00000000000E+00 0. -1.
        -13    1    3    3    0    0 -0.25160178453E+03  0.34083604015E+03 -0.43736624967E+03  0.60890220938E+03  0.00000000000E+00 0.  1.
          4    1    6    6  502    0  0.42187105614E+03 -0.40853872469E+03 -0.66400571215E+03  0.88644382978E+03  0.00000000000E+00 0. -1.
          3    1    5    5  503    0 -0.16519617931E+03  0.41985466687E+02 -0.13334399947E+03  0.21640974855E+03  0.00000000000E+00 0. -1.
         -4    1    5    5    0  503 -0.25335777473E+02  0.24887402692E+02  0.38492077957E+01  0.35722553570E+02  0.00000000000E+00 0.  1.
         -3    1    6    6    0  502  0.23582514082E+03 -0.27849970866E+03 -0.49548374785E+03  0.61536958744E+03  0.00000000000E+00 0.  1.
<mgrwt>
<rscale>  0 0.19730773E+04</rscale>
<asrwt>0</asrwt>
<pdfrwt beam="1">  1        1 0.40015816E+00 0.19730773E+04</pdfrwt>
<pdfrwt beam="2">  1       -1 0.57566502E-01 0.19730773E+04</pdfrwt>
<totfact> 0.32760603E+00</totfact>
</mgrwt>
</event>
<event>
12    1  0.1843084E-007  0.2537386E+04  0.7818608E-02  0.8389786E-01
          1   -1    0    0  501    0  0.00000000000E+00  0.00000000000E+00  0.15751291457E+04  0.15751291457E+04  0.00000000000E+00 0. -1.
         -1   -1    0    0    0  501 -0.00000000000E+00 -0.00000000000E+00 -0.10218732125E+04  0.10218732125E+04  0.00000000000E+00 0.  1.
         23    2    1    2    0    0  0.43813117190E+02 -0.81252862466E+03  0.10064245192E+04  0.12974645071E+04  0.91659582952E+02 0.  0.
        254    2    1    2    0    0 -0.43813117190E+02  0.81252862466E+03 -0.45316858591E+03  0.12995378512E+04  0.90626403669E+03 0.  0.
        -24    2    4    4    0    0 -0.44492015260E+02  0.10011212361E+04 -0.42634454107E+03  0.10917691842E+04  0.77246457738E+02 0.  0.
         24    2    4    4    0    0  0.67889806961E+00 -0.18859261140E+03 -0.26824044833E+02  0.20776866691E+03  0.82949717251E+02 0.  0.
         11    1    3    3    0    0  0.68626734450E+02 -0.68253916206E+03  0.86054456147E+03  0.11005027391E+04  0.00000000000E+00 0. -1.
        -11    1    3    3    0    0 -0.24813617260E+02 -0.12998946260E+03  0.14587995772E+03  0.19696176800E+03  0.00000000000E+00 0.  1.
          4    1    6    6  502    0  0.26976966955E+02 -0.17334523154E+03 -0.26090129174E+02  0.17736127222E+03  0.00000000000E+00 0. -1.
          1    1    5    5  503    0 -0.52262666521E+02  0.91918545385E+03 -0.41010616553E+03  0.10078791356E+04  0.00000000000E+00 0. -1.
         -2    1    5    5    0  503  0.77706512615E+01  0.81935782217E+02 -0.16238375543E+02  0.83890048687E+02  0.00000000000E+00 0.  1.
         -3    1    6    6    0  502 -0.26298068885E+02 -0.15247379861E+02 -0.73391565841E+00  0.30407394691E+02  0.00000000000E+00 0.  1.
<mgrwt>
<rscale>  0 0.25373863E+04</rscale>
<asrwt>0</asrwt>
<pdfrwt beam="1">  1        1 0.24232756E+00 0.25373863E+04</pdfrwt>
<pdfrwt beam="2">  1       -1 0.15721126E+00 0.25373863E+04</pdfrwt>
<totfact> 0.15774620E+00</totfact>
</mgrwt>
</event>
<event>
12    1  0.1504874E-007  0.1721735E+04  0.7818608E-02  0.8749064E-01
         -1   -1    0    0    0  501 -0.00000000000E+00  0.00000000000E+00  0.11673164845E+04  0.11673164845E+04  0.00000000000E+00 0.  1.
          1   -1    0    0  501    0  0.00000000000E+00 -0.00000000000E+00 -0.63486855189E+03  0.63486855189E+03  0.00000000000E+00 0. -1.
         23    2    1    2    0    0  0.32201807402E+02  0.22684091894E+03 -0.41840620837E+03  0.48612802890E+03  0.93610610351E+02 0.  0.
        254    2    1    2    0    0 -0.32201807402E+02 -0.22684091894E+03  0.95085414096E+03  0.13160570075E+04  0.88056157685E+03 0.  0.
        -24    2    4    4    0    0 -0.25072876271E+03 -0.38169951367E+03  0.18237443804E+03  0.49833120083E+03  0.80710091606E+02 0.  0.
         24    2    4    4    0    0  0.21852695531E+03  0.15485859472E+03  0.76847970291E+03  0.81772580663E+03  0.79870060008E+02 0.  0.
         11    1    3    3    0    0  0.10255206406E+02  0.20183743897E+03 -0.39987987929E+03  0.44804847828E+03  0.00000000000E+00 0. -1.
        -11    1    3    3    0    0  0.21946600996E+02  0.25003479976E+02 -0.18526329083E+02  0.38079550621E+02  0.00000000000E+00 0.  1.
          4    1    6    6  502    0  0.52645849997E+01  0.33623138689E+02  0.10248143754E+03  0.10798461164E+03  0.00000000000E+00 0. -1.
          3    1    5    5  503    0 -0.30390698811E+02 -0.49403100652E+02 -0.41451675933E+01  0.58150179214E+02  0.00000000000E+00 0. -1.
         -4    1    5    5    0  503 -0.22033806390E+03 -0.33229641302E+03  0.18651960564E+03  0.44018102162E+03  0.00000000000E+00 0.  1.
         -3    1    6    6    0  502  0.21326237031E+03  0.12123545604E+03  0.66599826537E+03  0.70974119499E+03  0.00000000000E+00 0.  1.
<mgrwt>
<rscale>  0 0.17217346E+04</rscale>
<asrwt>0</asrwt>
<pdfrwt beam="1">  1        1 0.97672085E-01 0.17217346E+04</pdfrwt>
<pdfrwt beam="2">  1       -1 0.17958715E+00 0.17217346E+04</pdfrwt>
<totfact> 0.62761028E+00</totfact>
</mgrwt>
</event>
<event>
12    1  0.1504874E-007  0.2029662E+04  0.7818608E-02  0.8592877E-01
         -2   -1    0    0    0  501 -0.00000000000E+00  0.00000000000E+00  0.11915540973E+04  0.11915540973E+04  0.00000000000E+00 0.  1.
          2   -1    0    0  501    0  0.00000000000E+00 -0.00000000000E+00 -0.86431846756E+03  0.86431846756E+03  0.00000000000E+00 0. -1.
         23    2    1    2    0    0 -0.70386920257E+03  0.21839648720E+03  0.49563823078E+03  0.89269881986E+03  0.90139043840E+02 0.  0.
        254    2    1    2    0    0  0.70386920257E+03 -0.21839648720E+03 -0.16840260108E+03  0.11631737450E+04  0.88401631488E+03 0.  0.
        -24    2    4    4    0    0  0.18567767335E+03 -0.34967856278E+03 -0.40604884463E+03  0.57279183872E+03  0.80396085913E+02 0.  0.
         24    2    4    4    0    0  0.51819152922E+03  0.13128207558E+03  0.23764624355E+03  0.59038190624E+03  0.79483418564E+02 0.  0.
         11    1    3    3    0    0 -0.30186021738E+03  0.14015602833E+03  0.21486349441E+03  0.39614343910E+03  0.00000000000E+00 0. -1.
        -11    1    3    3    0    0 -0.40200898519E+03  0.78240458873E+02  0.28077473637E+03  0.49655538076E+03  0.00000000000E+00 0.  1.
          4    1    6    6  502    0 -0.79580634223E+00  0.49177520663E+01  0.69306100772E+01  0.85352767478E+01  0.00000000000E+00 0. -1.
          3    1    5    5  503    0  0.13404275132E+03 -0.16688298015E+03 -0.21541538195E+03  0.30367939513E+03  0.00000000000E+00 0. -1.
         -4    1    5    5    0  503  0.51634922031E+02 -0.18279558263E+03 -0.19063346269E+03  0.26911244360E+03  0.00000000000E+00 0.  1.
         -3    1    6    6    0  502  0.51898733556E+03  0.12636432351E+03  0.23071563347E+03  0.58184662949E+03  0.00000000000E+00 0.  1.
<mgrwt>
<rscale>  0 0.20296622E+04</rscale>
<asrwt>0</asrwt>
<pdfrwt beam="1">  1        2 0.13297207E+00 0.20296622E+04</pdfrwt>
<pdfrwt beam="2">  1       -2 0.18331602E+00 0.20296622E+04</pdfrwt>
<totfact> 0.49442283E+00</totfact>
</mgrwt>
</event>
<event>
12    1  0.1504874E-007  0.3471502E+04  0.7818608E-02  0.8120577E-01
          2   -1    0    0  501    0  0.00000000000E+00  0.00000000000E+00  0.20407271004E+04  0.20407271004E+04  0.00000000000E+00 0. -1.
         -2   -1    0    0    0  501 -0.00000000000E+00 -0.00000000000E+00 -0.14763516541E+04  0.14763516541E+04  0.00000000000E+00 0.  1.
         23    2    1    2    0    0 -0.70387335180E+03 -0.18665460780E+02 -0.12118711689E+04  0.14048266450E+04  0.95499098217E+02 0.  0.
        254    2    1    2    0    0  0.70387335180E+03  0.18665460780E+02  0.17762466152E+04  0.21122521094E+04  0.90042814300E+03 0.  0.
        -24    2    4    4    0    0  0.45473149546E+03  0.37060731151E+03  0.14468681663E+04  0.15632725412E+04  0.79139339312E+02 0.  0.
         24    2    4    4    0    0  0.24914185633E+03 -0.35194185073E+03  0.32937844889E+03  0.54897956818E+03  0.83388685175E+02 0.  0.
         13    1    3    3    0    0 -0.30668382117E+03  0.21303271754E+02 -0.60144508179E+03  0.67545908978E+03  0.00000000000E+00 0. -1.
        -13    1    3    3    0    0 -0.39718953063E+03 -0.39968732534E+02 -0.61042608712E+03  0.72936755526E+03  0.00000000000E+00 0.  1.
          2    1    6    6  502    0  0.74802116058E+02 -0.98907148055E+02  0.50093678300E+02  0.13374362455E+03  0.00000000000E+00 0. -1.
          3    1    5    5  503    0  0.11190652536E+03  0.91612379828E+02  0.45360848251E+03  0.47610561220E+03  0.00000000000E+00 0. -1.
         -4    1    5    5    0  503  0.34282497011E+03  0.27899493168E+03  0.99325968383E+03  0.10871669290E+04  0.00000000000E+00 0.  1.
         -1    1    6    6    0  502  0.17433974028E+03 -0.25303470267E+03  0.27928477059E+03  0.41523594363E+03  0.00000000000E+00 0.  1.
<mgrwt>
<rscale>  0 0.34715016E+04</rscale>
<asrwt>0</asrwt>
<pdfrwt beam="1">  1        2 0.31395801E+00 0.34715016E+04</pdfrwt>
<pdfrwt beam="2">  1       -2 0.22713102E+00 0.34715016E+04</pdfrwt>
<totfact> 0.46544591E-01</totfact>
</mgrwt>
</event>
<event>
12    1  0.1656119E-007  0.1512909E+04  0.7818608E-02  0.8875913E-01
          3   -1    0    0  501    0  0.00000000000E+00  0.00000000000E+00  0.60490756342E+03  0.60490756342E+03  0.00000000000E+00 0. -1.
         -3   -1    0    0    0  501 -0.00000000000E+00 -0.00000000000E+00 -0.94596886545E+03  0.94596886545E+03  0.00000000000E+00 0.  1.
         23    2    1    2    0    0 -0.27038672561E+03  0.12319990388E+03  0.28096446259E+03  0.41889857547E+03  0.90817341882E+02 0.  0.
        254    2    1    2    0    0  0.27038672561E+03 -0.12319990388E+03 -0.62202576461E+03  0.11319778534E+04  0.89787004129E+03 0.  0.
        -24    2    4    4    0    0  0.16858567857E+03 -0.27087691228E+03  0.13144087214E+03  0.35325628660E+03  0.75616588999E+02 0.  0.
         24    2    4    4    0    0  0.10180104705E+03  0.14767700840E+03 -0.75346663675E+03  0.77872156680E+03  0.80767282455E+02 0.  0.
         13    1    3    3    0    0 -0.64984920592E+02  0.47634717575E+02  0.30173415939E+02  0.86038022131E+02  0.00000000000E+00 0.  1.
        -13    1    3    3    0    0 -0.20540180502E+03  0.75565186303E+02  0.25079104665E+03  0.33286055334E+03  0.00000000000E+00 0. -1.
          2    1    6    6  502    0  0.96746349257E+02  0.14982729328E+03 -0.61999901931E+03  0.64514095968E+03  0.00000000000E+00 0. -1.
          1    1    5    5  503    0  0.14529463638E+03 -0.25968858284E+03  0.13572837450E+03  0.32706403511E+03  0.00000000000E+00 0. -1.
         -2    1    5    5    0  503  0.23291042182E+02 -0.11188329440E+02 -0.42875023636E+01  0.26192251490E+02  0.00000000000E+00 0.  1.
         -1    1    6    6    0  502  0.50546977903E+01 -0.21502848779E+01 -0.13346761744E+03  0.13358060712E+03  0.00000000000E+00 0.  1.
<mgrwt>
<rscale>  0 0.15129094E+04</rscale>
<asrwt>0</asrwt>
<pdfrwt beam="1">  1        3 0.93062702E-01 0.15129094E+04</pdfrwt>
<pdfrwt beam="2">  1       -3 0.14553367E+00 0.15129094E+04</pdfrwt>
<totfact> 0.91108263E-01</totfact>
</mgrwt>
</event>
<event>
12    1  0.1504874E-007  0.1758838E+04  0.7818608E-02  0.8728500E-01
          1   -1    0    0  501    0  0.00000000000E+00  0.00000000000E+00  0.10721412321E+04  0.10721412321E+04  0.00000000000E+00 0. -1.
         -1   -1    0    0    0  501 -0.00000000000E+00 -0.00000000000E+00 -0.72133982673E+03  0.72133982673E+03  0.00000000000E+00 0.  1.
         23    2    1    2    0    0  0.10420868406E+01  0.18163734887E+03 -0.53683470255E+03  0.57383127393E+03  0.89986780273E+02 0.  0.
        254    2    1    2    0    0 -0.10420868406E+01 -0.18163734887E+03  0.88763610789E+03  0.12196497849E+04  0.81648914582E+03 0.  0.
        -24    2    4    4    0    0 -0.33626328490E+03 -0.22843460914E+03  0.22503686903E+03  0.47147411314E+03  0.79942976630E+02 0.  0.
         24    2    4    4    0    0  0.33522119806E+03  0.46797260276E+02  0.66259923887E+03  0.74817567173E+03  0.78522921675E+02 0.  0.
         11    1    3    3    0    0 -0.44148113456E+01  0.18819368970E+03 -0.53129954265E+03  0.56366262908E+03  0.00000000000E+00 0.  1.
        -11    1    3    3    0    0  0.54568981861E+01 -0.65563408322E+01 -0.55351599085E+01  0.10168644852E+02  0.00000000000E+00 0. -1.
          4    1    6    6  502    0  0.21984733081E+03  0.11300107293E+02  0.35470164203E+03  0.41746113130E+03  0.00000000000E+00 0. -1.
          1    1    5    5  503    0 -0.13547570197E+03 -0.13971508967E+03  0.98922925036E+02  0.21831105608E+03  0.00000000000E+00 0. -1.
         -2    1    5    5    0  503 -0.20078758292E+03 -0.88719519471E+02  0.12611394399E+03  0.25316305706E+03  0.00000000000E+00 0.  1.
         -3    1    6    6    0  502  0.11537386724E+03  0.35497152983E+02  0.30789759684E+03  0.33071454043E+03  0.00000000000E+00 0.  1.
<mgrwt>
<rscale>  0 0.17588384E+04</rscale>
<asrwt>0</asrwt>
<pdfrwt beam="1">  1        1 0.16494481E+00 0.17588384E+04</pdfrwt>
<pdfrwt beam="2">  1       -1 0.11097536E+00 0.17588384E+04</pdfrwt>
<totfact> 0.94211347E+00</totfact>
</mgrwt>
</event>
<event>
12    1  0.1504874E-007  0.4727646E+04  0.7818608E-02  0.7871951E-01
         -2   -1    0    0    0  501 -0.00000000000E+00  0.00000000000E+00  0.12776175831E+04  0.12776175831E+04  0.00000000000E+00 0.  1.
          2   -1    0    0  501    0  0.00000000000E+00 -0.00000000000E+00 -0.43734983692E+04  0.43734983692E+04  0.00000000000E+00 0. -1.
         23    2    1    2    0    0  0.16671474524E+04 -0.15321865736E+04 -0.17947311007E+04  0.28907247921E+04  0.90850292258E+02 0.  0.
        254    2    1    2    0    0 -0.16671474524E+04  0.15321865736E+04 -0.13011496854E+04  0.27603911601E+04  0.89431120355E+03 0.  0.
        -24    2    4    4    0    0 -0.76684041994E+03  0.16262206639E+03 -0.33696990434E+03  0.85720052305E+03  0.82181835899E+02 0.  0.
         24    2    4    4    0    0 -0.90030703243E+03  0.13695645072E+04 -0.96417978103E+03  0.19031906371E+04  0.78944656425E+02 0.  0.
         11    1    3    3    0    0  0.15854300523E+04 -0.14462930841E+04 -0.17234836410E+04  0.27524076727E+04  0.00000000000E+00 0.  1.
        -11    1    3    3    0    0  0.81717400114E+02 -0.85893489501E+02 -0.71247459754E+02  0.13831711948E+03  0.00000000000E+00 0. -1.
          2    1    6    6  502    0 -0.25089083840E+03  0.38087447132E+03 -0.22775601880E+03  0.50978856382E+03  0.00000000000E+00 0. -1.
          3    1    5    5  503    0 -0.36971132473E+03  0.59946456931E+02 -0.20099046411E+03  0.42506141674E+03  0.00000000000E+00 0. -1.
         -4    1    5    5    0  503 -0.39712909521E+03  0.10267560946E+03 -0.13597944022E+03  0.43213910631E+03  0.00000000000E+00 0.  1.
         -1    1    6    6    0  502 -0.64941619403E+03  0.98869003591E+03 -0.73642376223E+03  0.13934020733E+04  0.00000000000E+00 0.  1.
<mgrwt>
<rscale>  0 0.47276457E+04</rscale>
<asrwt>0</asrwt>
<pdfrwt beam="1">  1        2 0.67284590E+00 0.47276457E+04</pdfrwt>
<pdfrwt beam="2">  1       -2 0.19655655E+00 0.47276457E+04</pdfrwt>
<totfact> 0.16808016E-02</totfact>
</mgrwt>
</event>
<event>
12    1  0.1504874E-007  0.1161547E+04  0.7818608E-02  0.9147197E-01
         -2   -1    0    0    0  501 -0.00000000000E+00  0.00000000000E+00  0.60396267535E+03  0.60396267535E+03  0.00000000000E+00 0.  1.
          2   -1    0    0  501    0  0.00000000000E+00 -0.00000000000E+00 -0.55847443286E+03  0.55847443286E+03  0.00000000000E+00 0. -1.
         23    2    1    2    0    0 -0.10263622704E+03 -0.14069474244E+03 -0.11627443988E+03  0.22499672095E+03  0.82307796834E+02 0.  0.
        254    2    1    2    0    0  0.10263622704E+03  0.14069474244E+03  0.16176268237E+03  0.93744038726E+03  0.90680654420E+03 0.  0.
        -24    2    4    4    0    0 -0.76254608786E+02  0.10830749797E+03  0.51195718029E+03  0.53500340624E+03  0.81136987657E+02 0.  0.
         24    2    4    4    0    0  0.17889083582E+03  0.32387244461E+02 -0.35019449791E+03  0.40243698101E+03  0.79173686103E+02 0.  0.
         11    1    3    3    0    0 -0.35651548964E+02 -0.40332207408E+01 -0.43234008048E+02  0.56182553030E+02  0.00000000000E+00 0.  1.
        -11    1    3    3    0    0 -0.66984678073E+02 -0.13666152169E+03 -0.73040431831E+02  0.16881416792E+03  0.00000000000E+00 0. -1.
          4    1    6    6  502    0  0.71820507775E+02  0.14813252657E+02 -0.67632268643E+02  0.99758415951E+02  0.00000000000E+00 0. -1.
          1    1    5    5  503    0  0.93279237017E+00 -0.62162298650E+01  0.10621200309E+03  0.10639784404E+03  0.00000000000E+00 0. -1.
         -2    1    5    5    0  503 -0.77187401156E+02  0.11452372784E+03  0.40574517719E+03  0.42860556220E+03  0.00000000000E+00 0.  1.
         -3    1    6    6    0  502  0.10707032805E+03  0.17573991804E+02 -0.28256222927E+03  0.30267856506E+03  0.00000000000E+00 0.  1.
<mgrwt>
<rscale>  0 0.11615467E+04</rscale>
<asrwt>0</asrwt>
<pdfrwt beam="1">  1        2 0.85919144E-01 0.11615467E+04</pdfrwt>
<pdfrwt beam="2">  1       -2 0.92917335E-01 0.11615467E+04</pdfrwt>
<totfact> 0.52503904E+01</totfact>
</mgrwt>
</event>
<event>
12    1  0.1504874E-007  0.1298461E+04  0.7818608E-02  0.9030787E-01
          2   -1    0    0  501    0  0.00000000000E+00  0.00000000000E+00  0.21874542316E+04  0.21874542316E+04  0.00000000000E+00 0.  1.
         -2   -1    0    0    0  501 -0.00000000000E+00 -0.00000000000E+00 -0.19268981079E+03  0.19268981079E+03  0.00000000000E+00 0. -1.
         23    2    1    2    0    0 -0.31850480339E+03 -0.66243055985E+02  0.64347956881E+03  0.72704624551E+03  0.93256824909E+02 0.  0.
        254    2    1    2    0    0  0.31850480339E+03  0.66243055985E+02  0.13512848520E+04  0.16530977969E+04  0.89494587688E+03 0.  0.
        -24    2    4    4    0    0 -0.16423073575E+03  0.19122601782E+03  0.66998017817E+02  0.27354697782E+03  0.82462659577E+02 0.  0.
         24    2    4    4    0    0  0.48273553914E+03 -0.12498296184E+03  0.12842868342E+04  0.13795508190E+04  0.71508379936E+02 0.  0.
         11    1    3    3    0    0 -0.22699821037E+03 -0.72121532669E+02  0.38429746053E+03  0.45212193174E+03  0.00000000000E+00 0. -1.
        -11    1    3    3    0    0 -0.91506593012E+02  0.58784766845E+01  0.25918210828E+03  0.27492431377E+03  0.00000000000E+00 0.  1.
          2    1    6    6  502    0  0.13127680704E+03 -0.16832422879E+02  0.27072621709E+03  0.30134633754E+03  0.00000000000E+00 0. -1.
          1    1    5    5  503    0 -0.54611360828E+00  0.24560598277E+01 -0.11406391328E+02  0.11680592154E+02  0.00000000000E+00 0. -1.
         -2    1    5    5    0  503 -0.16368462215E+03  0.18876995800E+03  0.78404409145E+02  0.26186638567E+03  0.00000000000E+00 0.  1.
         -1    1    6    6    0  502  0.35145873210E+03 -0.10815053896E+03  0.10135606171E+04  0.10782044815E+04  0.00000000000E+00 0.  1.
<mgrwt>
<rscale>  0 0.12984608E+04</rscale>
<asrwt>0</asrwt>
<pdfrwt beam="1">  1        2 0.33653140E+00 0.12984608E+04</pdfrwt>
<pdfrwt beam="2">  1       -2 0.29644588E-01 0.12984608E+04</pdfrwt>
<totfact> 0.54055085E+01</totfact>
</mgrwt>
</event>
<event>
12    1  0.1504874E-007  0.1706743E+04  0.7818608E-02  0.8757528E-01
         -2   -1    0    0    0  501 -0.00000000000E+00  0.00000000000E+00  0.70299324406E+03  0.70299324406E+03  0.00000000000E+00 0.  1.
          2   -1    0    0  501    0  0.00000000000E+00 -0.00000000000E+00 -0.10359170282E+04  0.10359170282E+04  0.00000000000E+00 0. -1.
         23    2    1    2    0    0  0.11158867582E+03  0.90132984378E+02  0.48746669007E+03  0.51665053027E+03  0.93423814189E+02 0.  0.
        254    2    1    2    0    0 -0.11158867582E+03 -0.90132984378E+02 -0.82039047425E+03  0.12222597420E+04  0.89459619903E+03 0.  0.
        -24    2    4    4    0    0 -0.49235141579E+03 -0.87446862506E+02 -0.55179529048E+03  0.74969895203E+03  0.86681057236E+02 0.  0.
         24    2    4    4    0    0  0.38076273997E+03 -0.26861218720E+01 -0.26859518377E+03  0.47256079001E+03  0.78631088667E+02 0.  0.
         13    1    3    3    0    0 -0.49014091917E+01  0.45252335903E+02  0.15386522007E+03  0.16045654759E+03  0.00000000000E+00 0. -1.
        -13    1    3    3    0    0  0.11649008501E+03  0.44880648475E+02  0.33360146999E+03  0.35619398268E+03  0.00000000000E+00 0.  1.
          2    1    6    6  502    0  0.25819772477E+03  0.35025588937E+02 -0.18144298061E+03  0.31751285355E+03  0.00000000000E+00 0. -1.
          1    1    5    5  503    0 -0.46831192200E+03 -0.62851542487E+02 -0.50450146326E+03  0.69122217782E+03  0.00000000000E+00 0. -1.
         -2    1    5    5    0  503 -0.24039493789E+02 -0.24595320019E+02 -0.47293827219E+02  0.58476774205E+02  0.00000000000E+00 0.  1.
         -1    1    6    6    0  502  0.12256501520E+03 -0.37711710809E+02 -0.87152203164E+02  0.15504793646E+03  0.00000000000E+00 0.  1.
<mgrwt>
<rscale>  0 0.17067427E+04</rscale>
<asrwt>0</asrwt>
<pdfrwt beam="1">  1        2 0.15937185E+00 0.17067427E+04</pdfrwt>
<pdfrwt beam="2">  1       -2 0.10815281E+00 0.17067427E+04</pdfrwt>
<totfact> 0.15556575E+01</totfact>
</mgrwt>
</event>
<event>
12    1  0.1504874E-007  0.1855173E+04  0.7818608E-02  0.8677497E-01
         -2   -1    0    0    0  501 -0.00000000000E+00  0.00000000000E+00  0.11465245260E+04  0.11465245260E+04  0.00000000000E+00 0.  1.
          2   -1    0    0  501    0  0.00000000000E+00 -0.00000000000E+00 -0.75045673791E+03  0.75045673791E+03  0.00000000000E+00 0. -1.
         23    2    1    2    0    0  0.57458683016E+03  0.50024312600E+02  0.57427628078E+03  0.81895281445E+03  0.90763474896E+02 0.  0.
        254    2    1    2    0    0 -0.57458683016E+03 -0.50024312600E+02 -0.17820849269E+03  0.10780284495E+04  0.89315990380E+03 0.  0.
        -24    2    4    4    0    0 -0.23694845039E+03 -0.31732694921E+03 -0.41698598625E+03  0.58067040057E+03  0.80373133130E+02 0.  0.
         24    2    4    4    0    0 -0.33763837977E+03  0.26730263661E+03  0.23877749356E+03  0.49735804890E+03  0.69999731025E+02 0.  0.
         13    1    3    3    0    0  0.17904921483E+03  0.54739122286E+02  0.16179685162E+03  0.24745345832E+03  0.00000000000E+00 0. -1.
        -13    1    3    3    0    0  0.39553761533E+03 -0.47148096861E+01  0.41247942916E+03  0.57149935613E+03  0.00000000000E+00 0.  1.
          4    1    6    6  502    0 -0.18868344953E+03  0.16029547885E+03  0.17497451999E+03  0.30317019529E+03  0.00000000000E+00 0. -1.
          3    1    5    5  503    0 -0.75653216023E+02 -0.48325382143E+02 -0.10721237386E+03  0.13983291731E+03  0.00000000000E+00 0. -1.
         -4    1    5    5    0  503 -0.16129523437E+03 -0.26900156707E+03 -0.30977361239E+03  0.44083748326E+03  0.00000000000E+00 0.  1.
         -3    1    6    6    0  502 -0.14895493024E+03  0.10700715776E+03  0.63802973577E+02  0.19418785361E+03  0.00000000000E+00 0.  1.
<mgrwt>
<rscale>  0 0.18551734E+04</rscale>
<asrwt>0</asrwt>
<pdfrwt beam="1">  1        2 0.11545488E+00 0.18551734E+04</pdfrwt>
<pdfrwt beam="2">  1       -2 0.17638839E+00 0.18551734E+04</pdfrwt>
<totfact> 0.67623088E+00</totfact>
</mgrwt>
</event>
<event>
12    1  0.1504874E-007  0.3341988E+04  0.7818608E-02  0.8152293E-01
         -1   -1    0    0    0  501 -0.00000000000E+00  0.00000000000E+00  0.79453469351E+03  0.79453469351E+03  0.00000000000E+00 0.  1.
          1   -1    0    0  501    0  0.00000000000E+00 -0.00000000000E+00 -0.35142850393E+04  0.35142850393E+04  0.00000000000E+00 0. -1.
         23    2    1    2    0    0  0.17109067729E+03  0.13402075680E+04 -0.22411139462E+04  0.26185371246E+04  0.93362777061E+02 0.  0.
        254    2    1    2    0    0 -0.17109067729E+03 -0.13402075680E+04 -0.47863639960E+03  0.16902826082E+04  0.89584270241E+03 0.  0.
        -24    2    4    4    0    0 -0.11502317323E+03  0.46418261063E+02  0.10619989696E+03  0.18221276393E+03  0.80858443504E+02 0.  0.
         24    2    4    4    0    0 -0.56067504065E+02 -0.13866258290E+04 -0.58483629656E+03  0.15080698443E+04  0.79789765490E+02 0.  0.
         11    1    3    3    0    0 -0.88274522667E+01  0.21039051611E+02 -0.33654605884E+02  0.40659538898E+02  0.00000000000E+00 0. -1.
        -11    1    3    3    0    0  0.17991812956E+03  0.13191685163E+04 -0.22074593403E+04  0.25778775857E+04  0.00000000000E+00 0.  1.
          2    1    6    6  502    0  0.51323224713E+01 -0.48670502210E+03 -0.17379870613E+03  0.51683083260E+03  0.00000000000E+00 0. -1.
          1    1    5    5  503    0 -0.10006654512E+03  0.65729062516E+02  0.70442555194E+02  0.13890923905E+03  0.00000000000E+00 0. -1.
         -2    1    5    5    0  503 -0.14956628109E+02 -0.19310801452E+02  0.35757341764E+02  0.43303524881E+02  0.00000000000E+00 0.  1.
         -1    1    6    6    0  502 -0.61199826537E+02 -0.89992080692E+03 -0.41103759043E+03  0.99123901166E+03  0.00000000000E+00 0.  1.
<mgrwt>
<rscale>  0 0.33419883E+04</rscale>
<asrwt>0</asrwt>
<pdfrwt beam="1">  1        1 0.54065924E+00 0.33419883E+04</pdfrwt>
<pdfrwt beam="2">  1       -1 0.12223611E+00 0.33419883E+04</pdfrwt>
<totfact> 0.11890422E-01</totfact>
</mgrwt>
</event>
<event>
12    1  0.1504874E-007  0.2122150E+04  0.7818608E-02  0.8551548E-01
         -1   -1    0    0    0  501 -0.00000000000E+00  0.00000000000E+00  0.11116755155E+04  0.11116755155E+04  0.00000000000E+00 0.  1.
          1   -1    0    0  501    0  0.00000000000E+00 -0.00000000000E+00 -0.10127777836E+04  0.10127777836E+04  0.00000000000E+00 0. -1.
         23    2    1    2    0    0  0.21037682637E+03  0.71992632357E+03 -0.38777591058E+03  0.84940007777E+03  0.92509539221E+02 0.  0.
        254    2    1    2    0    0 -0.21037682637E+03 -0.71992632357E+03  0.48667364240E+03  0.12750532213E+04  0.90904189267E+03 0.  0.
        -24    2    4    4    0    0  0.17119799362E+03  0.72499239137E+02  0.31564323556E+03  0.37555246436E+03  0.82729128074E+02 0.  0.
         24    2    4    4    0    0 -0.38157481998E+03 -0.79242556270E+03  0.17103040683E+03  0.89950075699E+03  0.79451847625E+02 0.  0.
         11    1    3    3    0    0  0.20233878161E+03  0.67478743131E+03 -0.38650620149E+03  0.80353351130E+03  0.00000000000E+00 0.  1.
        -11    1    3    3    0    0  0.80380447628E+01  0.45138892260E+02 -0.12697090838E+01  0.45866566464E+02  0.00000000000E+00 0. -1.
          2    1    6    6  502    0 -0.18011336527E+03 -0.31092751957E+03  0.98148210585E+02  0.37249136637E+03  0.00000000000E+00 0. -1.
          3    1    5    5  503    0  0.75270307582E+02  0.35525182902E+02  0.68210738883E+02  0.10761209376E+03  0.00000000000E+00 0. -1.
         -2    1    5    5    0  503  0.95927686034E+02  0.36974056235E+02  0.24743249668E+03  0.26794037060E+03  0.00000000000E+00 0.  1.
         -1    1    6    6    0  502 -0.20146145471E+03 -0.48149804313E+03  0.72882196249E+02  0.52700939062E+03  0.00000000000E+00 0.  1.
<mgrwt>
<rscale>  0 0.21221501E+04</rscale>
<asrwt>0</asrwt>
<pdfrwt beam="1">  1        1 0.15581197E+00 0.21221501E+04</pdfrwt>
<pdfrwt beam="2">  1       -1 0.17102700E+00 0.21221501E+04</pdfrwt>
<totfact> 0.32825105E+00</totfact>
</mgrwt>
</event>
<event>
12    1  0.1504874E-007  0.1906712E+04  0.7818608E-02  0.8651522E-01
          1   -1    0    0  501    0  0.00000000000E+00  0.00000000000E+00  0.16280432405E+04  0.16280432405E+04  0.00000000000E+00 0. -1.
         -1   -1    0    0    0  501 -0.00000000000E+00 -0.00000000000E+00 -0.55827018389E+03  0.55827018389E+03  0.00000000000E+00 0.  1.
         23    2    1    2    0    0 -0.59248685538E+03  0.43693195365E+03  0.49188610900E+03  0.89278580876E+03  0.11473600210E+03 0.  0.
        254    2    1    2    0    0  0.59248685538E+03 -0.43693195365E+03  0.57788694762E+03  0.12935276156E+04  0.89292225994E+03 0.  0.
        -24    2    4    4    0    0  0.27109021747E+03 -0.43871666432E+03 -0.10709916655E+03  0.53274617234E+03  0.79912671757E+02 0.  0.
         24    2    4    4    0    0  0.32139663791E+03  0.17847106717E+01  0.68498611417E+03  0.76078144330E+03  0.79268176555E+02 0.  0.
         11    1    3    3    0    0 -0.24947938087E+03  0.15209123603E+03  0.13587968824E+03  0.32223437935E+03  0.00000000000E+00 0. -1.
        -11    1    3    3    0    0 -0.34300747451E+03  0.28484071761E+03  0.35600642077E+03  0.57055142942E+03  0.00000000000E+00 0.  1.
          2    1    6    6  502    0  0.28843734597E+03 -0.13347286492E+02  0.55226076673E+03  0.62319034579E+03  0.00000000000E+00 0. -1.
          1    1    5    5  503    0  0.26093202188E+03 -0.38407208271E+03 -0.10969178993E+03  0.47710499215E+03  0.00000000000E+00 0. -1.
         -2    1    5    5    0  503  0.10158195596E+02 -0.54644581607E+02  0.25926233768E+01  0.55641180188E+02  0.00000000000E+00 0.  1.
         -1    1    6    6    0  502  0.32959291937E+02  0.15131997164E+02  0.13272534744E+03  0.13759109752E+03  0.00000000000E+00 0.  1.
<mgrwt>
<rscale>  0 0.19067124E+04</rscale>
<asrwt>0</asrwt>
<pdfrwt beam="1">  1        1 0.25046819E+00 0.19067124E+04</pdfrwt>
<pdfrwt beam="2">  1       -1 0.85887721E-01 0.19067124E+04</pdfrwt>
<totfact> 0.66806859E+00</totfact>
</mgrwt>
</event>
<event>
12    1  0.1504874E-007  0.1341449E+04  0.7818608E-02  0.8997326E-01
         -1   -1    0    0    0  501 -0.00000000000E+00  0.00000000000E+00  0.20192045981E+03  0.20192045981E+03  0.00000000000E+00 0.  1.
          1   -1    0    0  501    0  0.00000000000E+00 -0.00000000000E+00 -0.22279636042E+04  0.22279636042E+04  0.00000000000E+00 0. -1.
         23    2    1    2    0    0 -0.17123419905E+03 -0.37492664352E+02 -0.10418409352E+04  0.10605312777E+04  0.92559202331E+02 0.  0.
        254    2    1    2    0    0  0.17123419905E+03  0.37492664352E+02 -0.98420220925E+03  0.13693527864E+04  0.93581312985E+03 0.  0.
        -24    2    4    4    0    0  0.47904702866E+02  0.42542983877E+03 -0.81013632286E+03  0.91938346052E+03  0.75230828768E+02 0.  0.
         24    2    4    4    0    0  0.12332949619E+03 -0.38793717442E+03 -0.17406588639E+03  0.44996932583E+03  0.80424159657E+02 0.  0.
         13    1    3    3    0    0 -0.58677020981E+02 -0.54436563577E+02 -0.32507463426E+03  0.33478328824E+03  0.00000000000E+00 0.  1.
        -13    1    3    3    0    0 -0.11255717807E+03  0.16943899225E+02 -0.71676630090E+03  0.72574798943E+03  0.00000000000E+00 0. -1.
          4    1    6    6  502    0  0.96147236115E+02 -0.34527373798E+03 -0.12523812508E+03  0.37966147174E+03  0.00000000000E+00 0. -1.
          3    1    5    5  503    0 -0.69569113689E+01  0.13865842655E+03 -0.32093734428E+03  0.34967890532E+03  0.00000000000E+00 0. -1.
         -4    1    5    5    0  503  0.54861614235E+02  0.28677141222E+03 -0.48919897858E+03  0.56970455521E+03  0.00000000000E+00 0.  1.
         -3    1    6    6    0  502  0.27182260072E+02 -0.42663436435E+02 -0.48827761317E+02  0.70307854087E+02  0.00000000000E+00 0.  1.
<mgrwt>
<rscale>  0 0.13414491E+04</rscale>
<asrwt>0</asrwt>
<pdfrwt beam="1">  1        1 0.34276363E+00 0.13414491E+04</pdfrwt>
<pdfrwt beam="2">  1       -1 0.31064687E-01 0.13414491E+04</pdfrwt>
<totfact> 0.19639411E+01</totfact>
</mgrwt>
</event>
<event>
12    1  0.1504874E-007  0.1902929E+04  0.7818608E-02  0.8653400E-01
          1   -1    0    0  501    0  0.00000000000E+00  0.00000000000E+00  0.22229635430E+04  0.22229635430E+04  0.00000000000E+00 0. -1.
         -1   -1    0    0    0  501 -0.00000000000E+00 -0.00000000000E+00 -0.40724209694E+03  0.40724209694E+03  0.00000000000E+00 0.  1.
         23    2    1    2    0    0 -0.19818839686E+03  0.35992193448E+02 -0.26893251116E+03  0.34939136472E+03  0.95789099267E+02 0.  0.
        254    2    1    2    0    0  0.19818839686E+03 -0.35992193448E+02  0.20846539572E+04  0.22808142752E+04  0.90319297940E+03 0.  0.
        -24    2    4    4    0    0  0.53384954669E+03  0.27356010792E+02  0.15473906073E+04  0.16390651905E+04  0.79833059874E+02 0.  0.
         24    2    4    4    0    0 -0.33566114983E+03 -0.63348204240E+02  0.53726334991E+03  0.64174908467E+03  0.80675758607E+02 0.  0.
         11    1    3    3    0    0 -0.99865591957E+01  0.32915829892E+02 -0.34127158563E+02  0.48454578459E+02  0.00000000000E+00 0. -1.
        -11    1    3    3    0    0 -0.18820183766E+03  0.30763635560E+01 -0.23480535260E+03  0.30093678626E+03  0.00000000000E+00 0.  1.
          4    1    6    6  502    0 -0.24409729037E+03 -0.40369938538E+02  0.44825399346E+03  0.51200084156E+03  0.00000000000E+00 0. -1.
          1    1    5    5  503    0  0.51422568692E+03  0.10335728209E+02  0.14636838679E+04  0.15514204296E+04  0.00000000000E+00 0. -1.
         -2    1    5    5    0  503  0.19623859772E+02  0.17020282582E+02  0.83706739378E+02  0.87644760875E+02  0.00000000000E+00 0.  1.
         -3    1    6    6    0  502 -0.91563859461E+02 -0.22978265702E+02  0.89009356452E+02  0.12974824311E+03  0.00000000000E+00 0.  1.
<mgrwt>
<rscale>  0 0.19029286E+04</rscale>
<asrwt>0</asrwt>
<pdfrwt beam="1">  1        1 0.34199438E+00 0.19029286E+04</pdfrwt>
<pdfrwt beam="2">  1       -1 0.62652632E-01 0.19029286E+04</pdfrwt>
<totfact> 0.50799641E+00</totfact>
</mgrwt>
</event>
<event>
12    1  0.1504874E-007  0.2575255E+04  0.7818608E-02  0.8376655E-01
          2   -1    0    0  501    0  0.00000000000E+00  0.00000000000E+00  0.10312157158E+04  0.10312157158E+04  0.00000000000E+00 0. -1.
         -2   -1    0    0    0  501 -0.00000000000E+00 -0.00000000000E+00 -0.16077956959E+04  0.16077956959E+04  0.00000000000E+00 0.  1.
         23    2    1    2    0    0  0.80801191523E+03 -0.54359862226E+02 -0.10639946149E+04  0.13402653499E+04  0.91588305444E+02 0.  0.
        254    2    1    2    0    0 -0.80801191523E+03  0.54359862226E+02  0.48741463482E+03  0.12987460618E+04  0.89069077515E+03 0.  0.
        -24    2    4    4    0    0 -0.59221565642E+03 -0.17382453852E+03 -0.97624481425E+02  0.62986581569E+03  0.79158401346E+02 0.  0.
         24    2    4    4    0    0 -0.21579625882E+03  0.22818440075E+03  0.58503911624E+03  0.66888024607E+03  0.80584551801E+02 0.  0.
         13    1    3    3    0    0  0.12089702902E+03  0.19823132871E+02 -0.18941676493E+03  0.22558315331E+03  0.00000000000E+00 0. -1.
        -13    1    3    3    0    0  0.68711488621E+03 -0.74182995097E+02 -0.87457784998E+03  0.11146821965E+04  0.00000000000E+00 0.  1.
          2    1    6    6  502    0 -0.17195997587E+03  0.15836901211E+03  0.36027497643E+03  0.42947530306E+03  0.00000000000E+00 0. -1.
          3    1    5    5  503    0 -0.51960212338E+03 -0.17815771877E+03 -0.80856964069E+02  0.55521562300E+03  0.00000000000E+00 0. -1.
         -4    1    5    5    0  503 -0.72613533034E+02  0.43331802495E+01 -0.16767517356E+02  0.74650192693E+02  0.00000000000E+00 0.  1.
         -1    1    6    6    0  502 -0.43836282949E+02  0.69815388639E+02  0.22476413981E+03  0.23940494301E+03  0.00000000000E+00 0.  1.
<mgrwt>
<rscale>  0 0.25752547E+04</rscale>
<asrwt>0</asrwt>
<pdfrwt beam="1">  1        2 0.15864857E+00 0.25752547E+04</pdfrwt>
<pdfrwt beam="2">  1       -2 0.24735318E+00 0.25752547E+04</pdfrwt>
<totfact> 0.14225953E+00</totfact>
</mgrwt>
</event>
<event>
12    1  0.1504874E-007  0.1839387E+04  0.7818608E-02  0.8685630E-01
         -1   -1    0    0    0  501 -0.00000000000E+00  0.00000000000E+00  0.73716917416E+03  0.73716917416E+03  0.00000000000E+00 0.  1.
          1   -1    0    0  501    0  0.00000000000E+00 -0.00000000000E+00 -0.11474105420E+04  0.11474105420E+04  0.00000000000E+00 0. -1.
         23    2    1    2    0    0  0.50940273884E+03 -0.14117582107E+03 -0.46161568270E+03  0.70780321739E+03  0.92057553919E+02 0.  0.
        254    2    1    2    0    0 -0.50940273884E+03  0.14117582107E+03  0.51374314833E+02  0.11767764988E+04  0.10501151580E+04 0.  0.
        -24    2    4    4    0    0 -0.27433380309E+03  0.58047624028E+03 -0.91178387019E+02  0.65234381546E+03  0.70903132922E+02 0.  0.
         24    2    4    4    0    0 -0.23506893575E+03 -0.43930041921E+03  0.14255270185E+03  0.52443268334E+03  0.80412086600E+02 0.  0.
         11    1    3    3    0    0  0.38605826479E+03 -0.73490960039E+02 -0.37103745181E+03  0.54047265950E+03  0.00000000000E+00 0. -1.
        -11    1    3    3    0    0  0.12334447405E+03 -0.67684861031E+02 -0.90578230892E+02  0.16733055789E+03  0.00000000000E+00 0.  1.
          4    1    6    6  502    0 -0.19114785238E+03 -0.40578229078E+03  0.11698563703E+03  0.46355410498E+03  0.00000000000E+00 0. -1.
          1    1    5    5  503    0 -0.13485927374E+03  0.20487641086E+03 -0.35466865533E+02  0.24782910642E+03  0.00000000000E+00 0. -1.
         -2    1    5    5    0  503 -0.13947452935E+03  0.37559982942E+03 -0.55711521486E+02  0.40451470904E+03  0.00000000000E+00 0.  1.
         -3    1    6    6    0  502 -0.43921083374E+02 -0.33518128436E+02  0.25567064827E+02  0.60878578354E+02  0.00000000000E+00 0.  1.
<mgrwt>
<rscale>  0 0.18393865E+04</rscale>
<asrwt>0</asrwt>
<pdfrwt beam="1">  1        1 0.17652470E+00 0.18393865E+04</pdfrwt>
<pdfrwt beam="2">  1       -1 0.11341064E+00 0.18393865E+04</pdfrwt>
<totfact> 0.77991086E+00</totfact>
</mgrwt>
</event>
<event>
12    1  0.1504874E-007  0.1868118E+04  0.7818608E-02  0.8670891E-01
          2   -1    0    0  501    0  0.00000000000E+00  0.00000000000E+00  0.21608992221E+04  0.21608992221E+04  0.00000000000E+00 0. -1.
         -2   -1    0    0    0  501 -0.00000000000E+00 -0.00000000000E+00 -0.40375127118E+03  0.40375127118E+03  0.00000000000E+00 0.  1.
         23    2    1    2    0    0  0.23681006159E+03 -0.32373790340E+03  0.14876044120E+04  0.15438394872E+04  0.97919559135E+02 0.  0.
        254    2    1    2    0    0 -0.23681006159E+03  0.32373790340E+03  0.26954353890E+03  0.10208110061E+04  0.89917526406E+03 0.  0.
        -24    2    4    4    0    0  0.21303987775E+03 -0.11327122706E+03  0.29175293639E+03  0.38809464650E+03  0.85330641396E+02 0.  0.
         24    2    4    4    0    0 -0.44984993934E+03  0.43700913046E+03 -0.22209397493E+02  0.63271635963E+03  0.80590237446E+02 0.  0.
         11    1    3    3    0    0  0.50925762542E+01  0.53265371857E+01  0.64515386311E+02  0.64934901264E+02  0.00000000000E+00 0.  1.
        -11    1    3    3    0    0  0.23171748534E+03 -0.32906444058E+03  0.14230890257E+04  0.14789045859E+04  0.00000000000E+00 0. -1.
          4    1    6    6  502    0 -0.15768896166E+03  0.20847003688E+03 -0.78146495931E+01  0.26150838161E+03  0.00000000000E+00 0. -1.
          1    1    5    5  503    0  0.20641801378E+03 -0.11705719575E+03  0.24633454299E+03  0.34204018852E+03  0.00000000000E+00 0. -1.
         -2    1    5    5    0  503  0.66218639636E+01  0.37859686870E+01  0.45418393400E+02  0.46054457985E+02  0.00000000000E+00 0.  1.
         -3    1    6    6    0  502 -0.29216097768E+03  0.22853909359E+03 -0.14394747900E+02  0.37120797802E+03  0.00000000000E+00 0.  1.
<mgrwt>
<rscale>  0 0.18681176E+04</rscale>
<asrwt>0</asrwt>
<pdfrwt beam="1">  1        2 0.33244603E+00 0.18681176E+04</pdfrwt>
<pdfrwt beam="2">  1       -2 0.62115582E-01 0.18681176E+04</pdfrwt>
<totfact> 0.12273264E+01</totfact>
</mgrwt>
</event>
<event>
12    1  0.1504874E-007  0.1214764E+04  0.7818608E-02  0.9100031E-01
         -2   -1    0    0    0  501 -0.00000000000E+00  0.00000000000E+00  0.79371108724E+02  0.79371108724E+02  0.00000000000E+00 0.  1.
          2   -1    0    0  501    0  0.00000000000E+00 -0.00000000000E+00 -0.46479484494E+04  0.46479484494E+04  0.00000000000E+00 0. -1.
         23    2    1    2    0    0  0.11010277754E+03  0.23023429442E+03 -0.79784778877E+03  0.84265786924E+03  0.91546374004E+02 0.  0.
        254    2    1    2    0    0 -0.11010277754E+03 -0.23023429442E+03 -0.37707295519E+04  0.38846616889E+04  0.89836775963E+03 0.  0.
        -24    2    4    4    0    0  0.14716058466E+03 -0.29982157553E+02 -0.33114391633E+04  0.33158318053E+04  0.80969508285E+02 0.  0.
         24    2    4    4    0    0 -0.25726336220E+03 -0.20025213686E+03 -0.45929038856E+03  0.56882988355E+03  0.79589066774E+02 0.  0.
         11    1    3    3    0    0  0.32500304897E+01  0.71903768417E+01 -0.13408125380E+03  0.13431324149E+03  0.00000000000E+00 0. -1.
        -11    1    3    3    0    0  0.10685274705E+03  0.22304391758E+03 -0.66376653497E+03  0.70834462775E+03  0.00000000000E+00 0.  1.
          2    1    6    6  502    0 -0.22522433214E+03 -0.18008404365E+03 -0.44067858806E+03  0.52664397892E+03  0.00000000000E+00 0. -1.
          3    1    5    5  503    0  0.89819654489E+02  0.22615023972E+02 -0.17220257388E+04  0.17245149042E+04  0.00000000000E+00 0. -1.
         -4    1    5    5    0  503  0.57340930169E+02 -0.52597181525E+02 -0.15894134246E+04  0.15913169012E+04  0.00000000000E+00 0.  1.
         -1    1    6    6    0  502 -0.32039030064E+02 -0.20168093218E+02 -0.18611800499E+02  0.42185904628E+02  0.00000000000E+00 0.  1.
<mgrwt>
<rscale>  0 0.12147639E+04</rscale>
<asrwt>0</asrwt>
<pdfrwt beam="1">  1        2 0.71506936E+00 0.12147639E+04</pdfrwt>
<pdfrwt beam="2">  1       -2 0.12210933E-01 0.12147639E+04</pdfrwt>
<totfact> 0.45316091E+00</totfact>
</mgrwt>
</event>
<event>
12    1  0.1504874E-007  0.2071623E+04  0.7818608E-02  0.8573848E-01
          1   -1    0    0  501    0  0.00000000000E+00  0.00000000000E+00  0.17843710858E+04  0.17843710858E+04  0.00000000000E+00 0. -1.
         -1   -1    0    0    0  501 -0.00000000000E+00 -0.00000000000E+00 -0.60127943496E+03  0.60127943496E+03  0.00000000000E+00 0.  1.
         23    2    1    2    0    0  0.58904252316E+03 -0.58277998141E+03  0.34757440939E+03  0.90305932357E+03  0.90025390942E+02 0.  0.
        254    2    1    2    0    0 -0.58904252316E+03  0.58277998141E+03  0.83551724145E+03  0.14825911972E+04  0.90187803855E+03 0.  0.
        -24    2    4    4    0    0 -0.28880213945E+02  0.60578702167E+03  0.63647667793E+03  0.88281141288E+03  0.80258624332E+02 0.  0.
         24    2    4    4    0    0 -0.56016230921E+03 -0.23007040263E+02  0.19904056352E+03  0.59977978432E+03  0.76207002212E+02 0.  0.
         11    1    3    3    0    0  0.13464972119E+03 -0.89555549798E+02  0.86605677001E+02  0.18344287177E+03  0.00000000000E+00 0. -1.
        -11    1    3    3    0    0  0.45439280197E+03 -0.49322443161E+03  0.26096873239E+03  0.71961645180E+03  0.00000000000E+00 0.  1.
          2    1    6    6  502    0 -0.20760383267E+03 -0.33563716141E+02  0.10329897891E+03  0.23430013535E+03  0.00000000000E+00 0. -1.
          3    1    5    5  503    0  0.15675464453E+02  0.38598161697E+03  0.42886176158E+03  0.57719142351E+03  0.00000000000E+00 0. -1.
         -4    1    5    5    0  503 -0.44555678398E+02  0.21980540470E+03  0.20761491635E+03  0.30561998937E+03  0.00000000000E+00 0.  1.
         -1    1    6    6    0  502 -0.35255847654E+03  0.10556675877E+02  0.95741584615E+02  0.36547964897E+03  0.00000000000E+00 0.  1.
<mgrwt>
<rscale>  0 0.20716232E+04</rscale>
<asrwt>0</asrwt>
<pdfrwt beam="1">  1        1 0.27451863E+00 0.20716232E+04</pdfrwt>
<pdfrwt beam="2">  1       -1 0.92504529E-01 0.20716232E+04</pdfrwt>
<totfact> 0.43740853E+00</totfact>
</mgrwt>
</event>
<event>
12    1  0.1504874E-007  0.1506339E+04  0.7818608E-02  0.8880249E-01
         -2   -1    0    0    0  501 -0.00000000000E+00  0.00000000000E+00  0.34900862195E+03  0.34900862195E+03  0.00000000000E+00 0.  1.
          2   -1    0    0  501    0  0.00000000000E+00 -0.00000000000E+00 -0.16253579489E+04  0.16253579489E+04  0.00000000000E+00 0. -1.
         23    2    1    2    0    0 -0.79976549478E+02  0.36629955935E+03 -0.80625772383E+03  0.89430002156E+03  0.95652473431E+02 0.  0.
        254    2    1    2    0    0  0.79976549478E+02 -0.36629955935E+03 -0.47009160317E+03  0.10800665493E+04  0.89721013145E+03 0.  0.
        -24    2    4    4    0    0  0.43416815587E+03 -0.31542631840E+03 -0.46349392280E+03  0.71358661706E+03  0.79896768798E+02 0.  0.
         24    2    4    4    0    0 -0.35419160639E+03 -0.50873240951E+02 -0.65976803727E+01  0.36647993228E+03  0.78893793739E+02 0.  0.
         11    1    3    3    0    0 -0.82387192580E+02  0.34960730910E+03 -0.70062976942E+03  0.78733410562E+03  0.00000000000E+00 0. -1.
        -11    1    3    3    0    0  0.24106431025E+01  0.16692250246E+02 -0.10562795441E+03  0.10696591594E+03  0.00000000000E+00 0.  1.
          2    1    6    6  502    0 -0.25283651825E+02 -0.64714883284E+01 -0.22140191186E+02  0.34224717334E+02  0.00000000000E+00 0. -1.
          1    1    5    5  503    0  0.29267188273E+02 -0.75422989837E+01 -0.48346725487E+02  0.57016317390E+02  0.00000000000E+00 0. -1.
         -2    1    5    5    0  503  0.40490096760E+03 -0.30788401942E+03 -0.41514719731E+03  0.65657029967E+03  0.00000000000E+00 0.  1.
         -1    1    6    6    0  502 -0.32890795457E+03 -0.44401752623E+02  0.15542510814E+02  0.33225521494E+03  0.00000000000E+00 0.  1.
<mgrwt>
<rscale>  0 0.15063385E+04</rscale>
<asrwt>0</asrwt>
<pdfrwt beam="1">  1        2 0.25005507E+00 0.15063385E+04</pdfrwt>
<pdfrwt beam="2">  1       -2 0.53693634E-01 0.15063385E+04</pdfrwt>
<totfact> 0.34060445E+01</totfact>
</mgrwt>
</event>
<event>
12    1  0.1504874E-007  0.1112866E+04  0.7818608E-02  0.9192741E-01
         -1   -1    0    0    0  501 -0.00000000000E+00  0.00000000000E+00  0.42381036924E+03  0.42381036924E+03  0.00000000000E+00 0.  1.
          1   -1    0    0  501    0  0.00000000000E+00 -0.00000000000E+00 -0.73055776819E+03  0.73055776819E+03  0.00000000000E+00 0. -1.
         23    2    1    2    0    0  0.14246995180E+03  0.89454977848E+02 -0.12444097092E+03  0.22804321003E+03  0.90654675381E+02 0.  0.
        254    2    1    2    0    0 -0.14246995180E+03 -0.89454977848E+02 -0.18230642802E+03  0.92632492741E+03  0.89249221689E+03 0.  0.
        -24    2    4    4    0    0  0.35194501713E+03 -0.15485896466E+03 -0.15176599976E+02  0.39444237578E+03  0.86647934791E+02 0.  0.
         24    2    4    4    0    0 -0.49441496893E+03  0.65403986807E+02 -0.16712982805E+03  0.53188255163E+03  0.79011558065E+02 0.  0.
         11    1    3    3    0    0  0.11275232656E+03  0.60251614126E+02 -0.13410005230E+03  0.18527322574E+03  0.00000000000E+00 0. -1.
        -11    1    3    3    0    0  0.29717625241E+02  0.29203363722E+02  0.96590813825E+01  0.42769984286E+02  0.00000000000E+00 0.  1.
          4    1    6    6  502    0 -0.39708985265E+03  0.40830156361E+02 -0.10127957438E+03  0.41183128212E+03  0.00000000000E+00 0. -1.
          1    1    5    5  503    0  0.24749430431E+03 -0.98209020992E+02 -0.49349021247E+02  0.27080208339E+03  0.00000000000E+00 0. -1.
         -4    1    5    5    0  503  0.10445071282E+03 -0.56649943664E+02  0.34172421271E+02  0.12364029239E+03  0.00000000000E+00 0.  1.
         -3    1    6    6    0  502 -0.97325116287E+02  0.24573830446E+02 -0.65850253671E+02  0.12005126951E+03  0.00000000000E+00 0.  1.
<mgrwt>
<rscale>  0 0.11128665E+04</rscale>
<asrwt>0</asrwt>
<pdfrwt beam="1">  1        1 0.11239350E+00 0.11128665E+04</pdfrwt>
<pdfrwt beam="2">  1       -1 0.65201596E-01 0.11128665E+04</pdfrwt>
<totfact> 0.60594230E+01</totfact>
</mgrwt>
</event>
<event>
12    1  0.1504874E-007  0.1945090E+04  0.7818608E-02  0.8632732E-01
         -1   -1    0    0    0  501 -0.00000000000E+00  0.00000000000E+00  0.74875806219E+03  0.74875806219E+03  0.00000000000E+00 0.  1.
          1   -1    0    0  501    0  0.00000000000E+00 -0.00000000000E+00 -0.12632171802E+04  0.12632171802E+04  0.00000000000E+00 0. -1.
         23    2    1    2    0    0 -0.32958004818E+03  0.52508172400E+03  0.25968469321E+03  0.67884045815E+03  0.95154625204E+02 0.  0.
        254    2    1    2    0    0  0.32958004818E+03 -0.52508172400E+03 -0.77414381123E+03  0.13331347842E+04  0.89085121512E+03 0.  0.
        -24    2    4    4    0    0 -0.10804289276E+03 -0.55269538606E+03 -0.19248232721E+03  0.60039166788E+03  0.79216488910E+02 0.  0.
         24    2    4    4    0    0  0.43762294094E+03  0.27613662064E+02 -0.58166148401E+03  0.73274311637E+03  0.79410577585E+02 0.  0.
         13    1    3    3    0    0 -0.21630339047E+03  0.33312725957E+03  0.11649495959E+03  0.41392270221E+03  0.00000000000E+00 0. -1.
        -13    1    3    3    0    0 -0.11327665771E+03  0.19195446443E+03  0.14318973362E+03  0.26491775594E+03  0.00000000000E+00 0.  1.
          2    1    6    6  502    0  0.86334715536E+02  0.28757748304E+02 -0.85900706485E+02  0.12513841364E+03  0.00000000000E+00 0. -1.
          3    1    5    5  503    0 -0.45513180146E+02 -0.16305470913E+03 -0.94115369399E+02  0.19369045018E+03  0.00000000000E+00 0. -1.
         -4    1    5    5    0  503 -0.62529712613E+02 -0.38964067694E+03 -0.98366957813E+02  0.40670121769E+03  0.00000000000E+00 0.  1.
         -1    1    6    6    0  502  0.35128822540E+03 -0.11440862399E+01 -0.49576077753E+03  0.60760470273E+03  0.00000000000E+00 0.  1.
<mgrwt>
<rscale>  0 0.19450903E+04</rscale>
<asrwt>0</asrwt>
<pdfrwt beam="1">  1        1 0.19434110E+00 0.19450903E+04</pdfrwt>
<pdfrwt beam="2">  1       -1 0.11519355E+00 0.19450903E+04</pdfrwt>
<totfact> 0.61256180E+00</totfact>
</mgrwt>
</event>
<event>
12    1  0.1504874E-007  0.1987773E+04  0.7818608E-02  0.8612359E-01
          2   -1    0    0  501    0  0.00000000000E+00  0.00000000000E+00  0.12046195791E+04  0.12046195791E+04  0.00000000000E+00 0. -1.
         -2   -1    0    0    0  501 -0.00000000000E+00 -0.00000000000E+00 -0.82001815140E+03  0.82001815140E+03  0.00000000000E+00 0.  1.
         23    2    1    2    0    0  0.12820050914E+03 -0.74285060219E+03 -0.76384933472E+02  0.76326655385E+03  0.92080325978E+02 0.  0.
        254    2    1    2    0    0 -0.12820050914E+03  0.74285060219E+03  0.46098636121E+03  0.12613711767E+04  0.90015911507E+03 0.  0.
        -24    2    4    4    0    0 -0.41288451140E+03  0.48341751614E+03  0.56565052158E+03  0.85457600712E+03  0.78571780740E+02 0.  0.
         24    2    4    4    0    0  0.28468400225E+03  0.25943308605E+03 -0.10466416036E+03  0.40679516957E+03  0.78595268564E+02 0.  0.
         11    1    3    3    0    0  0.30281895313E+02 -0.10718764445E+03  0.19251279589E+02  0.11303449063E+03  0.00000000000E+00 0. -1.
        -11    1    3    3    0    0  0.97918613831E+02 -0.63566295775E+03 -0.95636213061E+02  0.65023206322E+03  0.00000000000E+00 0.  1.
          2    1    6    6  502    0  0.14860463385E+03  0.83910537379E+02 -0.37012078922E+02  0.17462591294E+03  0.00000000000E+00 0. -1.
          1    1    5    5  503    0 -0.34290064895E+03  0.35685867555E+03  0.41670459079E+03  0.64697116269E+03  0.00000000000E+00 0. -1.
         -2    1    5    5    0  503 -0.69983862442E+02  0.12655884059E+03  0.14894593079E+03  0.20760484443E+03  0.00000000000E+00 0.  1.
         -1    1    6    6    0  502  0.13607936840E+03  0.17552254868E+03 -0.67652081443E+02  0.23216925662E+03  0.00000000000E+00 0.  1.
<mgrwt>
<rscale>  0 0.19877725E+04</rscale>
<asrwt>0</asrwt>
<pdfrwt beam="1">  1        2 0.18532609E+00 0.19877725E+04</pdfrwt>
<pdfrwt beam="2">  1       -2 0.12615664E+00 0.19877725E+04</pdfrwt>
<totfact> 0.82013687E+00</totfact>
</mgrwt>
</event>
<event>
12    1  0.1504874E-007  0.2430189E+04  0.7818608E-02  0.8428287E-01
          1   -1    0    0  501    0  0.00000000000E+00  0.00000000000E+00  0.29514413020E+04  0.29514413020E+04  0.00000000000E+00 0. -1.
         -1   -1    0    0    0  501 -0.00000000000E+00 -0.00000000000E+00 -0.50024856656E+03  0.50024856656E+03  0.00000000000E+00 0.  1.
         23    2    1    2    0    0 -0.91279977530E+03  0.37021373648E+02  0.17273167377E+04  0.19562986828E+04  0.94379086339E+02 0.  0.
        254    2    1    2    0    0  0.91279977530E+03 -0.37021373648E+02  0.72387599773E+03  0.14953911858E+04  0.93681605801E+03 0.  0.
        -24    2    4    4    0    0 -0.55780815148E+02  0.27292895939E+03  0.15223423853E+03  0.32622995154E+03  0.75159840921E+02 0.  0.
         24    2    4    4    0    0  0.96858059045E+03 -0.30995033304E+03  0.57164175920E+03  0.11691612343E+04  0.77111099500E+02 0.  0.
         11    1    3    3    0    0 -0.37650218778E+03  0.24042276467E+02  0.81194679289E+03  0.89531532041E+03  0.00000000000E+00 0.  1.
        -11    1    3    3    0    0 -0.53629758752E+03  0.12979097181E+02  0.91536994484E+03  0.10609833624E+04  0.00000000000E+00 0. -1.
          4    1    6    6  502    0  0.49748226685E+03 -0.19937835758E+03  0.30527650220E+03  0.61679338363E+03  0.00000000000E+00 0. -1.
          1    1    5    5  503    0  0.81131422151E+01  0.14779835282E+03  0.79566635563E+02  0.16805066399E+03  0.00000000000E+00 0. -1.
         -2    1    5    5    0  503 -0.63893957363E+02  0.12513060657E+03  0.72667602968E+02  0.15817928755E+03  0.00000000000E+00 0.  1.
         -3    1    6    6    0  502  0.47109832361E+03 -0.11057197546E+03  0.26636525700E+03  0.55236785062E+03  0.00000000000E+00 0.  1.
<mgrwt>
<rscale>  0 0.24301887E+04</rscale>
<asrwt>0</asrwt>
<pdfrwt beam="1">  1        1 0.45406788E+00 0.24301887E+04</pdfrwt>
<pdfrwt beam="2">  1       -1 0.76961320E-01 0.24301887E+04</pdfrwt>
<totfact> 0.98157017E-01</totfact>
</mgrwt>
</event>
<event>
12    1  0.1504874E-007  0.1598430E+04  0.7818608E-02  0.8821513E-01
         -2   -1    0    0    0  501 -0.00000000000E+00  0.00000000000E+00  0.36396623292E+03  0.36396623292E+03  0.00000000000E+00 0.  1.
          2   -1    0    0  501    0  0.00000000000E+00 -0.00000000000E+00 -0.17549561358E+04  0.17549561358E+04  0.00000000000E+00 0. -1.
         23    2    1    2    0    0 -0.77725162526E+02 -0.51587801162E+03 -0.31449697862E+03  0.61600826590E+03  0.91577892166E+02 0.  0.
        254    2    1    2    0    0  0.77725162526E+02  0.51587801162E+03 -0.10764929242E+04  0.15029141028E+04  0.90980352861E+03 0.  0.
        -24    2    4    4    0    0  0.28255415845E+03  0.27498905396E+03 -0.25957838727E+02  0.40280668932E+03  0.78253353367E+02 0.  0.
         24    2    4    4    0    0 -0.20482899593E+03  0.24088895766E+03 -0.10505350855E+04  0.11001074135E+04  0.81424491257E+02 0.  0.
         13    1    3    3    0    0 -0.73343109201E+02 -0.43211368646E+03 -0.22258113624E+03  0.49157279411E+03  0.00000000000E+00 0.  1.
        -13    1    3    3    0    0 -0.43820533246E+01 -0.83764325158E+02 -0.91915842376E+02  0.12443547179E+03  0.00000000000E+00 0. -1.
          2    1    6    6  502    0 -0.20683003401E+03  0.21273662559E+03 -0.92428511321E+03  0.97074121440E+03  0.00000000000E+00 0. -1.
          1    1    5    5  503    0  0.24161444735E+03  0.19974387617E+03 -0.39901072856E+02  0.31601780464E+03  0.00000000000E+00 0. -1.
         -2    1    5    5    0  503  0.40939711107E+02  0.75245177795E+02  0.13943234129E+02  0.86788884685E+02  0.00000000000E+00 0.  1.
         -1    1    6    6    0  502  0.20010380789E+01  0.28152332065E+02 -0.12624997231E+03  0.12936619907E+03  0.00000000000E+00 0.  1.
<mgrwt>
<rscale>  0 0.15984302E+04</rscale>
<asrwt>0</asrwt>
<pdfrwt beam="1">  1        2 0.26999325E+00 0.15984302E+04</pdfrwt>
<pdfrwt beam="2">  1       -2 0.55994805E-01 0.15984302E+04</pdfrwt>
<totfact> 0.26251307E+01</totfact>
</mgrwt>
</event>
<event>
12    1  0.1504874E-007  0.1113263E+04  0.7818608E-02  0.9192361E-01
         -2   -1    0    0    0  501 -0.00000000000E+00  0.00000000000E+00  0.30335048834E+03  0.30335048834E+03  0.00000000000E+00 0.  1.
          2   -1    0    0  501    0  0.00000000000E+00 -0.00000000000E+00 -0.10213876660E+04  0.10213876660E+04  0.00000000000E+00 0. -1.
         23    2    1    2    0    0  0.82056235174E+02 -0.17305085122E+02 -0.28198240101E+03  0.30814269156E+03  0.91679617046E+02 0.  0.
        254    2    1    2    0    0 -0.82056235174E+02  0.17305085122E+02 -0.43605477668E+03  0.10165954628E+04  0.91448885998E+03 0.  0.
        -24    2    4    4    0    0  0.14875983063E+03  0.32289383274E+03 -0.50056262962E+03  0.61908702366E+03  0.79472525211E+02 0.  0.
         24    2    4    4    0    0 -0.23081606580E+03 -0.30558874761E+03  0.64507852933E+02  0.39750843915E+03  0.84800691055E+02 0.  0.
         13    1    3    3    0    0  0.96120818304E+02 -0.21079693666E+02 -0.27483495776E+03  0.29192091258E+03  0.00000000000E+00 0. -1.
        -13    1    3    3    0    0 -0.14064583130E+02  0.37746085439E+01 -0.71474432531E+01  0.16221778982E+02  0.00000000000E+00 0.  1.
          4    1    6    6  502    0 -0.65005011896E+02 -0.13330809525E+03 -0.53267110932E+01  0.14840846904E+03  0.00000000000E+00 0. -1.
          1    1    5    5  503    0  0.13021652870E+03  0.29996090218E+03 -0.48705812227E+03  0.58665023792E+03  0.00000000000E+00 0. -1.
         -2    1    5    5    0  503  0.18543301928E+02  0.22932930555E+02 -0.13504507350E+02  0.32436785738E+02  0.00000000000E+00 0.  1.
         -3    1    6    6    0  502 -0.16581105391E+03 -0.17228065236E+03  0.69834564026E+02  0.24909997011E+03  0.00000000000E+00 0.  1.
<mgrwt>
<rscale>  0 0.11132627E+04</rscale>
<asrwt>0</asrwt>
<pdfrwt beam="1">  1        2 0.15713656E+00 0.11132627E+04</pdfrwt>
<pdfrwt beam="2">  1       -2 0.46669306E-01 0.11132627E+04</pdfrwt>
<totfact> 0.10535074E+02</totfact>
</mgrwt>
</event>
<event>
12    1  0.1504874E-007  0.1358376E+04  0.7818608E-02  0.8984512E-01
         -1   -1    0    0    0  501 -0.00000000000E+00  0.00000000000E+00  0.68087934137E+03  0.68087934137E+03  0.00000000000E+00 0.  1.
          1   -1    0    0  501    0  0.00000000000E+00 -0.00000000000E+00 -0.67750103083E+03  0.67750103083E+03  0.00000000000E+00 0. -1.
         23    2    1    2    0    0  0.10245498496E+03  0.13708500587E+02  0.36002727468E+03  0.38554098009E+03  0.91308607927E+02 0.  0.
        254    2    1    2    0    0 -0.10245498496E+03 -0.13708500587E+02 -0.35664896414E+03  0.97283939211E+03  0.89918465973E+03 0.  0.
        -24    2    4    4    0    0  0.21460114685E+03  0.33529526647E+03 -0.26764697020E+03  0.48638384345E+03  0.80360279822E+02 0.  0.
         24    2    4    4    0    0 -0.31705613181E+03 -0.34900376705E+03 -0.89001993941E+02  0.48645554866E+03  0.79933883700E+02 0.  0.
         13    1    3    3    0    0  0.45131601832E+02 -0.12899618427E+01  0.40775920875E+02  0.60837498377E+02  0.00000000000E+00 0. -1.
        -13    1    3    3    0    0  0.57323383124E+02  0.14998462430E+02  0.31925135381E+03  0.32470348171E+03  0.00000000000E+00 0.  1.
          4    1    6    6  502    0 -0.25367717716E+03 -0.31229110945E+03 -0.93540004423E+02  0.41307091363E+03  0.00000000000E+00 0. -1.
          1    1    5    5  503    0  0.11927101661E+03  0.24355812102E+03 -0.15334778717E+03  0.31154723165E+03  0.00000000000E+00 0. -1.
         -2    1    5    5    0  503  0.95330130245E+02  0.91737145442E+02 -0.11429918303E+03  0.17483661180E+03  0.00000000000E+00 0.  1.
         -3    1    6    6    0  502 -0.63378954645E+02 -0.36712657599E+02  0.45380104824E+01  0.73384635033E+02  0.00000000000E+00 0.  1.
<mgrwt>
<rscale>  0 0.13583762E+04</rscale>
<asrwt>0</asrwt>
<pdfrwt beam="1">  1        1 0.10423093E+00 0.13583762E+04</pdfrwt>
<pdfrwt beam="2">  1       -1 0.10475067E+00 0.13583762E+04</pdfrwt>
<totfact> 0.23983649E+01</totfact>
</mgrwt>
</event>
<event>
12    1  0.1504874E-007  0.1149894E+04  0.7818608E-02  0.9157882E-01
          1   -1    0    0  501    0  0.00000000000E+00  0.00000000000E+00  0.13473948826E+04  0.13473948826E+04  0.00000000000E+00 0. -1.
         -1   -1    0    0    0  501 -0.00000000000E+00 -0.00000000000E+00 -0.24533550784E+03  0.24533550784E+03  0.00000000000E+00 0.  1.
         23    2    1    2    0    0  0.61436698314E+02 -0.26037924915E+02  0.52733651784E+03  0.53913556190E+03  0.90171556599E+02 0.  0.
        254    2    1    2    0    0 -0.61436698314E+02  0.26037924915E+02  0.57472285697E+03  0.10535948286E+04  0.88051306581E+03 0.  0.
        -24    2    4    4    0    0 -0.17426869325E+03 -0.31833959354E+03  0.57227866012E+03  0.68254694680E+03  0.81595315396E+02 0.  0.
         24    2    4    4    0    0  0.11283199494E+03  0.34437751846E+03  0.24441968489E+01  0.37104788179E+03  0.79646859191E+02 0.  0.
         11    1    3    3    0    0  0.75594179960E+02 -0.44660757149E+02  0.38461032015E+03  0.39450495768E+03  0.00000000000E+00 0. -1.
        -11    1    3    3    0    0 -0.14157481647E+02  0.18622832235E+02  0.14272619769E+03  0.14463060421E+03  0.00000000000E+00 0.  1.
          4    1    6    6  502    0  0.12006847552E+03  0.33854520212E+03 -0.48403798714E+01  0.35923908748E+03  0.00000000000E+00 0. -1.
          3    1    5    5  503    0 -0.12337143771E+03 -0.25597142586E+03  0.49610992981E+03  0.57172278681E+03  0.00000000000E+00 0. -1.
         -4    1    5    5    0  503 -0.50897255537E+02 -0.62368167679E+02  0.76168730315E+02  0.11082416000E+03  0.00000000000E+00 0.  1.
         -3    1    6    6    0  502 -0.72364805816E+01  0.58323163344E+01  0.72845767203E+01  0.11808794309E+02  0.00000000000E+00 0.  1.
<mgrwt>
<rscale>  0 0.11498936E+04</rscale>
<asrwt>0</asrwt>
<pdfrwt beam="1">  1        1 0.20729152E+00 0.11498936E+04</pdfrwt>
<pdfrwt beam="2">  1       -1 0.37743925E-01 0.11498936E+04</pdfrwt>
<totfact> 0.56253629E+01</totfact>
</mgrwt>
</event>
<event>
12    1  0.1504874E-007  0.2038735E+04  0.7818608E-02  0.8588722E-01
          1   -1    0    0  501    0  0.00000000000E+00  0.00000000000E+00  0.29122863376E+04  0.29122863376E+04  0.00000000000E+00 0. -1.
         -1   -1    0    0    0  501 -0.00000000000E+00 -0.00000000000E+00 -0.35680224479E+03  0.35680224479E+03  0.00000000000E+00 0.  1.
         23    2    1    2    0    0  0.24615903834E+03 -0.65846806373E+03  0.16839170242E+04  0.18270996438E+04  0.92423485503E+02 0.  0.
        254    2    1    2    0    0 -0.24615903834E+03  0.65846806373E+03  0.87156706855E+03  0.14419889386E+04  0.90858597884E+03 0.  0.
        -24    2    4    4    0    0  0.28339094368E+03  0.55291361433E+02  0.74640042101E+02  0.30806406950E+03  0.77231945603E+02 0.  0.
         24    2    4    4    0    0 -0.52954998202E+03  0.60317670230E+03  0.79692702645E+03  0.11339248691E+04  0.80296983901E+02 0.  0.
         11    1    3    3    0    0  0.29939324415E+02 -0.33031122716E+02  0.15096418307E+03  0.15740903019E+03  0.00000000000E+00 0.  1.
        -11    1    3    3    0    0  0.21621971392E+03 -0.62543694101E+03  0.15329528411E+04  0.16696906136E+04  0.00000000000E+00 0. -1.
          2    1    6    6  502    0 -0.43621634133E+03  0.44773107087E+03  0.62925429733E+03  0.88696605288E+03  0.00000000000E+00 0. -1.
          1    1    5    5  503    0  0.15780564692E+03  0.66241352524E+02  0.59032975749E+02  0.18103986083E+03  0.00000000000E+00 0. -1.
         -2    1    5    5    0  503  0.12558529676E+03 -0.10949991091E+02  0.15607066351E+02  0.12702420866E+03  0.00000000000E+00 0.  1.
         -1    1    6    6    0  502 -0.93333640691E+02  0.15544563143E+03  0.16767272912E+03  0.24695881621E+03  0.00000000000E+00 0.  1.
<mgrwt>
<rscale>  0 0.20387352E+04</rscale>
<asrwt>0</asrwt>
<pdfrwt beam="1">  1        1 0.44804404E+00 0.20387352E+04</pdfrwt>
<pdfrwt beam="2">  1       -1 0.54892655E-01 0.20387352E+04</pdfrwt>
<totfact> 0.21493584E+00</totfact>
</mgrwt>
</event>
<event>
12    1  0.1504874E-007  0.1817095E+04  0.7818608E-02  0.8697261E-01
          1   -1    0    0  501    0  0.00000000000E+00  0.00000000000E+00  0.21546963112E+04  0.21546963112E+04  0.00000000000E+00 0. -1.
         -1   -1    0    0    0  501 -0.00000000000E+00 -0.00000000000E+00 -0.38309746217E+03  0.38309746217E+03  0.00000000000E+00 0.  1.
         23    2    1    2    0    0 -0.50576325803E+03  0.40139926755E+03  0.99432353917E+03  0.11889381159E+04  0.89312359921E+02 0.  0.
        254    2    1    2    0    0  0.50576325803E+03 -0.40139926755E+03  0.77727530988E+03  0.13488556575E+04  0.89349696828E+03 0.  0.
        -24    2    4    4    0    0  0.48367429966E+03  0.17015301226E+03  0.29409624268E+03  0.59593929433E+03  0.75882585783E+02 0.  0.
         24    2    4    4    0    0  0.22088958363E+02 -0.57155227982E+03  0.48317906720E+03  0.75291636320E+03  0.79127165656E+02 0.  0.
         11    1    3    3    0    0 -0.75030548151E+02  0.57165673903E+02  0.20980696826E+03  0.23003578278E+03  0.00000000000E+00 0.  1.
        -11    1    3    3    0    0 -0.43073270988E+03  0.34423359365E+03  0.78451657091E+03  0.95890233308E+03  0.00000000000E+00 0. -1.
          2    1    6    6  502    0 -0.25250096579E+02 -0.15219594674E+03  0.10892975504E+03  0.18885673171E+03  0.00000000000E+00 0. -1.
          3    1    5    5  503    0  0.88749157119E+02  0.63712793096E+02  0.58730009820E+02  0.12403607115E+03  0.00000000000E+00 0. -1.
         -4    1    5    5    0  503  0.39492514255E+03  0.10644021917E+03  0.23536623286E+03  0.47190322317E+03  0.00000000000E+00 0.  1.
         -1    1    6    6    0  502  0.47339054942E+02 -0.41935633308E+03  0.37424931217E+03  0.56405963149E+03  0.00000000000E+00 0.  1.
<mgrwt>
<rscale>  0 0.18170951E+04</rscale>
<asrwt>0</asrwt>
<pdfrwt beam="1">  1        1 0.33149173E+00 0.18170951E+04</pdfrwt>
<pdfrwt beam="2">  1       -1 0.58938073E-01 0.18170951E+04</pdfrwt>
<totfact> 0.64326723E+00</totfact>
</mgrwt>
</event>
<event>
12    1  0.1504874E-007  0.1622383E+04  0.7818608E-02  0.8806914E-01
          2   -1    0    0  501    0  0.00000000000E+00  0.00000000000E+00  0.14433513509E+04  0.14433513509E+04  0.00000000000E+00 0.  1.
         -2   -1    0    0    0  501 -0.00000000000E+00 -0.00000000000E+00 -0.45590549155E+03  0.45590549155E+03  0.00000000000E+00 0. -1.
         23    2    1    2    0    0  0.32209022538E+03 -0.16516720635E+03 -0.14207869090E+03  0.39991403427E+03  0.93394652220E+02 0.  0.
        254    2    1    2    0    0 -0.32209022538E+03  0.16516720635E+03  0.11295245503E+04  0.14993428082E+04  0.91715910697E+03 0.  0.
        -24    2    4    4    0    0  0.25902759783E+03  0.28014588758E+03  0.46763983882E+03  0.60761807987E+03  0.70254518466E+02 0.  0.
         24    2    4    4    0    0 -0.58111782321E+03 -0.11497868123E+03  0.66188471143E+03  0.89172472831E+03  0.78508587281E+02 0.  0.
         13    1    3    3    0    0  0.56785535587E+01  0.46360888620E+00  0.10184061627E+02  0.11669447928E+02  0.00000000000E+00 0.  1.
        -13    1    3    3    0    0  0.31641167182E+03 -0.16563081523E+03 -0.15226275252E+03  0.38824458634E+03  0.00000000000E+00 0. -1.
          4    1    6    6  502    0 -0.50939021474E+03 -0.12300181984E+03  0.60027744959E+03  0.79683176082E+03  0.00000000000E+00 0. -1.
          1    1    5    5  503    0  0.18382559178E+03  0.20791379364E+03  0.38483543471E+03  0.47446633768E+03  0.00000000000E+00 0. -1.
         -4    1    5    5    0  503  0.75202006047E+02  0.72232093938E+02  0.82804404110E+02  0.13315174219E+03  0.00000000000E+00 0.  1.
         -3    1    6    6    0  502 -0.71727608461E+02  0.80231386103E+01  0.61607261835E+02  0.94892967492E+02  0.00000000000E+00 0.  1.
<mgrwt>
<rscale>  0 0.16223832E+04</rscale>
<asrwt>0</asrwt>
<pdfrwt beam="1">  1        2 0.22205405E+00 0.16223832E+04</pdfrwt>
<pdfrwt beam="2">  1       -2 0.70139307E-01 0.16223832E+04</pdfrwt>
<totfact> 0.24217126E+01</totfact>
</mgrwt>
</event>
<event>
12    1  0.1504874E-007  0.1160043E+04  0.7818608E-02  0.9148568E-01
         -2   -1    0    0    0  501 -0.00000000000E+00  0.00000000000E+00  0.13738640848E+03  0.13738640848E+03  0.00000000000E+00 0. -1.
          2   -1    0    0  501    0  0.00000000000E+00 -0.00000000000E+00 -0.24487483098E+04  0.24487483098E+04  0.00000000000E+00 0.  1.
         23    2    1    2    0    0 -0.22212957468E+03 -0.10552702219E+02 -0.44910530907E+03  0.50940071986E+03  0.91326925317E+02 0.  0.
        254    2    1    2    0    0  0.22212957468E+03  0.10552702219E+02 -0.18622565922E+04  0.20767339984E+04  0.89183607086E+03 0.  0.
        -24    2    4    4    0    0 -0.27640287124E+03  0.20816230293E+03 -0.52811975557E+03  0.63659852534E+03  0.81345649207E+02 0.  0.
         24    2    4    4    0    0  0.49853244592E+03 -0.19760960071E+03 -0.13341368367E+04  0.14401354731E+04  0.80529049985E+02 0.  0.
         11    1    3    3    0    0 -0.12510998387E+03  0.22155292361E+02 -0.17091514457E+03  0.21296795930E+03  0.00000000000E+00 0. -1.
        -11    1    3    3    0    0 -0.97019590809E+02 -0.32707994580E+02 -0.27819016451E+03  0.29643276057E+03  0.00000000000E+00 0.  1.
          2    1    6    6  502    0  0.25235309827E+03 -0.74396513701E+02 -0.56600587635E+03  0.62416310330E+03  0.00000000000E+00 0. -1.
          1    1    5    5  503    0 -0.27509583540E+02 -0.23115269366E+01 -0.25775727511E+02  0.37769147092E+02  0.00000000000E+00 0. -1.
         -2    1    5    5    0  503 -0.24889328770E+03  0.21047382987E+03 -0.50234402806E+03  0.59882937825E+03  0.00000000000E+00 0.  1.
         -1    1    6    6    0  502  0.24617934765E+03 -0.12321308701E+03 -0.76813096030E+03  0.81597236975E+03  0.00000000000E+00 0.  1.
<mgrwt>
<rscale>  0 0.11600426E+04</rscale>
<asrwt>0</asrwt>
<pdfrwt beam="1">  1        2 0.37673052E+00 0.11600426E+04</pdfrwt>
<pdfrwt beam="2">  1       -2 0.21136370E-01 0.11600426E+04</pdfrwt>
<totfact> 0.71949574E+01</totfact>
</mgrwt>
</event>
<event>
12    1  0.1504874E-007  0.3013234E+04  0.7818608E-02  0.8239962E-01
          2   -1    0    0  501    0  0.00000000000E+00  0.00000000000E+00  0.18391783549E+04  0.18391783549E+04  0.00000000000E+00 0. -1.
         -2   -1    0    0    0  501 -0.00000000000E+00 -0.00000000000E+00 -0.12341896635E+04  0.12341896635E+04  0.00000000000E+00 0.  1.
         23    2    1    2    0    0 -0.88196153494E+03  0.83704612330E+03  0.10139358945E+04  0.15861483377E+04  0.96427120663E+02 0.  0.
        254    2    1    2    0    0  0.88196153494E+03 -0.83704612330E+03 -0.40894720309E+03  0.14872196807E+04  0.75238434465E+03 0.  0.
        -24    2    4    4    0    0 -0.60011180072E+01 -0.16982528102E+03  0.15097792516E+03  0.24093281091E+03  0.79860165259E+02 0.  0.
         24    2    4    4    0    0  0.88796265295E+03 -0.66722084228E+03 -0.55992512825E+03  0.12462868698E+04  0.77804158864E+02 0.  0.
         11    1    3    3    0    0 -0.82271531338E+03  0.74345198839E+03  0.91538602010E+03  0.14378848743E+04  0.00000000000E+00 0. -1.
        -11    1    3    3    0    0 -0.59246221557E+02  0.93594134910E+02  0.98549874354E+02  0.14826346345E+03  0.00000000000E+00 0.  1.
          4    1    6    6  502    0  0.39803732726E+03 -0.25111524158E+03 -0.23944735575E+03  0.52804130011E+03  0.00000000000E+00 0. -1.
          1    1    5    5  503    0  0.17771558749E+02 -0.51298688354E+02  0.99671709934E+01  0.55197175877E+02  0.00000000000E+00 0. -1.
         -2    1    5    5    0  503 -0.23772676756E+02 -0.11852659266E+03  0.14101075417E+03  0.18573563503E+03  0.00000000000E+00 0.  1.
         -3    1    6    6    0  502  0.48992532569E+03 -0.41610560070E+03 -0.32047777250E+03  0.71824556967E+03  0.00000000000E+00 0.  1.
<mgrwt>
<rscale>  0 0.30132341E+04</rscale>
<asrwt>0</asrwt>
<pdfrwt beam="1">  1        2 0.28295052E+00 0.30132341E+04</pdfrwt>
<pdfrwt beam="2">  1       -2 0.18987533E+00 0.30132341E+04</pdfrwt>
<totfact> 0.10900179E+00</totfact>
</mgrwt>
</event>
<event>
12    1  0.1504874E-007  0.1672567E+04  0.7818608E-02  0.8777167E-01
          2   -1    0    0  501    0  0.00000000000E+00  0.00000000000E+00  0.11789762877E+04  0.11789762877E+04  0.00000000000E+00 0.  1.
         -2   -1    0    0    0  501 -0.00000000000E+00 -0.00000000000E+00 -0.59320080213E+03  0.59320080213E+03  0.00000000000E+00 0. -1.
         23    2    1    2    0    0 -0.16724916054E+03 -0.12560995911E+03  0.78077345637E+03  0.81337419069E+03  0.90665541285E+02 0.  0.
        254    2    1    2    0    0  0.16724916054E+03  0.12560995911E+03 -0.19499797080E+03  0.95880289913E+03  0.91516591241E+03 0.  0.
        -24    2    4    4    0    0  0.28203732193E+03  0.45093299155E+03 -0.26208748722E+03  0.59841652448E+03  0.80789058553E+02 0.  0.
         24    2    4    4    0    0 -0.11478816139E+03 -0.32532303244E+03  0.67089516414E+02  0.36038637465E+03  0.79786830947E+02 0.  0.
         11    1    3    3    0    0 -0.86400701622E+02 -0.44690685366E+02  0.51380731046E+03  0.52293430838E+03  0.00000000000E+00 0. -1.
        -11    1    3    3    0    0 -0.80848458914E+02 -0.80919273747E+02  0.26696614591E+03  0.29043988231E+03  0.00000000000E+00 0.  1.
          2    1    6    6  502    0 -0.81461118947E+02 -0.24126811741E+03  0.12910465403E+02  0.25497627045E+03  0.00000000000E+00 0. -1.
          1    1    5    5  503    0  0.65869775633E+02  0.12195939580E+03 -0.31264616819E+02  0.14209291970E+03  0.00000000000E+00 0. -1.
         -2    1    5    5    0  503  0.21616754630E+03  0.32897359576E+03 -0.23082287040E+03  0.45632360478E+03  0.00000000000E+00 0.  1.
         -1    1    6    6    0  502 -0.33327042447E+02 -0.84054915030E+02  0.54179051011E+02  0.10541010420E+03  0.00000000000E+00 0.  1.
<mgrwt>
<rscale>  0 0.16725665E+04</rscale>
<asrwt>0</asrwt>
<pdfrwt beam="1">  1        2 0.18138097E+00 0.16725665E+04</pdfrwt>
<pdfrwt beam="2">  1       -2 0.91261662E-01 0.16725665E+04</pdfrwt>
<totfact> 0.19031148E+01</totfact>
</mgrwt>
</event>
<event>
12    1  0.1504874E-007  0.1888414E+04  0.7818608E-02  0.8660645E-01
         -2   -1    0    0    0  501 -0.00000000000E+00  0.00000000000E+00  0.30305153753E+03  0.30305153753E+03  0.00000000000E+00 0.  1.
          2   -1    0    0  501    0  0.00000000000E+00 -0.00000000000E+00 -0.29418333797E+04  0.29418333797E+04  0.00000000000E+00 0. -1.
         23    2    1    2    0    0  0.47905404213E+03 -0.18521353708E+03 -0.19160666818E+04  0.19858279577E+04  0.91675072087E+02 0.  0.
        254    2    1    2    0    0 -0.47905404213E+03  0.18521353708E+03 -0.72271516040E+03  0.12590569596E+04  0.89392974823E+03 0.  0.
        -24    2    4    4    0    0 -0.27880159670E+03 -0.13960719552E+03  0.10940763471E+03  0.34030687860E+03  0.81352576625E+02 0.  0.
         24    2    4    4    0    0 -0.20025244543E+03  0.32482073260E+03 -0.83212279511E+03  0.91875008097E+03  0.77870500887E+02 0.  0.
         13    1    3    3    0    0  0.28663257722E+03 -0.79722724187E+02 -0.96756196668E+03  0.10122697795E+04  0.00000000000E+00 0.  1.
        -13    1    3    3    0    0  0.19242146491E+03 -0.10549081289E+03 -0.94850471512E+03  0.97355817822E+03  0.00000000000E+00 0. -1.
          2    1    6    6  502    0 -0.55761472153E+02  0.74777145850E+02 -0.13415475000E+03  0.16339663480E+03  0.00000000000E+00 0. -1.
          1    1    5    5  503    0 -0.12367429490E+03 -0.60824842827E+02  0.91436103579E+02  0.16539514431E+03  0.00000000000E+00 0. -1.
         -2    1    5    5    0  503 -0.15512730180E+03 -0.78782352694E+02  0.17971531135E+02  0.17491173429E+03  0.00000000000E+00 0.  1.
         -1    1    6    6    0  502 -0.14449097328E+03  0.25004358675E+03 -0.69796804512E+03  0.75535344617E+03  0.00000000000E+00 0.  1.
<mgrwt>
<rscale>  0 0.18884143E+04</rscale>
<asrwt>0</asrwt>
<pdfrwt beam="1">  1        2 0.45258972E+00 0.18884143E+04</pdfrwt>
<pdfrwt beam="2">  1       -2 0.46623317E-01 0.18884143E+04</pdfrwt>
<totfact> 0.77606861E+00</totfact>
</mgrwt>
</event>
<event>
12    1  0.1504874E-007  0.1935128E+04  0.7818608E-02  0.8637566E-01
          2   -1    0    0  501    0  0.00000000000E+00  0.00000000000E+00  0.21641515940E+04  0.21641515940E+04  0.00000000000E+00 0. -1.
         -2   -1    0    0    0  501 -0.00000000000E+00 -0.00000000000E+00 -0.43258510677E+03  0.43258510677E+03  0.00000000000E+00 0.  1.
         23    2    1    2    0    0 -0.69707416936E+03  0.27131260309E+03  0.54166933553E+03  0.92971719516E+03  0.10698349276E+03 0.  0.
        254    2    1    2    0    0  0.69707416936E+03 -0.27131260309E+03  0.11898971517E+04  0.16670195056E+04  0.89642393669E+03 0.  0.
        -24    2    4    4    0    0  0.31549215558E+03 -0.13388039336E+03 -0.53712078500E+02  0.35650499303E+03  0.82167893457E+02 0.  0.
         24    2    4    4    0    0  0.38158201378E+03 -0.13743220973E+03  0.12436092302E+04  0.13105145126E+04  0.79949513902E+02 0.  0.
         11    1    3    3    0    0 -0.55503582882E+03  0.17060910766E+03  0.39787453484E+03  0.70390083418E+03  0.00000000000E+00 0.  1.
        -11    1    3    3    0    0 -0.14203834055E+03  0.10070349543E+03  0.14379480070E+03  0.22581636098E+03  0.00000000000E+00 0. -1.
          2    1    6    6  502    0  0.16682528356E+03 -0.91736584177E+02  0.66233462472E+03  0.68915414183E+03  0.00000000000E+00 0. -1.
          1    1    5    5  503    0  0.25366883781E+03 -0.94559279542E+02 -0.94089253951E+01  0.27088348879E+03  0.00000000000E+00 0. -1.
         -2    1    5    5    0  503  0.61823317776E+02 -0.39321113814E+02 -0.44303153105E+02  0.85621504235E+02  0.00000000000E+00 0.  1.
         -1    1    6    6    0  502  0.21475673022E+03 -0.45695625557E+02  0.58127460544E+03  0.62136037072E+03  0.00000000000E+00 0.  1.
<mgrwt>
<rscale>  0 0.19351276E+04</rscale>
<asrwt>0</asrwt>
<pdfrwt beam="1">  1        2 0.33294639E+00 0.19351276E+04</pdfrwt>
<pdfrwt beam="2">  1       -2 0.66551556E-01 0.19351276E+04</pdfrwt>
<totfact> 0.10481888E+01</totfact>
</mgrwt>
</event>
<event>
12    1  0.1504874E-007  0.1391112E+04  0.7818608E-02  0.8960277E-01
          2   -1    0    0  501    0  0.00000000000E+00  0.00000000000E+00  0.56414755378E+03  0.56414755378E+03  0.00000000000E+00 0. -1.
         -2   -1    0    0    0  501 -0.00000000000E+00 -0.00000000000E+00 -0.85757390316E+03  0.85757390316E+03  0.00000000000E+00 0.  1.
         23    2    1    2    0    0 -0.31533443551E+03  0.25738701170E+03 -0.48385851460E+02  0.41982032404E+03  0.90686459003E+02 0.  0.
        254    2    1    2    0    0  0.31533443551E+03 -0.25738701170E+03 -0.24504049792E+03  0.10019011329E+04  0.88208681798E+03 0.  0.
        -24    2    4    4    0    0  0.43090458672E+03 -0.32484147058E+03 -0.47600205540E+03  0.72386404916E+03  0.78743006444E+02 0.  0.
         24    2    4    4    0    0 -0.11557015120E+03  0.67454458876E+02  0.23096155747E+03  0.27803708373E+03  0.77812691951E+02 0.  0.
         11    1    3    3    0    0 -0.56206845021E+02  0.40335578987E+02  0.25653448681E+02  0.73785281653E+02  0.00000000000E+00 0.  1.
        -11    1    3    3    0    0 -0.25912759049E+03  0.21705143271E+03 -0.74039300141E+02  0.34603504239E+03  0.00000000000E+00 0. -1.
          2    1    6    6  502    0 -0.12215531533E+03  0.64437552246E+02  0.23269066008E+03  0.27059021137E+03  0.00000000000E+00 0. -1.
          1    1    5    5  503    0  0.34603601960E+03 -0.29472323223E+03 -0.41101039489E+03  0.61280686614E+03  0.00000000000E+00 0. -1.
         -2    1    5    5    0  503  0.84868567117E+02 -0.30118238350E+02 -0.64991660501E+02  0.11105718302E+03  0.00000000000E+00 0.  1.
         -1    1    6    6    0  502  0.65851641247E+01  0.30169066300E+01 -0.17291026039E+01  0.74468723622E+01  0.00000000000E+00 0.  1.
<mgrwt>
<rscale>  0 0.13911121E+04</rscale>
<asrwt>0</asrwt>
<pdfrwt beam="1">  1        2 0.86791931E-01 0.13911121E+04</pdfrwt>
<pdfrwt beam="2">  1       -2 0.13193445E+00 0.13911121E+04</pdfrwt>
<totfact> 0.21749827E+01</totfact>
</mgrwt>
</event>
<event>
12    1  0.1504874E-007  0.2158347E+04  0.7818608E-02  0.8535968E-01
         -2   -1    0    0    0  501 -0.00000000000E+00  0.00000000000E+00  0.47627203616E+03  0.47627203616E+03  0.00000000000E+00 0.  1.
          2   -1    0    0  501    0  0.00000000000E+00 -0.00000000000E+00 -0.24452739842E+04  0.24452739842E+04  0.00000000000E+00 0. -1.
         23    2    1    2    0    0  0.33653735652E+03 -0.25514596523E+03  0.24328649993E+03  0.49604191991E+03  0.92262719205E+02 0.  0.
        254    2    1    2    0    0 -0.33653735652E+03  0.25514596523E+03 -0.22122884480E+04  0.24255041005E+04  0.90027390739E+03 0.  0.
        -24    2    4    4    0    0  0.28402724884E+03  0.17292726410E+03 -0.10243043237E+04  0.10798561533E+04  0.79464755446E+02 0.  0.
         24    2    4    4    0    0 -0.62056460536E+03  0.82218701131E+02 -0.11879841243E+04  0.13456479472E+04  0.87188153366E+02 0.  0.
         13    1    3    3    0    0  0.13883683806E+03 -0.73112227961E+02  0.48853472399E+02  0.16434027882E+03  0.00000000000E+00 0. -1.
        -13    1    3    3    0    0  0.19770051847E+03 -0.18203373727E+03  0.19443302753E+03  0.33170164109E+03  0.00000000000E+00 0.  1.
          4    1    6    6  502    0 -0.42632484048E+03  0.25259843662E+02 -0.86058814390E+03  0.96073039024E+03  0.00000000000E+00 0. -1.
          1    1    5    5  503    0  0.13869768780E+03  0.82687967574E+02 -0.37282284013E+03  0.40628957494E+03  0.00000000000E+00 0. -1.
         -2    1    5    5    0  503  0.14532956104E+03  0.90239296522E+02 -0.65148148360E+03  0.67356657831E+03  0.00000000000E+00 0.  1.
         -3    1    6    6    0  502 -0.19423976488E+03  0.56958857469E+02 -0.32739598038E+03  0.38491755698E+03  0.00000000000E+00 0.  1.
<mgrwt>
<rscale>  0 0.21583472E+04</rscale>
<asrwt>0</asrwt>
<pdfrwt beam="1">  1        2 0.37619600E+00 0.21583472E+04</pdfrwt>
<pdfrwt beam="2">  1       -2 0.73272621E-01 0.21583472E+04</pdfrwt>
<totfact> 0.57744724E+00</totfact>
</mgrwt>
</event>
<event>
12    1  0.1504874E-007  0.3743257E+04  0.7818608E-02  0.8058443E-01
          1   -1    0    0  501    0  0.00000000000E+00  0.00000000000E+00  0.16996442922E+04  0.16996442922E+04  0.00000000000E+00 0. -1.
         -1   -1    0    0    0  501 -0.00000000000E+00 -0.00000000000E+00 -0.20610157222E+04  0.20610157222E+04  0.00000000000E+00 0.  1.
         23    2    1    2    0    0 -0.10146618619E+04 -0.11901581290E+04 -0.98532348384E+03  0.18508735704E+04  0.94103878098E+02 0.  0.
        254    2    1    2    0    0  0.10146618619E+04  0.11901581290E+04  0.62395205380E+03  0.19097864440E+04  0.90108436350E+03 0.  0.
        -24    2    4    4    0    0  0.10056722873E+04  0.12275858903E+04  0.35713969780E+03  0.16286439264E+04  0.81169006776E+02 0.  0.
         24    2    4    4    0    0  0.89895746016E+01 -0.37427761277E+02  0.26681235599E+03  0.28114251762E+03  0.79816239809E+02 0.  0.
         11    1    3    3    0    0 -0.61276413098E+03 -0.78491963384E+03 -0.64330051010E+03  0.11855016905E+04  0.00000000000E+00 0.  1.
        -11    1    3    3    0    0 -0.40189773089E+03 -0.40523849519E+03 -0.34202297374E+03  0.66537187996E+03  0.00000000000E+00 0. -1.
          2    1    6    6  502    0  0.13073044337E+02 -0.46480411931E+02  0.26687866494E+03  0.27121127370E+03  0.00000000000E+00 0. -1.
          1    1    5    5  503    0  0.80647250459E+03  0.94432714576E+03  0.30154528144E+03  0.12779206609E+04  0.00000000000E+00 0. -1.
         -2    1    5    5    0  503  0.19919978268E+03  0.28325874455E+03  0.55594416368E+02  0.35072326543E+03  0.00000000000E+00 0.  1.
         -3    1    6    6    0  502 -0.40834697353E+01  0.90526506540E+01 -0.66308946302E-01  0.99312439210E+01  0.00000000000E+00 0.  1.
<mgrwt>
<rscale>  0 0.37432572E+04</rscale>
<asrwt>0</asrwt>
<pdfrwt beam="1">  1        1 0.26148374E+00 0.37432572E+04</pdfrwt>
<pdfrwt beam="2">  1       -1 0.31707934E+00 0.37432572E+04</pdfrwt>
<totfact> 0.97472232E-02</totfact>
</mgrwt>
</event>
<event>
12    1  0.1504874E-007  0.1839898E+04  0.7818608E-02  0.8685365E-01
         -2   -1    0    0    0  501 -0.00000000000E+00  0.00000000000E+00  0.10558852897E+04  0.10558852897E+04  0.00000000000E+00 0.  1.
          2   -1    0    0  501    0  0.00000000000E+00 -0.00000000000E+00 -0.80151302692E+03  0.80151302692E+03  0.00000000000E+00 0. -1.
         23    2    1    2    0    0 -0.19511664388E+03  0.65070245618E+03  0.23796924374E+03  0.72604680780E+03  0.95028495467E+02 0.  0.
        254    2    1    2    0    0  0.19511664388E+03 -0.65070245618E+03  0.16403019075E+02  0.11313515089E+04  0.90454573481E+03 0.  0.
        -24    2    4    4    0    0  0.22928392387E+03 -0.86239045079E+03  0.61616858396E+02  0.89804173120E+03  0.79961905816E+02 0.  0.
         24    2    4    4    0    0 -0.34167279983E+02  0.21168799461E+03 -0.45213839320E+02  0.23330977766E+03  0.80062169594E+02 0.  0.
         11    1    3    3    0    0 -0.97625466085E+02  0.36027401339E+03  0.17941241702E+03  0.41414600291E+03  0.00000000000E+00 0.  1.
        -11    1    3    3    0    0 -0.97491177800E+02  0.29042844279E+03  0.58556826721E+02  0.31190080489E+03  0.00000000000E+00 0. -1.
          2    1    6    6  502    0  0.15681174539E+02  0.12828268803E+03 -0.87736994254E+01  0.12953503420E+03  0.00000000000E+00 0. -1.
          3    1    5    5  503    0  0.22357788745E+03 -0.85705677283E+03  0.67435001445E+02  0.88830223631E+03  0.00000000000E+00 0. -1.
         -4    1    5    5    0  503  0.57060364198E+01 -0.53336779578E+01 -0.58181430499E+01  0.97394948910E+01  0.00000000000E+00 0.  1.
         -1    1    6    6    0  502 -0.49848454522E+02  0.83405306578E+02 -0.36440139895E+02  0.10377474346E+03  0.00000000000E+00 0.  1.
<mgrwt>
<rscale>  0 0.18398976E+04</rscale>
<asrwt>0</asrwt>
<pdfrwt beam="1">  1        2 0.12330970E+00 0.18398976E+04</pdfrwt>
<pdfrwt beam="2">  1       -2 0.16244389E+00 0.18398976E+04</pdfrwt>
<totfact> 0.78106023E+00</totfact>
</mgrwt>
</event>
<event>
12    1  0.1504874E-007  0.1178762E+04  0.7818608E-02  0.9131652E-01
         -2   -1    0    0    0  501 -0.00000000000E+00  0.00000000000E+00  0.14722171158E+03  0.14722171158E+03  0.00000000000E+00 0.  1.
          2   -1    0    0  501    0  0.00000000000E+00 -0.00000000000E+00 -0.23595039685E+04  0.23595039685E+04  0.00000000000E+00 0. -1.
         23    2    1    2    0    0  0.27709733671E+03 -0.97087043432E+02 -0.77082561790E+03  0.82971368789E+03  0.89687472137E+02 0.  0.
        254    2    1    2    0    0 -0.27709733671E+03  0.97087043432E+02 -0.14414566390E+04  0.16770119922E+04  0.80521000474E+03 0.  0.
        -24    2    4    4    0    0 -0.39898530498E+03  0.32048815161E+03 -0.59099372721E+03  0.78570002749E+03  0.78415678809E+02 0.  0.
         24    2    4    4    0    0  0.12188796827E+03 -0.22340110818E+03 -0.85046291181E+03  0.89131196470E+03  0.79906958995E+02 0.  0.
         11    1    3    3    0    0  0.50124353163E+01 -0.19969131038E+02 -0.93120156194E+02  0.95369042104E+02  0.00000000000E+00 0.  1.
        -11    1    3    3    0    0  0.27208490140E+03 -0.77117912394E+02 -0.67770546170E+03  0.73434464579E+03  0.00000000000E+00 0. -1.
          4    1    6    6  502    0  0.38406065542E+02 -0.15288123030E+02 -0.16528727067E+03  0.17037791647E+03  0.00000000000E+00 0. -1.
          1    1    5    5  503    0 -0.25528419896E+03  0.16008859358E+03 -0.31976936240E+03  0.43937549450E+03  0.00000000000E+00 0. -1.
         -2    1    5    5    0  503 -0.14370110602E+03  0.16039955803E+03 -0.27122436480E+03  0.34632453299E+03  0.00000000000E+00 0.  1.
         -3    1    6    6    0  502  0.83481902724E+02 -0.20811298515E+03 -0.68517564115E+03  0.72093404823E+03  0.00000000000E+00 0.  1.
<mgrwt>
<rscale>  0 0.11787624E+04</rscale>
<asrwt>0</asrwt>
<pdfrwt beam="1">  1        2 0.36300058E+00 0.11787624E+04</pdfrwt>
<pdfrwt beam="2">  1       -2 0.22649496E-01 0.11787624E+04</pdfrwt>
<totfact> 0.71379760E+01</totfact>
</mgrwt>
</event>
<event>
12    1  0.1504874E-007  0.3258553E+04  0.7818608E-02  0.8173522E-01
          1   -1    0    0  501    0  0.00000000000E+00  0.00000000000E+00  0.27591473194E+04  0.27591473194E+04  0.00000000000E+00 0. -1.
         -1   -1    0    0    0  501 -0.00000000000E+00 -0.00000000000E+00 -0.96208759218E+03  0.96208759218E+03  0.00000000000E+00 0.  1.
         23    2    1    2    0    0 -0.91036524801E+02 -0.14107607190E+04  0.14225856699E+04  0.20076140025E+04  0.90722322385E+02 0.  0.
        254    2    1    2    0    0  0.91036524801E+02  0.14107607190E+04  0.37447405734E+03  0.17136209091E+04  0.89315863385E+03 0.  0.
        -24    2    4    4    0    0  0.58399115852E+01  0.40298987724E+03  0.54719670306E+03  0.68429283016E+03  0.79984372475E+02 0.  0.
         24    2    4    4    0    0  0.85196613216E+02  0.10077708418E+04 -0.17272264573E+03  0.10293280789E+04  0.82599329584E+02 0.  0.
         13    1    3    3    0    0 -0.99412750532E+00 -0.20155243292E+02  0.73782341008E+01  0.21486285395E+02  0.00000000000E+00 0.  1.
        -13    1    3    3    0    0 -0.90042397295E+02 -0.13906054757E+04  0.14152074358E+04  0.19861277171E+04  0.00000000000E+00 0. -1.
          2    1    6    6  502    0  0.98326057798E+02  0.73029206533E+03 -0.13051370785E+03  0.74835041409E+03  0.00000000000E+00 0. -1.
          3    1    5    5  503    0  0.15962152132E+02  0.71877229114E+02  0.59179983385E+02  0.94463732719E+02  0.00000000000E+00 0. -1.
         -4    1    5    5    0  503 -0.10122240546E+02  0.33111264812E+03  0.48801671968E+03  0.58982909744E+03  0.00000000000E+00 0.  1.
         -1    1    6    6    0  502 -0.13129444583E+02  0.27747877644E+03 -0.42208937876E+02  0.28097766482E+03  0.00000000000E+00 0.  1.
<mgrwt>
<rscale>  0 0.32585527E+04</rscale>
<asrwt>0</asrwt>
<pdfrwt beam="1">  1        1 0.42448420E+00 0.32585527E+04</pdfrwt>
<pdfrwt beam="2">  1       -1 0.14801348E+00 0.32585527E+04</pdfrwt>
<totfact> 0.26814273E-01</totfact>
</mgrwt>
</event>
<event>
12    1  0.1504874E-007  0.3107270E+04  0.7818608E-02  0.8213746E-01
          2   -1    0    0  501    0  0.00000000000E+00  0.00000000000E+00  0.12584360297E+04  0.12584360297E+04  0.00000000000E+00 0. -1.
         -2   -1    0    0    0  501 -0.00000000000E+00 -0.00000000000E+00 -0.19180804305E+04  0.19180804305E+04  0.00000000000E+00 0.  1.
         23    2    1    2    0    0  0.72802946956E+03  0.78655573993E+03  0.64669588329E+03  0.12551645582E+04  0.92334512490E+02 0.  0.
        254    2    1    2    0    0 -0.72802946956E+03 -0.78655573993E+03 -0.13063402840E+04  0.19213519020E+04  0.91453340726E+03 0.  0.
        -24    2    4    4    0    0  0.12106231229E+03  0.10136988396E+03 -0.18074038544E+03  0.25298276959E+03  0.80007861782E+02 0.  0.
         24    2    4    4    0    0 -0.84909178185E+03 -0.88792562389E+03 -0.11255998986E+04  0.16683691324E+04  0.84330674314E+02 0.  0.
         13    1    3    3    0    0  0.59329505522E+03  0.68895806154E+03  0.53867132945E+03  0.10568013221E+04  0.00000000000E+00 0. -1.
        -13    1    3    3    0    0  0.13473441434E+03  0.97597678383E+02  0.10802455384E+03  0.19836323617E+03  0.00000000000E+00 0.  1.
          2    1    6    6  502    0 -0.49296780463E+02 -0.66911694596E+02 -0.10273958001E+03  0.13214676968E+03  0.00000000000E+00 0. -1.
          3    1    5    5  503    0  0.76165209907E+01  0.51621505724E+02 -0.65976773331E+02  0.84117333912E+02  0.00000000000E+00 0. -1.
         -4    1    5    5    0  503  0.11344579130E+03  0.49748378237E+02 -0.11476361211E+03  0.16886543568E+03  0.00000000000E+00 0.  1.
         -1    1    6    6    0  502 -0.79979500139E+03 -0.82101392929E+03 -0.10228603186E+04  0.15362223627E+04  0.00000000000E+00 0.  1.
<mgrwt>
<rscale>  0 0.31072699E+04</rscale>
<asrwt>0</asrwt>
<pdfrwt beam="1">  1        2 0.19360554E+00 0.31072699E+04</pdfrwt>
<pdfrwt beam="2">  1       -2 0.29508930E+00 0.31072699E+04</pdfrwt>
<totfact> 0.50532020E-01</totfact>
</mgrwt>
</event>
<event>
12    1  0.1504874E-007  0.1332807E+04  0.7818608E-02  0.9003946E-01
         -1   -1    0    0    0  501 -0.00000000000E+00  0.00000000000E+00  0.25511930694E+03  0.25511930694E+03  0.00000000000E+00 0.  1.
          1   -1    0    0  501    0  0.00000000000E+00 -0.00000000000E+00 -0.17407304609E+04  0.17407304609E+04  0.00000000000E+00 0. -1.
         23    2    1    2    0    0 -0.66410821856E+02 -0.29352503854E+03 -0.19787390020E+03  0.37350099864E+03  0.98901820478E+02 0.  0.
        254    2    1    2    0    0  0.66410821856E+02  0.29352503854E+03 -0.12877372538E+04  0.16223487692E+04  0.93977707394E+03 0.  0.
        -24    2    4    4    0    0  0.46430194930E+03  0.43128291896E+02 -0.42237091779E+03  0.63441121130E+03  0.81511000085E+02 0.  0.
         24    2    4    4    0    0 -0.39789112745E+03  0.25039674665E+03 -0.86536633596E+03  0.98793755790E+03  0.78395426251E+02 0.  0.
         11    1    3    3    0    0 -0.30186678598E+02 -0.57376504716E+02 -0.25081714470E+01  0.64881351575E+02  0.00000000000E+00 0.  1.
        -11    1    3    3    0    0 -0.36224143258E+02 -0.23614853383E+03 -0.19536572876E+03  0.30861964707E+03  0.00000000000E+00 0. -1.
          2    1    6    6  502    0 -0.15630759092E+03  0.11294482412E+03 -0.28062766904E+03  0.34050034494E+03  0.00000000000E+00 0. -1.
          1    1    5    5  503    0  0.30042953950E+03  0.38331191851E+02 -0.32262612895E+03  0.44250966945E+03  0.00000000000E+00 0. -1.
         -2    1    5    5    0  503  0.16387240980E+03  0.47971000452E+01 -0.99744788842E+02  0.19190154185E+03  0.00000000000E+00 0.  1.
         -1    1    6    6    0  502 -0.24158353653E+03  0.13745192253E+03 -0.58473866692E+03  0.64743721296E+03  0.00000000000E+00 0.  1.
<mgrwt>
<rscale>  0 0.13328075E+04</rscale>
<asrwt>0</asrwt>
<pdfrwt beam="1">  1        1 0.26780469E+00 0.13328075E+04</pdfrwt>
<pdfrwt beam="2">  1       -1 0.39249124E-01 0.13328075E+04</pdfrwt>
<totfact> 0.27638180E+01</totfact>
</mgrwt>
</event>
<event>
12    1  0.1504874E-007  0.2334636E+04  0.7818608E-02  0.8464388E-01
         -1   -1    0    0    0  501 -0.00000000000E+00  0.00000000000E+00  0.14002338476E+04  0.14002338476E+04  0.00000000000E+00 0.  1.
          1   -1    0    0  501    0  0.00000000000E+00 -0.00000000000E+00 -0.97314574868E+03  0.97314574868E+03  0.00000000000E+00 0. -1.
         23    2    1    2    0    0  0.41202469109E+03 -0.22827088045E+00  0.10976252206E+04  0.11758720229E+04  0.90163691017E+02 0.  0.
        254    2    1    2    0    0 -0.41202469109E+03  0.22827088045E+00 -0.67053712175E+03  0.11975075733E+04  0.90257407358E+03 0.  0.
        -24    2    4    4    0    0 -0.23365880440E+03  0.39617967772E+03 -0.10041339280E+03  0.47731383867E+03  0.78682127691E+02 0.  0.
         24    2    4    4    0    0 -0.17836588669E+03 -0.39595140684E+03 -0.57012372895E+03  0.72019373463E+03  0.71035505053E+02 0.  0.
         13    1    3    3    0    0  0.38110591891E+02  0.16803458693E+02  0.18179348556E+03  0.18650373946E+03  0.00000000000E+00 0. -1.
        -13    1    3    3    0    0  0.37391409920E+03 -0.17031729574E+02  0.91583173507E+03  0.98936828348E+03  0.00000000000E+00 0.  1.
          4    1    6    6  502    0 -0.11382779904E+03 -0.32363797172E+03 -0.44884204747E+03  0.56494025185E+03  0.00000000000E+00 0. -1.
          3    1    5    5  503    0 -0.22519401985E+03  0.37522415556E+03 -0.11227918705E+03  0.45178770384E+03  0.00000000000E+00 0. -1.
         -4    1    5    5    0  503 -0.84647845506E+01  0.20955522161E+02  0.11865794245E+02  0.25526134835E+02  0.00000000000E+00 0.  1.
         -3    1    6    6    0  502 -0.64538087646E+02 -0.72313435122E+02 -0.12128168147E+03  0.15525348279E+03  0.00000000000E+00 0.  1.
<mgrwt>
<rscale>  0 0.23346363E+04</rscale>
<asrwt>0</asrwt>
<pdfrwt beam="1">  1        1 0.14971473E+00 0.23346363E+04</pdfrwt>
<pdfrwt beam="2">  1       -1 0.21542059E+00 0.23346363E+04</pdfrwt>
<totfact> 0.16912269E+00</totfact>
</mgrwt>
</event>
<event>
12    1  0.1504874E-007  0.1875605E+04  0.7818608E-02  0.8667095E-01
         -2   -1    0    0    0  501 -0.00000000000E+00  0.00000000000E+00  0.54916048981E+03  0.54916048981E+03  0.00000000000E+00 0.  1.
          2   -1    0    0  501    0  0.00000000000E+00 -0.00000000000E+00 -0.16014875491E+04  0.16014875491E+04  0.00000000000E+00 0. -1.
         23    2    1    2    0    0  0.63928842356E+03 -0.26857011795E+03 -0.18912630673E+03  0.72459764869E+03  0.91942350628E+02 0.  0.
        254    2    1    2    0    0 -0.63928842356E+03  0.26857011795E+03 -0.86320075260E+03  0.14260503903E+04  0.89871273472E+03 0.  0.
        -24    2    4    4    0    0  0.17684746925E+03  0.67853778240E+02  0.17185147517E+02  0.20611441091E+03  0.79427063944E+02 0.  0.
         24    2    4    4    0    0 -0.81613589281E+03  0.20071633971E+03 -0.88038590012E+03  0.12199359794E+04  0.82459784399E+02 0.  0.
         11    1    3    3    0    0  0.76497022242E+02 -0.32993897131E+02 -0.55280877869E+02  0.99981833939E+02  0.00000000000E+00 0.  1.
        -11    1    3    3    0    0  0.56279140132E+03 -0.23557622082E+03 -0.13384542886E+03  0.62461581475E+03  0.00000000000E+00 0. -1.
          4    1    6    6  502    0 -0.21338813096E+03  0.44391008046E+02 -0.28120928102E+03  0.35578605335E+03  0.00000000000E+00 0. -1.
          3    1    5    5  503    0  0.37323789847E+02 -0.99435592209E+01  0.25278223413E+02  0.46161978266E+02  0.00000000000E+00 0. -1.
         -2    1    5    5    0  503  0.13952367941E+03  0.77797337461E+02 -0.80930758965E+01  0.15995243264E+03  0.00000000000E+00 0.  1.
         -3    1    6    6    0  502 -0.60274776185E+03  0.15632533167E+03 -0.59917661910E+03  0.86414992601E+03  0.00000000000E+00 0.  1.
<mgrwt>
<rscale>  0 0.18756052E+04</rscale>
<asrwt>0</asrwt>
<pdfrwt beam="1">  1        2 0.24638269E+00 0.18756052E+04</pdfrwt>
<pdfrwt beam="2">  1       -2 0.84486231E-01 0.18756052E+04</pdfrwt>
<totfact> 0.12759830E+01</totfact>
</mgrwt>
</event>
<event>
12    1  0.1504874E-007  0.1281009E+04  0.7818608E-02  0.9044762E-01
         -2   -1    0    0    0  501 -0.00000000000E+00  0.00000000000E+00  0.47529601380E+03  0.47529601380E+03  0.00000000000E+00 0.  1.
          2   -1    0    0  501    0  0.00000000000E+00 -0.00000000000E+00 -0.86313846992E+03  0.86313846992E+03  0.00000000000E+00 0. -1.
         23    2    1    2    0    0  0.24601726714E+03 -0.48731829885E+02  0.10143503455E+03  0.28517962986E+03  0.90216783775E+02 0.  0.
        254    2    1    2    0    0 -0.24601726714E+03  0.48731829885E+02 -0.48927749067E+03  0.10532548539E+04  0.89836186323E+03 0.  0.
        -24    2    4    4    0    0 -0.33994014754E+03  0.60541413897E+02 -0.71457031200E+03  0.79817393022E+03  0.85125351020E+02 0.  0.
         24    2    4    4    0    0  0.93922880399E+02 -0.11809584012E+02  0.22529282133E+03  0.25508092363E+03  0.73133087737E+02 0.  0.
         11    1    3    3    0    0  0.24260165041E+03 -0.32791521073E+02  0.10804256143E+03  0.26758931167E+03  0.00000000000E+00 0.  1.
        -11    1    3    3    0    0  0.34156167302E+01 -0.15940308812E+02 -0.66075268769E+01  0.17590318192E+02  0.00000000000E+00 0. -1.
          4    1    6    6  502    0  0.91187100142E+02 -0.31551293474E+01  0.12704338820E+03  0.15641312144E+03  0.00000000000E+00 0. -1.
          1    1    5    5  503    0 -0.13475400918E+03  0.36082445317E+02 -0.20171259099E+03  0.24525202388E+03  0.00000000000E+00 0. -1.
         -2    1    5    5    0  503 -0.20518613836E+03  0.24458968581E+02 -0.51285772101E+03  0.55292190634E+03  0.00000000000E+00 0.  1.
         -3    1    6    6    0  502  0.27357802573E+01 -0.86544546650E+01  0.98249433131E+02  0.98667802194E+02  0.00000000000E+00 0.  1.
<mgrwt>
<rscale>  0 0.12810094E+04</rscale>
<asrwt>0</asrwt>
<pdfrwt beam="1">  1        2 0.13279053E+00 0.12810094E+04</pdfrwt>
<pdfrwt beam="2">  1       -2 0.73122464E-01 0.12810094E+04</pdfrwt>
<totfact> 0.51534786E+01</totfact>
</mgrwt>
</event>
<event>
12    1  0.1504874E-007  0.1563485E+04  0.7818608E-02  0.8843300E-01
         -1   -1    0    0    0  501 -0.00000000000E+00  0.00000000000E+00  0.15605770471E+03  0.15605770471E+03  0.00000000000E+00 0.  1.
          1   -1    0    0  501    0  0.00000000000E+00 -0.00000000000E+00 -0.39159938410E+04  0.39159938410E+04  0.00000000000E+00 0. -1.
         23    2    1    2    0    0 -0.27220325185E+02 -0.34353270839E+03 -0.25879410220E+03  0.44118980890E+03  0.94437240082E+02 0.  0.
        254    2    1    2    0    0  0.27220325185E+02  0.34353270839E+03 -0.35011420341E+04  0.36308617369E+04  0.89800096947E+03 0.  0.
        -24    2    4    4    0    0 -0.47325986129E+02 -0.19696636295E+03 -0.24471772702E+03  0.32803315460E+03  0.81752599375E+02 0.  0.
         24    2    4    4    0    0  0.74546311315E+02  0.54049907133E+03 -0.32564243071E+04  0.33028285822E+04  0.81737244665E+02 0.  0.
         13    1    3    3    0    0 -0.90942322263E+01 -0.11166831873E+03 -0.32415034719E+02  0.11663298394E+03  0.00000000000E+00 0. -1.
        -13    1    3    3    0    0 -0.18126092959E+02 -0.23186438966E+03 -0.22637906748E+03  0.32455682497E+03  0.00000000000E+00 0.  1.
          2    1    6    6  502    0  0.16857418944E+01  0.46737904671E+01 -0.62884532848E+01  0.80144050172E+01  0.00000000000E+00 0. -1.
          3    1    5    5  503    0 -0.47943026797E+02 -0.43031445563E+02 -0.67987279348E+02  0.93661674546E+02  0.00000000000E+00 0. -1.
         -4    1    5    5    0  503  0.61704066753E+00 -0.15393491738E+03 -0.17673044767E+03  0.23437148005E+03  0.00000000000E+00 0.  1.
         -1    1    6    6    0  502  0.72860569420E+02  0.53582528086E+03 -0.32501358538E+04  0.32948141772E+04  0.00000000000E+00 0.  1.
<mgrwt>
<rscale>  0 0.15634846E+04</rscale>
<asrwt>0</asrwt>
<pdfrwt beam="1">  1        1 0.60246051E+00 0.15634846E+04</pdfrwt>
<pdfrwt beam="2">  1       -1 0.24008881E-01 0.15634846E+04</pdfrwt>
<totfact> 0.16674313E+00</totfact>
</mgrwt>
</event>
<event>
12    1  0.1504874E-007  0.1416427E+04  0.7818608E-02  0.8942013E-01
          1   -1    0    0  501    0  0.00000000000E+00  0.00000000000E+00  0.25012729847E+04  0.25012729847E+04  0.00000000000E+00 0. -1.
         -1   -1    0    0    0  501 -0.00000000000E+00 -0.00000000000E+00 -0.20052451220E+03  0.20052451220E+03  0.00000000000E+00 0.  1.
         23    2    1    2    0    0 -0.32558550371E+03 -0.23871710096E+03  0.87445854537E+03  0.96768476625E+03  0.93510880345E+02 0.  0.
        254    2    1    2    0    0  0.32558550371E+03  0.23871710096E+03  0.14262899272E+04  0.17341127307E+04  0.89991790286E+03 0.  0.
        -24    2    4    4    0    0  0.23571466068E+03 -0.27391367332E+03  0.96722362128E+03  0.10355454591E+04  0.79011154535E+02 0.  0.
         24    2    4    4    0    0  0.89870843034E+02  0.51263077428E+03  0.45906630588E+03  0.69856727162E+03  0.79920464290E+02 0.  0.
         11    1    3    3    0    0 -0.27599460316E+03 -0.22187679078E+03  0.68500040509E+03  0.77112118777E+03  0.00000000000E+00 0.  1.
        -11    1    3    3    0    0 -0.49590900552E+02 -0.16840310175E+02  0.18945814028E+03  0.19656357847E+03  0.00000000000E+00 0. -1.
          2    1    6    6  502    0  0.98220634274E+02  0.34781455217E+03  0.32159415795E+03  0.48378203576E+03  0.00000000000E+00 0. -1.
          3    1    5    5  503    0  0.22258781842E+03 -0.21470873408E+03  0.80776153437E+03  0.86494154358E+03  0.00000000000E+00 0. -1.
         -4    1    5    5    0  503  0.13126842256E+02 -0.59204939243E+02  0.15946208692E+03  0.17060391550E+03  0.00000000000E+00 0.  1.
         -1    1    6    6    0  502 -0.83497912404E+01  0.16481622211E+03  0.13747214794E+03  0.21478523586E+03  0.00000000000E+00 0.  1.
<mgrwt>
<rscale>  0 0.14164273E+04</rscale>
<asrwt>0</asrwt>
<pdfrwt beam="1">  1        1 0.38481121E+00 0.14164273E+04</pdfrwt>
<pdfrwt beam="2">  1       -1 0.30849927E-01 0.14164273E+04</pdfrwt>
<totfact> 0.12832344E+01</totfact>
</mgrwt>
</event>
<event>
12    1  0.1504874E-007  0.1666344E+04  0.7818608E-02  0.8780796E-01
         -2   -1    0    0    0  501 -0.00000000000E+00  0.00000000000E+00  0.97608493108E+03  0.97608493108E+03  0.00000000000E+00 0.  1.
          2   -1    0    0  501    0  0.00000000000E+00 -0.00000000000E+00 -0.71118322633E+03  0.71118322633E+03  0.00000000000E+00 0. -1.
         23    2    1    2    0    0 -0.45851855774E+03  0.20913492828E+03 -0.21301709450E+03  0.55485315611E+03  0.92244546039E+02 0.  0.
        254    2    1    2    0    0  0.45851855774E+03 -0.20913492828E+03  0.47791879925E+03  0.11324150013E+04  0.89441638541E+03 0.  0.
        -24    2    4    4    0    0 -0.20161846041E+03 -0.28015406716E+03  0.21088802685E+03  0.41211236683E+03  0.78908415903E+02 0.  0.
         24    2    4    4    0    0  0.66013701815E+03  0.71019138875E+02  0.26703077240E+03  0.72030263448E+03  0.81889260690E+02 0.  0.
         13    1    3    3    0    0 -0.36292577475E+03  0.20216204478E+03 -0.15890990222E+03  0.44478867718E+03  0.00000000000E+00 0. -1.
        -13    1    3    3    0    0 -0.95592782994E+02  0.69728835000E+01 -0.54107192281E+02  0.11006447893E+03  0.00000000000E+00 0.  1.
          4    1    6    6  502    0  0.51895879198E+03  0.84769768679E+02  0.19166845972E+03  0.55967931881E+03  0.00000000000E+00 0. -1.
          3    1    5    5  503    0 -0.18991086456E+03 -0.21668007285E+03  0.15759252986E+03  0.32840797176E+03  0.00000000000E+00 0. -1.
         -4    1    5    5    0  503 -0.11707595847E+02 -0.63473994305E+02  0.53295496991E+02  0.83704395064E+02  0.00000000000E+00 0.  1.
         -3    1    6    6    0  502  0.14117822617E+03 -0.13750629804E+02  0.75362312678E+02  0.16062331567E+03  0.00000000000E+00 0.  1.
<mgrwt>
<rscale>  0 0.16663436E+04</rscale>
<asrwt>0</asrwt>
<pdfrwt beam="1">  1        2 0.10941280E+00 0.16663436E+04</pdfrwt>
<pdfrwt beam="2">  1       -2 0.15016691E+00 0.16663436E+04</pdfrwt>
<totfact> 0.11438338E+01</totfact>
</mgrwt>
</event>
<event>
12    1  0.1504874E-007  0.2115232E+04  0.7818608E-02  0.8554563E-01
         -2   -1    0    0    0  501 -0.00000000000E+00  0.00000000000E+00  0.49618416065E+03  0.49618416065E+03  0.00000000000E+00 0.  1.
          2   -1    0    0  501    0  0.00000000000E+00 -0.00000000000E+00 -0.22543075849E+04  0.22543075849E+04  0.00000000000E+00 0. -1.
         23    2    1    2    0    0 -0.85669040186E+03  0.10035612171E+03 -0.74746437649E+03  0.11439209806E+04  0.76566440875E+02 0.  0.
        254    2    1    2    0    0  0.85669040186E+03 -0.10035612171E+03 -0.10106590477E+04  0.16065707650E+04  0.90313239130E+03 0.  0.
        -24    2    4    4    0    0 -0.14795348331E+02 -0.21017319013E+03  0.46289511423E+02  0.23002758764E+03  0.79864260004E+02 0.  0.
         24    2    4    4    0    0  0.87148575019E+03  0.10981706842E+03 -0.10569485592E+04  0.13765431773E+04  0.78636257517E+02 0.  0.
         13    1    3    3    0    0 -0.59704879735E+03  0.51533123382E+02 -0.47805263711E+03  0.76658805957E+03  0.00000000000E+00 0. -1.
        -13    1    3    3    0    0 -0.25964160450E+03  0.48822998323E+02 -0.26941173938E+03  0.37733292100E+03  0.00000000000E+00 0.  1.
          4    1    6    6  502    0  0.69738720790E+03  0.95078073464E+02 -0.89216083619E+03  0.11363712929E+04  0.00000000000E+00 0. -1.
          3    1    5    5  503    0 -0.43676113322E+02 -0.17182030737E+03  0.37866697605E+02  0.18128350087E+03  0.00000000000E+00 0. -1.
         -4    1    5    5    0  503  0.28880764991E+02 -0.38352882754E+02  0.84228138185E+01  0.48744086766E+02  0.00000000000E+00 0.  1.
         -3    1    6    6    0  502  0.17409854229E+03  0.14738994958E+02 -0.16478772298E+03  0.24017188438E+03  0.00000000000E+00 0.  1.
<mgrwt>
<rscale>  0 0.21152321E+04</rscale>
<asrwt>0</asrwt>
<pdfrwt beam="1">  1        2 0.34681655E+00 0.21152321E+04</pdfrwt>
<pdfrwt beam="2">  1       -2 0.76336024E-01 0.21152321E+04</pdfrwt>
<totfact> 0.67998043E+00</totfact>
</mgrwt>
</event>
<event>
12    1  0.1504874E-007  0.1591754E+04  0.7818608E-02  0.8825630E-01
         -1   -1    0    0    0  501 -0.00000000000E+00  0.00000000000E+00  0.16857166713E+04  0.16857166713E+04  0.00000000000E+00 0.  1.
          1   -1    0    0  501    0  0.00000000000E+00 -0.00000000000E+00 -0.37575701869E+03  0.37575701869E+03  0.00000000000E+00 0. -1.
         23    2    1    2    0    0  0.14190677599E+03 -0.50073180508E+03  0.59199743629E+03  0.79355026252E+03  0.91603389055E+02 0.  0.
        254    2    1    2    0    0 -0.14190677599E+03  0.50073180508E+03  0.71796221632E+03  0.12679234275E+04  0.90625062768E+03 0.  0.
        -24    2    4    4    0    0 -0.26385114394E+03 -0.39392034327E+02  0.64675233080E+03  0.70413538575E+03  0.79680019662E+02 0.  0.
         24    2    4    4    0    0  0.12194436795E+03  0.54012383941E+03  0.71209885519E+02  0.56378804173E+03  0.78625170437E+02 0.  0.
         11    1    3    3    0    0  0.11468533055E+03 -0.47782278710E+03  0.56561034706E+03  0.74925456663E+03  0.00000000000E+00 0.  1.
        -11    1    3    3    0    0  0.27221445438E+02 -0.22909017979E+02  0.26387089230E+02  0.44295695892E+02  0.00000000000E+00 0. -1.
          4    1    6    6  502    0 -0.15105043687E+01  0.82405264541E+02 -0.92386692820E+01  0.82935289579E+02  0.00000000000E+00 0. -1.
          1    1    5    5  503    0 -0.77444902411E+02  0.24724393028E+02  0.18893051925E+03  0.20567875346E+03  0.00000000000E+00 0. -1.
         -4    1    5    5    0  503 -0.18640624153E+03 -0.64116427355E+02  0.45782181156E+03  0.49845663229E+03  0.00000000000E+00 0.  1.
         -3    1    6    6    0  502  0.12345487232E+03  0.45771857487E+03  0.80448554801E+02  0.48085275215E+03  0.00000000000E+00 0.  1.
<mgrwt>
<rscale>  0 0.15917536E+04</rscale>
<asrwt>0</asrwt>
<pdfrwt beam="1">  1        1 0.57808773E-01 0.15917536E+04</pdfrwt>
<pdfrwt beam="2">  1       -1 0.25934102E+00 0.15917536E+04</pdfrwt>
<totfact> 0.37960406E+00</totfact>
</mgrwt>
</event>
<event>
12    1  0.1504874E-007  0.1368797E+04  0.7818608E-02  0.8976720E-01
         -2   -1    0    0    0  501 -0.00000000000E+00  0.00000000000E+00  0.27083557097E+03  0.27083557097E+03  0.00000000000E+00 0.  1.
          2   -1    0    0  501    0  0.00000000000E+00 -0.00000000000E+00 -0.17294668816E+04  0.17294668816E+04  0.00000000000E+00 0. -1.
         23    2    1    2    0    0 -0.21242596147E+03  0.91272609440E+02 -0.86185275024E+03  0.89723557186E+03  0.93733825060E+02 0.  0.
        254    2    1    2    0    0  0.21242596147E+03 -0.91272609440E+02 -0.59677856034E+03  0.11030668807E+04  0.89841884152E+03 0.  0.
        -24    2    4    4    0    0 -0.15280200505E+03 -0.35452615984E+03 -0.49805375224E+03  0.63554179722E+03  0.82574724592E+02 0.  0.
         24    2    4    4    0    0  0.36522796652E+03  0.26325355040E+03 -0.98724808106E+02  0.46752508345E+03  0.78353153039E+02 0.  0.
         11    1    3    3    0    0 -0.20414068093E+03  0.53943672630E+02 -0.72043604100E+03  0.75074058542E+03  0.00000000000E+00 0. -1.
        -11    1    3    3    0    0 -0.82852805397E+01  0.37328936810E+02 -0.14141670924E+03  0.14649498643E+03  0.00000000000E+00 0.  1.
          2    1    6    6  502    0  0.78007074014E+02  0.20157936246E+02 -0.21628118017E+02  0.83421948424E+02  0.00000000000E+00 0. -1.
          3    1    5    5  503    0 -0.47620959973E+01 -0.39395668878E+02 -0.20854812542E+02  0.44828779716E+02  0.00000000000E+00 0. -1.
         -4    1    5    5    0  503 -0.14803990905E+03 -0.31513049096E+03 -0.47719893969E+03  0.59071301751E+03  0.00000000000E+00 0.  1.
         -1    1    6    6    0  502  0.28722089251E+03  0.24309561415E+03 -0.77096690089E+02  0.38410313503E+03  0.00000000000E+00 0.  1.
<mgrwt>
<rscale>  0 0.13687968E+04</rscale>
<asrwt>0</asrwt>
<pdfrwt beam="1">  1        2 0.26607182E+00 0.13687968E+04</pdfrwt>
<pdfrwt beam="2">  1       -2 0.41667011E-01 0.13687968E+04</pdfrwt>
<totfact> 0.50271871E+01</totfact>
</mgrwt>
</event>
<event>
12    1  0.1504874E-007  0.1851173E+04  0.7818608E-02  0.8679550E-01
          2   -1    0    0  501    0  0.00000000000E+00  0.00000000000E+00  0.20542575561E+04  0.20542575561E+04  0.00000000000E+00 0.  1.
         -2   -1    0    0    0  501 -0.00000000000E+00 -0.00000000000E+00 -0.41704115378E+03  0.41704115378E+03  0.00000000000E+00 0. -1.
         23    2    1    2    0    0 -0.63421112775E+03 -0.11654805122E+03  0.25734497040E+03  0.69959605225E+03  0.86029063345E+02 0.  0.
        254    2    1    2    0    0  0.63421112775E+03  0.11654805122E+03  0.13798714320E+04  0.17717026577E+04  0.90502924573E+03 0.  0.
        -24    2    4    4    0    0  0.68328117354E+03  0.23483990452E+03  0.14370813746E+04  0.16104616407E+04  0.79755101033E+02 0.  0.
         24    2    4    4    0    0 -0.49070045792E+02 -0.11829185331E+03 -0.57209942628E+02  0.16124101696E+03  0.79528963657E+02 0.  0.
         13    1    3    3    0    0 -0.43886974969E+03 -0.93500326431E+02  0.13771292327E+03  0.46937598732E+03  0.00000000000E+00 0. -1.
        -13    1    3    3    0    0 -0.19534137805E+03 -0.23047724786E+02  0.11963204713E+03  0.23022006493E+03  0.00000000000E+00 0.  1.
          4    1    6    6  502    0  0.79953722718E+01  0.74227443103E+01  0.18736127075E+01  0.11069486684E+02  0.00000000000E+00 0. -1.
          3    1    5    5  503    0  0.47546101527E+03  0.14496386332E+03  0.10571140815E+04  0.11681471997E+04  0.00000000000E+00 0. -1.
         -4    1    5    5    0  503  0.20782015827E+03  0.89876041204E+02  0.37996729306E+03  0.44231444105E+03  0.00000000000E+00 0.  1.
         -1    1    6    6    0  502 -0.57065418064E+02 -0.12571459762E+03 -0.59083555336E+02  0.15017153027E+03  0.00000000000E+00 0.  1.
<mgrwt>
<rscale>  0 0.18511725E+04</rscale>
<asrwt>0</asrwt>
<pdfrwt beam="1">  1        2 0.31603962E+00 0.18511725E+04</pdfrwt>
<pdfrwt beam="2">  1       -2 0.64160179E-01 0.18511725E+04</pdfrwt>
<totfact> 0.13154509E+01</totfact>
</mgrwt>
</event>
<event>
12    1  0.1504874E-007  0.1526130E+04  0.7818608E-02  0.8867260E-01
          2   -1    0    0  501    0  0.00000000000E+00  0.00000000000E+00  0.19550184124E+04  0.19550184124E+04  0.00000000000E+00 0. -1.
         -2   -1    0    0    0  501 -0.00000000000E+00 -0.00000000000E+00 -0.29783262742E+03  0.29783262742E+03  0.00000000000E+00 0.  1.
         23    2    1    2    0    0  0.29400438766E+03 -0.39603442336E+03  0.49439268686E+03  0.70414774874E+03  0.90100381707E+02 0.  0.
        254    2    1    2    0    0 -0.29400438766E+03  0.39603442336E+03  0.11627930981E+04  0.15487032911E+04  0.89616530301E+03 0.  0.
        -24    2    4    4    0    0  0.20651975327E+03 -0.15150081937E+03  0.22435965380E+03  0.34974761139E+03  0.79895122852E+02 0.  0.
         24    2    4    4    0    0 -0.50052414093E+03  0.54753524274E+03  0.93843344432E+03  0.11989556797E+04  0.80734966155E+02 0.  0.
         13    1    3    3    0    0  0.26797852734E+03 -0.39229357121E+03  0.46709695422E+03  0.66624792815E+03  0.00000000000E+00 0. -1.
        -13    1    3    3    0    0  0.26025860315E+02 -0.37408521533E+01  0.27295732647E+02  0.37899820590E+02  0.00000000000E+00 0.  1.
          2    1    6    6  502    0 -0.22995242543E+03  0.22880288015E+03  0.35116158738E+03  0.47806206331E+03  0.00000000000E+00 0. -1.
          1    1    5    5  503    0  0.17713060596E+03 -0.12239176039E+03  0.22053602180E+03  0.30820631319E+03  0.00000000000E+00 0. -1.
         -4    1    5    5    0  503  0.29389147311E+02 -0.29109058980E+02  0.38236320063E+01  0.41541298199E+02  0.00000000000E+00 0.  1.
         -1    1    6    6    0  502 -0.27057171550E+03  0.31873236259E+03  0.58727185694E+03  0.72089361638E+03  0.00000000000E+00 0.  1.
<mgrwt>
<rscale>  0 0.15261301E+04</rscale>
<asrwt>0</asrwt>
<pdfrwt beam="1">  1        2 0.30077206E+00 0.15261301E+04</pdfrwt>
<pdfrwt beam="2">  1       -2 0.45820405E-01 0.15261301E+04</pdfrwt>
<totfact> 0.30830463E+01</totfact>
</mgrwt>
</event>
<event>
12    1  0.1504874E-007  0.2756495E+04  0.7818608E-02  0.8316904E-01
         -1   -1    0    0    0  501 -0.00000000000E+00  0.00000000000E+00  0.15425417599E+04  0.15425417599E+04  0.00000000000E+00 0.  1.
          1   -1    0    0  501    0  0.00000000000E+00 -0.00000000000E+00 -0.12314522141E+04  0.12314522141E+04  0.00000000000E+00 0. -1.
         23    2    1    2    0    0 -0.55780517149E+03  0.25923755835E+03  0.12094559540E+04  0.13599361660E+04  0.91060144906E+02 0.  0.
        254    2    1    2    0    0  0.55780517149E+03 -0.25923755835E+03 -0.89836640819E+03  0.14140578079E+04  0.90230070360E+03 0.  0.
        -24    2    4    4    0    0  0.19971170453E+03 -0.24417627769E+03  0.10815112530E+03  0.34268993103E+03  0.78948739152E+02 0.  0.
         24    2    4    4    0    0  0.35809346696E+03 -0.15061280657E+02 -0.10065175335E+04  0.10713678769E+04  0.79333530685E+02 0.  0.
         13    1    3    3    0    0 -0.41980749030E+03  0.22914990123E+03  0.88230146808E+03  0.10035954796E+04  0.00000000000E+00 0. -1.
        -13    1    3    3    0    0 -0.13799768119E+03  0.30087657116E+02  0.32715448593E+03  0.35634068640E+03  0.00000000000E+00 0.  1.
          2    1    6    6  502    0  0.20851394031E+03  0.25176401294E+02 -0.52103091375E+03  0.56176963924E+03  0.00000000000E+00 0. -1.
          1    1    5    5  503    0  0.29344305371E+02 -0.72497869158E+02  0.11663318974E+01  0.78220135645E+02  0.00000000000E+00 0. -1.
         -2    1    5    5    0  503  0.17036739916E+03 -0.17167840853E+03  0.10698479341E+03  0.26446979539E+03  0.00000000000E+00 0.  1.
         -3    1    6    6    0  502  0.14957952665E+03 -0.40237681951E+02 -0.48548661974E+03  0.50959823762E+03  0.00000000000E+00 0.  1.
<mgrwt>
<rscale>  0 0.27564952E+04</rscale>
<asrwt>0</asrwt>
<pdfrwt beam="1">  1        1 0.18945419E+00 0.27564952E+04</pdfrwt>
<pdfrwt beam="2">  1       -1 0.23731412E+00 0.27564952E+04</pdfrwt>
<totfact> 0.74372141E-01</totfact>
</mgrwt>
</event>
<event>
12    1  0.1504874E-007  0.1432188E+04  0.7818608E-02  0.8930843E-01
          1   -1    0    0  501    0  0.00000000000E+00  0.00000000000E+00  0.51015838608E+03  0.51015838608E+03  0.00000000000E+00 0. -1.
         -1   -1    0    0    0  501 -0.00000000000E+00 -0.00000000000E+00 -0.10051601829E+04  0.10051601829E+04  0.00000000000E+00 0.  1.
         23    2    1    2    0    0 -0.74500850850E+02 -0.17913848832E+03 -0.55964423096E+03  0.59911453716E+03  0.89975489019E+02 0.  0.
        254    2    1    2    0    0  0.74500850850E+02  0.17913848832E+03  0.64642434131E+02  0.91620403182E+03  0.89309025796E+03 0.  0.
        -24    2    4    4    0    0 -0.10517828689E+03 -0.28454581003E+03 -0.17514525800E+03  0.35845840984E+03  0.76077461502E+02 0.  0.
         24    2    4    4    0    0  0.17967913774E+03  0.46368429835E+03  0.23978769213E+03  0.55774562198E+03  0.79336753561E+02 0.  0.
         13    1    3    3    0    0  0.28750498713E+01  0.80839645557E+01 -0.49155860828E+02  0.49899048572E+02  0.00000000000E+00 0. -1.
        -13    1    3    3    0    0 -0.77375900721E+02 -0.18722245287E+03 -0.51048837013E+03  0.54921548859E+03  0.00000000000E+00 0.  1.
          2    1    6    6  502    0  0.84659701350E+02  0.28900262335E+03  0.11162336433E+03  0.32116904707E+03  0.00000000000E+00 0. -1.
          1    1    5    5  503    0 -0.10612121869E+03 -0.25880153877E+03 -0.17946582978E+03  0.33233707826E+03  0.00000000000E+00 0. -1.
         -2    1    5    5    0  503  0.94293180151E+00 -0.25744271262E+02  0.43205717846E+01  0.26121331585E+02  0.00000000000E+00 0.  1.
         -1    1    6    6    0  502  0.95019436391E+02  0.17468167500E+03  0.12816432780E+03  0.23657657491E+03  0.00000000000E+00 0.  1.
<mgrwt>
<rscale>  0 0.14321884E+04</rscale>
<asrwt>0</asrwt>
<pdfrwt beam="1">  1        1 0.78485906E-01 0.14321884E+04</pdfrwt>
<pdfrwt beam="2">  1       -1 0.15464003E+00 0.14321884E+04</pdfrwt>
<totfact> 0.13464370E+01</totfact>
</mgrwt>
</event>
<event>
12    1  0.1504874E-007  0.1139602E+04  0.7818608E-02  0.9167430E-01
         -1   -1    0    0    0  501 -0.00000000000E+00  0.00000000000E+00  0.57344879454E+03  0.57344879454E+03  0.00000000000E+00 0.  1.
          1   -1    0    0  501    0  0.00000000000E+00 -0.00000000000E+00 -0.56617651598E+03  0.56617651598E+03  0.00000000000E+00 0. -1.
         23    2    1    2    0    0  0.12896641331E+03 -0.17588727767E+02  0.16507658001E+03  0.22554711830E+03  0.81728368370E+02 0.  0.
        254    2    1    2    0    0 -0.12896641331E+03  0.17588727767E+02 -0.15780430145E+03  0.91407819223E+03  0.89089564195E+03 0.  0.
        -24    2    4    4    0    0 -0.38371206564E+03  0.19639718373E+03  0.15561410301E+03  0.46522835770E+03  0.80092900208E+02 0.  0.
         24    2    4    4    0    0  0.25474565232E+03 -0.17880845596E+03 -0.31341840447E+03  0.44884983452E+03  0.79795152693E+02 0.  0.
         13    1    3    3    0    0  0.27297086437E+02  0.20137648760E+02  0.82629821022E+02  0.89321571569E+02  0.00000000000E+00 0. -1.
        -13    1    3    3    0    0  0.10166932688E+03 -0.37726376527E+02  0.82446758992E+02  0.13622554673E+03  0.00000000000E+00 0.  1.
          2    1    6    6  502    0  0.61946281804E+02 -0.62960778560E+02 -0.46569860415E+02  0.99850655308E+02  0.00000000000E+00 0. -1.
          1    1    5    5  503    0 -0.17089432269E+03  0.86296240022E+02  0.27180789854E+02  0.19336676526E+03  0.00000000000E+00 0. -1.
         -2    1    5    5    0  503 -0.21281774295E+03  0.11010094371E+03  0.12843331316E+03  0.27186159245E+03  0.00000000000E+00 0.  1.
         -1    1    6    6    0  502  0.19279937052E+03 -0.11584767740E+03 -0.26684854405E+03  0.34899917922E+03  0.00000000000E+00 0.  1.
<mgrwt>
<rscale>  0 0.11396021E+04</rscale>
<asrwt>0</asrwt>
<pdfrwt beam="1">  1        1 0.87104079E-01 0.11396021E+04</pdfrwt>
<pdfrwt beam="2">  1       -1 0.88222892E-01 0.11396021E+04</pdfrwt>
<totfact> 0.46726430E+01</totfact>
</mgrwt>
</event>
<event>
12    1  0.1504874E-007  0.1540882E+04  0.7818608E-02  0.8857713E-01
         -1   -1    0    0    0  501 -0.00000000000E+00  0.00000000000E+00  0.37815508709E+03  0.37815508709E+03  0.00000000000E+00 0.  1.
          1   -1    0    0  501    0  0.00000000000E+00 -0.00000000000E+00 -0.15696714903E+04  0.15696714903E+04  0.00000000000E+00 0. -1.
         23    2    1    2    0    0  0.33453218613E+03  0.17214130347E+03  0.23770191780E+02  0.38787952901E+03  0.91329595877E+02 0.  0.
        254    2    1    2    0    0 -0.33453218613E+03 -0.17214130347E+03 -0.12152865950E+04  0.15599470484E+04  0.90275626495E+03 0.  0.
        -24    2    4    4    0    0 -0.25110119830E+03 -0.53610481129E+03 -0.77073504038E+03  0.97512477044E+03  0.79847573479E+02 0.  0.
         24    2    4    4    0    0 -0.83430987832E+02  0.36396350781E+03 -0.44455155463E+03  0.58482227797E+03  0.70433282855E+02 0.  0.
         11    1    3    3    0    0  0.20231165730E+03  0.15203783916E+03  0.23255734769E+02  0.25413842766E+03  0.00000000000E+00 0.  1.
        -11    1    3    3    0    0  0.13222052884E+03  0.20103464320E+02  0.51445701093E+00  0.13374110135E+03  0.00000000000E+00 0. -1.
          2    1    6    6  502    0 -0.26424905609E+02  0.88070386468E+02 -0.15911794711E+03  0.18377483424E+03  0.00000000000E+00 0. -1.
          1    1    5    5  503    0 -0.65316250988E+02 -0.98441024732E+02 -0.11256093314E+03  0.16317724003E+03  0.00000000000E+00 0. -1.
         -2    1    5    5    0  503 -0.18578494731E+03 -0.43766378655E+03 -0.65817410724E+03  0.81194753041E+03  0.00000000000E+00 0.  1.
         -3    1    6    6    0  502 -0.57006082223E+02  0.27589312134E+03 -0.28543360752E+03  0.40104744373E+03  0.00000000000E+00 0.  1.
<mgrwt>
<rscale>  0 0.15408819E+04</rscale>
<asrwt>0</asrwt>
<pdfrwt beam="1">  1        1 0.24148792E+00 0.15408819E+04</pdfrwt>
<pdfrwt beam="2">  1       -1 0.58177706E-01 0.15408819E+04</pdfrwt>
<totfact> 0.16897547E+01</totfact>
</mgrwt>
</event>
<event>
12    1  0.1504874E-007  0.1726558E+04  0.7818608E-02  0.8746361E-01
          1   -1    0    0  501    0  0.00000000000E+00  0.00000000000E+00  0.10254755520E+04  0.10254755520E+04  0.00000000000E+00 0. -1.
         -1   -1    0    0    0  501 -0.00000000000E+00 -0.00000000000E+00 -0.72673626135E+03  0.72673626135E+03  0.00000000000E+00 0.  1.
         23    2    1    2    0    0  0.79364358438E+02  0.59759556951E+03  0.30343593615E+03  0.68116479116E+03  0.92157144470E+02 0.  0.
        254    2    1    2    0    0 -0.79364358438E+02 -0.59759556951E+03 -0.46966454573E+01  0.10710470222E+04  0.88526860290E+03 0.  0.
        -24    2    4    4    0    0 -0.28950371569E+03 -0.74097951541E+03  0.35398799851E+02  0.80023130850E+03  0.79082415386E+02 0.  0.
         24    2    4    4    0    0  0.21013935725E+03  0.14338394590E+03 -0.40095445309E+02  0.27081571373E+03  0.83761570325E+02 0.  0.
         11    1    3    3    0    0  0.84859847372E+02  0.35367344488E+03  0.20941877739E+03  0.41969313032E+03  0.00000000000E+00 0. -1.
        -11    1    3    3    0    0 -0.54954889338E+01  0.24392212463E+03  0.94017158759E+02  0.26147166084E+03  0.00000000000E+00 0.  1.
          2    1    6    6  502    0  0.10468503950E+03  0.11286683381E+03  0.13732843152E-02  0.15394115652E+03  0.00000000000E+00 0. -1.
          1    1    5    5  503    0 -0.23570685741E+03 -0.67079458352E+03  0.29914922335E+02  0.71163052105E+03  0.00000000000E+00 0. -1.
         -2    1    5    5    0  503 -0.53796858276E+02 -0.70184931890E+02  0.54838775168E+01  0.88600787454E+02  0.00000000000E+00 0.  1.
         -3    1    6    6    0  502  0.10545431775E+03  0.30517112090E+02 -0.40096818593E+02  0.11687455721E+03  0.00000000000E+00 0.  1.
<mgrwt>
<rscale>  0 0.17265576E+04</rscale>
<asrwt>0</asrwt>
<pdfrwt beam="1">  1        1 0.15776547E+00 0.17265576E+04</pdfrwt>
<pdfrwt beam="2">  1       -1 0.11180558E+00 0.17265576E+04</pdfrwt>
<totfact> 0.10079518E+01</totfact>
</mgrwt>
</event>
<event>
12    1  0.1504874E-007  0.1371606E+04  0.7818608E-02  0.8974632E-01
         -1   -1    0    0    0  501 -0.00000000000E+00  0.00000000000E+00  0.90073064078E+03  0.90073064078E+03  0.00000000000E+00 0.  1.
          1   -1    0    0  501    0  0.00000000000E+00 -0.00000000000E+00 -0.52216022745E+03  0.52216022745E+03  0.00000000000E+00 0. -1.
         23    2    1    2    0    0 -0.21611947775E+03 -0.15485534079E+03 -0.13801578157E+03  0.31321150888E+03  0.91461948920E+02 0.  0.
        254    2    1    2    0    0  0.21611947775E+03  0.15485534079E+03  0.51658619489E+03  0.11096793593E+04  0.94543068417E+03 0.  0.
        -24    2    4    4    0    0  0.29283183955E+03  0.46034160005E+03  0.69700042949E+02  0.55695161410E+03  0.87590692848E+02 0.  0.
         24    2    4    4    0    0 -0.76712361803E+02 -0.30548625926E+03  0.44688615194E+03  0.55272774524E+03  0.81203980921E+02 0.  0.
         11    1    3    3    0    0 -0.76695326857E+02 -0.47448354577E+02 -0.97096986886E+02  0.13251922267E+03  0.00000000000E+00 0. -1.
        -11    1    3    3    0    0 -0.13942415089E+03 -0.10740698621E+03 -0.40918794680E+02  0.18069228621E+03  0.00000000000E+00 0.  1.
          2    1    6    6  502    0 -0.33762193848E+02 -0.93631211497E+02  0.20780964277E+03  0.23041600884E+03  0.00000000000E+00 0. -1.
          1    1    5    5  503    0  0.12800387321E+03  0.26125506150E+03  0.66670682701E+02  0.29846972820E+03  0.00000000000E+00 0. -1.
         -2    1    5    5    0  503  0.16482796634E+03  0.19908653855E+03  0.30293602482E+01  0.25848188591E+03  0.00000000000E+00 0.  1.
         -1    1    6    6    0  502 -0.42950167955E+02 -0.21185504776E+03  0.23907650917E+03  0.32231173641E+03  0.00000000000E+00 0.  1.
<mgrwt>
<rscale>  0 0.13716059E+04</rscale>
<asrwt>0</asrwt>
<pdfrwt beam="1">  1        1 0.80332343E-01 0.13716059E+04</pdfrwt>
<pdfrwt beam="2">  1       -1 0.13857394E+00 0.13716059E+04</pdfrwt>
<totfact> 0.17559373E+01</totfact>
</mgrwt>
</event>
<event>
12    1  0.1504874E-007  0.1489639E+04  0.7818608E-02  0.8891372E-01
          2   -1    0    0  501    0  0.00000000000E+00  0.00000000000E+00  0.21498683649E+04  0.21498683649E+04  0.00000000000E+00 0. -1.
         -2   -1    0    0    0  501 -0.00000000000E+00 -0.00000000000E+00 -0.25804199236E+03  0.25804199236E+03  0.00000000000E+00 0.  1.
         23    2    1    2    0    0 -0.17042741906E+03  0.42680054336E+03  0.47413886987E+03  0.66669843235E+03  0.92059343937E+02 0.  0.
        254    2    1    2    0    0  0.17042741906E+03 -0.42680054336E+03  0.14176875026E+04  0.17412119249E+04  0.90043150944E+03 0.  0.
        -24    2    4    4    0    0  0.49959819768E+03 -0.13000323287E+03  0.52131994278E+03  0.73806330518E+03  0.80397512628E+02 0.  0.
         24    2    4    4    0    0 -0.32917077862E+03 -0.29679731049E+03  0.89636755986E+03  0.10031486197E+04  0.79939388257E+02 0.  0.
         11    1    3    3    0    0 -0.13830097808E+03  0.40744767298E+03  0.42399249875E+03  0.60407814539E+03  0.00000000000E+00 0.  1.
        -11    1    3    3    0    0 -0.32126440980E+02  0.19352870380E+02  0.50146371121E+02  0.62620286957E+02  0.00000000000E+00 0. -1.
          2    1    6    6  502    0 -0.14769975423E+03 -0.94091411422E+02  0.29431841008E+03  0.34247881338E+03  0.00000000000E+00 0. -1.
          3    1    5    5  503    0  0.63515397921E+02 -0.18040073125E+02  0.10968148074E+03  0.12802217475E+03  0.00000000000E+00 0. -1.
         -4    1    5    5    0  503  0.43608279976E+03 -0.11196315974E+03  0.41163846204E+03  0.61004113043E+03  0.00000000000E+00 0.  1.
         -1    1    6    6    0  502 -0.18147102439E+03 -0.20270589907E+03  0.60204914978E+03  0.66066980630E+03  0.00000000000E+00 0.  1.
<mgrwt>
<rscale>  0 0.14896393E+04</rscale>
<asrwt>0</asrwt>
<pdfrwt beam="1">  1        2 0.33074897E+00 0.14896393E+04</pdfrwt>
<pdfrwt beam="2">  1       -2 0.39698770E-01 0.14896393E+04</pdfrwt>
<totfact> 0.32009064E+01</totfact>
</mgrwt>
</event>
<event>
12    1  0.1504874E-007  0.2970808E+04  0.7818608E-02  0.8252116E-01
          2   -1    0    0  501    0  0.00000000000E+00  0.00000000000E+00  0.13260669283E+04  0.13260669283E+04  0.00000000000E+00 0. -1.
         -2   -1    0    0    0  501 -0.00000000000E+00 -0.00000000000E+00 -0.16638861005E+04  0.16638861005E+04  0.00000000000E+00 0.  1.
         23    2    1    2    0    0 -0.79538182421E+03  0.10657712858E+04  0.85641887822E+02  0.13352119433E+04  0.83400963535E+02 0.  0.
        254    2    1    2    0    0  0.79538182421E+03 -0.10657712858E+04 -0.42346106002E+03  0.16547410856E+04  0.88901524793E+03 0.  0.
        -24    2    4    4    0    0 -0.17022195110E+03 -0.90479788190E+02  0.20017022088E+02  0.21023984978E+03  0.81473974721E+02 0.  0.
         24    2    4    4    0    0  0.96560377531E+03 -0.97529149759E+03 -0.44347808211E+03  0.14445012358E+04  0.79541528359E+02 0.  0.
         11    1    3    3    0    0 -0.17984691578E+03  0.19525800889E+03 -0.19424353521E+01  0.26547010417E+03  0.00000000000E+00 0.  1.
        -11    1    3    3    0    0 -0.61553490843E+03  0.87051327688E+03  0.87584323175E+02  0.10697418391E+04  0.00000000000E+00 0. -1.
          2    1    6    6  502    0  0.75808485114E+03 -0.80377257968E+03 -0.37398089713E+03  0.11664496186E+04  0.00000000000E+00 0. -1.
          1    1    5    5  503    0 -0.13487911389E+03 -0.90753710457E+02 -0.11377047238E+02  0.16296640307E+03  0.00000000000E+00 0. -1.
         -2    1    5    5    0  503 -0.35342837206E+02  0.27392226721E+00  0.31394069325E+02  0.47273446711E+02  0.00000000000E+00 0.  1.
         -1    1    6    6    0  502  0.20751892417E+03 -0.17151891791E+03 -0.69497184979E+02  0.27805161717E+03  0.00000000000E+00 0.  1.
<mgrwt>
<rscale>  0 0.29708075E+04</rscale>
<asrwt>0</asrwt>
<pdfrwt beam="1">  1        2 0.20401030E+00 0.29708075E+04</pdfrwt>
<pdfrwt beam="2">  1       -2 0.25598247E+00 0.29708075E+04</pdfrwt>
<totfact> 0.80881163E-01</totfact>
</mgrwt>
</event>
<event>
12    1  0.1504874E-007  0.1071173E+04  0.7818608E-02  0.9233753E-01
          1   -1    0    0  501    0  0.00000000000E+00  0.00000000000E+00  0.41071762742E+03  0.41071762742E+03  0.00000000000E+00 0. -1.
         -1   -1    0    0    0  501 -0.00000000000E+00 -0.00000000000E+00 -0.69841865269E+03  0.69841865269E+03  0.00000000000E+00 0.  1.
         23    2    1    2    0    0 -0.61358593944E+02  0.42734843019E+02 -0.14723568876E+03  0.18783270610E+03  0.89507729160E+02 0.  0.
        254    2    1    2    0    0  0.61358593944E+02 -0.42734843019E+02 -0.14046533652E+03  0.92130357401E+03  0.90745722812E+03 0.  0.
        -24    2    4    4    0    0  0.10964363750E+03 -0.44623061863E+03 -0.19121847180E+03  0.50386402100E+03  0.78555429139E+02 0.  0.
         24    2    4    4    0    0 -0.48285043552E+02  0.40349577561E+03  0.50753135282E+02  0.41743955301E+03  0.80867875650E+02 0.  0.
         13    1    3    3    0    0  0.90260154256E+01  0.11527296786E+02  0.64047017318E+01  0.15980229346E+02  0.00000000000E+00 0. -1.
        -13    1    3    3    0    0 -0.70384609370E+02  0.31207546232E+02 -0.15364039049E+03  0.17185247676E+03  0.00000000000E+00 0.  1.
          4    1    6    6  502    0 -0.42286513662E+02  0.27297391211E+03 -0.27664067241E+01  0.27624365863E+03  0.00000000000E+00 0. -1.
          1    1    5    5  503    0  0.98061566263E+02 -0.43036523881E+03 -0.19703644141E+03  0.48337735652E+03  0.00000000000E+00 0. -1.
         -2    1    5    5    0  503  0.11582071233E+02 -0.15865379818E+02  0.58179696063E+01  0.20486664471E+02  0.00000000000E+00 0.  1.
         -3    1    6    6    0  502 -0.59985298905E+01  0.13052186351E+03  0.53519542006E+02  0.14119589438E+03  0.00000000000E+00 0.  1.
<mgrwt>
<rscale>  0 0.10711729E+04</rscale>
<asrwt>0</asrwt>
<pdfrwt beam="1">  1        1 0.63187327E-01 0.10711729E+04</pdfrwt>
<pdfrwt beam="2">  1       -1 0.10744902E+00 0.10711729E+04</pdfrwt>
<totfact> 0.46659316E+01</totfact>
</mgrwt>
</event>
<event>
12    1  0.1504874E-007  0.1416090E+04  0.7818608E-02  0.8942253E-01
         -2   -1    0    0    0  501 -0.00000000000E+00  0.00000000000E+00  0.17025569240E+03  0.17025569240E+03  0.00000000000E+00 0.  1.
          2   -1    0    0  501    0  0.00000000000E+00 -0.00000000000E+00 -0.29445585158E+04  0.29445585158E+04  0.00000000000E+00 0. -1.
         23    2    1    2    0    0 -0.12656899856E+03 -0.19342929099E+03 -0.72711439506E+02  0.25844297684E+03  0.89839951209E+02 0.  0.
        254    2    1    2    0    0  0.12656899856E+03  0.19342929099E+03 -0.27015913839E+04  0.28563712314E+04  0.89823493796E+03 0.  0.
        -24    2    4    4    0    0 -0.17880249331E+03 -0.28361813894E+03 -0.12456348848E+04  0.12921642761E+04  0.75317128579E+02 0.  0.
         24    2    4    4    0    0  0.30537149188E+03  0.47704742993E+03 -0.14559564991E+04  0.15642069553E+04  0.78154162716E+02 0.  0.
         13    1    3    3    0    0 -0.60786639757E+02 -0.42211276342E+02 -0.55773532809E+02  0.92668734670E+02  0.00000000000E+00 0. -1.
        -13    1    3    3    0    0 -0.65782358807E+02 -0.15121801465E+03 -0.16937906697E+02  0.16577424217E+03  0.00000000000E+00 0.  1.
          2    1    6    6  502    0  0.30239764482E+03  0.43741044211E+03 -0.13663425097E+04  0.14661732791E+04  0.00000000000E+00 0. -1.
          3    1    5    5  503    0 -0.83756795211E+02 -0.19467864551E+03 -0.71118562009E+03  0.74209161294E+03  0.00000000000E+00 0. -1.
         -2    1    5    5    0  503 -0.95045698104E+02 -0.88939493430E+02 -0.53444926473E+03  0.55007266319E+03  0.00000000000E+00 0.  1.
         -1    1    6    6    0  502  0.29738470563E+01  0.39636987819E+02 -0.89613989428E+02  0.98033676208E+02  0.00000000000E+00 0.  1.
<mgrwt>
<rscale>  0 0.14160902E+04</rscale>
<asrwt>0</asrwt>
<pdfrwt beam="1">  1        2 0.45300896E+00 0.14160902E+04</pdfrwt>
<pdfrwt beam="2">  1       -2 0.26193186E-01 0.14160902E+04</pdfrwt>
<totfact> 0.24353052E+01</totfact>
</mgrwt>
</event>
<event>
12    1  0.1504874E-007  0.1656056E+04  0.7818608E-02  0.8786832E-01
         -1   -1    0    0    0  501 -0.00000000000E+00  0.00000000000E+00  0.10736548574E+04  0.10736548574E+04  0.00000000000E+00 0.  1.
          1   -1    0    0  501    0  0.00000000000E+00 -0.00000000000E+00 -0.63859494713E+03  0.63859494713E+03  0.00000000000E+00 0. -1.
         23    2    1    2    0    0  0.38275274705E+03  0.33634032048E+03 -0.12391800032E+03  0.53331229647E+03  0.97169224558E+02 0.  0.
        254    2    1    2    0    0 -0.38275274705E+03 -0.33634032048E+03  0.55897791064E+03  0.11789375081E+04  0.90433006523E+03 0.  0.
        -24    2    4    4    0    0 -0.45136114823E+03 -0.32305235176E+03 -0.47607198812E+02  0.56307455398E+03  0.81833977345E+02 0.  0.
         24    2    4    4    0    0  0.68608401181E+02 -0.13287968720E+02  0.60658510946E+03  0.61586295413E+03  0.80361685106E+02 0.  0.
         11    1    3    3    0    0  0.29528275496E+02  0.29700832166E+01  0.65587710882E+01  0.30393386226E+02  0.00000000000E+00 0.  1.
        -11    1    3    3    0    0  0.35322447155E+03  0.33337023727E+03 -0.13047677141E+03  0.50291891024E+03  0.00000000000E+00 0. -1.
          4    1    6    6  502    0  0.36245200916E+02  0.29362340894E+02  0.18060715547E+03  0.18653365985E+03  0.00000000000E+00 0. -1.
          1    1    5    5  503    0 -0.21698111209E+03 -0.10551156319E+03 -0.19225853956E+02  0.24203951420E+03  0.00000000000E+00 0. -1.
         -2    1    5    5    0  503 -0.23438003614E+03 -0.21754078857E+03 -0.28381344856E+02  0.32103503978E+03  0.00000000000E+00 0.  1.
         -3    1    6    6    0  502  0.32363200264E+02 -0.42650309614E+02  0.42597795399E+03  0.42932929428E+03  0.00000000000E+00 0.  1.
<mgrwt>
<rscale>  0 0.16560562E+04</rscale>
<asrwt>0</asrwt>
<pdfrwt beam="1">  1        1 0.98245377E-01 0.16560562E+04</pdfrwt>
<pdfrwt beam="2">  1       -1 0.16517767E+00 0.16560562E+04</pdfrwt>
<totfact> 0.79777628E+00</totfact>
</mgrwt>
</event>
<event>
12    1  0.1504874E-007  0.1719354E+04  0.7818608E-02  0.8750402E-01
         -1   -1    0    0    0  501 -0.00000000000E+00  0.00000000000E+00  0.61523004948E+03  0.61523004948E+03  0.00000000000E+00 0.  1.
          1   -1    0    0  501    0  0.00000000000E+00 -0.00000000000E+00 -0.12012491957E+04  0.12012491957E+04  0.00000000000E+00 0. -1.
         23    2    1    2    0    0  0.15490289132E+03 -0.59785165464E+03 -0.27848502856E+03  0.68345268717E+03  0.90178477359E+02 0.  0.
        254    2    1    2    0    0 -0.15490289132E+03  0.59785165464E+03 -0.30753411770E+03  0.11330265580E+04  0.89874937608E+03 0.  0.
        -24    2    4    4    0    0 -0.40044382869E+03  0.22292491509E+03 -0.45891053907E+03  0.65307255287E+03  0.76512082291E+02 0.  0.
         24    2    4    4    0    0  0.24554093737E+03  0.37492673955E+03  0.15137642136E+03  0.47995400518E+03  0.81120984899E+02 0.  0.
         11    1    3    3    0    0  0.11932432745E+03 -0.29137104283E+03 -0.12395058037E+03  0.33837719500E+03  0.00000000000E+00 0.  1.
        -11    1    3    3    0    0  0.35578563867E+02 -0.30648061180E+03 -0.15453444819E+03  0.34507549217E+03  0.00000000000E+00 0. -1.
          4    1    6    6  502    0  0.17719620382E+03  0.19763382260E+03  0.86781586232E+02  0.27926450937E+03  0.00000000000E+00 0. -1.
          1    1    5    5  503    0 -0.27680983252E+03  0.19287478620E+03 -0.32923685384E+03  0.47140351341E+03  0.00000000000E+00 0. -1.
         -2    1    5    5    0  503 -0.12363399617E+03  0.30050128886E+02 -0.12967368523E+03  0.18166903945E+03  0.00000000000E+00 0.  1.
         -3    1    6    6    0  502  0.68344733552E+02  0.17729291695E+03  0.64594835131E+02  0.20068949581E+03  0.00000000000E+00 0.  1.
<mgrwt>
<rscale>  0 0.17193541E+04</rscale>
<asrwt>0</asrwt>
<pdfrwt beam="1">  1        1 0.18480757E+00 0.17193541E+04</pdfrwt>
<pdfrwt beam="2">  1       -1 0.94650777E-01 0.17193541E+04</pdfrwt>
<totfact> 0.10938964E+01</totfact>
</mgrwt>
</event>
<event>
12    1  0.1504874E-007  0.1934829E+04  0.7818608E-02  0.8637711E-01
         -1   -1    0    0    0  501 -0.00000000000E+00  0.00000000000E+00  0.13608511205E+04  0.13608511205E+04  0.00000000000E+00 0.  1.
          1   -1    0    0  501    0  0.00000000000E+00 -0.00000000000E+00 -0.68772473359E+03  0.68772473359E+03  0.00000000000E+00 0. -1.
         23    2    1    2    0    0  0.65877804802E+03 -0.11629001667E+03 -0.16223507736E+03  0.69455958212E+03  0.92633191989E+02 0.  0.
        254    2    1    2    0    0 -0.65877804802E+03  0.11629001667E+03  0.83536146425E+03  0.13540162719E+04  0.82946935096E+03 0.  0.
        -24    2    4    4    0    0 -0.77916057054E+03  0.26571046548E+03  0.52534755365E+03  0.97981991481E+03  0.79773223433E+02 0.  0.
         24    2    4    4    0    0  0.12038252252E+03 -0.14942044880E+03  0.31001391060E+03  0.37419635713E+03  0.84236967395E+02 0.  0.
         13    1    3    3    0    0  0.66023425354E+03 -0.11309030891E+03 -0.16524581695E+03  0.68993105999E+03  0.00000000000E+00 0. -1.
        -13    1    3    3    0    0 -0.14562055174E+01 -0.31997077676E+01  0.30107395865E+01  0.46285221361E+01  0.00000000000E+00 0.  1.
          2    1    6    6  502    0  0.99140961454E+02 -0.72527031349E+02  0.23255811767E+03  0.26300642313E+03  0.00000000000E+00 0. -1.
          1    1    5    5  503    0 -0.64228053018E+03  0.20468439929E+03  0.39575140107E+03  0.78168993483E+03  0.00000000000E+00 0. -1.
         -2    1    5    5    0  503 -0.13688004036E+03  0.61026066185E+02  0.12959615258E+03  0.19812997998E+03  0.00000000000E+00 0.  1.
         -1    1    6    6    0  502  0.21241561064E+02 -0.76893417453E+02  0.77455792928E+02  0.11118993400E+03  0.00000000000E+00 0.  1.
<mgrwt>
<rscale>  0 0.19348292E+04</rscale>
<asrwt>0</asrwt>
<pdfrwt beam="1">  1        1 0.10580381E+00 0.19348292E+04</pdfrwt>
<pdfrwt beam="2">  1       -1 0.20936171E+00 0.19348292E+04</pdfrwt>
<totfact> 0.33893924E+00</totfact>
</mgrwt>
</event>
<event>
12    1  0.1504874E-007  0.1310441E+04  0.7818608E-02  0.9021326E-01
         -2   -1    0    0    0  501 -0.00000000000E+00  0.00000000000E+00  0.50069801801E+03  0.50069801801E+03  0.00000000000E+00 0. -1.
          2   -1    0    0  501    0  0.00000000000E+00 -0.00000000000E+00 -0.85743014997E+03  0.85743014997E+03  0.00000000000E+00 0.  1.
         23    2    1    2    0    0 -0.12403817526E+03  0.23918180466E+03  0.10738040051E+03  0.30374367497E+03  0.90201247610E+02 0.  0.
        254    2    1    2    0    0  0.12403817526E+03 -0.23918180466E+03 -0.46411253247E+03  0.10543844930E+04  0.90759727397E+03 0.  0.
        -24    2    4    4    0    0 -0.24547309971E+03 -0.19233586233E+03  0.13109678165E+03  0.34777526419E+03  0.80691645173E+02 0.  0.
         24    2    4    4    0    0  0.36951127497E+03 -0.46845942322E+02 -0.59520931412E+03  0.70660922882E+03  0.79305422249E+02 0.  0.
         11    1    3    3    0    0  0.51311063814E+01 -0.31546154812E+01  0.11306795767E+02  0.12811068731E+02  0.00000000000E+00 0.  1.
        -11    1    3    3    0    0 -0.12916928164E+03  0.24233642014E+03  0.96073604747E+02  0.29093260624E+03  0.00000000000E+00 0. -1.
          2    1    6    6  502    0  0.25808211172E+03 -0.55454985383E+02 -0.36222531553E+03  0.44820621482E+03  0.00000000000E+00 0. -1.
          1    1    5    5  503    0 -0.29775014543E+02 -0.39201381868E+02 -0.64075460043E+01  0.49642285173E+02  0.00000000000E+00 0. -1.
         -4    1    5    5    0  503 -0.21569808517E+03 -0.15313448047E+03  0.13750432766E+03  0.29813297902E+03  0.00000000000E+00 0.  1.
         -1    1    6    6    0  502  0.11142916325E+03  0.86090430602E+01 -0.23298399859E+03  0.25840301400E+03  0.00000000000E+00 0.  1.
<mgrwt>
<rscale>  0 0.13104405E+04</rscale>
<asrwt>0</asrwt>
<pdfrwt beam="1">  1        2 0.13191233E+00 0.13104405E+04</pdfrwt>
<pdfrwt beam="2">  1       -2 0.77030465E-01 0.13104405E+04</pdfrwt>
<totfact> 0.46237566E+01</totfact>
</mgrwt>
</event>
<event>
12    1  0.1504874E-007  0.1879432E+04  0.7818608E-02  0.8665163E-01
         -1   -1    0    0    0  501 -0.00000000000E+00  0.00000000000E+00  0.25161932507E+03  0.25161932507E+03  0.00000000000E+00 0.  1.
          1   -1    0    0  501    0  0.00000000000E+00 -0.00000000000E+00 -0.35095310581E+04  0.35095310581E+04  0.00000000000E+00 0. -1.
         23    2    1    2    0    0 -0.19044386177E+03 -0.21774571904E+03  0.53321936600E+02  0.30937354496E+03  0.95847267817E+02 0.  0.
        254    2    1    2    0    0  0.19044386177E+03  0.21774571904E+03 -0.33112336697E+04  0.34517768383E+04  0.93102785316E+03 0.  0.
        -24    2    4    4    0    0 -0.68043437647E+02 -0.32853973772E+03 -0.15671244576E+04  0.16045837826E+04  0.79004944494E+02 0.  0.
         24    2    4    4    0    0  0.25848729942E+03  0.54628545676E+03 -0.17441092121E+04  0.18471930556E+04  0.70439739186E+02 0.  0.
         13    1    3    3    0    0 -0.78459626863E+02 -0.59535955167E+02 -0.22858580134E+02  0.10110864301E+03  0.00000000000E+00 0. -1.
        -13    1    3    3    0    0 -0.11198423491E+03 -0.15820976388E+03  0.76180516734E+02  0.20826490195E+03  0.00000000000E+00 0.  1.
          4    1    6    6  502    0  0.60465240888E+02  0.70401231471E+02 -0.24939519806E+03  0.26610212995E+03  0.00000000000E+00 0. -1.
          1    1    5    5  503    0 -0.20897828780E+02 -0.92530483259E+02 -0.29446418432E+03  0.30936671674E+03  0.00000000000E+00 0. -1.
         -2    1    5    5    0  503 -0.47145608868E+02 -0.23600925446E+03 -0.12726602733E+04  0.12952170659E+04  0.00000000000E+00 0.  1.
         -3    1    6    6    0  502  0.19802205853E+03  0.47588422529E+03 -0.14947140140E+04  0.15810909257E+04  0.00000000000E+00 0.  1.
<mgrwt>
<rscale>  0 0.18794317E+04</rscale>
<asrwt>0</asrwt>
<pdfrwt beam="1">  1        1 0.53992779E+00 0.18794317E+04</pdfrwt>
<pdfrwt beam="2">  1       -1 0.38710670E-01 0.18794317E+04</pdfrwt>
<totfact> 0.14971137E+00</totfact>
</mgrwt>
</event>
<event>
12    1  0.1504874E-007  0.1170434E+04  0.7818608E-02  0.9139136E-01
          2   -1    0    0  501    0  0.00000000000E+00  0.00000000000E+00  0.30378646814E+04  0.30378646814E+04  0.00000000000E+00 0.  1.
         -2   -1    0    0    0  501 -0.00000000000E+00 -0.00000000000E+00 -0.11273677799E+03  0.11273677799E+03  0.00000000000E+00 0. -1.
         23    2    1    2    0    0  0.88344412042E+02  0.18113643112E+03  0.89634037022E+03  0.92341160087E+03  0.92993459582E+02 0.  0.
        254    2    1    2    0    0 -0.88344412042E+02 -0.18113643112E+03  0.20287875332E+04  0.22271898586E+04  0.89653815831E+03 0.  0.
        -24    2    4    4    0    0  0.21027159650E+03  0.22599828574E+03  0.35546111396E+03  0.47750159080E+03  0.79785940063E+02 0.  0.
         24    2    4    4    0    0 -0.29861600854E+03 -0.40713471685E+03  0.16733264193E+04  0.17496882678E+04  0.80358762511E+02 0.  0.
         11    1    3    3    0    0  0.29562039844E+02  0.36827803895E+02  0.84946710829E+02  0.97191280577E+02  0.00000000000E+00 0. -1.
        -11    1    3    3    0    0  0.58782372198E+02  0.14430862722E+03  0.81139365939E+03  0.82622032029E+03  0.00000000000E+00 0.  1.
          4    1    6    6  502    0 -0.17205331838E+03 -0.20556606716E+03  0.76128152796E+03  0.80709932297E+03  0.00000000000E+00 0. -1.
          1    1    5    5  503    0  0.59890893061E+02  0.34866465320E+02  0.43027869243E+02  0.81571974398E+02  0.00000000000E+00 0. -1.
         -2    1    5    5    0  503  0.15038070343E+03  0.19113182042E+03  0.31243324472E+03  0.39592961641E+03  0.00000000000E+00 0.  1.
         -3    1    6    6    0  502 -0.12656269015E+03 -0.20156864969E+03  0.91204489131E+03  0.94258894479E+03  0.00000000000E+00 0.  1.
<mgrwt>
<rscale>  0 0.11704342E+04</rscale>
<asrwt>0</asrwt>
<pdfrwt beam="1">  1        2 0.46736374E+00 0.11704342E+04</pdfrwt>
<pdfrwt beam="2">  1       -2 0.17344122E-01 0.11704342E+04</pdfrwt>
<totfact> 0.45378889E+01</totfact>
</mgrwt>
</event>
<event>
12    1  0.1504874E-007  0.1269262E+04  0.7818608E-02  0.9054302E-01
         -2   -1    0    0    0  501 -0.00000000000E+00  0.00000000000E+00  0.35378327945E+03  0.35378327945E+03  0.00000000000E+00 0.  1.
          2   -1    0    0  501    0  0.00000000000E+00 -0.00000000000E+00 -0.11384274637E+04  0.11384274637E+04  0.00000000000E+00 0. -1.
         23    2    1    2    0    0  0.26997514705E+03 -0.26000825525E+02 -0.35064257227E+02  0.28872591768E+03  0.92577159456E+02 0.  0.
        254    2    1    2    0    0 -0.26997514705E+03  0.26000825525E+02 -0.74957992706E+03  0.12034848255E+04  0.90163353709E+03 0.  0.
        -24    2    4    4    0    0 -0.39075580528E+03  0.37479575275E+03 -0.33234991623E+03  0.64028141576E+03  0.79635851959E+02 0.  0.
         24    2    4    4    0    0  0.12078065822E+03 -0.34879492722E+03 -0.41723001083E+03  0.56320340974E+03  0.82893486771E+02 0.  0.
         11    1    3    3    0    0  0.18607604398E+02  0.23383304449E+02 -0.91131654582E+01  0.31242145462E+02  0.00000000000E+00 0. -1.
        -11    1    3    3    0    0  0.25136754266E+03 -0.49384129974E+02 -0.25951091769E+02  0.25748377222E+03  0.00000000000E+00 0.  1.
          2    1    6    6  502    0  0.29697558322E+02 -0.35346351260E+02 -0.89207649198E+02  0.10044557827E+03  0.00000000000E+00 0. -1.
          1    1    5    5  503    0 -0.60027315550E+02  0.24017738055E+02 -0.48463642234E+02  0.80801330262E+02  0.00000000000E+00 0. -1.
         -2    1    5    5    0  503 -0.33072848972E+03  0.35077801469E+03 -0.28388627400E+03  0.55948008550E+03  0.00000000000E+00 0.  1.
         -1    1    6    6    0  502  0.91083099899E+02 -0.31344857596E+03 -0.32802236163E+03  0.46275783147E+03  0.00000000000E+00 0.  1.
<mgrwt>
<rscale>  0 0.12692622E+04</rscale>
<asrwt>0</asrwt>
<pdfrwt beam="1">  1        2 0.17514269E+00 0.12692622E+04</pdfrwt>
<pdfrwt beam="2">  1       -2 0.54428197E-01 0.12692622E+04</pdfrwt>
<totfact> 0.64389390E+01</totfact>
</mgrwt>
</event>
<event>
12    1  0.1504874E-007  0.2103675E+04  0.7818608E-02  0.8559626E-01
          1   -1    0    0  501    0  0.00000000000E+00  0.00000000000E+00  0.56791282438E+03  0.56791282438E+03  0.00000000000E+00 0.  1.
         -1   -1    0    0    0  501 -0.00000000000E+00 -0.00000000000E+00 -0.19481188146E+04  0.19481188146E+04  0.00000000000E+00 0. -1.
         23    2    1    2    0    0 -0.69351140186E+03  0.32874195886E+03 -0.10952514112E+03  0.77928981000E+03  0.79167615933E+02 0.  0.
        254    2    1    2    0    0  0.69351140186E+03 -0.32874195886E+03 -0.12706808490E+04  0.17367418289E+04  0.90145050902E+03 0.  0.
        -24    2    4    4    0    0  0.43534372674E+03  0.10540137737E+03 -0.11135029284E+03  0.46952626104E+03  0.86153417421E+02 0.  0.
         24    2    4    4    0    0  0.25816767512E+03 -0.43414333623E+03 -0.11593305562E+04  0.12672155679E+04  0.81590269505E+02 0.  0.
         11    1    3    3    0    0 -0.44345929857E+02  0.21323729676E+02  0.12384129916E+02  0.50740808192E+02  0.00000000000E+00 0.  1.
        -11    1    3    3    0    0 -0.64916547200E+03  0.30741822919E+03 -0.12190927104E+03  0.72854900181E+03  0.00000000000E+00 0. -1.
          4    1    6    6  502    0  0.57573237909E+01  0.58575541566E+00 -0.34061667509E+01  0.67150471759E+01  0.00000000000E+00 0. -1.
          1    1    5    5  503    0  0.72028597657E+02 -0.14308604362E+02 -0.13295267026E+02  0.74629881177E+02  0.00000000000E+00 0. -1.
         -2    1    5    5    0  503  0.36331512908E+03  0.11970998173E+03 -0.98055025816E+02  0.39489637987E+03  0.00000000000E+00 0.  1.
         -1    1    6    6    0  502  0.25241035133E+03 -0.43472909164E+03 -0.11559243895E+04  0.12605005207E+04  0.00000000000E+00 0.  1.
<mgrwt>
<rscale>  0 0.21036746E+04</rscale>
<asrwt>0</asrwt>
<pdfrwt beam="1">  1        1 0.87371204E-01 0.21036746E+04</pdfrwt>
<pdfrwt beam="2">  1       -1 0.29971059E+00 0.21036746E+04</pdfrwt>
<totfact> 0.11308085E+00</totfact>
</mgrwt>
</event>
<event>
12    1  0.1504874E-007  0.2067399E+04  0.7818608E-02  0.8575742E-01
         -2   -1    0    0    0  501 -0.00000000000E+00  0.00000000000E+00  0.47297420654E+03  0.47297420654E+03  0.00000000000E+00 0.  1.
          2   -1    0    0  501    0  0.00000000000E+00 -0.00000000000E+00 -0.22591805932E+04  0.22591805932E+04  0.00000000000E+00 0. -1.
         23    2    1    2    0    0  0.30648238400E+03 -0.67635854749E+03 -0.32754778374E+03  0.81686420798E+03  0.92667400860E+02 0.  0.
        254    2    1    2    0    0 -0.30648238400E+03  0.67635854749E+03 -0.14586586029E+04  0.19152905917E+04  0.99461590299E+03 0.  0.
        -24    2    4    4    0    0 -0.42315224589E+03  0.57755932000E+03 -0.15577696038E+04  0.17166166614E+04  0.86568078012E+02 0.  0.
         24    2    4    4    0    0  0.11666986189E+03  0.98799227493E+02  0.99111000957E+02  0.19867393034E+03  0.79216135106E+02 0.  0.
         11    1    3    3    0    0  0.20112409795E+03 -0.49041297643E+03 -0.27332020116E+03  0.59637213431E+03  0.00000000000E+00 0.  1.
        -11    1    3    3    0    0  0.10535828605E+03 -0.18594557107E+03 -0.54227582579E+02  0.22049207367E+03  0.00000000000E+00 0. -1.
          4    1    6    6  502    0  0.32061401394E+01 -0.10292742905E+01  0.33916622896E+02  0.34083369095E+02  0.00000000000E+00 0. -1.
          1    1    5    5  503    0 -0.14605557696E+03  0.16768373363E+03 -0.40205229870E+03  0.45945197461E+03  0.00000000000E+00 0. -1.
         -2    1    5    5    0  503 -0.27709666893E+03  0.40987558637E+03 -0.11557173051E+04  0.12571646868E+04  0.00000000000E+00 0.  1.
         -3    1    6    6    0  502  0.11346372175E+03  0.99828501784E+02  0.65194378061E+02  0.16459056125E+03  0.00000000000E+00 0.  1.
<mgrwt>
<rscale>  0 0.20673985E+04</rscale>
<asrwt>0</asrwt>
<pdfrwt beam="1">  1        2 0.34756625E+00 0.20673985E+04</pdfrwt>
<pdfrwt beam="2">  1       -2 0.72765262E-01 0.20673985E+04</pdfrwt>
<totfact> 0.75434421E+00</totfact>
</mgrwt>
</event>
<event>
12    1  0.1504874E-007  0.1663250E+04  0.7818608E-02  0.8782606E-01
         -2   -1    0    0    0  501 -0.00000000000E+00  0.00000000000E+00  0.42065208813E+03  0.42065208813E+03  0.00000000000E+00 0.  1.
          2   -1    0    0  501    0  0.00000000000E+00 -0.00000000000E+00 -0.16441151893E+04  0.16441151893E+04  0.00000000000E+00 0. -1.
         23    2    1    2    0    0  0.35587942660E+03  0.43280342348E+03 -0.63131204468E+03  0.84894639108E+03  0.90477110455E+02 0.  0.
        254    2    1    2    0    0 -0.35587942660E+03 -0.43280342348E+03 -0.59215105652E+03  0.12158208864E+04  0.90200254121E+03 0.  0.
        -24    2    4    4    0    0 -0.21316430556E+03 -0.17065726249E+03 -0.79615696028E+03  0.84562846394E+03  0.81600681390E+02 0.  0.
         24    2    4    4    0    0 -0.14271512104E+03 -0.26214616099E+03  0.20400590376E+03  0.37019242244E+03  0.79597772363E+02 0.  0.
         11    1    3    3    0    0  0.16418051226E+02  0.84405602465E+01 -0.38276134183E+01  0.18853277906E+02  0.00000000000E+00 0. -1.
        -11    1    3    3    0    0  0.33946137537E+03  0.42436286323E+03 -0.62748443126E+03  0.83009311317E+03  0.00000000000E+00 0.  1.
          2    1    6    6  502    0 -0.10994711691E+03 -0.24138907791E+03  0.19786688060E+03  0.33092047064E+03  0.00000000000E+00 0. -1.
          1    1    5    5  503    0 -0.20652075294E+03 -0.13064139712E+03 -0.67675066635E+03  0.71952029884E+03  0.00000000000E+00 0. -1.
         -2    1    5    5    0  503 -0.66435526194E+01 -0.40015865373E+02 -0.11940629394E+03  0.12610816510E+03  0.00000000000E+00 0.  1.
         -1    1    6    6    0  502 -0.32768004128E+02 -0.20757083080E+02  0.61390231643E+01  0.39271951797E+02  0.00000000000E+00 0.  1.
<mgrwt>
<rscale>  0 0.16632504E+04</rscale>
<asrwt>0</asrwt>
<pdfrwt beam="1">  1        2 0.25294081E+00 0.16632504E+04</pdfrwt>
<pdfrwt beam="2">  1       -2 0.64715704E-01 0.16632504E+04</pdfrwt>
<totfact> 0.22155907E+01</totfact>
</mgrwt>
</event>
<event>
12    1  0.1504874E-007  0.1482914E+04  0.7818608E-02  0.8895895E-01
         -1   -1    0    0    0  501 -0.00000000000E+00  0.00000000000E+00  0.12321220043E+04  0.12321220043E+04  0.00000000000E+00 0.  1.
          1   -1    0    0  501    0  0.00000000000E+00 -0.00000000000E+00 -0.44618812446E+03  0.44618812446E+03  0.00000000000E+00 0. -1.
         23    2    1    2    0    0  0.29001437283E+03 -0.27923735600E+03 -0.32602496112E+01  0.41291482785E+03  0.91685268158E+02 0.  0.
        254    2    1    2    0    0 -0.29001437283E+03  0.27923735600E+03  0.78919412941E+03  0.12653953009E+04  0.90350210633E+03 0.  0.
        -24    2    4    4    0    0 -0.36655050213E+03 -0.22638306028E+03  0.20188251051E+03  0.48259040912E+03  0.80798479759E+02 0.  0.
         24    2    4    4    0    0  0.76536129291E+02  0.50562041628E+03  0.58731161891E+03  0.78280489176E+03  0.79616433088E+02 0.  0.
         11    1    3    3    0    0  0.32342527859E+02 -0.60085777618E+02  0.26814880152E+02  0.73316966507E+02  0.00000000000E+00 0.  1.
        -11    1    3    3    0    0  0.25767184498E+03 -0.21915157838E+03 -0.30075129763E+02  0.33959786134E+03  0.00000000000E+00 0. -1.
          2    1    6    6  502    0  0.54837350317E+02  0.48323383978E+03  0.55386220874E+03  0.73707898164E+03  0.00000000000E+00 0. -1.
          1    1    5    5  503    0 -0.36883902234E+03 -0.22558296187E+03  0.19316599572E+03  0.47354302760E+03  0.00000000000E+00 0. -1.
         -2    1    5    5    0  503  0.22885202142E+01 -0.80009841513E+00  0.87165147914E+01  0.90473815192E+01  0.00000000000E+00 0.  1.
         -1    1    6    6    0  502  0.21698778974E+02  0.22386576497E+02  0.33449410168E+02  0.45725910125E+02  0.00000000000E+00 0.  1.
<mgrwt>
<rscale>  0 0.14829136E+04</rscale>
<asrwt>0</asrwt>
<pdfrwt beam="1">  1        1 0.68644328E-01 0.14829136E+04</pdfrwt>
<pdfrwt beam="2">  1       -1 0.18955723E+00 0.14829136E+04</pdfrwt>
<totfact> 0.89283382E+00</totfact>
</mgrwt>
</event>
<event>
12    1  0.1504874E-007  0.2563265E+04  0.7818608E-02  0.8380787E-01
         -1   -1    0    0    0  501 -0.00000000000E+00  0.00000000000E+00  0.75470345563E+03  0.75470345563E+03  0.00000000000E+00 0.  1.
          1   -1    0    0  501    0  0.00000000000E+00 -0.00000000000E+00 -0.21764594490E+04  0.21764594490E+04  0.00000000000E+00 0. -1.
         23    2    1    2    0    0  0.29939569221E+02  0.52002703208E+03 -0.17756534735E+04  0.18529400821E+04  0.95484018173E+02 0.  0.
        254    2    1    2    0    0 -0.29939569221E+02 -0.52002703208E+03  0.35389748018E+03  0.10782228225E+04  0.87521228093E+03 0.  0.
        -24    2    4    4    0    0 -0.42053384193E+03 -0.16682269290E+03  0.28514993086E+03  0.54104608281E+03  0.82108815490E+02 0.  0.
         24    2    4    4    0    0  0.39059427271E+03 -0.35320433918E+03  0.68747549323E+02  0.53717673973E+03  0.80718232644E+02 0.  0.
         11    1    3    3    0    0  0.51644423260E+02  0.15197186468E+03 -0.57068584320E+03  0.59282790567E+03  0.00000000000E+00 0.  1.
        -11    1    3    3    0    0 -0.21704854038E+02  0.36805516739E+03 -0.12049676303E+04  0.12601121764E+04  0.00000000000E+00 0. -1.
          2    1    6    6  502    0  0.38164829754E+03 -0.31932464822E+03  0.66802696348E+02  0.50208191982E+03  0.00000000000E+00 0. -1.
          3    1    5    5  503    0 -0.36490800972E+03 -0.14623937551E+03  0.27760307931E+03  0.48125594037E+03  0.00000000000E+00 0. -1.
         -4    1    5    5    0  503 -0.55625832216E+02 -0.20583317393E+02  0.75468515531E+01  0.59790142440E+02  0.00000000000E+00 0.  1.
         -1    1    6    6    0  502  0.89459751741E+01 -0.33879690960E+02  0.19448529752E+01  0.35094819909E+02  0.00000000000E+00 0.  1.
<mgrwt>
<rscale>  0 0.25632647E+04</rscale>
<asrwt>0</asrwt>
<pdfrwt beam="1">  1        1 0.33483991E+00 0.25632647E+04</pdfrwt>
<pdfrwt beam="2">  1       -1 0.11610822E+00 0.25632647E+04</pdfrwt>
<totfact> 0.13393474E+00</totfact>
</mgrwt>
</event>
<event>
12    1  0.1504874E-007  0.2115648E+04  0.7818608E-02  0.8554381E-01
          2   -1    0    0  501    0  0.00000000000E+00  0.00000000000E+00  0.24070865449E+04  0.24070865449E+04  0.00000000000E+00 0. -1.
         -2   -1    0    0    0  501 -0.00000000000E+00 -0.00000000000E+00 -0.46487392560E+03  0.46487392560E+03  0.00000000000E+00 0.  1.
         23    2    1    2    0    0 -0.44696893059E+03 -0.57658224952E+03  0.14214095501E+04  0.16001513792E+04  0.88605934951E+02 0.  0.
        254    2    1    2    0    0  0.44696893059E+03  0.57658224952E+03  0.52080306922E+03  0.12718090914E+04  0.90223844552E+03 0.  0.
        -24    2    4    4    0    0 -0.13115148812E+03  0.52274952380E+03  0.10941787100E+03  0.55565611055E+03  0.79458575544E+02 0.  0.
         24    2    4    4    0    0  0.57812041872E+03  0.53832725723E+02  0.41138519822E+03  0.71615298081E+03  0.80722547707E+02 0.  0.
         13    1    3    3    0    0 -0.54969162434E+02 -0.10534764493E+03  0.18043599881E+03  0.21604833898E+03  0.00000000000E+00 0.  1.
        -13    1    3    3    0    0 -0.39199976816E+03 -0.47123460459E+03  0.12409735513E+04  0.13841030402E+04  0.00000000000E+00 0. -1.
          4    1    6    6  502    0  0.52808115187E+03  0.25751263493E+02  0.37529542545E+03  0.64836678423E+03  0.00000000000E+00 0. -1.
          1    1    5    5  503    0 -0.10496608657E+03  0.40990497417E+03  0.11863358295E+03  0.43944725984E+03  0.00000000000E+00 0. -1.
         -2    1    5    5    0  503 -0.26185401548E+02  0.11284454963E+03 -0.92157119559E+01  0.11620885071E+03  0.00000000000E+00 0.  1.
         -3    1    6    6    0  502  0.50039266850E+02  0.28081462230E+02  0.36089772770E+02  0.67786196578E+02  0.00000000000E+00 0.  1.
<mgrwt>
<rscale>  0 0.21156481E+04</rscale>
<asrwt>0</asrwt>
<pdfrwt beam="1">  1        2 0.37032100E+00 0.21156481E+04</pdfrwt>
<pdfrwt beam="2">  1       -2 0.71519067E-01 0.21156481E+04</pdfrwt>
<totfact> 0.64294016E+00</totfact>
</mgrwt>
</event>
<event>
12    1  0.1504874E-007  0.1529824E+04  0.7818608E-02  0.8864859E-01
         -1   -1    0    0    0  501 -0.00000000000E+00  0.00000000000E+00  0.30104813295E+03  0.30104813295E+03  0.00000000000E+00 0.  1.
          1   -1    0    0  501    0  0.00000000000E+00 -0.00000000000E+00 -0.19435110229E+04  0.19435110229E+04  0.00000000000E+00 0. -1.
         23    2    1    2    0    0 -0.19263095631E+03 -0.77340798218E+02 -0.12268359749E+04  0.12488315225E+04  0.10660852636E+03 0.  0.
        254    2    1    2    0    0  0.19263095631E+03  0.77340798218E+02 -0.41562691506E+03  0.99572763336E+03  0.88070398144E+03 0.  0.
        -24    2    4    4    0    0  0.23304101752E+03 -0.36331341058E+03 -0.11142289138E+03  0.45286349888E+03  0.79784320149E+02 0.  0.
         24    2    4    4    0    0 -0.40410061206E+02  0.44065420879E+03 -0.30420402368E+03  0.54286413448E+03  0.79701165049E+02 0.  0.
         13    1    3    3    0    0 -0.48166529084E+02 -0.49810548037E+02 -0.20328518462E+03  0.21476957770E+03  0.00000000000E+00 0.  1.
        -13    1    3    3    0    0 -0.14446442723E+03 -0.27530250181E+02 -0.10235507902E+04  0.10340619448E+04  0.00000000000E+00 0. -1.
          4    1    6    6  502    0 -0.53795382820E+02  0.23112688200E+03 -0.18905350347E+03  0.30340534928E+03  0.00000000000E+00 0. -1.
          3    1    5    5  503    0  0.16145115152E+03 -0.22749103081E+03 -0.34340770531E+02  0.28106570753E+03  0.00000000000E+00 0. -1.
         -4    1    5    5    0  503  0.71589865997E+02 -0.13582237976E+03 -0.77082120846E+02  0.17179779135E+03  0.00000000000E+00 0.  1.
         -3    1    6    6    0  502  0.13385321614E+02  0.20952732679E+03 -0.11515052021E+03  0.23945878520E+03  0.00000000000E+00 0.  1.
<mgrwt>
<rscale>  0 0.15298240E+04</rscale>
<asrwt>0</asrwt>
<pdfrwt beam="1">  1        1 0.29900170E+00 0.15298240E+04</pdfrwt>
<pdfrwt beam="2">  1       -1 0.46315097E-01 0.15298240E+04</pdfrwt>
<totfact> 0.14580988E+01</totfact>
</mgrwt>
</event>
<event>
12    1  0.1504874E-007  0.2645525E+04  0.7818608E-02  0.8352900E-01
         -2   -1    0    0    0  501 -0.00000000000E+00  0.00000000000E+00  0.14784541803E+04  0.14784541803E+04  0.00000000000E+00 0.  1.
          2   -1    0    0  501    0  0.00000000000E+00 -0.00000000000E+00 -0.11834664263E+04  0.11834664263E+04  0.00000000000E+00 0. -1.
         23    2    1    2    0    0 -0.22180535126E+03 -0.51907400242E+03 -0.89816138642E+03  0.10646852171E+04  0.90693448392E+02 0.  0.
        254    2    1    2    0    0  0.22180535126E+03  0.51907400242E+03  0.11931491404E+04  0.15972353896E+04  0.89940012489E+03 0.  0.
        -24    2    4    4    0    0 -0.36280391907E+02  0.54250466140E+03  0.12066226882E+04  0.13258756415E+04  0.79876970119E+02 0.  0.
         24    2    4    4    0    0  0.25808574317E+03 -0.23430658985E+02 -0.13473547806E+02  0.27135974815E+03  0.79355716995E+02 0.  0.
         11    1    3    3    0    0 -0.22954237871E+03 -0.50978382057E+03 -0.87154361420E+03  0.10354503942E+04  0.00000000000E+00 0. -1.
        -11    1    3    3    0    0  0.77370274507E+01 -0.92901818485E+01 -0.26617772221E+02  0.29234822910E+02  0.00000000000E+00 0.  1.
          2    1    6    6  502    0  0.25157992275E+03 -0.37444020321E+02 -0.18730680892E+02  0.25503990000E+03  0.00000000000E+00 0. -1.
          3    1    5    5  503    0 -0.17056088008E+02  0.51815943387E+03  0.11439251588E+04  0.12559239140E+04  0.00000000000E+00 0. -1.
         -4    1    5    5    0  503 -0.19224303899E+02  0.24345227534E+02  0.62697529483E+02  0.69951727408E+02  0.00000000000E+00 0.  1.
         -1    1    6    6    0  502  0.65058204191E+01  0.14013361336E+02  0.52571330867E+01  0.16319848147E+02  0.00000000000E+00 0.  1.
<mgrwt>
<rscale>  0 0.26455252E+04</rscale>
<asrwt>0</asrwt>
<pdfrwt beam="1">  1        2 0.18207176E+00 0.26455252E+04</pdfrwt>
<pdfrwt beam="2">  1       -2 0.22745449E+00 0.26455252E+04</pdfrwt>
<totfact> 0.15146528E+00</totfact>
</mgrwt>
</event>
<event>
12    1  0.1504874E-007  0.1535604E+04  0.7818608E-02  0.8861116E-01
         -2   -1    0    0    0  501 -0.00000000000E+00  0.00000000000E+00  0.31457626854E+03  0.31457626854E+03  0.00000000000E+00 0.  1.
          2   -1    0    0  501    0  0.00000000000E+00 -0.00000000000E+00 -0.18740130687E+04  0.18740130687E+04  0.00000000000E+00 0. -1.
         23    2    1    2    0    0  0.53955897334E+02  0.88849521321E+02  0.17539572513E+03  0.22336752612E+03  0.91235492178E+02 0.  0.
        254    2    1    2    0    0 -0.53955897334E+02 -0.88849521321E+02 -0.17348325252E+04  0.19652218111E+04  0.91741342904E+03 0.  0.
        -24    2    4    4    0    0 -0.17672055696E+03 -0.26066602076E+02 -0.17870277038E+04  0.17977069791E+04  0.79829478195E+02 0.  0.
         24    2    4    4    0    0  0.12276465963E+03 -0.62782919245E+02  0.52195178519E+02  0.16751483200E+03  0.79523742854E+02 0.  0.
         11    1    3    3    0    0  0.36742157138E+02  0.21676102286E+02  0.97025930941E+01  0.43749055238E+02  0.00000000000E+00 0. -1.
        -11    1    3    3    0    0  0.17213740196E+02  0.67173419035E+02  0.16569313204E+03  0.17961847088E+03  0.00000000000E+00 0.  1.
          2    1    6    6  502    0  0.12922189467E+03 -0.41975052302E+02  0.52677419940E+02  0.14572272867E+03  0.00000000000E+00 0. -1.
          3    1    5    5  503    0 -0.12484901983E+03 -0.29788964390E+02 -0.15357381577E+04  0.15410925829E+04  0.00000000000E+00 0. -1.
         -4    1    5    5    0  503 -0.51871537137E+02  0.37223623147E+01 -0.25128954611E+03  0.25661439619E+03  0.00000000000E+00 0.  1.
         -1    1    6    6    0  502 -0.64572350409E+01 -0.20807866944E+02 -0.48224142119E+00  0.21792103338E+02  0.00000000000E+00 0.  1.
<mgrwt>
<rscale>  0 0.15356042E+04</rscale>
<asrwt>0</asrwt>
<pdfrwt beam="1">  1        2 0.28830970E+00 0.15356042E+04</pdfrwt>
<pdfrwt beam="2">  1       -2 0.48396349E-01 0.15356042E+04</pdfrwt>
<totfact> 0.30592154E+01</totfact>
</mgrwt>
</event>
<event>
12    1  0.1504874E-007  0.1468932E+04  0.7818608E-02  0.8905379E-01
          2   -1    0    0  501    0  0.00000000000E+00  0.00000000000E+00  0.51696926078E+03  0.51696926078E+03  0.00000000000E+00 0.  1.
         -2   -1    0    0    0  501 -0.00000000000E+00 -0.00000000000E+00 -0.10434675970E+04  0.10434675970E+04  0.00000000000E+00 0. -1.
         23    2    1    2    0    0 -0.51808162589E+01 -0.36586794310E+02  0.31721508716E+03  0.33143052575E+03  0.88630398311E+02 0.  0.
        254    2    1    2    0    0  0.51808162589E+01  0.36586794310E+02 -0.84371342334E+03  0.12290063320E+04  0.89288229289E+03 0.  0.
        -24    2    4    4    0    0  0.32487813049E+03 -0.30226169486E+02 -0.82689959252E+03  0.89228899704E+03  0.77183528924E+02 0.  0.
         24    2    4    4    0    0 -0.31969731423E+03  0.66812963796E+02 -0.16813830822E+02  0.33671733495E+03  0.80159303224E+02 0.  0.
         13    1    3    3    0    0 -0.42278128855E+02 -0.91589872054E+00  0.10813726206E+03  0.11611178448E+03  0.00000000000E+00 0. -1.
        -13    1    3    3    0    0  0.37097312596E+02 -0.35670895590E+02  0.20907782510E+03  0.21531874127E+03  0.00000000000E+00 0.  1.
          4    1    6    6  502    0 -0.16300365463E+03 -0.52408462602E+01 -0.19353871789E+02  0.16423224484E+03  0.00000000000E+00 0. -1.
          1    1    5    5  503    0  0.28023565831E+03 -0.31012017494E+02 -0.76977745500E+03  0.81978722828E+03  0.00000000000E+00 0. -1.
         -2    1    5    5    0  503  0.44642472171E+02  0.78584800747E+00 -0.57122137516E+02  0.72501768758E+02  0.00000000000E+00 0.  1.
         -3    1    6    6    0  502 -0.15669365960E+03  0.72053810056E+02  0.25400409670E+01  0.17248509011E+03  0.00000000000E+00 0.  1.
<mgrwt>
<rscale>  0 0.14689325E+04</rscale>
<asrwt>0</asrwt>
<pdfrwt beam="1">  1        2 0.79533732E-01 0.14689325E+04</pdfrwt>
<pdfrwt beam="2">  1       -2 0.16053348E+00 0.14689325E+04</pdfrwt>
<totfact> 0.14302485E+01</totfact>
</mgrwt>
</event>
<event>
12    1  0.1504874E-007  0.2132545E+04  0.7818608E-02  0.8547041E-01
          2   -1    0    0  501    0  0.00000000000E+00  0.00000000000E+00  0.16273438164E+04  0.16273438164E+04  0.00000000000E+00 0.  1.
         -2   -1    0    0    0  501 -0.00000000000E+00 -0.00000000000E+00 -0.69864562659E+03  0.69864562659E+03  0.00000000000E+00 0. -1.
         23    2    1    2    0    0  0.79994312049E+03  0.44296072745E+02  0.23123304879E+02  0.80667942313E+03  0.91246185601E+02 0.  0.
        254    2    1    2    0    0 -0.79994312049E+03 -0.44296072745E+02  0.90557488495E+03  0.15193100199E+04  0.91998148143E+03 0.  0.
        -24    2    4    4    0    0 -0.59236335393E+03 -0.12743022473E+03  0.30249149870E+02  0.61235158291E+03  0.83226466745E+02 0.  0.
         24    2    4    4    0    0 -0.20757976656E+03  0.83134151981E+02  0.87532573508E+03  0.90695843698E+03  0.79861237102E+02 0.  0.
         13    1    3    3    0    0  0.19670053472E+01 -0.23186812739E+01 -0.60925956108E+01  0.68091933562E+01  0.00000000000E+00 0. -1.
        -13    1    3    3    0    0  0.79797611515E+03  0.46614754018E+02  0.29215900490E+02  0.79987022977E+03  0.00000000000E+00 0.  1.
          2    1    6    6  502    0 -0.13013218225E+03  0.91634129313E+02  0.61099702564E+03  0.63138622400E+03  0.00000000000E+00 0. -1.
          1    1    5    5  503    0 -0.18494405469E+03 -0.79626259729E+02  0.69809377268E+01  0.20147798415E+03  0.00000000000E+00 0. -1.
         -2    1    5    5    0  503 -0.40741929924E+03 -0.47803964997E+02  0.23268212143E+02  0.41087359876E+03  0.00000000000E+00 0.  1.
         -1    1    6    6    0  502 -0.77447584309E+02 -0.84999773322E+01  0.26432870944E+03  0.27557221298E+03  0.00000000000E+00 0.  1.
<mgrwt>
<rscale>  0 0.21325446E+04</rscale>
<asrwt>0</asrwt>
<pdfrwt beam="1">  1        2 0.25036059E+00 0.21325446E+04</pdfrwt>
<pdfrwt beam="2">  1       -2 0.10748394E+00 0.21325446E+04</pdfrwt>
<totfact> 0.68761258E+00</totfact>
</mgrwt>
</event>
<event>
12    1  0.1504874E-007  0.1731033E+04  0.7818608E-02  0.8743860E-01
         -1   -1    0    0    0  501 -0.00000000000E+00  0.00000000000E+00  0.43434422380E+03  0.43434422380E+03  0.00000000000E+00 0.  1.
          1   -1    0    0  501    0  0.00000000000E+00 -0.00000000000E+00 -0.17247129964E+04  0.17247129964E+04  0.00000000000E+00 0. -1.
         23    2    1    2    0    0 -0.52607590895E+03 -0.32348262303E+03 -0.39330418079E+03  0.73669957407E+03  0.81493646517E+02 0.  0.
        254    2    1    2    0    0  0.52607590895E+03  0.32348262303E+03 -0.89706459181E+03  0.14223576461E+04  0.91486584932E+03 0.  0.
        -24    2    4    4    0    0  0.16180683878E+03  0.60673423377E+03 -0.56360489864E+03  0.84764387688E+03  0.80881250815E+02 0.  0.
         24    2    4    4    0    0  0.36426907017E+03 -0.28325161074E+03 -0.33345969316E+03  0.57471376925E+03  0.78594650781E+02 0.  0.
         11    1    3    3    0    0 -0.21776711072E+03 -0.10579137272E+03 -0.19171559059E+03  0.30881903557E+03  0.00000000000E+00 0. -1.
        -11    1    3    3    0    0 -0.30830879823E+03 -0.21769125031E+03 -0.20158859020E+03  0.42788053850E+03  0.00000000000E+00 0.  1.
          4    1    6    6  502    0 -0.10596473854E+01 -0.12280153043E+02 -0.35905429738E+01  0.12838107734E+02  0.00000000000E+00 0. -1.
          3    1    5    5  503    0  0.21760667301E+02  0.14064915258E+03 -0.88959890670E+02  0.16783793645E+03  0.00000000000E+00 0. -1.
         -4    1    5    5    0  503  0.14004617148E+03  0.46608508119E+03 -0.47464500798E+03  0.67980594044E+03  0.00000000000E+00 0.  1.
         -3    1    6    6    0  502  0.36532871755E+03 -0.27097145770E+03 -0.32986915019E+03  0.56187566152E+03  0.00000000000E+00 0.  1.
<mgrwt>
<rscale>  0 0.17310334E+04</rscale>
<asrwt>0</asrwt>
<pdfrwt beam="1">  1        1 0.26534046E+00 0.17310334E+04</pdfrwt>
<pdfrwt beam="2">  1       -1 0.66822189E-01 0.17310334E+04</pdfrwt>
<totfact> 0.98724364E+00</totfact>
</mgrwt>
</event>
<event>
12    1  0.1504874E-007  0.1645785E+04  0.7818608E-02  0.8792904E-01
         -2   -1    0    0    0  501 -0.00000000000E+00  0.00000000000E+00  0.23570626344E+03  0.23570626344E+03  0.00000000000E+00 0.  1.
          2   -1    0    0  501    0  0.00000000000E+00 -0.00000000000E+00 -0.28728637750E+04  0.28728637750E+04  0.00000000000E+00 0. -1.
         23    2    1    2    0    0  0.21132689584E+03 -0.10525651657E+03  0.56912690732E+02  0.25969720158E+03  0.92008646094E+02 0.  0.
        254    2    1    2    0    0 -0.21132689584E+03  0.10525651657E+03 -0.26940702023E+04  0.28488728369E+04  0.89572551291E+03 0.  0.
        -24    2    4    4    0    0  0.27855493312E+03 -0.93172878719E+02 -0.16292087413E+04  0.16574609654E+04  0.81127632973E+02 0.  0.
         24    2    4    4    0    0 -0.48988182897E+03  0.19842939529E+03 -0.10648614610E+04  0.11914118715E+04  0.78574074504E+02 0.  0.
         13    1    3    3    0    0  0.19831942289E+03 -0.11961362102E+03  0.61829062095E+02  0.23970991792E+03  0.00000000000E+00 0.  1.
        -13    1    3    3    0    0  0.13007472957E+02  0.14357104452E+02 -0.49163713627E+01  0.19987283666E+02  0.00000000000E+00 0. -1.
          4    1    6    6  502    0 -0.42749830752E+03  0.14465296081E+03 -0.92133240491E+03  0.10259301547E+04  0.00000000000E+00 0. -1.
          1    1    5    5  503    0  0.23342932535E+03 -0.49292544949E+02 -0.13771125603E+04  0.13976258471E+04  0.00000000000E+00 0. -1.
         -2    1    5    5    0  503  0.45125607770E+02 -0.43880333770E+02 -0.25209618105E+03  0.25983511824E+03  0.00000000000E+00 0.  1.
         -3    1    6    6    0  502 -0.62383521444E+02  0.53776434481E+02 -0.14352905612E+03  0.16548171683E+03  0.00000000000E+00 0.  1.
<mgrwt>
<rscale>  0 0.16457849E+04</rscale>
<asrwt>0</asrwt>
<pdfrwt beam="1">  1        2 0.44197904E+00 0.16457849E+04</pdfrwt>
<pdfrwt beam="2">  1       -2 0.36262502E-01 0.16457849E+04</pdfrwt>
<totfact> 0.14339348E+01</totfact>
</mgrwt>
</event>
<event>
12    1  0.1504874E-007  0.1910532E+04  0.7818608E-02  0.8649632E-01
         -2   -1    0    0    0  501 -0.00000000000E+00  0.00000000000E+00  0.12827404146E+04  0.12827404146E+04  0.00000000000E+00 0.  1.
          2   -1    0    0  501    0  0.00000000000E+00 -0.00000000000E+00 -0.71139329159E+03  0.71139329159E+03  0.00000000000E+00 0. -1.
         23    2    1    2    0    0  0.38011147331E+03 -0.53201626667E+02  0.88602262938E+03  0.96986910502E+03  0.91075989544E+02 0.  0.
        254    2    1    2    0    0 -0.38011147331E+03  0.53201626667E+02 -0.31467550638E+03  0.10242646012E+04  0.89598111233E+03 0.  0.
        -24    2    4    4    0    0  0.69689790653E+02  0.18307283814E+03  0.22249781927E+03  0.30726467538E+03  0.80832977033E+02 0.  0.
         24    2    4    4    0    0 -0.44980126396E+03 -0.12987121147E+03 -0.53717332565E+03  0.71699992578E+03  0.79661804828E+02 0.  0.
         13    1    3    3    0    0  0.28991319643E+03 -0.19128804732E+02  0.73885918795E+03  0.79393228443E+03  0.00000000000E+00 0. -1.
        -13    1    3    3    0    0  0.90198276872E+02 -0.34072821935E+02  0.14716344143E+03  0.17593682059E+03  0.00000000000E+00 0.  1.
          2    1    6    6  502    0 -0.11348225758E+03 -0.53100480101E+01 -0.98363092102E+02  0.15027214407E+03  0.00000000000E+00 0. -1.
          3    1    5    5  503    0  0.68840541236E+01 -0.60692336884E+01  0.88737653253E+00  0.92202622442E+01  0.00000000000E+00 0. -1.
         -4    1    5    5    0  503  0.62805736529E+02  0.18914207183E+03  0.22161044273E+03  0.29804441314E+03  0.00000000000E+00 0.  1.
         -1    1    6    6    0  502 -0.33631900638E+03 -0.12456116346E+03 -0.43881023355E+03  0.56672778171E+03  0.00000000000E+00 0.  1.
<mgrwt>
<rscale>  0 0.19105318E+04</rscale>
<asrwt>0</asrwt>
<pdfrwt beam="1">  1        2 0.10944512E+00 0.19105318E+04</pdfrwt>
<pdfrwt beam="2">  1       -2 0.19734468E+00 0.19105318E+04</pdfrwt>
<totfact> 0.51977557E+00</totfact>
</mgrwt>
</event>
<event>
12    1  0.1504874E-007  0.1119164E+04  0.7818608E-02  0.9186712E-01
         -3   -1    0    0    0  501 -0.00000000000E+00  0.00000000000E+00  0.15274954293E+04  0.15274954293E+04  0.00000000000E+00 0.  1.
          3   -1    0    0  501    0  0.00000000000E+00 -0.00000000000E+00 -0.20499692521E+03  0.20499692521E+03  0.00000000000E+00 0. -1.
         23    2    1    2    0    0 -0.14300328130E+03  0.12980558139E+02  0.82450624128E+02  0.19041363800E+03  0.94025606976E+02 0.  0.
        254    2    1    2    0    0  0.14300328130E+03 -0.12980558139E+02  0.12400478800E+04  0.15420787165E+04  0.90535605701E+03 0.  0.
        -24    2    4    4    0    0  0.46896774972E+03 -0.18486518753E+03  0.51504274942E+03  0.72502039118E+03  0.79244217842E+02 0.  0.
         24    2    4    4    0    0 -0.32596446843E+03  0.17188462939E+03  0.72500513054E+03  0.81705832532E+03  0.78451941817E+02 0.  0.
         11    1    3    3    0    0 -0.89752364942E+02  0.15617840613E+02  0.99048703448E+02  0.13457358438E+03  0.00000000000E+00 0.  1.
        -11    1    3    3    0    0 -0.53250916355E+02 -0.26372824737E+01 -0.16598079320E+02  0.55840053623E+02  0.00000000000E+00 0. -1.
          4    1    6    6  502    0 -0.99210089947E+02  0.53203481885E+02  0.14894303271E+03  0.18670104291E+03  0.00000000000E+00 0. -1.
          1    1    5    5  503    0  0.82544328545E+02 -0.66110311972E+02  0.97476201723E+02  0.14382541301E+03  0.00000000000E+00 0. -1.
         -2    1    5    5    0  503  0.38642342118E+03 -0.11875487556E+03  0.41756654769E+03  0.58119497818E+03  0.00000000000E+00 0.  1.
         -3    1    6    6    0  502 -0.22675437848E+03  0.11868114751E+03  0.57606209782E+03  0.63035728241E+03  0.00000000000E+00 0.  1.
<mgrwt>
<rscale>  0 0.11191637E+04</rscale>
<asrwt>0</asrwt>
<pdfrwt beam="1">  1        3 0.31537989E-01 0.11191637E+04</pdfrwt>
<pdfrwt beam="2">  1       -3 0.23499929E+00 0.11191637E+04</pdfrwt>
<totfact> 0.23050954E+00</totfact>
</mgrwt>
</event>
<event>
12    1  0.1504874E-007  0.1954467E+04  0.7818608E-02  0.8628210E-01
          2   -1    0    0  501    0  0.00000000000E+00  0.00000000000E+00  0.93396090510E+03  0.93396090510E+03  0.00000000000E+00 0. -1.
         -2   -1    0    0    0  501 -0.00000000000E+00 -0.00000000000E+00 -0.10225114176E+04  0.10225114176E+04  0.00000000000E+00 0.  1.
         23    2    1    2    0    0  0.64042073639E+03  0.33154474239E+03 -0.30597885789E+03  0.78851779409E+03  0.89869985628E+02 0.  0.
        254    2    1    2    0    0 -0.64042073639E+03 -0.33154474239E+03  0.21742834542E+03  0.11679545286E+04  0.89262649503E+03 0.  0.
        -24    2    4    4    0    0 -0.32168653830E+03  0.23838840391E+03 -0.12402370141E+03  0.42675724546E+03  0.80178600580E+02 0.  0.
         24    2    4    4    0    0 -0.31873419809E+03 -0.56993314630E+03  0.34145204684E+03  0.74119728312E+03  0.79803708813E+02 0.  0.
         13    1    3    3    0    0  0.24532631559E+03  0.11422025683E+03 -0.16089734095E+03  0.31483205446E+03  0.00000000000E+00 0. -1.
        -13    1    3    3    0    0  0.39509442080E+03  0.21732448556E+03 -0.14508151694E+03  0.47368573963E+03  0.00000000000E+00 0.  1.
          4    1    6    6  502    0 -0.62178426794E+02 -0.85628392847E+02  0.86781643491E+02  0.13685551530E+03  0.00000000000E+00 0. -1.
          3    1    5    5  503    0 -0.14735885354E+03  0.60608989189E+02 -0.46783089724E+02  0.16606245443E+03  0.00000000000E+00 0. -1.
         -4    1    5    5    0  503 -0.17432768477E+03  0.17777941472E+03 -0.77240611691E+02  0.26069479103E+03  0.00000000000E+00 0.  1.
         -3    1    6    6    0  502 -0.25655577130E+03 -0.48430475345E+03  0.25467040334E+03  0.60434176783E+03  0.00000000000E+00 0.  1.
<mgrwt>
<rscale>  0 0.19544674E+04</rscale>
<asrwt>0</asrwt>
<pdfrwt beam="1">  1        2 0.14368629E+00 0.19544674E+04</pdfrwt>
<pdfrwt beam="2">  1       -2 0.15730945E+00 0.19544674E+04</pdfrwt>
<totfact> 0.68416141E+00</totfact>
</mgrwt>
</event>
<event>
12    1  0.1504874E-007  0.1777893E+04  0.7818608E-02  0.8718145E-01
         -2   -1    0    0    0  501 -0.00000000000E+00  0.00000000000E+00  0.38192328033E+03  0.38192328033E+03  0.00000000000E+00 0.  1.
          2   -1    0    0  501    0  0.00000000000E+00 -0.00000000000E+00 -0.20690692282E+04  0.20690692282E+04  0.00000000000E+00 0. -1.
         23    2    1    2    0    0  0.44892063159E+03 -0.42384382721E+03 -0.33805930217E+03  0.70992018981E+03  0.92353997133E+02 0.  0.
        254    2    1    2    0    0 -0.44892063159E+03  0.42384382721E+03 -0.13490866457E+04  0.17410723188E+04  0.91111180331E+03 0.  0.
        -24    2    4    4    0    0 -0.22083079640E+03  0.26186246696E+02  0.70829684215E+02  0.24701171868E+03  0.80907260746E+02 0.  0.
         24    2    4    4    0    0 -0.22808983519E+03  0.39765758051E+03 -0.14199163300E+04  0.14940606001E+04  0.76799533905E+02 0.  0.
         13    1    3    3    0    0  0.64573981244E+01 -0.13988011136E+02 -0.27539159133E+02  0.31555787612E+02  0.00000000000E+00 0. -1.
        -13    1    3    3    0    0  0.44246323347E+03 -0.40985581607E+03 -0.31052014304E+03  0.67836440220E+03  0.00000000000E+00 0.  1.
          4    1    6    6  502    0 -0.62462094519E+02  0.57818130548E+02 -0.31294866846E+03  0.32431669486E+03  0.00000000000E+00 0. -1.
          3    1    5    5  503    0 -0.66767403086E+02  0.15252417817E+02 -0.15290449932E+02  0.70173500862E+02  0.00000000000E+00 0. -1.
         -4    1    5    5    0  503 -0.15406339332E+03  0.10933828879E+02  0.86120134147E+02  0.17683821781E+03  0.00000000000E+00 0.  1.
         -3    1    6    6    0  502 -0.16562774067E+03  0.33983944996E+03 -0.11069676615E+04  0.11697439052E+04  0.00000000000E+00 0.  1.
<mgrwt>
<rscale>  0 0.17778928E+04</rscale>
<asrwt>0</asrwt>
<pdfrwt beam="1">  1        2 0.31831834E+00 0.17778928E+04</pdfrwt>
<pdfrwt beam="2">  1       -2 0.58757427E-01 0.17778928E+04</pdfrwt>
<totfact> 0.15655196E+01</totfact>
</mgrwt>
</event>
<event>
12    1  0.1504874E-007  0.1898427E+04  0.7818608E-02  0.8655640E-01
         -2   -1    0    0    0  501 -0.00000000000E+00  0.00000000000E+00  0.34082727507E+03  0.34082727507E+03  0.00000000000E+00 0.  1.
          2   -1    0    0  501    0  0.00000000000E+00 -0.00000000000E+00 -0.26435859840E+04  0.26435859840E+04  0.00000000000E+00 0. -1.
         23    2    1    2    0    0  0.45164595325E+03 -0.38712923853E+02 -0.17962613806E+04  0.18548272252E+04  0.91358253198E+02 0.  0.
        254    2    1    2    0    0 -0.45164595325E+03  0.38712923853E+02 -0.50649732835E+03  0.11295860339E+04  0.90218751196E+03 0.  0.
        -24    2    4    4    0    0 -0.63766202228E+03 -0.18669510116E+03 -0.48392839893E+03  0.82566791208E+03  0.77928751324E+02 0.  0.
         24    2    4    4    0    0  0.18601606903E+03  0.22540802502E+03 -0.22568929411E+02  0.30391812179E+03  0.80287685866E+02 0.  0.
         13    1    3    3    0    0  0.86228920993E+02 -0.44105015798E+02 -0.39270684643E+03  0.40447416044E+03  0.00000000000E+00 0.  1.
        -13    1    3    3    0    0  0.36541703226E+03  0.53920919457E+01 -0.14035545341E+04  0.14503530647E+04  0.00000000000E+00 0. -1.
          4    1    6    6  502    0  0.13936485256E+03  0.10934835932E+03 -0.20047531375E+01  0.17715429673E+03  0.00000000000E+00 0. -1.
          1    1    5    5  503    0 -0.22949372331E+02 -0.23616172053E+02 -0.21145386409E+02  0.39134698660E+02  0.00000000000E+00 0. -1.
         -2    1    5    5    0  503 -0.61471264995E+03 -0.16307892911E+03 -0.46278301253E+03  0.78653321342E+03  0.00000000000E+00 0.  1.
         -3    1    6    6    0  502  0.46651216473E+02  0.11605966570E+03 -0.20564176273E+02  0.12676382507E+03  0.00000000000E+00 0.  1.
<mgrwt>
<rscale>  0 0.18984269E+04</rscale>
<asrwt>0</asrwt>
<pdfrwt beam="1">  1        2 0.40670553E+00 0.18984269E+04</pdfrwt>
<pdfrwt beam="2">  1       -2 0.52434966E-01 0.18984269E+04</pdfrwt>
<totfact> 0.92343332E+00</totfact>
</mgrwt>
</event>
<event>
12    1  0.1504874E-007  0.1678665E+04  0.7818608E-02  0.8773627E-01
          2   -1    0    0  501    0  0.00000000000E+00  0.00000000000E+00  0.31104665336E+03  0.31104665336E+03  0.00000000000E+00 0. -1.
         -2   -1    0    0    0  501 -0.00000000000E+00 -0.00000000000E+00 -0.22648665982E+04  0.22648665982E+04  0.00000000000E+00 0.  1.
         23    2    1    2    0    0 -0.13774015401E+03  0.48727244680E+03 -0.23011821073E+03  0.56405031686E+03  0.93763434208E+02 0.  0.
        254    2    1    2    0    0  0.13774015401E+03 -0.48727244680E+03 -0.17237017341E+04  0.20118629347E+04  0.90555950243E+03 0.  0.
        -24    2    4    4    0    0 -0.28130961037E+03  0.75147426119E+02 -0.31531575040E+03  0.43637135772E+03  0.78827069242E+02 0.  0.
         24    2    4    4    0    0  0.41904976438E+03 -0.56241987292E+03 -0.14083859837E+04  0.15754915769E+04  0.81876807324E+02 0.  0.
         11    1    3    3    0    0 -0.46671739831E+02  0.23219812680E+03 -0.60392971555E+02  0.24442081009E+03  0.00000000000E+00 0. -1.
        -11    1    3    3    0    0 -0.91068414178E+02  0.25507432000E+03 -0.16972523918E+03  0.31962950677E+03  0.00000000000E+00 0.  1.
          2    1    6    6  502    0  0.13302191249E+03 -0.24068656905E+03 -0.51657438297E+03  0.58521273642E+03  0.00000000000E+00 0. -1.
          3    1    5    5  503    0 -0.85217113662E+01  0.13563640060E+02 -0.43620363344E+02  0.46468569965E+02  0.00000000000E+00 0. -1.
         -4    1    5    5    0  503 -0.27278789901E+03  0.61583786060E+02 -0.27169538706E+03  0.38990278775E+03  0.00000000000E+00 0.  1.
         -1    1    6    6    0  502  0.28602785189E+03 -0.32173330387E+03 -0.89181160068E+03  0.99027884052E+03  0.00000000000E+00 0.  1.
<mgrwt>
<rscale>  0 0.16786652E+04</rscale>
<asrwt>0</asrwt>
<pdfrwt beam="1">  1        2 0.47853330E-01 0.16786652E+04</pdfrwt>
<pdfrwt beam="2">  1       -2 0.34844102E+00 0.16786652E+04</pdfrwt>
<totfact> 0.16071636E+00</totfact>
</mgrwt>
</event>
<event>
12    1  0.1504874E-007  0.1437335E+04  0.7818608E-02  0.8927228E-01
         -2   -1    0    0    0  501 -0.00000000000E+00  0.00000000000E+00  0.24323916734E+03  0.24323916734E+03  0.00000000000E+00 0.  1.
          2   -1    0    0  501    0  0.00000000000E+00 -0.00000000000E+00 -0.21233557064E+04  0.21233557064E+04  0.00000000000E+00 0. -1.
         23    2    1    2    0    0  0.80864613379E+02  0.42130866299E+03 -0.64554889850E+03  0.78055670952E+03  0.92170066815E+02 0.  0.
        254    2    1    2    0    0 -0.80864613379E+02 -0.42130866299E+03 -0.12345676406E+04  0.15860381643E+04  0.89850972397E+03 0.  0.
        -24    2    4    4    0    0 -0.40190064791E+03  0.54309995219E+02 -0.57616730797E+03  0.70916507458E+03  0.80452656009E+02 0.  0.
         24    2    4    4    0    0  0.32103603453E+03 -0.47561865821E+03 -0.65840033264E+03  0.87687308969E+03  0.78346499008E+02 0.  0.
         13    1    3    3    0    0 -0.48195351001E+01  0.68418172743E+01  0.31511548329E+00  0.83748241751E+01  0.00000000000E+00 0. -1.
        -13    1    3    3    0    0  0.85684148479E+02  0.41446684571E+03 -0.64586401398E+03  0.77218188534E+03  0.00000000000E+00 0.  1.
          2    1    6    6  502    0  0.24267280548E+03 -0.29852875274E+03 -0.45909519828E+03  0.59898072407E+03  0.00000000000E+00 0. -1.
          1    1    5    5  503    0 -0.35669450361E+03  0.24927870304E+02 -0.52214753296E+03  0.63284311942E+03  0.00000000000E+00 0. -1.
         -2    1    5    5    0  503 -0.45206144300E+02  0.29382124915E+02 -0.54019775013E+02  0.76321955160E+02  0.00000000000E+00 0.  1.
         -1    1    6    6    0  502  0.78363229044E+02 -0.17708990547E+03 -0.19930513436E+03  0.27789236562E+03  0.00000000000E+00 0.  1.
<mgrwt>
<rscale>  0 0.14373354E+04</rscale>
<asrwt>0</asrwt>
<pdfrwt beam="1">  1        2 0.32667012E+00 0.14373354E+04</pdfrwt>
<pdfrwt beam="2">  1       -2 0.37421409E-01 0.14373354E+04</pdfrwt>
<totfact> 0.37308936E+01</totfact>
</mgrwt>
</event>
<event>
12    1  0.1504874E-007  0.1957130E+04  0.7818608E-02  0.8626930E-01
         -2   -1    0    0    0  501 -0.00000000000E+00  0.00000000000E+00  0.12401465124E+04  0.12401465124E+04  0.00000000000E+00 0.  1.
          2   -1    0    0  501    0  0.00000000000E+00 -0.00000000000E+00 -0.77215850786E+03  0.77215850786E+03  0.00000000000E+00 0. -1.
         23    2    1    2    0    0  0.40038062603E+03  0.37945319749E+03  0.73264108921E+03  0.92232084537E+03  0.98098936907E+02 0.  0.
        254    2    1    2    0    0 -0.40038062603E+03 -0.37945319749E+03 -0.26465308469E+03  0.10899841749E+04  0.90207254223E+03 0.  0.
        -24    2    4    4    0    0 -0.13735096776E+03  0.28219071409E+03 -0.17588727175E+03  0.36793754476E+03  0.77102639532E+02 0.  0.
         24    2    4    4    0    0 -0.26302965828E+03 -0.66164391157E+03 -0.88765812946E+02  0.72204663011E+03  0.80713689338E+02 0.  0.
         13    1    3    3    0    0  0.49760395188E+02  0.53188745951E+02  0.15997491015E+03  0.17577574208E+03  0.00000000000E+00 0. -1.
        -13    1    3    3    0    0  0.35062023084E+03  0.32626445154E+03  0.57266617906E+03  0.74654510329E+03  0.00000000000E+00 0.  1.
          4    1    6    6  502    0 -0.42633398751E+02 -0.20639850922E+03 -0.28832788919E+02  0.21271878388E+03  0.00000000000E+00 0. -1.
          1    1    5    5  503    0 -0.88301315978E+01  0.16504069670E+01 -0.20633602587E+02  0.22504235666E+02  0.00000000000E+00 0. -1.
         -2    1    5    5    0  503 -0.12852083616E+03  0.28054030712E+03 -0.15525366916E+03  0.34543330910E+03  0.00000000000E+00 0.  1.
         -3    1    6    6    0  502 -0.22039625953E+03 -0.45524540236E+03 -0.59933024027E+02  0.50932784623E+03  0.00000000000E+00 0.  1.
<mgrwt>
<rscale>  0 0.19571302E+04</rscale>
<asrwt>0</asrwt>
<pdfrwt beam="1">  1        2 0.11879362E+00 0.19571302E+04</pdfrwt>
<pdfrwt beam="2">  1       -2 0.19079177E+00 0.19571302E+04</pdfrwt>
<totfact> 0.51501908E+00</totfact>
</mgrwt>
</event>
<event>
12    1  0.1504874E-007  0.2049534E+04  0.7818608E-02  0.8583806E-01
         -1   -1    0    0    0  501 -0.00000000000E+00  0.00000000000E+00  0.84714078342E+03  0.84714078342E+03  0.00000000000E+00 0.  1.
          1   -1    0    0  501    0  0.00000000000E+00 -0.00000000000E+00 -0.12396375341E+04  0.12396375341E+04  0.00000000000E+00 0. -1.
         23    2    1    2    0    0  0.64961557837E+03  0.41180350115E+03 -0.43140644077E+03  0.88678194084E+03  0.93210354787E+02 0.  0.
        254    2    1    2    0    0 -0.64961557837E+03 -0.41180350115E+03  0.38909690091E+02  0.11999963767E+04  0.92026888291E+03 0.  0.
        -24    2    4    4    0    0 -0.62173892207E+02 -0.36810211140E+03  0.35982385603E+03  0.52466582711E+03  0.80226339101E+02 0.  0.
         24    2    4    4    0    0 -0.58744168616E+03 -0.43701389756E+02 -0.32091416594E+03  0.67533054957E+03  0.78025016374E+02 0.  0.
         13    1    3    3    0    0  0.33102938510E+03  0.26403641059E+03 -0.22709148785E+03  0.48048540433E+03  0.00000000000E+00 0. -1.
        -13    1    3    3    0    0  0.31858619327E+03  0.14776709056E+03 -0.20431495292E+03  0.40629653651E+03  0.00000000000E+00 0.  1.
          2    1    6    6  502    0 -0.55637113747E+03 -0.40553387541E+02 -0.32194805900E+03  0.64408382416E+03  0.00000000000E+00 0. -1.
          3    1    5    5  503    0 -0.70775159944E+02 -0.25868220355E+03  0.21980744404E+03  0.34675772256E+03  0.00000000000E+00 0. -1.
         -4    1    5    5    0  503  0.86012677369E+01 -0.10941990785E+03  0.14001641199E+03  0.17790810455E+03  0.00000000000E+00 0.  1.
         -1    1    6    6    0  502 -0.31070548692E+02 -0.31480022146E+01  0.10338930691E+01  0.31246725410E+02  0.00000000000E+00 0.  1.
<mgrwt>
<rscale>  0 0.20495341E+04</rscale>
<asrwt>0</asrwt>
<pdfrwt beam="1">  1        1 0.19071347E+00 0.20495341E+04</pdfrwt>
<pdfrwt beam="2">  1       -1 0.13032935E+00 0.20495341E+04</pdfrwt>
<totfact> 0.46541002E+00</totfact>
</mgrwt>
</event>
<event>
12    1  0.1504874E-007  0.1800218E+04  0.7818608E-02  0.8706184E-01
         -1   -1    0    0    0  501 -0.00000000000E+00  0.00000000000E+00  0.51649065370E+03  0.51649065370E+03  0.00000000000E+00 0.  1.
          1   -1    0    0  501    0  0.00000000000E+00 -0.00000000000E+00 -0.15686554445E+04  0.15686554445E+04  0.00000000000E+00 0. -1.
         23    2    1    2    0    0  0.25205502917E+03  0.45523027958E+03  0.94952705824E+02  0.53710204863E+03  0.93253681599E+02 0.  0.
        254    2    1    2    0    0 -0.25205502917E+03 -0.45523027958E+03 -0.11471174966E+04  0.15480440496E+04  0.89988637238E+03 0.  0.
        -24    2    4    4    0    0  0.13635530558E+03 -0.59742451034E+03 -0.67868209813E+03  0.91793009894E+03  0.80482677007E+02 0.  0.
         24    2    4    4    0    0 -0.38841033474E+03  0.14219423077E+03 -0.46843539852E+03  0.63011395066E+03  0.80808915512E+02 0.  0.
         11    1    3    3    0    0  0.16783214224E+03  0.24348922793E+03  0.90194202427E+02  0.30917572065E+03  0.00000000000E+00 0.  1.
        -11    1    3    3    0    0  0.84222886930E+02  0.21174105165E+03  0.47585033977E+01  0.22792632799E+03  0.00000000000E+00 0. -1.
          4    1    6    6  502    0 -0.21868011830E+03  0.64693163075E+02 -0.20077567977E+03  0.30383724768E+03  0.00000000000E+00 0. -1.
          1    1    5    5  503    0 -0.41265085351E+01 -0.30708408502E+01 -0.15703667985E+02  0.16524627814E+02  0.00000000000E+00 0. -1.
         -2    1    5    5    0  503  0.14048181411E+03 -0.59435366949E+03 -0.66297843014E+03  0.90140547112E+03  0.00000000000E+00 0.  1.
         -3    1    6    6    0  502 -0.16973021645E+03  0.77501067694E+02 -0.26765971875E+03  0.32627670298E+03  0.00000000000E+00 0.  1.
<mgrwt>
<rscale>  0 0.18002176E+04</rscale>
<asrwt>0</asrwt>
<pdfrwt beam="1">  1        1 0.24133161E+00 0.18002176E+04</pdfrwt>
<pdfrwt beam="2">  1       -1 0.79460101E-01 0.18002176E+04</pdfrwt>
<totfact> 0.87565993E+00</totfact>
</mgrwt>
</event>
<event>
12    1  0.1504874E-007  0.1690006E+04  0.7818608E-02  0.8767085E-01
          1   -1    0    0  501    0  0.00000000000E+00  0.00000000000E+00  0.99290034352E+03  0.99290034352E+03  0.00000000000E+00 0. -1.
         -1   -1    0    0    0  501 -0.00000000000E+00 -0.00000000000E+00 -0.71913529231E+03  0.71913529231E+03  0.00000000000E+00 0.  1.
         23    2    1    2    0    0  0.50394165838E+03  0.31878946561E+03  0.34098957873E+02  0.60329507314E+03  0.84960507950E+02 0.  0.
        254    2    1    2    0    0 -0.50394165838E+03 -0.31878946561E+03  0.23966609334E+03  0.11087405627E+04  0.90348319333E+03 0.  0.
        -24    2    4    4    0    0 -0.75483550534E+03 -0.23268515592E+03  0.24836074355E+03  0.83195871516E+03  0.80951978870E+02 0.  0.
         24    2    4    4    0    0  0.25089384696E+03 -0.86104309687E+02 -0.86946502121E+01  0.27678184753E+03  0.78555200928E+02 0.  0.
         13    1    3    3    0    0  0.13663270446E+03  0.89204930216E+02  0.47445389158E+02  0.16993257620E+03  0.00000000000E+00 0. -1.
        -13    1    3    3    0    0  0.36730895392E+03  0.22958453539E+03 -0.13346431285E+02  0.43336249694E+03  0.00000000000E+00 0.  1.
          2    1    6    6  502    0  0.30493249870E+02  0.44239334783E+01 -0.22439447272E+02  0.38117427365E+02  0.00000000000E+00 0. -1.
          1    1    5    5  503    0 -0.95144200916E+01 -0.14492133914E+02  0.72175504897E+01  0.18778689255E+02  0.00000000000E+00 0. -1.
         -2    1    5    5    0  503 -0.74532108525E+03 -0.21819302201E+03  0.24114319306E+03  0.81318002590E+03  0.00000000000E+00 0.  1.
         -1    1    6    6    0  502  0.22040059709E+03 -0.90528243165E+02  0.13744797060E+02  0.23866442017E+03  0.00000000000E+00 0.  1.
<mgrwt>
<rscale>  0 0.16900055E+04</rscale>
<asrwt>0</asrwt>
<pdfrwt beam="1">  1        1 0.15275390E+00 0.16900055E+04</pdfrwt>
<pdfrwt beam="2">  1       -1 0.11063620E+00 0.16900055E+04</pdfrwt>
<totfact> 0.10991084E+01</totfact>
</mgrwt>
</event>
<event>
12    1  0.1504874E-007  0.1914618E+04  0.7818608E-02  0.8647614E-01
         -2   -1    0    0    0  501 -0.00000000000E+00  0.00000000000E+00  0.52377295429E+03  0.52377295429E+03  0.00000000000E+00 0.  1.
          2   -1    0    0  501    0  0.00000000000E+00 -0.00000000000E+00 -0.17496899035E+04  0.17496899035E+04  0.00000000000E+00 0. -1.
         23    2    1    2    0    0  0.42060675708E+03 -0.95811765951E+02 -0.12247949512E+04  0.13015164505E+04  0.87934406185E+02 0.  0.
        254    2    1    2    0    0 -0.42060675708E+03  0.95811765951E+02 -0.11219979452E+01  0.97194640725E+03  0.87096993122E+03 0.  0.
        -24    2    4    4    0    0  0.18168988027E+03  0.20902632312E+03  0.16487401468E+03  0.33207964904E+03  0.79938953195E+02 0.  0.
         24    2    4    4    0    0 -0.60229663734E+03 -0.11321455717E+03 -0.16599601263E+03  0.63986675822E+03  0.79347443250E+02 0.  0.
         11    1    3    3    0    0  0.25480244696E+02  0.15374192364E+02 -0.79620078248E+02  0.84999797181E+02  0.00000000000E+00 0.  1.
        -11    1    3    3    0    0  0.39512651238E+03 -0.11118595831E+03 -0.11451748730E+04  0.12165166533E+04  0.00000000000E+00 0. -1.
          2    1    6    6  502    0 -0.18279198958E+01 -0.39420403909E+01  0.44128408438E+01  0.61930717663E+01  0.00000000000E+00 0. -1.
          3    1    5    5  503    0  0.51508917700E+02  0.27710778266E+02  0.74975202921E+01  0.58968369872E+02  0.00000000000E+00 0. -1.
         -4    1    5    5    0  503  0.13018096257E+03  0.18131554486E+03  0.15737649439E+03  0.27311127916E+03  0.00000000000E+00 0.  1.
         -1    1    6    6    0  502 -0.60046871745E+03 -0.10927251678E+03 -0.17040885347E+03  0.63367368645E+03  0.00000000000E+00 0.  1.
<mgrwt>
<rscale>  0 0.19146177E+04</rscale>
<asrwt>0</asrwt>
<pdfrwt beam="1">  1        2 0.26918306E+00 0.19146177E+04</pdfrwt>
<pdfrwt beam="2">  1       -2 0.80580455E-01 0.19146177E+04</pdfrwt>
<totfact> 0.11706345E+01</totfact>
</mgrwt>
</event>
<event>
12    1  0.1504874E-007  0.1426958E+04  0.7818608E-02  0.8934533E-01
          1   -1    0    0  501    0  0.00000000000E+00  0.00000000000E+00  0.10563091839E+04  0.10563091839E+04  0.00000000000E+00 0. -1.
         -1   -1    0    0    0  501 -0.00000000000E+00 -0.00000000000E+00 -0.48191588005E+03  0.48191588005E+03  0.00000000000E+00 0.  1.
         23    2    1    2    0    0  0.39167963860E+02 -0.60438360094E+01 -0.28057866576E+03  0.29945780615E+03  0.96850052350E+02 0.  0.
        254    2    1    2    0    0 -0.39167963860E+02  0.60438360094E+01  0.85497196957E+03  0.12387672578E+04  0.89554262478E+03 0.  0.
        -24    2    4    4    0    0  0.23935771951E+03  0.21983991482E+03  0.80876552849E+03  0.87522113453E+03  0.79300997547E+02 0.  0.
         24    2    4    4    0    0 -0.27852568337E+03 -0.21379607882E+03  0.46206441084E+02  0.36354612323E+03  0.82130560113E+02 0.  0.
         13    1    3    3    0    0 -0.38651981068E+00  0.29509468965E+02 -0.20458150213E+03  0.20669917555E+03  0.00000000000E+00 0.  1.
        -13    1    3    3    0    0  0.39554483670E+02 -0.35553304974E+02 -0.75997163627E+02  0.92758630609E+02  0.00000000000E+00 0. -1.
          2    1    6    6  502    0 -0.56590656618E+02 -0.84464706243E+02 -0.42906337788E+01  0.10176049605E+03  0.00000000000E+00 0. -1.
          1    1    5    5  503    0  0.30896714755E+02  0.73341200881E+02  0.18128302584E+03  0.19798250980E+03  0.00000000000E+00 0. -1.
         -2    1    5    5    0  503  0.20846100476E+03  0.14649871394E+03  0.62748250265E+03  0.67723862473E+03  0.00000000000E+00 0.  1.
         -1    1    6    6    0  502 -0.22193502675E+03 -0.12933137257E+03  0.50497074863E+02  0.26178562719E+03  0.00000000000E+00 0.  1.
<mgrwt>
<rscale>  0 0.14269578E+04</rscale>
<asrwt>0</asrwt>
<pdfrwt beam="1">  1        1 0.16250910E+00 0.14269578E+04</pdfrwt>
<pdfrwt beam="2">  1       -1 0.74140905E-01 0.14269578E+04</pdfrwt>
<totfact> 0.24393277E+01</totfact>
</mgrwt>
</event>
<event>
12    1  0.1504874E-007  0.1494825E+04  0.7818608E-02  0.8887901E-01
         -2   -1    0    0    0  501 -0.00000000000E+00  0.00000000000E+00  0.62280189941E+03  0.62280189941E+03  0.00000000000E+00 0. -1.
          2   -1    0    0  501    0  0.00000000000E+00 -0.00000000000E+00 -0.89695568228E+03  0.89695568228E+03  0.00000000000E+00 0.  1.
         23    2    1    2    0    0  0.27334470224E+03 -0.26088080306E+03 -0.37138970526E+03  0.53883848647E+03  0.98185954595E+02 0.  0.
        254    2    1    2    0    0 -0.27334470224E+03  0.26088080306E+03  0.97235922383E+02  0.98091909522E+03  0.89998407048E+03 0.  0.
        -24    2    4    4    0    0 -0.25543954575E+03  0.29940927490E+03  0.45813219923E+03  0.60882365498E+03  0.76719329156E+02 0.  0.
         24    2    4    4    0    0 -0.17905156492E+02 -0.38528471839E+02 -0.36089627685E+03  0.37209544024E+03  0.80024097835E+02 0.  0.
         13    1    3    3    0    0  0.11715071846E+03 -0.72671170179E+02 -0.83885813102E+02  0.16137601882E+03  0.00000000000E+00 0. -1.
        -13    1    3    3    0    0  0.15619398379E+03 -0.18820963288E+03 -0.28750389215E+03  0.37746246765E+03  0.00000000000E+00 0.  1.
          4    1    6    6  502    0  0.25203824463E+02 -0.20994880224E+02 -0.67696368455E+02  0.75225102627E+02  0.00000000000E+00 0. -1.
          1    1    5    5  503    0 -0.89698791683E+02  0.58243088295E+02  0.10085181838E+03  0.14700074773E+03  0.00000000000E+00 0. -1.
         -2    1    5    5    0  503 -0.16574075407E+03  0.24116618660E+03  0.35728038085E+03  0.46182290725E+03  0.00000000000E+00 0.  1.
         -3    1    6    6    0  502 -0.43108980954E+02 -0.17533591615E+02 -0.29319990839E+03  0.29687033761E+03  0.00000000000E+00 0.  1.
<mgrwt>
<rscale>  0 0.14948253E+04</rscale>
<asrwt>0</asrwt>
<pdfrwt beam="1">  1        2 0.13799318E+00 0.14948253E+04</pdfrwt>
<pdfrwt beam="2">  1       -2 0.95815677E-01 0.14948253E+04</pdfrwt>
<totfact> 0.26020454E+01</totfact>
</mgrwt>
</event>
<event>
12    1  0.1504874E-007  0.1543992E+04  0.7818608E-02  0.8855714E-01
          2   -1    0    0  501    0  0.00000000000E+00  0.00000000000E+00  0.21865242623E+04  0.21865242623E+04  0.00000000000E+00 0. -1.
         -2   -1    0    0    0  501 -0.00000000000E+00 -0.00000000000E+00 -0.27256865107E+03  0.27256865107E+03  0.00000000000E+00 0.  1.
         23    2    1    2    0    0  0.34264272734E+03  0.32667374181E+03  0.33697341947E+03  0.58803951400E+03  0.90108891966E+02 0.  0.
        254    2    1    2    0    0 -0.34264272734E+03 -0.32667374181E+03  0.15769821918E+04  0.18710533994E+04  0.88873405359E+03 0.  0.
        -24    2    4    4    0    0  0.70723620689E+01 -0.42952655109E+03  0.13831207226E+04  0.14505805353E+04  0.81350351057E+02 0.  0.
         24    2    4    4    0    0 -0.34971508941E+03  0.10285280928E+03  0.19386146922E+03  0.42047286416E+03  0.79597839856E+02 0.  0.
         11    1    3    3    0    0  0.11781217641E+03  0.86809278958E+02  0.15120138444E+03  0.21042200094E+03  0.00000000000E+00 0. -1.
        -11    1    3    3    0    0  0.22483055093E+03  0.23986446285E+03  0.18577203503E+03  0.37761751306E+03  0.00000000000E+00 0.  1.
          2    1    6    6  502    0 -0.32669428588E+03  0.72466243324E+02  0.17947917075E+03  0.37972790993E+03  0.00000000000E+00 0. -1.
          3    1    5    5  503    0  0.17843446879E+02 -0.40638249572E+03  0.13409080822E+04  0.14012493020E+04  0.00000000000E+00 0. -1.
         -4    1    5    5    0  503 -0.10771084810E+02 -0.23144055373E+02  0.42212640399E+02  0.49331233276E+02  0.00000000000E+00 0.  1.
         -1    1    6    6    0  502 -0.23020803529E+02  0.30386565956E+02  0.14382298466E+02  0.40744954226E+02  0.00000000000E+00 0.  1.
<mgrwt>
<rscale>  0 0.15439922E+04</rscale>
<asrwt>0</asrwt>
<pdfrwt beam="1">  1        2 0.33638834E+00 0.15439922E+04</pdfrwt>
<pdfrwt beam="2">  1       -2 0.41933640E-01 0.15439922E+04</pdfrwt>
<totfact> 0.27295962E+01</totfact>
</mgrwt>
</event>
<event>
12    1  0.1504874E-007  0.1419439E+04  0.7818608E-02  0.8939866E-01
         -1   -1    0    0    0  501 -0.00000000000E+00  0.00000000000E+00  0.69704195498E+03  0.69704195498E+03  0.00000000000E+00 0.  1.
          1   -1    0    0  501    0  0.00000000000E+00 -0.00000000000E+00 -0.72262806979E+03  0.72262806979E+03  0.00000000000E+00 0. -1.
         23    2    1    2    0    0 -0.16837088248E+02 -0.15426004614E+03 -0.37750084508E+03  0.41829692243E+03  0.91573893108E+02 0.  0.
        254    2    1    2    0    0  0.16837088248E+02  0.15426004614E+03  0.35191473027E+03  0.10013731023E+04  0.92456717622E+03 0.  0.
        -24    2    4    4    0    0  0.31290163409E+03 -0.26523778552E+03  0.15110073555E+03  0.44424616151E+03  0.79149884690E+02 0.  0.
         24    2    4    4    0    0 -0.29606454585E+03  0.41949783166E+03  0.20081399471E+03  0.55712694083E+03  0.80196768345E+02 0.  0.
         13    1    3    3    0    0  0.34056277959E+02 -0.70945611092E+02 -0.12654094260E+03  0.14901583794E+03  0.00000000000E+00 0.  1.
        -13    1    3    3    0    0 -0.50893366207E+02 -0.83314435044E+02 -0.25095990248E+03  0.26928108449E+03  0.00000000000E+00 0. -1.
          2    1    6    6  502    0 -0.42418317938E+02  0.24471264120E+02  0.30741451399E+02  0.57820353669E+02  0.00000000000E+00 0. -1.
          3    1    5    5  503    0  0.23041489879E+03 -0.23383394710E+03  0.13268580304E+03  0.35408312969E+03  0.00000000000E+00 0. -1.
         -4    1    5    5    0  503  0.82486735302E+02 -0.31403838424E+02  0.18414932517E+02  0.90163031826E+02  0.00000000000E+00 0.  1.
         -1    1    6    6    0  502 -0.25364622791E+03  0.39502656754E+03  0.17007254332E+03  0.49930658716E+03  0.00000000000E+00 0.  1.
<mgrwt>
<rscale>  0 0.14194394E+04</rscale>
<asrwt>0</asrwt>
<pdfrwt beam="1">  1        1 0.11117355E+00 0.14194394E+04</pdfrwt>
<pdfrwt beam="2">  1       -1 0.10723722E+00 0.14194394E+04</pdfrwt>
<totfact> 0.20480146E+01</totfact>
</mgrwt>
</event>
<event>
12    1  0.1504874E-007  0.2043328E+04  0.7818608E-02  0.8586627E-01
          2   -1    0    0  501    0  0.00000000000E+00  0.00000000000E+00  0.14869530828E+04  0.14869530828E+04  0.00000000000E+00 0.  1.
         -2   -1    0    0    0  501 -0.00000000000E+00 -0.00000000000E+00 -0.70197049839E+03  0.70197049839E+03  0.00000000000E+00 0. -1.
         23    2    1    2    0    0 -0.20702546847E+03  0.78256680017E+03  0.17438253430E+03  0.83325377872E+03  0.92909903391E+02 0.  0.
        254    2    1    2    0    0  0.20702546847E+03 -0.78256680017E+03  0.61060005016E+03  0.13556698025E+04  0.89985434981E+03 0.  0.
        -24    2    4    4    0    0 -0.10761391455E+03 -0.81745199231E+03  0.24160967595E+03  0.86290805632E+03  0.80165851861E+02 0.  0.
         24    2    4    4    0    0  0.31463938302E+03  0.34885192141E+02  0.36899037421E+03  0.49276174620E+03  0.80282776954E+02 0.  0.
         11    1    3    3    0    0  0.19400757262E+00  0.13212882310E+03  0.30656857088E+02  0.13563888240E+03  0.00000000000E+00 0. -1.
        -11    1    3    3    0    0 -0.20721947604E+03  0.65043797708E+03  0.14372567721E+03  0.69761489632E+03  0.00000000000E+00 0.  1.
          4    1    6    6  502    0  0.94401165517E+01  0.10982752310E+02  0.16424058762E+01  0.14575120784E+02  0.00000000000E+00 0. -1.
          3    1    5    5  503    0  0.12999260023E+02 -0.10524327110E+03  0.30603499544E+02  0.11037074367E+03  0.00000000000E+00 0. -1.
         -4    1    5    5    0  503 -0.12061317458E+03 -0.71220872121E+03  0.21100617640E+03  0.75253731265E+03  0.00000000000E+00 0.  1.
         -3    1    6    6    0  502  0.30519926647E+03  0.23902439831E+02  0.36734796834E+03  0.47818662541E+03  0.00000000000E+00 0.  1.
<mgrwt>
<rscale>  0 0.20433279E+04</rscale>
<asrwt>0</asrwt>
<pdfrwt beam="1">  1        2 0.22876201E+00 0.20433279E+04</pdfrwt>
<pdfrwt beam="2">  1       -2 0.10799546E+00 0.20433279E+04</pdfrwt>
<totfact> 0.82121860E+00</totfact>
</mgrwt>
</event>
<event>
12    1  0.1504874E-007  0.2750446E+04  0.7818608E-02  0.8318820E-01
         -2   -1    0    0    0  501 -0.00000000000E+00  0.00000000000E+00  0.51904682554E+03  0.51904682554E+03  0.00000000000E+00 0.  1.
          2   -1    0    0  501    0  0.00000000000E+00 -0.00000000000E+00 -0.36436753971E+04  0.36436753971E+04  0.00000000000E+00 0. -1.
         23    2    1    2    0    0 -0.37724670651E+03  0.24383068215E+03 -0.31224723362E+04  0.31559484406E+04  0.91698365886E+02 0.  0.
        254    2    1    2    0    0  0.37724670651E+03 -0.24383068215E+03 -0.21562353461E+01  0.10067737820E+04  0.90101072117E+03 0.  0.
        -24    2    4    4    0    0  0.57598571114E+03  0.78075828273E+02 -0.12714667545E+03  0.60052142851E+03  0.81267057469E+02 0.  0.
         24    2    4    4    0    0 -0.19873900463E+03 -0.32190651043E+03  0.12499044010E+03  0.40625235350E+03  0.79355977665E+02 0.  0.
         13    1    3    3    0    0 -0.92820990362E+02  0.17635355115E+02 -0.71001741578E+03  0.71627611486E+03  0.00000000000E+00 0. -1.
        -13    1    3    3    0    0 -0.28442571615E+03  0.22619532704E+03 -0.24124549204E+04  0.24396723257E+04  0.00000000000E+00 0.  1.
          2    1    6    6  502    0 -0.13335979451E+03 -0.14608567121E+03  0.79868976071E+02  0.21331880242E+03  0.00000000000E+00 0. -1.
          3    1    5    5  503    0  0.87855240905E+02  0.39166740179E+02 -0.77834487453E+01  0.96504709549E+02  0.00000000000E+00 0. -1.
         -4    1    5    5    0  503  0.48813047023E+03  0.38909088094E+02 -0.11936322670E+03  0.50401671896E+03  0.00000000000E+00 0.  1.
         -3    1    6    6    0  502 -0.65379210118E+02 -0.17582083921E+03  0.45121464031E+02  0.19293355108E+03  0.00000000000E+00 0.  1.
<mgrwt>
<rscale>  0 0.27504459E+04</rscale>
<asrwt>0</asrwt>
<pdfrwt beam="1">  1        2 0.56056544E+00 0.27504459E+04</pdfrwt>
<pdfrwt beam="2">  1       -2 0.79853359E-01 0.27504459E+04</pdfrwt>
<totfact> 0.77868132E-01</totfact>
</mgrwt>
</event>
<event>
12    1  0.1504874E-007  0.1563795E+04  0.7818608E-02  0.8843104E-01
          2   -1    0    0  501    0  0.00000000000E+00  0.00000000000E+00  0.32570174593E+04  0.32570174593E+04  0.00000000000E+00 0. -1.
         -2   -1    0    0    0  501 -0.00000000000E+00 -0.00000000000E+00 -0.18770660721E+03  0.18770660721E+03  0.00000000000E+00 0.  1.
         23    2    1    2    0    0  0.33969121826E+03  0.37612368291E+01  0.19370933564E+04  0.19686201382E+04  0.87922161331E+02 0.  0.
        254    2    1    2    0    0 -0.33969121826E+03 -0.37612368291E+01  0.11322174956E+04  0.14761039283E+04  0.88405999736E+03 0.  0.
        -24    2    4    4    0    0 -0.55828348345E+03 -0.23142324602E+03  0.84705659184E+03  0.10436810905E+04  0.80797167332E+02 0.  0.
         24    2    4    4    0    0  0.21859226519E+03  0.22766200919E+03  0.28516090381E+03  0.43242283774E+03  0.77847290988E+02 0.  0.
         13    1    3    3    0    0  0.13750737725E+03 -0.55062255924E+01  0.10344504488E+04  0.10435642426E+04  0.00000000000E+00 0.  1.
        -13    1    3    3    0    0  0.20218384101E+03  0.92674624215E+01  0.90264290757E+03  0.92505589561E+03  0.00000000000E+00 0. -1.
          4    1    6    6  502    0  0.21889508927E+03  0.23300184989E+03  0.28119182570E+03  0.42576256882E+03  0.00000000000E+00 0. -1.
          1    1    5    5  503    0 -0.41253877456E+03 -0.19402396078E+03  0.68193657684E+03  0.82028716478E+03  0.00000000000E+00 0. -1.
         -2    1    5    5    0  503 -0.14574470889E+03 -0.37399285240E+02  0.16512001500E+03  0.22339392574E+03  0.00000000000E+00 0.  1.
         -3    1    6    6    0  502 -0.30282408395E+00 -0.53398407066E+01  0.39690781028E+01  0.66602689273E+01  0.00000000000E+00 0.  1.
<mgrwt>
<rscale>  0 0.15637950E+04</rscale>
<asrwt>0</asrwt>
<pdfrwt beam="1">  1        2 0.50107957E+00 0.15637950E+04</pdfrwt>
<pdfrwt beam="2">  1       -2 0.28877942E-01 0.15637950E+04</pdfrwt>
<totfact> 0.12710941E+01</totfact>
</mgrwt>
</event>
<event>
12    1  0.1504874E-007  0.1799461E+04  0.7818608E-02  0.8706586E-01
          1   -1    0    0  501    0  0.00000000000E+00  0.00000000000E+00  0.18589258280E+04  0.18589258280E+04  0.00000000000E+00 0. -1.
         -1   -1    0    0    0  501 -0.00000000000E+00 -0.00000000000E+00 -0.43547468360E+03  0.43547468360E+03  0.00000000000E+00 0.  1.
         23    2    1    2    0    0  0.45327610389E+03  0.29868579742E+03  0.10502679873E+04  0.11857147121E+04  0.90466023998E+02 0.  0.
        254    2    1    2    0    0 -0.45327610389E+03 -0.29868579742E+03  0.37318315710E+03  0.11086857995E+04  0.89176572106E+03 0.  0.
        -24    2    4    4    0    0 -0.52451418413E+03 -0.50713680423E+03  0.86529096819E+02  0.73871030046E+03  0.76829394423E+02 0.  0.
         24    2    4    4    0    0  0.71238080242E+02  0.20845100681E+03  0.28665406029E+03  0.36997549900E+03  0.78642439356E+02 0.  0.
         11    1    3    3    0    0  0.14398005759E+03  0.93470402244E+02  0.42812228092E+03  0.46125444226E+03  0.00000000000E+00 0.  1.
        -11    1    3    3    0    0  0.30929604630E+03  0.20521539518E+03  0.62214570638E+03  0.72446026988E+03  0.00000000000E+00 0. -1.
          2    1    6    6  502    0  0.72581926264E+02  0.20007658357E+03  0.23268006074E+03  0.31533916024E+03  0.00000000000E+00 0. -1.
          3    1    5    5  503    0 -0.25842755518E+03 -0.22932831958E+03  0.76615143679E+02  0.35390134173E+03  0.00000000000E+00 0. -1.
         -4    1    5    5    0  503 -0.26608662895E+03 -0.27780848465E+03  0.99139531404E+01  0.38480895873E+03  0.00000000000E+00 0.  1.
         -1    1    6    6    0  502 -0.13438460212E+01  0.83744232402E+01  0.53973999548E+02  0.54636338768E+02  0.00000000000E+00 0.  1.
<mgrwt>
<rscale>  0 0.17994612E+04</rscale>
<asrwt>0</asrwt>
<pdfrwt beam="1">  1        1 0.28598858E+00 0.17994612E+04</pdfrwt>
<pdfrwt beam="2">  1       -1 0.66996107E-01 0.17994612E+04</pdfrwt>
<totfact> 0.79124456E+00</totfact>
</mgrwt>
</event>
<event>
12    1  0.1504874E-007  0.3346912E+04  0.7818608E-02  0.8151060E-01
         -1   -1    0    0    0  501 -0.00000000000E+00  0.00000000000E+00  0.20900459410E+04  0.20900459410E+04  0.00000000000E+00 0.  1.
          1   -1    0    0  501    0  0.00000000000E+00 -0.00000000000E+00 -0.13399009707E+04  0.13399009707E+04  0.00000000000E+00 0. -1.
         23    2    1    2    0    0  0.24952799294E+03 -0.13043526720E+04  0.11503744196E+04  0.17593220025E+04  0.90843222786E+02 0.  0.
        254    2    1    2    0    0 -0.24952799294E+03  0.13043526720E+04 -0.40022944929E+03  0.16706249093E+04  0.93123781236E+03 0.  0.
        -24    2    4    4    0    0 -0.51374733361E+03  0.12303056211E+04 -0.33132369280E+03  0.13761628351E+04  0.80377329408E+02 0.  0.
         24    2    4    4    0    0  0.26421934067E+03  0.74047050876E+02 -0.68905756482E+02  0.29446207419E+03  0.81639966514E+02 0.  0.
         13    1    3    3    0    0  0.13854832351E+03 -0.92679115419E+03  0.83166140415E+03  0.12529158681E+04  0.00000000000E+00 0.  1.
        -13    1    3    3    0    0  0.11097966943E+03 -0.37756151781E+03  0.31871301541E+03  0.50640613439E+03  0.00000000000E+00 0. -1.
          2    1    6    6  502    0  0.17740567760E+02  0.19191064705E+02  0.12748884419E+02  0.29078493132E+02  0.00000000000E+00 0. -1.
          1    1    5    5  503    0 -0.12571307679E+03  0.25974910156E+03 -0.42028330864E+02  0.29161576438E+03  0.00000000000E+00 0. -1.
         -2    1    5    5    0  503 -0.38803425682E+03  0.97055651956E+03 -0.28929536194E+03  0.10845470707E+04  0.00000000000E+00 0.  1.
         -1    1    6    6    0  502  0.24647877291E+03  0.54855986172E+02 -0.81654640901E+02  0.26538358106E+03  0.00000000000E+00 0.  1.
<mgrwt>
<rscale>  0 0.33469118E+04</rscale>
<asrwt>0</asrwt>
<pdfrwt beam="1">  1        1 0.20613861E+00 0.33469118E+04</pdfrwt>
<pdfrwt beam="2">  1       -1 0.32154553E+00 0.33469118E+04</pdfrwt>
<totfact> 0.16737319E-01</totfact>
</mgrwt>
</event>
<event>
12    1  0.1504874E-007  0.1665105E+04  0.7818608E-02  0.8781520E-01
          2   -1    0    0  501    0  0.00000000000E+00  0.00000000000E+00  0.11000670865E+04  0.11000670865E+04  0.00000000000E+00 0. -1.
         -2   -1    0    0    0  501 -0.00000000000E+00 -0.00000000000E+00 -0.63009224642E+03  0.63009224642E+03  0.00000000000E+00 0.  1.
         23    2    1    2    0    0  0.45430123323E+03 -0.18876494034E+03 -0.16323424911E+03  0.52658000720E+03  0.92840027380E+02 0.  0.
        254    2    1    2    0    0 -0.45430123323E+03  0.18876494034E+03  0.63320908919E+03  0.12035793257E+04  0.89756761833E+03 0.  0.
        -24    2    4    4    0    0 -0.68487832732E+03  0.23392544848E+03  0.29856225685E+03  0.78685702147E+03  0.78899381106E+02 0.  0.
         24    2    4    4    0    0  0.23057709410E+03 -0.45160508142E+02  0.33464683234E+03  0.41672230426E+03  0.80397193082E+02 0.  0.
         13    1    3    3    0    0  0.21909366879E+03 -0.94562822279E+02 -0.30571965868E+02  0.24058014914E+03  0.00000000000E+00 0. -1.
        -13    1    3    3    0    0  0.23520756443E+03 -0.94202118060E+02 -0.13266228324E+03  0.28599985806E+03  0.00000000000E+00 0.  1.
          2    1    6    6  502    0  0.18272969001E+03 -0.63297764039E+02  0.29137678188E+03  0.34971013077E+03  0.00000000000E+00 0. -1.
          1    1    5    5  503    0 -0.54726368944E+03  0.21841239277E+03  0.25038812464E+03  0.64023099898E+03  0.00000000000E+00 0. -1.
         -2    1    5    5    0  503 -0.13761463788E+03  0.15513055711E+02  0.48174132209E+02  0.14662602249E+03  0.00000000000E+00 0.  1.
         -1    1    6    6    0  502  0.47847404083E+02  0.18137255898E+02  0.43270050457E+02  0.67012173488E+02  0.00000000000E+00 0.  1.
<mgrwt>
<rscale>  0 0.16651051E+04</rscale>
<asrwt>0</asrwt>
<pdfrwt beam="1">  1        2 0.16924109E+00 0.16651051E+04</pdfrwt>
<pdfrwt beam="2">  1       -2 0.96937269E-01 0.16651051E+04</pdfrwt>
<totfact> 0.18479692E+01</totfact>
</mgrwt>
</event>
<event>
12    1  0.1504874E-007  0.1632172E+04  0.7818608E-02  0.8801024E-01
         -1   -1    0    0    0  501 -0.00000000000E+00  0.00000000000E+00  0.67361875171E+03  0.67361875171E+03  0.00000000000E+00 0.  1.
          1   -1    0    0  501    0  0.00000000000E+00 -0.00000000000E+00 -0.98868452193E+03  0.98868452193E+03  0.00000000000E+00 0. -1.
         23    2    1    2    0    0 -0.11782319567E+03 -0.84224578006E+02  0.44683576079E+03  0.47799606612E+03  0.88554825536E+02 0.  0.
        254    2    1    2    0    0  0.11782319567E+03  0.84224578006E+02 -0.76190153101E+03  0.11843072075E+04  0.89504945888E+03 0.  0.
        -24    2    4    4    0    0 -0.17086376776E+03  0.38235819387E+03 -0.59059893725E+03  0.72846042773E+03  0.80344723166E+02 0.  0.
         24    2    4    4    0    0  0.28868696343E+03 -0.29813361586E+03 -0.17130259376E+03  0.45584677978E+03  0.78916995926E+02 0.  0.
         11    1    3    3    0    0 -0.91099794601E+02 -0.22200759811E+02  0.18261942850E+03  0.20528492877E+03  0.00000000000E+00 0. -1.
        -11    1    3    3    0    0 -0.26723401073E+02 -0.62023818194E+02  0.26421633228E+03  0.27271113735E+03  0.00000000000E+00 0.  1.
          2    1    6    6  502    0  0.20532948968E+03 -0.25747976999E+03 -0.12571846924E+03  0.35250697127E+03  0.00000000000E+00 0. -1.
          1    1    5    5  503    0 -0.13113010042E+03  0.26808725634E+03 -0.47598973966E+03  0.56181145637E+03  0.00000000000E+00 0. -1.
         -2    1    5    5    0  503 -0.39733667339E+02  0.11427093753E+03 -0.11460919759E+03  0.16664897137E+03  0.00000000000E+00 0.  1.
         -1    1    6    6    0  502  0.83357473757E+02 -0.40653845871E+02 -0.45584124523E+02  0.10333980851E+03  0.00000000000E+00 0.  1.
<mgrwt>
<rscale>  0 0.16321721E+04</rscale>
<asrwt>0</asrwt>
<pdfrwt beam="1">  1        1 0.15210531E+00 0.16321721E+04</pdfrwt>
<pdfrwt beam="2">  1       -1 0.10363365E+00 0.16321721E+04</pdfrwt>
<totfact> 0.12975221E+01</totfact>
</mgrwt>
</event>
<event>
12    1  0.1504874E-007  0.1462607E+04  0.7818608E-02  0.8909707E-01
          1   -1    0    0  501    0  0.00000000000E+00  0.00000000000E+00  0.73899629004E+03  0.73899629004E+03  0.00000000000E+00 0. -1.
         -1   -1    0    0    0  501 -0.00000000000E+00 -0.00000000000E+00 -0.72369081096E+03  0.72369081096E+03  0.00000000000E+00 0.  1.
         23    2    1    2    0    0 -0.12621064104E+02 -0.42500100448E+03  0.14059617424E+03  0.45726044978E+03  0.92383384058E+02 0.  0.
        254    2    1    2    0    0  0.12621064104E+02  0.42500100448E+03 -0.12529069516E+03  0.10054266512E+04  0.90244104938E+03 0.  0.
        -24    2    4    4    0    0  0.43642277548E+03  0.33725358095E+03 -0.81414611523E+02  0.56320418556E+03  0.79785956442E+02 0.  0.
         24    2    4    4    0    0 -0.42380171137E+03  0.87747423531E+02 -0.43876083637E+02  0.44222246565E+03  0.79549340102E+02 0.  0.
         13    1    3    3    0    0 -0.42118696942E+02 -0.28901520487E+03  0.12335062248E+03  0.31704755060E+03  0.00000000000E+00 0.  1.
        -13    1    3    3    0    0  0.29497632838E+02 -0.13598579962E+03  0.17245551763E+02  0.14021289918E+03  0.00000000000E+00 0. -1.
          4    1    6    6  502    0 -0.33519742302E+03  0.56223130216E+02 -0.35562353025E+01  0.33989851365E+03  0.00000000000E+00 0. -1.
          1    1    5    5  503    0  0.36053929100E+03  0.31348975592E+03 -0.69434515890E+02  0.48278935306E+03  0.00000000000E+00 0. -1.
         -2    1    5    5    0  503  0.75883484474E+02  0.23763825029E+02 -0.11980095633E+02  0.80414832508E+02  0.00000000000E+00 0.  1.
         -3    1    6    6    0  502 -0.88604288356E+02  0.31524293315E+02 -0.40319848334E+02  0.10232395200E+03  0.00000000000E+00 0.  1.
<mgrwt>
<rscale>  0 0.14626070E+04</rscale>
<asrwt>0</asrwt>
<pdfrwt beam="1">  1        1 0.11369174E+00 0.14626070E+04</pdfrwt>
<pdfrwt beam="2">  1       -1 0.11133705E+00 0.14626070E+04</pdfrwt>
<totfact> 0.18041429E+01</totfact>
</mgrwt>
</event>
<event>
12    1  0.1504874E-007  0.1931005E+04  0.7818608E-02  0.8639576E-01
         -1   -1    0    0    0  501 -0.00000000000E+00  0.00000000000E+00  0.10366893609E+04  0.10366893609E+04  0.00000000000E+00 0.  1.
          1   -1    0    0  501    0  0.00000000000E+00 -0.00000000000E+00 -0.89920345765E+03  0.89920345765E+03  0.00000000000E+00 0. -1.
         23    2    1    2    0    0  0.12360793890E+03 -0.53836582205E+03 -0.45333223871E+03  0.72038167672E+03  0.91230261345E+02 0.  0.
        254    2    1    2    0    0 -0.12360793890E+03  0.53836582205E+03  0.59081814194E+03  0.12155111418E+04  0.90735030619E+03 0.  0.
        -24    2    4    4    0    0  0.67948691291E+02 -0.16638856180E+02  0.61364863975E+03  0.62276116623E+03  0.79830701597E+02 0.  0.
         24    2    4    4    0    0 -0.19155663019E+03  0.55500467823E+03 -0.22830497808E+02  0.59274997559E+03  0.78148362140E+02 0.  0.
         13    1    3    3    0    0  0.10087613345E+03 -0.51673305024E+03 -0.44056729489E+03  0.68650461094E+03  0.00000000000E+00 0. -1.
        -13    1    3    3    0    0  0.22731805447E+02 -0.21632771813E+02 -0.12764943814E+02  0.33877065779E+02  0.00000000000E+00 0.  1.
          4    1    6    6  502    0 -0.33948917207E+02  0.21360650889E+03 -0.81047325976E+01  0.21643926702E+03  0.00000000000E+00 0. -1.
          3    1    5    5  503    0 -0.96299421377E+01 -0.23507628481E+02  0.96814855616E+02  0.10009226069E+03  0.00000000000E+00 0. -1.
         -2    1    5    5    0  503  0.77578633428E+02  0.68687723013E+01  0.51683378413E+03  0.52266890554E+03  0.00000000000E+00 0.  1.
         -3    1    6    6    0  502 -0.15760771298E+03  0.34139816934E+03 -0.14725765211E+02  0.37631070857E+03  0.00000000000E+00 0.  1.
<mgrwt>
<rscale>  0 0.19310046E+04</rscale>
<asrwt>0</asrwt>
<pdfrwt beam="1">  1        1 0.13833899E+00 0.19310046E+04</pdfrwt>
<pdfrwt beam="2">  1       -1 0.15949067E+00 0.19310046E+04</pdfrwt>
<totfact> 0.50144096E+00</totfact>
</mgrwt>
</event>
<event>
12    1  0.1504874E-007  0.2060328E+04  0.7818608E-02  0.8578923E-01
          2   -1    0    0  501    0  0.00000000000E+00  0.00000000000E+00  0.21868696134E+04  0.21868696134E+04  0.00000000000E+00 0. -1.
         -2   -1    0    0    0  501 -0.00000000000E+00 -0.00000000000E+00 -0.48527730227E+03  0.48527730227E+03  0.00000000000E+00 0.  1.
         23    2    1    2    0    0 -0.47162011856E+02  0.26359497211E+03  0.17327065950E+04  0.17556520323E+04  0.91298134887E+02 0.  0.
        254    2    1    2    0    0  0.47162011856E+02 -0.26359497211E+03 -0.31114283836E+02  0.91649488341E+03  0.87594988897E+03 0.  0.
        -24    2    4    4    0    0 -0.11982324196E+03 -0.27626976923E+03  0.36550820233E+03  0.47988929397E+03  0.77555746378E+02 0.  0.
         24    2    4    4    0    0  0.16698525381E+03  0.12674797121E+02 -0.39662248616E+03  0.43660558944E+03  0.72596960894E+02 0.  0.
         13    1    3    3    0    0  0.68404076794E+01  0.11127613969E+03  0.49252833713E+03  0.50498844869E+03  0.00000000000E+00 0.  1.
        -13    1    3    3    0    0 -0.54002419535E+02  0.15231883242E+03  0.12401782579E+04  0.12506635836E+04  0.00000000000E+00 0. -1.
          4    1    6    6  502    0  0.51991081304E+02 -0.23879404886E+02 -0.85233070376E+02  0.10265463847E+03  0.00000000000E+00 0. -1.
          3    1    5    5  503    0 -0.21518651343E+02 -0.10985702292E+02  0.53567707977E+02  0.58764252300E+02  0.00000000000E+00 0. -1.
         -4    1    5    5    0  503 -0.98304590614E+02 -0.26528406694E+03  0.31194049435E+03  0.42112504167E+03  0.00000000000E+00 0.  1.
         -3    1    6    6    0  502  0.11499417251E+03  0.36554202007E+02 -0.31138941579E+03  0.33395095098E+03  0.00000000000E+00 0.  1.
<mgrwt>
<rscale>  0 0.20603283E+04</rscale>
<asrwt>0</asrwt>
<pdfrwt beam="1">  1        2 0.33644147E+00 0.20603283E+04</pdfrwt>
<pdfrwt beam="2">  1       -2 0.74658048E-01 0.20603283E+04</pdfrwt>
<totfact> 0.78328526E+00</totfact>
</mgrwt>
</event>
<event>
12    1  0.1504874E-007  0.1201389E+04  0.7818608E-02  0.9111642E-01
          1   -1    0    0  501    0  0.00000000000E+00  0.00000000000E+00  0.30589853349E+03  0.30589853349E+03  0.00000000000E+00 0. -1.
         -1   -1    0    0    0  501 -0.00000000000E+00 -0.00000000000E+00 -0.11795862189E+04  0.11795862189E+04  0.00000000000E+00 0.  1.
         23    2    1    2    0    0  0.22355035136E+03 -0.10193069715E+03 -0.28638398411E+03  0.38642869359E+03  0.83346999110E+02 0.  0.
        254    2    1    2    0    0 -0.22355035136E+03  0.10193069715E+03 -0.58730370133E+03  0.10990560588E+04  0.89589840732E+03 0.  0.
        -24    2    4    4    0    0  0.16086039179E+03 -0.50654057155E+02 -0.64686058697E+03  0.67334099899E+03  0.80731547737E+02 0.  0.
         24    2    4    4    0    0 -0.38441074315E+03  0.15258475430E+03  0.59556885641E+02  0.42571505983E+03  0.81440547919E+02 0.  0.
         13    1    3    3    0    0  0.21550443535E+03 -0.82971361428E+02 -0.28347411207E+03  0.36562820007E+03  0.00000000000E+00 0.  1.
        -13    1    3    3    0    0  0.80459160087E+01 -0.18959335720E+02 -0.29098720410E+01  0.20800493520E+02  0.00000000000E+00 0. -1.
          2    1    6    6  502    0 -0.29775005034E+03  0.85073572858E+02  0.25547570616E+02  0.31071736939E+03  0.00000000000E+00 0. -1.
          3    1    5    5  503    0  0.16173567498E+03 -0.36725198307E+02 -0.52228607141E+03  0.54798714323E+03  0.00000000000E+00 0. -1.
         -4    1    5    5    0  503 -0.87528318893E+00 -0.13928858848E+02 -0.12457451556E+03  0.12535385577E+03  0.00000000000E+00 0.  1.
         -1    1    6    6    0  502 -0.86660692810E+02  0.67511181446E+02  0.34009315024E+02  0.11499769044E+03  0.00000000000E+00 0.  1.
<mgrwt>
<rscale>  0 0.12013887E+04</rscale>
<asrwt>0</asrwt>
<pdfrwt beam="1">  1        1 0.47061312E-01 0.12013887E+04</pdfrwt>
<pdfrwt beam="2">  1       -1 0.18147480E+00 0.12013887E+04</pdfrwt>
<totfact> 0.17179729E+01</totfact>
</mgrwt>
</event>
<event>
12    1  0.1504874E-007  0.1240534E+04  0.7818608E-02  0.9078099E-01
         -2   -1    0    0    0  501 -0.00000000000E+00  0.00000000000E+00  0.29623822554E+03  0.29623822554E+03  0.00000000000E+00 0.  1.
          2   -1    0    0  501    0  0.00000000000E+00 -0.00000000000E+00 -0.12987219414E+04  0.12987219414E+04  0.00000000000E+00 0. -1.
         23    2    1    2    0    0 -0.17565075247E+03  0.79427202655E+02  0.28875279476E+02  0.21477998686E+03  0.90193090805E+02 0.  0.
        254    2    1    2    0    0  0.17565075247E+03 -0.79427202655E+02 -0.10313589953E+04  0.13801801800E+04  0.89667947718E+03 0.  0.
        -24    2    4    4    0    0  0.48591517633E+03 -0.14342727424E+02 -0.29377072181E+03  0.57348344258E+03  0.79137535371E+02 0.  0.
         24    2    4    4    0    0 -0.31026442387E+03 -0.65084475232E+02 -0.73758827348E+03  0.80669673744E+03  0.78887029278E+02 0.  0.
         11    1    3    3    0    0 -0.97612700816E+02  0.62789817035E+02 -0.24709772465E+02  0.11866496256E+03  0.00000000000E+00 0.  1.
        -11    1    3    3    0    0 -0.78038051649E+02  0.16637385620E+02  0.53585051941E+02  0.96115024304E+02  0.00000000000E+00 0. -1.
          2    1    6    6  502    0 -0.17183888347E+03 -0.75762126894E+02 -0.43098506148E+03  0.47012405274E+03  0.00000000000E+00 0. -1.
          1    1    5    5  503    0  0.16218423290E+03 -0.42111601385E+02 -0.10359972080E+03  0.19700257492E+03  0.00000000000E+00 0. -1.
         -2    1    5    5    0  503  0.32373094343E+03  0.27768873962E+02 -0.19017100101E+03  0.37648086767E+03  0.00000000000E+00 0.  1.
         -1    1    6    6    0  502 -0.13842554040E+03  0.10677651662E+02 -0.30660321200E+03  0.33657268471E+03  0.00000000000E+00 0.  1.
<mgrwt>
<rscale>  0 0.12405339E+04</rscale>
<asrwt>0</asrwt>
<pdfrwt beam="1">  1        2 0.19980338E+00 0.12405339E+04</pdfrwt>
<pdfrwt beam="2">  1       -2 0.45575112E-01 0.12405339E+04</pdfrwt>
<totfact> 0.74370703E+01</totfact>
</mgrwt>
</event>
<event>
12    1  0.1504874E-007  0.2292850E+04  0.7818608E-02  0.8480746E-01
         -2   -1    0    0    0  501 -0.00000000000E+00  0.00000000000E+00  0.93844833364E+03  0.93844833364E+03  0.00000000000E+00 0.  1.
          2   -1    0    0  501    0  0.00000000000E+00 -0.00000000000E+00 -0.14004932101E+04  0.14004932101E+04  0.00000000000E+00 0. -1.
         23    2    1    2    0    0  0.51548162432E+03  0.20448873127E+03  0.61465466109E+03  0.83289344437E+03  0.91510606218E+02 0.  0.
        254    2    1    2    0    0 -0.51548162432E+03 -0.20448873127E+03 -0.10766995375E+04  0.15060480993E+04  0.89518826913E+03 0.  0.
        -24    2    4    4    0    0 -0.65036133864E+03 -0.29020233921E+03 -0.11132345723E+04  0.13239990762E+04  0.80592011761E+02 0.  0.
         24    2    4    4    0    0  0.13487971432E+03  0.85713607934E+02  0.36535034793E+02  0.18204902311E+03  0.79168668869E+02 0.  0.
         11    1    3    3    0    0  0.51317901423E+03  0.20892192558E+03  0.61512395642E+03  0.82787592874E+03  0.00000000000E+00 0.  1.
        -11    1    3    3    0    0  0.23026100957E+01 -0.44331943070E+01 -0.46929532823E+00  0.50175156324E+01  0.00000000000E+00 0. -1.
          2    1    6    6  502    0  0.88999554303E+02  0.46529275684E+02 -0.16430351544E+02  0.10176369988E+03  0.00000000000E+00 0. -1.
          3    1    5    5  503    0 -0.28293979410E+03 -0.10099997254E+03 -0.40944184569E+03  0.50783712599E+03  0.00000000000E+00 0. -1.
         -4    1    5    5    0  503 -0.36742154454E+03 -0.18920236667E+03 -0.70379272664E+03  0.81616195024E+03  0.00000000000E+00 0.  1.
         -1    1    6    6    0  502  0.45880160014E+02  0.39184332250E+02  0.52965386337E+02  0.80285323233E+02  0.00000000000E+00 0.  1.
<mgrwt>
<rscale>  0 0.22928502E+04</rscale>
<asrwt>0</asrwt>
<pdfrwt beam="1">  1        2 0.21546049E+00 0.22928502E+04</pdfrwt>
<pdfrwt beam="2">  1       -2 0.14437667E+00 0.22928502E+04</pdfrwt>
<totfact> 0.43482322E+00</totfact>
</mgrwt>
</event>
<event>
12    1  0.1504874E-007  0.3052609E+04  0.7818608E-02  0.8228866E-01
         -2   -1    0    0    0  501 -0.00000000000E+00  0.00000000000E+00  0.86846008546E+03  0.86846008546E+03  0.00000000000E+00 0. -1.
          2   -1    0    0  501    0  0.00000000000E+00 -0.00000000000E+00 -0.26824552929E+04  0.26824552929E+04  0.00000000000E+00 0.  1.
         23    2    1    2    0    0  0.10237497506E+04 -0.10288349249E+03  0.26204171565E+03  0.10656990015E+04  0.91651166309E+02 0.  0.
        254    2    1    2    0    0 -0.10237497506E+04  0.10288349249E+03 -0.20760369231E+04  0.24852163768E+04  0.89873386984E+03 0.  0.
        -24    2    4    4    0    0 -0.98515177070E+03 -0.23363020877E+03 -0.14858271970E+04  0.17997677048E+04  0.79838875794E+02 0.  0.
         24    2    4    4    0    0 -0.38597979880E+02  0.33651370126E+03 -0.59020972611E+03  0.68544867207E+03  0.82225823505E+02 0.  0.
         13    1    3    3    0    0  0.89869703316E+03 -0.67224934104E+02  0.24921022733E+03  0.93503009929E+03  0.00000000000E+00 0. -1.
        -13    1    3    3    0    0  0.12505271741E+03 -0.35658558386E+02  0.12831488324E+02  0.13066890224E+03  0.00000000000E+00 0.  1.
          2    1    6    6  502    0  0.12212679223E+02  0.18960644141E+03 -0.36956950691E+03  0.41554948273E+03  0.00000000000E+00 0. -1.
          3    1    5    5  503    0 -0.62571564548E+03 -0.12213213299E+03 -0.88242896231E+03  0.10886308835E+04  0.00000000000E+00 0. -1.
         -4    1    5    5    0  503 -0.35943612522E+03 -0.11149807578E+03 -0.60339823469E+03  0.71113682132E+03  0.00000000000E+00 0.  1.
         -1    1    6    6    0  502 -0.50810659102E+02  0.14690725984E+03 -0.22064021920E+03  0.26989918933E+03  0.00000000000E+00 0.  1.
<mgrwt>
<rscale>  0 0.30526090E+04</rscale>
<asrwt>0</asrwt>
<pdfrwt beam="1">  1        2 0.41268542E+00 0.30526090E+04</pdfrwt>
<pdfrwt beam="2">  1       -2 0.13360925E+00 0.30526090E+04</pdfrwt>
<totfact> 0.93884893E-01</totfact>
</mgrwt>
</event>
<event>
12    1  0.1504874E-007  0.2113140E+04  0.7818608E-02  0.8555477E-01
         -1   -1    0    0    0  501 -0.00000000000E+00  0.00000000000E+00  0.58659131038E+03  0.58659131038E+03  0.00000000000E+00 0.  1.
          1   -1    0    0  501    0  0.00000000000E+00 -0.00000000000E+00 -0.19030962041E+04  0.19030962041E+04  0.00000000000E+00 0. -1.
         23    2    1    2    0    0 -0.26209512823E+03  0.61656019036E+02 -0.15306294478E+04  0.15567790955E+04  0.90770726932E+02 0.  0.
        254    2    1    2    0    0  0.26209512823E+03 -0.61656019036E+02  0.21412455406E+03  0.93290841897E+03  0.86716404020E+03 0.  0.
        -24    2    4    4    0    0  0.41792543655E+03  0.28353094590E+03  0.18396305564E+03  0.54473485619E+03  0.88556139842E+02 0.  0.
         24    2    4    4    0    0 -0.15583030832E+03 -0.34518696494E+03  0.30161498424E+02  0.38817356278E+03  0.79573067705E+02 0.  0.
         11    1    3    3    0    0 -0.26234427731E+03  0.71002293053E+02 -0.14214001068E+04  0.14471503408E+04  0.00000000000E+00 0. -1.
        -11    1    3    3    0    0  0.24914907239E+00 -0.93462740169E+01 -0.10922934102E+03  0.10962875468E+03  0.00000000000E+00 0.  1.
          2    1    6    6  502    0 -0.12663596564E+03 -0.19844441965E+03  0.37496431212E+02  0.23837541366E+03  0.00000000000E+00 0. -1.
          1    1    5    5  503    0  0.35124537343E+03  0.24049719911E+03  0.18781354864E+03  0.46528071547E+03  0.00000000000E+00 0. -1.
         -2    1    5    5    0  503  0.66680063124E+02  0.43033746795E+02 -0.38504929973E+01  0.79454140721E+02  0.00000000000E+00 0.  1.
         -1    1    6    6    0  502 -0.29194342677E+02 -0.14674254529E+03 -0.73349327882E+01  0.14979814912E+03  0.00000000000E+00 0.  1.
<mgrwt>
<rscale>  0 0.21131396E+04</rscale>
<asrwt>0</asrwt>
<pdfrwt beam="1">  1        1 0.29278403E+00 0.21131396E+04</pdfrwt>
<pdfrwt beam="2">  1       -1 0.90244818E-01 0.21131396E+04</pdfrwt>
<totfact> 0.38239110E+00</totfact>
</mgrwt>
</event>
<event>
12    1  0.1504874E-007  0.1101648E+04  0.7818608E-02  0.9203587E-01
         -2   -1    0    0    0  501 -0.00000000000E+00  0.00000000000E+00  0.35976039634E+03  0.35976039634E+03  0.00000000000E+00 0.  1.
          2   -1    0    0  501    0  0.00000000000E+00 -0.00000000000E+00 -0.84335904441E+03  0.84335904441E+03  0.00000000000E+00 0. -1.
         23    2    1    2    0    0 -0.18383219035E+03  0.75472894945E+02 -0.25687344361E+03  0.33705417494E+03  0.90172716120E+02 0.  0.
        254    2    1    2    0    0  0.18383219035E+03 -0.75472894945E+02 -0.22672520445E+03  0.86606526581E+03  0.81189549465E+03 0.  0.
        -24    2    4    4    0    0  0.40700223200E+03  0.46959373175E+02 -0.37438357384E+03  0.56087197929E+03  0.80983437888E+02 0.  0.
         24    2    4    4    0    0 -0.22317004165E+03 -0.12243226812E+03  0.14765836938E+03  0.30519328652E+03  0.80903771996E+02 0.  0.
         13    1    3    3    0    0 -0.85405935477E+02  0.60931356924E+02 -0.19041706326E+03  0.21740621439E+03  0.00000000000E+00 0. -1.
        -13    1    3    3    0    0 -0.98426254874E+02  0.14541538021E+02 -0.66456380350E+02  0.11964796056E+03  0.00000000000E+00 0.  1.
          4    1    6    6  502    0 -0.66016400344E+02 -0.77558391167E+02  0.39662861626E+02  0.10930055694E+03  0.00000000000E+00 0. -1.
          1    1    5    5  503    0  0.13262085673E+03 -0.22622415260E+02 -0.12355713712E+03  0.18266480625E+03  0.00000000000E+00 0. -1.
         -2    1    5    5    0  503  0.27438137527E+03  0.69581788435E+02 -0.25082643672E+03  0.37820717304E+03  0.00000000000E+00 0.  1.
         -3    1    6    6    0  502 -0.15715364130E+03 -0.44873876954E+02  0.10799550776E+03  0.19589272958E+03  0.00000000000E+00 0.  1.
<mgrwt>
<rscale>  0 0.11016482E+04</rscale>
<asrwt>0</asrwt>
<pdfrwt beam="1">  1        2 0.12974754E+00 0.11016482E+04</pdfrwt>
<pdfrwt beam="2">  1       -2 0.55347754E-01 0.11016482E+04</pdfrwt>
<totfact> 0.97740790E+01</totfact>
</mgrwt>
</event>
<event>
12    1  0.1504874E-007  0.1565896E+04  0.7818608E-02  0.8841778E-01
         -2   -1    0    0    0  501 -0.00000000000E+00  0.00000000000E+00  0.17588610392E+04  0.17588610392E+04  0.00000000000E+00 0.  1.
          2   -1    0    0  501    0  0.00000000000E+00 -0.00000000000E+00 -0.34852542652E+03  0.34852542652E+03  0.00000000000E+00 0. -1.
         23    2    1    2    0    0 -0.49962195069E+03  0.51983402500E+02  0.66183611027E+03  0.83586431048E+03  0.91201649788E+02 0.  0.
        254    2    1    2    0    0  0.49962195069E+03 -0.51983402500E+02  0.74849950245E+03  0.12715221553E+04  0.89676792899E+03 0.  0.
        -24    2    4    4    0    0  0.32717715382E+03  0.17559233733E+03  0.87204080044E+03  0.95108660262E+03  0.78949408766E+02 0.  0.
         24    2    4    4    0    0  0.17244479687E+03 -0.22757573983E+03 -0.12354129799E+03  0.32043555266E+03  0.76736990914E+02 0.  0.
         13    1    3    3    0    0 -0.45107626275E+03  0.74089223171E+02  0.58839985640E+03  0.74509958987E+03  0.00000000000E+00 0. -1.
        -13    1    3    3    0    0 -0.48545687941E+02 -0.22105820671E+02  0.73436253870E+02  0.90764720612E+02  0.00000000000E+00 0.  1.
          4    1    6    6  502    0  0.10599382311E+03 -0.10955539795E+03 -0.10168846248E+03  0.18324196888E+03  0.00000000000E+00 0. -1.
          3    1    5    5  503    0  0.48014549632E+02 -0.62779811453E+00  0.14123764495E+03  0.14917728868E+03  0.00000000000E+00 0. -1.
         -4    1    5    5    0  503  0.27916260419E+03  0.17622013545E+03  0.73080315549E+03  0.80190931394E+03  0.00000000000E+00 0.  1.
         -3    1    6    6    0  502  0.66450973760E+02 -0.11802034188E+03 -0.21852835508E+02  0.13719358378E+03  0.00000000000E+00 0.  1.
<mgrwt>
<rscale>  0 0.15658963E+04</rscale>
<asrwt>0</asrwt>
<pdfrwt beam="1">  1        2 0.53619297E-01 0.15658963E+04</pdfrwt>
<pdfrwt beam="2">  1       -2 0.27059400E+00 0.15658963E+04</pdfrwt>
<totfact> 0.42964962E+00</totfact>
</mgrwt>
</event>
<event>
12    1  0.1504874E-007  0.1323590E+04  0.7818608E-02  0.9011064E-01
          1   -1    0    0  501    0  0.00000000000E+00  0.00000000000E+00  0.55450716406E+03  0.55450716406E+03  0.00000000000E+00 0. -1.
         -1   -1    0    0    0  501 -0.00000000000E+00 -0.00000000000E+00 -0.78984137558E+03  0.78984137558E+03  0.00000000000E+00 0.  1.
         23    2    1    2    0    0 -0.22174358124E+03  0.91473741668E+02  0.18143630707E+03  0.31428880400E+03  0.91217638420E+02 0.  0.
        254    2    1    2    0    0  0.22174358124E+03 -0.91473741668E+02 -0.41677051858E+03  0.10300597356E+04  0.91092685360E+03 0.  0.
        -24    2    4    4    0    0  0.15430674454E+03  0.25894028206E+03 -0.55682626733E+03  0.63816531054E+03  0.79616772718E+02 0.  0.
         24    2    4    4    0    0  0.67436836697E+02 -0.35041402373E+03  0.14005574875E+03  0.39189442511E+03  0.81411993629E+02 0.  0.
         13    1    3    3    0    0 -0.10810592914E+03  0.27362123300E+00  0.10052837715E+03  0.14762425748E+03  0.00000000000E+00 0.  1.
        -13    1    3    3    0    0 -0.11363765210E+03  0.91200120435E+02  0.80907929919E+02  0.16666454652E+03  0.00000000000E+00 0. -1.
          2    1    6    6  502    0  0.80991806401E+02 -0.33438392506E+03  0.13836673296E+03  0.37083370239E+03  0.00000000000E+00 0. -1.
          1    1    5    5  503    0  0.15109739339E+03  0.26399078509E+03 -0.55278052508E+03  0.63094204632E+03  0.00000000000E+00 0. -1.
         -2    1    5    5    0  503  0.32093511498E+01 -0.50505030282E+01 -0.40457422504E+01  0.72232642204E+01  0.00000000000E+00 0.  1.
         -1    1    6    6    0  502 -0.13554969704E+02 -0.16030098669E+02  0.16890157911E+01  0.21060722717E+02  0.00000000000E+00 0.  1.
<mgrwt>
<rscale>  0 0.13235901E+04</rscale>
<asrwt>0</asrwt>
<pdfrwt beam="1">  1        1 0.85308795E-01 0.13235901E+04</pdfrwt>
<pdfrwt beam="2">  1       -1 0.12151406E+00 0.13235901E+04</pdfrwt>
<totfact> 0.22583766E+01</totfact>
</mgrwt>
</event>
<event>
12    1  0.1504874E-007  0.1611111E+04  0.7818608E-02  0.8813751E-01
         -2   -1    0    0    0  501 -0.00000000000E+00  0.00000000000E+00  0.81041721877E+03  0.81041721877E+03  0.00000000000E+00 0.  1.
          2   -1    0    0  501    0  0.00000000000E+00 -0.00000000000E+00 -0.80072319677E+03  0.80072319677E+03  0.00000000000E+00 0. -1.
         23    2    1    2    0    0 -0.22258144242E+03 -0.32357528936E+03  0.38374049533E+03  0.55664449969E+03  0.91394009070E+02 0.  0.
        254    2    1    2    0    0  0.22258144242E+03  0.32357528936E+03 -0.37404647333E+03  0.10544959158E+04  0.90432704589E+03 0.  0.
        -24    2    4    4    0    0  0.13102662923E+03 -0.27210857089E+03  0.45431930988E+02  0.31598376941E+03  0.81059424240E+02 0.  0.
         24    2    4    4    0    0  0.91554813183E+02  0.59568386025E+03 -0.41947840431E+03  0.73851214643E+03  0.78844870272E+02 0.  0.
         11    1    3    3    0    0 -0.48822959048E+02 -0.63457122871E+02  0.13513051818E+03  0.15706923542E+03  0.00000000000E+00 0. -1.
        -11    1    3    3    0    0 -0.17375848337E+03 -0.26011816649E+03  0.24860997715E+03  0.39957526427E+03  0.00000000000E+00 0.  1.
          4    1    6    6  502    0  0.80758185562E+02  0.55475764734E+03 -0.36274312517E+03  0.66772786873E+03  0.00000000000E+00 0. -1.
          1    1    5    5  503    0  0.12265969755E+03 -0.19496648660E+03  0.96697102994E+01  0.23054464990E+03  0.00000000000E+00 0. -1.
         -2    1    5    5    0  503  0.83669316833E+01 -0.77142084284E+02  0.35762220689E+02  0.85439119506E+02  0.00000000000E+00 0.  1.
         -3    1    6    6    0  502  0.10796627621E+02  0.40926212910E+02 -0.56735279144E+02  0.70784277708E+02  0.00000000000E+00 0.  1.
<mgrwt>
<rscale>  0 0.16111113E+04</rscale>
<asrwt>0</asrwt>
<pdfrwt beam="1">  1        2 0.12318818E+00 0.16111113E+04</pdfrwt>
<pdfrwt beam="2">  1       -2 0.12467957E+00 0.16111113E+04</pdfrwt>
<totfact> 0.15905803E+01</totfact>
</mgrwt>
</event>
<event>
12    1  0.1504874E-007  0.1820770E+04  0.7818608E-02  0.8695332E-01
          2   -1    0    0  501    0  0.00000000000E+00  0.00000000000E+00  0.18462936600E+04  0.18462936600E+04  0.00000000000E+00 0. -1.
         -2   -1    0    0    0  501 -0.00000000000E+00 -0.00000000000E+00 -0.44889975895E+03  0.44889975895E+03  0.00000000000E+00 0.  1.
         23    2    1    2    0    0  0.15891830610E+03  0.31556251253E+03 -0.20916816540E+03  0.42014748640E+03  0.89094677640E+02 0.  0.
        254    2    1    2    0    0 -0.15891830610E+03 -0.31556251253E+03  0.16065620665E+04  0.18750459326E+04  0.89995602587E+03 0.  0.
        -24    2    4    4    0    0 -0.86691441155E+02 -0.62686645765E+03  0.10624321605E+04  0.12392029038E+04  0.79904814913E+02 0.  0.
         24    2    4    4    0    0 -0.72226864940E+02  0.31130394511E+03  0.54412990593E+03  0.63584302872E+03  0.78052138918E+02 0.  0.
         13    1    3    3    0    0  0.35261006595E+02  0.85403702086E+02 -0.10233542549E+03  0.13787556066E+03  0.00000000000E+00 0. -1.
        -13    1    3    3    0    0  0.12365729950E+03  0.23015881045E+03 -0.10683273991E+03  0.28227192574E+03  0.00000000000E+00 0.  1.
          4    1    6    6  502    0  0.66447222294E+01  0.14239180663E+03  0.23507678562E+03  0.27491939558E+03  0.00000000000E+00 0. -1.
          3    1    5    5  503    0 -0.89458241483E+02 -0.36725639486E+03  0.64637538839E+03  0.74878647107E+03  0.00000000000E+00 0. -1.
         -4    1    5    5    0  503  0.27668003276E+01 -0.25961006279E+03  0.41605677214E+03  0.49041643277E+03  0.00000000000E+00 0.  1.
         -3    1    6    6    0  502 -0.78871587169E+02  0.16891213849E+03  0.30905312031E+03  0.36092363315E+03  0.00000000000E+00 0.  1.
<mgrwt>
<rscale>  0 0.18207699E+04</rscale>
<asrwt>0</asrwt>
<pdfrwt beam="1">  1        2 0.28404517E+00 0.18207699E+04</pdfrwt>
<pdfrwt beam="2">  1       -2 0.69061502E-01 0.18207699E+04</pdfrwt>
<totfact> 0.14674082E+01</totfact>
</mgrwt>
</event>
<event>
12    1  0.1504874E-007  0.1369062E+04  0.7818608E-02  0.8976523E-01
         -3   -1    0    0    0  501 -0.00000000000E+00  0.00000000000E+00  0.25485328479E+03  0.25485328479E+03  0.00000000000E+00 0.  1.
          3   -1    0    0  501    0  0.00000000000E+00 -0.00000000000E+00 -0.18386358877E+04  0.18386358877E+04  0.00000000000E+00 0. -1.
         23    2    1    2    0    0 -0.11889226531E+03  0.87023882396E+02 -0.99736772543E+03  0.10120453269E+04  0.88231724149E+02 0.  0.
        254    2    1    2    0    0  0.11889226531E+03 -0.87023882396E+02 -0.58641487745E+03  0.10814438455E+04  0.89662135582E+03 0.  0.
        -24    2    4    4    0    0 -0.18012217413E+03 -0.10694969128E+03  0.15827052009E+03  0.27461939852E+03  0.80523427863E+02 0.  0.
         24    2    4    4    0    0  0.29901443944E+03  0.19925808885E+02 -0.74468539754E+03  0.80682444702E+03  0.81256840695E+02 0.  0.
         13    1    3    3    0    0  0.13028085858E+02  0.41923539063E+01 -0.45412582170E+02  0.47430048194E+02  0.00000000000E+00 0.  1.
        -13    1    3    3    0    0 -0.13192035117E+03  0.82831528489E+02 -0.95195514326E+03  0.96461527872E+03  0.00000000000E+00 0. -1.
          4    1    6    6  502    0  0.48549960626E+02 -0.22083313771E+02 -0.90151268669E+02  0.10474742320E+03  0.00000000000E+00 0. -1.
          1    1    5    5  503    0 -0.38509103367E+02 -0.20989806310E+01  0.64156845295E+02  0.74856245965E+02  0.00000000000E+00 0. -1.
         -2    1    5    5    0  503 -0.14161307076E+03 -0.10485071065E+03  0.94113674796E+02  0.19976315255E+03  0.00000000000E+00 0.  1.
         -3    1    6    6    0  502  0.25046447881E+03  0.42009122656E+02 -0.65453412887E+03  0.70207702383E+03  0.00000000000E+00 0.  1.
<mgrwt>
<rscale>  0 0.13690616E+04</rscale>
<asrwt>0</asrwt>
<pdfrwt beam="1">  1        3 0.28286705E+00 0.13690616E+04</pdfrwt>
<pdfrwt beam="2">  1       -3 0.39208199E-01 0.13690616E+04</pdfrwt>
<totfact> 0.80000434E-01</totfact>
</mgrwt>
</event>
<event>
12    1  0.1504874E-007  0.1482211E+04  0.7818608E-02  0.8896369E-01
          1   -1    0    0  501    0  0.00000000000E+00  0.00000000000E+00  0.10640715693E+04  0.10640715693E+04  0.00000000000E+00 0. -1.
         -1   -1    0    0    0  501 -0.00000000000E+00 -0.00000000000E+00 -0.51616582930E+03  0.51616582930E+03  0.00000000000E+00 0.  1.
         23    2    1    2    0    0 -0.25114539995E+03  0.87222145144E+02 -0.20709099748E+03  0.34961664328E+03  0.93077395220E+02 0.  0.
        254    2    1    2    0    0  0.25114539995E+03 -0.87222145144E+02  0.75499673748E+03  0.12306207553E+04  0.93473293260E+03 0.  0.
        -24    2    4    4    0    0 -0.27848423581E+03  0.18435979468E+03  0.42236241603E+03  0.54439949610E+03  0.80242117332E+02 0.  0.
         24    2    4    4    0    0  0.52962963577E+03 -0.27158193982E+03  0.33263432146E+03  0.68622125922E+03  0.77393305065E+02 0.  0.
         13    1    3    3    0    0 -0.25576251889E+03  0.93206365481E+02 -0.20712778894E+03  0.34205820205E+03  0.00000000000E+00 0.  1.
        -13    1    3    3    0    0  0.46171189374E+01 -0.59842203376E+01  0.36791456791E-01  0.75584412376E+01  0.00000000000E+00 0. -1.
          2    1    6    6  502    0  0.44363486727E+03 -0.23889638399E+03  0.24963858020E+03  0.56231912511E+03  0.00000000000E+00 0. -1.
          3    1    5    5  503    0 -0.15939234224E+03  0.68830111650E+02  0.17474464752E+03  0.24633147357E+03  0.00000000000E+00 0. -1.
         -4    1    5    5    0  503 -0.11909189358E+03  0.11552968303E+03  0.24761776851E+03  0.29806802254E+03  0.00000000000E+00 0.  1.
         -1    1    6    6    0  502  0.85994768495E+02 -0.32685555834E+02  0.82995741260E+02  0.12390213411E+03  0.00000000000E+00 0.  1.
<mgrwt>
<rscale>  0 0.14822110E+04</rscale>
<asrwt>0</asrwt>
<pdfrwt beam="1">  1        1 0.16370332E+00 0.14822110E+04</pdfrwt>
<pdfrwt beam="2">  1       -1 0.79410128E-01 0.14822110E+04</pdfrwt>
<totfact> 0.20728518E+01</totfact>
</mgrwt>
</event>
<event>
12    1  0.1504874E-007  0.1502510E+04  0.7818608E-02  0.8882785E-01
         -2   -1    0    0    0  501 -0.00000000000E+00  0.00000000000E+00  0.83420496267E+03  0.83420496267E+03  0.00000000000E+00 0. -1.
          2   -1    0    0  501    0  0.00000000000E+00 -0.00000000000E+00 -0.67655343973E+03  0.67655343973E+03  0.00000000000E+00 0.  1.
         23    2    1    2    0    0  0.37602588860E+03  0.22045168541E+03  0.30697374361E+03  0.54190667347E+03  0.97136754057E+02 0.  0.
        254    2    1    2    0    0 -0.37602588860E+03 -0.22045168541E+03 -0.14932222068E+03  0.96885172893E+03  0.85228054804E+03 0.  0.
        -24    2    4    4    0    0  0.22935302341E+03 -0.20446958313E+03  0.60714428489E+02  0.32292836592E+03  0.78650288738E+02 0.  0.
         24    2    4    4    0    0 -0.60537891200E+03 -0.15982102289E+02 -0.21003664916E+03  0.64592336301E+03  0.79765545177E+02 0.  0.
         11    1    3    3    0    0  0.27075497000E+03  0.11689980472E+03  0.16949250902E+03  0.34014927419E+03  0.00000000000E+00 0. -1.
        -11    1    3    3    0    0  0.10527091860E+03  0.10355188069E+03  0.13748123459E+03  0.20175739928E+03  0.00000000000E+00 0.  1.
          2    1    6    6  502    0 -0.47891579490E+03  0.86844568808E+01 -0.13881910073E+03  0.49870482364E+03  0.00000000000E+00 0. -1.
          3    1    5    5  503    0  0.12523064069E+03 -0.13040846282E+03 -0.15094808109E+01  0.18080751941E+03  0.00000000000E+00 0. -1.
         -2    1    5    5    0  503  0.10412238271E+03 -0.74061120301E+02  0.62223909300E+02  0.14212084650E+03  0.00000000000E+00 0.  1.
         -1    1    6    6    0  502 -0.12646311711E+03 -0.24666559170E+02 -0.71217548432E+02  0.14721853937E+03  0.00000000000E+00 0.  1.
<mgrwt>
<rscale>  0 0.15025102E+04</rscale>
<asrwt>0</asrwt>
<pdfrwt beam="1">  1        2 0.10408514E+00 0.15025102E+04</pdfrwt>
<pdfrwt beam="2">  1       -2 0.12833922E+00 0.15025102E+04</pdfrwt>
<totfact> 0.18532972E+01</totfact>
</mgrwt>
</event>
<event>
12    1  0.1504874E-007  0.1639844E+04  0.7818608E-02  0.8796437E-01
          3   -1    0    0  501    0  0.00000000000E+00  0.00000000000E+00  0.25702683143E+04  0.25702683143E+04  0.00000000000E+00 0. -1.
         -3   -1    0    0    0  501 -0.00000000000E+00 -0.00000000000E+00 -0.26155727562E+03  0.26155727562E+03  0.00000000000E+00 0.  1.
         23    2    1    2    0    0 -0.22512942437E+03 -0.76538555462E+02  0.17313547414E+04  0.17499773664E+04  0.91050173366E+02 0.  0.
        254    2    1    2    0    0  0.22512942437E+03  0.76538555462E+02  0.57735629725E+03  0.10818482235E+04  0.88346696404E+03 0.  0.
        -24    2    4    4    0    0 -0.32144010228E+02  0.43210828956E+03  0.41997675914E+03  0.60880962859E+03  0.80733353368E+02 0.  0.
         24    2    4    4    0    0  0.25727343460E+03 -0.35556973410E+03  0.15737953811E+03  0.47303859492E+03  0.79860736997E+02 0.  0.
         13    1    3    3    0    0 -0.27763963495E+01 -0.20656609333E+02  0.75429407870E+02  0.78255986720E+02  0.00000000000E+00 0.  1.
        -13    1    3    3    0    0 -0.22235302802E+03 -0.55881946129E+02  0.16559253336E+04  0.16717213797E+04  0.00000000000E+00 0. -1.
          2    1    6    6  502    0  0.22061283467E+03 -0.28473411511E+03  0.15787080616E+03  0.39327691334E+03  0.00000000000E+00 0. -1.
          3    1    5    5  503    0 -0.23221656194E+02  0.42653617755E+03  0.41880985005E+03  0.59822574884E+03  0.00000000000E+00 0. -1.
         -4    1    5    5    0  503 -0.89223540344E+01  0.55721120050E+01  0.11669090928E+01  0.10583879749E+02  0.00000000000E+00 0.  1.
         -1    1    6    6    0  502  0.36660599930E+02 -0.70835618987E+02 -0.49126805101E+00  0.79761681582E+02  0.00000000000E+00 0.  1.
<mgrwt>
<rscale>  0 0.16398444E+04</rscale>
<asrwt>0</asrwt>
<pdfrwt beam="1">  1        3 0.39542588E+00 0.16398444E+04</pdfrwt>
<pdfrwt beam="2">  1       -3 0.40239583E-01 0.16398444E+04</pdfrwt>
<totfact> 0.18224218E-01</totfact>
</mgrwt>
</event>
<event>
12    1  0.1511491E-007  0.1543520E+04  0.7818608E-02  0.8856018E-01
         -2   -1    0    0    0  501 -0.00000000000E+00  0.00000000000E+00  0.23065433332E+03  0.23065433332E+03  0.00000000000E+00 0.  1.
          2   -1    0    0  501    0  0.00000000000E+00 -0.00000000000E+00 -0.25822767132E+04  0.25822767132E+04  0.00000000000E+00 0. -1.
         23    2    1    2    0    0  0.19422009156E+03  0.99785675127E+02  0.48291294402E+02  0.23819181821E+03  0.82004074415E+02 0.  0.
        254    2    1    2    0    0 -0.19422009156E+03 -0.99785675127E+02 -0.23999136743E+04  0.25747392283E+04  0.90665198663E+03 0.  0.
        -24    2    4    4    0    0 -0.10660575459E+03 -0.49149322087E+03 -0.15447870481E+04  0.16267458002E+04  0.83692900741E+02 0.  0.
         24    2    4    4    0    0 -0.87614336969E+02  0.39170754574E+03 -0.85512662618E+03  0.94799342804E+03  0.79617330852E+02 0.  0.
         11    1    3    3    0    0  0.18264472397E+03  0.11199266928E+03  0.53035646714E+02  0.22071301047E+03  0.00000000000E+00 0.  1.
        -11    1    3    3    0    0  0.11575367593E+02 -0.12206994158E+02 -0.47443523116E+01  0.17478807743E+02  0.00000000000E+00 0. -1.
          4    1    6    6  502    0  0.87365906978E+01  0.10061198134E+02 -0.50772020951E+02  0.52491464414E+02  0.00000000000E+00 0. -1.
          3    1    5    5  503    0 -0.31229580701E+02 -0.38964475370E+02 -0.12193721994E+03  0.13176571124E+03  0.00000000000E+00 0. -1.
         -4    1    5    5    0  503 -0.75376173891E+02 -0.45252874550E+03 -0.14228498281E+04  0.14949800890E+04  0.00000000000E+00 0.  1.
         -3    1    6    6    0  502 -0.96350927667E+02  0.38164634761E+03 -0.80435460523E+03  0.89550196363E+03  0.00000000000E+00 0.  1.
<mgrwt>
<rscale>  0 0.15435198E+04</rscale>
<asrwt>0</asrwt>
<pdfrwt beam="1">  1        2 0.39727334E+00 0.15435198E+04</pdfrwt>
<pdfrwt beam="2">  1       -2 0.35485283E-01 0.15435198E+04</pdfrwt>
<totfact> 0.22465041E+01</totfact>
</mgrwt>
</event>
<event>
12    1  0.1504874E-007  0.2189889E+04  0.7818608E-02  0.8522648E-01
          2   -1    0    0  501    0  0.00000000000E+00  0.00000000000E+00  0.24021030892E+04  0.24021030892E+04  0.00000000000E+00 0.  1.
         -2   -1    0    0    0  501 -0.00000000000E+00 -0.00000000000E+00 -0.49910568915E+03  0.49910568915E+03  0.00000000000E+00 0. -1.
         23    2    1    2    0    0  0.63822558663E+03 -0.51668719444E+03  0.13781880108E+04  0.16069904869E+04  0.93373847369E+02 0.  0.
        254    2    1    2    0    0 -0.63822558663E+03  0.51668719444E+03  0.52480938921E+03  0.12942182915E+04  0.85163286375E+03 0.  0.
        -24    2    4    4    0    0 -0.82245978957E+03  0.49142547634E+03  0.51600839204E+03  0.10911422001E+04  0.79922060951E+02 0.  0.
         24    2    4    4    0    0  0.18423420293E+03  0.25261718102E+02  0.88009971685E+01  0.20307609141E+03  0.81129805989E+02 0.  0.
         13    1    3    3    0    0  0.45699929715E+03 -0.36960274142E+03  0.10646717800E+04  0.12161334397E+04  0.00000000000E+00 0.  1.
        -13    1    3    3    0    0  0.18122628948E+03 -0.14708445302E+03  0.31351623082E+03  0.39085704715E+03  0.00000000000E+00 0. -1.
          2    1    6    6  502    0  0.14975864067E+03  0.25231891094E+01 -0.22226953492E+02  0.15142012548E+03  0.00000000000E+00 0. -1.
          3    1    5    5  503    0 -0.53651164740E+03  0.29179560101E+03  0.36160266876E+03  0.70975059748E+03  0.00000000000E+00 0. -1.
         -4    1    5    5    0  503 -0.28594814217E+03  0.19962987532E+03  0.15440572328E+03  0.38139160257E+03  0.00000000000E+00 0.  1.
         -1    1    6    6    0  502  0.34475562260E+02  0.22738528993E+02  0.31027950660E+02  0.51655965929E+02  0.00000000000E+00 0.  1.
<mgrwt>
<rscale>  0 0.21898889E+04</rscale>
<asrwt>0</asrwt>
<pdfrwt beam="1">  1        2 0.36955432E+00 0.21898889E+04</pdfrwt>
<pdfrwt beam="2">  1       -2 0.76785492E-01 0.21898889E+04</pdfrwt>
<totfact> 0.54957864E+00</totfact>
</mgrwt>
</event>
<event>
12    1  0.1504874E-007  0.1303582E+04  0.7818608E-02  0.9026730E-01
          3   -1    0    0  501    0  0.00000000000E+00  0.00000000000E+00  0.90142361941E+03  0.90142361941E+03  0.00000000000E+00 0. -1.
         -3   -1    0    0    0  501 -0.00000000000E+00 -0.00000000000E+00 -0.47128926278E+03  0.47128926278E+03  0.00000000000E+00 0.  1.
         23    2    1    2    0    0 -0.76537447967E+02 -0.27322063197E+03 -0.76003767794E+02  0.30731570379E+03  0.90326487824E+02 0.  0.
        254    2    1    2    0    0  0.76537447967E+02  0.27322063197E+03  0.50613812442E+03  0.10653971784E+04  0.89352551842E+03 0.  0.
        -24    2    4    4    0    0 -0.18322468206E+03 -0.29814125612E+02  0.61214447640E+03  0.64465540276E+03  0.79997263181E+02 0.  0.
         24    2    4    4    0    0  0.25976213003E+03  0.30303475759E+03 -0.10600635198E+03  0.42074177564E+03  0.80497618620E+02 0.  0.
         13    1    3    3    0    0 -0.87070038837E+02 -0.16038164982E+03 -0.29707142904E+02  0.18489450939E+03  0.00000000000E+00 0.  1.
        -13    1    3    3    0    0  0.10532590871E+02 -0.11283898215E+03 -0.46296624889E+02  0.12242119441E+03  0.00000000000E+00 0. -1.
          4    1    6    6  502    0  0.83415580675E+02  0.69761796098E+02  0.26629173918E+01  0.10877480601E+03  0.00000000000E+00 0. -1.
          1    1    5    5  503    0 -0.74406119085E+02  0.16069117697E+02  0.15761079175E+03  0.17503042243E+03  0.00000000000E+00 0. -1.
         -2    1    5    5    0  503 -0.10881856298E+03 -0.45883243310E+02  0.45453368465E+03  0.46962498033E+03  0.00000000000E+00 0.  1.
         -3    1    6    6    0  502  0.17634654936E+03  0.23327296149E+03 -0.10866926937E+03  0.31196696962E+03  0.00000000000E+00 0.  1.
<mgrwt>
<rscale>  0 0.13035816E+04</rscale>
<asrwt>0</asrwt>
<pdfrwt beam="1">  1        3 0.13868056E+00 0.13035816E+04</pdfrwt>
<pdfrwt beam="2">  1       -3 0.72506041E-01 0.13035816E+04</pdfrwt>
<totfact> 0.18361898E+00</totfact>
</mgrwt>
</event>
<event>
12    1  0.1504874E-007  0.1279918E+04  0.7818608E-02  0.9045643E-01
          2   -1    0    0  501    0  0.00000000000E+00  0.00000000000E+00  0.16760062977E+04  0.16760062977E+04  0.00000000000E+00 0. -1.
         -2   -1    0    0    0  501 -0.00000000000E+00 -0.00000000000E+00 -0.24435935216E+03  0.24435935216E+03  0.00000000000E+00 0.  1.
         23    2    1    2    0    0 -0.17559722924E+03 -0.10280764623E+03  0.10014317019E+02  0.22304293612E+03  0.90796837865E+02 0.  0.
        254    2    1    2    0    0  0.17559722924E+03  0.10280764623E+03  0.14216326285E+04  0.16973227138E+04  0.90468849062E+03 0.  0.
        -24    2    4    4    0    0 -0.35896261112E+03  0.22082098264E+02  0.71381856709E+03  0.80309795286E+03  0.78023072961E+02 0.  0.
         24    2    4    4    0    0  0.53455984036E+03  0.80725547971E+02  0.70781406145E+03  0.89422476090E+03  0.79789350072E+02 0.  0.
         13    1    3    3    0    0  0.92836920293E+01 -0.11480332093E+01 -0.65297732843E+01  0.11408017229E+02  0.00000000000E+00 0. -1.
        -13    1    3    3    0    0 -0.18488092127E+03 -0.10165961303E+03  0.16544090303E+02  0.21163491889E+03  0.00000000000E+00 0.  1.
          2    1    6    6  502    0  0.46787116212E+03  0.52832307697E+02  0.64423530831E+03  0.79795601981E+03  0.00000000000E+00 0. -1.
          1    1    5    5  503    0 -0.15114064846E+03 -0.26978823686E+02  0.27051612185E+03  0.31104714228E+03  0.00000000000E+00 0. -1.
         -2    1    5    5    0  503 -0.20782196267E+03  0.49060921949E+02  0.44330244525E+03  0.49205081058E+03  0.00000000000E+00 0.  1.
         -1    1    6    6    0  502  0.66688678242E+02  0.27893240275E+02  0.63578753143E+02  0.96268741084E+02  0.00000000000E+00 0.  1.
<mgrwt>
<rscale>  0 0.12799185E+04</rscale>
<asrwt>0</asrwt>
<pdfrwt beam="1">  1        2 0.25784712E+00 0.12799185E+04</pdfrwt>
<pdfrwt beam="2">  1       -2 0.37593748E-01 0.12799185E+04</pdfrwt>
<totfact> 0.66242482E+01</totfact>
</mgrwt>
</event>
<event>
12    1  0.1504874E-007  0.2180155E+04  0.7818608E-02  0.8526733E-01
         -1   -1    0    0    0  501 -0.00000000000E+00  0.00000000000E+00  0.15143576524E+04  0.15143576524E+04  0.00000000000E+00 0.  1.
          1   -1    0    0  501    0  0.00000000000E+00 -0.00000000000E+00 -0.78466898524E+03  0.78466898524E+03  0.00000000000E+00 0. -1.
         23    2    1    2    0    0 -0.88183505946E+03  0.12428116242E+03  0.15076060177E+03  0.90811133268E+03  0.94119891961E+02 0.  0.
        254    2    1    2    0    0  0.88183505946E+03 -0.12428116242E+03  0.57892806539E+03  0.13909153050E+04  0.89800267331E+03 0.  0.
        -24    2    4    4    0    0  0.67713214289E+03 -0.21799553251E+03 -0.50401082474E+02  0.71804562060E+03  0.83780982457E+02 0.  0.
         24    2    4    4    0    0  0.20470291657E+03  0.93714370086E+02  0.62932914787E+03  0.67286968437E+03  0.77542043932E+02 0.  0.
         11    1    3    3    0    0 -0.56702331483E+03  0.51894682917E+02  0.59815056994E+02  0.57252627776E+03  0.00000000000E+00 0. -1.
        -11    1    3    3    0    0 -0.31481174463E+03  0.72386479503E+02  0.90945544779E+02  0.33558505492E+03  0.00000000000E+00 0.  1.
          2    1    6    6  502    0  0.10879391442E+02  0.69983329611E+01  0.12493789494E+03  0.12560579371E+03  0.00000000000E+00 0. -1.
          1    1    5    5  503    0  0.56062004683E+03 -0.14847186957E+03 -0.28830876012E+02  0.58066337268E+03  0.00000000000E+00 0. -1.
         -2    1    5    5    0  503  0.11651209606E+03 -0.69523662939E+02 -0.21570206462E+02  0.13738224792E+03  0.00000000000E+00 0.  1.
         -1    1    6    6    0  502  0.19382352513E+03  0.86716037125E+02  0.50439125293E+03  0.54726389066E+03  0.00000000000E+00 0.  1.
<mgrwt>
<rscale>  0 0.21801555E+04</rscale>
<asrwt>0</asrwt>
<pdfrwt beam="1">  1        1 0.12071831E+00 0.21801555E+04</pdfrwt>
<pdfrwt beam="2">  1       -1 0.23297810E+00 0.21801555E+04</pdfrwt>
<totfact> 0.18785132E+00</totfact>
</mgrwt>
</event>
<event>
12    1  0.1504874E-007  0.1586387E+04  0.7818608E-02  0.8828955E-01
          2   -1    0    0  501    0  0.00000000000E+00  0.00000000000E+00  0.32597865924E+04  0.32597865924E+04  0.00000000000E+00 0. -1.
         -2   -1    0    0    0  501 -0.00000000000E+00 -0.00000000000E+00 -0.19300531934E+03  0.19300531934E+03  0.00000000000E+00 0.  1.
         23    2    1    2    0    0  0.50844154163E+03 -0.13845062439E+03  0.91698926458E+03  0.10613219937E+04  0.88621026535E+02 0.  0.
        254    2    1    2    0    0 -0.50844154163E+03  0.13845062439E+03  0.21497920085E+04  0.23914699180E+04  0.90545088902E+03 0.  0.
        -24    2    4    4    0    0 -0.34185851932E+03 -0.36722243287E+03  0.95557952277E+03  0.10816840137E+04  0.72031372751E+02 0.  0.
         24    2    4    4    0    0 -0.16658302231E+03  0.50567305726E+03  0.11942124857E+04  0.13097859044E+04  0.77074704312E+02 0.  0.
         13    1    3    3    0    0  0.39325144601E+02 -0.18586678409E+02  0.13236087339E+03  0.13932455783E+03  0.00000000000E+00 0.  1.
        -13    1    3    3    0    0  0.46911639703E+03 -0.11986394598E+03  0.78462839120E+03  0.92199743589E+03  0.00000000000E+00 0. -1.
          2    1    6    6  502    0 -0.12708357933E+03  0.42946978385E+03  0.93505714527E+03  0.10367865722E+04  0.00000000000E+00 0. -1.
          3    1    5    5  503    0 -0.89022591981E+02 -0.12343903518E+03  0.34937408410E+03  0.38108328215E+03  0.00000000000E+00 0. -1.
         -4    1    5    5    0  503 -0.25283592734E+03 -0.24378339770E+03  0.60620543866E+03  0.70060073152E+03  0.00000000000E+00 0.  1.
         -1    1    6    6    0  502 -0.39499442986E+02  0.76203273410E+02  0.25915534046E+03  0.27299933217E+03  0.00000000000E+00 0.  1.
<mgrwt>
<rscale>  0 0.15863873E+04</rscale>
<asrwt>0</asrwt>
<pdfrwt beam="1">  1        2 0.50150559E+00 0.15863873E+04</pdfrwt>
<pdfrwt beam="2">  1       -2 0.29693128E-01 0.15863873E+04</pdfrwt>
<totfact> 0.11993617E+01</totfact>
</mgrwt>
</event>
<event>
12    1  0.1504874E-007  0.1684809E+04  0.7818608E-02  0.8770076E-01
          2   -1    0    0  501    0  0.00000000000E+00  0.00000000000E+00  0.11616970610E+04  0.11616970610E+04  0.00000000000E+00 0.  1.
         -2   -1    0    0    0  501 -0.00000000000E+00 -0.00000000000E+00 -0.61086950066E+03  0.61086950066E+03  0.00000000000E+00 0. -1.
         23    2    1    2    0    0  0.12509166104E+03 -0.30625674119E+03  0.72905181406E+03  0.80593926103E+03  0.92630608827E+02 0.  0.
        254    2    1    2    0    0 -0.12509166104E+03  0.30625674119E+03 -0.17822425371E+03  0.96662730064E+03  0.89059718086E+03 0.  0.
        -24    2    4    4    0    0 -0.19318105744E+03 -0.19774633241E+03  0.17991908581E+03  0.33893381738E+03  0.77991808460E+02 0.  0.
         24    2    4    4    0    0  0.68089396398E+02  0.50400307361E+03 -0.35814333952E+03  0.62769348327E+03  0.84126055346E+02 0.  0.
         13    1    3    3    0    0  0.71718902571E+02 -0.79917140065E+02  0.17880723964E+03  0.20857223979E+03  0.00000000000E+00 0. -1.
        -13    1    3    3    0    0  0.53372758469E+02 -0.22633960113E+03  0.55024457442E+03  0.59736702124E+03  0.00000000000E+00 0.  1.
          2    1    6    6  502    0  0.86974150994E+02  0.39507693074E+03 -0.27090853541E+03  0.48686930351E+03  0.00000000000E+00 0. -1.
          1    1    5    5  503    0 -0.15529200497E+03 -0.16826567572E+03  0.10975876339E+03  0.25392111093E+03  0.00000000000E+00 0. -1.
         -2    1    5    5    0  503 -0.37889052471E+02 -0.29480656691E+02  0.70160322418E+02  0.85012706450E+02  0.00000000000E+00 0.  1.
         -1    1    6    6    0  502 -0.18884754596E+02  0.10892614287E+03 -0.87234804113E+02  0.14082417976E+03  0.00000000000E+00 0.  1.
<mgrwt>
<rscale>  0 0.16848090E+04</rscale>
<asrwt>0</asrwt>
<pdfrwt beam="1">  1        2 0.17872262E+00 0.16848090E+04</pdfrwt>
<pdfrwt beam="2">  1       -2 0.93979923E-01 0.16848090E+04</pdfrwt>
<totfact> 0.18190705E+01</totfact>
</mgrwt>
</event>
<event>
12    1  0.1504874E-007  0.1802469E+04  0.7818608E-02  0.8704988E-01
         -1   -1    0    0    0  501 -0.00000000000E+00  0.00000000000E+00  0.13674201521E+04  0.13674201521E+04  0.00000000000E+00 0.  1.
          1   -1    0    0  501    0  0.00000000000E+00 -0.00000000000E+00 -0.59398254961E+03  0.59398254961E+03  0.00000000000E+00 0. -1.
         23    2    1    2    0    0  0.22903377850E+03 -0.31134984698E+03 -0.29461613394E+03  0.49439036044E+03  0.90708120964E+02 0.  0.
        254    2    1    2    0    0 -0.22903377850E+03  0.31134984698E+03  0.10680537365E+04  0.14670123413E+04  0.92843482630E+03 0.  0.
        -24    2    4    4    0    0  0.37910303690E+02 -0.30860261272E+03  0.41509258836E+03  0.52454432406E+03  0.78562887438E+02 0.  0.
         24    2    4    4    0    0 -0.26694408219E+03  0.61995245970E+03  0.65296114811E+03  0.94246801726E+03  0.79293803811E+02 0.  0.
         13    1    3    3    0    0  0.99635996591E+02 -0.14754713822E+03 -0.19180335039E+03  0.26169832830E+03  0.00000000000E+00 0. -1.
        -13    1    3    3    0    0  0.12939778191E+03 -0.16380270876E+03 -0.10281278355E+03  0.23269203214E+03  0.00000000000E+00 0.  1.
          2    1    6    6  502    0 -0.23539742224E+03  0.52180971946E+03  0.58791516312E+03  0.82057392644E+03  0.00000000000E+00 0. -1.
          3    1    5    5  503    0  0.59507068238E+02 -0.26725222755E+03  0.34717608074E+03  0.44214938125E+03  0.00000000000E+00 0. -1.
         -4    1    5    5    0  503 -0.21596764547E+02 -0.41350385170E+02  0.67916507623E+02  0.82394942808E+02  0.00000000000E+00 0.  1.
         -1    1    6    6    0  502 -0.31546659947E+02  0.98142740236E+02  0.65045984986E+02  0.12189409082E+03  0.00000000000E+00 0.  1.
<mgrwt>
<rscale>  0 0.18024691E+04</rscale>
<asrwt>0</asrwt>
<pdfrwt beam="1">  1        1 0.91381931E-01 0.18024691E+04</pdfrwt>
<pdfrwt beam="2">  1       -1 0.21037233E+00 0.18024691E+04</pdfrwt>
<totfact> 0.41895966E+00</totfact>
</mgrwt>
</event>
<event>
12    1  0.1504874E-007  0.1269295E+04  0.7818608E-02  0.9054275E-01
         -2   -1    0    0    0  501 -0.00000000000E+00  0.00000000000E+00  0.43809962667E+03  0.43809962667E+03  0.00000000000E+00 0.  1.
          2   -1    0    0  501    0  0.00000000000E+00 -0.00000000000E+00 -0.91937475295E+03  0.91937475295E+03  0.00000000000E+00 0. -1.
         23    2    1    2    0    0 -0.10205151300E+03 -0.60515140048E+02  0.11461848253E+03  0.18795350584E+03  0.90069586107E+02 0.  0.
        254    2    1    2    0    0  0.10205151300E+03  0.60515140048E+02 -0.59589360881E+03  0.11695208738E+04  0.99930640330E+03 0.  0.
        -24    2    4    4    0    0 -0.14823136998E+03 -0.18121089476E+03 -0.74329822071E+03  0.78336014419E+03  0.79692805042E+02 0.  0.
         24    2    4    4    0    0  0.25028288298E+03  0.24172603480E+03  0.14740461190E+03  0.38616072958E+03  0.79492087940E+02 0.  0.
         11    1    3    3    0    0 -0.48923403280E+02  0.54971145861E+01  0.51193110860E+01  0.49496717096E+02  0.00000000000E+00 0. -1.
        -11    1    3    3    0    0 -0.53128109724E+02 -0.66012254634E+02  0.10949917144E+03  0.13845678875E+03  0.00000000000E+00 0.  1.
          4    1    6    6  502    0  0.21138180701E+03  0.23686501297E+03  0.13561522111E+03  0.34522281342E+03  0.00000000000E+00 0. -1.
          1    1    5    5  503    0 -0.58212865299E+02 -0.12709870824E+03 -0.36857897161E+03  0.39419954038E+03  0.00000000000E+00 0. -1.
         -2    1    5    5    0  503 -0.90018504681E+02 -0.54112186517E+02 -0.37471924909E+03  0.38916060381E+03  0.00000000000E+00 0.  1.
         -3    1    6    6    0  502  0.38901075969E+02  0.48610218344E+01  0.11789390789E+02  0.40937916166E+02  0.00000000000E+00 0.  1.
<mgrwt>
<rscale>  0 0.12692955E+04</rscale>
<asrwt>0</asrwt>
<pdfrwt beam="1">  1        2 0.14144227E+00 0.12692955E+04</pdfrwt>
<pdfrwt beam="2">  1       -2 0.67399943E-01 0.12692955E+04</pdfrwt>
<totfact> 0.56432429E+01</totfact>
</mgrwt>
</event>
<event>
12    1  0.1504874E-007  0.1876065E+04  0.7818608E-02  0.8666863E-01
         -2   -1    0    0    0  501 -0.00000000000E+00  0.00000000000E+00  0.26851556529E+03  0.26851556529E+03  0.00000000000E+00 0.  1.
          2   -1    0    0  501    0  0.00000000000E+00 -0.00000000000E+00 -0.32769242700E+04  0.32769242700E+04  0.00000000000E+00 0. -1.
         23    2    1    2    0    0 -0.58276621659E+03  0.40872725732E+03 -0.10645662815E+04  0.12837003775E+04  0.88943000830E+02 0.  0.
        254    2    1    2    0    0  0.58276621659E+03 -0.40872725732E+03 -0.19438424233E+04  0.22617394578E+04  0.91119019675E+03 0.  0.
        -24    2    4    4    0    0  0.51875233965E+02  0.20222240945E+03 -0.95787668525E+03  0.98367976679E+03  0.80704378122E+02 0.  0.
         24    2    4    4    0    0  0.53089098263E+03 -0.61094966677E+03 -0.98596573800E+03  0.12780596911E+04  0.78761707928E+02 0.  0.
         11    1    3    3    0    0 -0.39784154536E+03  0.26509684726E+03 -0.63998844357E+03  0.79883630460E+03  0.00000000000E+00 0. -1.
        -11    1    3    3    0    0 -0.18492467123E+03  0.14363041006E+03 -0.42457783793E+03  0.48486407289E+03  0.00000000000E+00 0.  1.
          2    1    6    6  502    0  0.46160258573E+03 -0.48675815233E+03 -0.82323810197E+03  0.10619469942E+04  0.00000000000E+00 0. -1.
          3    1    5    5  503    0 -0.55300071987E+01  0.11593636171E+03 -0.59884769768E+03  0.60999211959E+03  0.00000000000E+00 0. -1.
         -4    1    5    5    0  503  0.57405241164E+02  0.86286047747E+02 -0.35902898757E+03  0.37368764719E+03  0.00000000000E+00 0.  1.
         -1    1    6    6    0  502  0.69288396892E+02 -0.12419151444E+03 -0.16272763603E+03  0.21611269683E+03  0.00000000000E+00 0.  1.
<mgrwt>
<rscale>  0 0.18760652E+04</rscale>
<asrwt>0</asrwt>
<pdfrwt beam="1">  1        2 0.50414222E+00 0.18760652E+04</pdfrwt>
<pdfrwt beam="2">  1       -2 0.41310085E-01 0.18760652E+04</pdfrwt>
<totfact> 0.60422500E+00</totfact>
</mgrwt>
</event>
<event>
12    1  0.1504874E-007  0.2002801E+04  0.7818608E-02  0.8605312E-01
          1   -1    0    0  501    0  0.00000000000E+00  0.00000000000E+00  0.62500061330E+03  0.62500061330E+03  0.00000000000E+00 0. -1.
         -1   -1    0    0    0  501 -0.00000000000E+00 -0.00000000000E+00 -0.16044835144E+04  0.16044835144E+04  0.00000000000E+00 0.  1.
         23    2    1    2    0    0  0.47135804531E+02  0.67327318898E+02 -0.12714848203E+04  0.12773045031E+04  0.89879882581E+02 0.  0.
        254    2    1    2    0    0 -0.47135804531E+02 -0.67327318898E+02  0.29200191919E+03  0.95217962467E+03  0.90256643240E+03 0.  0.
        -24    2    4    4    0    0 -0.13037633384E+03 -0.23107847594E+03 -0.25068809417E+03  0.37356732221E+03  0.79452962131E+02 0.  0.
         24    2    4    4    0    0  0.83240529306E+02  0.16375115704E+03  0.54269001336E+03  0.57861230246E+03  0.80847503415E+02 0.  0.
         13    1    3    3    0    0  0.51506457449E+01 -0.21083599035E+02 -0.15077761778E+03  0.15233166881E+03  0.00000000000E+00 0. -1.
        -13    1    3    3    0    0  0.41985158786E+02  0.88410917933E+02 -0.11207072025E+04  0.11249728342E+04  0.00000000000E+00 0.  1.
          2    1    6    6  502    0  0.48274864377E+01 -0.30992383596E+01  0.29720004157E+00  0.57444087233E+01  0.00000000000E+00 0. -1.
          1    1    5    5  503    0 -0.32222543439E+02 -0.27790671322E+02 -0.79803534550E+02  0.90439028328E+02  0.00000000000E+00 0. -1.
         -4    1    5    5    0  503 -0.98153790397E+02 -0.20328780462E+03 -0.17088455962E+03  0.28312829388E+03  0.00000000000E+00 0.  1.
         -1    1    6    6    0  502  0.78413042868E+02  0.16685039540E+03  0.54239281332E+03  0.57286789374E+03  0.00000000000E+00 0.  1.
<mgrwt>
<rscale>  0 0.20028012E+04</rscale>
<asrwt>0</asrwt>
<pdfrwt beam="1">  1        1 0.96153940E-01 0.20028012E+04</pdfrwt>
<pdfrwt beam="2">  1       -1 0.24684362E+00 0.20028012E+04</pdfrwt>
<totfact> 0.21881559E+00</totfact>
</mgrwt>
</event>
<event>
12    1  0.1504874E-007  0.1709375E+04  0.7818608E-02  0.8756035E-01
          2   -1    0    0  501    0  0.00000000000E+00  0.00000000000E+00  0.11673958985E+04  0.11673958985E+04  0.00000000000E+00 0. -1.
         -2   -1    0    0    0  501 -0.00000000000E+00 -0.00000000000E+00 -0.62574376528E+03  0.62574376528E+03  0.00000000000E+00 0.  1.
         23    2    1    2    0    0 -0.20793044359E+03 -0.41699377983E+03  0.61400911859E+03  0.77636608629E+03  0.92834371027E+02 0.  0.
        254    2    1    2    0    0  0.20793044359E+03  0.41699377983E+03 -0.72356985374E+02  0.10167735775E+04  0.90081856816E+03 0.  0.
        -24    2    4    4    0    0 -0.59852403376E+02 -0.24724803442E+03 -0.12585911021E+03  0.29409430065E+03  0.77052198768E+02 0.  0.
         24    2    4    4    0    0  0.26778284697E+03  0.66424181426E+03  0.53502124840E+02  0.72267927683E+03  0.80486140799E+02 0.  0.
         13    1    3    3    0    0 -0.70639704145E+02 -0.67461752898E+02  0.99972626337E+02  0.13976974609E+03  0.00000000000E+00 0.  1.
        -13    1    3    3    0    0 -0.13729073944E+03 -0.34953202694E+03  0.51403649225E+03  0.63659634020E+03  0.00000000000E+00 0. -1.
          4    1    6    6  502    0  0.64081715430E+02  0.12463418098E+03  0.40020987531E+02  0.14574575384E+03  0.00000000000E+00 0. -1.
          3    1    5    5  503    0 -0.64790764411E+02 -0.11965011354E+03 -0.46709603237E+02  0.14386027895E+03  0.00000000000E+00 0. -1.
         -4    1    5    5    0  503  0.49383610350E+01 -0.12759792088E+03 -0.79149506977E+02  0.15023402170E+03  0.00000000000E+00 0.  1.
         -3    1    6    6    0  502  0.20370113153E+03  0.53960763328E+03  0.13481137309E+02  0.57693352299E+03  0.00000000000E+00 0.  1.
<mgrwt>
<rscale>  0 0.17093750E+04</rscale>
<asrwt>0</asrwt>
<pdfrwt beam="1">  1        2 0.17959937E+00 0.17093750E+04</pdfrwt>
<pdfrwt beam="2">  1       -2 0.96268272E-01 0.17093750E+04</pdfrwt>
<totfact> 0.17026377E+01</totfact>
</mgrwt>
</event>
<event>
12    1  0.1504874E-007  0.1034587E+04  0.7818608E-02  0.9271403E-01
         -1   -1    0    0    0  501 -0.00000000000E+00  0.00000000000E+00  0.31706568135E+03  0.31706568135E+03  0.00000000000E+00 0.  1.
          1   -1    0    0  501    0  0.00000000000E+00 -0.00000000000E+00 -0.84396651094E+03  0.84396651094E+03  0.00000000000E+00 0. -1.
         23    2    1    2    0    0 -0.92872399604E+00  0.75541153316E+02 -0.11310516631E+03  0.16433905472E+03  0.92234580756E+02 0.  0.
        254    2    1    2    0    0  0.92872399604E+00 -0.75541153316E+02 -0.41379566329E+03  0.99669313758E+03  0.90358343896E+03 0.  0.
        -24    2    4    4    0    0 -0.21199919589E+03 -0.10632289817E+03 -0.63188387489E+03  0.67964876340E+03  0.79981200987E+02 0.  0.
         24    2    4    4    0    0  0.21292791989E+03  0.30781744849E+02  0.21808821160E+03  0.31704437418E+03  0.81663041042E+02 0.  0.
         11    1    3    3    0    0 -0.17289618110E+02  0.90723722493E+02 -0.10669769166E+03  0.14111740545E+03  0.00000000000E+00 0. -1.
        -11    1    3    3    0    0  0.16360894114E+02 -0.15182569178E+02 -0.64074746499E+01  0.23221649262E+02  0.00000000000E+00 0.  1.
          2    1    6    6  502    0  0.10992545618E+03  0.47343919282E+02  0.15232431400E+03  0.19372080230E+03  0.00000000000E+00 0. -1.
          3    1    5    5  503    0 -0.18761243123E+03 -0.11714158798E+03 -0.58881565972E+03  0.62898684972E+03  0.00000000000E+00 0. -1.
         -4    1    5    5    0  503 -0.24386764658E+02  0.10818689817E+02 -0.43068215176E+02  0.50661913685E+02  0.00000000000E+00 0.  1.
         -3    1    6    6    0  502  0.10300246370E+03 -0.16562174433E+02  0.65763897605E+02  0.12332357187E+03  0.00000000000E+00 0.  1.
<mgrwt>
<rscale>  0 0.10345875E+04</rscale>
<asrwt>0</asrwt>
<pdfrwt beam="1">  1        1 0.12984100E+00 0.10345875E+04</pdfrwt>
<pdfrwt beam="2">  1       -1 0.48779336E-01 0.10345875E+04</pdfrwt>
<totfact> 0.85269724E+01</totfact>
</mgrwt>
</event>
<event>
12    1  0.1626923E-007  0.2969906E+04  0.7818608E-02  0.8252377E-01
         -2   -1    0    0    0  501 -0.00000000000E+00  0.00000000000E+00  0.94704297505E+03  0.94704297505E+03  0.00000000000E+00 0.  1.
          2   -1    0    0  501    0  0.00000000000E+00 -0.00000000000E+00 -0.23283898673E+04  0.23283898673E+04  0.00000000000E+00 0. -1.
         23    2    1    2    0    0  0.11439928940E+04 -0.42096670940E+03 -0.12643105330E+04  0.17586296579E+04  0.91457300989E+02 0.  0.
        254    2    1    2    0    0 -0.11439928940E+04  0.42096670940E+03 -0.11703635923E+03  0.15168031844E+04  0.89502049083E+03 0.  0.
        -24    2    4    4    0    0 -0.11532764390E+04  0.26432645787E+03 -0.33912097389E+03  0.12334001077E+04  0.79735624196E+02 0.  0.
         24    2    4    4    0    0  0.92835449836E+01  0.15664025154E+03  0.22208461467E+03  0.28340307672E+03  0.79833421661E+02 0.  0.
         13    1    3    3    0    0  0.11401586426E+04 -0.41514989316E+03 -0.12467631593E+04  0.17397498496E+04  0.00000000000E+00 0. -1.
        -13    1    3    3    0    0  0.38342514113E+01 -0.58168162486E+01 -0.17547373745E+02  0.18879808275E+02  0.00000000000E+00 0.  1.
          4    1    6    6  502    0 -0.19632801747E+02  0.66560697178E+02  0.14722781528E+03  0.16276302683E+03  0.00000000000E+00 0. -1.
          3    1    5    5  503    0 -0.53855652414E+03  0.12376049831E+03 -0.19980878766E+03  0.58760815367E+03  0.00000000000E+00 0. -1.
         -4    1    5    5    0  503 -0.61471991482E+03  0.14056595955E+03 -0.13931218624E+03  0.64579195403E+03  0.00000000000E+00 0.  1.
         -3    1    6    6    0  502  0.28916346731E+02  0.90079554357E+02  0.74856799393E+02  0.12064004989E+03  0.00000000000E+00 0.  1.
<mgrwt>
<rscale>  0 0.29699059E+04</rscale>
<asrwt>0</asrwt>
<pdfrwt beam="1">  1        2 0.35821383E+00 0.29699059E+04</pdfrwt>
<pdfrwt beam="2">  1       -2 0.14569892E+00 0.29699059E+04</pdfrwt>
<totfact> 0.12127442E+00</totfact>
</mgrwt>
</event>
<event>
12    1  0.1504874E-007  0.1347679E+04  0.7818608E-02  0.8992587E-01
          2   -1    0    0  501    0  0.00000000000E+00  0.00000000000E+00  0.49304020890E+03  0.49304020890E+03  0.00000000000E+00 0. -1.
         -2   -1    0    0    0  501 -0.00000000000E+00 -0.00000000000E+00 -0.92093799101E+03  0.92093799101E+03  0.00000000000E+00 0.  1.
         23    2    1    2    0    0  0.33725594039E+03 -0.14534279606E+03  0.63493649527E+02  0.38392117101E+03  0.92184186967E+02 0.  0.
        254    2    1    2    0    0 -0.33725594039E+03  0.14534279606E+03 -0.49139143164E+03  0.10300570289E+04  0.82745745874E+03 0.  0.
        -24    2    4    4    0    0 -0.37780575423E+03 -0.23360570815E+03 -0.45188428108E+03  0.63866005454E+03  0.79865179973E+02 0.  0.
         24    2    4    4    0    0  0.40549813842E+02  0.37894850421E+03 -0.39507150555E+02  0.39139697436E+03  0.79903193610E+02 0.  0.
         13    1    3    3    0    0  0.26856231517E+03 -0.11870519177E+03  0.87574612865E+02  0.30640814693E+03  0.00000000000E+00 0. -1.
        -13    1    3    3    0    0  0.68693625216E+02 -0.26637604289E+02 -0.24080963338E+02  0.77513024085E+02  0.00000000000E+00 0.  1.
          4    1    6    6  502    0 -0.48322088999E+01  0.15658421480E+03 -0.49314078385E+02  0.16423716051E+03  0.00000000000E+00 0. -1.
          1    1    5    5  503    0 -0.22322662296E+03 -0.17353813838E+03 -0.31799387969E+03  0.42551817610E+03  0.00000000000E+00 0. -1.
         -2    1    5    5    0  503 -0.15457913127E+03 -0.60067569771E+02 -0.13389040139E+03  0.21314187845E+03  0.00000000000E+00 0.  1.
         -3    1    6    6    0  502  0.45382022742E+02  0.22236428941E+03  0.98069278305E+01  0.22715981385E+03  0.00000000000E+00 0.  1.
<mgrwt>
<rscale>  0 0.13476787E+04</rscale>
<asrwt>0</asrwt>
<pdfrwt beam="1">  1        2 0.75852341E-01 0.13476787E+04</pdfrwt>
<pdfrwt beam="2">  1       -2 0.14168277E+00 0.13476787E+04</pdfrwt>
<totfact> 0.21272510E+01</totfact>
</mgrwt>
</event>
<event>
12    1  0.1504874E-007  0.1811988E+04  0.7818608E-02  0.8699950E-01
          1   -1    0    0  501    0  0.00000000000E+00  0.00000000000E+00  0.21166213280E+04  0.21166213280E+04  0.00000000000E+00 0. -1.
         -1   -1    0    0    0  501 -0.00000000000E+00 -0.00000000000E+00 -0.38779982779E+03  0.38779982779E+03  0.00000000000E+00 0.  1.
         23    2    1    2    0    0 -0.93785077595E+02  0.65074974617E+03  0.90038457423E+03  0.11185155334E+04  0.90076323281E+02 0.  0.
        254    2    1    2    0    0  0.93785077595E+02 -0.65074974617E+03  0.82843692596E+03  0.13859056224E+04  0.89563149840E+03 0.  0.
        -24    2    4    4    0    0 -0.26752730417E+03 -0.61635848765E+03  0.30083642975E+03  0.74056354059E+03  0.80393758599E+02 0.  0.
         24    2    4    4    0    0  0.36131238176E+03 -0.34391258518E+02  0.52760049621E+03  0.64534208178E+03  0.79841862724E+02 0.  0.
         11    1    3    3    0    0 -0.11446886863E+02  0.60245506553E+01  0.11218272905E+02  0.17122385243E+02  0.00000000000E+00 0.  1.
        -11    1    3    3    0    0 -0.82338190732E+02  0.64472519551E+03  0.88916630133E+03  0.11013931482E+04  0.00000000000E+00 0. -1.
          2    1    6    6  502    0  0.75050304241E+02  0.50505853617E+00  0.17086865748E+03  0.18662502876E+03  0.00000000000E+00 0. -1.
          1    1    5    5  503    0 -0.10655084663E+03 -0.28468722542E+03  0.95804642745E+02  0.31871370979E+03  0.00000000000E+00 0. -1.
         -2    1    5    5    0  503 -0.16097645754E+03 -0.33167126223E+03  0.20503178700E+03  0.42184983081E+03  0.00000000000E+00 0.  1.
         -1    1    6    6    0  502  0.28626207752E+03 -0.34896317054E+02  0.35673183873E+03  0.45871705302E+03  0.00000000000E+00 0.  1.
<mgrwt>
<rscale>  0 0.18119883E+04</rscale>
<asrwt>0</asrwt>
<pdfrwt beam="1">  1        1 0.32563404E+00 0.18119883E+04</pdfrwt>
<pdfrwt beam="2">  1       -1 0.59661513E-01 0.18119883E+04</pdfrwt>
<totfact> 0.66681376E+00</totfact>
</mgrwt>
</event>
<event>
12    1  0.1504874E-007  0.1595748E+04  0.7818608E-02  0.8823164E-01
          2   -1    0    0  501    0  0.00000000000E+00  0.00000000000E+00  0.80695994228E+03  0.80695994228E+03  0.00000000000E+00 0. -1.
         -2   -1    0    0    0  501 -0.00000000000E+00 -0.00000000000E+00 -0.78889052343E+03  0.78889052343E+03  0.00000000000E+00 0.  1.
         23    2    1    2    0    0 -0.33653020488E+03  0.19472713528E+03 -0.37209555307E+03  0.54575624037E+03  0.90683721134E+02 0.  0.
        254    2    1    2    0    0  0.33653020488E+03 -0.19472713528E+03  0.39016497191E+03  0.10500942253E+04  0.89403464182E+03 0.  0.
        -24    2    4    4    0    0  0.63670831297E+03 -0.13388686821E+03  0.29303229021E+03  0.71768703311E+03  0.76704531206E+02 0.  0.
         24    2    4    4    0    0 -0.30017810809E+03 -0.60840267064E+02  0.97132681708E+02  0.33240719223E+03  0.85154852595E+02 0.  0.
         13    1    3    3    0    0 -0.58907394098E+02  0.76949324188E+02 -0.76391673619E+02  0.12339759872E+03  0.00000000000E+00 0. -1.
        -13    1    3    3    0    0 -0.27762281078E+03  0.11777781109E+03 -0.29570387945E+03  0.42235864164E+03  0.00000000000E+00 0.  1.
          4    1    6    6  502    0 -0.64719944122E+02 -0.31991895041E+02 -0.85732828723E+01  0.72702501295E+02  0.00000000000E+00 0. -1.
          3    1    5    5  503    0  0.13715143068E+03 -0.32848189042E+02  0.30167854112E+02  0.14422072626E+03  0.00000000000E+00 0. -1.
         -4    1    5    5    0  503  0.49955688229E+03 -0.10103867917E+03  0.26286443609E+03  0.57346630685E+03  0.00000000000E+00 0.  1.
         -3    1    6    6    0  502 -0.23545816397E+03 -0.28848372023E+02  0.10570596458E+03  0.25970469094E+03  0.00000000000E+00 0.  1.
<mgrwt>
<rscale>  0 0.15957482E+04</rscale>
<asrwt>0</asrwt>
<pdfrwt beam="1">  1        2 0.12414768E+00 0.15957482E+04</pdfrwt>
<pdfrwt beam="2">  1       -2 0.12136777E+00 0.15957482E+04</pdfrwt>
<totfact> 0.16859572E+01</totfact>
</mgrwt>
</event>
<event>
12    1  0.1504874E-007  0.3111216E+04  0.7818608E-02  0.8212666E-01
          2   -1    0    0  501    0  0.00000000000E+00  0.00000000000E+00  0.15711541338E+04  0.15711541338E+04  0.00000000000E+00 0. -1.
         -2   -1    0    0    0  501 -0.00000000000E+00 -0.00000000000E+00 -0.15402161070E+04  0.15402161070E+04  0.00000000000E+00 0.  1.
         23    2    1    2    0    0  0.11266888711E+04  0.79805780900E+03 -0.32926107921E+03  0.14223958522E+04  0.92049027049E+02 0.  0.
        254    2    1    2    0    0 -0.11266888711E+04 -0.79805780900E+03  0.36019910598E+03  0.16889743886E+04  0.90364097442E+03 0.  0.
        -24    2    4    4    0    0 -0.40853089387E+03  0.13039250953E+03 -0.58609475439E+02  0.44009145530E+03  0.79660031570E+02 0.  0.
         24    2    4    4    0    0 -0.71815797718E+03 -0.92845031853E+03  0.41880858142E+03  0.12488829333E+04  0.80852204566E+02 0.  0.
         11    1    3    3    0    0  0.26828124343E+03  0.20381370027E+03 -0.41689966502E+02  0.33948917995E+03  0.00000000000E+00 0. -1.
        -11    1    3    3    0    0  0.85840762762E+03  0.59424410873E+03 -0.28757111271E+03  0.10829066722E+04  0.00000000000E+00 0.  1.
          2    1    6    6  502    0 -0.49477802487E+02 -0.39357633209E+02  0.33597270788E+02  0.71595061528E+02  0.00000000000E+00 0. -1.
          1    1    5    5  503    0 -0.62005935632E+02  0.42411782789E+02 -0.31773540454E+02  0.81566250655E+02  0.00000000000E+00 0. -1.
         -2    1    5    5    0  503 -0.34652495824E+03  0.87980726741E+02 -0.26835934986E+02  0.35852520465E+03  0.00000000000E+00 0.  1.
         -1    1    6    6    0  502 -0.66868017469E+03 -0.88909268532E+03  0.38521131063E+03  0.11772878717E+04  0.00000000000E+00 0.  1.
<mgrwt>
<rscale>  0 0.31112164E+04</rscale>
<asrwt>0</asrwt>
<pdfrwt beam="1">  1        2 0.24171602E+00 0.31112164E+04</pdfrwt>
<pdfrwt beam="2">  1       -2 0.23695632E+00 0.31112164E+04</pdfrwt>
<totfact> 0.75966200E-01</totfact>
</mgrwt>
</event>
<event>
12    1  0.1504874E-007  0.3165308E+04  0.7818608E-02  0.8198040E-01
         -1   -1    0    0    0  501 -0.00000000000E+00  0.00000000000E+00  0.12411467832E+04  0.12411467832E+04  0.00000000000E+00 0.  1.
          1   -1    0    0  501    0  0.00000000000E+00 -0.00000000000E+00 -0.20181288499E+04  0.20181288499E+04  0.00000000000E+00 0. -1.
         23    2    1    2    0    0 -0.12110541232E+04 -0.65538902941E+03  0.13734298884E+03  0.13868436164E+04  0.91023351764E+02 0.  0.
        254    2    1    2    0    0  0.12110541232E+04  0.65538902941E+03 -0.91432505553E+03  0.18724320168E+04  0.87967293987E+03 0.  0.
        -24    2    4    4    0    0  0.48582240666E+03  0.74416508918E+03 -0.58633243632E+03  0.10677155544E+04  0.80160392576E+02 0.  0.
         24    2    4    4    0    0  0.72523171649E+03 -0.88776059767E+02 -0.32799261920E+03  0.80471646232E+03  0.78404050185E+02 0.  0.
         11    1    3    3    0    0 -0.10128019370E+04 -0.55484775163E+03  0.81796920549E+02  0.11577195374E+04  0.00000000000E+00 0.  1.
        -11    1    3    3    0    0 -0.19825218617E+03 -0.10054127779E+03  0.55546068294E+02  0.22912407897E+03  0.00000000000E+00 0. -1.
          2    1    6    6  502    0  0.39325391054E+03 -0.68469739333E+02 -0.14219341799E+03  0.42374014617E+03  0.00000000000E+00 0. -1.
          3    1    5    5  503    0  0.28962141667E+03  0.49732720128E+03 -0.34901612412E+03  0.67307292697E+03  0.00000000000E+00 0. -1.
         -4    1    5    5    0  503  0.19620098999E+03  0.24683788790E+03 -0.23731631221E+03  0.39464262747E+03  0.00000000000E+00 0.  1.
         -1    1    6    6    0  502  0.33197780595E+03 -0.20306320433E+02 -0.18579920121E+03  0.38097631615E+03  0.00000000000E+00 0.  1.
<mgrwt>
<rscale>  0 0.31653083E+04</rscale>
<asrwt>0</asrwt>
<pdfrwt beam="1">  1        1 0.31048136E+00 0.31653083E+04</pdfrwt>
<pdfrwt beam="2">  1       -1 0.19094566E+00 0.31653083E+04</pdfrwt>
<totfact> 0.42300400E-01</totfact>
</mgrwt>
</event>
<event>
12    1  0.1504874E-007  0.1591876E+04  0.7818608E-02  0.8825555E-01
          2   -1    0    0  501    0  0.00000000000E+00  0.00000000000E+00  0.10915020267E+04  0.10915020267E+04  0.00000000000E+00 0. -1.
         -2   -1    0    0    0  501 -0.00000000000E+00 -0.00000000000E+00 -0.58040843192E+03  0.58040843192E+03  0.00000000000E+00 0.  1.
         23    2    1    2    0    0 -0.22917319268E+03 -0.12685207844E+03 -0.31751140164E+03  0.42130037610E+03  0.89826024555E+02 0.  0.
        254    2    1    2    0    0  0.22917319268E+03  0.12685207844E+03  0.82860499645E+03  0.12506100826E+04  0.89934839545E+03 0.  0.
        -24    2    4    4    0    0  0.46520496618E+03  0.32745024429E+02  0.86094057647E+03  0.98231376736E+03  0.78954190243E+02 0.  0.
         24    2    4    4    0    0 -0.23603177350E+03  0.94107054006E+02 -0.32335580020E+02  0.26829631519E+03  0.79813453108E+02 0.  0.
         13    1    3    3    0    0 -0.22212627511E+03 -0.13807561249E+03 -0.31152417310E+03  0.40675824182E+03  0.00000000000E+00 0.  1.
        -13    1    3    3    0    0 -0.70469175780E+01  0.11223534058E+02 -0.59872285332E+01  0.14542134287E+02  0.00000000000E+00 0. -1.
          4    1    6    6  502    0 -0.11545272850E+03  0.60227522664E+02  0.21477082421E+02  0.13197708920E+03  0.00000000000E+00 0. -1.
          3    1    5    5  503    0  0.84434853724E+02  0.27924995084E+02  0.21196253459E+03  0.22986336364E+03  0.00000000000E+00 0. -1.
         -4    1    5    5    0  503  0.38077011246E+03  0.48200293449E+01  0.64897804188E+03  0.75245040372E+03  0.00000000000E+00 0.  1.
         -3    1    6    6    0  502 -0.12057904500E+03  0.33879531343E+02 -0.53812662442E+02  0.13631922599E+03  0.00000000000E+00 0.  1.
<mgrwt>
<rscale>  0 0.15918756E+04</rscale>
<asrwt>0</asrwt>
<pdfrwt beam="1">  1        2 0.16792339E+00 0.15918756E+04</pdfrwt>
<pdfrwt beam="2">  1       -2 0.89293605E-01 0.15918756E+04</pdfrwt>
<totfact> 0.22775993E+01</totfact>
</mgrwt>
</event>
<event>
12    1  0.1504874E-007  0.1590068E+04  0.7818608E-02  0.8826673E-01
         -1   -1    0    0    0  501 -0.00000000000E+00  0.00000000000E+00  0.34359791794E+03  0.34359791794E+03  0.00000000000E+00 0.  1.
          1   -1    0    0  501    0  0.00000000000E+00 -0.00000000000E+00 -0.18395898489E+04  0.18395898489E+04  0.00000000000E+00 0. -1.
         23    2    1    2    0    0 -0.25483253953E+03 -0.29798839598E+02 -0.11481822272E+04  0.11799750825E+04  0.90505107025E+02 0.  0.
        254    2    1    2    0    0  0.25483253953E+03  0.29798839598E+02 -0.34780970377E+03  0.10032126844E+04  0.90533778556E+03 0.  0.
        -24    2    4    4    0    0  0.29834146213E+03 -0.25606154583E+03 -0.51997740458E+03  0.65660476483E+03  0.78601352682E+02 0.  0.
         24    2    4    4    0    0 -0.43508922597E+02  0.28586038543E+03  0.17216770081E+03  0.34660791953E+03  0.82982807704E+02 0.  0.
         13    1    3    3    0    0 -0.21852850733E+03 -0.40792823507E+02 -0.81968847752E+03  0.84929851239E+03  0.00000000000E+00 0.  1.
        -13    1    3    3    0    0 -0.36304032199E+02  0.10993983909E+02 -0.32849374968E+03  0.33067657011E+03  0.00000000000E+00 0. -1.
          2    1    6    6  502    0 -0.28190983772E+02  0.38177321784E+02  0.57235980705E+01  0.47801663564E+02  0.00000000000E+00 0. -1.
          1    1    5    5  503    0 -0.37090681492E+01  0.14199851233E+01 -0.64290561653E+01  0.75568715394E+01  0.00000000000E+00 0. -1.
         -2    1    5    5    0  503  0.30205053028E+03 -0.25748153095E+03 -0.51354834841E+03  0.64904789329E+03  0.00000000000E+00 0.  1.
         -1    1    6    6    0  502 -0.15317938825E+02  0.24768306364E+03  0.16644410274E+03  0.29880625596E+03  0.00000000000E+00 0.  1.
<mgrwt>
<rscale>  0 0.15900682E+04</rscale>
<asrwt>0</asrwt>
<pdfrwt beam="1">  1        1 0.28301382E+00 0.15900682E+04</pdfrwt>
<pdfrwt beam="2">  1       -1 0.52861218E-01 0.15900682E+04</pdfrwt>
<totfact> 0.13268742E+01</totfact>
</mgrwt>
</event>
<event>
12    1  0.1504874E-007  0.1264983E+04  0.7818608E-02  0.9057805E-01
          2   -1    0    0  501    0  0.00000000000E+00  0.00000000000E+00  0.11321801542E+04  0.11321801542E+04  0.00000000000E+00 0. -1.
         -2   -1    0    0    0  501 -0.00000000000E+00 -0.00000000000E+00 -0.35334069303E+03  0.35334069303E+03  0.00000000000E+00 0.  1.
         23    2    1    2    0    0 -0.33609683727E+02 -0.66927122612E+02  0.53073541163E+03  0.54411412575E+03  0.93654973728E+02 0.  0.
        254    2    1    2    0    0  0.33609683727E+02  0.66927122612E+02  0.24810404950E+03  0.94140672144E+03  0.90503157139E+03 0.  0.
        -24    2    4    4    0    0  0.22954680265E+03  0.40958130426E+03  0.25214493291E+03  0.53878658635E+03  0.79153894613E+02 0.  0.
         24    2    4    4    0    0 -0.19593711892E+03 -0.34265418165E+03 -0.40408834120E+01  0.40262013509E+03  0.79267910706E+02 0.  0.
         11    1    3    3    0    0  0.21513927562E+02 -0.40755198937E+01  0.34331781931E+02  0.40720144795E+02  0.00000000000E+00 0.  1.
        -11    1    3    3    0    0 -0.55123611290E+02 -0.62851602719E+02  0.49640362970E+03  0.50339398096E+03  0.00000000000E+00 0. -1.
          4    1    6    6  502    0 -0.22793614387E+02 -0.85593075168E+02  0.22985904462E+02  0.91509973104E+02  0.00000000000E+00 0. -1.
          1    1    5    5  503    0  0.35459601933E+02  0.61780798179E+02  0.81428436071E+01  0.71697672869E+02  0.00000000000E+00 0. -1.
         -2    1    5    5    0  503  0.19408720071E+03  0.34780050608E+03  0.24400208930E+03  0.46708891348E+03  0.00000000000E+00 0.  1.
         -3    1    6    6    0  502 -0.17314350453E+03 -0.25706110648E+03 -0.27026787874E+02  0.31111016198E+03  0.00000000000E+00 0.  1.
<mgrwt>
<rscale>  0 0.12649827E+04</rscale>
<asrwt>0</asrwt>
<pdfrwt beam="1">  1        2 0.17418156E+00 0.12649827E+04</pdfrwt>
<pdfrwt beam="2">  1       -2 0.54360107E-01 0.12649827E+04</pdfrwt>
<totfact> 0.65145260E+01</totfact>
</mgrwt>
</event>
<event>
12    1  0.1504874E-007  0.3519505E+04  0.7818608E-02  0.8109183E-01
         -2   -1    0    0    0  501 -0.00000000000E+00  0.00000000000E+00  0.79508299334E+03  0.79508299334E+03  0.00000000000E+00 0. -1.
          2   -1    0    0  501    0  0.00000000000E+00 -0.00000000000E+00 -0.38948504879E+04  0.38948504879E+04  0.00000000000E+00 0.  1.
         23    2    1    2    0    0  0.14904484118E+03 -0.97279538207E+03  0.28349585156E+03  0.10283160102E+04  0.92296798023E+02 0.  0.
        254    2    1    2    0    0 -0.14904484118E+03  0.97279538207E+03 -0.33832633461E+04  0.36616174710E+04  0.99620601028E+03 0.  0.
        -24    2    4    4    0    0 -0.43160343985E+03  0.26441728786E+03 -0.21447189947E+04  0.22048770705E+04  0.73927654957E+02 0.  0.
         24    2    4    4    0    0  0.28255859867E+03  0.70837809421E+03 -0.12385443514E+04  0.14567404005E+04  0.80384066744E+02 0.  0.
         11    1    3    3    0    0  0.12433163469E+03 -0.86359512128E+03  0.22083661003E+03  0.90001316502E+03  0.00000000000E+00 0. -1.
        -11    1    3    3    0    0  0.24713206486E+02 -0.10920026079E+03  0.62659241535E+02  0.12830284518E+03  0.00000000000E+00 0.  1.
          4    1    6    6  502    0  0.30908763173E+02  0.16134027762E+03 -0.24522222821E+03  0.29516093582E+03  0.00000000000E+00 0. -1.
          3    1    5    5  503    0 -0.45113630370E+02  0.60227240826E+01 -0.15357031654E+03  0.16017289088E+03  0.00000000000E+00 0. -1.
         -4    1    5    5    0  503 -0.38648980948E+03  0.25839456377E+03 -0.19911486782E+04  0.20447041796E+04  0.00000000000E+00 0.  1.
         -3    1    6    6    0  502  0.25164983550E+03  0.54703781659E+03 -0.99332212316E+03  0.11615794647E+04  0.00000000000E+00 0.  1.
<mgrwt>
<rscale>  0 0.35195053E+04</rscale>
<asrwt>0</asrwt>
<pdfrwt beam="1">  1        2 0.59920776E+00 0.35195053E+04</pdfrwt>
<pdfrwt beam="2">  1       -2 0.12232046E+00 0.35195053E+04</pdfrwt>
<totfact> 0.17189550E-01</totfact>
</mgrwt>
</event>
<event>
12    1  0.1793408E-007  0.2414377E+04  0.7818608E-02  0.8434140E-01
          2   -1    0    0  501    0  0.00000000000E+00  0.00000000000E+00  0.17835505516E+04  0.17835505516E+04  0.00000000000E+00 0. -1.
         -2   -1    0    0    0  501 -0.00000000000E+00 -0.00000000000E+00 -0.81708048555E+03  0.81708048555E+03  0.00000000000E+00 0.  1.
         23    2    1    2    0    0  0.97502275655E+02  0.35534133901E+03 -0.62742804876E+03  0.73348401161E+03  0.92513123134E+02 0.  0.
        254    2    1    2    0    0 -0.97502275655E+02 -0.35534133901E+03  0.15938981148E+04  0.18671470256E+04  0.89997369608E+03 0.  0.
        -24    2    4    4    0    0 -0.24314361311E+03  0.21820702884E+03  0.84342389406E+03  0.90802779561E+03  0.80109228546E+02 0.  0.
         24    2    4    4    0    0  0.14564133745E+03 -0.57354836785E+03  0.75047422079E+03  0.95911922996E+03  0.80802300625E+02 0.  0.
         13    1    3    3    0    0  0.86588816669E+02  0.34779688585E+03 -0.62427537394E+03  0.71984723344E+03  0.00000000000E+00 0.  1.
        -13    1    3    3    0    0  0.10913458986E+02  0.75444531579E+01 -0.31526748231E+01  0.13636778176E+02  0.00000000000E+00 0. -1.
          2    1    6    6  502    0  0.52020419633E+01 -0.46376302487E+01  0.28114422374E+02  0.28965317197E+02  0.00000000000E+00 0. -1.
          1    1    5    5  503    0 -0.25266853109E+02  0.56688399818E+02  0.11377180642E+03  0.12959943085E+03  0.00000000000E+00 0. -1.
         -2    1    5    5    0  503 -0.21787676000E+03  0.16151862902E+03  0.72965208764E+03  0.77842836476E+03  0.00000000000E+00 0.  1.
         -1    1    6    6    0  502  0.14043929549E+03 -0.56891073760E+03  0.72235979841E+03  0.93015391277E+03  0.00000000000E+00 0.  1.
<mgrwt>
<rscale>  0 0.24143772E+04</rscale>
<asrwt>0</asrwt>
<pdfrwt beam="1">  1        2 0.27439239E+00 0.24143772E+04</pdfrwt>
<pdfrwt beam="2">  1       -2 0.12570469E+00 0.24143772E+04</pdfrwt>
<totfact> 0.37421587E+00</totfact>
</mgrwt>
</event>
<event>
12    1  0.1504874E-007  0.1355014E+04  0.7818608E-02  0.8987041E-01
         -1   -1    0    0    0  501 -0.00000000000E+00  0.00000000000E+00  0.72382204359E+03  0.72382204359E+03  0.00000000000E+00 0.  1.
          1   -1    0    0  501    0  0.00000000000E+00 -0.00000000000E+00 -0.63415558880E+03  0.63415558880E+03  0.00000000000E+00 0. -1.
         23    2    1    2    0    0 -0.20093817076E+03 -0.22334773211E+03 -0.19229108068E+03  0.36825786343E+03  0.91529428921E+02 0.  0.
        254    2    1    2    0    0  0.20093817076E+03  0.22334773211E+03  0.28195753547E+03  0.98971976897E+03  0.89988044282E+03 0.  0.
        -24    2    4    4    0    0 -0.17809511012E+03  0.34552463207E+03  0.40471447906E+03  0.56652358190E+03  0.77781872446E+02 0.  0.
         24    2    4    4    0    0  0.37903328089E+03 -0.12217689996E+03 -0.12275694359E+03  0.42319618707E+03  0.73704291913E+02 0.  0.
         13    1    3    3    0    0 -0.15653176953E+03 -0.18171515306E+03 -0.10494457319E+03  0.26179372637E+03  0.00000000000E+00 0. -1.
        -13    1    3    3    0    0 -0.44406401236E+02 -0.41632579047E+02 -0.87346507492E+02  0.10646413706E+03  0.00000000000E+00 0.  1.
          2    1    6    6  502    0  0.18003206628E+02  0.54633748106E+01  0.50875208500E+01  0.19489658325E+02  0.00000000000E+00 0. -1.
          3    1    5    5  503    0  0.55344121010E+01  0.31405467262E+02  0.42284006990E+02  0.52961026598E+02  0.00000000000E+00 0. -1.
         -4    1    5    5    0  503 -0.18362952222E+03  0.31411916480E+03  0.36243047207E+03  0.51356255531E+03  0.00000000000E+00 0.  1.
         -1    1    6    6    0  502  0.36103007426E+03 -0.12764027477E+03 -0.12784446444E+03  0.40370652874E+03  0.00000000000E+00 0.  1.
<mgrwt>
<rscale>  0 0.13550141E+04</rscale>
<asrwt>0</asrwt>
<pdfrwt beam="1">  1        1 0.97562398E-01 0.13550141E+04</pdfrwt>
<pdfrwt beam="2">  1       -1 0.11135724E+00 0.13550141E+04</pdfrwt>
<totfact> 0.22921836E+01</totfact>
</mgrwt>
</event>
<event>
12    1  0.1504874E-007  0.1615756E+04  0.7818608E-02  0.8810927E-01
          1   -1    0    0  501    0  0.00000000000E+00  0.00000000000E+00  0.11806564777E+04  0.11806564777E+04  0.00000000000E+00 0. -1.
         -1   -1    0    0    0  501 -0.00000000000E+00 -0.00000000000E+00 -0.55279996488E+03  0.55279996488E+03  0.00000000000E+00 0.  1.
         23    2    1    2    0    0  0.21219215618E+03  0.22382420790E+03 -0.27050290658E+03  0.42033021433E+03  0.91558065853E+02 0.  0.
        254    2    1    2    0    0 -0.21219215618E+03 -0.22382420790E+03  0.89835941937E+03  0.13131262282E+04  0.90671277572E+03 0.  0.
        -24    2    4    4    0    0 -0.42284707555E+03 -0.45275324682E+03  0.68790279659E+03  0.92917187018E+03  0.79780667900E+02 0.  0.
         24    2    4    4    0    0  0.21065491937E+03  0.22892903893E+03  0.21045662278E+03  0.38395435803E+03  0.79655251276E+02 0.  0.
         13    1    3    3    0    0  0.17261035908E+03  0.19325420163E+03 -0.17546670361E+03  0.31293783182E+03  0.00000000000E+00 0.  1.
        -13    1    3    3    0    0  0.39581797097E+02  0.30570006268E+02 -0.95036202976E+02  0.10739238251E+03  0.00000000000E+00 0. -1.
          4    1    6    6  502    0  0.49281276815E+02  0.10116274043E+03  0.99037986297E+02  0.14990352573E+03  0.00000000000E+00 0. -1.
          3    1    5    5  503    0 -0.34734367019E+03 -0.37348518689E+03  0.51721852881E+03  0.72639783630E+03  0.00000000000E+00 0. -1.
         -4    1    5    5    0  503 -0.75503405364E+02 -0.79268059938E+02  0.17068426778E+03  0.20277403388E+03  0.00000000000E+00 0.  1.
         -3    1    6    6    0  502  0.16137364256E+03  0.12776629849E+03  0.11141863648E+03  0.23405083230E+03  0.00000000000E+00 0.  1.
<mgrwt>
<rscale>  0 0.16157560E+04</rscale>
<asrwt>0</asrwt>
<pdfrwt beam="1">  1        1 0.18163946E+00 0.16157560E+04</pdfrwt>
<pdfrwt beam="2">  1       -1 0.85046149E-01 0.16157560E+04</pdfrwt>
<totfact> 0.14470046E+01</totfact>
</mgrwt>
</event>
<event>
12    1  0.1504874E-007  0.1211896E+04  0.7818608E-02  0.9102507E-01
          2   -1    0    0  501    0  0.00000000000E+00  0.00000000000E+00  0.24491160736E+04  0.24491160736E+04  0.00000000000E+00 0.  1.
         -2   -1    0    0    0  501 -0.00000000000E+00 -0.00000000000E+00 -0.14992066451E+03  0.14992066451E+03  0.00000000000E+00 0. -1.
         23    2    1    2    0    0 -0.10015232611E+03 -0.10282001088E+03  0.55759004056E+02  0.17925940137E+03  0.91773761957E+02 0.  0.
        254    2    1    2    0    0  0.10015232611E+03  0.10282001088E+03  0.22434364050E+04  0.24197773367E+04  0.89538428224E+03 0.  0.
        -24    2    4    4    0    0  0.21663000531E+03  0.20739339186E+03  0.20107261921E+03  0.36999467724E+03  0.80779234980E+02 0.  0.
         24    2    4    4    0    0 -0.11647767920E+03 -0.10457338097E+03  0.20423637858E+04  0.20497826595E+04  0.76527614427E+02 0.  0.
         13    1    3    3    0    0 -0.52321488818E+02 -0.45323276553E+02 -0.20751899271E+02  0.72266028761E+02  0.00000000000E+00 0. -1.
        -13    1    3    3    0    0 -0.47830837288E+02 -0.57496734331E+02  0.76510903327E+02  0.10699337261E+03  0.00000000000E+00 0.  1.
          4    1    6    6  502    0 -0.59652991972E+02 -0.64206951386E+02  0.67821024921E+03  0.68384951136E+03  0.00000000000E+00 0. -1.
          3    1    5    5  503    0  0.18902484465E+03  0.16870135054E+03  0.19943579790E+03  0.32243631162E+03  0.00000000000E+00 0. -1.
         -4    1    5    5    0  503  0.27605160657E+02  0.38692041316E+02  0.16368213113E+01  0.47558365616E+02  0.00000000000E+00 0.  1.
         -3    1    6    6    0  502 -0.56824687230E+02 -0.40366429587E+02  0.13641535366E+04  0.13659331481E+04  0.00000000000E+00 0.  1.
<mgrwt>
<rscale>  0 0.12118962E+04</rscale>
<asrwt>0</asrwt>
<pdfrwt beam="1">  1        2 0.37678706E+00 0.12118962E+04</pdfrwt>
<pdfrwt beam="2">  1       -2 0.23064719E-01 0.12118962E+04</pdfrwt>
<totfact> 0.61280099E+01</totfact>
</mgrwt>
</event>
<event>
12    1  0.1504874E-007  0.1638808E+04  0.7818608E-02  0.8797055E-01
          2   -1    0    0  501    0  0.00000000000E+00  0.00000000000E+00  0.24391673183E+04  0.24391673183E+04  0.00000000000E+00 0. -1.
         -2   -1    0    0    0  501 -0.00000000000E+00 -0.00000000000E+00 -0.27526719800E+03  0.27526719800E+03  0.00000000000E+00 0.  1.
         23    2    1    2    0    0 -0.17059466217E+03  0.53250196920E+03  0.73118305993E+03  0.92504195159E+03  0.91722729460E+02 0.  0.
        254    2    1    2    0    0  0.17059466217E+03 -0.53250196920E+03  0.14327170604E+04  0.17893925648E+04  0.91465113003E+03 0.  0.
        -24    2    4    4    0    0 -0.20672885842E+02  0.21611746265E+03  0.11495623688E+03  0.25965478261E+03  0.84092472085E+02 0.  0.
         24    2    4    4    0    0  0.19126754801E+03 -0.74861943186E+03  0.13177608235E+04  0.15297377822E+04  0.81177370251E+02 0.  0.
         13    1    3    3    0    0 -0.13459052246E+03  0.49005246902E+03  0.62863452235E+03  0.80836093041E+03  0.00000000000E+00 0.  1.
        -13    1    3    3    0    0 -0.36004139710E+02  0.42449500182E+02  0.10254853758E+03  0.11668102117E+03  0.00000000000E+00 0. -1.
          4    1    6    6  502    0 -0.80570195520E+01 -0.23193821331E+02  0.44913793910E+02  0.51187086217E+02  0.00000000000E+00 0. -1.
          1    1    5    5  503    0  0.11299822039E+01  0.71026634440E+01  0.33513116692E+02  0.34276138613E+02  0.00000000000E+00 0. -1.
         -2    1    5    5    0  503 -0.21802868046E+02  0.20901479921E+03  0.81443120188E+02  0.22537864400E+03  0.00000000000E+00 0.  1.
         -3    1    6    6    0  502  0.19932456757E+03 -0.72542561053E+03  0.12728470296E+04  0.14785506959E+04  0.00000000000E+00 0.  1.
<mgrwt>
<rscale>  0 0.16388078E+04</rscale>
<asrwt>0</asrwt>
<pdfrwt beam="1">  1        2 0.37525650E+00 0.16388078E+04</pdfrwt>
<pdfrwt beam="2">  1       -2 0.42348801E-01 0.16388078E+04</pdfrwt>
<totfact> 0.19105167E+01</totfact>
</mgrwt>
</event>
<event>
12    1  0.1504874E-007  0.1774764E+04  0.7818608E-02  0.8719836E-01
         -2   -1    0    0    0  501 -0.00000000000E+00  0.00000000000E+00  0.35005325202E+03  0.35005325202E+03  0.00000000000E+00 0. -1.
          2   -1    0    0  501    0  0.00000000000E+00 -0.00000000000E+00 -0.22495055767E+04  0.22495055767E+04  0.00000000000E+00 0.  1.
         23    2    1    2    0    0 -0.34460993233E+03  0.28177610319E+03  0.26232778512E+02  0.45500142683E+03  0.90467463531E+02 0.  0.
        254    2    1    2    0    0  0.34460993233E+03 -0.28177610319E+03 -0.19256851032E+04  0.21445574018E+04  0.83229174904E+03 0.  0.
        -24    2    4    4    0    0  0.11274635380E+03  0.78625837806E+02 -0.15808611063E+04  0.15888939005E+04  0.81044597821E+02 0.  0.
         24    2    4    4    0    0  0.23186357853E+03 -0.36040194099E+03 -0.34482399681E+03  0.55566350134E+03  0.78791242091E+02 0.  0.
         13    1    3    3    0    0 -0.23759494841E+03  0.20166463270E+03 -0.23134149035E+02  0.31249827590E+03  0.00000000000E+00 0. -1.
        -13    1    3    3    0    0 -0.10701498393E+03  0.80111470483E+02  0.49366927547E+02  0.14250315092E+03  0.00000000000E+00 0.  1.
          4    1    6    6  502    0  0.16119429026E+03 -0.29998140497E+03 -0.24691716374E+03  0.42064299387E+03  0.00000000000E+00 0. -1.
          3    1    5    5  503    0  0.73047660307E+02  0.18416857378E+02 -0.11087393710E+04  0.11112957005E+04  0.00000000000E+00 0. -1.
         -4    1    5    5    0  503  0.39698693496E+02  0.60208980428E+02 -0.47212173538E+03  0.47759819996E+03  0.00000000000E+00 0.  1.
         -3    1    6    6    0  502  0.70669288269E+02 -0.60420536026E+02 -0.97906833068E+02  0.13502050748E+03  0.00000000000E+00 0.  1.
<mgrwt>
<rscale>  0 0.17747639E+04</rscale>
<asrwt>0</asrwt>
<pdfrwt beam="1">  1        2 0.34607779E+00 0.17747639E+04</pdfrwt>
<pdfrwt beam="2">  1       -2 0.53854346E-01 0.17747639E+04</pdfrwt>
<totfact> 0.14884397E+01</totfact>
</mgrwt>
</event>
<event>
12    1  0.1504874E-007  0.1537724E+04  0.7818608E-02  0.8859748E-01
          1   -1    0    0  501    0  0.00000000000E+00  0.00000000000E+00  0.20685851709E+04  0.20685851709E+04  0.00000000000E+00 0. -1.
         -1   -1    0    0    0  501 -0.00000000000E+00 -0.00000000000E+00 -0.28577427683E+03  0.28577427683E+03  0.00000000000E+00 0.  1.
         23    2    1    2    0    0 -0.20565451225E+03 -0.39900180587E+03  0.28300211552E+03  0.54579894070E+03  0.12771087182E+03 0.  0.
        254    2    1    2    0    0  0.20565451225E+03  0.39900180587E+03  0.14998087785E+04  0.18085605070E+04  0.90552112943E+03 0.  0.
        -24    2    4    4    0    0  0.43711802641E+03  0.18374557274E+03  0.13790992700E+04  0.14604794965E+04  0.79063003236E+02 0.  0.
         24    2    4    4    0    0 -0.23146351416E+03  0.21525623313E+03  0.12070950850E+03  0.34808101054E+03  0.81725150172E+02 0.  0.
         11    1    3    3    0    0 -0.15657021618E+03 -0.18664828715E+03  0.10893750804E+03  0.26686924954E+03  0.00000000000E+00 0.  1.
        -11    1    3    3    0    0 -0.49084296072E+02 -0.21235351872E+03  0.17406460748E+03  0.27892969116E+03  0.00000000000E+00 0. -1.
          4    1    6    6  502    0 -0.21379937061E+03  0.18558387330E+03  0.78988923322E+02  0.29392311053E+03  0.00000000000E+00 0. -1.
          1    1    5    5  503    0  0.35824926715E+03  0.18138949848E+03  0.11344276349E+04  0.12033996619E+04  0.00000000000E+00 0. -1.
         -2    1    5    5    0  503  0.78868759260E+02  0.23560742619E+01  0.24467163517E+03  0.25707983455E+03  0.00000000000E+00 0.  1.
         -1    1    6    6    0  502 -0.17664143552E+02  0.29672359833E+02  0.41720585181E+02  0.54157900008E+02  0.00000000000E+00 0.  1.
<mgrwt>
<rscale>  0 0.15377236E+04</rscale>
<asrwt>0</asrwt>
<pdfrwt beam="1">  1        1 0.31824386E+00 0.15377236E+04</pdfrwt>
<pdfrwt beam="2">  1       -1 0.43965275E-01 0.15377236E+04</pdfrwt>
<totfact> 0.13213763E+01</totfact>
</mgrwt>
</event>
<event>
12    1  0.1504874E-007  0.1823326E+04  0.7818608E-02  0.8693992E-01
         -2   -1    0    0    0  501 -0.00000000000E+00  0.00000000000E+00  0.11802520468E+04  0.11802520468E+04  0.00000000000E+00 0.  1.
          2   -1    0    0  501    0  0.00000000000E+00 -0.00000000000E+00 -0.70419648277E+03  0.70419648277E+03  0.00000000000E+00 0. -1.
         23    2    1    2    0    0  0.25674439933E+03  0.12906334304E+03  0.81878053547E+03  0.87268429377E+03  0.92743076352E+02 0.  0.
        254    2    1    2    0    0 -0.25674439933E+03 -0.12906334304E+03 -0.34272497146E+03  0.10117642358E+04  0.90754142034E+03 0.  0.
        -24    2    4    4    0    0  0.21024087881E+02  0.30773271015E+03  0.90880458581E+02  0.33183832827E+03  0.81951114630E+02 0.  0.
         24    2    4    4    0    0 -0.27776848721E+03 -0.43679605319E+03 -0.43360543005E+03  0.67992590751E+03  0.79620639067E+02 0.  0.
         13    1    3    3    0    0  0.14754190223E+03  0.50354387905E+02  0.31846080855E+03  0.35457222660E+03  0.00000000000E+00 0. -1.
        -13    1    3    3    0    0  0.10920249710E+03  0.78708955140E+02  0.50031972692E+03  0.51811206716E+03  0.00000000000E+00 0.  1.
          2    1    6    6  502    0 -0.55694588780E+02 -0.11088970365E+03 -0.64881720346E+02  0.14002875144E+03  0.00000000000E+00 0. -1.
          3    1    5    5  503    0 -0.23479549234E+02  0.33505668637E+02  0.17475999313E+02  0.44489657394E+02  0.00000000000E+00 0. -1.
         -4    1    5    5    0  503  0.44503637115E+02  0.27422704151E+03  0.73404459269E+02  0.28734867087E+03  0.00000000000E+00 0.  1.
         -1    1    6    6    0  502 -0.22207389843E+03 -0.32590634954E+03 -0.36872370970E+03  0.53989715607E+03  0.00000000000E+00 0.  1.
<mgrwt>
<rscale>  0 0.18233259E+04</rscale>
<asrwt>0</asrwt>
<pdfrwt beam="1">  1        2 0.10833792E+00 0.18233259E+04</pdfrwt>
<pdfrwt beam="2">  1       -2 0.18157724E+00 0.18233259E+04</pdfrwt>
<totfact> 0.67712927E+00</totfact>
</mgrwt>
</event>
<event>
12    1  0.1504874E-007  0.1647930E+04  0.7818608E-02  0.8791632E-01
          2   -1    0    0  501    0  0.00000000000E+00  0.00000000000E+00  0.24284397993E+04  0.24284397993E+04  0.00000000000E+00 0. -1.
         -2   -1    0    0    0  501 -0.00000000000E+00 -0.00000000000E+00 -0.27956962879E+03  0.27956962879E+03  0.00000000000E+00 0.  1.
         23    2    1    2    0    0  0.26486564494E+03  0.40215340048E+03  0.12840566042E+04  0.13741318547E+04  0.86924242555E+02 0.  0.
        254    2    1    2    0    0 -0.26486564494E+03 -0.40215340048E+03  0.86481356639E+03  0.13338775735E+04  0.89411727921E+03 0.  0.
        -24    2    4    4    0    0 -0.31363154608E+03 -0.46252591585E+03  0.10069375524E+04  0.11540696141E+04  0.75222803093E+02 0.  0.
         24    2    4    4    0    0  0.48765901146E+02  0.60372515372E+02 -0.14212398604E+03  0.17980795938E+03  0.78158308071E+02 0.  0.
         13    1    3    3    0    0  0.16095492573E+03  0.26248427305E+03  0.92898948959E+03  0.97868582981E+03  0.00000000000E+00 0. -1.
        -13    1    3    3    0    0  0.10391071921E+03  0.13966912743E+03  0.35506711458E+03  0.39544602486E+03  0.00000000000E+00 0.  1.
          2    1    6    6  502    0  0.26545723471E+01  0.10728983393E+02  0.89591717166E+01  0.14227599827E+02  0.00000000000E+00 0. -1.
          3    1    5    5  503    0 -0.26511151224E+02 -0.46809974231E+02  0.58620745429E+02  0.79563852480E+02  0.00000000000E+00 0. -1.
         -4    1    5    5    0  503 -0.28712039486E+03 -0.41571594162E+03  0.94831680700E+03  0.10745057616E+04  0.00000000000E+00 0.  1.
         -1    1    6    6    0  502  0.46111328799E+02  0.49643531979E+02 -0.15108315776E+03  0.16558035955E+03  0.00000000000E+00 0.  1.
<mgrwt>
<rscale>  0 0.16479296E+04</rscale>
<asrwt>0</asrwt>
<pdfrwt beam="1">  1        2 0.37360611E+00 0.16479296E+04</pdfrwt>
<pdfrwt beam="2">  1       -2 0.43010714E-01 0.16479296E+04</pdfrwt>
<totfact> 0.18776716E+01</totfact>
</mgrwt>
</event>
<event>
12    1  0.1504874E-007  0.1556590E+04  0.7818608E-02  0.8847669E-01
         -2   -1    0    0    0  501 -0.00000000000E+00  0.00000000000E+00  0.39997055973E+03  0.39997055973E+03  0.00000000000E+00 0.  1.
          2   -1    0    0  501    0  0.00000000000E+00 -0.00000000000E+00 -0.15144701259E+04  0.15144701259E+04  0.00000000000E+00 0. -1.
         23    2    1    2    0    0 -0.91416277488E+02  0.29041344397E+03 -0.68399743591E+03  0.75421194971E+03  0.91028943390E+02 0.  0.
        254    2    1    2    0    0  0.91416277488E+02 -0.29041344397E+03 -0.43050213027E+03  0.11602287359E+04  0.10334900731E+04 0.  0.
        -24    2    4    4    0    0  0.55671691993E+03 -0.18931188396E+03 -0.20442855989E+03  0.62739819979E+03  0.77876483296E+02 0.  0.
         24    2    4    4    0    0 -0.46530064244E+03 -0.10110156001E+03 -0.22607357038E+03  0.53283053614E+03  0.77928863197E+02 0.  0.
         13    1    3    3    0    0 -0.27228910778E+01 -0.69400722242E+01 -0.17505008321E+02  0.19026404144E+02  0.00000000000E+00 0.  1.
        -13    1    3    3    0    0 -0.88693386410E+02  0.29735351619E+03 -0.66649242759E+03  0.73518554557E+03  0.00000000000E+00 0. -1.
          2    1    6    6  502    0 -0.17078474525E+03 -0.39433775844E+02 -0.42521384942E+02  0.18036219134E+03  0.00000000000E+00 0. -1.
          3    1    5    5  503    0  0.36749057130E+02 -0.15078013290E+02 -0.36327513823E+02  0.53828690726E+02  0.00000000000E+00 0. -1.
         -4    1    5    5    0  503  0.51996786280E+03 -0.17423387067E+03 -0.16810104606E+03  0.57356950906E+03  0.00000000000E+00 0.  1.
         -1    1    6    6    0  502 -0.29451589719E+03 -0.61667784165E+02 -0.18355218544E+03  0.35246834480E+03  0.00000000000E+00 0.  1.
<mgrwt>
<rscale>  0 0.15565905E+04</rscale>
<asrwt>0</asrwt>
<pdfrwt beam="1">  1        2 0.23299540E+00 0.15565905E+04</pdfrwt>
<pdfrwt beam="2">  1       -2 0.61533933E-01 0.15565905E+04</pdfrwt>
<totfact> 0.29417357E+01</totfact>
</mgrwt>
</event>
<event>
12    1  0.1504874E-007  0.1381503E+04  0.7818608E-02  0.8967318E-01
          1   -1    0    0  501    0  0.00000000000E+00  0.00000000000E+00  0.14987032479E+04  0.14987032479E+04  0.00000000000E+00 0. -1.
         -1   -1    0    0    0  501 -0.00000000000E+00 -0.00000000000E+00 -0.31836697322E+03  0.31836697322E+03  0.00000000000E+00 0.  1.
         23    2    1    2    0    0  0.75817256437E+02 -0.17813493718E+03  0.82429178043E+03  0.85160091658E+03  0.91032244939E+02 0.  0.
        254    2    1    2    0    0 -0.75817256437E+02  0.17813493718E+03  0.35604449426E+03  0.96546930456E+03  0.87628932661E+03 0.  0.
        -24    2    4    4    0    0 -0.28510509570E+03  0.29455938439E+03 -0.11282064437E+03  0.43222744570E+03  0.77729791557E+02 0.  0.
         24    2    4    4    0    0  0.20928783926E+03 -0.11642444721E+03  0.46886513864E+03  0.53324185886E+03  0.84594977627E+02 0.  0.
         13    1    3    3    0    0  0.19808663487E+02 -0.68048689613E+01  0.26915153087E+02  0.34104469742E+02  0.00000000000E+00 0.  1.
        -13    1    3    3    0    0  0.56008592950E+02 -0.17133006822E+03  0.79737662735E+03  0.81749644684E+03  0.00000000000E+00 0. -1.
          2    1    6    6  502    0 -0.18287256124E+00 -0.17011222680E+02  0.68519925985E+02  0.70600250682E+02  0.00000000000E+00 0. -1.
          1    1    5    5  503    0 -0.10671027306E+03  0.14231581502E+03 -0.16329908660E+02  0.17862681629E+03  0.00000000000E+00 0. -1.
         -2    1    5    5    0  503 -0.17839482264E+03  0.15224356937E+03 -0.96490735712E+02  0.25360062941E+03  0.00000000000E+00 0.  1.
         -1    1    6    6    0  502  0.20947071182E+03 -0.99413224529E+02  0.40034521265E+03  0.46264160818E+03  0.00000000000E+00 0.  1.
<mgrwt>
<rscale>  0 0.13815030E+04</rscale>
<asrwt>0</asrwt>
<pdfrwt beam="1">  1        1 0.23056973E+00 0.13815030E+04</pdfrwt>
<pdfrwt beam="2">  1       -1 0.48979535E-01 0.13815030E+04</pdfrwt>
<totfact> 0.26718525E+01</totfact>
</mgrwt>
</event>
<event>
12    1  0.1504874E-007  0.1935391E+04  0.7818608E-02  0.8637438E-01
         -2   -1    0    0    0  501 -0.00000000000E+00  0.00000000000E+00  0.38051324437E+03  0.38051324437E+03  0.00000000000E+00 0.  1.
          2   -1    0    0  501    0  0.00000000000E+00 -0.00000000000E+00 -0.24609777953E+04  0.24609777953E+04  0.00000000000E+00 0. -1.
         23    2    1    2    0    0  0.23712776100E+03  0.71902656657E+03 -0.80613704476E+03  0.11094781875E+04  0.88634841004E+02 0.  0.
        254    2    1    2    0    0 -0.23712776100E+03 -0.71902656657E+03 -0.12743275062E+04  0.17320128522E+04  0.89595153260E+03 0.  0.
        -24    2    4    4    0    0 -0.51208645811E+03 -0.38472368464E+03 -0.41696363268E+03  0.76824954700E+03  0.78127084880E+02 0.  0.
         24    2    4    4    0    0  0.27495869711E+03 -0.33430288193E+03 -0.85736387349E+03  0.96376330521E+03  0.80038708904E+02 0.  0.
         11    1    3    3    0    0  0.17381730088E+03  0.57647132737E+03 -0.68482499316E+03  0.91187549403E+03  0.00000000000E+00 0.  1.
        -11    1    3    3    0    0  0.63310460125E+02  0.14255523921E+03 -0.12131205160E+03  0.19760269343E+03  0.00000000000E+00 0. -1.
          4    1    6    6  502    0  0.24725988707E+03 -0.32442873183E+03 -0.82294437781E+03  0.91849273419E+03  0.00000000000E+00 0. -1.
          1    1    5    5  503    0 -0.21286608650E+03 -0.16882239157E+03 -0.22245993183E+03  0.35114297935E+03  0.00000000000E+00 0. -1.
         -2    1    5    5    0  503 -0.29922037161E+03 -0.21590129308E+03 -0.19450370085E+03  0.41710656766E+03  0.00000000000E+00 0.  1.
         -3    1    6    6    0  502  0.27698810038E+02 -0.98741501005E+01 -0.34419495682E+02  0.45270571022E+02  0.00000000000E+00 0.  1.
<mgrwt>
<rscale>  0 0.19353911E+04</rscale>
<asrwt>0</asrwt>
<pdfrwt beam="1">  1        2 0.37861197E+00 0.19353911E+04</pdfrwt>
<pdfrwt beam="2">  1       -2 0.58540498E-01 0.19353911E+04</pdfrwt>
<totfact> 0.93487581E+00</totfact>
</mgrwt>
</event>
<event>
12    1  0.1504874E-007  0.1124123E+04  0.7818608E-02  0.9181994E-01
          1   -1    0    0  501    0  0.00000000000E+00  0.00000000000E+00  0.10819206810E+04  0.10819206810E+04  0.00000000000E+00 0.  1.
         -1   -1    0    0    0  501 -0.00000000000E+00 -0.00000000000E+00 -0.29199293425E+03  0.29199293425E+03  0.00000000000E+00 0. -1.
         23    2    1    2    0    0 -0.15763888495E+03 -0.51799535709E+02  0.39870079141E+02  0.19365854229E+03  0.91546697618E+02 0.  0.
        254    2    1    2    0    0  0.15763888495E+03  0.51799535709E+02  0.75005766766E+03  0.11802550730E+04  0.89603700961E+03 0.  0.
        -24    2    4    4    0    0 -0.11619230578E+03  0.95978160810E+02 -0.15566542352E+03  0.22961896175E+03  0.76030811121E+02 0.  0.
         24    2    4    4    0    0  0.27383119073E+03 -0.44178625101E+02  0.90572309118E+03  0.95063611125E+03  0.80246035306E+02 0.  0.
         13    1    3    3    0    0  0.63638900069E+01  0.63442309157E+01 -0.92070312920E+01  0.12865371629E+02  0.00000000000E+00 0. -1.
        -13    1    3    3    0    0 -0.16400277496E+03 -0.58143766625E+02  0.49077110433E+02  0.18079317066E+03  0.00000000000E+00 0.  1.
          2    1    6    6  502    0  0.43018011875E+01  0.16182304600E+01  0.93945479463E+02  0.94057840049E+02  0.00000000000E+00 0. -1.
          3    1    5    5  503    0 -0.93380388599E+01 -0.12274296235E+02 -0.70343539245E+01  0.16951090022E+02  0.00000000000E+00 0. -1.
         -4    1    5    5    0  503 -0.10685426692E+03  0.10825245705E+03 -0.14863106960E+03  0.21266787173E+03  0.00000000000E+00 0.  1.
         -1    1    6    6    0  502  0.26952938954E+03 -0.45796855561E+02  0.81177761172E+03  0.85657827120E+03  0.00000000000E+00 0.  1.
<mgrwt>
<rscale>  0 0.11241231E+04</rscale>
<asrwt>0</asrwt>
<pdfrwt beam="1">  1        1 0.16644933E+00 0.11241231E+04</pdfrwt>
<pdfrwt beam="2">  1       -1 0.44921991E-01 0.11241231E+04</pdfrwt>
<totfact> 0.63926158E+01</totfact>
</mgrwt>
</event>
<event>
12    1  0.1504874E-007  0.2162957E+04  0.7818608E-02  0.8534006E-01
          1   -1    0    0  501    0  0.00000000000E+00  0.00000000000E+00  0.99159028930E+03  0.99159028930E+03  0.00000000000E+00 0. -1.
         -1   -1    0    0    0  501 -0.00000000000E+00 -0.00000000000E+00 -0.11795154005E+04  0.11795154005E+04  0.00000000000E+00 0.  1.
         23    2    1    2    0    0 -0.30069218541E+03 -0.43131401282E+03 -0.80320439231E+03  0.96428273244E+03  0.90864317802E+02 0.  0.
        254    2    1    2    0    0  0.30069218541E+03  0.43131401282E+03  0.61527928112E+03  0.12068229573E+04  0.89521253820E+03 0.  0.
        -24    2    4    4    0    0  0.53072195752E+03  0.85032943241E+01  0.22450512368E+03  0.58181054894E+03  0.79767550395E+02 0.  0.
         24    2    4    4    0    0 -0.23002977211E+03  0.42281071850E+03  0.39077415744E+03  0.62501240839E+03  0.79078876962E+02 0.  0.
         13    1    3    3    0    0 -0.33993048936E+02 -0.54023127400E+02 -0.16058756523E+03  0.17280738345E+03  0.00000000000E+00 0. -1.
        -13    1    3    3    0    0 -0.26669913647E+03 -0.37729088542E+03 -0.64261682708E+03  0.79147534899E+03  0.00000000000E+00 0.  1.
          4    1    6    6  502    0 -0.90441299452E+01  0.76116142610E+02  0.61054426631E+02  0.97995441035E+02  0.00000000000E+00 0. -1.
          3    1    5    5  503    0  0.15861653302E+03  0.24315985256E+02  0.10014921074E+03  0.18915690867E+03  0.00000000000E+00 0. -1.
         -4    1    5    5    0  503  0.37210542450E+03 -0.15812690931E+02  0.12435591294E+03  0.39265364027E+03  0.00000000000E+00 0.  1.
         -3    1    6    6    0  502 -0.22098564217E+03  0.34669457589E+03  0.32971973081E+03  0.52701696736E+03  0.00000000000E+00 0.  1.
<mgrwt>
<rscale>  0 0.21629573E+04</rscale>
<asrwt>0</asrwt>
<pdfrwt beam="1">  1        1 0.15255235E+00 0.21629573E+04</pdfrwt>
<pdfrwt beam="2">  1       -1 0.18146391E+00 0.21629573E+04</pdfrwt>
<totfact> 0.28544028E+00</totfact>
</mgrwt>
</event>
<event>
12    1  0.1504874E-007  0.1221745E+04  0.7818608E-02  0.9094033E-01
         -2   -1    0    0    0  501 -0.00000000000E+00  0.00000000000E+00  0.27617568260E+03  0.27617568260E+03  0.00000000000E+00 0.  1.
          2   -1    0    0  501    0  0.00000000000E+00 -0.00000000000E+00 -0.13511879701E+04  0.13511879701E+04  0.00000000000E+00 0. -1.
         23    2    1    2    0    0 -0.21511758852E+03  0.16567065460E+03 -0.18058193966E+03  0.33897260105E+03  0.92575615822E+02 0.  0.
        254    2    1    2    0    0  0.21511758852E+03 -0.16567065460E+03 -0.89443034787E+03  0.12883910517E+04  0.88669245638E+03 0.  0.
        -24    2    4    4    0    0  0.18270315281E+02 -0.31712102108E+03  0.29176048947E+02  0.32864136716E+03  0.79084511440E+02 0.  0.
         24    2    4    4    0    0  0.19684727323E+03  0.15145036648E+03 -0.92360639682E+03  0.95974968453E+03  0.79903806026E+02 0.  0.
         13    1    3    3    0    0 -0.18684397193E+03  0.17455213371E+03 -0.15027168133E+03  0.29658168426E+03  0.00000000000E+00 0.  1.
        -13    1    3    3    0    0 -0.28273616584E+02 -0.88814791103E+01 -0.30310258327E+02  0.42390916784E+02  0.00000000000E+00 0. -1.
          2    1    6    6  502    0  0.17227928706E+03  0.12463959304E+03 -0.86520741113E+03  0.89095400845E+03  0.00000000000E+00 0. -1.
          3    1    5    5  503    0  0.27872650767E+02 -0.23433062918E+03  0.53195533870E+02  0.24190389260E+03  0.00000000000E+00 0. -1.
         -4    1    5    5    0  503 -0.96023354861E+01 -0.82790391898E+02 -0.24019484923E+02  0.86737474562E+02  0.00000000000E+00 0.  1.
         -1    1    6    6    0  502  0.24567986170E+02  0.26810773440E+02 -0.58398985688E+02  0.68795676073E+02  0.00000000000E+00 0.  1.
<mgrwt>
<rscale>  0 0.12217451E+04</rscale>
<asrwt>0</asrwt>
<pdfrwt beam="1">  1        2 0.20787507E+00 0.12217451E+04</pdfrwt>
<pdfrwt beam="2">  1       -2 0.42488567E-01 0.12217451E+04</pdfrwt>
<totfact> 0.79830162E+01</totfact>
</mgrwt>
</event>
<event>
12    1  0.1504874E-007  0.1563678E+04  0.7818608E-02  0.8843178E-01
         -1   -1    0    0    0  501 -0.00000000000E+00  0.00000000000E+00  0.61160457942E+03  0.61160457942E+03  0.00000000000E+00 0.  1.
          1   -1    0    0  501    0  0.00000000000E+00 -0.00000000000E+00 -0.99945699213E+03  0.99945699213E+03  0.00000000000E+00 0. -1.
         23    2    1    2    0    0  0.83144888349E+02  0.26242922811E+03 -0.58802022134E+03  0.65561554083E+03  0.91004310044E+02 0.  0.
        254    2    1    2    0    0 -0.83144888349E+02 -0.26242922811E+03  0.20016780863E+03  0.95544603072E+03  0.89276413110E+03 0.  0.
        -24    2    4    4    0    0 -0.11045239234E+03  0.31712946260E+03  0.12110515040E+03  0.36455114318E+03  0.73893514688E+02 0.  0.
         24    2    4    4    0    0  0.27307503996E+02 -0.57955869071E+03  0.79062658222E+02  0.59089488754E+03  0.79195255197E+02 0.  0.
         11    1    3    3    0    0  0.47957656315E+02  0.14948230943E+03 -0.22929456552E+03  0.27788647936E+03  0.00000000000E+00 0.  1.
        -11    1    3    3    0    0  0.35187232034E+02  0.11294691868E+03 -0.35872565582E+03  0.37772906147E+03  0.00000000000E+00 0. -1.
          2    1    6    6  502    0  0.11963372132E+01 -0.28521486957E+03  0.84568484038E+00  0.28521863233E+03  0.00000000000E+00 0. -1.
          1    1    5    5  503    0 -0.10786101720E+03  0.31946961768E+03  0.11282014290E+03  0.35556043129E+03  0.00000000000E+00 0. -1.
         -2    1    5    5    0  503 -0.25913751447E+01 -0.23401550806E+01  0.82850075043E+01  0.89907118900E+01  0.00000000000E+00 0.  1.
         -1    1    6    6    0  502  0.26111166783E+02 -0.29434382114E+03  0.78216973382E+02  0.30567625521E+03  0.00000000000E+00 0.  1.
<mgrwt>
<rscale>  0 0.15636783E+04</rscale>
<asrwt>0</asrwt>
<pdfrwt beam="1">  1        1 0.15376261E+00 0.15636783E+04</pdfrwt>
<pdfrwt beam="2">  1       -1 0.94093012E-01 0.15636783E+04</pdfrwt>
<totfact> 0.15951184E+01</totfact>
</mgrwt>
</event>
<event>
12    1  0.1504874E-007  0.1074730E+04  0.7818608E-02  0.9230178E-01
         -1   -1    0    0    0  501 -0.00000000000E+00  0.00000000000E+00  0.15019876952E+03  0.15019876952E+03  0.00000000000E+00 0.  1.
          1   -1    0    0  501    0  0.00000000000E+00 -0.00000000000E+00 -0.19225273659E+04  0.19225273659E+04  0.00000000000E+00 0. -1.
         23    2    1    2    0    0 -0.54338220102E+02  0.13815321340E+03 -0.25488937102E+03  0.30872190266E+03  0.91113496174E+02 0.  0.
        254    2    1    2    0    0  0.54338220102E+02 -0.13815321340E+03 -0.15174392254E+04  0.17640042328E+04  0.88715848529E+03 0.  0.
        -24    2    4    4    0    0 -0.18883762414E+03 -0.42797155100E+03 -0.10838409825E+04  0.11831309974E+04  0.79173132965E+02 0.  0.
         24    2    4    4    0    0  0.24317584424E+03  0.28981833759E+03 -0.43359824290E+03  0.58087323537E+03  0.79228273346E+02 0.  0.
         11    1    3    3    0    0 -0.30328715136E+02  0.12299007511E+03 -0.24950405672E+03  0.27981898409E+03  0.00000000000E+00 0. -1.
        -11    1    3    3    0    0 -0.24009504966E+02  0.15163138290E+02 -0.53853142971E+01  0.28902918565E+02  0.00000000000E+00 0.  1.
          2    1    6    6  502    0  0.22688118029E+03  0.27615351703E+03 -0.43027359376E+03  0.55934890759E+03  0.00000000000E+00 0. -1.
          3    1    5    5  503    0 -0.12093093647E+03 -0.35367997534E+03 -0.85443520309E+03  0.93261639093E+03  0.00000000000E+00 0. -1.
         -4    1    5    5    0  503 -0.67906687667E+02 -0.74291575651E+02 -0.22940577939E+03  0.25051460648E+03  0.00000000000E+00 0.  1.
         -1    1    6    6    0  502  0.16294663950E+02  0.13664820566E+02 -0.33246491347E+01  0.21524327776E+02  0.00000000000E+00 0.  1.
<mgrwt>
<rscale>  0 0.10747302E+04</rscale>
<asrwt>0</asrwt>
<pdfrwt beam="1">  1        1 0.29577344E+00 0.10747302E+04</pdfrwt>
<pdfrwt beam="2">  1       -1 0.23107503E-01 0.10747302E+04</pdfrwt>
<totfact> 0.53938965E+01</totfact>
</mgrwt>
</event>
<event>
12    1  0.1504874E-007  0.2438656E+04  0.7818608E-02  0.8425171E-01
          2   -1    0    0  501    0  0.00000000000E+00  0.00000000000E+00  0.24363299695E+04  0.24363299695E+04  0.00000000000E+00 0.  1.
         -2   -1    0    0    0  501 -0.00000000000E+00 -0.00000000000E+00 -0.61024623748E+03  0.61024623748E+03  0.00000000000E+00 0. -1.
         23    2    1    2    0    0 -0.56743934382E+03 -0.83170808845E+03  0.41769535556E+03  0.10934738281E+04  0.86543916517E+02 0.  0.
        254    2    1    2    0    0  0.56743934382E+03  0.83170808845E+03  0.14083883765E+04  0.19531023788E+04  0.90406046808E+03 0.  0.
        -24    2    4    4    0    0 -0.66849603259E+02  0.46023781395E+02 -0.86820987532E+02  0.14710428544E+03  0.86687536645E+02 0.  0.
         24    2    4    4    0    0  0.63428894707E+03  0.78568430706E+03  0.14952093640E+04  0.18059980934E+04  0.79723098348E+02 0.  0.
         11    1    3    3    0    0 -0.26634075313E+03 -0.44436418614E+03  0.24778428127E+03  0.57427691643E+03  0.00000000000E+00 0.  1.
        -11    1    3    3    0    0 -0.30109859069E+03 -0.38734390231E+03  0.16991107429E+03  0.51919691172E+03  0.00000000000E+00 0. -1.
          4    1    6    6  502    0  0.53635678882E+03  0.70597882035E+03  0.13128359550E+04  0.15841789496E+04  0.00000000000E+00 0. -1.
          3    1    5    5  503    0 -0.51687928195E+02  0.59929263088E+02 -0.96136580407E+02  0.12452068337E+03  0.00000000000E+00 0. -1.
         -4    1    5    5    0  503 -0.15161675064E+02 -0.13905481693E+02  0.93155928741E+01  0.22583602070E+02  0.00000000000E+00 0.  1.
         -3    1    6    6    0  502  0.97932158256E+02  0.79705486710E+02  0.18237340900E+03  0.22181914377E+03  0.00000000000E+00 0.  1.
<mgrwt>
<rscale>  0 0.24386563E+04</rscale>
<asrwt>0</asrwt>
<pdfrwt beam="1">  1        2 0.37481999E+00 0.24386563E+04</pdfrwt>
<pdfrwt beam="2">  1       -2 0.93884038E-01 0.24386563E+04</pdfrwt>
<totfact> 0.32535003E+00</totfact>
</mgrwt>
</event>
<event>
12    1  0.1504874E-007  0.1224476E+04  0.7818608E-02  0.9091698E-01
          2   -1    0    0  501    0  0.00000000000E+00  0.00000000000E+00  0.65825350297E+03  0.65825350297E+03  0.00000000000E+00 0. -1.
         -2   -1    0    0    0  501 -0.00000000000E+00 -0.00000000000E+00 -0.56943927684E+03  0.56943927684E+03  0.00000000000E+00 0.  1.
         23    2    1    2    0    0  0.12554953247E+03 -0.12238991495E+03  0.22837695320E+03  0.30178319053E+03  0.90416176378E+02 0.  0.
        254    2    1    2    0    0 -0.12554953247E+03  0.12238991495E+03 -0.13956272706E+03  0.92590958928E+03  0.89838123107E+03 0.  0.
        -24    2    4    4    0    0 -0.27548109273E+03  0.16080183348E+02 -0.46229134875E+03  0.54438837031E+03  0.80603981629E+02 0.  0.
         24    2    4    4    0    0  0.14993156026E+03  0.10630973160E+03  0.32272862168E+03  0.38152121897E+03  0.87312344342E+02 0.  0.
         11    1    3    3    0    0 -0.65134760550E+01 -0.41172572938E+02  0.57983544175E+02  0.71412166525E+02  0.00000000000E+00 0.  1.
        -11    1    3    3    0    0  0.13206300852E+03 -0.81217342013E+02  0.17039340903E+03  0.23037102401E+03  0.00000000000E+00 0. -1.
          2    1    6    6  502    0  0.93966363775E+02  0.54136801010E+02  0.10584627950E+03  0.15153846254E+03  0.00000000000E+00 0. -1.
          1    1    5    5  503    0 -0.13103139040E+03  0.18878290383E+02 -0.14854711157E+03  0.19897703253E+03  0.00000000000E+00 0. -1.
         -2    1    5    5    0  503 -0.14444970232E+03 -0.27981070347E+01 -0.31374423717E+03  0.34541133777E+03  0.00000000000E+00 0.  1.
         -1    1    6    6    0  502  0.55965196488E+02  0.52172930593E+02  0.21688234218E+03  0.22998275643E+03  0.00000000000E+00 0.  1.
<mgrwt>
<rscale>  0 0.12244760E+04</rscale>
<asrwt>0</asrwt>
<pdfrwt beam="1">  1        2 0.10126977E+00 0.12244760E+04</pdfrwt>
<pdfrwt beam="2">  1       -2 0.87606043E-01 0.12244760E+04</pdfrwt>
<totfact> 0.49057551E+01</totfact>
</mgrwt>
</event>
<event>
12    1  0.1504874E-007  0.1699764E+04  0.7818608E-02  0.8761499E-01
          1   -1    0    0  501    0  0.00000000000E+00  0.00000000000E+00  0.13691549243E+04  0.13691549243E+04  0.00000000000E+00 0. -1.
         -1   -1    0    0    0  501 -0.00000000000E+00 -0.00000000000E+00 -0.52755098383E+03  0.52755098383E+03  0.00000000000E+00 0.  1.
         23    2    1    2    0    0 -0.17318493701E+03  0.45480490270E+03 -0.10496634675E+03  0.50603757517E+03  0.90639790409E+02 0.  0.
        254    2    1    2    0    0  0.17318493701E+03 -0.45480490270E+03  0.94657028724E+03  0.13906683330E+04  0.89505451328E+03 0.  0.
        -24    2    4    4    0    0 -0.33526666878E+03 -0.16444568906E+03  0.58000125196E+03  0.69470889729E+03  0.82297483936E+02 0.  0.
         24    2    4    4    0    0  0.50845160579E+03 -0.29035921364E+03  0.36656903528E+03  0.69595943568E+03  0.84588238611E+02 0.  0.
         11    1    3    3    0    0 -0.50265493860E+02  0.55371730880E+02  0.13933849632E+01  0.74796991753E+02  0.00000000000E+00 0. -1.
        -11    1    3    3    0    0 -0.12291944315E+03  0.39943317182E+03 -0.10635973172E+03  0.43124058341E+03  0.00000000000E+00 0.  1.
          2    1    6    6  502    0  0.45619374772E+02 -0.21775246985E+02  0.64717084237E+01  0.50962454275E+02  0.00000000000E+00 0. -1.
          3    1    5    5  503    0 -0.28559381740E+03 -0.16803453031E+03  0.52163749972E+03  0.61798471908E+03  0.00000000000E+00 0. -1.
         -4    1    5    5    0  503 -0.49672851385E+02  0.35888412542E+01  0.58363752242E+02  0.76724178210E+02  0.00000000000E+00 0.  1.
         -1    1    6    6    0  502  0.46283223102E+03 -0.26858396666E+03  0.36009732686E+03  0.64499698141E+03  0.00000000000E+00 0.  1.
<mgrwt>
<rscale>  0 0.16997635E+04</rscale>
<asrwt>0</asrwt>
<pdfrwt beam="1">  1        1 0.21063922E+00 0.16997635E+04</pdfrwt>
<pdfrwt beam="2">  1       -1 0.81161690E-01 0.16997635E+04</pdfrwt>
<totfact> 0.11626565E+01</totfact>
</mgrwt>
</event>
<event>
12    1  0.1504874E-007  0.1175949E+04  0.7818608E-02  0.9134173E-01
         -3   -1    0    0    0  501 -0.00000000000E+00  0.00000000000E+00  0.84292670243E+03  0.84292670243E+03  0.00000000000E+00 0.  1.
          3   -1    0    0  501    0  0.00000000000E+00 -0.00000000000E+00 -0.41013532227E+03  0.41013532227E+03  0.00000000000E+00 0. -1.
         23    2    1    2    0    0  0.55381068660E+02  0.17577796928E+03 -0.50225207171E+02  0.21079816597E+03  0.89153452477E+02 0.  0.
        254    2    1    2    0    0 -0.55381068660E+02 -0.17577796928E+03  0.48301658733E+03  0.10422638587E+04  0.90501048078E+03 0.  0.
        -24    2    4    4    0    0 -0.13648853299E+03  0.19193987845E+03 -0.15759202574E+03  0.29404497025E+03  0.78467581672E+02 0.  0.
         24    2    4    4    0    0  0.81107464326E+02 -0.36771784774E+03  0.64060861307E+03  0.74821888849E+03  0.87505849171E+02 0.  0.
         13    1    3    3    0    0  0.40902374817E+02  0.11847660331E+03  0.10851588070E+02  0.12580726037E+03  0.00000000000E+00 0.  1.
        -13    1    3    3    0    0  0.14478693842E+02  0.57301365973E+02 -0.61076795241E+02  0.84990905599E+02  0.00000000000E+00 0. -1.
          2    1    6    6  502    0  0.96897505892E+01 -0.55533925773E+02  0.16899861726E+03  0.17815285800E+03  0.00000000000E+00 0. -1.
          1    1    5    5  503    0  0.27710222200E+01  0.20479063133E+01  0.62739166456E+01  0.71578288948E+01  0.00000000000E+00 0. -1.
         -4    1    5    5    0  503 -0.13925955521E+03  0.18989197214E+03 -0.16386594238E+03  0.28688714135E+03  0.00000000000E+00 0.  1.
         -1    1    6    6    0  502  0.71417713737E+02 -0.31218392196E+03  0.47160999580E+03  0.57006603048E+03  0.00000000000E+00 0.  1.
<mgrwt>
<rscale>  0 0.11759490E+04</rscale>
<asrwt>0</asrwt>
<pdfrwt beam="1">  1        3 0.63097742E-01 0.11759490E+04</pdfrwt>
<pdfrwt beam="2">  1       -3 0.12968103E+00 0.11759490E+04</pdfrwt>
<totfact> 0.29512083E+00</totfact>
</mgrwt>
</event>
<event>
12    1  0.1504874E-007  0.1277124E+04  0.7818608E-02  0.9047905E-01
         -2   -1    0    0    0  501 -0.00000000000E+00  0.00000000000E+00  0.31757025406E+03  0.31757025406E+03  0.00000000000E+00 0.  1.
          2   -1    0    0  501    0  0.00000000000E+00 -0.00000000000E+00 -0.12840045156E+04  0.12840045156E+04  0.00000000000E+00 0. -1.
         23    2    1    2    0    0 -0.23377728555E+03  0.12449145772E+03 -0.43683760658E+03  0.51883796108E+03  0.90641011951E+02 0.  0.
        254    2    1    2    0    0  0.23377728555E+03 -0.12449145772E+03 -0.52959665501E+03  0.10827368086E+04  0.90647473074E+03 0.  0.
        -24    2    4    4    0    0  0.13312504687E+03  0.68273601088E+02  0.23167561223E+03  0.28696138212E+03  0.79307520568E+02 0.  0.
         24    2    4    4    0    0  0.10065223868E+03 -0.19276505880E+03 -0.76127226724E+03  0.79577542650E+03  0.80211118377E+02 0.  0.
         13    1    3    3    0    0 -0.16468348760E+03  0.38158498337E+02 -0.27601973778E+03  0.32367208364E+03  0.00000000000E+00 0. -1.
        -13    1    3    3    0    0 -0.69093797956E+02  0.86332959380E+02 -0.16081786880E+03  0.19516587744E+03  0.00000000000E+00 0.  1.
          2    1    6    6  502    0  0.46903184382E+02 -0.91465881762E+02 -0.49981217193E+03  0.51027259719E+03  0.00000000000E+00 0. -1.
          3    1    5    5  503    0  0.71634471453E+02  0.33404986323E+01  0.60461059644E+02  0.93798700230E+02  0.00000000000E+00 0. -1.
         -4    1    5    5    0  503  0.61490575419E+02  0.64933102455E+02  0.17121455258E+03  0.19316268189E+03  0.00000000000E+00 0.  1.
         -3    1    6    6    0  502  0.53749054301E+02 -0.10129917704E+03 -0.26146009530E+03  0.28550282931E+03  0.00000000000E+00 0.  1.
<mgrwt>
<rscale>  0 0.12771243E+04</rscale>
<asrwt>0</asrwt>
<pdfrwt beam="1">  1        2 0.19753916E+00 0.12771243E+04</pdfrwt>
<pdfrwt beam="2">  1       -2 0.48856962E-01 0.12771243E+04</pdfrwt>
<totfact> 0.65761104E+01</totfact>
</mgrwt>
</event>
<event>
12    1  0.1504874E-007  0.3729495E+04  0.7818608E-02  0.8061457E-01
         -2   -1    0    0    0  501 -0.00000000000E+00  0.00000000000E+00  0.84223568511E+03  0.84223568511E+03  0.00000000000E+00 0.  1.
          2   -1    0    0  501    0  0.00000000000E+00 -0.00000000000E+00 -0.41286335402E+04  0.41286335402E+04  0.00000000000E+00 0. -1.
         23    2    1    2    0    0 -0.37278062569E+03  0.10959768372E+04 -0.33118390956E+04  0.35095278633E+04  0.91525983855E+02 0.  0.
        254    2    1    2    0    0  0.37278062569E+03 -0.10959768372E+04  0.25441240454E+02  0.14613413620E+04  0.89148230326E+03 0.  0.
        -24    2    4    4    0    0 -0.25969306073E+03 -0.57146339208E+03  0.56117350140E+02  0.63537763251E+03  0.80899225089E+02 0.  0.
         24    2    4    4    0    0  0.63247368642E+03 -0.52451344514E+03 -0.30676109686E+02  0.82596372952E+03  0.78343733850E+02 0.  0.
         13    1    3    3    0    0 -0.36391483718E+03  0.10839976592E+04 -0.32320046465E+04  0.34283143042E+04  0.00000000000E+00 0. -1.
        -13    1    3    3    0    0 -0.88657885148E+01  0.11979178031E+02 -0.79834449106E+02  0.81213559067E+02  0.00000000000E+00 0.  1.
          4    1    6    6  502    0  0.28337070045E+03 -0.19674582667E+03 -0.37907277559E+02  0.34705163287E+03  0.00000000000E+00 0. -1.
          3    1    5    5  503    0 -0.33110730001E+02 -0.11848440997E+03 -0.14948876756E+02  0.12392878908E+03  0.00000000000E+00 0. -1.
         -4    1    5    5    0  503 -0.22658233073E+03 -0.45297898212E+03  0.71066226897E+02  0.51144884343E+03  0.00000000000E+00 0.  1.
         -3    1    6    6    0  502  0.34910298597E+03 -0.32776761847E+03  0.72311678733E+01  0.47891209665E+03  0.00000000000E+00 0.  1.
<mgrwt>
<rscale>  0 0.37294946E+04</rscale>
<asrwt>0</asrwt>
<pdfrwt beam="1">  1        2 0.63517437E+00 0.37294946E+04</pdfrwt>
<pdfrwt beam="2">  1       -2 0.12957472E+00 0.37294946E+04</pdfrwt>
<totfact> 0.94188774E-02</totfact>
</mgrwt>
</event>
<event>
12    1  0.1504874E-007  0.2175117E+04  0.7818608E-02  0.8528857E-01
          1   -1    0    0  501    0  0.00000000000E+00  0.00000000000E+00  0.93059666776E+03  0.93059666776E+03  0.00000000000E+00 0. -1.
         -1   -1    0    0    0  501 -0.00000000000E+00 -0.00000000000E+00 -0.12709949119E+04  0.12709949119E+04  0.00000000000E+00 0.  1.
         23    2    1    2    0    0  0.72223451432E+02  0.89385708502E+03 -0.18984498011E+03  0.92117430437E+03  0.91237422047E+02 0.  0.
        254    2    1    2    0    0 -0.72223451432E+02 -0.89385708502E+03 -0.15055326405E+03  0.12804172753E+04  0.90144628140E+03 0.  0.
        -24    2    4    4    0    0  0.30967665208E+03 -0.53152613469E+03  0.18942933078E+03  0.64861057918E+03  0.79953432494E+02 0.  0.
         24    2    4    4    0    0 -0.38190010351E+03 -0.36233095033E+03 -0.33998259482E+03  0.63180669614E+03  0.80374933100E+02 0.  0.
         11    1    3    3    0    0  0.56131660679E+02  0.57888417598E+03 -0.16632610264E+03  0.60491489067E+03  0.00000000000E+00 0. -1.
        -11    1    3    3    0    0  0.16091790753E+02  0.31497290903E+03 -0.23518877468E+02  0.31625941370E+03  0.00000000000E+00 0.  1.
          2    1    6    6  502    0 -0.23819073409E+03 -0.20879400042E+03 -0.24793053256E+03  0.40224284878E+03  0.00000000000E+00 0. -1.
          3    1    5    5  503    0  0.23969143429E+03 -0.44264928646E+03  0.12596497193E+03  0.51890032629E+03  0.00000000000E+00 0. -1.
         -4    1    5    5    0  503  0.69985217791E+02 -0.88876848228E+02  0.63464358847E+02  0.12971025289E+03  0.00000000000E+00 0.  1.
         -1    1    6    6    0  502 -0.14370936942E+03 -0.15353694991E+03 -0.92052062264E+02  0.22956384736E+03  0.00000000000E+00 0.  1.
<mgrwt>
<rscale>  0 0.21751171E+04</rscale>
<asrwt>0</asrwt>
<pdfrwt beam="1">  1        1 0.14316872E+00 0.21751171E+04</pdfrwt>
<pdfrwt beam="2">  1       -1 0.19553768E+00 0.21751171E+04</pdfrwt>
<totfact> 0.25370709E+00</totfact>
</mgrwt>
</event>
<event>
12    1  0.1504874E-007  0.2066941E+04  0.7818608E-02  0.8575948E-01
          2   -1    0    0  501    0  0.00000000000E+00  0.00000000000E+00  0.24825975533E+04  0.24825975533E+04  0.00000000000E+00 0. -1.
         -2   -1    0    0    0  501 -0.00000000000E+00 -0.00000000000E+00 -0.43021906084E+03  0.43021906084E+03  0.00000000000E+00 0.  1.
         23    2    1    2    0    0 -0.22595418449E+03  0.55565249574E+03  0.33248042006E+02  0.60769369519E+03  0.91548923343E+02 0.  0.
        254    2    1    2    0    0  0.22595418449E+03 -0.55565249574E+03  0.20191304505E+04  0.23051229190E+04  0.93642880457E+03 0.  0.
        -24    2    4    4    0    0 -0.32012754918E+03 -0.43749878510E+03  0.94786441746E+03  0.10943477181E+04  0.72547498686E+02 0.  0.
         24    2    4    4    0    0  0.54608173367E+03 -0.11815371065E+03  0.10712660330E+04  0.12107752009E+04  0.78740804673E+02 0.  0.
         13    1    3    3    0    0 -0.83093432209E+02  0.25332044989E+03  0.56423503847E+02  0.27250574415E+03  0.00000000000E+00 0. -1.
        -13    1    3    3    0    0 -0.14286075228E+03  0.30233204585E+03 -0.23175461841E+02  0.33518795104E+03  0.00000000000E+00 0.  1.
          4    1    6    6  502    0  0.15118426031E+03 -0.57918785428E+02  0.36662322123E+03  0.40077905711E+03  0.00000000000E+00 0. -1.
          1    1    5    5  503    0 -0.15930135504E+03 -0.16934772709E+03  0.36122308857E+03  0.42957850749E+03  0.00000000000E+00 0. -1.
         -2    1    5    5    0  503 -0.16082619415E+03 -0.26815105801E+03  0.58664132889E+03  0.66476921063E+03  0.00000000000E+00 0.  1.
         -3    1    6    6    0  502  0.39489747336E+03 -0.60234925221E+02  0.70464281180E+03  0.80999614375E+03  0.00000000000E+00 0.  1.
<mgrwt>
<rscale>  0 0.20669405E+04</rscale>
<asrwt>0</asrwt>
<pdfrwt beam="1">  1        2 0.38193808E+00 0.20669405E+04</pdfrwt>
<pdfrwt beam="2">  1       -2 0.66187549E-01 0.20669405E+04</pdfrwt>
<totfact> 0.69146224E+00</totfact>
</mgrwt>
</event>
<event>
12    1  0.1504874E-007  0.1869276E+04  0.7818608E-02  0.8670303E-01
         -2   -1    0    0    0  501 -0.00000000000E+00  0.00000000000E+00  0.37362921254E+03  0.37362921254E+03  0.00000000000E+00 0.  1.
          2   -1    0    0  501    0  0.00000000000E+00 -0.00000000000E+00 -0.23380075606E+04  0.23380075606E+04  0.00000000000E+00 0. -1.
         23    2    1    2    0    0  0.54734679965E+03  0.42410926191E+03 -0.10515981675E+04  0.12624922139E+04  0.92578069902E+02 0.  0.
        254    2    1    2    0    0 -0.54734679965E+03 -0.42410926191E+03 -0.91278018054E+03  0.14491445593E+04  0.88735286701E+03 0.  0.
        -24    2    4    4    0    0 -0.41453696517E+03  0.16139667131E+03 -0.64286137412E+03  0.78592205325E+03  0.80702827976E+02 0.  0.
         24    2    4    4    0    0 -0.13280983448E+03 -0.58550593322E+03 -0.26991880642E+03  0.66322250603E+03  0.80946157905E+02 0.  0.
         11    1    3    3    0    0  0.55062020967E+03  0.42121254919E+03 -0.10490837865E+04  0.12574495688E+04  0.00000000000E+00 0. -1.
        -11    1    3    3    0    0 -0.32734100216E+01  0.28967127146E+01 -0.25143810232E+01  0.50426451046E+01  0.00000000000E+00 0.  1.
          2    1    6    6  502    0 -0.12914951233E+03 -0.57886628350E+03 -0.25323781768E+03  0.64489934332E+03  0.00000000000E+00 0. -1.
          1    1    5    5  503    0 -0.28490720765E+03  0.14474822728E+03 -0.42293352311E+03  0.53009143668E+03  0.00000000000E+00 0. -1.
         -2    1    5    5    0  503 -0.12962975752E+03  0.16648444030E+02 -0.21992785101E+03  0.25583061657E+03  0.00000000000E+00 0.  1.
         -1    1    6    6    0  502 -0.36603221481E+01 -0.66396497191E+01 -0.16680988735E+02  0.18323162713E+02  0.00000000000E+00 0.  1.
<mgrwt>
<rscale>  0 0.18692757E+04</rscale>
<asrwt>0</asrwt>
<pdfrwt beam="1">  1        2 0.35969347E+00 0.18692757E+04</pdfrwt>
<pdfrwt beam="2">  1       -2 0.57481417E-01 0.18692757E+04</pdfrwt>
<totfact> 0.11486207E+01</totfact>
</mgrwt>
</event>
<event>
12    1  0.1504874E-007  0.1170231E+04  0.7818608E-02  0.9139320E-01
         -1   -1    0    0    0  501 -0.00000000000E+00  0.00000000000E+00  0.27307711955E+03  0.27307711955E+03  0.00000000000E+00 0.  1.
          1   -1    0    0  501    0  0.00000000000E+00 -0.00000000000E+00 -0.12537120699E+04  0.12537120699E+04  0.00000000000E+00 0. -1.
         23    2    1    2    0    0 -0.30289697071E+02 -0.53873489774E+02 -0.47513932221E+03  0.48861026425E+03  0.95722495674E+02 0.  0.
        254    2    1    2    0    0  0.30289697071E+02  0.53873489774E+02 -0.50549562817E+03  0.10381789252E+04  0.90469322536E+03 0.  0.
        -24    2    4    4    0    0 -0.34012140382E+03 -0.20361327903E+03 -0.39911839521E+03  0.56815042218E+03  0.79740028195E+02 0.  0.
         24    2    4    4    0    0  0.37041110089E+03  0.25748676880E+03 -0.10637723297E+03  0.47002850304E+03  0.78146389551E+02 0.  0.
         13    1    3    3    0    0 -0.56994706301E+02 -0.27239158526E+02 -0.39523957832E+03  0.40025578394E+03  0.00000000000E+00 0. -1.
        -13    1    3    3    0    0  0.26705009230E+02 -0.26634331248E+02 -0.79899743882E+02  0.88354480313E+02  0.00000000000E+00 0.  1.
          4    1    6    6  502    0  0.24073672972E+03  0.20650762469E+03 -0.90240638733E+02  0.32976195198E+03  0.00000000000E+00 0. -1.
          3    1    5    5  503    0 -0.31972485219E+03 -0.18092874038E+03 -0.39115901964E+03  0.53662330256E+03  0.00000000000E+00 0. -1.
         -4    1    5    5    0  503 -0.20396551633E+02 -0.22684538651E+02 -0.79593755672E+01  0.31527119623E+02  0.00000000000E+00 0.  1.
         -3    1    6    6    0  502  0.12967437117E+03  0.50979144116E+02 -0.16136594233E+02  0.14026655106E+03  0.00000000000E+00 0.  1.
<mgrwt>
<rscale>  0 0.11702309E+04</rscale>
<asrwt>0</asrwt>
<pdfrwt beam="1">  1        1 0.19287878E+00 0.11702309E+04</pdfrwt>
<pdfrwt beam="2">  1       -1 0.42011865E-01 0.11702309E+04</pdfrwt>
<totfact> 0.53874430E+01</totfact>
</mgrwt>
</event>
<event>
12    1  0.1504874E-007  0.1144248E+04  0.7818608E-02  0.9163106E-01
          2   -1    0    0  501    0  0.00000000000E+00  0.00000000000E+00  0.11065948713E+04  0.11065948713E+04  0.00000000000E+00 0. -1.
         -2   -1    0    0    0  501 -0.00000000000E+00 -0.00000000000E+00 -0.29579557267E+03  0.29579557267E+03  0.00000000000E+00 0.  1.
         23    2    1    2    0    0 -0.10639316903E+02  0.12567491827E+03 -0.33419793572E+02  0.16010580465E+03  0.92787962228E+02 0.  0.
        254    2    1    2    0    0  0.10639316903E+02 -0.12567491827E+03  0.84421909222E+03  0.12422846393E+04  0.90258399572E+03 0.  0.
        -24    2    4    4    0    0 -0.21343335561E+03  0.21664073942E+03  0.15837733482E+02  0.31482258906E+03  0.79846236724E+02 0.  0.
         24    2    4    4    0    0  0.22407267251E+03 -0.34231565769E+03  0.82838135874E+03  0.92746205028E+03  0.81127104777E+02 0.  0.
         13    1    3    3    0    0  0.80981452123E+01  0.13202727751E+03 -0.41649400601E+02  0.13867751992E+03  0.00000000000E+00 0.  1.
        -13    1    3    3    0    0 -0.18737462115E+02 -0.63523592402E+01  0.82296070288E+01  0.21428284726E+02  0.00000000000E+00 0. -1.
          4    1    6    6  502    0  0.30539182634E+02 -0.49333414282E+02  0.64581461433E+02  0.86817006407E+02  0.00000000000E+00 0. -1.
          3    1    5    5  503    0 -0.11490978216E+03  0.11813962661E+03  0.48367949979E+02  0.17175764319E+03  0.00000000000E+00 0. -1.
         -4    1    5    5    0  503 -0.98523573452E+02  0.98501112818E+02 -0.32530216496E+02  0.14306494587E+03  0.00000000000E+00 0.  1.
         -3    1    6    6    0  502  0.19353348988E+03 -0.29298224341E+03  0.76379989731E+03  0.84064504387E+03  0.00000000000E+00 0.  1.
<mgrwt>
<rscale>  0 0.11442480E+04</rscale>
<asrwt>0</asrwt>
<pdfrwt beam="1">  1        2 0.17024536E+00 0.11442480E+04</pdfrwt>
<pdfrwt beam="2">  1       -2 0.45507012E-01 0.11442480E+04</pdfrwt>
<totfact> 0.97820397E+01</totfact>
</mgrwt>
</event>
<event>
12    1  0.1504874E-007  0.2269848E+04  0.7818608E-02  0.8489905E-01
          2   -1    0    0  501    0  0.00000000000E+00  0.00000000000E+00  0.40957219563E+03  0.40957219563E+03  0.00000000000E+00 0. -1.
         -2   -1    0    0    0  501 -0.00000000000E+00 -0.00000000000E+00 -0.31448722366E+04  0.31448722366E+04  0.00000000000E+00 0.  1.
         23    2    1    2    0    0 -0.24344028101E+03  0.79556727867E+03 -0.41964711497E+03  0.93576629148E+03  0.85815999988E+02 0.  0.
        254    2    1    2    0    0  0.24344028101E+03 -0.79556727867E+03 -0.23156529260E+04  0.26186781407E+04  0.89612290778E+03 0.  0.
        -24    2    4    4    0    0  0.48638569874E+03 -0.21220919603E+03 -0.14340865908E+04  0.15311447864E+04  0.78716049348E+02 0.  0.
         24    2    4    4    0    0 -0.24294541773E+03 -0.58335808265E+03 -0.88156633520E+03  0.10875333543E+04  0.78996612114E+02 0.  0.
         13    1    3    3    0    0 -0.15846135999E+02  0.10631125479E+02 -0.11061475111E+02  0.22056225576E+02  0.00000000000E+00 0.  1.
        -13    1    3    3    0    0 -0.22759414501E+03  0.78493615320E+03 -0.40858563986E+03  0.91371006590E+03  0.00000000000E+00 0. -1.
          4    1    6    6  502    0 -0.20037475296E+03 -0.40743143997E+03 -0.59230022183E+03  0.74630420921E+03  0.00000000000E+00 0. -1.
          1    1    5    5  503    0  0.33629913289E+03 -0.18348782679E+03 -0.99291443555E+03  0.10642574715E+04  0.00000000000E+00 0. -1.
         -2    1    5    5    0  503  0.15008656585E+03 -0.28721369235E+02 -0.44117215522E+03  0.46688731492E+03  0.00000000000E+00 0.  1.
         -3    1    6    6    0  502 -0.42570664772E+02 -0.17592664267E+03 -0.28926611337E+03  0.34122914507E+03  0.00000000000E+00 0.  1.
<mgrwt>
<rscale>  0 0.22698478E+04</rscale>
<asrwt>0</asrwt>
<pdfrwt beam="1">  1        2 0.63011108E-01 0.22698478E+04</pdfrwt>
<pdfrwt beam="2">  1       -2 0.48382649E+00 0.22698478E+04</pdfrwt>
<totfact> 0.14647568E-01</totfact>
</mgrwt>
</event>
<event>
12    1  0.1504874E-007  0.1918097E+04  0.7818608E-02  0.8645901E-01
          2   -1    0    0  501    0  0.00000000000E+00  0.00000000000E+00  0.28710625152E+04  0.28710625152E+04  0.00000000000E+00 0. -1.
         -2   -1    0    0    0  501 -0.00000000000E+00 -0.00000000000E+00 -0.32036001499E+03  0.32036001499E+03  0.00000000000E+00 0.  1.
         23    2    1    2    0    0 -0.27935298369E+03  0.58246191333E+03  0.15895704938E+04  0.17186440954E+04  0.98504831940E+02 0.  0.
        254    2    1    2    0    0  0.27935298369E+03 -0.58246191333E+03  0.96113200645E+03  0.14727784348E+04  0.90994594033E+03 0.  0.
        -24    2    4    4    0    0  0.52299462773E+03 -0.19012077053E+03  0.23734251051E+03  0.61039554361E+03  0.81129306287E+02 0.  0.
         24    2    4    4    0    0 -0.24364164405E+03 -0.39234114280E+03  0.72378949594E+03  0.86238289123E+03  0.80871463453E+02 0.  0.
         11    1    3    3    0    0 -0.17087100283E+03  0.27409993175E+03  0.87977253618E+03  0.93719122254E+03  0.00000000000E+00 0. -1.
        -11    1    3    3    0    0 -0.10848198086E+03  0.30836198157E+03  0.70979795758E+03  0.78145287281E+03  0.00000000000E+00 0.  1.
          2    1    6    6  502    0 -0.19704487469E+03 -0.34994348884E+03  0.58076569895E+03  0.70609909015E+03  0.00000000000E+00 0. -1.
          3    1    5    5  503    0  0.50691030127E+03 -0.16670402773E+03  0.22058860962E+03  0.57741460069E+03  0.00000000000E+00 0. -1.
         -4    1    5    5    0  503  0.16084326468E+02 -0.23416742796E+02  0.16753900886E+02  0.32980942922E+02  0.00000000000E+00 0.  1.
         -1    1    6    6    0  502 -0.46596769354E+02 -0.42397653954E+02  0.14302379699E+03  0.15628380108E+03  0.00000000000E+00 0.  1.
<mgrwt>
<rscale>  0 0.19180966E+04</rscale>
<asrwt>0</asrwt>
<pdfrwt beam="1">  1        2 0.44170191E+00 0.19180966E+04</pdfrwt>
<pdfrwt beam="2">  1       -2 0.49286158E-01 0.19180966E+04</pdfrwt>
<totfact> 0.76450480E+00</totfact>
</mgrwt>
</event>
<event>
12    1  0.1504874E-007  0.3344289E+04  0.7818608E-02  0.8151717E-01
          1   -1    0    0  501    0  0.00000000000E+00  0.00000000000E+00  0.29305127270E+04  0.29305127270E+04  0.00000000000E+00 0. -1.
         -1   -1    0    0    0  501 -0.00000000000E+00 -0.00000000000E+00 -0.95412233102E+03  0.95412233102E+03  0.00000000000E+00 0.  1.
         23    2    1    2    0    0  0.10179068752E+04 -0.92304289976E+03  0.93687637442E+02  0.13803651471E+04  0.92130150484E+02 0.  0.
        254    2    1    2    0    0 -0.10179068752E+04  0.92304289976E+03  0.18827027585E+04  0.25042699109E+04  0.91578136489E+03 0.  0.
        -24    2    4    4    0    0 -0.10397836472E+04  0.86136602448E+03  0.11831857376E+04  0.17971519933E+04  0.82008145861E+02 0.  0.
         24    2    4    4    0    0  0.21876772064E+02  0.61676875282E+02  0.69951702088E+03  0.70711791760E+03  0.80056584975E+02 0.  0.
         13    1    3    3    0    0  0.89156566553E+03 -0.76476434690E+03  0.76511814027E+02  0.11771184732E+04  0.00000000000E+00 0.  1.
        -13    1    3    3    0    0  0.12634120964E+03 -0.15827855286E+03  0.17175823415E+02  0.20324667392E+03  0.00000000000E+00 0. -1.
          2    1    6    6  502    0 -0.20117347740E+02  0.42964390652E+02  0.20267415236E+03  0.20815248877E+03  0.00000000000E+00 0. -1.
          3    1    5    5  503    0 -0.64723198655E+02  0.36689614506E+02  0.48298969239E+02  0.88701807683E+02  0.00000000000E+00 0. -1.
         -4    1    5    5    0  503 -0.97506044858E+03  0.82467640998E+03  0.11348867684E+04  0.17084501856E+04  0.00000000000E+00 0.  1.
         -1    1    6    6    0  502  0.41994119804E+02  0.18712484629E+02  0.49684286852E+03  0.49896542884E+03  0.00000000000E+00 0.  1.
<mgrwt>
<rscale>  0 0.33442892E+04</rscale>
<asrwt>0</asrwt>
<pdfrwt beam="1">  1        1 0.45084811E+00 0.33442892E+04</pdfrwt>
<pdfrwt beam="2">  1       -1 0.14678805E+00 0.33442892E+04</pdfrwt>
<totfact> 0.20509549E-01</totfact>
</mgrwt>
</event>
<event>
12    1  0.1504874E-007  0.1285128E+04  0.7818608E-02  0.9041442E-01
          1   -1    0    0  501    0  0.00000000000E+00  0.00000000000E+00  0.98400037772E+03  0.98400037772E+03  0.00000000000E+00 0. -1.
         -1   -1    0    0    0  501 -0.00000000000E+00 -0.00000000000E+00 -0.41960219229E+03  0.41960219229E+03  0.00000000000E+00 0.  1.
         23    2    1    2    0    0 -0.83564896519E+02 -0.27348485600E+03  0.30827131217E+03  0.43034444372E+03  0.91586461582E+02 0.  0.
        254    2    1    2    0    0  0.83564896519E+02  0.27348485600E+03  0.25612687326E+03  0.97325812629E+03  0.89434520560E+03 0.  0.
        -24    2    4    4    0    0  0.18438703936E+03  0.49181936737E+03  0.41470246757E+03  0.67404729993E+03  0.80478292219E+02 0.  0.
         24    2    4    4    0    0 -0.10082214284E+03 -0.21833451137E+03 -0.15857559431E+03  0.29921082636E+03  0.80906341893E+02 0.  0.
         13    1    3    3    0    0 -0.43738689095E+02 -0.92874664436E+02  0.17314746282E+03  0.20129287146E+03  0.00000000000E+00 0. -1.
        -13    1    3    3    0    0 -0.39826207424E+02 -0.18061019157E+03  0.13512384934E+03  0.22905157226E+03  0.00000000000E+00 0.  1.
          4    1    6    6  502    0 -0.96902561880E+02 -0.12475364800E+03 -0.80616714260E+02  0.17734890416E+03  0.00000000000E+00 0. -1.
          3    1    5    5  503    0  0.33194078483E+02  0.33645008956E+02  0.53218098827E+02  0.71175835202E+02  0.00000000000E+00 0. -1.
         -4    1    5    5    0  503  0.15119296088E+03  0.45817435842E+03  0.36148436875E+03  0.60287146472E+03  0.00000000000E+00 0.  1.
         -3    1    6    6    0  502 -0.39195809604E+01 -0.93580863374E+02 -0.77958880051E+02  0.12186192221E+03  0.00000000000E+00 0.  1.
<mgrwt>
<rscale>  0 0.12851283E+04</rscale>
<asrwt>0</asrwt>
<pdfrwt beam="1">  1        1 0.15138467E+00 0.12851283E+04</pdfrwt>
<pdfrwt beam="2">  1       -1 0.64554184E-01 0.12851283E+04</pdfrwt>
<totfact> 0.37281404E+01</totfact>
</mgrwt>
</event>
<event>
12    1  0.1653387E-007  0.2295346E+04  0.7818608E-02  0.8479758E-01
          1   -1    0    0  501    0  0.00000000000E+00  0.00000000000E+00  0.17481471339E+04  0.17481471339E+04  0.00000000000E+00 0. -1.
         -1   -1    0    0    0  501 -0.00000000000E+00 -0.00000000000E+00 -0.75345671365E+03  0.75345671365E+03  0.00000000000E+00 0.  1.
         23    2    1    2    0    0  0.82063433989E+03 -0.37780615845E+03  0.26305164628E+03  0.94546053773E+03  0.92310598618E+02 0.  0.
        254    2    1    2    0    0 -0.82063433989E+03  0.37780615845E+03  0.73163877398E+03  0.15561433098E+04  0.10344604835E+04 0.  0.
        -24    2    4    4    0    0 -0.10379164137E+04  0.41308232125E+03  0.49761526775E+03  0.12254278532E+04  0.78389939980E+02 0.  0.
         24    2    4    4    0    0  0.21728207385E+03 -0.35276162804E+02  0.23402350624E+03  0.33071545663E+03  0.78420689259E+02 0.  0.
         11    1    3    3    0    0  0.73992756363E+03 -0.32347177253E+03  0.25908561960E+03  0.84808734534E+03  0.00000000000E+00 0. -1.
        -11    1    3    3    0    0  0.80706776263E+02 -0.54334385920E+02  0.39660266760E+01  0.97373192387E+02  0.00000000000E+00 0.  1.
          2    1    6    6  502    0  0.18534327281E+03 -0.58299700332E+02  0.19342092335E+03  0.27415805190E+03  0.00000000000E+00 0. -1.
          3    1    5    5  503    0 -0.10368395677E+04  0.40768470940E+03  0.49682244497E+03  0.12198670638E+04  0.00000000000E+00 0. -1.
         -4    1    5    5    0  503 -0.10768460083E+01  0.53976118549E+01  0.79282278062E+00  0.55607894245E+01  0.00000000000E+00 0.  1.
         -1    1    6    6    0  502  0.31938801042E+02  0.23023537528E+02  0.40602582888E+02  0.56557404727E+02  0.00000000000E+00 0.  1.
<mgrwt>
<rscale>  0 0.22953459E+04</rscale>
<asrwt>0</asrwt>
<pdfrwt beam="1">  1        1 0.26894571E+00 0.22953459E+04</pdfrwt>
<pdfrwt beam="2">  1       -1 0.11591642E+00 0.22953459E+04</pdfrwt>
<totfact> 0.26905964E+00</totfact>
</mgrwt>
</event>
<event>
12    1  0.1504874E-007  0.1728002E+04  0.7818608E-02  0.8745553E-01
         -2   -1    0    0    0  501 -0.00000000000E+00  0.00000000000E+00  0.34332250206E+03  0.34332250206E+03  0.00000000000E+00 0. -1.
          2   -1    0    0  501    0  0.00000000000E+00 -0.00000000000E+00 -0.21743325917E+04  0.21743325917E+04  0.00000000000E+00 0.  1.
         23    2    1    2    0    0 -0.31346805371E+03 -0.41536828850E+03 -0.11343458962E+04  0.12517596319E+04  0.96791157796E+02 0.  0.
        254    2    1    2    0    0  0.31346805371E+03  0.41536828850E+03 -0.69666419349E+03  0.12658954618E+04  0.91997678558E+03 0.  0.
        -24    2    4    4    0    0  0.88881839221E+02  0.67104027090E+03 -0.58664729793E+03  0.89940910435E+03  0.81158230069E+02 0.  0.
         24    2    4    4    0    0  0.22458621448E+03 -0.25567198240E+03 -0.11001689556E+03  0.36648635748E+03  0.80008765698E+02 0.  0.
         11    1    3    3    0    0 -0.21645967476E+03 -0.23965577158E+03 -0.78549542935E+03  0.84928955556E+03  0.00000000000E+00 0.  1.
        -11    1    3    3    0    0 -0.97008378946E+02 -0.17571251692E+03 -0.34885046681E+03  0.40247007638E+03  0.00000000000E+00 0. -1.
          4    1    6    6  502    0  0.22118001130E+03 -0.26154664533E+03 -0.10977529482E+03  0.35969134051E+03  0.00000000000E+00 0. -1.
          3    1    5    5  503    0  0.92333030231E+02  0.40862764975E+03 -0.34592610179E+03  0.54329256622E+03  0.00000000000E+00 0. -1.
         -4    1    5    5    0  503 -0.34511910105E+01  0.26241262115E+03 -0.24072119614E+03  0.35611653813E+03  0.00000000000E+00 0.  1.
         -3    1    6    6    0  502  0.34062031889E+01  0.58746629329E+01 -0.24160073689E+00  0.67950169725E+01  0.00000000000E+00 0.  1.
<mgrwt>
<rscale>  0 0.17280015E+04</rscale>
<asrwt>0</asrwt>
<pdfrwt beam="1">  1        2 0.33451271E+00 0.17280015E+04</pdfrwt>
<pdfrwt beam="2">  1       -2 0.52818847E-01 0.17280015E+04</pdfrwt>
<totfact> 0.17143852E+01</totfact>
</mgrwt>
</event>
<event>
12    1  0.1915515E-007  0.1871895E+04  0.7818608E-02  0.8668974E-01
         -2   -1    0    0    0  501 -0.00000000000E+00  0.00000000000E+00  0.62949830361E+03  0.62949830361E+03  0.00000000000E+00 0.  1.
          2   -1    0    0  501    0  0.00000000000E+00 -0.00000000000E+00 -0.13915809743E+04  0.13915809743E+04  0.00000000000E+00 0. -1.
         23    2    1    2    0    0  0.18168422187E+03  0.19548778258E+03 -0.99624621668E+03  0.10347183763E+04  0.83132210127E+02 0.  0.
        254    2    1    2    0    0 -0.18168422187E+03 -0.19548778258E+03  0.23416354599E+03  0.98636090162E+03  0.92024487630E+03 0.  0.
        -24    2    4    4    0    0 -0.24175943363E+03 -0.35058057727E+03 -0.22709801709E+03  0.48929085724E+03  0.80483965489E+02 0.  0.
         24    2    4    4    0    0  0.60075211752E+02  0.15509279469E+03  0.46126156308E+03  0.49707004439E+03  0.81569561864E+02 0.  0.
         13    1    3    3    0    0  0.45528387929E+01 -0.62888625706E+01 -0.67370778214E+02  0.67816663812E+02  0.00000000000E+00 0.  1.
        -13    1    3    3    0    0  0.17713138308E+03  0.20177664515E+03 -0.92887543847E+03  0.96690171247E+03  0.00000000000E+00 0. -1.
          4    1    6    6  502    0 -0.74334485068E+01  0.35317020963E+02  0.18498239686E+03  0.18847025037E+03  0.00000000000E+00 0. -1.
          3    1    5    5  503    0 -0.47441818216E+02 -0.98295987397E+02 -0.94394730967E+02  0.14430243410E+03  0.00000000000E+00 0. -1.
         -2    1    5    5    0  503 -0.19431761541E+03 -0.25228458988E+03 -0.13270328612E+03  0.34498842313E+03  0.00000000000E+00 0.  1.
         -3    1    6    6    0  502  0.67508660258E+02  0.11977577373E+03  0.27627916622E+03  0.30859979402E+03  0.00000000000E+00 0.  1.
<mgrwt>
<rscale>  0 0.18718951E+04</rscale>
<asrwt>0</asrwt>
<pdfrwt beam="1">  1        2 0.21408938E+00 0.18718951E+04</pdfrwt>
<pdfrwt beam="2">  1       -2 0.96845895E-01 0.18718951E+04</pdfrwt>
<totfact> 0.12237883E+01</totfact>
</mgrwt>
</event>
<event>
12    1  0.1504874E-007  0.1561516E+04  0.7818608E-02  0.8844545E-01
         -1   -1    0    0    0  501 -0.00000000000E+00  0.00000000000E+00  0.63837345244E+03  0.63837345244E+03  0.00000000000E+00 0.  1.
          1   -1    0    0  501    0  0.00000000000E+00 -0.00000000000E+00 -0.95490049231E+03  0.95490049231E+03  0.00000000000E+00 0. -1.
         23    2    1    2    0    0  0.17788679570E+03 -0.48245385088E+03 -0.15453265168E+03  0.54468941192E+03  0.91655794741E+02 0.  0.
        254    2    1    2    0    0 -0.17788679570E+03  0.48245385088E+03 -0.16199438818E+03  0.10485845328E+04  0.89937862460E+03 0.  0.
        -24    2    4    4    0    0  0.49744357293E+02  0.70142590794E+03 -0.14246417013E+03  0.72213948018E+03  0.81954765911E+02 0.  0.
         24    2    4    4    0    0 -0.22763115299E+03 -0.21897205706E+03 -0.19530218052E+02  0.32644505265E+03  0.80126396398E+02 0.  0.
         13    1    3    3    0    0  0.17228513822E+03 -0.36221522049E+03 -0.10572103883E+03  0.41479991906E+03  0.00000000000E+00 0. -1.
        -13    1    3    3    0    0  0.56016574787E+01 -0.12023863039E+03 -0.48811612857E+02  0.12988949285E+03  0.00000000000E+00 0.  1.
          2    1    6    6  502    0 -0.27380520520E+02 -0.98318930633E+01 -0.22661529843E+02  0.36876875681E+02  0.00000000000E+00 0. -1.
          1    1    5    5  503    0  0.11469749312E+01  0.18433412787E+03 -0.29669879548E+01  0.18436157210E+03  0.00000000000E+00 0. -1.
         -2    1    5    5    0  503  0.48597382362E+02  0.51709178006E+03 -0.13949718217E+03  0.53777790808E+03  0.00000000000E+00 0.  1.
         -1    1    6    6    0  502 -0.20025063247E+03 -0.20914016400E+03  0.31313117914E+01  0.28956817697E+03  0.00000000000E+00 0.  1.
<mgrwt>
<rscale>  0 0.15615161E+04</rscale>
<asrwt>0</asrwt>
<pdfrwt beam="1">  1        1 0.14690777E+00 0.15615161E+04</pdfrwt>
<pdfrwt beam="2">  1       -1 0.98211301E-01 0.15615161E+04</pdfrwt>
<totfact> 0.15707378E+01</totfact>
</mgrwt>
</event>
<event>
12    1  0.1504874E-007  0.2461151E+04  0.7818608E-02  0.8416958E-01
          1   -1    0    0  501    0  0.00000000000E+00  0.00000000000E+00  0.12174266208E+04  0.12174266208E+04  0.00000000000E+00 0. -1.
         -1   -1    0    0    0  501 -0.00000000000E+00 -0.00000000000E+00 -0.12438665595E+04  0.12438665595E+04  0.00000000000E+00 0.  1.
         23    2    1    2    0    0  0.33135318438E+00  0.91676098544E+03 -0.57932314793E+03  0.10895626903E+04  0.10526505628E+03 0.  0.
        254    2    1    2    0    0 -0.33135318438E+00 -0.91676098544E+03  0.55288320919E+03  0.13717304900E+04  0.85762105850E+03 0.  0.
        -24    2    4    4    0    0  0.36741784401E+03 -0.44247543329E+03  0.49614559801E+03  0.76382365604E+03  0.80534104173E+02 0.  0.
         24    2    4    4    0    0 -0.36774919719E+03 -0.47428555215E+03  0.56737611180E+02  0.60790683397E+03  0.78391997375E+02 0.  0.
         13    1    3    3    0    0 -0.24114619903E+01  0.49664881478E+03 -0.25167370794E+03  0.55678138945E+03  0.00000000000E+00 0. -1.
        -13    1    3    3    0    0  0.27428151747E+01  0.42011217066E+03 -0.32764943999E+03  0.53278130082E+03  0.00000000000E+00 0.  1.
          4    1    6    6  502    0 -0.31873740669E+03 -0.41102482066E+03  0.75848717326E+02  0.52563101653E+03  0.00000000000E+00 0. -1.
          3    1    5    5  503    0  0.77546160840E+02 -0.96054179245E+02  0.65576025144E+02  0.13978564835E+03  0.00000000000E+00 0. -1.
         -4    1    5    5    0  503  0.28987168317E+03 -0.34642125405E+03  0.43056957286E+03  0.62403800768E+03  0.00000000000E+00 0.  1.
         -3    1    6    6    0  502 -0.49011790505E+02 -0.63260731489E+02 -0.19111106146E+02  0.82275817439E+02  0.00000000000E+00 0.  1.
<mgrwt>
<rscale>  0 0.24611512E+04</rscale>
<asrwt>0</asrwt>
<pdfrwt beam="1">  1        1 0.18729640E+00 0.24611512E+04</pdfrwt>
<pdfrwt beam="2">  1       -1 0.19136408E+00 0.24611512E+04</pdfrwt>
<totfact> 0.15988911E+00</totfact>
</mgrwt>
</event>
<event>
12    1  0.1504874E-007  0.1962080E+04  0.7818608E-02  0.8624557E-01
          2   -1    0    0  501    0  0.00000000000E+00  0.00000000000E+00  0.85062972551E+03  0.85062972551E+03  0.00000000000E+00 0. -1.
         -2   -1    0    0    0  501 -0.00000000000E+00 -0.00000000000E+00 -0.11314438789E+04  0.11314438789E+04  0.00000000000E+00 0.  1.
         23    2    1    2    0    0 -0.23946339173E+03 -0.20288414111E+03 -0.82203013829E+03  0.88457073956E+03  0.90703662121E+02 0.  0.
        254    2    1    2    0    0  0.23946339173E+03  0.20288414111E+03  0.54121598493E+03  0.10975028648E+04  0.90171675446E+03 0.  0.
        -24    2    4    4    0    0  0.45165631367E+03  0.43207152566E+03  0.31726480308E+03  0.70523765384E+03  0.77614200800E+02 0.  0.
         24    2    4    4    0    0 -0.21219292194E+03 -0.22918738454E+03  0.22395118185E+03  0.39226521099E+03  0.78518600015E+02 0.  0.
         13    1    3    3    0    0 -0.17165717016E+03 -0.89579828391E+02 -0.52270008960E+03  0.55741018414E+03  0.00000000000E+00 0.  1.
        -13    1    3    3    0    0 -0.67806221564E+02 -0.11330431272E+03 -0.29933004870E+03  0.32716055541E+03  0.00000000000E+00 0. -1.
          2    1    6    6  502    0 -0.14207296664E+02 -0.41021832959E+02  0.58765202123E+02  0.73061529127E+02  0.00000000000E+00 0. -1.
          1    1    5    5  503    0  0.67196290063E+02  0.79277883707E+02  0.84208758703E+02  0.13375888488E+03  0.00000000000E+00 0. -1.
         -2    1    5    5    0  503  0.38446002360E+03  0.35279364195E+03  0.23305604438E+03  0.57147876896E+03  0.00000000000E+00 0.  1.
         -1    1    6    6    0  502 -0.19798562527E+03 -0.18816555158E+03  0.16518597973E+03  0.31920368186E+03  0.00000000000E+00 0.  1.
<mgrwt>
<rscale>  0 0.19620803E+04</rscale>
<asrwt>0</asrwt>
<pdfrwt beam="1">  1        2 0.13086611E+00 0.19620803E+04</pdfrwt>
<pdfrwt beam="2">  1       -2 0.17406829E+00 0.19620803E+04</pdfrwt>
<totfact> 0.58912937E+00</totfact>
</mgrwt>
</event>
<event>
12    1  0.1504874E-007  0.1256536E+04  0.7818608E-02  0.9064761E-01
         -1   -1    0    0    0  501 -0.00000000000E+00  0.00000000000E+00  0.65118591089E+03  0.65118591089E+03  0.00000000000E+00 0.  1.
          1   -1    0    0  501    0  0.00000000000E+00 -0.00000000000E+00 -0.60615624472E+03  0.60615624472E+03  0.00000000000E+00 0. -1.
         23    2    1    2    0    0  0.11170404230E+03 -0.16031081908E+03  0.23260210955E+03  0.31897381937E+03  0.97279002324E+02 0.  0.
        254    2    1    2    0    0 -0.11170404230E+03  0.16031081908E+03 -0.18757244338E+03  0.93836833624E+03  0.89842882921E+03 0.  0.
        -24    2    4    4    0    0  0.89986133367E+02  0.13088433271E+03  0.33090303519E+03  0.37559747270E+03  0.79677035943E+02 0.  0.
         24    2    4    4    0    0 -0.20169017567E+03  0.29426486365E+02 -0.51847547857E+03  0.56277086353E+03  0.79682983788E+02 0.  0.
         13    1    3    3    0    0  0.78124849924E+02 -0.15536809899E+03  0.14995393630E+03  0.22962778877E+03  0.00000000000E+00 0.  1.
        -13    1    3    3    0    0  0.33579192380E+02 -0.49427200847E+01  0.82648173252E+02  0.89346030604E+02  0.00000000000E+00 0. -1.
          2    1    6    6  502    0 -0.32051746940E+02  0.16012974459E+02 -0.34452483522E+02  0.49706171184E+02  0.00000000000E+00 0. -1.
          1    1    5    5  503    0 -0.14282852423E+02  0.87993611733E+01  0.38991180258E+02  0.42446917065E+02  0.00000000000E+00 0. -1.
         -2    1    5    5    0  503  0.10426898579E+03  0.12208497154E+03  0.29191185493E+03  0.33315055564E+03  0.00000000000E+00 0.  1.
         -1    1    6    6    0  502 -0.16963842873E+03  0.13413511906E+02 -0.48402299504E+03  0.51306469235E+03  0.00000000000E+00 0.  1.
<mgrwt>
<rscale>  0 0.12565356E+04</rscale>
<asrwt>0</asrwt>
<pdfrwt beam="1">  1        1 0.93254806E-01 0.12565356E+04</pdfrwt>
<pdfrwt beam="2">  1       -1 0.10018245E+00 0.12565356E+04</pdfrwt>
<totfact> 0.31587407E+01</totfact>
</mgrwt>
</event>
<event>
12    1  0.1504874E-007  0.1512771E+04  0.7818608E-02  0.8876005E-01
         -1   -1    0    0    0  501 -0.00000000000E+00  0.00000000000E+00  0.14597349816E+04  0.14597349816E+04  0.00000000000E+00 0.  1.
          1   -1    0    0  501    0  0.00000000000E+00 -0.00000000000E+00 -0.39193347816E+03  0.39193347816E+03  0.00000000000E+00 0. -1.
         23    2    1    2    0    0 -0.14630354637E+03  0.44244004373E+03  0.19608673409E+03  0.51416774519E+03  0.93597772053E+02 0.  0.
        254    2    1    2    0    0  0.14630354637E+03 -0.44244004373E+03  0.87171476937E+03  0.13375007146E+04  0.90103473986E+03 0.  0.
        -24    2    4    4    0    0 -0.35753531079E+03 -0.90725304891E+02  0.21966712216E+03  0.43795438579E+03  0.86532190936E+02 0.  0.
         24    2    4    4    0    0  0.50383885716E+03 -0.35171473884E+03  0.65204764721E+03  0.89954632880E+03  0.80377931885E+02 0.  0.
         13    1    3    3    0    0 -0.48659328659E+02  0.45956229946E+02  0.25094976970E+02  0.71480509270E+02  0.00000000000E+00 0.  1.
        -13    1    3    3    0    0 -0.97644217712E+02  0.39648381378E+03  0.17099175712E+03  0.44268723592E+03  0.00000000000E+00 0. -1.
          2    1    6    6  502    0  0.41646299248E+03 -0.25059973530E+03  0.51327047786E+03  0.70688629558E+03  0.00000000000E+00 0. -1.
          1    1    5    5  503    0 -0.29301476997E+03 -0.90323804598E+02  0.21245143883E+03  0.37303037270E+03  0.00000000000E+00 0. -1.
         -2    1    5    5    0  503 -0.64520540816E+02 -0.40150029342E+00  0.72156833334E+01  0.64924013090E+02  0.00000000000E+00 0.  1.
         -1    1    6    6    0  502  0.87375864679E+02 -0.10111500354E+03  0.13877716935E+03  0.19266003322E+03  0.00000000000E+00 0.  1.
<mgrwt>
<rscale>  0 0.15127710E+04</rscale>
<asrwt>0</asrwt>
<pdfrwt beam="1">  1        1 0.60297459E-01 0.15127710E+04</pdfrwt>
<pdfrwt beam="2">  1       -1 0.22457461E+00 0.15127710E+04</pdfrwt>
<totfact> 0.61107366E+00</totfact>
</mgrwt>
</event>
<event>
12    1  0.1504874E-007  0.2638945E+04  0.7818608E-02  0.8355092E-01
          1   -1    0    0  501    0  0.00000000000E+00  0.00000000000E+00  0.12913095018E+04  0.12913095018E+04  0.00000000000E+00 0. -1.
         -1   -1    0    0    0  501 -0.00000000000E+00 -0.00000000000E+00 -0.13482495396E+04  0.13482495396E+04  0.00000000000E+00 0.  1.
         23    2    1    2    0    0 -0.44372686244E+03  0.87904935307E+03  0.59098079066E+03  0.11520794030E+04  0.91691669431E+02 0.  0.
        254    2    1    2    0    0  0.44372686244E+03 -0.87904935307E+03 -0.64792082846E+03  0.14874796384E+04  0.90728880804E+03 0.  0.
        -24    2    4    4    0    0 -0.20715755837E+03  0.93824273264E+01 -0.37965209085E+02  0.22595360748E+03  0.81310464896E+02 0.  0.
         24    2    4    4    0    0  0.65088442081E+03 -0.88843178040E+03 -0.60995561937E+03  0.12615260309E+04  0.80252797321E+02 0.  0.
         13    1    3    3    0    0 -0.38715252729E+03  0.81591168989E+03  0.55478987372E+03  0.10599013016E+04  0.00000000000E+00 0. -1.
        -13    1    3    3    0    0 -0.56574335154E+02  0.63137663177E+02  0.36190916949E+02  0.92178101408E+02  0.00000000000E+00 0.  1.
          4    1    6    6  502    0  0.24349470385E+03 -0.39943047959E+03 -0.25966053027E+03  0.53503081201E+03  0.00000000000E+00 0. -1.
          3    1    5    5  503    0 -0.71307481911E+02 -0.16727517689E+02 -0.47486404634E+02  0.87289893170E+02  0.00000000000E+00 0. -1.
         -4    1    5    5    0  503 -0.13585007646E+03  0.26109945015E+02  0.95211955493E+01  0.13866371431E+03  0.00000000000E+00 0.  1.
         -3    1    6    6    0  502  0.40738971696E+03 -0.48900130081E+03 -0.35029508911E+03  0.72649521893E+03  0.00000000000E+00 0.  1.
<mgrwt>
<rscale>  0 0.26389448E+04</rscale>
<asrwt>0</asrwt>
<pdfrwt beam="1">  1        1 0.19866300E+00 0.26389448E+04</pdfrwt>
<pdfrwt beam="2">  1       -1 0.20742301E+00 0.26389448E+04</pdfrwt>
<totfact> 0.10781806E+00</totfact>
</mgrwt>
</event>
<event>
12    1  0.1504874E-007  0.1860335E+04  0.7818608E-02  0.8674856E-01
         -1   -1    0    0    0  501 -0.00000000000E+00  0.00000000000E+00  0.82449963147E+03  0.82449963147E+03  0.00000000000E+00 0.  1.
          1   -1    0    0  501    0  0.00000000000E+00 -0.00000000000E+00 -0.10493776841E+04  0.10493776841E+04  0.00000000000E+00 0. -1.
         23    2    1    2    0    0  0.17140264474E+03 -0.55781537485E+03 -0.49126818584E+03  0.76828235453E+03  0.91523149033E+02 0.  0.
        254    2    1    2    0    0 -0.17140264474E+03  0.55781537485E+03  0.26639013319E+03  0.11055949611E+04  0.90046635464E+03 0.  0.
        -24    2    4    4    0    0 -0.73965729099E+02  0.71974599880E+02 -0.31291067230E+03  0.33919874724E+03  0.80569405969E+02 0.  0.
         24    2    4    4    0    0 -0.97436915637E+02  0.48584077497E+03  0.57930080549E+03  0.76639621384E+03  0.78984316091E+02 0.  0.
         13    1    3    3    0    0  0.16443972378E+03 -0.49436025154E+03 -0.46803667606E+03  0.70035049168E+03  0.00000000000E+00 0. -1.
        -13    1    3    3    0    0  0.69629209567E+01 -0.63455123312E+02 -0.23231509784E+02  0.67931862846E+02  0.00000000000E+00 0.  1.
          4    1    6    6  502    0 -0.56803503131E+02  0.18420375465E+03  0.27654750690E+03  0.33709966592E+03  0.00000000000E+00 0. -1.
          1    1    5    5  503    0 -0.30496927461E+02 -0.48997811599E+01 -0.15703534548E+03  0.16004427566E+03  0.00000000000E+00 0. -1.
         -2    1    5    5    0  503 -0.43468801638E+02  0.76874381040E+02 -0.15587532682E+03  0.17915447158E+03  0.00000000000E+00 0.  1.
         -3    1    6    6    0  502 -0.40633412506E+02  0.30163702033E+03  0.30275329859E+03  0.42929654791E+03  0.00000000000E+00 0.  1.
<mgrwt>
<rscale>  0 0.18603349E+04</rscale>
<asrwt>0</asrwt>
<pdfrwt beam="1">  1        1 0.16144272E+00 0.18603349E+04</pdfrwt>
<pdfrwt beam="2">  1       -1 0.12684610E+00 0.18603349E+04</pdfrwt>
<totfact> 0.70177604E+00</totfact>
</mgrwt>
</event>
<event>
12    1  0.1504874E-007  0.1541541E+04  0.7818608E-02  0.8857289E-01
          1   -1    0    0  501    0  0.00000000000E+00  0.00000000000E+00  0.47596379149E+03  0.47596379149E+03  0.00000000000E+00 0. -1.
         -1   -1    0    0    0  501 -0.00000000000E+00 -0.00000000000E+00 -0.12481767006E+04  0.12481767006E+04  0.00000000000E+00 0.  1.
         23    2    1    2    0    0  0.53106712929E+02 -0.50805228208E+03 -0.21326097435E+03  0.56092298749E+03  0.90647175493E+02 0.  0.
        254    2    1    2    0    0 -0.53106712929E+02  0.50805228208E+03 -0.55895193473E+03  0.11632175046E+04  0.88301203465E+03 0.  0.
        -24    2    4    4    0    0  0.19135367410E+03  0.10495447415E+03  0.17236932261E+03  0.28959878515E+03  0.80775013136E+02 0.  0.
         24    2    4    4    0    0 -0.24446038703E+03  0.40309780793E+03 -0.73132125734E+03  0.87361871943E+03  0.78295350541E+02 0.  0.
         11    1    3    3    0    0  0.72306632887E+02 -0.46002148810E+03 -0.17904347078E+03  0.49890338053E+03  0.00000000000E+00 0. -1.
        -11    1    3    3    0    0 -0.19199919959E+02 -0.48030793980E+02 -0.34217503566E+02  0.62019606957E+02  0.00000000000E+00 0.  1.
          2    1    6    6  502    0 -0.84409803861E+02  0.81079184199E+02 -0.15336943242E+03  0.19292753017E+03  0.00000000000E+00 0. -1.
          1    1    5    5  503    0  0.25969228353E+02  0.33110849116E+01 -0.49942568703E+01  0.26651579808E+02  0.00000000000E+00 0. -1.
         -2    1    5    5    0  503  0.16538444575E+03  0.10164338924E+03  0.17736357948E+03  0.26294720534E+03  0.00000000000E+00 0.  1.
         -1    1    6    6    0  502 -0.16005058317E+03  0.32201862373E+03 -0.57795182492E+03  0.68069118926E+03  0.00000000000E+00 0.  1.
<mgrwt>
<rscale>  0 0.15415407E+04</rscale>
<asrwt>0</asrwt>
<pdfrwt beam="1">  1        1 0.73225200E-01 0.15415407E+04</pdfrwt>
<pdfrwt beam="2">  1       -1 0.19202718E+00 0.15415407E+04</pdfrwt>
<totfact> 0.78189318E+00</totfact>
</mgrwt>
</event>
<event>
12    1  0.1504874E-007  0.2125320E+04  0.7818608E-02  0.8550171E-01
          1   -1    0    0  501    0  0.00000000000E+00  0.00000000000E+00  0.14286959422E+04  0.14286959422E+04  0.00000000000E+00 0. -1.
         -1   -1    0    0    0  501 -0.00000000000E+00 -0.00000000000E+00 -0.79040342286E+03  0.79040342286E+03  0.00000000000E+00 0.  1.
         23    2    1    2    0    0  0.62596599617E+03 -0.39669058568E+03  0.74016663214E+03  0.10514094920E+04  0.91751988693E+02 0.  0.
        254    2    1    2    0    0 -0.62596599617E+03  0.39669058568E+03 -0.10187411275E+03  0.11676898731E+04  0.89661834454E+03 0.  0.
        -24    2    4    4    0    0  0.21649220732E+03  0.42054628911E+01 -0.28927818915E+02  0.23210607935E+03  0.78420989624E+02 0.  0.
         24    2    4    4    0    0 -0.84245820349E+03  0.39248512279E+03 -0.72946293838E+02  0.93558379375E+03  0.78838297189E+02 0.  0.
         13    1    3    3    0    0  0.21716850612E+03 -0.15713401570E+03  0.21118202436E+03  0.34124933165E+03  0.00000000000E+00 0.  1.
        -13    1    3    3    0    0  0.40879749005E+03 -0.23955656998E+03  0.52898460778E+03  0.71016016036E+03  0.00000000000E+00 0. -1.
          2    1    6    6  502    0 -0.65013293820E+03  0.27397574206E+03 -0.33814093828E+02  0.70631362547E+03  0.00000000000E+00 0. -1.
          3    1    5    5  503    0  0.11564481876E+03 -0.18269358964E+02 -0.48885012294E+02  0.12687489117E+03  0.00000000000E+00 0. -1.
         -4    1    5    5    0  503  0.10084738856E+03  0.22474821855E+02  0.19957193380E+02  0.10523118817E+03  0.00000000000E+00 0.  1.
         -1    1    6    6    0  502 -0.19232526529E+03  0.11850938073E+03 -0.39132200010E+02  0.22927016829E+03  0.00000000000E+00 0.  1.
<mgrwt>
<rscale>  0 0.21253199E+04</rscale>
<asrwt>0</asrwt>
<pdfrwt beam="1">  1        1 0.21979938E+00 0.21253199E+04</pdfrwt>
<pdfrwt beam="2">  1       -1 0.12160053E+00 0.21253199E+04</pdfrwt>
<totfact> 0.40333829E+00</totfact>
</mgrwt>
</event>
<event>
12    1  0.1504874E-007  0.2047904E+04  0.7818608E-02  0.8584546E-01
          1   -1    0    0  501    0  0.00000000000E+00  0.00000000000E+00  0.16601803126E+04  0.16601803126E+04  0.00000000000E+00 0. -1.
         -1   -1    0    0    0  501 -0.00000000000E+00 -0.00000000000E+00 -0.63154439716E+03  0.63154439716E+03  0.00000000000E+00 0.  1.
         23    2    1    2    0    0 -0.72385571779E+03 -0.55952791156E+02  0.86937481881E+03  0.11363547532E+04  0.91606410425E+02 0.  0.
        254    2    1    2    0    0  0.72385571779E+03  0.55952791156E+02  0.15926109665E+03  0.11553699566E+04  0.88454385123E+03 0.  0.
        -24    2    4    4    0    0  0.69763613710E+03  0.36350375849E+03  0.24072920714E+03  0.82656511887E+03  0.80175946129E+02 0.  0.
         24    2    4    4    0    0  0.26219580688E+02 -0.30755096733E+03 -0.81468110483E+02  0.32880483775E+03  0.78743281531E+02 0.  0.
         11    1    3    3    0    0 -0.61792307610E+03 -0.77163714828E+02  0.71874563462E+03  0.95098814617E+03  0.00000000000E+00 0. -1.
        -11    1    3    3    0    0 -0.10593264169E+03  0.21210923672E+02  0.15062918419E+03  0.18536660699E+03  0.00000000000E+00 0.  1.
          2    1    6    6  502    0  0.19939217556E+02 -0.14633315508E+03 -0.78909318763E+02  0.16744445425E+03  0.00000000000E+00 0. -1.
          3    1    5    5  503    0  0.38127230524E+01  0.18093390690E+01  0.99373462456E+01  0.10796361209E+02  0.00000000000E+00 0. -1.
         -4    1    5    5    0  503  0.69382341405E+03  0.36169441942E+03  0.23079186089E+03  0.81576875766E+03  0.00000000000E+00 0.  1.
         -1    1    6    6    0  502  0.62803631314E+01 -0.16121781225E+03 -0.25587917200E+01  0.16136038350E+03  0.00000000000E+00 0.  1.
<mgrwt>
<rscale>  0 0.20479039E+04</rscale>
<asrwt>0</asrwt>
<pdfrwt beam="1">  1        1 0.25541235E+00 0.20479039E+04</pdfrwt>
<pdfrwt beam="2">  1       -1 0.97160677E-01 0.20479039E+04</pdfrwt>
<totfact> 0.47705333E+00</totfact>
</mgrwt>
</event>
<event>
12    1  0.1504874E-007  0.1766677E+04  0.7818608E-02  0.8724224E-01
          2   -1    0    0  501    0  0.00000000000E+00  0.00000000000E+00  0.17365459653E+04  0.17365459653E+04  0.00000000000E+00 0. -1.
         -2   -1    0    0    0  501 -0.00000000000E+00 -0.00000000000E+00 -0.44933281171E+03  0.44933281171E+03  0.00000000000E+00 0.  1.
         23    2    1    2    0    0 -0.93679807528E+02 -0.30792182315E+03  0.11812425038E+04  0.12274931977E+04  0.88396505628E+02 0.  0.
        254    2    1    2    0    0  0.93679807528E+02  0.30792182315E+03  0.10597064982E+03  0.95838557931E+03  0.89648278539E+03 0.  0.
        -24    2    4    4    0    0  0.41260820359E+03  0.43703539018E+02  0.27522375578E+03  0.50389935914E+03  0.77530119315E+02 0.  0.
         24    2    4    4    0    0 -0.31892839606E+03  0.26421828413E+03 -0.16925310596E+03  0.45448622017E+03  0.79902984698E+02 0.  0.
         11    1    3    3    0    0 -0.35027209724E+02 -0.23464323696E+03  0.91228079435E+03  0.94262431637E+03  0.00000000000E+00 0. -1.
        -11    1    3    3    0    0 -0.58652597804E+02 -0.73278586187E+02  0.26896170941E+03  0.28486888133E+03  0.00000000000E+00 0.  1.
          2    1    6    6  502    0 -0.78579954110E+02  0.51141558048E+02 -0.54104831246E+01  0.93912413850E+02  0.00000000000E+00 0. -1.
          1    1    5    5  503    0  0.19086051579E+03  0.33067000279E+02  0.84945720207E+02  0.21151108334E+03  0.00000000000E+00 0. -1.
         -4    1    5    5    0  503  0.22174768780E+03  0.10636538740E+02  0.19027803557E+03  0.29238827580E+03  0.00000000000E+00 0.  1.
         -1    1    6    6    0  502 -0.24034844195E+03  0.21307672608E+03 -0.16384262283E+03  0.36057380632E+03  0.00000000000E+00 0.  1.
<mgrwt>
<rscale>  0 0.17666772E+04</rscale>
<asrwt>0</asrwt>
<pdfrwt beam="1">  1        2 0.26716091E+00 0.17666772E+04</pdfrwt>
<pdfrwt beam="2">  1       -2 0.69128126E-01 0.17666772E+04</pdfrwt>
<totfact> 0.16922111E+01</totfact>
</mgrwt>
</event>
<event>
12    1  0.1504874E-007  0.2338731E+04  0.7818608E-02  0.8462805E-01
         -2   -1    0    0    0  501 -0.00000000000E+00  0.00000000000E+00  0.67238591652E+03  0.67238591652E+03  0.00000000000E+00 0.  1.
          2   -1    0    0  501    0  0.00000000000E+00 -0.00000000000E+00 -0.20336769525E+04  0.20336769525E+04  0.00000000000E+00 0. -1.
         23    2    1    2    0    0 -0.52010461708E+03  0.86622358124E+03 -0.52080488842E+03  0.11402414966E+04  0.89782143290E+02 0.  0.
        254    2    1    2    0    0  0.52010461708E+03 -0.86622358124E+03 -0.84048614758E+03  0.15658213725E+04  0.85119181203E+03 0.  0.
        -24    2    4    4    0    0  0.56677674003E+03 -0.15702169621E+03 -0.27724737316E+03  0.65548886373E+03  0.83113527421E+02 0.  0.
         24    2    4    4    0    0 -0.46672122949E+02 -0.70920188502E+03 -0.56323877442E+03  0.91033250876E+03  0.79509488134E+02 0.  0.
         11    1    3    3    0    0 -0.39419409674E+03  0.58278902029E+03 -0.37979435979E+03  0.79954723676E+03  0.00000000000E+00 0. -1.
        -11    1    3    3    0    0 -0.12591052033E+03  0.28343456095E+03 -0.14101052863E+03  0.34069425980E+03  0.00000000000E+00 0.  1.
          4    1    6    6  502    0 -0.28256528685E+02 -0.12541437463E+03 -0.73371240711E+02  0.14802207856E+03  0.00000000000E+00 0. -1.
          1    1    5    5  503    0  0.10347600553E+03 -0.61677907916E+02 -0.67194087826E+02  0.13793655601E+03  0.00000000000E+00 0. -1.
         -2    1    5    5    0  503  0.46330073449E+03 -0.95343788298E+02 -0.21005328533E+03  0.51755230772E+03  0.00000000000E+00 0.  1.
         -3    1    6    6    0  502 -0.18415594263E+02 -0.58378751039E+03 -0.48986753371E+03  0.76231043020E+03  0.00000000000E+00 0.  1.
<mgrwt>
<rscale>  0 0.23387311E+04</rscale>
<asrwt>0</asrwt>
<pdfrwt beam="1">  1        2 0.31287338E+00 0.23387311E+04</pdfrwt>
<pdfrwt beam="2">  1       -2 0.10344399E+00 0.23387311E+04</pdfrwt>
<totfact> 0.44056465E+00</totfact>
</mgrwt>
</event>
<event>
12    1  0.1504874E-007  0.3657072E+04  0.7818608E-02  0.8077542E-01
          1   -1    0    0  501    0  0.00000000000E+00  0.00000000000E+00  0.23974257344E+04  0.23974257344E+04  0.00000000000E+00 0. -1.
         -1   -1    0    0    0  501 -0.00000000000E+00 -0.00000000000E+00 -0.13946392528E+04  0.13946392528E+04  0.00000000000E+00 0.  1.
         23    2    1    2    0    0 -0.41486527004E+02  0.13276983044E+04 -0.65613429384E+03  0.14841799008E+04  0.88169421845E+02 0.  0.
        254    2    1    2    0    0  0.41486527004E+02 -0.13276983044E+04  0.16589207754E+04  0.23078850865E+04  0.89989527942E+03 0.  0.
        -24    2    4    4    0    0 -0.17296043820E+03 -0.13186966960E+04  0.15762482724E+04  0.20639472297E+04  0.80269929751E+02 0.  0.
         24    2    4    4    0    0  0.21444696521E+03 -0.90016083318E+01  0.82672503018E+02  0.24393785673E+03  0.81255186615E+02 0.  0.
         13    1    3    3    0    0 -0.44660345163E+02  0.73995151801E+03 -0.40835460175E+03  0.84633106774E+03  0.00000000000E+00 0. -1.
        -13    1    3    3    0    0  0.31738181588E+01  0.58774678634E+03 -0.24777969208E+03  0.63784883302E+03  0.00000000000E+00 0.  1.
          2    1    6    6  502    0 -0.23123179706E+01  0.11277280174E+02  0.15814643102E+01  0.11620021166E+02  0.00000000000E+00 0. -1.
          1    1    5    5  503    0 -0.77729179932E+01 -0.23005843708E+03  0.24136898675E+03  0.33353604077E+03  0.00000000000E+00 0. -1.
         -2    1    5    5    0  503 -0.16518752021E+03 -0.10886382589E+04  0.13348792856E+04  0.17304111890E+04  0.00000000000E+00 0.  1.
         -1    1    6    6    0  502  0.21675928318E+03 -0.20278888506E+02  0.81091038708E+02  0.23231783557E+03  0.00000000000E+00 0.  1.
<mgrwt>
<rscale>  0 0.36570721E+04</rscale>
<asrwt>0</asrwt>
<pdfrwt beam="1">  1        1 0.36883473E+00 0.36570721E+04</pdfrwt>
<pdfrwt beam="2">  1       -1 0.21455989E+00 0.36570721E+04</pdfrwt>
<totfact> 0.15378695E-01</totfact>
</mgrwt>
</event>
<event>
12    1  0.1504874E-007  0.1700700E+04  0.7818608E-02  0.8760965E-01
          2   -1    0    0  501    0  0.00000000000E+00  0.00000000000E+00  0.10294547634E+04  0.10294547634E+04  0.00000000000E+00 0. -1.
         -2   -1    0    0    0  501 -0.00000000000E+00 -0.00000000000E+00 -0.70240610042E+03  0.70240610042E+03  0.00000000000E+00 0.  1.
         23    2    1    2    0    0  0.58896178055E+03 -0.12684875951E+03  0.18539648585E+03  0.63690752663E+03  0.91174304396E+02 0.  0.
        254    2    1    2    0    0 -0.58896178055E+03  0.12684875951E+03  0.14165217712E+03  0.10949533372E+04  0.90326678482E+03 0.  0.
        -24    2    4    4    0    0 -0.41989405686E+02  0.18208129955E+03  0.42572664479E+03  0.47112201074E+03  0.76131879521E+02 0.  0.
         24    2    4    4    0    0 -0.54697237486E+03 -0.55232540038E+02 -0.28407446768E+03  0.62383132643E+03  0.78979796832E+02 0.  0.
         13    1    3    3    0    0  0.55034030863E+03 -0.11195217183E+03  0.19483927447E+03  0.59444939815E+03  0.00000000000E+00 0.  1.
        -13    1    3    3    0    0  0.38621471917E+02 -0.14896587682E+02 -0.94427886227E+01  0.42458128486E+02  0.00000000000E+00 0. -1.
          2    1    6    6  502    0 -0.44700136721E+03 -0.68346612638E+02 -0.25382500991E+03  0.51856399547E+03  0.00000000000E+00 0. -1.
          3    1    5    5  503    0 -0.50671600136E+02  0.74814719512E+02  0.14968226533E+03  0.17484173949E+03  0.00000000000E+00 0. -1.
         -4    1    5    5    0  503  0.86821944500E+01  0.10726658004E+03  0.27604437946E+03  0.29628027124E+03  0.00000000000E+00 0.  1.
         -1    1    6    6    0  502 -0.99971007653E+02  0.13114072599E+02 -0.30249457764E+02  0.10526733095E+03  0.00000000000E+00 0.  1.
<mgrwt>
<rscale>  0 0.17007002E+04</rscale>
<asrwt>0</asrwt>
<pdfrwt beam="1">  1        2 0.15837766E+00 0.17007002E+04</pdfrwt>
<pdfrwt beam="2">  1       -2 0.10806248E+00 0.17007002E+04</pdfrwt>
<totfact> 0.15743294E+01</totfact>
</mgrwt>
</event>
<event>
12    1  0.1504874E-007  0.1397118E+04  0.7818608E-02  0.8955907E-01
         -2   -1    0    0    0  501 -0.00000000000E+00  0.00000000000E+00  0.18218187723E+03  0.18218187723E+03  0.00000000000E+00 0.  1.
          2   -1    0    0  501    0  0.00000000000E+00 -0.00000000000E+00 -0.26785587944E+04  0.26785587944E+04  0.00000000000E+00 0. -1.
         23    2    1    2    0    0  0.36475668142E+03 -0.35728972716E+02 -0.39093968513E+03  0.54290239037E+03  0.87092892534E+02 0.  0.
        254    2    1    2    0    0 -0.36475668142E+03  0.35728972716E+02 -0.21054372321E+04  0.23178382813E+04  0.89732065832E+03 0.  0.
        -24    2    4    4    0    0  0.97094746107E+02 -0.22121652010E+03 -0.14503142581E+04  0.14725089881E+04  0.80666809787E+02 0.  0.
         24    2    4    4    0    0 -0.46185142753E+03  0.25694549282E+03 -0.65512297393E+03  0.84532929317E+03  0.77895927613E+02 0.  0.
         11    1    3    3    0    0  0.15526936217E+03 -0.57235160812E+02 -0.18777700886E+03  0.25028911985E+03  0.00000000000E+00 0. -1.
        -11    1    3    3    0    0  0.20948731925E+03  0.21506188095E+02 -0.20316267627E+03  0.29261327052E+03  0.00000000000E+00 0.  1.
          2    1    6    6  502    0 -0.13742443791E+03  0.67734455661E+02 -0.13789096411E+03  0.20612459970E+03  0.00000000000E+00 0. -1.
          3    1    5    5  503    0  0.82528238379E+01 -0.55581937533E+02 -0.54501170681E+03  0.54790074050E+03  0.00000000000E+00 0. -1.
         -4    1    5    5    0  503  0.88841922269E+02 -0.16563458257E+03 -0.90530255134E+03  0.92460824761E+03  0.00000000000E+00 0.  1.
         -1    1    6    6    0  502 -0.32442698961E+03  0.18921103716E+03 -0.51723200982E+03  0.63920469347E+03  0.00000000000E+00 0.  1.
<mgrwt>
<rscale>  0 0.13971183E+04</rscale>
<asrwt>0</asrwt>
<pdfrwt beam="1">  1        2 0.41208596E+00 0.13971183E+04</pdfrwt>
<pdfrwt beam="2">  1       -2 0.28027982E-01 0.13971183E+04</pdfrwt>
<totfact> 0.31144251E+01</totfact>
</mgrwt>
</event>
<event>
12    1  0.1504874E-007  0.1230416E+04  0.7818608E-02  0.9086642E-01
          1   -1    0    0  501    0  0.00000000000E+00  0.00000000000E+00  0.15083705117E+04  0.15083705117E+04  0.00000000000E+00 0. -1.
         -1   -1    0    0    0  501 -0.00000000000E+00 -0.00000000000E+00 -0.25092038776E+03  0.25092038776E+03  0.00000000000E+00 0.  1.
         23    2    1    2    0    0 -0.22560105182E+02 -0.41434060921E+02  0.68816009912E+03  0.69596978259E+03  0.92649212118E+02 0.  0.
        254    2    1    2    0    0  0.22560105182E+02  0.41434060921E+02  0.56929002482E+03  0.10633211169E+04  0.89684721413E+03 0.  0.
        -24    2    4    4    0    0 -0.14006105306E+03  0.43078250037E+03  0.22400928215E+03  0.51231922751E+03  0.84262513449E+02 0.  0.
         24    2    4    4    0    0  0.16262115824E+03 -0.38934843945E+03  0.34528074267E+03  0.55100188937E+03  0.79664561879E+02 0.  0.
         11    1    3    3    0    0  0.34554425896E+01  0.22308451487E+02  0.61017626638E+02  0.65059648414E+02  0.00000000000E+00 0.  1.
        -11    1    3    3    0    0 -0.26015547772E+02 -0.63742512408E+02  0.62714247248E+03  0.63091013418E+03  0.00000000000E+00 0. -1.
          4    1    6    6  502    0  0.42535288479E+01  0.29014478445E+01  0.30961254296E+00  0.51581747917E+01  0.00000000000E+00 0. -1.
          3    1    5    5  503    0 -0.49626625987E+01  0.77434527552E+02  0.11554490556E+02  0.78448966400E+02  0.00000000000E+00 0. -1.
         -4    1    5    5    0  503 -0.13509839046E+03  0.35334797282E+03  0.21245479160E+03  0.43387026111E+03  0.00000000000E+00 0.  1.
         -3    1    6    6    0  502  0.15836762940E+03 -0.39224988729E+03  0.34497113013E+03  0.54584371458E+03  0.00000000000E+00 0.  1.
<mgrwt>
<rscale>  0 0.12304160E+04</rscale>
<asrwt>0</asrwt>
<pdfrwt beam="1">  1        1 0.23205700E+00 0.12304160E+04</pdfrwt>
<pdfrwt beam="2">  1       -1 0.38603138E-01 0.12304160E+04</pdfrwt>
<totfact> 0.41424789E+01</totfact>
</mgrwt>
</event>
<event>
12    1  0.1504874E-007  0.1947247E+04  0.7818608E-02  0.8631690E-01
          1   -1    0    0  501    0  0.00000000000E+00  0.00000000000E+00  0.15249341458E+04  0.15249341458E+04  0.00000000000E+00 0. -1.
         -1   -1    0    0    0  501 -0.00000000000E+00 -0.00000000000E+00 -0.62162837341E+03  0.62162837341E+03  0.00000000000E+00 0.  1.
         23    2    1    2    0    0  0.15275394866E+03  0.73894137705E+03  0.44108864232E+03  0.87875564157E+03  0.91017359092E+02 0.  0.
        254    2    1    2    0    0 -0.15275394866E+03 -0.73894137705E+03  0.46221713010E+03  0.12678068777E+04  0.90792151432E+03 0.  0.
        -24    2    4    4    0    0 -0.14030842375E+03 -0.94313817306E+03  0.41679403003E+03  0.10436686035E+04  0.79566470678E+02 0.  0.
         24    2    4    4    0    0 -0.12445524918E+02  0.20419679601E+03  0.45423100068E+02  0.22413827415E+03  0.79520345349E+02 0.  0.
         13    1    3    3    0    0  0.49602515177E+02  0.11097773866E+03  0.47575239904E+02  0.13053685856E+03  0.00000000000E+00 0.  1.
        -13    1    3    3    0    0  0.10315143349E+03  0.62796363839E+03  0.39351340242E+03  0.74821878301E+03  0.00000000000E+00 0. -1.
          4    1    6    6  502    0  0.71132768131E+01  0.13059981793E+03 -0.81233229278E+01  0.13104541017E+03  0.00000000000E+00 0. -1.
          1    1    5    5  503    0 -0.94586290960E+02 -0.41569679152E+03  0.21072811491E+03  0.47555938360E+03  0.00000000000E+00 0. -1.
         -2    1    5    5    0  503 -0.45722132785E+02 -0.52744138154E+03  0.20606591512E+03  0.56810921992E+03  0.00000000000E+00 0.  1.
         -3    1    6    6    0  502 -0.19558801731E+02  0.73596978085E+02  0.53546422996E+02  0.93092863980E+02  0.00000000000E+00 0.  1.
<mgrwt>
<rscale>  0 0.19472466E+04</rscale>
<asrwt>0</asrwt>
<pdfrwt beam="1">  1        1 0.23460525E+00 0.19472466E+04</pdfrwt>
<pdfrwt beam="2">  1       -1 0.95635135E-01 0.19472466E+04</pdfrwt>
<totfact> 0.61789003E+00</totfact>
</mgrwt>
</event>
<event>
12    1  0.1504874E-007  0.2047447E+04  0.7818608E-02  0.8584754E-01
         -1   -1    0    0    0  501 -0.00000000000E+00  0.00000000000E+00  0.16325071751E+04  0.16325071751E+04  0.00000000000E+00 0.  1.
          1   -1    0    0  501    0  0.00000000000E+00 -0.00000000000E+00 -0.64196312300E+03  0.64196312300E+03  0.00000000000E+00 0. -1.
         23    2    1    2    0    0 -0.47314336448E+03 -0.64848691784E+03  0.24822882630E+03  0.84515544717E+03  0.90940935341E+02 0.  0.
        254    2    1    2    0    0  0.47314336448E+03  0.64848691784E+03  0.74231522583E+03  0.14293148509E+04  0.92060258672E+03 0.  0.
        -24    2    4    4    0    0  0.14056132317E+03  0.34117875928E+03 -0.16507584758E+03  0.41203497002E+03  0.79764338624E+02 0.  0.
         24    2    4    4    0    0  0.33258204131E+03  0.30730815857E+03  0.90739107341E+03  0.10172798809E+04  0.80316109812E+02 0.  0.
         13    1    3    3    0    0 -0.36653851922E+03 -0.55120070113E+03  0.22395522283E+03  0.69880515227E+03  0.00000000000E+00 0.  1.
        -13    1    3    3    0    0 -0.10660484526E+03 -0.97286216706E+02  0.24273603465E+02  0.14635029490E+03  0.00000000000E+00 0. -1.
          2    1    6    6  502    0  0.22039295433E+02 -0.79075136087E-01  0.31435012275E+02  0.38391363519E+02  0.00000000000E+00 0. -1.
          1    1    5    5  503    0  0.62855704255E+02  0.66215054392E+02 -0.49091318144E+02  0.10365920366E+03  0.00000000000E+00 0. -1.
         -2    1    5    5    0  503  0.77705618914E+02  0.27496370488E+03 -0.11598452944E+03  0.30837576637E+03  0.00000000000E+00 0.  1.
         -1    1    6    6    0  502  0.31054274588E+03  0.30738723370E+03  0.87595606113E+03  0.97888851740E+03  0.00000000000E+00 0.  1.
<mgrwt>
<rscale>  0 0.20474466E+04</rscale>
<asrwt>0</asrwt>
<pdfrwt beam="1">  1        1 0.98763558E-01 0.20474466E+04</pdfrwt>
<pdfrwt beam="2">  1       -1 0.25115495E+00 0.20474466E+04</pdfrwt>
<totfact> 0.19637884E+00</totfact>
</mgrwt>
</event>
<event>
12    1  0.1504874E-007  0.1713218E+04  0.7818608E-02  0.8753861E-01
         -2   -1    0    0    0  501 -0.00000000000E+00  0.00000000000E+00  0.68914765932E+03  0.68914765932E+03  0.00000000000E+00 0.  1.
          2   -1    0    0  501    0  0.00000000000E+00 -0.00000000000E+00 -0.10647632381E+04  0.10647632381E+04  0.00000000000E+00 0. -1.
         23    2    1    2    0    0  0.22739143321E+03 -0.11337360878E+03 -0.71505904883E+03  0.76431803156E+03  0.91171108291E+02 0.  0.
        254    2    1    2    0    0 -0.22739143321E+03  0.11337360878E+03  0.33944347007E+03  0.98959286585E+03  0.89415419906E+03 0.  0.
        -24    2    4    4    0    0  0.19847737842E+03 -0.10800048782E+03 -0.16336302738E+03  0.28995937161E+03  0.79571247042E+02 0.  0.
         24    2    4    4    0    0 -0.42586881163E+03  0.22137409660E+03  0.50280649745E+03  0.69963349424E+03  0.79384614566E+02 0.  0.
         11    1    3    3    0    0  0.12633992151E+03 -0.86290196179E+02 -0.30632182720E+03  0.34240449113E+03  0.00000000000E+00 0. -1.
        -11    1    3    3    0    0  0.10105151170E+03 -0.27083412597E+02 -0.40873722163E+03  0.42191354043E+03  0.00000000000E+00 0.  1.
          4    1    6    6  502    0 -0.10953218229E+03  0.61950003091E+02  0.84939235610E+02  0.15182152544E+03  0.00000000000E+00 0. -1.
          1    1    5    5  503    0  0.14880408470E+03 -0.46193072903E+02 -0.80908339237E+02  0.17556370629E+03  0.00000000000E+00 0. -1.
         -2    1    5    5    0  503  0.49673293720E+02 -0.61807414921E+02 -0.82454688138E+02  0.11439566532E+03  0.00000000000E+00 0.  1.
         -3    1    6    6    0  502 -0.31633662934E+03  0.15942409351E+03  0.41786726184E+03  0.54781196881E+03  0.00000000000E+00 0.  1.
<mgrwt>
<rscale>  0 0.17132181E+04</rscale>
<asrwt>0</asrwt>
<pdfrwt beam="1">  1        2 0.16380973E+00 0.17132181E+04</pdfrwt>
<pdfrwt beam="2">  1       -2 0.10602272E+00 0.17132181E+04</pdfrwt>
<totfact> 0.15644668E+01</totfact>
</mgrwt>
</event>
<event>
12    1  0.1504874E-007  0.1687041E+04  0.7818608E-02  0.8768790E-01
         -1   -1    0    0    0  501 -0.00000000000E+00  0.00000000000E+00  0.41473116717E+03  0.41473116717E+03  0.00000000000E+00 0.  1.
          1   -1    0    0  501    0  0.00000000000E+00 -0.00000000000E+00 -0.17156328826E+04  0.17156328826E+04  0.00000000000E+00 0. -1.
         23    2    1    2    0    0 -0.12054174226E+03  0.13873717909E+03  0.25934151787E+03  0.33075514169E+03  0.91447385855E+02 0.  0.
        254    2    1    2    0    0  0.12054174226E+03 -0.13873717909E+03 -0.15602432333E+04  0.17996089081E+04  0.87775563713E+03 0.  0.
        -24    2    4    4    0    0 -0.11338052894E+03 -0.46425923432E+03 -0.76283509546E+03  0.90359917082E+03  0.78627588333E+02 0.  0.
         24    2    4    4    0    0  0.23392227119E+03  0.32552205523E+03 -0.79740813786E+03  0.89600973728E+03  0.79306201401E+02 0.  0.
         13    1    3    3    0    0 -0.11582984074E+03  0.73873264983E+02  0.14896218542E+03  0.20264141721E+03  0.00000000000E+00 0.  1.
        -13    1    3    3    0    0 -0.47119015170E+01  0.64863914106E+02  0.11037933245E+03  0.12811372448E+03  0.00000000000E+00 0. -1.
          4    1    6    6  502    0  0.50517171475E+02  0.52641542406E+02 -0.89466805667E+02  0.11544447114E+03  0.00000000000E+00 0. -1.
          3    1    5    5  503    0 -0.64893720697E+02 -0.13876195320E+03 -0.28219844137E+03  0.32109505595E+03  0.00000000000E+00 0. -1.
         -4    1    5    5    0  503 -0.48486808241E+02 -0.32549728111E+03 -0.48063665409E+03  0.58250411487E+03  0.00000000000E+00 0.  1.
         -3    1    6    6    0  502  0.18340509972E+03  0.27288051282E+03 -0.70794133219E+03  0.78056526614E+03  0.00000000000E+00 0.  1.
<mgrwt>
<rscale>  0 0.16870405E+04</rscale>
<asrwt>0</asrwt>
<pdfrwt beam="1">  1        1 0.26394353E+00 0.16870405E+04</pdfrwt>
<pdfrwt beam="2">  1       -1 0.63804794E-01 0.16870405E+04</pdfrwt>
<totfact> 0.11035923E+01</totfact>
</mgrwt>
</event>
<event>
12    1  0.1504874E-007  0.1383943E+04  0.7818608E-02  0.8965524E-01
         -2   -1    0    0    0  501 -0.00000000000E+00  0.00000000000E+00  0.10483379623E+04  0.10483379623E+04  0.00000000000E+00 0.  1.
          2   -1    0    0  501    0  0.00000000000E+00 -0.00000000000E+00 -0.45674646153E+03  0.45674646153E+03  0.00000000000E+00 0. -1.
         23    2    1    2    0    0 -0.24020726351E+03  0.20597973297E+03  0.42063073444E+03  0.53421993996E+03  0.91288277781E+02 0.  0.
        254    2    1    2    0    0  0.24020726351E+03 -0.20597973297E+03  0.17096076630E+03  0.97086448384E+03  0.90178882369E+03 0.  0.
        -24    2    4    4    0    0  0.39213083632E+03 -0.56664621858E+01  0.43977480644E+03  0.59441596475E+03  0.78292765884E+02 0.  0.
         24    2    4    4    0    0 -0.15192357281E+03 -0.20031327078E+03 -0.26881404014E+03  0.37644851909E+03  0.79033669569E+02 0.  0.
         11    1    3    3    0    0 -0.11072313711E+03  0.14331914671E+03  0.27691926493E+03  0.33088407365E+03  0.00000000000E+00 0.  1.
        -11    1    3    3    0    0 -0.12948412640E+03  0.62660586255E+02  0.14371146951E+03  0.20333586631E+03  0.00000000000E+00 0. -1.
          4    1    6    6  502    0 -0.45085263253E+02 -0.19167593394E+02 -0.26858931035E+02  0.55870204720E+02  0.00000000000E+00 0. -1.
          1    1    5    5  503    0  0.16515842099E+02 -0.14518375107E+02  0.11935375691E+02  0.25020180832E+02  0.00000000000E+00 0. -1.
         -2    1    5    5    0  503  0.37561499422E+03  0.88519129211E+01  0.42783943075E+03  0.56939578392E+03  0.00000000000E+00 0.  1.
         -1    1    6    6    0  502 -0.10683830955E+03 -0.18114567739E+03 -0.24195510910E+03  0.32057831437E+03  0.00000000000E+00 0.  1.
<mgrwt>
<rscale>  0 0.13839431E+04</rscale>
<asrwt>0</asrwt>
<pdfrwt beam="1">  1        2 0.70268687E-01 0.13839431E+04</pdfrwt>
<pdfrwt beam="2">  1       -2 0.16128276E+00 0.13839431E+04</pdfrwt>
<totfact> 0.16402154E+01</totfact>
</mgrwt>
</event>
<event>
12    1  0.1504874E-007  0.1981166E+04  0.7818608E-02  0.8615477E-01
         -1   -1    0    0    0  501 -0.00000000000E+00  0.00000000000E+00  0.86760814968E+03  0.86760814968E+03  0.00000000000E+00 0.  1.
          1   -1    0    0  501    0  0.00000000000E+00 -0.00000000000E+00 -0.11309879617E+04  0.11309879617E+04  0.00000000000E+00 0. -1.
         23    2    1    2    0    0  0.32730656955E+03  0.12117667004E+03  0.58542198965E+03  0.68777027068E+03  0.92171923271E+02 0.  0.
        254    2    1    2    0    0 -0.32730656955E+03 -0.12117667004E+03 -0.84880180170E+03  0.13108258407E+04  0.93594151011E+03 0.  0.
        -24    2    4    4    0    0 -0.28986821253E+03 -0.11032418727E+03  0.11704906761E+03  0.34090388737E+03  0.79498234354E+02 0.  0.
         24    2    4    4    0    0 -0.37438357020E+02 -0.10852482770E+02 -0.96585086932E+03  0.96992195337E+03  0.79757676179E+02 0.  0.
         11    1    3    3    0    0  0.19030116827E+03  0.47699735982E+02  0.40206288440E+03  0.44737496853E+03  0.00000000000E+00 0. -1.
        -11    1    3    3    0    0  0.13700540128E+03  0.73476934059E+02  0.18335910525E+03  0.24039530215E+03  0.00000000000E+00 0.  1.
          4    1    6    6  502    0 -0.21208469869E+02 -0.21032280707E+02 -0.91644473051E+03  0.91693134973E+03  0.00000000000E+00 0. -1.
          1    1    5    5  503    0 -0.98796426530E+02 -0.20920482767E+02  0.28598580725E+01  0.10102761643E+03  0.00000000000E+00 0. -1.
         -2    1    5    5    0  503 -0.19107178600E+03 -0.89403704504E+02  0.11418920954E+03  0.23987627094E+03  0.00000000000E+00 0.  1.
         -3    1    6    6    0  502 -0.16229887151E+02  0.10179797937E+02 -0.49406138804E+02  0.52990603644E+02  0.00000000000E+00 0.  1.
<mgrwt>
<rscale>  0 0.19811657E+04</rscale>
<asrwt>0</asrwt>
<pdfrwt beam="1">  1        1 0.17399815E+00 0.19811657E+04</pdfrwt>
<pdfrwt beam="2">  1       -1 0.13347818E+00 0.19811657E+04</pdfrwt>
<totfact> 0.52957821E+00</totfact>
</mgrwt>
</event>
<event>
12    1  0.1504874E-007  0.1501584E+04  0.7818608E-02  0.8883400E-01
          2   -1    0    0  501    0  0.00000000000E+00  0.00000000000E+00  0.40522470059E+03  0.40522470059E+03  0.00000000000E+00 0. -1.
         -2   -1    0    0    0  501 -0.00000000000E+00 -0.00000000000E+00 -0.13910519170E+04  0.13910519170E+04  0.00000000000E+00 0.  1.
         23    2    1    2    0    0 -0.31926131856E+03  0.31477638728E+03 -0.17105969588E+03  0.48879732993E+03  0.93002401405E+02 0.  0.
        254    2    1    2    0    0  0.31926131856E+03 -0.31477638728E+03 -0.81476752051E+03  0.13074792876E+04  0.91904516299E+03 0.  0.
        -24    2    4    4    0    0 -0.18674624271E+03 -0.40519274950E+03 -0.18244630712E+03  0.48863114619E+03  0.80115033727E+02 0.  0.
         24    2    4    4    0    0  0.50600756127E+03  0.90416362215E+02 -0.63232121339E+03  0.81884814145E+03  0.80395219015E+02 0.  0.
         13    1    3    3    0    0 -0.12700234791E+03  0.17078329191E+03 -0.45038514338E+02  0.21754309215E+03  0.00000000000E+00 0. -1.
        -13    1    3    3    0    0 -0.19225897065E+03  0.14399309537E+03 -0.12602118155E+03  0.27125423777E+03  0.00000000000E+00 0.  1.
          4    1    6    6  502    0  0.19665684735E+03  0.63756547065E+02 -0.29678225503E+03  0.36168842918E+03  0.00000000000E+00 0. -1.
          1    1    5    5  503    0 -0.54969454201E+02 -0.19846652519E+03 -0.59423336418E+02  0.21434023287E+03  0.00000000000E+00 0. -1.
         -2    1    5    5    0  503 -0.13177678851E+03 -0.20672622431E+03 -0.12302297070E+03  0.27429091332E+03  0.00000000000E+00 0.  1.
         -3    1    6    6    0  502  0.30935071393E+03  0.26659815150E+02 -0.33553895836E+03  0.45715971228E+03  0.00000000000E+00 0.  1.
<mgrwt>
<rscale>  0 0.15015840E+04</rscale>
<asrwt>0</asrwt>
<pdfrwt beam="1">  1        2 0.62342262E-01 0.15015840E+04</pdfrwt>
<pdfrwt beam="2">  1       -2 0.21400799E+00 0.15015840E+04</pdfrwt>
<totfact> 0.81634015E+00</totfact>
</mgrwt>
</event>
<event>
12    1  0.1504874E-007  0.1901563E+04  0.7818608E-02  0.8654079E-01
          2   -1    0    0  501    0  0.00000000000E+00  0.00000000000E+00  0.10707187536E+04  0.10707187536E+04  0.00000000000E+00 0. -1.
         -2   -1    0    0    0  501 -0.00000000000E+00 -0.00000000000E+00 -0.84427893121E+03  0.84427893121E+03  0.00000000000E+00 0.  1.
         23    2    1    2    0    0  0.61091095915E+02  0.43633080802E+03  0.67847690256E+03  0.81426895394E+03  0.92662430457E+02 0.  0.
        254    2    1    2    0    0 -0.61091095915E+02 -0.43633080802E+03 -0.45203708022E+03  0.11007287308E+04  0.90174803629E+03 0.  0.
        -24    2    4    4    0    0 -0.12040166714E+03  0.86364669908E+02 -0.53559737656E+03  0.56149973632E+03  0.80386481802E+02 0.  0.
         24    2    4    4    0    0  0.59310571227E+02 -0.52269547793E+03  0.83560296341E+02  0.53922899450E+03  0.84007612035E+02 0.  0.
         11    1    3    3    0    0 -0.38829497520E+01  0.37179725387E+02  0.11331668326E+03  0.11932342596E+03  0.00000000000E+00 0.  1.
        -11    1    3    3    0    0  0.64974045667E+02  0.39915108263E+03  0.56516021930E+03  0.69494552798E+03  0.00000000000E+00 0. -1.
          2    1    6    6  502    0  0.46568798651E+02 -0.30466276637E+03  0.86094245404E+01  0.30832154711E+03  0.00000000000E+00 0. -1.
          3    1    5    5  503    0 -0.12644983740E+03  0.89750437176E+02 -0.53101099999E+03  0.55318838063E+03  0.00000000000E+00 0. -1.
         -4    1    5    5    0  503  0.60481702571E+01 -0.33857672676E+01 -0.45863765647E+01  0.83113556922E+01  0.00000000000E+00 0.  1.
         -1    1    6    6    0  502  0.12741772577E+02 -0.21803271155E+03  0.74950871801E+02  0.23090744739E+03  0.00000000000E+00 0.  1.
<mgrwt>
<rscale>  0 0.19015628E+04</rscale>
<asrwt>0</asrwt>
<pdfrwt beam="1">  1        2 0.16472596E+00 0.19015628E+04</pdfrwt>
<pdfrwt beam="2">  1       -2 0.12988907E+00 0.19015628E+04</pdfrwt>
<totfact> 0.92601001E+00</totfact>
</mgrwt>
</event>
<event>
12    1  0.1504874E-007  0.1689627E+04  0.7818608E-02  0.8767303E-01
          1   -1    0    0  501    0  0.00000000000E+00  0.00000000000E+00  0.17926729510E+04  0.17926729510E+04  0.00000000000E+00 0. -1.
         -1   -1    0    0    0  501 -0.00000000000E+00 -0.00000000000E+00 -0.39812587093E+03  0.39812587093E+03  0.00000000000E+00 0.  1.
         23    2    1    2    0    0 -0.14985061476E+03  0.32814891176E+03  0.11161415234E+04  0.11767740008E+04  0.94277429769E+02 0.  0.
        254    2    1    2    0    0  0.14985061476E+03 -0.32814891176E+03  0.27840555668E+03  0.10140248211E+04  0.90586962019E+03 0.  0.
        -24    2    4    4    0    0  0.10436828098E+02  0.13980372849E+03  0.45988758751E+03  0.48746838762E+03  0.80466302859E+02 0.  0.
         24    2    4    4    0    0  0.13941378666E+03 -0.46795264025E+03 -0.18148203083E+03  0.52655643348E+03  0.76876997189E+02 0.  0.
         13    1    3    3    0    0 -0.20904740425E+02  0.49064786699E+01  0.35622412104E+02  0.41593724878E+02  0.00000000000E+00 0.  1.
        -13    1    3    3    0    0 -0.12894587433E+03  0.32324243309E+03  0.10805191113E+04  0.11351802759E+04  0.00000000000E+00 0. -1.
          4    1    6    6  502    0  0.82753027098E+01 -0.19288364781E+01  0.21690522313E+01  0.87695970648E+01  0.00000000000E+00 0. -1.
          3    1    5    5  503    0 -0.24797446781E+02  0.20397472157E+02  0.15216603767E+03  0.15551679414E+03  0.00000000000E+00 0. -1.
         -4    1    5    5    0  503  0.35234274879E+02  0.11940625634E+03  0.30772154984E+03  0.33195159348E+03  0.00000000000E+00 0.  1.
         -3    1    6    6    0  502  0.13113848395E+03 -0.46602380377E+03 -0.18365108306E+03  0.51778683642E+03  0.00000000000E+00 0.  1.
<mgrwt>
<rscale>  0 0.16896266E+04</rscale>
<asrwt>0</asrwt>
<pdfrwt beam="1">  1        1 0.27579583E+00 0.16896266E+04</pdfrwt>
<pdfrwt beam="2">  1       -1 0.61250135E-01 0.16896266E+04</pdfrwt>
<totfact> 0.10611513E+01</totfact>
</mgrwt>
</event>
<event>
12    1  0.1504874E-007  0.2090380E+04  0.7818608E-02  0.8565493E-01
          2   -1    0    0  501    0  0.00000000000E+00  0.00000000000E+00  0.21042305987E+04  0.21042305987E+04  0.00000000000E+00 0. -1.
         -2   -1    0    0    0  501 -0.00000000000E+00 -0.00000000000E+00 -0.51915491543E+03  0.51915491543E+03  0.00000000000E+00 0.  1.
         23    2    1    2    0    0  0.31396979247E+03 -0.28507836169E+03  0.15633704858E+04  0.16223441876E+04  0.89591764132E+02 0.  0.
        254    2    1    2    0    0 -0.31396979247E+03  0.28507836169E+03  0.21705197489E+02  0.10010413266E+04  0.90651305508E+03 0.  0.
        -24    2    4    4    0    0  0.97677777621E+02  0.40447707658E+03 -0.24464851323E+03  0.49018875775E+03  0.85378390007E+02 0.  0.
         24    2    4    4    0    0 -0.41164757009E+03 -0.11939871489E+03  0.26635371072E+03  0.51085256883E+03  0.79474982152E+02 0.  0.
         13    1    3    3    0    0  0.25258130462E+03 -0.26965276982E+03  0.13009790022E+04  0.13524260778E+04  0.00000000000E+00 0. -1.
        -13    1    3    3    0    0  0.61388487853E+02 -0.15425591866E+02  0.26239148358E+03  0.26991810977E+03  0.00000000000E+00 0.  1.
          2    1    6    6  502    0 -0.24554357689E+03 -0.11137508873E+03  0.16484396107E+03  0.31602150250E+03  0.00000000000E+00 0. -1.
          1    1    5    5  503    0  0.64110616229E+02  0.35871451430E+03 -0.18814378758E+03  0.41010286354E+03  0.00000000000E+00 0. -1.
         -2    1    5    5    0  503  0.33567161392E+02  0.45762562284E+02 -0.56504725647E+02  0.80085894208E+02  0.00000000000E+00 0.  1.
         -1    1    6    6    0  502 -0.16610399320E+03 -0.80236261654E+01  0.10150974965E+03  0.19483106633E+03  0.00000000000E+00 0.  1.
<mgrwt>
<rscale>  0 0.20903795E+04</rscale>
<asrwt>0</asrwt>
<pdfrwt beam="1">  1        2 0.32372778E+00 0.20903795E+04</pdfrwt>
<pdfrwt beam="2">  1       -2 0.79869988E-01 0.20903795E+04</pdfrwt>
<totfact> 0.74768458E+00</totfact>
</mgrwt>
</event>
<event>
12    1  0.1504874E-007  0.1788845E+04  0.7818608E-02  0.8712254E-01
         -2   -1    0    0    0  501 -0.00000000000E+00  0.00000000000E+00  0.33431094034E+03  0.33431094034E+03  0.00000000000E+00 0.  1.
          2   -1    0    0  501    0  0.00000000000E+00 -0.00000000000E+00 -0.23929554852E+04  0.23929554852E+04  0.00000000000E+00 0. -1.
         23    2    1    2    0    0  0.40315666108E+03 -0.43728908858E+03 -0.12095497023E+04  0.13510018161E+04  0.91860680460E+02 0.  0.
        254    2    1    2    0    0 -0.40315666108E+03  0.43728908858E+03 -0.84909484264E+03  0.13762646094E+04  0.90519897427E+03 0.  0.
        -24    2    4    4    0    0 -0.24410711965E+03  0.84686726757E+02  0.14458418098E+03  0.30694777851E+03  0.80945820080E+02 0.  0.
         24    2    4    4    0    0 -0.15904954143E+03  0.35260236182E+03 -0.99367902362E+03  0.10693168309E+04  0.80095572435E+02 0.  0.
         13    1    3    3    0    0  0.72563829152E+02 -0.44355522851E+02 -0.12714445410E+03  0.15296612016E+03  0.00000000000E+00 0.  1.
        -13    1    3    3    0    0  0.33059283193E+03 -0.39293356573E+03 -0.10824052482E+04  0.11980356960E+04  0.00000000000E+00 0. -1.
          2    1    6    6  502    0  0.86861650014E+01  0.10533946036E+02 -0.43972046990E+02  0.46042962524E+02  0.00000000000E+00 0. -1.
          3    1    5    5  503    0 -0.20555363192E+02  0.90039027059E+01  0.45977278526E+02  0.51161541812E+02  0.00000000000E+00 0. -1.
         -4    1    5    5    0  503 -0.22355175645E+03  0.75682824051E+02  0.98606902457E+02  0.25578623669E+03  0.00000000000E+00 0.  1.
         -1    1    6    6    0  502 -0.16773570643E+03  0.34206841578E+03 -0.94970697663E+03  0.10232738684E+04  0.00000000000E+00 0.  1.
<mgrwt>
<rscale>  0 0.17888445E+04</rscale>
<asrwt>0</asrwt>
<pdfrwt beam="1">  1        2 0.36814700E+00 0.17888445E+04</pdfrwt>
<pdfrwt beam="2">  1       -2 0.51432452E-01 0.17888445E+04</pdfrwt>
<totfact> 0.13552868E+01</totfact>
</mgrwt>
</event>
<event>
12    1  0.1504874E-007  0.1187000E+04  0.7818608E-02  0.9124313E-01
         -1   -1    0    0    0  501 -0.00000000000E+00  0.00000000000E+00  0.57654678349E+03  0.57654678349E+03  0.00000000000E+00 0.  1.
          1   -1    0    0  501    0  0.00000000000E+00 -0.00000000000E+00 -0.61095125305E+03  0.61095125305E+03  0.00000000000E+00 0. -1.
         23    2    1    2    0    0 -0.10918055870E+03 -0.32561610552E+01 -0.21762410002E+03  0.25904648599E+03  0.88395904957E+02 0.  0.
        254    2    1    2    0    0  0.10918055870E+03  0.32561610552E+01  0.18321963045E+03  0.92845155055E+03  0.90361598688E+03 0.  0.
        -24    2    4    4    0    0 -0.20777276423E+03 -0.13867591243E+03  0.42413013298E+03  0.49876099820E+03  0.80471320199E+02 0.  0.
         24    2    4    4    0    0  0.31695332293E+03  0.14193207349E+03 -0.24091050253E+03  0.42969055235E+03  0.77407868787E+02 0.  0.
         13    1    3    3    0    0 -0.85913053912E+02 -0.40869227211E+02 -0.16332472263E+03  0.18901405130E+03  0.00000000000E+00 0. -1.
        -13    1    3    3    0    0 -0.23267504790E+02  0.37613066155E+02 -0.54299377387E+02  0.70032434695E+02  0.00000000000E+00 0.  1.
          4    1    6    6  502    0  0.95454930685E+02  0.59211525627E+02 -0.39428410057E+02  0.11904725145E+03  0.00000000000E+00 0. -1.
          3    1    5    5  503    0  0.81308751411E+00  0.71689133964E+01  0.66348709722E+01  0.98018336758E+01  0.00000000000E+00 0. -1.
         -4    1    5    5    0  503 -0.20858585174E+03 -0.14584482583E+03  0.41749526201E+03  0.48895916452E+03  0.00000000000E+00 0.  1.
         -3    1    6    6    0  502  0.22149839225E+03  0.82720547861E+02 -0.20148209247E+03  0.31064330090E+03  0.00000000000E+00 0.  1.
<mgrwt>
<rscale>  0 0.11869995E+04</rscale>
<asrwt>0</asrwt>
<pdfrwt beam="1">  1        1 0.93992501E-01 0.11869995E+04</pdfrwt>
<pdfrwt beam="2">  1       -1 0.88699505E-01 0.11869995E+04</pdfrwt>
<totfact> 0.41245500E+01</totfact>
</mgrwt>
</event>
<event>
12    1  0.1504874E-007  0.1196537E+04  0.7818608E-02  0.9115893E-01
          2   -1    0    0  501    0  0.00000000000E+00  0.00000000000E+00  0.15743558732E+04  0.15743558732E+04  0.00000000000E+00 0. -1.
         -2   -1    0    0    0  501 -0.00000000000E+00 -0.00000000000E+00 -0.22734696898E+03  0.22734696898E+03  0.00000000000E+00 0.  1.
         23    2    1    2    0    0  0.13696228752E+03  0.27838200541E+02 -0.10646955286E+02  0.16814964202E+03  0.92883318422E+02 0.  0.
        254    2    1    2    0    0 -0.13696228752E+03 -0.27838200541E+02  0.13576558595E+04  0.16335532001E+04  0.89762630939E+03 0.  0.
        -24    2    4    4    0    0 -0.23176743060E+03 -0.99103873867E+02 -0.34243755770E+01  0.26495557817E+03  0.81559869759E+02 0.  0.
         24    2    4    4    0    0  0.94805143078E+02  0.71265673326E+02  0.13610802351E+04  0.13685976220E+04  0.80332018841E+02 0.  0.
         11    1    3    3    0    0  0.79505028658E+01  0.36666496430E+02 -0.10024351618E+02  0.38834650528E+02  0.00000000000E+00 0. -1.
        -11    1    3    3    0    0  0.12901178466E+03 -0.88282958889E+01 -0.62260366763E+00  0.12931499149E+03  0.00000000000E+00 0.  1.
          2    1    6    6  502    0  0.57648577315E+01 -0.11066384341E+02  0.38554377200E+02  0.40523307470E+02  0.00000000000E+00 0. -1.
          1    1    5    5  503    0 -0.30083106787E+02  0.14563819824E+02 -0.28637336997E+00  0.33424245265E+02  0.00000000000E+00 0. -1.
         -2    1    5    5    0  503 -0.20168432381E+03 -0.11366769369E+03 -0.31380022070E+01  0.23153133291E+03  0.00000000000E+00 0.  1.
         -1    1    6    6    0  502  0.89040285346E+02  0.82332057667E+02  0.13225258579E+04  0.13280743145E+04  0.00000000000E+00 0.  1.
<mgrwt>
<rscale>  0 0.11965367E+04</rscale>
<asrwt>0</asrwt>
<pdfrwt beam="1">  1        2 0.24220859E+00 0.11965367E+04</pdfrwt>
<pdfrwt beam="2">  1       -2 0.34976458E-01 0.11965367E+04</pdfrwt>
<totfact> 0.87227825E+01</totfact>
</mgrwt>
</event>
<event>
12    1  0.1504874E-007  0.1487904E+04  0.7818608E-02  0.8892536E-01
         -2   -1    0    0    0  501 -0.00000000000E+00  0.00000000000E+00  0.32903833480E+03  0.32903833480E+03  0.00000000000E+00 0.  1.
          2   -1    0    0  501    0  0.00000000000E+00 -0.00000000000E+00 -0.16820681371E+04  0.16820681371E+04  0.00000000000E+00 0. -1.
         23    2    1    2    0    0  0.43224835287E+03 -0.14608944663E+03 -0.57268250803E+03  0.73842509630E+03  0.95528021385E+02 0.  0.
        254    2    1    2    0    0 -0.43224835287E+03  0.14608944663E+03 -0.78034729428E+03  0.12726813756E+04  0.89587678793E+03 0.  0.
        -24    2    4    4    0    0 -0.19590393787E+03 -0.36917986898E+03 -0.25507392795E+03  0.49595995658E+03  0.79002792855E+02 0.  0.
         24    2    4    4    0    0 -0.23634441500E+03  0.51526931561E+03 -0.52527336633E+03  0.77672141903E+03  0.77607366243E+02 0.  0.
         13    1    3    3    0    0  0.82239530015E+02 -0.45006139932E+02 -0.17883542879E+03  0.20191830902E+03  0.00000000000E+00 0. -1.
        -13    1    3    3    0    0  0.35000882286E+03 -0.10108330670E+03 -0.39384707924E+03  0.53650678728E+03  0.00000000000E+00 0.  1.
          2    1    6    6  502    0 -0.17017000093E+03  0.32728141088E+03 -0.38372494536E+03  0.53227416320E+03  0.00000000000E+00 0. -1.
          3    1    5    5  503    0 -0.74590899470E+02 -0.18839540633E+03 -0.85178262848E+02  0.21979983592E+03  0.00000000000E+00 0. -1.
         -4    1    5    5    0  503 -0.12131303840E+03 -0.18078446265E+03 -0.16989566510E+03  0.27616012066E+03  0.00000000000E+00 0.  1.
         -1    1    6    6    0  502 -0.66174414079E+02  0.18798790473E+03 -0.14154842097E+03  0.24444725583E+03  0.00000000000E+00 0.  1.
<mgrwt>
<rscale>  0 0.14879044E+04</rscale>
<asrwt>0</asrwt>
<pdfrwt beam="1">  1        2 0.25877971E+00 0.14879044E+04</pdfrwt>
<pdfrwt beam="2">  1       -2 0.50621283E-01 0.14879044E+04</pdfrwt>
<totfact> 0.35803423E+01</totfact>
</mgrwt>
</event>
<event>
12    1  0.1504874E-007  0.1234420E+04  0.7818608E-02  0.9083251E-01
          1   -1    0    0  501    0  0.00000000000E+00  0.00000000000E+00  0.18560003765E+04  0.18560003765E+04  0.00000000000E+00 0. -1.
         -1   -1    0    0    0  501 -0.00000000000E+00 -0.00000000000E+00 -0.20525236568E+03  0.20525236568E+03  0.00000000000E+00 0.  1.
         23    2    1    2    0    0  0.23746934929E+03  0.77219813605E+02  0.10784511809E+03  0.28743088254E+03  0.92905065933E+02 0.  0.
        254    2    1    2    0    0 -0.23746934929E+03 -0.77219813605E+02  0.15429028927E+04  0.17738218596E+04  0.83877295013E+03 0.  0.
        -24    2    4    4    0    0  0.28936511788E+02 -0.33301950050E+03  0.25019232754E+03  0.42640894081E+03  0.86539439684E+02 0.  0.
         24    2    4    4    0    0 -0.26640586108E+03  0.25579968689E+03  0.12927105652E+04  0.13474129188E+04  0.89528798777E+02 0.  0.
         13    1    3    3    0    0  0.52372802172E+02  0.45753147099E+02 -0.26204503125E+01  0.69592583201E+02  0.00000000000E+00 0. -1.
        -13    1    3    3    0    0  0.18509654712E+03  0.31466666506E+02  0.11046556840E+03  0.21783829934E+03  0.00000000000E+00 0.  1.
          2    1    6    6  502    0 -0.55859669144E+01  0.12662777982E+02  0.13121319291E+02  0.19071391992E+02  0.00000000000E+00 0. -1.
          3    1    5    5  503    0 -0.26095445336E+02 -0.70484263773E+02  0.37042153306E+02  0.83792152547E+02  0.00000000000E+00 0. -1.
         -4    1    5    5    0  503  0.55031957124E+02 -0.26253523673E+03  0.21315017423E+03  0.34261678827E+03  0.00000000000E+00 0.  1.
         -1    1    6    6    0  502 -0.26081989417E+03  0.24313690891E+03  0.12795892459E+04  0.13283415268E+04  0.00000000000E+00 0.  1.
<mgrwt>
<rscale>  0 0.12344205E+04</rscale>
<asrwt>0</asrwt>
<pdfrwt beam="1">  1        1 0.28553851E+00 0.12344205E+04</pdfrwt>
<pdfrwt beam="2">  1       -1 0.31577288E-01 0.12344205E+04</pdfrwt>
<totfact> 0.34379831E+01</totfact>
</mgrwt>
</event>
<event>
12    1  0.1504874E-007  0.1563635E+04  0.7818608E-02  0.8843205E-01
          2   -1    0    0  501    0  0.00000000000E+00  0.00000000000E+00  0.42424178602E+03  0.42424178602E+03  0.00000000000E+00 0. -1.
         -2   -1    0    0    0  501 -0.00000000000E+00 -0.00000000000E+00 -0.14407781269E+04  0.14407781269E+04  0.00000000000E+00 0.  1.
         23    2    1    2    0    0  0.41674399879E+03  0.51198252526E+02 -0.71801489970E+03  0.83671831323E+03  0.90858780091E+02 0.  0.
        254    2    1    2    0    0 -0.41674399879E+03 -0.51198252526E+02 -0.29852144121E+03  0.10283015997E+04  0.88993949656E+03 0.  0.
        -24    2    4    4    0    0 -0.28029809045E+03 -0.13014269720E+03 -0.59951574972E+03  0.67930453259E+03  0.80816908445E+02 0.  0.
         24    2    4    4    0    0 -0.13644590834E+03  0.78944444671E+02  0.30099430851E+03  0.34899706713E+03  0.79697351672E+02 0.  0.
         11    1    3    3    0    0  0.74624438270E+02  0.19969570213E+02 -0.74911815358E+02  0.10760748395E+03  0.00000000000E+00 0. -1.
        -11    1    3    3    0    0  0.34211956052E+03  0.31228682312E+02 -0.64310308434E+03  0.72911082928E+03  0.00000000000E+00 0.  1.
          2    1    6    6  502    0 -0.12329877873E+03  0.94737385475E+02  0.25582177068E+03  0.29937023800E+03  0.00000000000E+00 0. -1.
          1    1    5    5  503    0 -0.19868173381E+03 -0.10912545559E+03 -0.49940499764E+03  0.54844156304E+03  0.00000000000E+00 0. -1.
         -2    1    5    5    0  503 -0.81616356641E+02 -0.21017241608E+02 -0.10011075208E+03  0.13086296955E+03  0.00000000000E+00 0.  1.
         -1    1    6    6    0  502 -0.13147129613E+02 -0.15792940804E+02  0.45172537827E+02  0.49626829135E+02  0.00000000000E+00 0.  1.
<mgrwt>
<rscale>  0 0.15636346E+04</rscale>
<asrwt>0</asrwt>
<pdfrwt beam="1">  1        2 0.65267968E-01 0.15636346E+04</pdfrwt>
<pdfrwt beam="2">  1       -2 0.22165817E+00 0.15636346E+04</pdfrwt>
<totfact> 0.68966260E+00</totfact>
</mgrwt>
</event>
<event>
12    1  0.1504874E-007  0.2336818E+04  0.7818608E-02  0.8463544E-01
         -2   -1    0    0    0  501 -0.00000000000E+00  0.00000000000E+00  0.46728746261E+03  0.46728746261E+03  0.00000000000E+00 0.  1.
          2   -1    0    0  501    0  0.00000000000E+00 -0.00000000000E+00 -0.29214976291E+04  0.29214976291E+04  0.00000000000E+00 0. -1.
         23    2    1    2    0    0  0.47729876052E+03  0.46369584928E+03 -0.21227537240E+04  0.22270387054E+04  0.10387528563E+03 0.  0.
        254    2    1    2    0    0 -0.47729876052E+03 -0.46369584928E+03 -0.33145644250E+03  0.11617463864E+04  0.89272803559E+03 0.  0.
        -24    2    4    4    0    0 -0.28230068520E+03  0.23264777835E+03 -0.19077349684E+03  0.42054837494E+03  0.81533692002E+02 0.  0.
         24    2    4    4    0    0 -0.19499807532E+03 -0.69634362763E+03 -0.14068294567E+03  0.74119801143E+03  0.81633962443E+02 0.  0.
         11    1    3    3    0    0  0.59669037950E+01  0.31299117862E+02 -0.69321102462E+02  0.76293210487E+02  0.00000000000E+00 0.  1.
        -11    1    3    3    0    0  0.47133185672E+03  0.43239673141E+03 -0.20534326216E+04  0.21507454949E+04  0.00000000000E+00 0. -1.
          4    1    6    6  502    0 -0.53258847545E+02 -0.32939050633E+03 -0.80539796973E+02  0.34325102971E+03  0.00000000000E+00 0. -1.
          1    1    5    5  503    0 -0.23902968057E+03  0.18989744138E+03 -0.12205545783E+03  0.32877615671E+03  0.00000000000E+00 0. -1.
         -2    1    5    5    0  503 -0.43271004623E+02  0.42750336976E+02 -0.68718039009E+02  0.91772218225E+02  0.00000000000E+00 0.  1.
         -3    1    6    6    0  502 -0.14173922777E+03 -0.36695312130E+03 -0.60143148695E+02  0.39794698172E+03  0.00000000000E+00 0.  1.
<mgrwt>
<rscale>  0 0.23368177E+04</rscale>
<asrwt>0</asrwt>
<pdfrwt beam="1">  1        2 0.44946117E+00 0.23368177E+04</pdfrwt>
<pdfrwt beam="2">  1       -2 0.71890380E-01 0.23368177E+04</pdfrwt>
<totfact> 0.30898936E+00</totfact>
</mgrwt>
</event>
<event>
12    1  0.1504874E-007  0.3635264E+04  0.7818608E-02  0.8082462E-01
         -2   -1    0    0    0  501 -0.00000000000E+00  0.00000000000E+00  0.18880014198E+04  0.18880014198E+04  0.00000000000E+00 0.  1.
          2   -1    0    0  501    0  0.00000000000E+00 -0.00000000000E+00 -0.17498851383E+04  0.17498851383E+04  0.00000000000E+00 0. -1.
         23    2    1    2    0    0 -0.38916460000E+02  0.29420789750E+03  0.17454373341E+04  0.17728294212E+04  0.91103739898E+02 0.  0.
        254    2    1    2    0    0  0.38916460000E+02 -0.29420789750E+03 -0.16073210526E+04  0.18650571370E+04  0.89826743241E+03 0.  0.
        -24    2    4    4    0    0 -0.21482513202E+03 -0.29471987491E+02 -0.17092846893E+02  0.23117496831E+03  0.78302395632E+02 0.  0.
         24    2    4    4    0    0  0.25374159202E+03 -0.26473591001E+03 -0.15902282057E+04  0.16338821687E+04  0.79216773418E+02 0.  0.
         11    1    3    3    0    0 -0.61254945108E+02  0.21083656331E+03  0.11048679636E+04  0.11264712343E+04  0.00000000000E+00 0.  1.
        -11    1    3    3    0    0  0.22338485107E+02  0.83371334193E+02  0.64056937049E+03  0.64635818683E+03  0.00000000000E+00 0. -1.
          2    1    6    6  502    0  0.21424122022E+03 -0.25754558537E+03 -0.14174857928E+04  0.14565352730E+04  0.00000000000E+00 0. -1.
          1    1    5    5  503    0 -0.10949291045E+03 -0.61554618375E+00  0.28000839327E+02  0.11301824339E+03  0.00000000000E+00 0. -1.
         -2    1    5    5    0  503 -0.10533222157E+03 -0.28856441307E+02 -0.45093686220E+02  0.11815672492E+03  0.00000000000E+00 0.  1.
         -1    1    6    6    0  502  0.39500371800E+02 -0.71903246462E+01 -0.17274241298E+03  0.17734689561E+03  0.00000000000E+00 0.  1.
<mgrwt>
<rscale>  0 0.36352637E+04</rscale>
<asrwt>0</asrwt>
<pdfrwt beam="1">  1        2 0.26921310E+00 0.36352637E+04</pdfrwt>
<pdfrwt beam="2">  1       -2 0.29046176E+00 0.36352637E+04</pdfrwt>
<totfact> 0.27179301E-01</totfact>
</mgrwt>
</event>
<event>
12    1  0.1504874E-007  0.1573479E+04  0.7818608E-02  0.8837008E-01
          2   -1    0    0  501    0  0.00000000000E+00  0.00000000000E+00  0.10408968867E+04  0.10408968867E+04  0.00000000000E+00 0.  1.
         -2   -1    0    0    0  501 -0.00000000000E+00 -0.00000000000E+00 -0.59464041901E+03  0.59464041901E+03  0.00000000000E+00 0. -1.
         23    2    1    2    0    0 -0.36375160034E+03 -0.32270169561E+03 -0.37304989521E+02  0.49607564760E+03  0.90817260456E+02 0.  0.
        254    2    1    2    0    0  0.36375160034E+03  0.32270169561E+03  0.48356145726E+03  0.11394616582E+04  0.90999427272E+03 0.  0.
        -24    2    4    4    0    0  0.32855612924E+03 -0.21716122197E+03  0.43204716699E+03  0.59019307919E+03  0.80962891650E+02 0.  0.
         24    2    4    4    0    0  0.35195471095E+02  0.53986291758E+03  0.51514290266E+02  0.54926857898E+03  0.79696667340E+02 0.  0.
         11    1    3    3    0    0 -0.10596223335E+03 -0.13654442415E+03  0.16330437443E+02  0.17360604209E+03  0.00000000000E+00 0.  1.
        -11    1    3    3    0    0 -0.25778936699E+03 -0.18615727146E+03 -0.53635426964E+02  0.32246960550E+03  0.00000000000E+00 0. -1.
          4    1    6    6  502    0  0.19611374122E+02  0.52141201089E+03  0.42571540611E+02  0.52351449565E+03  0.00000000000E+00 0. -1.
          1    1    5    5  503    0  0.30995499376E+03 -0.19297802891E+03  0.36374375978E+03  0.51538542914E+03  0.00000000000E+00 0. -1.
         -2    1    5    5    0  503  0.18601135487E+02 -0.24183193064E+02  0.68303407217E+02  0.74807650047E+02  0.00000000000E+00 0.  1.
         -3    1    6    6    0  502  0.15584096974E+02  0.18450906695E+02  0.89427496552E+01  0.25754083322E+02  0.00000000000E+00 0.  1.
<mgrwt>
<rscale>  0 0.15734794E+04</rscale>
<asrwt>0</asrwt>
<pdfrwt beam="1">  1        2 0.16013798E+00 0.15734794E+04</pdfrwt>
<pdfrwt beam="2">  1       -2 0.91483142E-01 0.15734794E+04</pdfrwt>
<totfact> 0.23197655E+01</totfact>
</mgrwt>
</event>
<event>
12    1  0.1504874E-007  0.1426092E+04  0.7818608E-02  0.8935145E-01
         -2   -1    0    0    0  501 -0.00000000000E+00  0.00000000000E+00  0.97927034544E+03  0.97927034544E+03  0.00000000000E+00 0.  1.
          2   -1    0    0  501    0  0.00000000000E+00 -0.00000000000E+00 -0.51919740310E+03  0.51919740310E+03  0.00000000000E+00 0. -1.
         23    2    1    2    0    0 -0.11993946395E+03 -0.25407595244E+03 -0.19063410924E+03  0.35153926167E+03  0.91095687441E+02 0.  0.
        254    2    1    2    0    0  0.11993946395E+03  0.25407595244E+03  0.65070705158E+03  0.11469284869E+04  0.90171238341E+03 0.  0.
        -24    2    4    4    0    0  0.35476928453E+03 -0.20364123722E+03  0.35968293885E+03  0.55029805856E+03  0.78263260977E+02 0.  0.
         24    2    4    4    0    0 -0.23482982058E+03  0.45771718966E+03  0.29102411273E+03  0.59663042830E+03  0.81380362788E+02 0.  0.
         11    1    3    3    0    0 -0.48087011063E+02 -0.18700700658E+03 -0.98259899670E+02  0.21665407687E+03  0.00000000000E+00 0.  1.
        -11    1    3    3    0    0 -0.71852452884E+02 -0.67068945862E+02 -0.92374209571E+02  0.13488518480E+03  0.00000000000E+00 0. -1.
          4    1    6    6  502    0 -0.20565134012E+03  0.44026135736E+03  0.26277297831E+03  0.55242390843E+03  0.00000000000E+00 0. -1.
          1    1    5    5  503    0  0.33282698153E+03 -0.20973497900E+03  0.34459875995E+03  0.52298266358E+03  0.00000000000E+00 0. -1.
         -2    1    5    5    0  503  0.21942303000E+02  0.60937417818E+01  0.15084178897E+02  0.27315394979E+02  0.00000000000E+00 0.  1.
         -3    1    6    6    0  502 -0.29178480464E+02  0.17455832298E+02  0.28251134420E+02  0.44206519874E+02  0.00000000000E+00 0.  1.
<mgrwt>
<rscale>  0 0.14260920E+04</rscale>
<asrwt>0</asrwt>
<pdfrwt beam="1">  1        2 0.79876524E-01 0.14260920E+04</pdfrwt>
<pdfrwt beam="2">  1       -2 0.15065698E+00 0.14260920E+04</pdfrwt>
<totfact> 0.16939046E+01</totfact>
</mgrwt>
</event>
<event>
12    1  0.1504874E-007  0.1141948E+04  0.7818608E-02  0.9165245E-01
          1   -1    0    0  501    0  0.00000000000E+00  0.00000000000E+00  0.72023793901E+03  0.72023793901E+03  0.00000000000E+00 0. -1.
         -1   -1    0    0    0  501 -0.00000000000E+00 -0.00000000000E+00 -0.45264353784E+03  0.45264353784E+03  0.00000000000E+00 0.  1.
         23    2    1    2    0    0 -0.54077766612E+02  0.84310888467E+02 -0.11804614481E+03  0.17877647448E+03  0.89405843027E+02 0.  0.
        254    2    1    2    0    0  0.54077766612E+02 -0.84310888467E+02  0.38564054598E+03  0.99410500236E+03  0.91076527946E+03 0.  0.
        -24    2    4    4    0    0 -0.27369614181E+03 -0.25210909135E+03  0.47411370822E+03  0.60784731937E+03  0.78904900719E+02 0.  0.
         24    2    4    4    0    0  0.32777390843E+03  0.16779820288E+03 -0.88473162245E+02  0.38625768299E+03  0.75996876899E+02 0.  0.
         13    1    3    3    0    0 -0.10401529015E+02  0.31692728965E+02  0.89532212060E+01  0.34536662333E+02  0.00000000000E+00 0. -1.
        -13    1    3    3    0    0 -0.43676237597E+02  0.52618159502E+02 -0.12699936602E+03  0.14423981215E+03  0.00000000000E+00 0.  1.
          2    1    6    6  502    0  0.21332009014E+03  0.13783162922E+03 -0.85255873055E+02  0.26790218880E+03  0.00000000000E+00 0. -1.
          3    1    5    5  503    0 -0.13704457922E+03 -0.17888999755E+03  0.28250493116E+03  0.36137499089E+03  0.00000000000E+00 0. -1.
         -4    1    5    5    0  503 -0.13665156259E+03 -0.73219093805E+02  0.19160877706E+03  0.24647232848E+03  0.00000000000E+00 0.  1.
         -1    1    6    6    0  502  0.11445381828E+03  0.29966573661E+02 -0.32172891901E+01  0.11835549419E+03  0.00000000000E+00 0.  1.
<mgrwt>
<rscale>  0 0.11419475E+04</rscale>
<asrwt>0</asrwt>
<pdfrwt beam="1">  1        1 0.11080584E+00 0.11419475E+04</pdfrwt>
<pdfrwt beam="2">  1       -1 0.69637467E-01 0.11419475E+04</pdfrwt>
<totfact> 0.54064888E+01</totfact>
</mgrwt>
</event>
<event>
12    1  0.1504874E-007  0.1989837E+04  0.7818608E-02  0.8611387E-01
         -2   -1    0    0    0  501 -0.00000000000E+00  0.00000000000E+00  0.46137017560E+03  0.46137017560E+03  0.00000000000E+00 0.  1.
          2   -1    0    0  501    0  0.00000000000E+00 -0.00000000000E+00 -0.21454843401E+04  0.21454843401E+04  0.00000000000E+00 0. -1.
         23    2    1    2    0    0 -0.36455621400E+03  0.14700249900E+03 -0.15529508154E+04  0.16044972102E+04  0.90796997114E+02 0.  0.
        254    2    1    2    0    0  0.36455621400E+03 -0.14700249900E+03 -0.13116334911E+03  0.10023573055E+04  0.91269128178E+03 0.  0.
        -24    2    4    4    0    0  0.19515231762E+02 -0.46093367954E+03 -0.22583327516E+03  0.51971071321E+03  0.79106611911E+02 0.  0.
         24    2    4    4    0    0  0.34504098224E+03  0.31393118054E+03  0.94669926055E+02  0.48264659228E+03  0.79870348710E+02 0.  0.
         11    1    3    3    0    0 -0.21592158514E+03  0.40243790626E+02 -0.79696404943E+03  0.82667610930E+03  0.00000000000E+00 0. -1.
        -11    1    3    3    0    0 -0.14863462886E+03  0.10675870838E+03 -0.75598676598E+03  0.77782110092E+03  0.00000000000E+00 0.  1.
          4    1    6    6  502    0  0.18460994866E+03  0.15415393033E+03  0.88077549649E+02  0.25612872181E+03  0.00000000000E+00 0. -1.
          3    1    5    5  503    0  0.22113721328E+02 -0.17070160566E+03 -0.12391872009E+03  0.21209409241E+03  0.00000000000E+00 0. -1.
         -4    1    5    5    0  503 -0.25984895660E+01 -0.29023207388E+03 -0.10191455507E+03  0.30761662080E+03  0.00000000000E+00 0.  1.
         -3    1    6    6    0  502  0.16043103357E+03  0.15977725020E+03  0.65923764064E+01  0.22651787047E+03  0.00000000000E+00 0.  1.
<mgrwt>
<rscale>  0 0.19898367E+04</rscale>
<asrwt>0</asrwt>
<pdfrwt beam="1">  1        2 0.33007452E+00 0.19898367E+04</pdfrwt>
<pdfrwt beam="2">  1       -2 0.70980026E-01 0.19898367E+04</pdfrwt>
<totfact> 0.92904022E+00</totfact>
</mgrwt>
</event>
<event>
12    1  0.1504874E-007  0.3391534E+04  0.7818608E-02  0.8139987E-01
          2   -1    0    0  501    0  0.00000000000E+00  0.00000000000E+00  0.30186548298E+04  0.30186548298E+04  0.00000000000E+00 0. -1.
         -2   -1    0    0    0  501 -0.00000000000E+00 -0.00000000000E+00 -0.95261827197E+03  0.95261827197E+03  0.00000000000E+00 0.  1.
         23    2    1    2    0    0  0.59880567130E+03  0.98848620390E+03 -0.28990309093E+03  0.11950254493E+04  0.91481228446E+02 0.  0.
        254    2    1    2    0    0 -0.59880567130E+03 -0.98848620390E+03  0.23559396487E+04  0.27762476524E+04  0.90632565433E+03 0.  0.
        -24    2    4    4    0    0 -0.64461942429E+03 -0.45709284456E+03  0.19359425625E+04  0.20925983838E+04  0.81402210933E+02 0.  0.
         24    2    4    4    0    0  0.45813752992E+02 -0.53139335934E+03  0.41999708620E+03  0.68364926855E+03  0.80628578424E+02 0.  0.
         13    1    3    3    0    0  0.24477728940E+03  0.46682844650E+03 -0.16494215850E+03  0.55231389220E+03  0.00000000000E+00 0.  1.
        -13    1    3    3    0    0  0.35402838190E+03  0.52165775741E+03 -0.12496093243E+03  0.64271155714E+03  0.00000000000E+00 0. -1.
          2    1    6    6  502    0  0.42747558848E+02 -0.53379561654E+03  0.41750066998E+03  0.67902277094E+03  0.00000000000E+00 0. -1.
          3    1    5    5  503    0 -0.60015751680E+03 -0.39686455186E+03  0.17468689088E+04  0.18892436322E+04  0.00000000000E+00 0. -1.
         -4    1    5    5    0  503 -0.44461907493E+02 -0.60228292702E+02  0.18907365374E+03  0.20335475160E+03  0.00000000000E+00 0.  1.
         -1    1    6    6    0  502  0.30661941439E+01  0.24022571988E+01  0.24964162197E+01  0.46264976082E+01  0.00000000000E+00 0.  1.
<mgrwt>
<rscale>  0 0.33915340E+04</rscale>
<asrwt>0</asrwt>
<pdfrwt beam="1">  1        2 0.46440843E+00 0.33915340E+04</pdfrwt>
<pdfrwt beam="2">  1       -2 0.14655666E+00 0.33915340E+04</pdfrwt>
<totfact> 0.44728742E-01</totfact>
</mgrwt>
</event>
<event>
12    1  0.1504874E-007  0.1609558E+04  0.7818608E-02  0.8814698E-01
          2   -1    0    0  501    0  0.00000000000E+00  0.00000000000E+00  0.28438044294E+04  0.28438044294E+04  0.00000000000E+00 0. -1.
         -2   -1    0    0    0  501 -0.00000000000E+00 -0.00000000000E+00 -0.22774742232E+03  0.22774742232E+03  0.00000000000E+00 0.  1.
         23    2    1    2    0    0  0.52065866806E+03  0.73986636204E+02  0.59269699381E+03  0.79648769710E+03  0.80891620088E+02 0.  0.
        254    2    1    2    0    0 -0.52065866806E+03 -0.73986636204E+02  0.20233600132E+04  0.22750641546E+04  0.89742503497E+03 0.  0.
        -24    2    4    4    0    0 -0.61966956541E+03 -0.31541830387E+03  0.10331032297E+04  0.12478867048E+04  0.80248788452E+02 0.  0.
         24    2    4    4    0    0  0.99010897347E+02  0.24143166766E+03  0.99025678351E+03  0.10271774498E+04  0.79953787448E+02 0.  0.
         13    1    3    3    0    0  0.27320363256E+03  0.64292210964E+02  0.26742327711E+03  0.38767115236E+03  0.00000000000E+00 0.  1.
        -13    1    3    3    0    0  0.24745503550E+03  0.96944252395E+01  0.32527371671E+03  0.40881654474E+03  0.00000000000E+00 0. -1.
          2    1    6    6  502    0  0.93269612794E+02  0.13551587847E+03  0.53472287925E+03  0.55945717583E+03  0.00000000000E+00 0. -1.
          1    1    5    5  503    0 -0.10737751881E+03 -0.26563660268E+02  0.13793563423E+03  0.17681006415E+03  0.00000000000E+00 0. -1.
         -2    1    5    5    0  503 -0.51229204659E+03 -0.28885464360E+03  0.89516759550E+03  0.10710766407E+04  0.00000000000E+00 0.  1.
         -1    1    6    6    0  502  0.57412845526E+01  0.10591578919E+03  0.45553390425E+03  0.46772027396E+03  0.00000000000E+00 0.  1.
<mgrwt>
<rscale>  0 0.16095579E+04</rscale>
<asrwt>0</asrwt>
<pdfrwt beam="1">  1        2 0.43750835E+00 0.16095579E+04</pdfrwt>
<pdfrwt beam="2">  1       -2 0.35038067E-01 0.16095579E+04</pdfrwt>
<totfact> 0.16003885E+01</totfact>
</mgrwt>
</event>
<event>
12    1  0.1504874E-007  0.2060979E+04  0.7818608E-02  0.8578630E-01
         -1   -1    0    0    0  501 -0.00000000000E+00  0.00000000000E+00  0.12658022249E+04  0.12658022249E+04  0.00000000000E+00 0.  1.
          1   -1    0    0  501    0  0.00000000000E+00 -0.00000000000E+00 -0.83892169931E+03  0.83892169931E+03  0.00000000000E+00 0. -1.
         23    2    1    2    0    0 -0.13991797475E+03 -0.79467471300E+03  0.40265783037E+03  0.90639928881E+03  0.91331282917E+02 0.  0.
        254    2    1    2    0    0  0.13991797475E+03  0.79467471300E+03  0.24222695193E+02  0.11983246354E+04  0.88561292541E+03 0.  0.
        -24    2    4    4    0    0  0.30524305717E+03  0.81525366715E+03 -0.21050443701E+03  0.89934653766E+03  0.81854816920E+02 0.  0.
         24    2    4    4    0    0 -0.16532508242E+03 -0.20578954146E+02  0.23472713220E+03  0.29897809772E+03  0.80840584448E+02 0.  0.
         11    1    3    3    0    0  0.11612726174E+02 -0.55544244047E+02  0.18205489860E+02  0.59594113107E+02  0.00000000000E+00 0. -1.
        -11    1    3    3    0    0 -0.15153070093E+03 -0.73913046896E+03  0.38445234051E+03  0.84680517570E+03  0.00000000000E+00 0.  1.
          4    1    6    6  502    0 -0.69913341349E+01  0.14521219060E+02  0.53056182115E+02  0.55450004658E+02  0.00000000000E+00 0. -1.
          3    1    5    5  503    0  0.13346222089E+02  0.10776302059E+03 -0.35613641590E+02  0.11427738936E+03  0.00000000000E+00 0. -1.
         -4    1    5    5    0  503  0.29189683508E+03  0.70749064656E+03 -0.17489079542E+03  0.78506914831E+03  0.00000000000E+00 0.  1.
         -3    1    6    6    0  502 -0.15833374828E+03 -0.35100173206E+02  0.18167095009E+03  0.24352809306E+03  0.00000000000E+00 0.  1.
<mgrwt>
<rscale>  0 0.20609793E+04</rscale>
<asrwt>0</asrwt>
<pdfrwt beam="1">  1        1 0.12906488E+00 0.20609793E+04</pdfrwt>
<pdfrwt beam="2">  1       -1 0.19473880E+00 0.20609793E+04</pdfrwt>
<totfact> 0.30913735E+00</totfact>
</mgrwt>
</event>
<event>
12    1  0.1504874E-007  0.5410794E+04  0.7818608E-02  0.7768085E-01
         -2   -1    0    0    0  501 -0.00000000000E+00  0.00000000000E+00  0.17172450253E+04  0.17172450253E+04  0.00000000000E+00 0.  1.
          2   -1    0    0  501    0  0.00000000000E+00 -0.00000000000E+00 -0.42621600645E+04  0.42621600645E+04  0.00000000000E+00 0. -1.
         23    2    1    2    0    0  0.16569374745E+04 -0.99775651878E+03  0.73118401320E+03  0.20699978948E+04  0.96443549661E+02 0.  0.
        254    2    1    2    0    0 -0.16569374745E+04  0.99775651878E+03 -0.32760990524E+04  0.39094071949E+04  0.89982206551E+03 0.  0.
        -24    2    4    4    0    0 -0.14160329372E+04  0.11511623665E+04 -0.26909743021E+04  0.32524028046E+04  0.80356927000E+02 0.  0.
         24    2    4    4    0    0 -0.24090453725E+03 -0.15340584769E+03 -0.58512475034E+03  0.65700439033E+03  0.87837607477E+02 0.  0.
         13    1    3    3    0    0  0.13907285479E+04 -0.81672669943E+03  0.64245912510E+03  0.17360651264E+04  0.00000000000E+00 0.  1.
        -13    1    3    3    0    0  0.26620892658E+03 -0.18102981935E+03  0.88724888093E+02  0.33393276846E+03  0.00000000000E+00 0. -1.
          4    1    6    6  502    0 -0.17717774058E+03 -0.13570181027E+03 -0.51130613430E+03  0.55788968089E+03  0.00000000000E+00 0. -1.
          3    1    5    5  503    0 -0.53639441610E+03  0.38701233055E+03 -0.96279066216E+03  0.11681024667E+04  0.00000000000E+00 0. -1.
         -4    1    5    5    0  503 -0.87963852114E+03  0.76415003593E+03 -0.17281836399E+04  0.20843003379E+04  0.00000000000E+00 0.  1.
         -3    1    6    6    0  502 -0.63726796673E+02 -0.17704037426E+02 -0.73818616033E+02  0.99114709445E+02  0.00000000000E+00 0.  1.
<mgrwt>
<rscale>  0 0.54107941E+04</rscale>
<asrwt>0</asrwt>
<pdfrwt beam="1">  1        2 0.65571693E+00 0.54107941E+04</pdfrwt>
<pdfrwt beam="2">  1       -2 0.26419155E+00 0.54107941E+04</pdfrwt>
<totfact> 0.75436419E-03</totfact>
</mgrwt>
</event>
<event>
12    1  0.1504874E-007  0.1159824E+04  0.7818608E-02  0.9148768E-01
         -1   -1    0    0    0  501 -0.00000000000E+00  0.00000000000E+00  0.11156849734E+03  0.11156849734E+03  0.00000000000E+00 0.  1.
          1   -1    0    0  501    0  0.00000000000E+00 -0.00000000000E+00 -0.30142735723E+04  0.30142735723E+04  0.00000000000E+00 0. -1.
         23    2    1    2    0    0 -0.40778108822E+02 -0.64455514323E+02 -0.32401405006E+02  0.11646537647E+03  0.81834988752E+02 0.  0.
        254    2    1    2    0    0  0.40778108822E+02  0.64455514323E+02 -0.28703036699E+04  0.30093766931E+04  0.90104803210E+03 0.  0.
        -24    2    4    4    0    0 -0.31192007736E+03  0.20947906552E+03 -0.64949661970E+03  0.75465239037E+03  0.80490730748E+02 0.  0.
         24    2    4    4    0    0  0.35269818618E+03 -0.14502355120E+03 -0.22208070502E+04  0.22547243028E+04  0.79811567140E+02 0.  0.
         11    1    3    3    0    0 -0.24228080717E+02 -0.60950340556E+01 -0.47751106742E+02  0.53891720426E+02  0.00000000000E+00 0. -1.
        -11    1    3    3    0    0 -0.16550028105E+02 -0.58360480268E+02  0.15349701736E+02  0.62573656044E+02  0.00000000000E+00 0.  1.
          4    1    6    6  502    0  0.77150758959E+02 -0.26785834130E+02 -0.31206192382E+03  0.32257148791E+03  0.00000000000E+00 0. -1.
          3    1    5    5  503    0 -0.41450325563E+02  0.29417107946E+02 -0.15355896505E+03  0.16175243886E+03  0.00000000000E+00 0. -1.
         -4    1    5    5    0  503 -0.27046975179E+03  0.18006195757E+03 -0.49593765465E+03  0.59289995151E+03  0.00000000000E+00 0.  1.
         -3    1    6    6    0  502  0.27554742722E+03 -0.11823771707E+03 -0.19087451264E+04  0.19321528149E+04  0.00000000000E+00 0.  1.
<mgrwt>
<rscale>  0 0.11598241E+04</rscale>
<asrwt>0</asrwt>
<pdfrwt beam="1">  1        1 0.46373439E+00 0.11598241E+04</pdfrwt>
<pdfrwt beam="2">  1       -1 0.17164384E-01 0.11598241E+04</pdfrwt>
<totfact> 0.15507364E+01</totfact>
</mgrwt>
</event>
<event>
12    1  0.1504874E-007  0.1278524E+04  0.7818608E-02  0.9046772E-01
          3   -1    0    0  501    0  0.00000000000E+00  0.00000000000E+00  0.38847975810E+03  0.38847975810E+03  0.00000000000E+00 0. -1.
         -3   -1    0    0    0  501 -0.00000000000E+00 -0.00000000000E+00 -0.10519354919E+04  0.10519354919E+04  0.00000000000E+00 0.  1.
         23    2    1    2    0    0 -0.25584351656E+03  0.13499652253E+03 -0.26530465986E+03  0.40256822513E+03  0.89412791463E+02 0.  0.
        254    2    1    2    0    0  0.25584351656E+03 -0.13499652253E+03 -0.39815107397E+03  0.10378470249E+04  0.91374077470E+03 0.  0.
        -24    2    4    4    0    0  0.29025874671E+03 -0.51173110119E+02 -0.67222237209E+03  0.73816844993E+03  0.78363994785E+02 0.  0.
         24    2    4    4    0    0 -0.34415230158E+02 -0.83823412416E+02  0.27407129813E+03  0.29967857498E+03  0.80507138256E+02 0.  0.
         11    1    3    3    0    0 -0.12557672040E+02  0.37784845515E+02 -0.24676386106E+02  0.46843502312E+02  0.00000000000E+00 0. -1.
        -11    1    3    3    0    0 -0.24328584452E+03  0.97211677020E+02 -0.24062827375E+03  0.35572472281E+03  0.00000000000E+00 0.  1.
          2    1    6    6  502    0 -0.58375745411E+02 -0.67838198088E+02  0.17575238383E+03  0.19722740477E+03  0.00000000000E+00 0. -1.
          1    1    5    5  503    0  0.56616296379E+02  0.70637764216E+01 -0.75029870956E+02  0.94259129472E+02  0.00000000000E+00 0. -1.
         -2    1    5    5    0  503  0.23364245033E+03 -0.58236886540E+02 -0.59719250114E+03  0.64390932045E+03  0.00000000000E+00 0.  1.
         -1    1    6    6    0  502  0.23960515253E+02 -0.15985214328E+02  0.98318914299E+02  0.10245117021E+03  0.00000000000E+00 0.  1.
<mgrwt>
<rscale>  0 0.12785236E+04</rscale>
<asrwt>0</asrwt>
<pdfrwt beam="1">  1        3 0.59766116E-01 0.12785236E+04</pdfrwt>
<pdfrwt beam="2">  1       -3 0.16183623E+00 0.12785236E+04</pdfrwt>
<totfact> 0.18600730E+00</totfact>
</mgrwt>
</event>
<event>
12    1  0.1504874E-007  0.1654623E+04  0.7818608E-02  0.8787676E-01
         -2   -1    0    0    0  501 -0.00000000000E+00  0.00000000000E+00  0.81129086243E+03  0.81129086243E+03  0.00000000000E+00 0.  1.
          2   -1    0    0  501    0  0.00000000000E+00 -0.00000000000E+00 -0.84364807314E+03  0.84364807314E+03  0.00000000000E+00 0. -1.
         23    2    1    2    0    0 -0.15394215665E+03 -0.56351354636E+03 -0.82537714861E+02  0.59688656666E+03  0.90638813790E+02 0.  0.
        254    2    1    2    0    0  0.15394215665E+03  0.56351354636E+03  0.50180504153E+02  0.10580523689E+04  0.88074458717E+03 0.  0.
        -24    2    4    4    0    0 -0.23854569832E+03  0.51292209817E+03  0.23150073209E+03  0.61632492407E+03  0.79187714296E+02 0.  0.
         24    2    4    4    0    0  0.39248785497E+03  0.50591448183E+02 -0.18132022793E+03  0.44172744483E+03  0.75099264507E+02 0.  0.
         13    1    3    3    0    0 -0.97121429454E+02 -0.48207609473E+03 -0.64780235008E+02  0.49601049588E+03  0.00000000000E+00 0. -1.
        -13    1    3    3    0    0 -0.56820727199E+02 -0.81437451621E+02 -0.17757479853E+02  0.10087607078E+03  0.00000000000E+00 0.  1.
          2    1    6    6  502    0  0.31232224666E+03  0.48009587447E+02 -0.17514316569E+03  0.36128276285E+03  0.00000000000E+00 0. -1.
          3    1    5    5  503    0 -0.21985311003E+03  0.48278793684E+03  0.23593056294E+03  0.58058833306E+03  0.00000000000E+00 0. -1.
         -4    1    5    5    0  503 -0.18692588291E+02  0.30134161330E+02 -0.44298308556E+01  0.35736591016E+02  0.00000000000E+00 0.  1.
         -1    1    6    6    0  502  0.80165608314E+02  0.25818607365E+01 -0.61770622443E+01  0.80444681982E+02  0.00000000000E+00 0.  1.
<mgrwt>
<rscale>  0 0.16546226E+04</rscale>
<asrwt>0</asrwt>
<pdfrwt beam="1">  1        2 0.12979201E+00 0.16546226E+04</pdfrwt>
<pdfrwt beam="2">  1       -2 0.12481398E+00 0.16546226E+04</pdfrwt>
<totfact> 0.14735392E+01</totfact>
</mgrwt>
</event>
<event>
12    1  0.1504874E-007  0.2278912E+04  0.7818608E-02  0.8486282E-01
          2   -1    0    0  501    0  0.00000000000E+00  0.00000000000E+00  0.22030145760E+04  0.22030145760E+04  0.00000000000E+00 0.  1.
         -2   -1    0    0    0  501 -0.00000000000E+00 -0.00000000000E+00 -0.58935609237E+03  0.58935609237E+03  0.00000000000E+00 0. -1.
         23    2    1    2    0    0  0.87819053136E+03  0.37986375403E+02  0.11550594303E+04  0.14542957937E+04  0.90290607334E+02 0.  0.
        254    2    1    2    0    0 -0.87819053136E+03 -0.37986375403E+02  0.45859905333E+03  0.13380748747E+04  0.89859318080E+03 0.  0.
        -24    2    4    4    0    0 -0.10301528670E+04 -0.24869441515E+02  0.24106784014E+03  0.10612295860E+04  0.79127189532E+02 0.  0.
         24    2    4    4    0    0  0.15196233567E+03 -0.13116933888E+02  0.21753121319E+03  0.27684528871E+03  0.77838806200E+02 0.  0.
         11    1    3    3    0    0  0.75128342460E+03  0.33990733540E+02  0.10363975584E+04  0.12805085135E+04  0.00000000000E+00 0.  1.
        -11    1    3    3    0    0  0.12690710676E+03  0.39956418621E+01  0.11866187191E+03  0.17378728016E+03  0.00000000000E+00 0. -1.
          2    1    6    6  502    0  0.12514804496E+01 -0.18953729117E+02  0.14366082365E+02  0.23815842905E+02  0.00000000000E+00 0. -1.
          3    1    5    5  503    0 -0.29853574721E+03 -0.46203791033E+01  0.33357047175E+02  0.30042908125E+03  0.00000000000E+00 0. -1.
         -4    1    5    5    0  503 -0.73161711983E+03 -0.20249062411E+02  0.20771079297E+03  0.76080050478E+03  0.00000000000E+00 0.  1.
         -1    1    6    6    0  502  0.15071085522E+03  0.58367952294E+01  0.20316513082E+03  0.25302944580E+03  0.00000000000E+00 0.  1.
<mgrwt>
<rscale>  0 0.22789121E+04</rscale>
<asrwt>0</asrwt>
<pdfrwt beam="1">  1        2 0.33892531E+00 0.22789121E+04</pdfrwt>
<pdfrwt beam="2">  1       -2 0.90670169E-01 0.22789121E+04</pdfrwt>
<totfact> 0.48521540E+00</totfact>
</mgrwt>
</event>
<event>
12    1  0.1504874E-007  0.1724625E+04  0.7818608E-02  0.8747443E-01
          1   -1    0    0  501    0  0.00000000000E+00  0.00000000000E+00  0.10311874685E+04  0.10311874685E+04  0.00000000000E+00 0. -1.
         -1   -1    0    0    0  501 -0.00000000000E+00 -0.00000000000E+00 -0.72109383329E+03  0.72109383329E+03  0.00000000000E+00 0.  1.
         23    2    1    2    0    0  0.43824703417E+03  0.39877380251E+03  0.34345528129E+03  0.69083231395E+03  0.90591099076E+02 0.  0.
        254    2    1    2    0    0 -0.43824703417E+03 -0.39877380251E+03 -0.33361646072E+02  0.10614489878E+04  0.88004542260E+03 0.  0.
        -24    2    4    4    0    0 -0.69806774446E+02  0.17893064119E+03 -0.26296531208E+03  0.33437319306E+03  0.75931000035E+02 0.  0.
         24    2    4    4    0    0 -0.36844025972E+03 -0.57770444370E+03  0.22960366600E+03  0.72707579479E+03  0.80191761835E+02 0.  0.
         11    1    3    3    0    0  0.42765885701E+03  0.35991445831E+03  0.32447057853E+03  0.64630617482E+03  0.00000000000E+00 0. -1.
        -11    1    3    3    0    0  0.10588177156E+02  0.38859344201E+02  0.18984702769E+02  0.44526139137E+02  0.00000000000E+00 0.  1.
          2    1    6    6  502    0 -0.36123270134E+03 -0.56056568959E+03  0.23601624514E+03  0.70740838617E+03  0.00000000000E+00 0. -1.
          3    1    5    5  503    0 -0.37926519795E+02  0.15025924840E+03 -0.24013020531E+03  0.28579499319E+03  0.00000000000E+00 0. -1.
         -4    1    5    5    0  503 -0.31880254651E+02  0.28671392790E+02 -0.22835106770E+02  0.48578199867E+02  0.00000000000E+00 0.  1.
         -1    1    6    6    0  502 -0.72075583844E+01 -0.17138754111E+02 -0.64125791347E+01  0.19667408611E+02  0.00000000000E+00 0.  1.
<mgrwt>
<rscale>  0 0.17246251E+04</rscale>
<asrwt>0</asrwt>
<pdfrwt beam="1">  1        1 0.15864423E+00 0.17246251E+04</pdfrwt>
<pdfrwt beam="2">  1       -1 0.11093751E+00 0.17246251E+04</pdfrwt>
<totfact> 0.10165688E+01</totfact>
</mgrwt>
</event>
<event>
12    1  0.1504874E-007  0.2355957E+04  0.7818608E-02  0.8456179E-01
         -1   -1    0    0    0  501 -0.00000000000E+00  0.00000000000E+00  0.23997514799E+04  0.23997514799E+04  0.00000000000E+00 0.  1.
          1   -1    0    0  501    0  0.00000000000E+00 -0.00000000000E+00 -0.57824043759E+03  0.57824043759E+03  0.00000000000E+00 0. -1.
         23    2    1    2    0    0  0.93782903984E+03 -0.35297902117E+03  0.89151258401E+03  0.13442080854E+04  0.89348710579E+02 0.  0.
        254    2    1    2    0    0 -0.93782903984E+03  0.35297902117E+03  0.92999845826E+03  0.16337838320E+04  0.89455853924E+03 0.  0.
        -24    2    4    4    0    0  0.16592691765E+03  0.95093422798E+02  0.15161387369E+03  0.25647910490E+03  0.78868647091E+02 0.  0.
         24    2    4    4    0    0 -0.11037559575E+04  0.25788559837E+03  0.77838458457E+03  0.13773047271E+04  0.79394926590E+02 0.  0.
         13    1    3    3    0    0  0.74997453985E+03 -0.29762622898E+03  0.75894203261E+03  0.11077166567E+04  0.00000000000E+00 0.  1.
        -13    1    3    3    0    0  0.18785450000E+03 -0.55352792191E+02  0.13257055141E+03  0.23649142875E+03  0.00000000000E+00 0. -1.
          4    1    6    6  502    0 -0.10843030828E+04  0.25508769877E+03  0.75031773512E+03  0.13430411807E+04  0.00000000000E+00 0. -1.
          3    1    5    5  503    0  0.11327034400E+03  0.99503080437E+02  0.91152039560E+02  0.17618095290E+03  0.00000000000E+00 0. -1.
         -4    1    5    5    0  503  0.52656573647E+02 -0.44096576392E+01  0.60461834133E+02  0.80298152005E+02  0.00000000000E+00 0.  1.
         -3    1    6    6    0  502 -0.19452874667E+02  0.27978995998E+01  0.28066849456E+02  0.34263546421E+02  0.00000000000E+00 0.  1.
<mgrwt>
<rscale>  0 0.23559570E+04</rscale>
<asrwt>0</asrwt>
<pdfrwt beam="1">  1        1 0.88960068E-01 0.23559570E+04</pdfrwt>
<pdfrwt beam="2">  1       -1 0.36919253E+00 0.23559570E+04</pdfrwt>
<totfact> 0.37614142E-01</totfact>
</mgrwt>
</event>
<event>
12    1  0.1504874E-007  0.2442312E+04  0.7818608E-02  0.8423830E-01
          1   -1    0    0  501    0  0.00000000000E+00  0.00000000000E+00  0.18043619623E+04  0.18043619623E+04  0.00000000000E+00 0. -1.
         -1   -1    0    0    0  501 -0.00000000000E+00 -0.00000000000E+00 -0.82645380847E+03  0.82645380847E+03  0.00000000000E+00 0.  1.
         23    2    1    2    0    0 -0.80835914768E+03  0.42823240874E+03 -0.13537623841E+03  0.92906390918E+03  0.89473537312E+02 0.  0.
        254    2    1    2    0    0  0.80835914768E+03 -0.42823240874E+03  0.11132843923E+04  0.17017518616E+04  0.90538928252E+03 0.  0.
        -24    2    4    4    0    0 -0.10939011896E+03  0.10778870276E+03  0.34542019568E+03  0.38822945658E+03  0.88444314707E+02 0.  0.
         24    2    4    4    0    0  0.91774926664E+03 -0.53602111150E+03  0.76786419659E+03  0.13135224050E+04  0.78379434221E+02 0.  0.
         13    1    3    3    0    0 -0.57114329050E+03  0.26014599738E+03 -0.74242260358E+02  0.63197508769E+03  0.00000000000E+00 0. -1.
        -13    1    3    3    0    0 -0.23721585718E+03  0.16808641136E+03 -0.61133978055E+02  0.29708882149E+03  0.00000000000E+00 0.  1.
          4    1    6    6  502    0  0.73982220053E+03 -0.45120220837E+03  0.59305978432E+03  0.10500667736E+04  0.00000000000E+00 0. -1.
          3    1    5    5  503    0 -0.10875417263E+03  0.12128648157E+03  0.32756948247E+03  0.36584101263E+03  0.00000000000E+00 0. -1.
         -4    1    5    5    0  503 -0.63594633339E+00 -0.13497778808E+02  0.17850713209E+02  0.22388443951E+02  0.00000000000E+00 0.  1.
         -3    1    6    6    0  502  0.17792706612E+03 -0.84818903131E+02  0.17480441227E+03  0.26345563144E+03  0.00000000000E+00 0.  1.
<mgrwt>
<rscale>  0 0.24423119E+04</rscale>
<asrwt>0</asrwt>
<pdfrwt beam="1">  1        1 0.27759415E+00 0.24423119E+04</pdfrwt>
<pdfrwt beam="2">  1       -1 0.12714674E+00 0.24423119E+04</pdfrwt>
<totfact> 0.19373402E+00</totfact>
</mgrwt>
</event>
<event>
12    1  0.1504874E-007  0.1509591E+04  0.7818608E-02  0.8878100E-01
         -2   -1    0    0    0  501 -0.00000000000E+00  0.00000000000E+00  0.29418668287E+03  0.29418668287E+03  0.00000000000E+00 0. -1.
          2   -1    0    0  501    0  0.00000000000E+00 -0.00000000000E+00 -0.19365805982E+04  0.19365805982E+04  0.00000000000E+00 0.  1.
         23    2    1    2    0    0 -0.32805551546E+03 -0.34100642619E+03 -0.50380611539E+03  0.69713954531E+03  0.90978787691E+02 0.  0.
        254    2    1    2    0    0  0.32805551546E+03  0.34100642619E+03 -0.11385878000E+04  0.15336277358E+04  0.91199015884E+03 0.  0.
        -24    2    4    4    0    0  0.30172090360E+03 -0.26405132741E+03 -0.55554424611E+03  0.68935158161E+03  0.76273104743E+02 0.  0.
         24    2    4    4    0    0  0.26334611860E+02  0.60505775360E+03 -0.58304355387E+03  0.84427615419E+03  0.77936139519E+02 0.  0.
         13    1    3    3    0    0 -0.24835170257E+02 -0.53874256058E+02 -0.33253685807E+02  0.68007564045E+02  0.00000000000E+00 0. -1.
        -13    1    3    3    0    0 -0.30322034520E+03 -0.28713217013E+03 -0.47055242958E+03  0.62913198126E+03  0.00000000000E+00 0.  1.
          4    1    6    6  502    0 -0.15611978850E+02  0.55716662909E+02 -0.76041592102E+02  0.95553148240E+02  0.00000000000E+00 0. -1.
          1    1    5    5  503    0  0.17039392774E+03 -0.12016133834E+03 -0.23416357986E+03  0.31353695152E+03  0.00000000000E+00 0. -1.
         -2    1    5    5    0  503  0.13132697586E+03 -0.14388998908E+03 -0.32138066625E+03  0.37581463009E+03  0.00000000000E+00 0.  1.
         -3    1    6    6    0  502  0.41946590710E+02  0.54934109069E+03 -0.50700196177E+03  0.74872300595E+03  0.00000000000E+00 0.  1.
<mgrwt>
<rscale>  0 0.15095910E+04</rscale>
<asrwt>0</asrwt>
<pdfrwt beam="1">  1        2 0.29793547E+00 0.15095910E+04</pdfrwt>
<pdfrwt beam="2">  1       -2 0.45259491E-01 0.15095910E+04</pdfrwt>
<totfact> 0.32396557E+01</totfact>
</mgrwt>
</event>
<event>
12    1  0.1504874E-007  0.1330200E+04  0.7818608E-02  0.9005954E-01
         -2   -1    0    0    0  501 -0.00000000000E+00  0.00000000000E+00  0.65751047953E+03  0.65751047953E+03  0.00000000000E+00 0. -1.
          2   -1    0    0  501    0  0.00000000000E+00 -0.00000000000E+00 -0.67277673511E+03  0.67277673511E+03  0.00000000000E+00 0.  1.
         23    2    1    2    0    0  0.24251876655E+03  0.23200238895E+03  0.80448991715E+02  0.35703105072E+03  0.91425763924E+02 0.  0.
        254    2    1    2    0    0 -0.24251876655E+03 -0.23200238895E+03 -0.95715247291E+02  0.97325616392E+03  0.90852941143E+03 0.  0.
        -24    2    4    4    0    0  0.14201174468E+03 -0.25067309753E+03  0.29364321287E+03  0.41879066614E+03  0.78453477488E+02 0.  0.
         24    2    4    4    0    0 -0.38453051122E+03  0.18670708588E+02 -0.38935846016E+03  0.55446549777E+03  0.87290711440E+02 0.  0.
         13    1    3    3    0    0  0.53194520556E+02  0.33553236872E+02 -0.18335317532E+02  0.65510766984E+02  0.00000000000E+00 0.  1.
        -13    1    3    3    0    0  0.18932424599E+03  0.19844915207E+03  0.98784309246E+02  0.29152028374E+03  0.00000000000E+00 0. -1.
          2    1    6    6  502    0 -0.36770757701E+03  0.34801761365E+01 -0.34299672718E+03  0.50285955164E+03  0.00000000000E+00 0. -1.
          1    1    5    5  503    0  0.14605651542E+03 -0.20011737690E+03  0.24829390128E+03  0.35075537294E+03  0.00000000000E+00 0. -1.
         -2    1    5    5    0  503 -0.40447707445E+01 -0.50555720637E+02  0.45349311585E+02  0.68035293200E+02  0.00000000000E+00 0.  1.
         -1    1    6    6    0  502 -0.16822934211E+02  0.15190532451E+02 -0.46361732984E+02  0.51605946139E+02  0.00000000000E+00 0.  1.
<mgrwt>
<rscale>  0 0.13301996E+04</rscale>
<asrwt>0</asrwt>
<pdfrwt beam="1">  1        2 0.10350411E+00 0.13301996E+04</pdfrwt>
<pdfrwt beam="2">  1       -2 0.10115546E+00 0.13301996E+04</pdfrwt>
<totfact> 0.33870034E+01</totfact>
</mgrwt>
</event>
<event>
12    1  0.1504874E-007  0.3069796E+04  0.7818608E-02  0.8224076E-01
         -2   -1    0    0    0  501 -0.00000000000E+00  0.00000000000E+00  0.61792684545E+03  0.61792684545E+03  0.00000000000E+00 0.  1.
          2   -1    0    0  501    0  0.00000000000E+00 -0.00000000000E+00 -0.38126069631E+04  0.38126069631E+04  0.00000000000E+00 0. -1.
         23    2    1    2    0    0  0.83580951839E+03 -0.10828788118E+04 -0.15031596100E+04  0.20343844825E+04  0.89595408910E+02 0.  0.
        254    2    1    2    0    0 -0.83580951839E+03  0.10828788118E+04 -0.16915205077E+04  0.23961493261E+04  0.10045326740E+04 0.  0.
        -24    2    4    4    0    0 -0.18089300898E+03  0.98110772754E+03 -0.79436739609E+03  0.12778908969E+04  0.81798109662E+02 0.  0.
         24    2    4    4    0    0 -0.65491650940E+03  0.10177108424E+03 -0.89715311158E+03  0.11182584292E+04  0.79656895304E+02 0.  0.
         11    1    3    3    0    0  0.77323693725E+03 -0.98385405363E+03 -0.13387782972E+04  0.18325368998E+04  0.00000000000E+00 0.  1.
        -11    1    3    3    0    0  0.62572581134E+02 -0.99024758146E+02 -0.16438131283E+03  0.20184758270E+03  0.00000000000E+00 0. -1.
          2    1    6    6  502    0 -0.63511590488E+03  0.95044193658E+02 -0.88684779193E+03  0.10949450294E+04  0.00000000000E+00 0. -1.
          3    1    5    5  503    0 -0.13491570963E+03  0.83745588593E+03 -0.70167387897E+03  0.11008545962E+04  0.00000000000E+00 0. -1.
         -4    1    5    5    0  503 -0.45977299353E+02  0.14365184161E+03 -0.92693517126E+02  0.17703630071E+03  0.00000000000E+00 0.  1.
         -1    1    6    6    0  502 -0.19800604523E+02  0.67268905853E+01 -0.10305319652E+02  0.23313399785E+02  0.00000000000E+00 0.  1.
<mgrwt>
<rscale>  0 0.30697962E+04</rscale>
<asrwt>0</asrwt>
<pdfrwt beam="1">  1        2 0.58655493E+00 0.30697962E+04</pdfrwt>
<pdfrwt beam="2">  1       -2 0.95065667E-01 0.30697962E+04</pdfrwt>
<totfact> 0.38005359E-01</totfact>
</mgrwt>
</event>
<event>
12    1  0.1504874E-007  0.1888591E+04  0.7818608E-02  0.8660556E-01
          1   -1    0    0  501    0  0.00000000000E+00  0.00000000000E+00  0.25740550548E+04  0.25740550548E+04  0.00000000000E+00 0. -1.
         -1   -1    0    0    0  501 -0.00000000000E+00 -0.00000000000E+00 -0.34641590997E+03  0.34641590997E+03  0.00000000000E+00 0.  1.
         23    2    1    2    0    0  0.16646695401E+03 -0.70152094455E+03  0.75002468239E+03  0.10443914582E+04  0.91507438872E+02 0.  0.
        254    2    1    2    0    0 -0.16646695401E+03  0.70152094455E+03  0.14776144625E+04  0.18760795066E+04  0.90359666495E+03 0.  0.
        -24    2    4    4    0    0 -0.12915569126E+03  0.87267651533E+03  0.14185328989E+04  0.16723682882E+04  0.79590281873E+02 0.  0.
         24    2    4    4    0    0 -0.37311262742E+02 -0.17115557077E+03  0.59081563548E+02  0.20371121841E+03  0.85564417969E+02 0.  0.
         13    1    3    3    0    0  0.27746454048E+02 -0.76084667150E+02  0.48648764217E+02  0.94474570904E+02  0.00000000000E+00 0. -1.
        -13    1    3    3    0    0  0.13872049996E+03 -0.62543627740E+03  0.70137591817E+03  0.94991688731E+03  0.00000000000E+00 0.  1.
          4    1    6    6  502    0 -0.25926396024E+02 -0.60603605194E+01  0.20971016719E+02  0.33892322474E+02  0.00000000000E+00 0. -1.
          3    1    5    5  503    0  0.96274668581E+01  0.33329524013E+02  0.47193317095E+02  0.58572642654E+02  0.00000000000E+00 0. -1.
         -4    1    5    5    0  503 -0.13878315812E+03  0.83934699131E+03  0.13713395818E+04  0.16137956455E+04  0.00000000000E+00 0.  1.
         -3    1    6    6    0  502 -0.11384866718E+02 -0.16509521025E+03  0.38110546829E+02  0.16981889594E+03  0.00000000000E+00 0.  1.
<mgrwt>
<rscale>  0 0.18885906E+04</rscale>
<asrwt>0</asrwt>
<pdfrwt beam="1">  1        1 0.39600846E+00 0.18885906E+04</pdfrwt>
<pdfrwt beam="2">  1       -1 0.53294757E-01 0.18885906E+04</pdfrwt>
<totfact> 0.40051483E+00</totfact>
</mgrwt>
</event>
<event>
12    1  0.1504874E-007  0.2445137E+04  0.7818608E-02  0.8422796E-01
          1   -1    0    0  501    0  0.00000000000E+00  0.00000000000E+00  0.23628227910E+04  0.23628227910E+04  0.00000000000E+00 0. -1.
         -1   -1    0    0    0  501 -0.00000000000E+00 -0.00000000000E+00 -0.63257948243E+03  0.63257948243E+03  0.00000000000E+00 0.  1.
         23    2    1    2    0    0 -0.81683468349E+03 -0.28378033648E+03  0.11356977613E+02  0.86951371716E+03  0.90415396129E+02 0.  0.
        254    2    1    2    0    0  0.81683468349E+03  0.28378033648E+03  0.17188863310E+04  0.21258885563E+04  0.90392574664E+03 0.  0.
        -24    2    4    4    0    0  0.12359468474E+03  0.11478649076E+03 -0.68962039711E+02  0.19910654934E+03  0.80225123941E+02 0.  0.
         24    2    4    4    0    0  0.69323999875E+03  0.16899384572E+03  0.17878483707E+04  0.19267820070E+04  0.83345605765E+02 0.  0.
         13    1    3    3    0    0 -0.30822423104E+03 -0.75160406288E+02  0.35593628044E+02  0.31924625233E+03  0.00000000000E+00 0.  1.
        -13    1    3    3    0    0 -0.50861045245E+03 -0.20861993020E+03 -0.24236650431E+02  0.55026746482E+03  0.00000000000E+00 0. -1.
          2    1    6    6  502    0  0.45142215815E+03  0.11941317743E+03  0.10625006863E+04  0.11605813975E+04  0.00000000000E+00 0. -1.
          3    1    5    5  503    0  0.60543878805E+02  0.75616784911E+02 -0.77950436055E+02  0.12433716219E+03  0.00000000000E+00 0. -1.
         -4    1    5    5    0  503  0.63050805935E+02  0.39169705849E+02  0.89883963435E+01  0.74769387146E+02  0.00000000000E+00 0.  1.
         -1    1    6    6    0  502  0.24181784060E+03  0.49580668293E+02  0.72534768436E+03  0.76620060944E+03  0.00000000000E+00 0.  1.
<mgrwt>
<rscale>  0 0.24451366E+04</rscale>
<asrwt>0</asrwt>
<pdfrwt beam="1">  1        1 0.36351119E+00 0.24451366E+04</pdfrwt>
<pdfrwt beam="2">  1       -1 0.97319922E-01 0.24451366E+04</pdfrwt>
<totfact> 0.15248378E+00</totfact>
</mgrwt>
</event>
<event>
12    1  0.1504874E-007  0.1299271E+04  0.7818608E-02  0.9030143E-01
          1   -1    0    0  501    0  0.00000000000E+00  0.00000000000E+00  0.12295754190E+04  0.12295754190E+04  0.00000000000E+00 0. -1.
         -1   -1    0    0    0  501 -0.00000000000E+00 -0.00000000000E+00 -0.34322934823E+03  0.34322934823E+03  0.00000000000E+00 0.  1.
         23    2    1    2    0    0 -0.19645054299E+03  0.23261967196E+03  0.39065014199E+03  0.50342391587E+03  0.90129784230E+02 0.  0.
        254    2    1    2    0    0  0.19645054299E+03 -0.23261967196E+03  0.49569592880E+03  0.10693808514E+04  0.89730497818E+03 0.  0.
        -24    2    4    4    0    0 -0.26791956543E+03 -0.23443087471E+03 -0.28071114385E+02  0.36594300182E+03  0.79922240738E+02 0.  0.
         24    2    4    4    0    0  0.46437010841E+03  0.18112027510E+01  0.52376704319E+03  0.70343784957E+03  0.69642046422E+02 0.  0.
         11    1    3    3    0    0 -0.17704952354E+03  0.16540962671E+03  0.26116081178E+03  0.35624689192E+03  0.00000000000E+00 0. -1.
        -11    1    3    3    0    0 -0.19401019442E+02  0.67210045245E+02  0.12948933021E+03  0.14717702394E+03  0.00000000000E+00 0.  1.
          4    1    6    6  502    0  0.10663031448E+03  0.29625559086E+02  0.11806981008E+03  0.16182761744E+03  0.00000000000E+00 0. -1.
          3    1    5    5  503    0 -0.37709681412E+02 -0.21152499277E+02 -0.29102789589E+02  0.52119292586E+02  0.00000000000E+00 0. -1.
         -4    1    5    5    0  503 -0.23020988401E+03 -0.21327837543E+03  0.10316752033E+01  0.31382370923E+03  0.00000000000E+00 0.  1.
         -3    1    6    6    0  502  0.35773979394E+03 -0.27814356335E+02  0.40569723311E+03  0.54161023212E+03  0.00000000000E+00 0.  1.
<mgrwt>
<rscale>  0 0.12992711E+04</rscale>
<asrwt>0</asrwt>
<pdfrwt beam="1">  1        1 0.18916545E+00 0.12992711E+04</pdfrwt>
<pdfrwt beam="2">  1       -1 0.52804516E-01 0.12992711E+04</pdfrwt>
<totfact> 0.36111458E+01</totfact>
</mgrwt>
</event>
<event>
12    1  0.1504874E-007  0.1771688E+04  0.7818608E-02  0.8721502E-01
         -2   -1    0    0    0  501 -0.00000000000E+00  0.00000000000E+00  0.30886006965E+03  0.30886006965E+03  0.00000000000E+00 0.  1.
          2   -1    0    0  501    0  0.00000000000E+00 -0.00000000000E+00 -0.25406962984E+04  0.25406962984E+04  0.00000000000E+00 0. -1.
         23    2    1    2    0    0  0.46221681065E+03 -0.81774936851E+02 -0.96128254700E+02  0.48779558796E+03  0.91500677254E+02 0.  0.
        254    2    1    2    0    0 -0.46221681065E+03  0.81774936851E+02 -0.21357079741E+04  0.23617607801E+04  0.89237543200E+03 0.  0.
        -24    2    4    4    0    0  0.24001715170E+03  0.15807903017E+03 -0.66323776252E+03  0.72713957499E+03  0.79059591382E+02 0.  0.
         24    2    4    4    0    0 -0.70223396235E+03 -0.76304093322E+02 -0.14724702116E+04  0.16346212051E+04  0.69735986555E+02 0.  0.
         13    1    3    3    0    0  0.34507739697E+03 -0.58746530647E+02 -0.30007293050E+02  0.35132606279E+03  0.00000000000E+00 0.  1.
        -13    1    3    3    0    0  0.11713941368E+03 -0.23028406203E+02 -0.66120961651E+02  0.13646952517E+03  0.00000000000E+00 0. -1.
          2    1    6    6  502    0 -0.68010182002E+03 -0.83192220103E+02 -0.14403221496E+04  0.15949881898E+04  0.00000000000E+00 0. -1.
          3    1    5    5  503    0  0.17726201871E+03  0.10713884340E+03 -0.55244612202E+03  0.58999768878E+03  0.00000000000E+00 0. -1.
         -4    1    5    5    0  503  0.62755132992E+02  0.50940186776E+02 -0.11079164050E+03  0.13714188620E+03  0.00000000000E+00 0.  1.
         -1    1    6    6    0  502 -0.22132142330E+02  0.68881267816E+01 -0.32148062004E+02  0.39633015344E+02  0.00000000000E+00 0.  1.
<mgrwt>
<rscale>  0 0.17716880E+04</rscale>
<asrwt>0</asrwt>
<pdfrwt beam="1">  1        2 0.39087637E+00 0.17716880E+04</pdfrwt>
<pdfrwt beam="2">  1       -2 0.47516932E-01 0.17716880E+04</pdfrwt>
<totfact> 0.13110811E+01</totfact>
</mgrwt>
</event>
<event>
12    1  0.1504874E-007  0.2125991E+04  0.7818608E-02  0.8549880E-01
         -1   -1    0    0    0  501 -0.00000000000E+00  0.00000000000E+00  0.45714882029E+03  0.45714882029E+03  0.00000000000E+00 0.  1.
          1   -1    0    0  501    0  0.00000000000E+00 -0.00000000000E+00 -0.24717544140E+04  0.24717544140E+04  0.00000000000E+00 0. -1.
         23    2    1    2    0    0 -0.75150233828E+03 -0.40907798943E+03 -0.10271086172E+04  0.13398268477E+04  0.89907199469E+02 0.  0.
        254    2    1    2    0    0  0.75150233828E+03  0.40907798943E+03 -0.98749697652E+03  0.15890763865E+04  0.90438538122E+03 0.  0.
        -24    2    4    4    0    0  0.29398558177E+03  0.42726086801E+03 -0.30843153909E+02  0.52553581930E+03  0.79102626977E+02 0.  0.
         24    2    4    4    0    0  0.45751675651E+03 -0.18182878584E+02 -0.95665382261E+03  0.10635405672E+04  0.79245203722E+02 0.  0.
         13    1    3    3    0    0 -0.22475448952E+03 -0.15882265679E+03 -0.28795800856E+03  0.39832026256E+03  0.00000000000E+00 0.  1.
        -13    1    3    3    0    0 -0.52674784876E+03 -0.25025533264E+03 -0.73915060861E+03  0.94150658516E+03  0.00000000000E+00 0. -1.
          4    1    6    6  502    0  0.36581483079E+03 -0.64654549991E+01 -0.68499899370E+03  0.77658606342E+03  0.00000000000E+00 0. -1.
          3    1    5    5  503    0  0.24507046896E+03  0.29544898488E+03 -0.28550131342E+02  0.38492174194E+03  0.00000000000E+00 0. -1.
         -4    1    5    5    0  503  0.48915112814E+02  0.13181188314E+03 -0.22930225672E+01  0.14061407735E+03  0.00000000000E+00 0.  1.
         -3    1    6    6    0  502  0.91701925716E+02 -0.11717423585E+02 -0.27165482891E+03  0.28695450383E+03  0.00000000000E+00 0.  1.
<mgrwt>
<rscale>  0 0.21259912E+04</rscale>
<asrwt>0</asrwt>
<pdfrwt beam="1">  1        1 0.38026990E+00 0.21259912E+04</pdfrwt>
<pdfrwt beam="2">  1       -1 0.70330589E-01 0.21259912E+04</pdfrwt>
<totfact> 0.26576944E+00</totfact>
</mgrwt>
</event>
<event>
12    1  0.1595324E-007  0.3321022E+04  0.7818608E-02  0.8157567E-01
         -2   -1    0    0    0  501 -0.00000000000E+00  0.00000000000E+00  0.94421031897E+03  0.94421031897E+03  0.00000000000E+00 0. -1.
          2   -1    0    0  501    0  0.00000000000E+00 -0.00000000000E+00 -0.29202148949E+04  0.29202148949E+04  0.00000000000E+00 0.  1.
         23    2    1    2    0    0 -0.64858031489E+03 -0.13027135100E+04 -0.14922540744E+04  0.20866112587E+04  0.96981485117E+02 0.  0.
        254    2    1    2    0    0  0.64858031489E+03  0.13027135100E+04 -0.48375050162E+03  0.17778139552E+04  0.89938256457E+03 0.  0.
        -24    2    4    4    0    0  0.34913350667E+03  0.13122601977E+04 -0.23533443645E+03  0.13804883587E+04  0.80279384732E+02 0.  0.
         24    2    4    4    0    0  0.29944680821E+03 -0.95466876310E+01 -0.24841606517E+03  0.39732559654E+03  0.79984736262E+02 0.  0.
         13    1    3    3    0    0 -0.95224011597E+01 -0.45092754871E+02 -0.31046573906E+02  0.55569077886E+02  0.00000000000E+00 0. -1.
        -13    1    3    3    0    0 -0.63905791373E+03 -0.12576207552E+04 -0.14612075004E+04  0.20310421808E+04  0.00000000000E+00 0.  1.
          2    1    6    6  502    0  0.21182895880E+01  0.91542094406E+01 -0.19403259126E+02  0.21558598423E+02  0.00000000000E+00 0. -1.
          3    1    5    5  503    0  0.23347103520E+02  0.36548451812E+02 -0.28101835321E+01  0.43460024208E+02  0.00000000000E+00 0. -1.
         -4    1    5    5    0  503  0.32578640316E+03  0.12757117458E+04 -0.23252425292E+03  0.13370283345E+04  0.00000000000E+00 0.  1.
         -1    1    6    6    0  502  0.29732851862E+03 -0.18700897072E+02 -0.22901280604E+03  0.37576699811E+03  0.00000000000E+00 0.  1.
<mgrwt>
<rscale>  0 0.33210222E+04</rscale>
<asrwt>0</asrwt>
<pdfrwt beam="1">  1        2 0.44926383E+00 0.33210222E+04</pdfrwt>
<pdfrwt beam="2">  1       -2 0.14526313E+00 0.33210222E+04</pdfrwt>
<totfact> 0.53048997E-01</totfact>
</mgrwt>
</event>
<event>
12    1  0.1690444E-007  0.2316987E+04  0.7818608E-02  0.8471253E-01
         -1   -1    0    0    0  501 -0.00000000000E+00  0.00000000000E+00  0.50715838689E+03  0.50715838689E+03  0.00000000000E+00 0.  1.
          1   -1    0    0  501    0  0.00000000000E+00 -0.00000000000E+00 -0.26463272256E+04  0.26463272256E+04  0.00000000000E+00 0. -1.
         23    2    1    2    0    0 -0.21784262871E+03 -0.63944458482E+03  0.45506102716E+02  0.68321335138E+03  0.91459773595E+02 0.  0.
        254    2    1    2    0    0  0.21784262871E+03  0.63944458482E+03 -0.21846749415E+04  0.24702722611E+04  0.93439587774E+03 0.  0.
        -24    2    4    4    0    0  0.16361416534E+03 -0.10355427686E+03 -0.58071170025E+02  0.21552390227E+03  0.74734251222E+02 0.  0.
         24    2    4    4    0    0  0.54228463367E+02  0.74299886168E+03 -0.21266037714E+04  0.22547483589E+04  0.80364957566E+02 0.  0.
         11    1    3    3    0    0 -0.22178754326E+03 -0.63214581206E+03  0.53021586372E+02  0.67201884696E+03  0.00000000000E+00 0.  1.
        -11    1    3    3    0    0  0.39449145538E+01 -0.72987727589E+01 -0.75154836562E+01  0.11194504420E+02  0.00000000000E+00 0. -1.
          2    1    6    6  502    0  0.20176976987E+02  0.12549403145E+03 -0.28451588913E+03  0.31161699809E+03  0.00000000000E+00 0. -1.
          1    1    5    5  503    0 -0.34847495969E+00  0.61510978656E+01 -0.11154359256E+02  0.12742730090E+02  0.00000000000E+00 0. -1.
         -4    1    5    5    0  503  0.16396264030E+03 -0.10970537473E+03 -0.46916810770E+02  0.20278117218E+03  0.00000000000E+00 0.  1.
         -1    1    6    6    0  502  0.34051486380E+02  0.61750483023E+03 -0.18420878823E+04  0.19431313608E+04  0.00000000000E+00 0.  1.
<mgrwt>
<rscale>  0 0.23169869E+04</rscale>
<asrwt>0</asrwt>
<pdfrwt beam="1">  1        1 0.40712726E+00 0.23169869E+04</pdfrwt>
<pdfrwt beam="2">  1       -1 0.78024368E-01 0.23169869E+04</pdfrwt>
<totfact> 0.15896581E+00</totfact>
</mgrwt>
</event>
<event>
12    1  0.1504874E-007  0.2562022E+04  0.7818608E-02  0.8381217E-01
          2   -1    0    0  501    0  0.00000000000E+00  0.00000000000E+00  0.12131142886E+04  0.12131142886E+04  0.00000000000E+00 0. -1.
         -2   -1    0    0    0  501 -0.00000000000E+00 -0.00000000000E+00 -0.13527078877E+04  0.13527078877E+04  0.00000000000E+00 0.  1.
         23    2    1    2    0    0  0.35705538389E+03 -0.73955845432E+03 -0.82418431306E+03  0.11676544640E+04  0.98498279084E+02 0.  0.
        254    2    1    2    0    0 -0.35705538389E+03  0.73955845432E+03  0.68459071398E+03  0.13981677123E+04  0.90098460118E+03 0.  0.
        -24    2    4    4    0    0  0.19573162735E+03 -0.43188770494E+02 -0.21507463321E+01  0.21587616235E+03  0.80135834191E+02 0.  0.
         24    2    4    4    0    0 -0.55278701124E+03  0.78274722482E+03  0.68674146031E+03  0.11822915500E+04  0.89066144281E+02 0.  0.
         11    1    3    3    0    0  0.24213171648E+03 -0.46934245993E+03 -0.46448048932E+03  0.70331517670E+03  0.00000000000E+00 0. -1.
        -11    1    3    3    0    0  0.11492366741E+03 -0.27021599439E+03 -0.35970382374E+03  0.46433928735E+03  0.00000000000E+00 0.  1.
          4    1    6    6  502    0 -0.87580456914E+02  0.10424944399E+03  0.13500767726E+03  0.19174294231E+03  0.00000000000E+00 0. -1.
          1    1    5    5  503    0  0.42597010859E+02  0.10757776161E+02 -0.27087024073E+02  0.51613389301E+02  0.00000000000E+00 0. -1.
         -2    1    5    5    0  503  0.15313461649E+03 -0.53946546654E+02  0.24936277741E+02  0.16426277305E+03  0.00000000000E+00 0.  1.
         -3    1    6    6    0  502 -0.46520655432E+03  0.67849778083E+03  0.55173378305E+03  0.99054860765E+03  0.00000000000E+00 0.  1.
<mgrwt>
<rscale>  0 0.25620221E+04</rscale>
<asrwt>0</asrwt>
<pdfrwt beam="1">  1        2 0.18663297E+00 0.25620221E+04</pdfrwt>
<pdfrwt beam="2">  1       -2 0.20810891E+00 0.25620221E+04</pdfrwt>
<totfact> 0.19439006E+00</totfact>
</mgrwt>
</event>
<event>
12    1  0.1504874E-007  0.1591976E+04  0.7818608E-02  0.8825492E-01
          1   -1    0    0  501    0  0.00000000000E+00  0.00000000000E+00  0.14684822051E+04  0.14684822051E+04  0.00000000000E+00 0. -1.
         -1   -1    0    0    0  501 -0.00000000000E+00 -0.00000000000E+00 -0.43146405380E+03  0.43146405380E+03  0.00000000000E+00 0.  1.
         23    2    1    2    0    0 -0.44578948700E+03 -0.25644932051E+03  0.56323515904E+03  0.76926174045E+03  0.10017614599E+03 0.  0.
        254    2    1    2    0    0  0.44578948700E+03  0.25644932051E+03  0.47378299222E+03  0.11306845184E+04  0.88852835394E+03 0.  0.
        -24    2    4    4    0    0  0.39956081145E+03  0.29991438153E+03  0.71081915889E+03  0.87209051966E+03  0.75369221368E+02 0.  0.
         24    2    4    4    0    0  0.46228675552E+02 -0.43465061024E+02 -0.23703616667E+03  0.25859399876E+03  0.81599080347E+02 0.  0.
         11    1    3    3    0    0 -0.38000608876E+03 -0.25433025211E+03  0.50644213669E+03  0.68232847108E+03  0.00000000000E+00 0. -1.
        -11    1    3    3    0    0 -0.65783398243E+02 -0.21190684014E+01  0.56793022350E+02  0.86933269368E+02  0.00000000000E+00 0.  1.
          4    1    6    6  502    0  0.32084592265E+02 -0.31878966484E+02 -0.23598484961E+03  0.24028012570E+03  0.00000000000E+00 0. -1.
          1    1    5    5  503    0  0.28640677903E+03  0.17627149536E+03  0.44383250438E+03  0.55685525506E+03  0.00000000000E+00 0. -1.
         -2    1    5    5    0  503  0.11315403243E+03  0.12364288618E+03  0.26698665451E+03  0.31523526459E+03  0.00000000000E+00 0.  1.
         -3    1    6    6    0  502  0.14144083287E+02 -0.11586094540E+02 -0.10513170601E+01  0.18313873055E+02  0.00000000000E+00 0.  1.
<mgrwt>
<rscale>  0 0.15919765E+04</rscale>
<asrwt>0</asrwt>
<pdfrwt beam="1">  1        1 0.22592034E+00 0.15919765E+04</pdfrwt>
<pdfrwt beam="2">  1       -1 0.66379086E-01 0.15919765E+04</pdfrwt>
<totfact> 0.15192034E+01</totfact>
</mgrwt>
</event>
<event>
12    1  0.1504874E-007  0.2693896E+04  0.7818608E-02  0.8336988E-01
          2   -1    0    0  501    0  0.00000000000E+00  0.00000000000E+00  0.29974787336E+04  0.29974787336E+04  0.00000000000E+00 0.  1.
         -2   -1    0    0    0  501 -0.00000000000E+00 -0.00000000000E+00 -0.60526490359E+03  0.60526490359E+03  0.00000000000E+00 0. -1.
         23    2    1    2    0    0 -0.78415725601E+03 -0.86712180080E+03  0.13887233386E+04  0.18176201823E+04  0.91584912980E+02 0.  0.
        254    2    1    2    0    0  0.78415725601E+03  0.86712180080E+03  0.10034904914E+04  0.17851234549E+04  0.90159290336E+03 0.  0.
        -24    2    4    4    0    0  0.26170394195E+03  0.25230709389E+03  0.89266231988E+03  0.96686165236E+03  0.76338814598E+02 0.  0.
         24    2    4    4    0    0  0.52245331406E+03  0.61481470691E+03  0.11082817155E+03  0.81826180257E+03  0.79466374860E+02 0.  0.
         11    1    3    3    0    0 -0.30654553797E+03 -0.37245670069E+03  0.51252862240E+03  0.70383218846E+03  0.00000000000E+00 0. -1.
        -11    1    3    3    0    0 -0.47761171804E+03 -0.49466510011E+03  0.87619471618E+03  0.11137879938E+04  0.00000000000E+00 0.  1.
          2    1    6    6  502    0  0.41279480771E+03  0.47352391821E+03  0.11838933321E+03  0.63924994221E+03  0.00000000000E+00 0. -1.
          1    1    5    5  503    0  0.14236871296E+03  0.13441960058E+03  0.57824982718E+03  0.61050007542E+03  0.00000000000E+00 0. -1.
         -2    1    5    5    0  503  0.11933522898E+03  0.11788749331E+03  0.31441249270E+03  0.35636157694E+03  0.00000000000E+00 0.  1.
         -1    1    6    6    0  502  0.10965850635E+03  0.14129078870E+03 -0.75611616657E+01  0.17901186036E+03  0.00000000000E+00 0.  1.
<mgrwt>
<rscale>  0 0.26938958E+04</rscale>
<asrwt>0</asrwt>
<pdfrwt beam="1">  1        2 0.46115057E+00 0.26938958E+04</pdfrwt>
<pdfrwt beam="2">  1       -2 0.93117679E-01 0.26938958E+04</pdfrwt>
<totfact> 0.14974865E+00</totfact>
</mgrwt>
</event>
<event>
12    1  0.1504874E-007  0.1255636E+04  0.7818608E-02  0.9065506E-01
          1   -1    0    0  501    0  0.00000000000E+00  0.00000000000E+00  0.91514463043E+03  0.91514463043E+03  0.00000000000E+00 0. -1.
         -1   -1    0    0    0  501 -0.00000000000E+00 -0.00000000000E+00 -0.43070283837E+03  0.43070283837E+03  0.00000000000E+00 0.  1.
         23    2    1    2    0    0  0.19813327500E+03 -0.18329773289E+03 -0.11683505846E+02  0.28517043912E+03  0.91273333957E+02 0.  0.
        254    2    1    2    0    0 -0.19813327500E+03  0.18329773289E+03  0.49612529790E+03  0.10606770297E+04  0.89779763674E+03 0.  0.
        -24    2    4    4    0    0  0.11077031660E+03 -0.29131557067E+03  0.33804947213E+03  0.46730018774E+03  0.83409802207E+02 0.  0.
         24    2    4    4    0    0 -0.30890359159E+03  0.47461330356E+03  0.15807582577E+03  0.59337684194E+03  0.80180378176E+02 0.  0.
         13    1    3    3    0    0  0.46841609827E+02 -0.32955069558E+02  0.34606649035E+02  0.66916314738E+02  0.00000000000E+00 0. -1.
        -13    1    3    3    0    0  0.15129166517E+03 -0.15034266334E+03 -0.46290154881E+02  0.21825412438E+03  0.00000000000E+00 0.  1.
          2    1    6    6  502    0 -0.27851405618E+03  0.37090723848E+03  0.13067195283E+03  0.48188942540E+03  0.00000000000E+00 0. -1.
          3    1    5    5  503    0  0.10882753095E+03 -0.19976402830E+03  0.27090370057E+03  0.35374837593E+03  0.00000000000E+00 0. -1.
         -4    1    5    5    0  503  0.19427856460E+01 -0.91551542370E+02  0.67145771565E+02  0.11355181181E+03  0.00000000000E+00 0.  1.
         -1    1    6    6    0  502 -0.30389535409E+02  0.10370606508E+03  0.27403872937E+02  0.11148741655E+03  0.00000000000E+00 0.  1.
<mgrwt>
<rscale>  0 0.12556359E+04</rscale>
<asrwt>0</asrwt>
<pdfrwt beam="1">  1        1 0.14079148E+00 0.12556359E+04</pdfrwt>
<pdfrwt beam="2">  1       -1 0.66261975E-01 0.12556359E+04</pdfrwt>
<totfact> 0.40242736E+01</totfact>
</mgrwt>
</event>
<event>
12    1  0.1504874E-007  0.2151726E+04  0.7818608E-02  0.8538794E-01
          2   -1    0    0  501    0  0.00000000000E+00  0.00000000000E+00  0.39126023116E+04  0.39126023116E+04  0.00000000000E+00 0.  1.
         -2   -1    0    0    0  501 -0.00000000000E+00 -0.00000000000E+00 -0.29583411225E+03  0.29583411225E+03  0.00000000000E+00 0. -1.
         23    2    1    2    0    0  0.15553841769E+02 -0.13358604089E+03  0.31636588705E+04  0.31678020563E+04  0.90251130606E+02 0.  0.
        254    2    1    2    0    0 -0.15553841769E+02  0.13358604089E+03  0.45310932885E+03  0.10406343676E+04  0.92710553377E+03 0.  0.
        -24    2    4    4    0    0 -0.18955905982E+03  0.60582509464E+02  0.69271670411E+03  0.72515319152E+03  0.79923972708E+02 0.  0.
         24    2    4    4    0    0  0.17400521805E+03  0.73003531423E+02 -0.23960737526E+03  0.31548117604E+03  0.80680522106E+02 0.  0.
         11    1    3    3    0    0  0.19314473798E+02 -0.22506761512E+02  0.15665117014E+04  0.15667924284E+04  0.00000000000E+00 0.  1.
        -11    1    3    3    0    0 -0.37606320287E+01 -0.11107927937E+03  0.15971471692E+04  0.16010096279E+04  0.00000000000E+00 0. -1.
          4    1    6    6  502    0  0.14061274000E+03  0.80190410189E+02 -0.22756414767E+03  0.27926311221E+03  0.00000000000E+00 0. -1.
          1    1    5    5  503    0 -0.19172242135E+03  0.45646167088E+02  0.60925654235E+03  0.64033943640E+03  0.00000000000E+00 0. -1.
         -2    1    5    5    0  503  0.21633615313E+01  0.14936342376E+02  0.83460161757E+02  0.84813755118E+02  0.00000000000E+00 0.  1.
         -3    1    6    6    0  502  0.33392478048E+02 -0.71868787665E+01 -0.12043227588E+02  0.36218063827E+02  0.00000000000E+00 0.  1.
<mgrwt>
<rscale>  0 0.21517260E+04</rscale>
<asrwt>0</asrwt>
<pdfrwt beam="1">  1        2 0.60193878E+00 0.21517260E+04</pdfrwt>
<pdfrwt beam="2">  1       -2 0.45512943E-01 0.21517260E+04</pdfrwt>
<totfact> 0.17000851E+00</totfact>
</mgrwt>
</event>
<event>
12    1  0.1504874E-007  0.2116078E+04  0.7818608E-02  0.8554194E-01
          1   -1    0    0  501    0  0.00000000000E+00  0.00000000000E+00  0.13312748862E+04  0.13312748862E+04  0.00000000000E+00 0. -1.
         -1   -1    0    0    0  501 -0.00000000000E+00 -0.00000000000E+00 -0.84088310587E+03  0.84088310587E+03  0.00000000000E+00 0.  1.
         23    2    1    2    0    0 -0.32085203824E+03  0.78373437751E+03  0.31700234420E+03  0.90886925104E+03  0.91472533157E+02 0.  0.
        254    2    1    2    0    0  0.32085203824E+03 -0.78373437751E+03  0.17338943612E+03  0.12632887410E+04  0.92122144012E+03 0.  0.
        -24    2    4    4    0    0  0.77061968442E+02 -0.66570654440E+03  0.49393817587E+03  0.83631733010E+03  0.79674367309E+02 0.  0.
         24    2    4    4    0    0  0.24379006980E+03 -0.11802783311E+03 -0.32054873975E+03  0.42697141093E+03  0.78669712570E+02 0.  0.
         13    1    3    3    0    0 -0.33063646577E+02  0.14429156293E+03  0.29190825011E+02  0.15088195426E+03  0.00000000000E+00 0.  1.
        -13    1    3    3    0    0 -0.28778839167E+03  0.63944281458E+03  0.28781151919E+03  0.75798729678E+03  0.00000000000E+00 0. -1.
          2    1    6    6  502    0  0.74399174143E+01 -0.15513772187E+02 -0.20566644596E+01  0.17327993747E+02  0.00000000000E+00 0. -1.
          1    1    5    5  503    0 -0.10495570921E+02 -0.89675962639E+02  0.45657712474E+02  0.10117589630E+03  0.00000000000E+00 0. -1.
         -2    1    5    5    0  503  0.87557539363E+02 -0.57603058176E+03  0.44828046340E+03  0.73514143380E+03  0.00000000000E+00 0.  1.
         -1    1    6    6    0  502  0.23635015239E+03 -0.10251406092E+03 -0.31849207529E+03  0.40964341719E+03  0.00000000000E+00 0.  1.
<mgrwt>
<rscale>  0 0.21160780E+04</rscale>
<asrwt>0</asrwt>
<pdfrwt beam="1">  1        1 0.20481152E+00 0.21160780E+04</pdfrwt>
<pdfrwt beam="2">  1       -1 0.12936663E+00 0.21160780E+04</pdfrwt>
<totfact> 0.40520188E+00</totfact>
</mgrwt>
</event>
<event>
12    1  0.1504874E-007  0.3147212E+04  0.7818608E-02  0.8202899E-01
         -2   -1    0    0    0  501 -0.00000000000E+00  0.00000000000E+00  0.77465893230E+03  0.77465893230E+03  0.00000000000E+00 0.  1.
          2   -1    0    0  501    0  0.00000000000E+00 -0.00000000000E+00 -0.31965499055E+04  0.31965499055E+04  0.00000000000E+00 0. -1.
         23    2    1    2    0    0 -0.77228604498E+03  0.55064796542E+03 -0.25035233440E+04  0.26787068127E+04  0.90565653302E+02 0.  0.
        254    2    1    2    0    0  0.77228604498E+03 -0.55064796542E+03  0.81632370776E+02  0.12925020251E+04  0.87421892213E+03 0.  0.
        -24    2    4    4    0    0 -0.15253257559E+03  0.51559086705E+02 -0.21842578988E+02  0.18108814770E+03  0.79945562371E+02 0.  0.
         24    2    4    4    0    0  0.92481862056E+03 -0.60220705212E+03  0.10347494976E+03  0.11114138774E+04  0.81184524714E+02 0.  0.
         11    1    3    3    0    0 -0.45768184805E+02  0.60671454344E+02 -0.22460999268E+03  0.23711895943E+03  0.00000000000E+00 0.  1.
        -11    1    3    3    0    0 -0.72651786017E+03  0.48997651108E+03 -0.22789133513E+04  0.24415878533E+04  0.00000000000E+00 0. -1.
          2    1    6    6  502    0  0.33229642130E+03 -0.26328425194E+03  0.43155839550E+02  0.42614778589E+03  0.00000000000E+00 0. -1.
          1    1    5    5  503    0 -0.73653869468E+02  0.54745302830E+02 -0.39958638588E+02  0.10009312398E+03  0.00000000000E+00 0. -1.
         -2    1    5    5    0  503 -0.78878706118E+02 -0.31862161255E+01  0.18116059601E+02  0.80995023721E+02  0.00000000000E+00 0.  1.
         -1    1    6    6    0  502  0.59252219927E+03 -0.33892280018E+03  0.60319110214E+02  0.68526609150E+03  0.00000000000E+00 0.  1.
<mgrwt>
<rscale>  0 0.31472121E+04</rscale>
<asrwt>0</asrwt>
<pdfrwt beam="1">  1        2 0.49177691E+00 0.31472121E+04</pdfrwt>
<pdfrwt beam="2">  1       -2 0.11917830E+00 0.31472121E+04</pdfrwt>
<totfact> 0.59494177E-01</totfact>
</mgrwt>
</event>
<event>
12    1  0.1504874E-007  0.2076782E+04  0.7818608E-02  0.8571540E-01
         -2   -1    0    0    0  501 -0.00000000000E+00  0.00000000000E+00  0.84004409027E+03  0.84004409027E+03  0.00000000000E+00 0.  1.
          2   -1    0    0  501    0  0.00000000000E+00 -0.00000000000E+00 -0.12835711486E+04  0.12835711486E+04  0.00000000000E+00 0. -1.
         23    2    1    2    0    0 -0.20965283404E+02 -0.20014555059E+03 -0.10174530147E+04  0.10413079518E+04  0.92810714737E+02 0.  0.
        254    2    1    2    0    0  0.20965283404E+02  0.20014555059E+03  0.57392595644E+03  0.10823072870E+04  0.89526547769E+03 0.  0.
        -24    2    4    4    0    0  0.13799557671E+03  0.27612863961E+03 -0.14140531405E+03  0.34890237159E+03  0.80296931778E+02 0.  0.
         24    2    4    4    0    0 -0.11703029331E+03 -0.75983089015E+02  0.71533127048E+03  0.73340491544E+03  0.81941589468E+02 0.  0.
         11    1    3    3    0    0  0.93234801337E+01 -0.16408195693E+03 -0.89783424517E+03  0.91275196394E+03  0.00000000000E+00 0. -1.
        -11    1    3    3    0    0 -0.30288763537E+02 -0.36063593664E+02 -0.11961876957E+03  0.12855598787E+03  0.00000000000E+00 0.  1.
          2    1    6    6  502    0 -0.71948424435E+02 -0.25205642743E+02  0.20763876578E+03  0.22119167538E+03  0.00000000000E+00 0. -1.
          1    1    5    5  503    0  0.88658440639E+01  0.30239291863E+01 -0.22280504639E+02  0.24169572310E+02  0.00000000000E+00 0. -1.
         -2    1    5    5    0  503  0.12912973265E+03  0.27310471042E+03 -0.11912480941E+03  0.32473279928E+03  0.00000000000E+00 0.  1.
         -1    1    6    6    0  502 -0.45081868875E+02 -0.50777446272E+02  0.50769250470E+03  0.51221324005E+03  0.00000000000E+00 0.  1.
<mgrwt>
<rscale>  0 0.20767825E+04</rscale>
<asrwt>0</asrwt>
<pdfrwt beam="1">  1        2 0.19747248E+00 0.20767825E+04</pdfrwt>
<pdfrwt beam="2">  1       -2 0.12923755E+00 0.20767825E+04</pdfrwt>
<totfact> 0.68800994E+00</totfact>
</mgrwt>
</event>
<event>
12    1  0.1504874E-007  0.2111114E+04  0.7818608E-02  0.8556363E-01
         -2   -1    0    0    0  501 -0.00000000000E+00  0.00000000000E+00  0.65617458969E+03  0.65617458969E+03  0.00000000000E+00 0.  1.
          2   -1    0    0  501    0  0.00000000000E+00 -0.00000000000E+00 -0.16980252933E+04  0.16980252933E+04  0.00000000000E+00 0. -1.
         23    2    1    2    0    0  0.26687142690E+03  0.31499137441E+03  0.41196922638E+03  0.59045416852E+03  0.92073650929E+02 0.  0.
        254    2    1    2    0    0 -0.26687142690E+03 -0.31499137441E+03 -0.14538199300E+04  0.17637457145E+04  0.90926708511E+03 0.  0.
        -24    2    4    4    0    0 -0.12264699750E+03 -0.45587804656E+03 -0.14716626978E+04  0.15475602937E+04  0.79276018907E+02 0.  0.
         24    2    4    4    0    0 -0.14422442940E+03  0.14088667215E+03  0.17842767824E+02  0.21618542078E+03  0.75947556690E+02 0.  0.
         13    1    3    3    0    0  0.18712525456E+03  0.18710540195E+03  0.31429082153E+03  0.41085643823E+03  0.00000000000E+00 0.  1.
        -13    1    3    3    0    0  0.79746172333E+02  0.12788597245E+03  0.97678404846E+02  0.17959773029E+03  0.00000000000E+00 0. -1.
          4    1    6    6  502    0 -0.11795653067E+02 -0.63915856588E+01  0.12059966173E+02  0.18039750071E+02  0.00000000000E+00 0. -1.
          1    1    5    5  503    0 -0.46411687068E+02 -0.24701181109E+03 -0.66836878873E+03  0.71406282445E+03  0.00000000000E+00 0. -1.
         -2    1    5    5    0  503 -0.76235310429E+02 -0.20886623547E+03 -0.80329390910E+03  0.83349746927E+03  0.00000000000E+00 0.  1.
         -3    1    6    6    0  502 -0.13242877633E+03  0.14727825781E+03  0.57828016505E+01  0.19814567071E+03  0.00000000000E+00 0.  1.
<mgrwt>
<rscale>  0 0.21111144E+04</rscale>
<asrwt>0</asrwt>
<pdfrwt beam="1">  1        2 0.26123466E+00 0.21111144E+04</pdfrwt>
<pdfrwt beam="2">  1       -2 0.10094994E+00 0.21111144E+04</pdfrwt>
<totfact> 0.73112806E+00</totfact>
</mgrwt>
</event>
<event>
12    1  0.1504874E-007  0.1357937E+04  0.7818608E-02  0.8984842E-01
          2   -1    0    0  501    0  0.00000000000E+00  0.00000000000E+00  0.25084911761E+04  0.25084911761E+04  0.00000000000E+00 0. -1.
         -2   -1    0    0    0  501 -0.00000000000E+00 -0.00000000000E+00 -0.18377504055E+03  0.18377504055E+03  0.00000000000E+00 0.  1.
         23    2    1    2    0    0 -0.24257636628E+03  0.23568902999E+03  0.34217828818E+03  0.49053637703E+03  0.95641747974E+02 0.  0.
        254    2    1    2    0    0  0.24257636628E+03 -0.23568902999E+03  0.19825378474E+04  0.22017298396E+04  0.89597173954E+03 0.  0.
        -24    2    4    4    0    0  0.11035412790E+03 -0.49226995749E+03  0.60187879193E+03  0.78945111490E+03  0.80419139788E+02 0.  0.
         24    2    4    4    0    0  0.13222223838E+03  0.25658092750E+03  0.13806590555E+04  0.14122787247E+04  0.70677268201E+02 0.  0.
         11    1    3    3    0    0 -0.64051210391E+02  0.13503955484E+02  0.50070933702E+02  0.82413668575E+02  0.00000000000E+00 0. -1.
        -11    1    3    3    0    0 -0.17852515589E+03  0.22218507450E+03  0.29210735448E+03  0.40812270846E+03  0.00000000000E+00 0.  1.
          4    1    6    6  502    0  0.12988563824E+03  0.22096799448E+03  0.12817746857E+04  0.13071509012E+04  0.00000000000E+00 0. -1.
          1    1    5    5  503    0  0.10362961413E+03 -0.43176318134E+03  0.56375551351E+03  0.71762024825E+03  0.00000000000E+00 0. -1.
         -2    1    5    5    0  503  0.67245137663E+01 -0.60506776150E+02  0.38123278416E+02  0.71830866643E+02  0.00000000000E+00 0.  1.
         -3    1    6    6    0  502  0.23366001441E+01  0.35612933024E+02  0.98884369739E+02  0.10512782352E+03  0.00000000000E+00 0.  1.
<mgrwt>
<rscale>  0 0.13579368E+04</rscale>
<asrwt>0</asrwt>
<pdfrwt beam="1">  1        2 0.38592170E+00 0.13579368E+04</pdfrwt>
<pdfrwt beam="2">  1       -2 0.28273085E-01 0.13579368E+04</pdfrwt>
<totfact> 0.38632515E+01</totfact>
</mgrwt>
</event>
<event>
12    1  0.1504874E-007  0.1608881E+04  0.7818608E-02  0.8815110E-01
         -1   -1    0    0    0  501 -0.00000000000E+00  0.00000000000E+00  0.25878702125E+03  0.25878702125E+03  0.00000000000E+00 0.  1.
          1   -1    0    0  501    0  0.00000000000E+00 -0.00000000000E+00 -0.25006073259E+04  0.25006073259E+04  0.00000000000E+00 0. -1.
         23    2    1    2    0    0  0.13540080338E+03  0.51788850467E+02 -0.17932492891E+04  0.18017323969E+04  0.97371220608E+02 0.  0.
        254    2    1    2    0    0 -0.13540080338E+03 -0.51788850467E+02 -0.44857101552E+03  0.95766195021E+03  0.83359762016E+03 0.  0.
        -24    2    4    4    0    0  0.32015376897E+03  0.11605135819E+03 -0.22981576965E+03  0.41912508906E+03  0.82971071898E+02 0.  0.
         24    2    4    4    0    0 -0.45555457235E+03 -0.16784020866E+03 -0.21875524586E+03  0.53853686115E+03  0.80422566437E+02 0.  0.
         13    1    3    3    0    0 -0.10235636632E+02 -0.50292098077E+01 -0.42040106412E+02  0.43559519690E+02  0.00000000000E+00 0.  1.
        -13    1    3    3    0    0  0.14563644001E+03  0.56818060274E+02 -0.17512091827E+04  0.17581728772E+04  0.00000000000E+00 0. -1.
          4    1    6    6  502    0 -0.76534277239E+02 -0.62154671432E+02 -0.41341054796E+02  0.10691015660E+03  0.00000000000E+00 0. -1.
          3    1    5    5  503    0  0.70075012771E+02  0.63989946787E+02 -0.68001802329E+02  0.11674530322E+03  0.00000000000E+00 0. -1.
         -4    1    5    5    0  503  0.25007875620E+03  0.52061411403E+02 -0.16181396732E+03  0.30237978583E+03  0.00000000000E+00 0.  1.
         -3    1    6    6    0  502 -0.37902029511E+03 -0.10568553722E+03 -0.17741419107E+03  0.43162670455E+03  0.00000000000E+00 0.  1.
<mgrwt>
<rscale>  0 0.16088813E+04</rscale>
<asrwt>0</asrwt>
<pdfrwt beam="1">  1        1 0.38470884E+00 0.16088813E+04</pdfrwt>
<pdfrwt beam="2">  1       -1 0.39813386E-01 0.16088813E+04</pdfrwt>
<totfact> 0.79881002E+00</totfact>
</mgrwt>
</event>
<event>
12    1  0.1504874E-007  0.1813103E+04  0.7818608E-02  0.8699362E-01
         -1   -1    0    0    0  501 -0.00000000000E+00  0.00000000000E+00  0.10610158526E+04  0.10610158526E+04  0.00000000000E+00 0.  1.
          1   -1    0    0  501    0  0.00000000000E+00 -0.00000000000E+00 -0.77457440577E+03  0.77457440577E+03  0.00000000000E+00 0. -1.
         23    2    1    2    0    0  0.22895497321E+03 -0.41511751652E+03 -0.37518999830E+03  0.61156075887E+03  0.92174262591E+02 0.  0.
        254    2    1    2    0    0 -0.22895497321E+03  0.41511751652E+03  0.66163144516E+03  0.12240294995E+04  0.91419314931E+03 0.  0.
        -24    2    4    4    0    0 -0.20704026579E+03  0.33282907355E+03 -0.13261816859E+03  0.42125305752E+03  0.78903079626E+02 0.  0.
         24    2    4    4    0    0 -0.21914707420E+02  0.82288442970E+02  0.79424961375E+03  0.80277644202E+03  0.79786744924E+02 0.  0.
         11    1    3    3    0    0  0.61813716385E+02 -0.54267180790E+02 -0.91664462634E+02  0.12315939328E+03  0.00000000000E+00 0.  1.
        -11    1    3    3    0    0  0.16714125682E+03 -0.36085033573E+03 -0.28352553566E+03  0.48840136558E+03  0.00000000000E+00 0. -1.
          2    1    6    6  502    0 -0.50009368881E+01  0.11256022576E+02  0.47988849517E+03  0.48004653442E+03  0.00000000000E+00 0. -1.
          1    1    5    5  503    0 -0.46012239249E+02  0.11412173685E+03 -0.10583948626E+02  0.12350270018E+03  0.00000000000E+00 0. -1.
         -2    1    5    5    0  503 -0.16102802654E+03  0.21870733670E+03 -0.12203421997E+03  0.29775035735E+03  0.00000000000E+00 0.  1.
         -1    1    6    6    0  502 -0.16913770532E+02  0.71032420394E+02  0.31436111858E+03  0.32272990759E+03  0.00000000000E+00 0.  1.
<mgrwt>
<rscale>  0 0.18131031E+04</rscale>
<asrwt>0</asrwt>
<pdfrwt beam="1">  1        1 0.11916529E+00 0.18131031E+04</pdfrwt>
<pdfrwt beam="2">  1       -1 0.16323321E+00 0.18131031E+04</pdfrwt>
<totfact> 0.60623362E+00</totfact>
</mgrwt>
</event>
<event>
12    1  0.1504874E-007  0.1539220E+04  0.7818608E-02  0.8858783E-01
          2   -1    0    0  501    0  0.00000000000E+00  0.00000000000E+00  0.25848936560E+04  0.25848936560E+04  0.00000000000E+00 0. -1.
         -2   -1    0    0    0  501 -0.00000000000E+00 -0.00000000000E+00 -0.22913870899E+03  0.22913870899E+03  0.00000000000E+00 0.  1.
         23    2    1    2    0    0  0.69708305768E+02  0.50637358316E+03  0.46135364762E+03  0.69472401756E+03  0.92308281245E+02 0.  0.
        254    2    1    2    0    0 -0.69708305768E+02 -0.50637358316E+03  0.18944012994E+04  0.21193083474E+04  0.80089832984E+03 0.  0.
        -24    2    4    4    0    0  0.12479652929E+03 -0.27712832941E+03  0.17485192509E+04  0.17765537084E+04  0.80307057990E+02 0.  0.
         24    2    4    4    0    0 -0.19450483506E+03 -0.22924525375E+03  0.14588204850E+03  0.34275463898E+03  0.76247316315E+02 0.  0.
         11    1    3    3    0    0 -0.23419541218E+00  0.22985133201E+01 -0.43306828661E+01  0.49084442607E+01  0.00000000000E+00 0. -1.
        -11    1    3    3    0    0  0.69942501180E+02  0.50407506984E+03  0.46568433048E+03  0.68981557329E+03  0.00000000000E+00 0.  1.
          2    1    6    6  502    0 -0.18249165968E+03 -0.21629999914E+03  0.15522498711E+03  0.32277498680E+03  0.00000000000E+00 0. -1.
          3    1    5    5  503    0  0.11020216797E+03 -0.14864174711E+03  0.10367857868E+04  0.10531683885E+04  0.00000000000E+00 0. -1.
         -4    1    5    5    0  503  0.14594361320E+02 -0.12848658230E+03  0.71173346407E+03  0.72338531993E+03  0.00000000000E+00 0.  1.
         -1    1    6    6    0  502 -0.12013175385E+02 -0.12945254607E+02 -0.93429386121E+01  0.19979652189E+02  0.00000000000E+00 0.  1.
<mgrwt>
<rscale>  0 0.15392195E+04</rscale>
<asrwt>0</asrwt>
<pdfrwt beam="1">  1        2 0.39767593E+00 0.15392195E+04</pdfrwt>
<pdfrwt beam="2">  1       -2 0.35252111E-01 0.15392195E+04</pdfrwt>
<totfact> 0.22679272E+01</totfact>
</mgrwt>
</event>
<event>
12    1  0.1504874E-007  0.3950988E+04  0.7818608E-02  0.8014507E-01
          1   -1    0    0  501    0  0.00000000000E+00  0.00000000000E+00  0.18722816984E+04  0.18722816984E+04  0.00000000000E+00 0. -1.
         -1   -1    0    0    0  501 -0.00000000000E+00 -0.00000000000E+00 -0.20843960347E+04  0.20843960347E+04  0.00000000000E+00 0.  1.
         23    2    1    2    0    0  0.62700958073E+03 -0.12739388382E+04 -0.13193192504E+04  0.19404183242E+04  0.92513839381E+02 0.  0.
        254    2    1    2    0    0 -0.62700958073E+03  0.12739388382E+04  0.11072049141E+04  0.20162594090E+04  0.90737980164E+03 0.  0.
        -24    2    4    4    0    0 -0.31440941900E+03  0.12782224729E+04  0.10565806158E+04  0.16898823950E+04  0.81448991436E+02 0.  0.
         24    2    4    4    0    0 -0.31260016172E+03 -0.42836347011E+01  0.50624298361E+02  0.32637701396E+03  0.78879179895E+02 0.  0.
         13    1    3    3    0    0  0.60452839515E+03 -0.12392475595E+04 -0.12989931188E+04  0.18943527171E+04  0.00000000000E+00 0.  1.
        -13    1    3    3    0    0  0.22481185576E+02 -0.34691278775E+02 -0.20326131571E+02  0.46065607046E+02  0.00000000000E+00 0. -1.
          2    1    6    6  502    0 -0.15118458128E+03  0.31445610095E+02  0.34626343596E+01  0.15445903615E+03  0.00000000000E+00 0. -1.
          1    1    5    5  503    0 -0.24992387069E+03  0.10865608077E+04  0.92427759827E+03  0.14482283690E+04  0.00000000000E+00 0. -1.
         -2    1    5    5    0  503 -0.64485548312E+02  0.19166166523E+03  0.13230301750E+03  0.24165402603E+03  0.00000000000E+00 0.  1.
         -1    1    6    6    0  502 -0.16141558045E+03 -0.35729244796E+02  0.47161664001E+02  0.17191797781E+03  0.00000000000E+00 0.  1.
<mgrwt>
<rscale>  0 0.39509880E+04</rscale>
<asrwt>0</asrwt>
<pdfrwt beam="1">  1        1 0.28804334E+00 0.39509880E+04</pdfrwt>
<pdfrwt beam="2">  1       -1 0.32067631E+00 0.39509880E+04</pdfrwt>
<totfact> 0.69256765E-02</totfact>
</mgrwt>
</event>
<event>
12    1  0.1504874E-007  0.2752709E+04  0.7818608E-02  0.8318102E-01
         -2   -1    0    0    0  501 -0.00000000000E+00  0.00000000000E+00  0.45445404989E+03  0.45445404989E+03  0.00000000000E+00 0.  1.
          2   -1    0    0  501    0  0.00000000000E+00 -0.00000000000E+00 -0.41684130767E+04  0.41684130767E+04  0.00000000000E+00 0. -1.
         23    2    1    2    0    0 -0.17262550047E+03 -0.63032511367E+03  0.84981345294E+02  0.66541897717E+03  0.91930809804E+02 0.  0.
        254    2    1    2    0    0  0.17262550047E+03  0.63032511367E+03 -0.37989403721E+04  0.39574481494E+04  0.89573354978E+03 0.  0.
        -24    2    4    4    0    0 -0.18337723159E+03  0.91751346250E+02 -0.24492211145E+04  0.24589316495E+04  0.74935108764E+02 0.  0.
         24    2    4    4    0    0  0.35600273206E+03  0.53857376742E+03 -0.13497192576E+04  0.14985164999E+04  0.83725611624E+02 0.  0.
         11    1    3    3    0    0 -0.17824018980E+03 -0.62252924453E+03  0.91259420862E+02  0.65394228144E+03  0.00000000000E+00 0.  1.
        -11    1    3    3    0    0  0.56146893371E+01 -0.77958691401E+01 -0.62780755687E+01  0.11476695729E+02  0.00000000000E+00 0. -1.
          2    1    6    6  502    0  0.35578928286E+03  0.54002926170E+03 -0.13501035566E+04  0.14969960691E+04  0.00000000000E+00 0. -1.
          3    1    5    5  503    0 -0.16174727082E+03  0.47618380433E+02 -0.18197628397E+04  0.18275575182E+04  0.00000000000E+00 0. -1.
         -4    1    5    5    0  503 -0.21629960772E+02  0.44132965817E+02 -0.62945827483E+03  0.63137413126E+03  0.00000000000E+00 0.  1.
         -3    1    6    6    0  502  0.21344919564E+00 -0.14554942850E+01  0.38429902180E+00  0.15204308307E+01  0.00000000000E+00 0.  1.
<mgrwt>
<rscale>  0 0.27527094E+04</rscale>
<asrwt>0</asrwt>
<pdfrwt beam="1">  1        2 0.64129429E+00 0.27527094E+04</pdfrwt>
<pdfrwt beam="2">  1       -2 0.69916011E-01 0.27527094E+04</pdfrwt>
<totfact> 0.40369382E-01</totfact>
</mgrwt>
</event>
<event>
12    1  0.1504874E-007  0.1226745E+04  0.7818608E-02  0.9089764E-01
         -2   -1    0    0    0  501 -0.00000000000E+00  0.00000000000E+00  0.64180980474E+03  0.64180980474E+03  0.00000000000E+00 0.  1.
          2   -1    0    0  501    0  0.00000000000E+00 -0.00000000000E+00 -0.58619485021E+03  0.58619485021E+03  0.00000000000E+00 0. -1.
         23    2    1    2    0    0 -0.26235457187E+03  0.48224707434E+02 -0.33424909456E+01  0.28229470088E+03  0.92323247967E+02 0.  0.
        254    2    1    2    0    0  0.26235457187E+03 -0.48224707434E+02  0.58957445470E+02  0.94570995406E+03  0.90539261818E+03 0.  0.
        -24    2    4    4    0    0  0.55990684329E+03 -0.18928912241E+03 -0.25341114609E+02  0.59650708757E+03  0.76501558186E+02 0.  0.
         24    2    4    4    0    0 -0.29755227142E+03  0.14106441498E+03  0.84298560079E+02  0.34920286649E+03  0.79999195823E+02 0.  0.
         13    1    3    3    0    0 -0.25466548878E+01 -0.60773245835E+01  0.14853687459E+02  0.16249657114E+02  0.00000000000E+00 0.  1.
        -13    1    3    3    0    0 -0.25980791698E+03  0.54302032018E+02 -0.18196178404E+02  0.26604504377E+03  0.00000000000E+00 0. -1.
          2    1    6    6  502    0 -0.15434975645E+03  0.10309629107E+03  0.76762035381E+02  0.20086090367E+03  0.00000000000E+00 0. -1.
          3    1    5    5  503    0  0.43216166932E+03 -0.17795165278E+03 -0.11402557889E+02  0.46750456413E+03  0.00000000000E+00 0. -1.
         -4    1    5    5    0  503  0.12774517397E+03 -0.11337469632E+02 -0.13938556721E+02  0.12900252344E+03  0.00000000000E+00 0.  1.
         -1    1    6    6    0  502 -0.14320251498E+03  0.37968123902E+02  0.75365246980E+01  0.14834196282E+03  0.00000000000E+00 0.  1.
<mgrwt>
<rscale>  0 0.12267446E+04</rscale>
<asrwt>0</asrwt>
<pdfrwt beam="1">  1        2 0.90183823E-01 0.12267446E+04</pdfrwt>
<pdfrwt beam="2">  1       -2 0.98739970E-01 0.12267446E+04</pdfrwt>
<totfact> 0.42780016E+01</totfact>
</mgrwt>
</event>
<event>
12    1  0.1504874E-007  0.2080339E+04  0.7818608E-02  0.8569954E-01
         -2   -1    0    0    0  501 -0.00000000000E+00  0.00000000000E+00  0.33006750783E+03  0.33006750783E+03  0.00000000000E+00 0. -1.
          2   -1    0    0  501    0  0.00000000000E+00 -0.00000000000E+00 -0.32779745796E+04  0.32779745796E+04  0.00000000000E+00 0.  1.
         23    2    1    2    0    0 -0.65049058827E+03 -0.27996078800E+03 -0.20116376061E+04  0.21346250250E+04  0.91771950369E+02 0.  0.
        254    2    1    2    0    0  0.65049058827E+03  0.27996078800E+03 -0.93626946573E+03  0.14734170625E+04  0.89041635166E+03 0.  0.
        -24    2    4    4    0    0  0.38065187494E+03 -0.28764706164E+03 -0.26859006805E+03  0.55303811646E+03  0.77934919243E+02 0.  0.
         24    2    4    4    0    0  0.26983871332E+03  0.56760784964E+03 -0.66767939768E+03  0.92037894602E+03  0.79435659527E+02 0.  0.
         11    1    3    3    0    0 -0.12021109177E+03 -0.80096862097E+02 -0.33533157765E+03  0.36512118656E+03  0.00000000000E+00 0. -1.
        -11    1    3    3    0    0 -0.53027949649E+03 -0.19986392590E+03 -0.16763060284E+04  0.17695038384E+04  0.00000000000E+00 0.  1.
          2    1    6    6  502    0 -0.13844826887E+01  0.41600352199E+02 -0.41208573216E+02  0.58571773081E+02  0.00000000000E+00 0. -1.
          3    1    5    5  503    0  0.31416457601E+02 -0.45361242148E+02 -0.52706349437E+02  0.76305932721E+02  0.00000000000E+00 0. -1.
         -4    1    5    5    0  503  0.34923541734E+03 -0.24228581949E+03 -0.21588371862E+03  0.47673218374E+03  0.00000000000E+00 0.  1.
         -1    1    6    6    0  502  0.27122319601E+03  0.52600749744E+03 -0.62647082446E+03  0.86180717294E+03  0.00000000000E+00 0.  1.
<mgrwt>
<rscale>  0 0.20803393E+04</rscale>
<asrwt>0</asrwt>
<pdfrwt beam="1">  1        2 0.50430377E+00 0.20803393E+04</pdfrwt>
<pdfrwt beam="2">  1       -2 0.50779618E-01 0.20803393E+04</pdfrwt>
<totfact> 0.39118352E+00</totfact>
</mgrwt>
</event>
<event>
12    1  0.1504874E-007  0.2873757E+04  0.7818608E-02  0.8280729E-01
          2   -1    0    0  501    0  0.00000000000E+00  0.00000000000E+00  0.12598981441E+04  0.12598981441E+04  0.00000000000E+00 0. -1.
         -2   -1    0    0    0  501 -0.00000000000E+00 -0.00000000000E+00 -0.16387191395E+04  0.16387191395E+04  0.00000000000E+00 0.  1.
         23    2    1    2    0    0  0.34621368049E+03 -0.89477312397E+03 -0.10200971002E+04  0.14035634753E+04  0.94390037793E+02 0.  0.
        254    2    1    2    0    0 -0.34621368049E+03  0.89477312397E+03  0.64127610486E+03  0.14950538083E+04  0.95050933244E+03 0.  0.
        -24    2    4    4    0    0 -0.31648447547E+03  0.37645534697E+03 -0.17162373487E+03  0.52718407631E+03  0.81162136925E+02 0.  0.
         24    2    4    4    0    0 -0.29729205021E+02  0.51831777699E+03  0.81289983973E+03  0.96786973197E+03  0.80178083367E+02 0.  0.
         13    1    3    3    0    0  0.91514258159E+02 -0.13897945736E+03 -0.18341367321E+03  0.24765040790E+03  0.00000000000E+00 0. -1.
        -13    1    3    3    0    0  0.25469942233E+03 -0.75579366661E+03 -0.83668342702E+03  0.11559130674E+04  0.00000000000E+00 0.  1.
          4    1    6    6  502    0 -0.32174356083E+02  0.47585520973E+03  0.69831868730E+03  0.84564907547E+03  0.00000000000E+00 0. -1.
          3    1    5    5  503    0 -0.30677649550E+03  0.37809918153E+03 -0.17399880221E+03  0.51705550228E+03  0.00000000000E+00 0. -1.
         -4    1    5    5    0  503 -0.97079799719E+01 -0.16438345573E+01  0.23750673379E+01  0.10128574038E+02  0.00000000000E+00 0.  1.
         -3    1    6    6    0  502  0.24451510626E+01  0.42462567262E+02  0.11458115243E+03  0.12222065649E+03  0.00000000000E+00 0.  1.
<mgrwt>
<rscale>  0 0.28737566E+04</rscale>
<asrwt>0</asrwt>
<pdfrwt beam="1">  1        2 0.19383048E+00 0.28737566E+04</pdfrwt>
<pdfrwt beam="2">  1       -2 0.25211064E+00 0.28737566E+04</pdfrwt>
<totfact> 0.94139885E-01</totfact>
</mgrwt>
</event>
<event>
12    1  0.1504874E-007  0.1193991E+04  0.7818608E-02  0.9118132E-01
          2   -1    0    0  501    0  0.00000000000E+00  0.00000000000E+00  0.19876696673E+04  0.19876696673E+04  0.00000000000E+00 0. -1.
         -2   -1    0    0    0  501 -0.00000000000E+00 -0.00000000000E+00 -0.17930735081E+03  0.17930735081E+03  0.00000000000E+00 0.  1.
         23    2    1    2    0    0 -0.62998642619E+02 -0.22936782809E+03  0.26812018853E+03  0.36998977785E+03  0.91790907384E+02 0.  0.
        254    2    1    2    0    0  0.62998642619E+02  0.22936782809E+03  0.15402421280E+04  0.17969872403E+04  0.89456072986E+03 0.  0.
        -24    2    4    4    0    0  0.32946076308E+03  0.14455573997E+03  0.18868087560E+03  0.41446934320E+03  0.82119469494E+02 0.  0.
         24    2    4    4    0    0 -0.26646212046E+03  0.84812088122E+02  0.13515612524E+04  0.13825178971E+04  0.80266835569E+02 0.  0.
         11    1    3    3    0    0 -0.31497234674E+02 -0.13076770251E+03  0.83458232048E+02  0.15829574950E+03  0.00000000000E+00 0.  1.
        -11    1    3    3    0    0 -0.31501407945E+02 -0.98600125578E+02  0.18466195649E+03  0.21169402835E+03  0.00000000000E+00 0. -1.
          2    1    6    6  502    0 -0.56812848460E+02  0.25766788561E+02  0.17078924381E+03  0.18182572135E+03  0.00000000000E+00 0. -1.
          1    1    5    5  503    0  0.13691732123E+03  0.61449347523E+02  0.12496320880E+03  0.19528998622E+03  0.00000000000E+00 0. -1.
         -2    1    5    5    0  503  0.19254344185E+03  0.83106392444E+02  0.63717666796E+02  0.21917935698E+03  0.00000000000E+00 0.  1.
         -1    1    6    6    0  502 -0.20964927200E+03  0.59045299561E+02  0.11807720086E+04  0.12006921757E+04  0.00000000000E+00 0.  1.
<mgrwt>
<rscale>  0 0.11939913E+04</rscale>
<asrwt>0</asrwt>
<pdfrwt beam="1">  1        2 0.30579532E+00 0.11939913E+04</pdfrwt>
<pdfrwt beam="2">  1       -2 0.27585748E-01 0.11939913E+04</pdfrwt>
<totfact> 0.80389395E+01</totfact>
</mgrwt>
</event>
<event>
12    1  0.1504874E-007  0.4127837E+04  0.7818608E-02  0.7979243E-01
         -1   -1    0    0    0  501 -0.00000000000E+00  0.00000000000E+00  0.29624316025E+04  0.29624316025E+04  0.00000000000E+00 0.  1.
          1   -1    0    0  501    0  0.00000000000E+00 -0.00000000000E+00 -0.14379270269E+04  0.14379270269E+04  0.00000000000E+00 0. -1.
         23    2    1    2    0    0 -0.53595472250E+03 -0.18807021731E+03 -0.12818562759E+04  0.14050036543E+04  0.90894914134E+02 0.  0.
        254    2    1    2    0    0  0.53595472250E+03  0.18807021731E+03  0.28063608514E+04  0.29953549751E+04  0.87970013472E+03 0.  0.
        -24    2    4    4    0    0  0.33038628164E+03 -0.14521549049E+03  0.35895100882E+03  0.51559188466E+03  0.82137269361E+02 0.  0.
         24    2    4    4    0    0  0.20556844085E+03  0.33328570779E+03  0.24474098426E+04  0.24797630904E+04  0.77924963652E+02 0.  0.
         11    1    3    3    0    0 -0.22369769878E+03 -0.68881852629E+02 -0.63770169694E+03  0.67930024609E+03  0.00000000000E+00 0.  1.
        -11    1    3    3    0    0 -0.31225702371E+03 -0.11918836468E+03 -0.64415457897E+03  0.72570340825E+03  0.00000000000E+00 0. -1.
          2    1    6    6  502    0  0.67548834292E+02  0.17916870893E+03  0.12596226144E+04  0.12740931685E+04  0.00000000000E+00 0. -1.
          3    1    5    5  503    0  0.31062206909E+03 -0.12697892536E+03  0.29728430652E+03  0.44831649110E+03  0.00000000000E+00 0. -1.
         -4    1    5    5    0  503  0.19764212555E+02 -0.18236565127E+02  0.61666702308E+02  0.67275393564E+02  0.00000000000E+00 0.  1.
         -1    1    6    6    0  502  0.13801960656E+03  0.15411699887E+03  0.11877872282E+04  0.12056699219E+04  0.00000000000E+00 0.  1.
<mgrwt>
<rscale>  0 0.41278374E+04</rscale>
<asrwt>0</asrwt>
<pdfrwt beam="1">  1        1 0.22121954E+00 0.41278374E+04</pdfrwt>
<pdfrwt beam="2">  1       -1 0.45575871E+00 0.41278374E+04</pdfrwt>
<totfact> 0.16535126E-02</totfact>
</mgrwt>
</event>
<event>
12    1  0.1504874E-007  0.3071563E+04  0.7818608E-02  0.8223586E-01
          2   -1    0    0  501    0  0.00000000000E+00  0.00000000000E+00  0.23077605725E+04  0.23077605725E+04  0.00000000000E+00 0. -1.
         -2   -1    0    0    0  501 -0.00000000000E+00 -0.00000000000E+00 -0.10220406369E+04  0.10220406369E+04  0.00000000000E+00 0.  1.
         23    2    1    2    0    0 -0.54682470570E+03  0.11033439382E+04  0.13123541937E+04  0.18035997883E+04  0.11963929904E+03 0.  0.
        254    2    1    2    0    0  0.54682470570E+03 -0.11033439382E+04 -0.26634258120E+02  0.15262014211E+04  0.90121933479E+03 0.  0.
        -24    2    4    4    0    0  0.22888649206E+03 -0.56845659184E+03 -0.45509232767E+03  0.76751440006E+03  0.80233437768E+02 0.  0.
         24    2    4    4    0    0  0.31793821363E+03 -0.53488734637E+03  0.42845806955E+03  0.75868702107E+03  0.69573684549E+02 0.  0.
         11    1    3    3    0    0 -0.47475495403E+03  0.89549292278E+03  0.10225984832E+04  0.14397942558E+04  0.00000000000E+00 0. -1.
        -11    1    3    3    0    0 -0.72069751669E+02  0.20785101543E+03  0.28975571057E+03  0.36380553257E+03  0.00000000000E+00 0.  1.
          4    1    6    6  502    0  0.28733925594E+03 -0.50161565653E+03  0.37679847810E+03  0.69004290300E+03  0.00000000000E+00 0. -1.
          3    1    5    5  503    0  0.22768928064E+03 -0.56065301714E+03 -0.45820335222E+03  0.75902867280E+03  0.00000000000E+00 0. -1.
         -4    1    5    5    0  503  0.11972114224E+01 -0.78035746972E+01  0.31110245534E+01  0.84857272533E+01  0.00000000000E+00 0.  1.
         -3    1    6    6    0  502  0.30598957696E+02 -0.33271689837E+02  0.51659591455E+02  0.68644118073E+02  0.00000000000E+00 0.  1.
<mgrwt>
<rscale>  0 0.30715632E+04</rscale>
<asrwt>0</asrwt>
<pdfrwt beam="1">  1        2 0.35504009E+00 0.30715632E+04</pdfrwt>
<pdfrwt beam="2">  1       -2 0.15723702E+00 0.30715632E+04</pdfrwt>
<totfact> 0.10085706E+00</totfact>
</mgrwt>
</event>
<event>
12    1  0.1504874E-007  0.1962332E+04  0.7818608E-02  0.8624437E-01
          2   -1    0    0  501    0  0.00000000000E+00  0.00000000000E+00  0.31267174528E+04  0.31267174528E+04  0.00000000000E+00 0. -1.
         -2   -1    0    0    0  501 -0.00000000000E+00 -0.00000000000E+00 -0.30789048225E+03  0.30789048225E+03  0.00000000000E+00 0.  1.
         23    2    1    2    0    0 -0.19187799573E+03  0.56638256876E+03  0.19800836370E+04  0.20704671232E+04  0.92176564987E+02 0.  0.
        254    2    1    2    0    0  0.19187799573E+03 -0.56638256876E+03  0.83874333358E+03  0.13641408119E+04  0.89430609731E+03 0.  0.
        -24    2    4    4    0    0 -0.31559974794E+03 -0.24597911401E+02  0.30601360763E+03  0.44732791923E+03  0.79054924710E+02 0.  0.
         24    2    4    4    0    0  0.50747774367E+03 -0.54178465736E+03  0.53272972595E+03  0.91681289269E+03  0.75370047217E+02 0.  0.
         11    1    3    3    0    0 -0.62163428537E+02  0.23920853506E+03  0.96302012154E+03  0.99422973682E+03  0.00000000000E+00 0. -1.
        -11    1    3    3    0    0 -0.12971456719E+03  0.32717403371E+03  0.10170635155E+04  0.10762373863E+04  0.00000000000E+00 0.  1.
          2    1    6    6  502    0  0.44162714391E+01 -0.19052777662E+02  0.66183890646E+01  0.20647393634E+02  0.00000000000E+00 0. -1.
          1    1    5    5  503    0 -0.18264095022E+03  0.24884002353E+02  0.17790615333E+03  0.25617870650E+03  0.00000000000E+00 0. -1.
         -4    1    5    5    0  503 -0.13295879772E+03 -0.49481913754E+02  0.12810745430E+03  0.19114921273E+03  0.00000000000E+00 0.  1.
         -1    1    6    6    0  502  0.50306147223E+03 -0.52273187970E+03  0.52611133689E+03  0.89616549906E+03  0.00000000000E+00 0.  1.
<mgrwt>
<rscale>  0 0.19623318E+04</rscale>
<asrwt>0</asrwt>
<pdfrwt beam="1">  1        2 0.48103343E+00 0.19623318E+04</pdfrwt>
<pdfrwt beam="2">  1       -2 0.47367769E-01 0.19623318E+04</pdfrwt>
<totfact> 0.57135193E+00</totfact>
</mgrwt>
</event>
<event>
12    1  0.1504874E-007  0.3446402E+04  0.7818608E-02  0.8126611E-01
          1   -1    0    0  501    0  0.00000000000E+00  0.00000000000E+00  0.36722360967E+04  0.36722360967E+04  0.00000000000E+00 0. -1.
         -1   -1    0    0    0  501 -0.00000000000E+00 -0.00000000000E+00 -0.80861423811E+03  0.80861423811E+03  0.00000000000E+00 0.  1.
         23    2    1    2    0    0  0.11960801706E+04 -0.10490492012E+04  0.10597709826E+04  0.19137728472E+04  0.91104193030E+02 0.  0.
        254    2    1    2    0    0 -0.11960801706E+04  0.10490492012E+04  0.18038508759E+04  0.25670774876E+04  0.89716043346E+03 0.  0.
        -24    2    4    4    0    0 -0.48061479975E+03 -0.64536396382E+02  0.60628837391E+03  0.78007443126E+03  0.75993379772E+02 0.  0.
         24    2    4    4    0    0 -0.71546537088E+03  0.11135855976E+04  0.11975625020E+04  0.17870030563E+04  0.85207962362E+02 0.  0.
         11    1    3    3    0    0  0.61893327944E+02 -0.46459758563E+02  0.75561365519E+02  0.10816105200E+03  0.00000000000E+00 0. -1.
        -11    1    3    3    0    0  0.11341868427E+04 -0.10025894427E+04  0.98420961712E+03  0.18056117952E+04  0.00000000000E+00 0.  1.
          2    1    6    6  502    0 -0.66572857874E+03  0.99945374117E+03  0.11044503832E+04  0.16315369963E+04  0.00000000000E+00 0. -1.
          1    1    5    5  503    0 -0.40831094321E+03 -0.80244718982E+02  0.49882869428E+03  0.64960534751E+03  0.00000000000E+00 0. -1.
         -2    1    5    5    0  503 -0.72303856535E+02  0.15708322600E+02  0.10745967963E+03  0.13046908375E+03  0.00000000000E+00 0.  1.
         -1    1    6    6    0  502 -0.49736792138E+02  0.11413185644E+03  0.93112118844E+02  0.15546606003E+03  0.00000000000E+00 0.  1.
<mgrwt>
<rscale>  0 0.34464024E+04</rscale>
<asrwt>0</asrwt>
<pdfrwt beam="1">  1        1 0.56495939E+00 0.34464024E+04</pdfrwt>
<pdfrwt beam="2">  1       -1 0.12440219E+00 0.34464024E+04</pdfrwt>
<totfact> 0.84227417E-02</totfact>
</mgrwt>
</event>
<event>
12    1  0.1504874E-007  0.3352027E+04  0.7818608E-02  0.8149782E-01
         -1   -1    0    0    0  501 -0.00000000000E+00  0.00000000000E+00  0.95325736217E+03  0.95325736217E+03  0.00000000000E+00 0.  1.
          1   -1    0    0  501    0  0.00000000000E+00 -0.00000000000E+00 -0.29467614944E+04  0.29467614944E+04  0.00000000000E+00 0. -1.
         23    2    1    2    0    0  0.17787574745E+03 -0.30649747243E+03  0.83449127839E+03  0.91101937572E+03  0.89443429607E+02 0.  0.
        254    2    1    2    0    0 -0.17787574745E+03  0.30649747243E+03 -0.28279954106E+04  0.29889994808E+04  0.90054393112E+03 0.  0.
        -24    2    4    4    0    0 -0.25669603692E+03  0.58983938340E+03 -0.21495828424E+04  0.22450941628E+04  0.77058741834E+02 0.  0.
         24    2    4    4    0    0  0.78820289475E+02 -0.28334191097E+03 -0.67841256817E+03  0.74390531805E+03  0.81585740339E+02 0.  0.
         11    1    3    3    0    0  0.25949396592E+02 -0.93946389384E+02  0.15576622504E+03  0.18374550913E+03  0.00000000000E+00 0. -1.
        -11    1    3    3    0    0  0.15192635085E+03 -0.21255108305E+03  0.67872505335E+03  0.72727386659E+03  0.00000000000E+00 0.  1.
          2    1    6    6  502    0  0.31484277926E+02 -0.74790366933E+02 -0.11075884407E+03  0.13730397038E+03  0.00000000000E+00 0. -1.
          3    1    5    5  503    0 -0.11640070687E+03  0.17752673809E+03 -0.68992086193E+03  0.72184185458E+03  0.00000000000E+00 0. -1.
         -4    1    5    5    0  503 -0.14029533005E+03  0.41231264531E+03 -0.14596619805E+04  0.15232523082E+04  0.00000000000E+00 0.  1.
         -1    1    6    6    0  502  0.47336011549E+02 -0.20855154403E+03 -0.56765372410E+03  0.60660134767E+03  0.00000000000E+00 0.  1.
<mgrwt>
<rscale>  0 0.33520275E+04</rscale>
<asrwt>0</asrwt>
<pdfrwt beam="1">  1        1 0.45334792E+00 0.33520275E+04</pdfrwt>
<pdfrwt beam="2">  1       -1 0.14665498E+00 0.33520275E+04</pdfrwt>
<totfact> 0.19995937E-01</totfact>
</mgrwt>
</event>
<event>
12    1  0.1504874E-007  0.1420305E+04  0.7818608E-02  0.8939251E-01
          1   -1    0    0  501    0  0.00000000000E+00  0.00000000000E+00  0.97988892677E+03  0.97988892677E+03  0.00000000000E+00 0. -1.
         -1   -1    0    0    0  501 -0.00000000000E+00 -0.00000000000E+00 -0.51466698196E+03  0.51466698196E+03  0.00000000000E+00 0.  1.
         23    2    1    2    0    0 -0.43178475122E+02 -0.30139399037E+03 -0.16308652745E+03  0.35829751822E+03  0.95274225149E+02 0.  0.
        254    2    1    2    0    0  0.43178475122E+02  0.30139399037E+03  0.62830847226E+03  0.11362583905E+04  0.89644234368E+03 0.  0.
        -24    2    4    4    0    0  0.70072531995E+02 -0.24525086104E+03 -0.38550963530E+02  0.26986471150E+03  0.79263113376E+02 0.  0.
         24    2    4    4    0    0 -0.26894056873E+02  0.54664485142E+03  0.66685943579E+03  0.86639367901E+03  0.79953836948E+02 0.  0.
         13    1    3    3    0    0 -0.49978262016E+02 -0.30640966975E+03 -0.15711537522E+03  0.34795107920E+03  0.00000000000E+00 0.  1.
        -13    1    3    3    0    0  0.67997868937E+01  0.50156793709E+01 -0.59711522284E+01  0.10346439015E+02  0.00000000000E+00 0. -1.
          4    1    6    6  502    0 -0.20215666795E+02  0.38376028419E+02  0.37030411908E+02  0.57031957245E+02  0.00000000000E+00 0. -1.
          1    1    5    5  503    0  0.21015669768E+01 -0.10016472977E+03 -0.44297546322E+02  0.10954297003E+03  0.00000000000E+00 0. -1.
         -2    1    5    5    0  503  0.67970965018E+02 -0.14508613127E+03  0.57465827928E+01  0.16032174147E+03  0.00000000000E+00 0.  1.
         -3    1    6    6    0  502 -0.66783900778E+01  0.50826882300E+03  0.62982902388E+03  0.80936172176E+03  0.00000000000E+00 0.  1.
<mgrwt>
<rscale>  0 0.14203049E+04</rscale>
<asrwt>0</asrwt>
<pdfrwt beam="1">  1        1 0.15075214E+00 0.14203049E+04</pdfrwt>
<pdfrwt beam="2">  1       -1 0.79179536E-01 0.14203049E+04</pdfrwt>
<totfact> 0.24364709E+01</totfact>
</mgrwt>
</event>
<event>
12    1  0.1504874E-007  0.1200902E+04  0.7818608E-02  0.9112068E-01
         -1   -1    0    0    0  501 -0.00000000000E+00  0.00000000000E+00  0.11308283033E+04  0.11308283033E+04  0.00000000000E+00 0.  1.
          1   -1    0    0  501    0  0.00000000000E+00 -0.00000000000E+00 -0.31882923738E+03  0.31882923738E+03  0.00000000000E+00 0. -1.
         23    2    1    2    0    0  0.79396925262E+01  0.69483338840E+02 -0.11052357866E+03  0.16101797162E+03  0.93916732537E+02 0.  0.
        254    2    1    2    0    0 -0.79396925262E+01 -0.69483338840E+02  0.92252264453E+03  0.12886395690E+04  0.89702449022E+03 0.  0.
        -24    2    4    4    0    0 -0.41585455109E+03  0.11122184524E+03  0.36839907103E+03  0.57276740576E+03  0.83900649816E+02 0.  0.
         24    2    4    4    0    0  0.40791485857E+03 -0.18070518408E+03  0.55412357350E+03  0.71587216325E+03  0.79819321099E+02 0.  0.
         13    1    3    3    0    0 -0.40132839782E+02  0.40986159917E+02 -0.35468508460E+02  0.67442755179E+02  0.00000000000E+00 0.  1.
        -13    1    3    3    0    0  0.48072532308E+02  0.28497178923E+02 -0.75055070197E+02  0.93575216437E+02  0.00000000000E+00 0. -1.
          2    1    6    6  502    0  0.30473908374E+02 -0.11110788751E+02  0.81415810688E+02  0.87639277429E+02  0.00000000000E+00 0. -1.
          1    1    5    5  503    0 -0.21823440491E+03  0.18341181101E+02  0.16322334026E+03  0.27313826758E+03  0.00000000000E+00 0. -1.
         -2    1    5    5    0  503 -0.19762014618E+03  0.92880664139E+02  0.20517573078E+03  0.29962913818E+03  0.00000000000E+00 0.  1.
         -1    1    6    6    0  502  0.37744095019E+03 -0.16959439533E+03  0.47270776281E+03  0.62823288582E+03  0.00000000000E+00 0.  1.
<mgrwt>
<rscale>  0 0.12009015E+04</rscale>
<asrwt>0</asrwt>
<pdfrwt beam="1">  1        1 0.49050653E-01 0.12009015E+04</pdfrwt>
<pdfrwt beam="2">  1       -1 0.17397358E+00 0.12009015E+04</pdfrwt>
<totfact> 0.18437924E+01</totfact>
</mgrwt>
</event>
<event>
12    1  0.1504874E-007  0.1210392E+04  0.7818608E-02  0.9103809E-01
          3   -1    0    0  501    0  0.00000000000E+00  0.00000000000E+00  0.24205873913E+03  0.24205873913E+03  0.00000000000E+00 0. -1.
         -3   -1    0    0    0  501 -0.00000000000E+00 -0.00000000000E+00 -0.15131128173E+04  0.15131128173E+04  0.00000000000E+00 0.  1.
         23    2    1    2    0    0  0.19085297360E+03 -0.12398701740E+03 -0.45721073291E+03  0.51866436023E+03  0.90407003398E+02 0.  0.
        254    2    1    2    0    0 -0.19085297360E+03  0.12398701740E+03 -0.81384334528E+03  0.12365071962E+04  0.90266905213E+03 0.  0.
        -24    2    4    4    0    0  0.14435154868E+03  0.43547101810E+03 -0.38163601597E+03  0.60230336701E+03  0.81553172955E+02 0.  0.
         24    2    4    4    0    0 -0.33520452228E+03 -0.31148400069E+03 -0.43220732931E+03  0.63420382922E+03  0.77633543294E+02 0.  0.
         13    1    3    3    0    0  0.15619199520E+03 -0.69859819550E+02 -0.38886518310E+03  0.42484404713E+03  0.00000000000E+00 0.  1.
        -13    1    3    3    0    0  0.34660978394E+02 -0.54127197853E+02 -0.68345549814E+02  0.93820313099E+02  0.00000000000E+00 0. -1.
          2    1    6    6  502    0 -0.51498579755E+01  0.25948447896E+01 -0.16366813719E+02  0.17353006885E+02  0.00000000000E+00 0. -1.
          3    1    5    5  503    0  0.66750249699E+01  0.13780310552E+03 -0.10963291150E+03  0.17622039364E+03  0.00000000000E+00 0. -1.
         -4    1    5    5    0  503  0.13767652371E+03  0.29766791258E+03 -0.27200310447E+03  0.42608297337E+03  0.00000000000E+00 0.  1.
         -1    1    6    6    0  502 -0.33005466430E+03 -0.31407884548E+03 -0.41584051559E+03  0.61685082233E+03  0.00000000000E+00 0.  1.
<mgrwt>
<rscale>  0 0.12103920E+04</rscale>
<asrwt>0</asrwt>
<pdfrwt beam="1">  1        3 0.37239806E-01 0.12103920E+04</pdfrwt>
<pdfrwt beam="2">  1       -3 0.23278659E+00 0.12103920E+04</pdfrwt>
<totfact> 0.17111473E+00</totfact>
</mgrwt>
</event>
<event>
12    1  0.1504874E-007  0.1292152E+04  0.7818608E-02  0.9035812E-01
         -3   -1    0    0    0  501 -0.00000000000E+00  0.00000000000E+00  0.14512779257E+04  0.14512779257E+04  0.00000000000E+00 0.  1.
          3   -1    0    0  501    0  0.00000000000E+00 -0.00000000000E+00 -0.28761821549E+03  0.28761821549E+03  0.00000000000E+00 0. -1.
         23    2    1    2    0    0  0.26197604683E+03 -0.12303348058E+03  0.67755720876E+02  0.31168221000E+03  0.93735136750E+02 0.  0.
        254    2    1    2    0    0 -0.26197604683E+03  0.12303348058E+03  0.10959039894E+04  0.14272139312E+04  0.86727467684E+03 0.  0.
        -24    2    4    4    0    0 -0.27458967716E+03 -0.57790783100E+02 -0.19937581325E+02  0.29400035710E+03  0.85436745092E+02 0.  0.
         24    2    4    4    0    0  0.12613630332E+02  0.18082426368E+03  0.11158415707E+04  0.11332135741E+04  0.78829408662E+02 0.  0.
         11    1    3    3    0    0  0.47951904360E+02  0.13997369605E+02  0.14680707594E+02  0.52065676439E+02  0.00000000000E+00 0.  1.
        -11    1    3    3    0    0  0.21402414247E+03 -0.13703085018E+03  0.53075013282E+02  0.25961653356E+03  0.00000000000E+00 0. -1.
          4    1    6    6  502    0  0.45365111420E+02  0.11998186054E+03  0.75415428232E+03  0.76498517747E+03  0.00000000000E+00 0. -1.
          3    1    5    5  503    0 -0.23325085791E+03 -0.77400044973E+02 -0.28658279519E+02  0.24742276909E+03  0.00000000000E+00 0. -1.
         -4    1    5    5    0  503 -0.41338819253E+02  0.19609261873E+02  0.87206981944E+01  0.46577588016E+02  0.00000000000E+00 0.  1.
         -3    1    6    6    0  502 -0.32751481088E+02  0.60842403134E+02  0.36168728835E+03  0.36822839664E+03  0.00000000000E+00 0.  1.
<mgrwt>
<rscale>  0 0.12921516E+04</rscale>
<asrwt>0</asrwt>
<pdfrwt beam="1">  1        3 0.44248957E-01 0.12921516E+04</pdfrwt>
<pdfrwt beam="2">  1       -3 0.22327352E+00 0.12921516E+04</pdfrwt>
<totfact> 0.13766210E+00</totfact>
</mgrwt>
</event>
<event>
12    1  0.1504874E-007  0.2639365E+04  0.7818608E-02  0.8354952E-01
          1   -1    0    0  501    0  0.00000000000E+00  0.00000000000E+00  0.10730795370E+04  0.10730795370E+04  0.00000000000E+00 0. -1.
         -1   -1    0    0    0  501 -0.00000000000E+00 -0.00000000000E+00 -0.16229567454E+04  0.16229567454E+04  0.00000000000E+00 0.  1.
         23    2    1    2    0    0 -0.17112401300E+01 -0.86351461092E+03  0.55330753568E+03  0.10300817746E+04  0.96222771175E+02 0.  0.
        254    2    1    2    0    0  0.17112401300E+01  0.86351461092E+03 -0.11031847440E+04  0.16659545078E+04  0.90151396607E+03 0.  0.
        -24    2    4    4    0    0  0.29963184579E+03  0.51399623493E+03 -0.10322236513E+04  0.11944472695E+04  0.85130727866E+02 0.  0.
         24    2    4    4    0    0 -0.29792060566E+03  0.34951837600E+03 -0.70961092761E+02  0.47150723832E+03  0.79773533631E+02 0.  0.
         11    1    3    3    0    0 -0.15132349621E+02 -0.16328816518E+03  0.14802434522E+03  0.22091450760E+03  0.00000000000E+00 0.  1.
        -11    1    3    3    0    0  0.13421109491E+02 -0.70022644575E+03  0.40528319046E+03  0.80916726699E+03  0.00000000000E+00 0. -1.
          4    1    6    6  502    0 -0.28679357837E+03  0.32914224858E+03 -0.48572592208E+02  0.43925445144E+03  0.00000000000E+00 0. -1.
          1    1    5    5  503    0  0.19121351090E+03  0.38794651179E+03 -0.69768699590E+03  0.82087285678E+03  0.00000000000E+00 0. -1.
         -2    1    5    5    0  503  0.10841833489E+03  0.12604972314E+03 -0.33453665536E+03  0.37357441270E+03  0.00000000000E+00 0.  1.
         -3    1    6    6    0  502 -0.11127027292E+02  0.20376127420E+02 -0.22388500553E+02  0.32252786887E+02  0.00000000000E+00 0.  1.
<mgrwt>
<rscale>  0 0.26393648E+04</rscale>
<asrwt>0</asrwt>
<pdfrwt beam="1">  1        1 0.16508916E+00 0.26393648E+04</pdfrwt>
<pdfrwt beam="2">  1       -1 0.24968565E+00 0.26393648E+04</pdfrwt>
<totfact> 0.81700182E-01</totfact>
</mgrwt>
</event>
<event>
12    1  0.1504874E-007  0.1788638E+04  0.7818608E-02  0.8712365E-01
          1   -1    0    0  501    0  0.00000000000E+00  0.00000000000E+00  0.16588197821E+04  0.16588197821E+04  0.00000000000E+00 0. -1.
         -1   -1    0    0    0  501 -0.00000000000E+00 -0.00000000000E+00 -0.48215412478E+03  0.48215412478E+03  0.00000000000E+00 0.  1.
         23    2    1    2    0    0  0.57379585627E+03 -0.34917107295E+03  0.53443669981E+03  0.86319442133E+03  0.91213486086E+02 0.  0.
        254    2    1    2    0    0 -0.57379585627E+03  0.34917107295E+03  0.64222895753E+03  0.12777794856E+04  0.87698361273E+03 0.  0.
        -24    2    4    4    0    0 -0.24619861724E+03  0.25404553997E+03 -0.16453807865E+03  0.39819711063E+03  0.79594372177E+02 0.  0.
         24    2    4    4    0    0 -0.32759723903E+03  0.95125532985E+02  0.80676703618E+03  0.87958237494E+03  0.80145402769E+02 0.  0.
         11    1    3    3    0    0  0.15402436437E+03 -0.13458825284E+03  0.13283991953E+03  0.24389331037E+03  0.00000000000E+00 0. -1.
        -11    1    3    3    0    0  0.41977149190E+03 -0.21458282011E+03  0.40159678029E+03  0.61930111096E+03  0.00000000000E+00 0.  1.
          4    1    6    6  502    0 -0.19744597015E+03  0.88105394617E+02  0.43799137753E+03  0.48845052818E+03  0.00000000000E+00 0. -1.
          3    1    5    5  503    0 -0.13018591360E+03  0.82565623928E+02 -0.52932300520E+02  0.16299473241E+03  0.00000000000E+00 0. -1.
         -4    1    5    5    0  503 -0.11601270364E+03  0.17147991604E+03 -0.11160577813E+03  0.23520237823E+03  0.00000000000E+00 0.  1.
         -3    1    6    6    0  502 -0.13015126889E+03  0.70201383677E+01  0.36877565865E+03  0.39113184676E+03  0.00000000000E+00 0.  1.
<mgrwt>
<rscale>  0 0.17886384E+04</rscale>
<asrwt>0</asrwt>
<pdfrwt beam="1">  1        1 0.25520304E+00 0.17886384E+04</pdfrwt>
<pdfrwt beam="2">  1       -1 0.74177558E-01 0.17886384E+04</pdfrwt>
<totfact> 0.87871655E+00</totfact>
</mgrwt>
</event>
<event>
12    1  0.1504874E-007  0.2305413E+04  0.7818608E-02  0.8475790E-01
          1   -1    0    0  501    0  0.00000000000E+00  0.00000000000E+00  0.16473597137E+04  0.16473597137E+04  0.00000000000E+00 0. -1.
         -1   -1    0    0    0  501 -0.00000000000E+00 -0.00000000000E+00 -0.80658309532E+03  0.80658309532E+03  0.00000000000E+00 0.  1.
         23    2    1    2    0    0  0.59497287370E+03 -0.59052299627E+03 -0.16905830125E+03  0.86021176170E+03  0.93131284689E+02 0.  0.
        254    2    1    2    0    0 -0.59497287370E+03  0.59052299627E+03  0.10098349196E+04  0.15937310473E+04  0.90415814805E+03 0.  0.
        -24    2    4    4    0    0 -0.25072494904E+01  0.13283601327E+03  0.79636683147E+03  0.81181469458E+03  0.84801387698E+02 0.  0.
         24    2    4    4    0    0 -0.59246562421E+03  0.45768698300E+03  0.21346808814E+03  0.78191635271E+03  0.73018269665E+02 0.  0.
         13    1    3    3    0    0  0.32936147333E+03 -0.37463584261E+03 -0.13153002960E+03  0.51587900070E+03  0.00000000000E+00 0.  1.
        -13    1    3    3    0    0  0.26561140038E+03 -0.21588715366E+03 -0.37528271640E+02  0.34433276100E+03  0.00000000000E+00 0. -1.
          4    1    6    6  502    0 -0.18693066417E+02  0.16336055903E+02  0.21925134104E+02  0.33121125585E+02  0.00000000000E+00 0. -1.
          3    1    5    5  503    0  0.58690630940E+01  0.10097753370E+03  0.35243679090E+03  0.36666415122E+03  0.00000000000E+00 0. -1.
         -4    1    5    5    0  503 -0.83763125844E+01  0.31858479573E+02  0.44393004057E+03  0.44515054336E+03  0.00000000000E+00 0.  1.
         -3    1    6    6    0  502 -0.57377255780E+03  0.44135092710E+03  0.19154295404E+03  0.74879522713E+03  0.00000000000E+00 0.  1.
<mgrwt>
<rscale>  0 0.23054132E+04</rscale>
<asrwt>0</asrwt>
<pdfrwt beam="1">  1        1 0.25343996E+00 0.23054132E+04</pdfrwt>
<pdfrwt beam="2">  1       -1 0.12408971E+00 0.23054132E+04</pdfrwt>
<totfact> 0.26658940E+00</totfact>
</mgrwt>
</event>
<event>
12    1  0.1504874E-007  0.2285976E+04  0.7818608E-02  0.8483471E-01
         -1   -1    0    0    0  501 -0.00000000000E+00  0.00000000000E+00  0.44788369671E+03  0.44788369671E+03  0.00000000000E+00 0.  1.
          1   -1    0    0  501    0  0.00000000000E+00 -0.00000000000E+00 -0.29168780025E+04  0.29168780025E+04  0.00000000000E+00 0. -1.
         23    2    1    2    0    0 -0.90756285884E+03 -0.52722609599E+02 -0.15494789873E+04  0.17985640052E+04  0.86587137023E+02 0.  0.
        254    2    1    2    0    0  0.90756285884E+03  0.52722609599E+02 -0.91951531847E+03  0.15661976940E+04  0.88375153724E+03 0.  0.
        -24    2    4    4    0    0  0.17901237581E+03 -0.30932626490E+03 -0.56896380576E+03  0.67663717904E+03  0.79936793433E+02 0.  0.
         24    2    4    4    0    0  0.72855048302E+03  0.36204887450E+03 -0.35055151271E+03  0.88956051499E+03  0.81033036028E+02 0.  0.
         11    1    3    3    0    0 -0.66250868148E+03 -0.35528012240E+02 -0.12032006961E+04  0.13739985109E+04  0.00000000000E+00 0. -1.
        -11    1    3    3    0    0 -0.24505417736E+03 -0.17194597359E+02 -0.34627829120E+03  0.42456549433E+03  0.00000000000E+00 0.  1.
          4    1    6    6  502    0  0.46698880781E+03  0.20292625822E+03 -0.25056657160E+03  0.56748675729E+03  0.00000000000E+00 0. -1.
          3    1    5    5  503    0  0.33081655276E+02 -0.82534667875E+02 -0.87280211282E+02  0.12459615804E+03  0.00000000000E+00 0. -1.
         -4    1    5    5    0  503  0.14593072054E+03 -0.22679159702E+03 -0.48168359448E+03  0.55204102100E+03  0.00000000000E+00 0.  1.
         -3    1    6    6    0  502  0.26156167521E+03  0.15912261627E+03 -0.99984941113E+02  0.32207375770E+03  0.00000000000E+00 0.  1.
<mgrwt>
<rscale>  0 0.22859765E+04</rscale>
<asrwt>0</asrwt>
<pdfrwt beam="1">  1        1 0.44875047E+00 0.22859765E+04</pdfrwt>
<pdfrwt beam="2">  1       -1 0.68905182E-01 0.22859765E+04</pdfrwt>
<totfact> 0.13253956E+00</totfact>
</mgrwt>
</event>
<event>
12    1  0.1504874E-007  0.1332927E+04  0.7818608E-02  0.9003854E-01
          2   -1    0    0  501    0  0.00000000000E+00  0.00000000000E+00  0.13714417900E+04  0.13714417900E+04  0.00000000000E+00 0. -1.
         -2   -1    0    0    0  501 -0.00000000000E+00 -0.00000000000E+00 -0.32387328482E+03  0.32387328482E+03  0.00000000000E+00 0.  1.
         23    2    1    2    0    0  0.24219077223E+03  0.20875796365E+02  0.62270438707E+03  0.67439814539E+03  0.89218472312E+02 0.  0.
        254    2    1    2    0    0 -0.24219077223E+03 -0.20875796365E+02  0.42486411807E+03  0.10209169294E+04  0.89591834944E+03 0.  0.
        -24    2    4    4    0    0 -0.37760651150E+03  0.34437438470E+03  0.15412076070E+03  0.54002700327E+03  0.81826407861E+02 0.  0.
         24    2    4    4    0    0  0.13541573927E+03 -0.36525018106E+03  0.27074335737E+03  0.48088992612E+03  0.78791105300E+02 0.  0.
         11    1    3    3    0    0  0.52956944384E+02 -0.31801050331E+02  0.17171916410E+03  0.18249168770E+03  0.00000000000E+00 0.  1.
        -11    1    3    3    0    0  0.18923382784E+03  0.52676846696E+02  0.45098522297E+03  0.49190645769E+03  0.00000000000E+00 0. -1.
          4    1    6    6  502    0  0.44254105519E+02 -0.23058989248E+03  0.16230198840E+03  0.28543310917E+03  0.00000000000E+00 0. -1.
          3    1    5    5  503    0 -0.16868547275E+03  0.20740664659E+03  0.68954336022E+02  0.27609238712E+03  0.00000000000E+00 0. -1.
         -4    1    5    5    0  503 -0.20892103875E+03  0.13696773811E+03  0.85166424679E+02  0.26393461616E+03  0.00000000000E+00 0.  1.
         -3    1    6    6    0  502  0.91161633753E+02 -0.13466028858E+03  0.10844136896E+03  0.19545681695E+03  0.00000000000E+00 0.  1.
<mgrwt>
<rscale>  0 0.13329266E+04</rscale>
<asrwt>0</asrwt>
<pdfrwt beam="1">  1        2 0.21099104E+00 0.13329266E+04</pdfrwt>
<pdfrwt beam="2">  1       -2 0.49826660E-01 0.13329266E+04</pdfrwt>
<totfact> 0.55995190E+01</totfact>
</mgrwt>
</event>
<event>
12    1  0.1504874E-007  0.2811234E+04  0.7818608E-02  0.8299789E-01
         -2   -1    0    0    0  501 -0.00000000000E+00  0.00000000000E+00  0.88763673238E+03  0.88763673238E+03  0.00000000000E+00 0.  1.
          2   -1    0    0  501    0  0.00000000000E+00 -0.00000000000E+00 -0.22258637913E+04  0.22258637913E+04  0.00000000000E+00 0. -1.
         23    2    1    2    0    0  0.91060729903E+03  0.80516838394E+03 -0.23103258120E+03  0.12405194746E+04  0.89502702116E+02 0.  0.
        254    2    1    2    0    0 -0.91060729903E+03 -0.80516838394E+03 -0.11071944777E+04  0.18729810491E+04  0.89703769113E+03 0.  0.
        -24    2    4    4    0    0 -0.34750448553E+02 -0.17437738622E+03  0.12562697910E+03  0.23248303024E+03  0.81554613436E+02 0.  0.
         24    2    4    4    0    0 -0.87585685047E+03 -0.63079099772E+03 -0.12328214568E+04  0.16404980189E+04  0.79765281989E+02 0.  0.
         11    1    3    3    0    0  0.26196146121E+02  0.47174564924E+02 -0.75996706514E+01  0.54492500781E+02  0.00000000000E+00 0. -1.
        -11    1    3    3    0    0  0.88441115290E+03  0.75799381902E+03 -0.22343291055E+03  0.11860269738E+04  0.00000000000E+00 0.  1.
          2    1    6    6  502    0 -0.63235151224E+03 -0.43083213958E+03 -0.82636313258E+03  0.11262152523E+04  0.00000000000E+00 0. -1.
          1    1    5    5  503    0 -0.42187096978E+02 -0.17609993244E+03  0.10239277352E+03  0.20802696322E+03  0.00000000000E+00 0. -1.
         -2    1    5    5    0  503  0.74366484248E+01  0.17225462196E+01  0.23234205580E+02  0.24456067022E+02  0.00000000000E+00 0.  1.
         -1    1    6    6    0  502 -0.24350533823E+03 -0.19995885813E+03 -0.40645832424E+03  0.51428276662E+03  0.00000000000E+00 0.  1.
<mgrwt>
<rscale>  0 0.28112335E+04</rscale>
<asrwt>0</asrwt>
<pdfrwt beam="1">  1        2 0.34244057E+00 0.28112335E+04</pdfrwt>
<pdfrwt beam="2">  1       -2 0.13655950E+00 0.28112335E+04</pdfrwt>
<totfact> 0.16628488E+00</totfact>
</mgrwt>
</event>
<event>
12    1  0.1504874E-007  0.1747254E+04  0.7818608E-02  0.8734863E-01
         -1   -1    0    0    0  501 -0.00000000000E+00  0.00000000000E+00  0.90218722246E+03  0.90218722246E+03  0.00000000000E+00 0.  1.
          1   -1    0    0  501    0  0.00000000000E+00 -0.00000000000E+00 -0.84597076601E+03  0.84597076601E+03  0.00000000000E+00 0. -1.
         23    2    1    2    0    0 -0.35912293767E+03 -0.31506942056E+03 -0.38565006190E+03  0.62057120461E+03  0.90247579619E+02 0.  0.
        254    2    1    2    0    0  0.35912293767E+03  0.31506942056E+03  0.44186651834E+03  0.11275867839E+04  0.92085173127E+03 0.  0.
        -24    2    4    4    0    0  0.40980030132E+03 -0.22911191445E+03  0.13505988361E+03  0.49573209953E+03  0.84146218214E+02 0.  0.
         24    2    4    4    0    0 -0.50677363649E+02  0.54418133500E+03  0.30680663473E+03  0.63185468433E+03  0.80053172630E+02 0.  0.
         13    1    3    3    0    0 -0.27724083818E+03 -0.24154903327E+03 -0.34205582730E+03  0.50220574152E+03  0.00000000000E+00 0. -1.
        -13    1    3    3    0    0 -0.81882099489E+02 -0.73520387284E+02 -0.43594234601E+02  0.11836546309E+03  0.00000000000E+00 0.  1.
          2    1    6    6  502    0 -0.34958251664E+02  0.46373524684E+03  0.22716423001E+03  0.51756743127E+03  0.00000000000E+00 0. -1.
          3    1    5    5  503    0  0.35142077312E+03 -0.19964041144E+03  0.84104387881E+02  0.41282732676E+03  0.00000000000E+00 0. -1.
         -4    1    5    5    0  503  0.58379528200E+02 -0.29471503002E+02  0.50955495734E+02  0.82904772767E+02  0.00000000000E+00 0.  1.
         -1    1    6    6    0  502 -0.15719111985E+02  0.80446088166E+02  0.79642404717E+02  0.11428725306E+03  0.00000000000E+00 0.  1.
<mgrwt>
<rscale>  0 0.17472539E+04</rscale>
<asrwt>0</asrwt>
<pdfrwt beam="1">  1        1 0.13014935E+00 0.17472539E+04</pdfrwt>
<pdfrwt beam="2">  1       -1 0.13879803E+00 0.17472539E+04</pdfrwt>
<totfact> 0.82036747E+00</totfact>
</mgrwt>
</event>
<event>
12    1  0.1504874E-007  0.1866550E+04  0.7818608E-02  0.8671688E-01
          1   -1    0    0  501    0  0.00000000000E+00  0.00000000000E+00  0.84906183719E+03  0.84906183719E+03  0.00000000000E+00 0. -1.
         -1   -1    0    0    0  501 -0.00000000000E+00 -0.00000000000E+00 -0.10258405994E+04  0.10258405994E+04  0.00000000000E+00 0.  1.
         23    2    1    2    0    0 -0.40167730975E+03  0.23208500083E+03  0.48619335983E+03  0.67786441904E+03  0.88927378724E+02 0.  0.
        254    2    1    2    0    0  0.40167730975E+03 -0.23208500083E+03 -0.66297212204E+03  0.11970380176E+04  0.88213370420E+03 0.  0.
        -24    2    4    4    0    0  0.94251691752E+02  0.15999346664E+03 -0.66207428260E+03  0.69225581473E+03  0.79965408598E+02 0.  0.
         24    2    4    4    0    0  0.30742561800E+03 -0.39207846747E+03 -0.89783943830E+00  0.50478220283E+03  0.81044623031E+02 0.  0.
         13    1    3    3    0    0 -0.17788642822E+03  0.75385132792E+02  0.25530996222E+03  0.32017132351E+03  0.00000000000E+00 0.  1.
        -13    1    3    3    0    0 -0.22379088153E+03  0.15669986804E+03  0.23088339760E+03  0.35769309553E+03  0.00000000000E+00 0. -1.
          4    1    6    6  502    0  0.27651263623E+03 -0.36672104874E+03  0.19893964024E+02  0.45971658159E+03  0.00000000000E+00 0. -1.
          1    1    5    5  503    0  0.48664270493E+02  0.38172855046E+02 -0.32746345861E+03  0.33325319925E+03  0.00000000000E+00 0. -1.
         -2    1    5    5    0  503  0.45587421260E+02  0.12182061159E+03 -0.33461082399E+03  0.35900261547E+03  0.00000000000E+00 0.  1.
         -3    1    6    6    0  502  0.30912981768E+02 -0.25357418727E+02 -0.20791803462E+02  0.45065621237E+02  0.00000000000E+00 0.  1.
<mgrwt>
<rscale>  0 0.18665499E+04</rscale>
<asrwt>0</asrwt>
<pdfrwt beam="1">  1        1 0.13062490E+00 0.18665499E+04</pdfrwt>
<pdfrwt beam="2">  1       -1 0.15782163E+00 0.18665499E+04</pdfrwt>
<totfact> 0.57160441E+00</totfact>
</mgrwt>
</event>
<event>
12    1  0.1504874E-007  0.4030329E+04  0.7818608E-02  0.7998456E-01
          2   -1    0    0  501    0  0.00000000000E+00  0.00000000000E+00  0.34292984101E+04  0.34292984101E+04  0.00000000000E+00 0.  1.
         -2   -1    0    0    0  501 -0.00000000000E+00 -0.00000000000E+00 -0.11841743714E+04  0.11841743714E+04  0.00000000000E+00 0. -1.
         23    2    1    2    0    0  0.26017367289E+03 -0.17472995694E+04  0.19087126744E+04  0.26025229938E+04  0.95894392200E+02 0.  0.
        254    2    1    2    0    0 -0.26017367289E+03  0.17472995694E+04  0.33641136422E+03  0.20109497877E+04  0.90000017623E+03 0.  0.
        -24    2    4    4    0    0 -0.52666464849E+03  0.12126436022E+04  0.44690825216E+03  0.13980176361E+04  0.82741568811E+02 0.  0.
         24    2    4    4    0    0  0.26649097560E+03  0.53465596723E+03 -0.11049688793E+03  0.61293215154E+03  0.81251564745E+02 0.  0.
         13    1    3    3    0    0  0.22851067886E+02 -0.42790913953E+03  0.47304498100E+03  0.63827890224E+03  0.00000000000E+00 0. -1.
        -13    1    3    3    0    0  0.23732260501E+03 -0.13193904299E+04  0.14356676934E+04  0.19642440916E+04  0.00000000000E+00 0.  1.
          2    1    6    6  502    0  0.24133657915E+03  0.43655020801E+03 -0.69359206174E+02  0.50361704502E+03  0.00000000000E+00 0. -1.
          3    1    5    5  503    0 -0.43643991766E+03  0.94245326285E+03  0.37495162015E+03  0.11042131460E+04  0.00000000000E+00 0. -1.
         -4    1    5    5    0  503 -0.90224730831E+02  0.27019033935E+03  0.71956632009E+02  0.29380449014E+03  0.00000000000E+00 0.  1.
         -1    1    6    6    0  502  0.25154396447E+02  0.98105759224E+02 -0.41137681761E+02  0.10931510652E+03  0.00000000000E+00 0.  1.
<mgrwt>
<rscale>  0 0.40303287E+04</rscale>
<asrwt>0</asrwt>
<pdfrwt beam="1">  1        2 0.52758437E+00 0.40303287E+04</pdfrwt>
<pdfrwt beam="2">  1       -2 0.18218067E+00 0.40303287E+04</pdfrwt>
<totfact> 0.12527424E-01</totfact>
</mgrwt>
</event>
<event>
12    1  0.1504874E-007  0.3324475E+04  0.7818608E-02  0.8156695E-01
         -1   -1    0    0    0  501 -0.00000000000E+00  0.00000000000E+00  0.13528628872E+04  0.13528628872E+04  0.00000000000E+00 0.  1.
          1   -1    0    0  501    0  0.00000000000E+00 -0.00000000000E+00 -0.20423605443E+04  0.20423605443E+04  0.00000000000E+00 0. -1.
         23    2    1    2    0    0  0.73532222798E+03 -0.10996811487E+04  0.48168867605E+03  0.14107675178E+04  0.90794278438E+02 0.  0.
        254    2    1    2    0    0 -0.73532222798E+03  0.10996811487E+04 -0.11711863331E+04  0.19844559137E+04  0.90354326889E+03 0.  0.
        -24    2    4    4    0    0 -0.93660471991E+03  0.83526210117E+03 -0.96745818610E+03  0.15865653604E+04  0.79518060146E+02 0.  0.
         24    2    4    4    0    0  0.20128249193E+03  0.26441904751E+03 -0.20372814697E+03  0.39789055328E+03  0.79872775590E+02 0.  0.
         13    1    3    3    0    0  0.53757934831E+02 -0.12172689110E+03  0.33058007138E+02  0.13711376083E+03  0.00000000000E+00 0. -1.
        -13    1    3    3    0    0  0.68156429315E+03 -0.97795425759E+03  0.44863066891E+03  0.12736537570E+04  0.00000000000E+00 0.  1.
          4    1    6    6  502    0  0.16974597257E+03  0.19869322721E+03 -0.12209267779E+03  0.28844291586E+03  0.00000000000E+00 0. -1.
          1    1    5    5  503    0 -0.89534588179E+03  0.77727895259E+03 -0.90060174550E+03  0.14889225373E+04  0.00000000000E+00 0. -1.
         -2    1    5    5    0  503 -0.41258838114E+02  0.57983148584E+02 -0.66856440605E+02  0.97642823047E+02  0.00000000000E+00 0.  1.
         -3    1    6    6    0  502  0.31536519355E+02  0.65725820303E+02 -0.81635469187E+02  0.10944763742E+03  0.00000000000E+00 0.  1.
<mgrwt>
<rscale>  0 0.33244752E+04</rscale>
<asrwt>0</asrwt>
<pdfrwt beam="1">  1        1 0.31420931E+00 0.33244752E+04</pdfrwt>
<pdfrwt beam="2">  1       -1 0.20813275E+00 0.33244752E+04</pdfrwt>
<totfact> 0.30567534E-01</totfact>
</mgrwt>
</event>
<event>
12    1  0.1504874E-007  0.1726974E+04  0.7818608E-02  0.8746128E-01
          3   -1    0    0  501    0  0.00000000000E+00  0.00000000000E+00  0.48291546521E+03  0.48291546521E+03  0.00000000000E+00 0. -1.
         -3   -1    0    0    0  501 -0.00000000000E+00 -0.00000000000E+00 -0.15439765451E+04  0.15439765451E+04  0.00000000000E+00 0.  1.
         23    2    1    2    0    0  0.24373296442E+03  0.57382447551E+03 -0.26774927344E+03  0.68448981299E+03  0.90312479871E+02 0.  0.
        254    2    1    2    0    0 -0.24373296442E+03 -0.57382447551E+03 -0.79331180646E+03  0.13424021973E+04  0.88544889775E+03 0.  0.
        -24    2    4    4    0    0  0.92514468046E+02 -0.60110910757E+03 -0.78492246287E+03  0.99615053868E+03  0.79508093879E+02 0.  0.
         24    2    4    4    0    0 -0.33624743247E+03  0.27284632069E+02 -0.83893435923E+01  0.34625165866E+03  0.77543813766E+02 0.  0.
         13    1    3    3    0    0  0.49850799085E+02  0.18537572562E+03 -0.11756146195E+03  0.22509988706E+03  0.00000000000E+00 0. -1.
        -13    1    3    3    0    0  0.19388216534E+03  0.38844874988E+03 -0.15018781149E+03  0.45938992593E+03  0.00000000000E+00 0.  1.
          4    1    6    6  502    0 -0.76028602797E+02  0.22404781638E+02  0.26688818020E+02  0.83633819061E+02  0.00000000000E+00 0. -1.
          1    1    5    5  503    0  0.76716636895E+02 -0.56589818198E+03 -0.70402661852E+03  0.90652064198E+03  0.00000000000E+00 0. -1.
         -2    1    5    5    0  503  0.15797831150E+02 -0.35210925592E+02 -0.80895844350E+02  0.89629896704E+02  0.00000000000E+00 0.  1.
         -3    1    6    6    0  502 -0.26021882967E+03  0.48798504316E+01 -0.35078161612E+02  0.26261783960E+03  0.00000000000E+00 0.  1.
<mgrwt>
<rscale>  0 0.17269744E+04</rscale>
<asrwt>0</asrwt>
<pdfrwt beam="1">  1        3 0.74294688E-01 0.17269744E+04</pdfrwt>
<pdfrwt beam="2">  1       -3 0.23753485E+00 0.17269744E+04</pdfrwt>
<totfact> 0.36848733E-01</totfact>
</mgrwt>
</event>
<event>
12    1  0.1504874E-007  0.2338122E+04  0.7818608E-02  0.8463040E-01
         -1   -1    0    0    0  501 -0.00000000000E+00  0.00000000000E+00  0.12567788215E+04  0.12567788215E+04  0.00000000000E+00 0.  1.
          1   -1    0    0  501    0  0.00000000000E+00 -0.00000000000E+00 -0.10874650468E+04  0.10874650468E+04  0.00000000000E+00 0. -1.
         23    2    1    2    0    0 -0.96451946240E+03 -0.14739171929E+03 -0.11773858206E+03  0.98658077941E+03  0.86354781731E+02 0.  0.
        254    2    1    2    0    0  0.96451946240E+03  0.14739171929E+03  0.28705235674E+03  0.13576630889E+04  0.89934859486E+03 0.  0.
        -24    2    4    4    0    0  0.17979807248E+03 -0.31719770745E+03 -0.60468867189E+02  0.37807205069E+03  0.79625744169E+02 0.  0.
         24    2    4    4    0    0  0.78472138992E+03  0.46458942675E+03  0.34752122393E+03  0.97959103817E+03  0.84832810467E+02 0.  0.
         13    1    3    3    0    0 -0.76312152396E+03 -0.14936834019E+03 -0.80481074590E+02  0.78175607752E+03  0.00000000000E+00 0. -1.
        -13    1    3    3    0    0 -0.20139793845E+03  0.19766208962E+01 -0.37257507475E+02  0.20482470189E+03  0.00000000000E+00 0.  1.
          4    1    6    6  502    0  0.21741876416E+03  0.15735775573E+03  0.13430630882E+03  0.30011758843E+03  0.00000000000E+00 0. -1.
          1    1    5    5  503    0  0.13662262351E+03 -0.16306626565E+03 -0.25778441696E+02  0.21429156844E+03  0.00000000000E+00 0. -1.
         -2    1    5    5    0  503  0.43175448970E+02 -0.15413144180E+03 -0.34690425494E+02  0.16378048225E+03  0.00000000000E+00 0.  1.
         -3    1    6    6    0  502  0.56730262576E+03  0.30723167102E+03  0.21321491511E+03  0.67947344974E+03  0.00000000000E+00 0.  1.
<mgrwt>
<rscale>  0 0.23381215E+04</rscale>
<asrwt>0</asrwt>
<pdfrwt beam="1">  1        1 0.16730231E+00 0.23381215E+04</pdfrwt>
<pdfrwt beam="2">  1       -1 0.19335059E+00 0.23381215E+04</pdfrwt>
<totfact> 0.19542975E+00</totfact>
</mgrwt>
</event>
<event>
12    1  0.1504874E-007  0.1615043E+04  0.7818608E-02  0.8811360E-01
          2   -1    0    0  501    0  0.00000000000E+00  0.00000000000E+00  0.15149166066E+04  0.15149166066E+04  0.00000000000E+00 0. -1.
         -2   -1    0    0    0  501 -0.00000000000E+00 -0.00000000000E+00 -0.43044660060E+03  0.43044660060E+03  0.00000000000E+00 0.  1.
         23    2    1    2    0    0  0.55209465988E+02  0.33299938071E+03 -0.14692492506E+03  0.37977181484E+03  0.93290005109E+02 0.  0.
        254    2    1    2    0    0 -0.55209465988E+02 -0.33299938071E+03  0.12313949311E+04  0.15655913924E+04  0.90598358646E+03 0.  0.
        -24    2    4    4    0    0  0.38499609388E+03 -0.33833399046E+03  0.68739375521E+03  0.86129392880E+03  0.81395182171E+02 0.  0.
         24    2    4    4    0    0 -0.44020555986E+03  0.53346097456E+01  0.54400117587E+03  0.70429746359E+03  0.79298454410E+02 0.  0.
         11    1    3    3    0    0  0.15668694409E+02  0.27700113311E+03 -0.93211510815E+02  0.29268331261E+03  0.00000000000E+00 0.  1.
        -11    1    3    3    0    0  0.39540771579E+02  0.55998247599E+02 -0.53713414245E+02  0.87088502232E+02  0.00000000000E+00 0. -1.
          4    1    6    6  502    0 -0.37578395633E+03  0.19480289527E+02  0.49666620172E+03  0.62311345631E+03  0.00000000000E+00 0. -1.
          1    1    5    5  503    0  0.32740323907E+03 -0.25250363850E+03  0.57950275185E+03  0.71188089440E+03  0.00000000000E+00 0. -1.
         -2    1    5    5    0  503  0.57592854806E+02 -0.85830351954E+02  0.10789100336E+03  0.14941303440E+03  0.00000000000E+00 0.  1.
         -3    1    6    6    0  502 -0.64421603537E+02 -0.14145679781E+02  0.47334974151E+02  0.81184007271E+02  0.00000000000E+00 0.  1.
<mgrwt>
<rscale>  0 0.16150427E+04</rscale>
<asrwt>0</asrwt>
<pdfrwt beam="1">  1        2 0.23306409E+00 0.16150427E+04</pdfrwt>
<pdfrwt beam="2">  1       -2 0.66222555E-01 0.16150427E+04</pdfrwt>
<totfact> 0.25006094E+01</totfact>
</mgrwt>
</event>
<event>
12    1  0.1504874E-007  0.5348064E+04  0.7818608E-02  0.7776949E-01
         -2   -1    0    0    0  501 -0.00000000000E+00  0.00000000000E+00  0.19321442895E+04  0.19321442895E+04  0.00000000000E+00 0.  1.
          2   -1    0    0  501    0  0.00000000000E+00 -0.00000000000E+00 -0.37007834944E+04  0.37007834944E+04  0.00000000000E+00 0. -1.
         23    2    1    2    0    0 -0.12924719801E+04  0.12764144879E+04 -0.28122498723E+04  0.33491138775E+04  0.89981418603E+02 0.  0.
        254    2    1    2    0    0  0.12924719801E+04 -0.12764144879E+04  0.10436106673E+04  0.22838139064E+04  0.90937614328E+03 0.  0.
        -24    2    4    4    0    0  0.70480348089E+03 -0.10927971767E+04  0.10336096932E+04  0.16630013631E+04  0.79189139029E+02 0.  0.
         24    2    4    4    0    0  0.58766849925E+03 -0.18361731122E+03  0.10000974027E+02  0.62081254330E+03  0.78984887457E+02 0.  0.
         11    1    3    3    0    0 -0.17995866199E+03  0.22069248420E+03 -0.46190521698E+03  0.54262945191E+03  0.00000000000E+00 0.  1.
        -11    1    3    3    0    0 -0.11125133181E+04  0.10557220037E+04 -0.23503446553E+04  0.28064844256E+04  0.00000000000E+00 0. -1.
          2    1    6    6  502    0  0.17013226739E+03 -0.19094293848E+02 -0.10882842932E+02  0.17154596100E+03  0.00000000000E+00 0. -1.
          1    1    5    5  503    0  0.28437966298E+03 -0.41512299621E+03  0.35435864279E+03  0.61544207073E+03  0.00000000000E+00 0. -1.
         -2    1    5    5    0  503  0.42042381790E+03 -0.67767418051E+03  0.67925105045E+03  0.10475592924E+04  0.00000000000E+00 0.  1.
         -1    1    6    6    0  502  0.41753623186E+03 -0.16452301738E+03  0.20883816959E+02  0.44926658230E+03  0.00000000000E+00 0.  1.
<mgrwt>
<rscale>  0 0.53480642E+04</rscale>
<asrwt>0</asrwt>
<pdfrwt beam="1">  1        2 0.56935130E+00 0.53480642E+04</pdfrwt>
<pdfrwt beam="2">  1       -2 0.29725297E+00 0.53480642E+04</pdfrwt>
<totfact> 0.13598662E-02</totfact>
</mgrwt>
</event>
<event>
12    1  0.1615629E-007  0.1289980E+04  0.7818608E-02  0.9037549E-01
          2   -1    0    0  501    0  0.00000000000E+00  0.00000000000E+00  0.11627868297E+04  0.11627868297E+04  0.00000000000E+00 0.  1.
         -2   -1    0    0    0  501 -0.00000000000E+00 -0.00000000000E+00 -0.35777182827E+03  0.35777182827E+03  0.00000000000E+00 0. -1.
         23    2    1    2    0    0 -0.86736392171E+02 -0.24117313222E+03  0.42039252278E+03  0.50045912995E+03  0.89676006331E+02 0.  0.
        254    2    1    2    0    0  0.86736392171E+02  0.24117313222E+03  0.38462247865E+03  0.10200995280E+04  0.90938491001E+03 0.  0.
        -24    2    4    4    0    0  0.34715399258E+03 -0.18443579098E+03  0.31287946063E+03  0.50879494924E+03  0.80288778334E+02 0.  0.
         24    2    4    4    0    0 -0.26041760041E+03  0.42560892320E+03  0.71743018017E+02  0.51130457878E+03  0.85586386364E+02 0.  0.
         13    1    3    3    0    0 -0.82797488402E+00  0.38847493198E-01 -0.43921728022E+01  0.44697017194E+01  0.00000000000E+00 0. -1.
        -13    1    3    3    0    0 -0.85908417287E+02 -0.24121197971E+03  0.42478469558E+03  0.49598942823E+03  0.00000000000E+00 0.  1.
          4    1    6    6  502    0 -0.18835054605E+03  0.33026806911E+03  0.19015571231E+02  0.38067639488E+03  0.00000000000E+00 0. -1.
          1    1    5    5  503    0  0.30094223971E+03 -0.15533215461E+03  0.30057555780E+03  0.45281340069E+03  0.00000000000E+00 0. -1.
         -2    1    5    5    0  503  0.46211752872E+02 -0.29103636372E+02  0.12303902840E+02  0.55981548556E+02  0.00000000000E+00 0.  1.
         -3    1    6    6    0  502 -0.72067054356E+02  0.95340854095E+02  0.52727446786E+02  0.13062818390E+03  0.00000000000E+00 0.  1.
<mgrwt>
<rscale>  0 0.12899804E+04</rscale>
<asrwt>0</asrwt>
<pdfrwt beam="1">  1        2 0.17889028E+00 0.12899804E+04</pdfrwt>
<pdfrwt beam="2">  1       -2 0.55041821E-01 0.12899804E+04</pdfrwt>
<totfact> 0.60713276E+01</totfact>
</mgrwt>
</event>
<event>
12    1  0.1504874E-007  0.1071571E+04  0.7818608E-02  0.9233353E-01
         -1   -1    0    0    0  501 -0.00000000000E+00  0.00000000000E+00  0.28998172621E+03  0.28998172621E+03  0.00000000000E+00 0.  1.
          1   -1    0    0  501    0  0.00000000000E+00 -0.00000000000E+00 -0.98994504033E+03  0.98994504033E+03  0.00000000000E+00 0. -1.
         23    2    1    2    0    0  0.11360374611E+03  0.46380474470E+02 -0.19365213931E+03  0.24675270556E+03  0.91262188751E+02 0.  0.
        254    2    1    2    0    0 -0.11360374611E+03 -0.46380474470E+02 -0.50631117481E+03  0.10331740610E+04  0.89221111572E+03 0.  0.
        -24    2    4    4    0    0  0.71591168964E+02  0.12678672427E+03  0.21038364002E+03  0.26839042840E+03  0.81067731840E+02 0.  0.
         24    2    4    4    0    0 -0.18519491508E+03 -0.17316719874E+03 -0.71669481482E+03  0.76478363259E+03  0.83417694695E+02 0.  0.
         11    1    3    3    0    0  0.24952363012E+02  0.58355272500E+02 -0.79868261549E+02  0.10201420220E+03  0.00000000000E+00 0. -1.
        -11    1    3    3    0    0  0.88651383100E+02 -0.11974798030E+02 -0.11378387776E+03  0.14473850335E+03  0.00000000000E+00 0.  1.
          2    1    6    6  502    0 -0.16434927063E+03 -0.11916586732E+03 -0.48099353417E+03  0.52207850617E+03  0.00000000000E+00 0. -1.
          3    1    5    5  503    0  0.68949147012E+02  0.13060042339E+03  0.21564989673E+03  0.26137202112E+03  0.00000000000E+00 0. -1.
         -2    1    5    5    0  503  0.26420219525E+01 -0.38136991175E+01 -0.52662567172E+01  0.70184072815E+01  0.00000000000E+00 0.  1.
         -1    1    6    6    0  502 -0.20845644446E+02 -0.54001331420E+02 -0.23570128066E+03  0.24270512642E+03  0.00000000000E+00 0.  1.
<mgrwt>
<rscale>  0 0.10715708E+04</rscale>
<asrwt>0</asrwt>
<pdfrwt beam="1">  1        1 0.15229924E+00 0.10715708E+04</pdfrwt>
<pdfrwt beam="2">  1       -1 0.44612573E-01 0.10715708E+04</pdfrwt>
<totfact> 0.76512823E+01</totfact>
</mgrwt>
</event>
<event>
12    1  0.1504874E-007  0.1981541E+04  0.7818608E-02  0.8615300E-01
          1   -1    0    0  501    0  0.00000000000E+00  0.00000000000E+00  0.20065851297E+04  0.20065851297E+04  0.00000000000E+00 0. -1.
         -1   -1    0    0    0  501 -0.00000000000E+00 -0.00000000000E+00 -0.48920254945E+03  0.48920254945E+03  0.00000000000E+00 0.  1.
         23    2    1    2    0    0 -0.30124484266E+03 -0.45754337256E+03 -0.10648625399E+03  0.56603830022E+03  0.94687074215E+02 0.  0.
        254    2    1    2    0    0  0.30124484266E+03  0.45754337256E+03  0.16238688342E+04  0.19297493789E+04  0.88706723627E+03 0.  0.
        -24    2    4    4    0    0 -0.90417836600E+02  0.60321964349E+03  0.89747615392E+03  0.10879572860E+04  0.78347213256E+02 0.  0.
         24    2    4    4    0    0  0.39166267926E+03 -0.14567627093E+03  0.72639268030E+03  0.84179209292E+03  0.79664116578E+02 0.  0.
         13    1    3    3    0    0 -0.12929912806E+02 -0.76367125571E+02 -0.23605609775E+02  0.80971262346E+02  0.00000000000E+00 0. -1.
        -13    1    3    3    0    0 -0.28831492985E+03 -0.38117624699E+03 -0.82880644217E+02  0.48506703787E+03  0.00000000000E+00 0.  1.
          4    1    6    6  502    0  0.34528074500E+03 -0.15416691501E+03  0.65185051024E+03  0.75358829493E+03  0.00000000000E+00 0. -1.
          1    1    5    5  503    0 -0.90047175347E+01  0.31514014446E+03  0.47837481262E+03  0.57291959029E+03  0.00000000000E+00 0. -1.
         -2    1    5    5    0  503 -0.81413119066E+02  0.28807949903E+03  0.41910134130E+03  0.51503769570E+03  0.00000000000E+00 0.  1.
         -3    1    6    6    0  502  0.46381934257E+02  0.84906440857E+01  0.74542170057E+02  0.88203797987E+02  0.00000000000E+00 0.  1.
<mgrwt>
<rscale>  0 0.19815414E+04</rscale>
<asrwt>0</asrwt>
<pdfrwt beam="1">  1        1 0.30870540E+00 0.19815414E+04</pdfrwt>
<pdfrwt beam="2">  1       -1 0.75261932E-01 0.19815414E+04</pdfrwt>
<totfact> 0.48636742E+00</totfact>
</mgrwt>
</event>
<event>
12    1  0.1504874E-007  0.1581302E+04  0.7818608E-02  0.8832118E-01
         -2   -1    0    0    0  501 -0.00000000000E+00  0.00000000000E+00  0.28253885012E+03  0.28253885012E+03  0.00000000000E+00 0.  1.
          2   -1    0    0  501    0  0.00000000000E+00 -0.00000000000E+00 -0.22125423648E+04  0.22125423648E+04  0.00000000000E+00 0. -1.
         23    2    1    2    0    0  0.34144988472E+03  0.37148598502E+03 -0.92046487280E+03  0.10536908657E+04  0.91755096043E+02 0.  0.
        254    2    1    2    0    0 -0.34144988472E+03 -0.37148598502E+03 -0.10095386419E+04  0.14413903492E+04  0.89657571258E+03 0.  0.
        -24    2    4    4    0    0 -0.19764293643E+03 -0.12244004442E+03  0.11984703697E+03  0.27322792480E+03  0.78967663143E+02 0.  0.
         24    2    4    4    0    0 -0.14380694829E+03 -0.24904594060E+03 -0.11293856788E+04  0.11681624244E+04  0.79919454507E+02 0.  0.
         13    1    3    3    0    0  0.32889254042E+03  0.35626331163E+03 -0.83130270903E+03  0.96237105339E+03  0.00000000000E+00 0. -1.
        -13    1    3    3    0    0  0.12557344303E+02  0.15222673398E+02 -0.89162163763E+02  0.91319812354E+02  0.00000000000E+00 0.  1.
          4    1    6    6  502    0 -0.73602772106E+01 -0.32570770358E+02 -0.25265371191E+03  0.25485079342E+03  0.00000000000E+00 0. -1.
          1    1    5    5  503    0 -0.16509537698E+03 -0.11266926891E+03  0.67788415516E+02  0.21105951041E+03  0.00000000000E+00 0. -1.
         -2    1    5    5    0  503 -0.32547559453E+02 -0.97707755095E+01  0.52058621451E+02  0.62168414390E+02  0.00000000000E+00 0.  1.
         -3    1    6    6    0  502 -0.13644667108E+03 -0.21647517025E+03 -0.87673196693E+03  0.91331163095E+03  0.00000000000E+00 0.  1.
<mgrwt>
<rscale>  0 0.15813022E+04</rscale>
<asrwt>0</asrwt>
<pdfrwt beam="1">  1        2 0.34039113E+00 0.15813022E+04</pdfrwt>
<pdfrwt beam="2">  1       -2 0.43467516E-01 0.15813022E+04</pdfrwt>
<totfact> 0.24506053E+01</totfact>
</mgrwt>
</event>
<event>
12    1  0.1504874E-007  0.2242689E+04  0.7818608E-02  0.8500867E-01
          2   -1    0    0  501    0  0.00000000000E+00  0.00000000000E+00  0.97926771163E+03  0.97926771163E+03  0.00000000000E+00 0. -1.
         -2   -1    0    0    0  501 -0.00000000000E+00 -0.00000000000E+00 -0.12840346811E+04  0.12840346811E+04  0.00000000000E+00 0.  1.
         23    2    1    2    0    0  0.54783468720E+03  0.31353985987E+03  0.56347809639E+03  0.85101118443E+03  0.91007596908E+02 0.  0.
        254    2    1    2    0    0 -0.54783468720E+03 -0.31353985987E+03 -0.86824506587E+03  0.14122912083E+04  0.91776188329E+03 0.  0.
        -24    2    4    4    0    0  0.17435038791E+03  0.15549510376E+03 -0.23121367663E+03  0.33822486126E+03  0.79746520009E+02 0.  0.
         24    2    4    4    0    0 -0.72218507511E+03 -0.46903496363E+03 -0.63703138924E+03  0.10740663470E+04  0.79148260651E+02 0.  0.
         11    1    3    3    0    0  0.43902013365E+03  0.25292920562E+03  0.40024610038E+03  0.64568475410E+03  0.00000000000E+00 0. -1.
        -11    1    3    3    0    0  0.10881455355E+03  0.60610654244E+02  0.16323199601E+03  0.20532643033E+03  0.00000000000E+00 0.  1.
          2    1    6    6  502    0 -0.42407869359E+03 -0.24118836673E+03 -0.39314208436E+03  0.62655826951E+03  0.00000000000E+00 0. -1.
          3    1    5    5  503    0  0.12268651323E+03  0.58874352081E+02 -0.11136991612E+03  0.17584489779E+03  0.00000000000E+00 0. -1.
         -4    1    5    5    0  503  0.51663874671E+02  0.96620751682E+02 -0.11984376051E+03  0.16237996347E+03  0.00000000000E+00 0.  1.
         -1    1    6    6    0  502 -0.29810638152E+03 -0.22784659690E+03 -0.24388930488E+03  0.44750807753E+03  0.00000000000E+00 0.  1.
<mgrwt>
<rscale>  0 0.22426892E+04</rscale>
<asrwt>0</asrwt>
<pdfrwt beam="1">  1        2 0.15065657E+00 0.22426892E+04</pdfrwt>
<pdfrwt beam="2">  1       -2 0.19754380E+00 0.22426892E+04</pdfrwt>
<totfact> 0.32658084E+00</totfact>
</mgrwt>
</event>
<event>
12    1  0.1504874E-007  0.2297497E+04  0.7818608E-02  0.8478909E-01
         -4   -1    0    0    0  501 -0.00000000000E+00  0.00000000000E+00  0.64956239062E+03  0.64956239062E+03  0.00000000000E+00 0.  1.
          4   -1    0    0  501    0  0.00000000000E+00 -0.00000000000E+00 -0.20315577822E+04  0.20315577822E+04  0.00000000000E+00 0. -1.
         23    2    1    2    0    0  0.79265535831E+03  0.16322900899E+03  0.34432758060E+02  0.81506056577E+03  0.90509030589E+02 0.  0.
        254    2    1    2    0    0 -0.79265535831E+03 -0.16322900899E+03 -0.14164281497E+04  0.18660596071E+04  0.90607037673E+03 0.  0.
        -24    2    4    4    0    0 -0.80143703347E+03 -0.31244323337E+03 -0.14554297948E+04  0.16924854419E+04  0.79429154994E+02 0.  0.
         24    2    4    4    0    0  0.87816751568E+01  0.14921422438E+03  0.39001645153E+02  0.17357416519E+03  0.79150868115E+02 0.  0.
         13    1    3    3    0    0  0.58865282779E+02  0.31426946511E+02 -0.13142368761E+02  0.68011001612E+02  0.00000000000E+00 0. -1.
        -13    1    3    3    0    0  0.73379007553E+03  0.13180206248E+03  0.47575126821E+02  0.74704956416E+03  0.00000000000E+00 0.  1.
          4    1    6    6  502    0  0.21314021874E+02  0.11093371321E+03  0.60258104098E+02  0.12802974407E+03  0.00000000000E+00 0. -1.
          1    1    5    5  503    0 -0.71559844712E+03 -0.30039167056E+03 -0.13331996779E+04  0.15426398395E+04  0.00000000000E+00 0. -1.
         -2    1    5    5    0  503 -0.85838586347E+02 -0.12051562807E+02 -0.12223011690E+03  0.14984560237E+03  0.00000000000E+00 0.  1.
         -3    1    6    6    0  502 -0.12532346717E+02  0.38280511162E+02 -0.21256458945E+02  0.45544421128E+02  0.00000000000E+00 0.  1.
<mgrwt>
<rscale>  0 0.22974974E+04</rscale>
<asrwt>0</asrwt>
<pdfrwt beam="1">  1        4 0.31254734E+00 0.22974974E+04</pdfrwt>
<pdfrwt beam="2">  1       -4 0.99932678E-01 0.22974974E+04</pdfrwt>
<totfact> 0.38633456E-02</totfact>
</mgrwt>
</event>
<event>
12    1  0.1504874E-007  0.1951196E+04  0.7818608E-02  0.8629784E-01
         -2   -1    0    0    0  501 -0.00000000000E+00  0.00000000000E+00  0.58658392444E+03  0.58658392444E+03  0.00000000000E+00 0.  1.
          2   -1    0    0  501    0  0.00000000000E+00 -0.00000000000E+00 -0.16225999023E+04  0.16225999023E+04  0.00000000000E+00 0. -1.
         23    2    1    2    0    0 -0.56439973400E+03  0.36970748937E+03 -0.16137264451E+02  0.68108686784E+03  0.91587241496E+02 0.  0.
        254    2    1    2    0    0  0.56439973400E+03 -0.36970748937E+03 -0.10198787134E+04  0.15280969589E+04  0.91634984491E+03 0.  0.
        -24    2    4    4    0    0  0.42217726864E+03 -0.65826344402E+03 -0.58326188185E+03  0.97889961660E+03  0.80657477471E+02 0.  0.
         24    2    4    4    0    0  0.14222246536E+03  0.28855595465E+03 -0.43661683154E+03  0.54919734228E+03  0.86554575602E+02 0.  0.
         11    1    3    3    0    0 -0.27201919442E+03  0.15420796250E+03 -0.48512416860E+02  0.31643007509E+03  0.00000000000E+00 0. -1.
        -11    1    3    3    0    0 -0.29238053958E+03  0.21549952686E+03  0.32375152409E+02  0.36465679275E+03  0.00000000000E+00 0.  1.
          2    1    6    6  502    0  0.76499274661E+02  0.71246029353E+02 -0.16320287362E+03  0.19381257359E+03  0.00000000000E+00 0. -1.
          3    1    5    5  503    0  0.18566572610E+03 -0.28353575438E+03 -0.20356590977E+03  0.39535220434E+03  0.00000000000E+00 0. -1.
         -4    1    5    5    0  503  0.23651154254E+03 -0.37472768964E+03 -0.37969597207E+03  0.58354741225E+03  0.00000000000E+00 0.  1.
         -1    1    6    6    0  502  0.65723190703E+02  0.21730992530E+03 -0.27341395792E+03  0.35538476869E+03  0.00000000000E+00 0.  1.
<mgrwt>
<rscale>  0 0.19511955E+04</rscale>
<asrwt>0</asrwt>
<pdfrwt beam="1">  1        2 0.24963075E+00 0.19511955E+04</pdfrwt>
<pdfrwt beam="2">  1       -2 0.90243682E-01 0.19511955E+04</pdfrwt>
<totfact> 0.10610820E+01</totfact>
</mgrwt>
</event>
<event>
12    1  0.1504874E-007  0.1546453E+04  0.7818608E-02  0.8854136E-01
         -2   -1    0    0    0  501 -0.00000000000E+00  0.00000000000E+00  0.77636777837E+03  0.77636777837E+03  0.00000000000E+00 0.  1.
          2   -1    0    0  501    0  0.00000000000E+00 -0.00000000000E+00 -0.77009809770E+03  0.77009809770E+03  0.00000000000E+00 0. -1.
         23    2    1    2    0    0  0.19125344312E+03 -0.32785500505E+03  0.33605214747E+03  0.51501505512E+03  0.90789191743E+02 0.  0.
        254    2    1    2    0    0 -0.19125344312E+03  0.32785500505E+03 -0.32978246681E+03  0.10314508209E+04  0.90059288071E+03 0.  0.
        -24    2    4    4    0    0  0.50963755498E+02  0.45903354357E+03 -0.51065112194E+03  0.69306406647E+03  0.79146278508E+02 0.  0.
         24    2    4    4    0    0 -0.24221719862E+03 -0.13117853851E+03  0.18086865513E+03  0.33838675448E+03  0.76909979336E+02 0.  0.
         11    1    3    3    0    0  0.97755469139E+02 -0.10468783466E+03  0.86030268538E+02  0.16708345692E+03  0.00000000000E+00 0. -1.
        -11    1    3    3    0    0  0.93497973985E+02 -0.22316717040E+03  0.25002187894E+03  0.34793159820E+03  0.00000000000E+00 0.  1.
          2    1    6    6  502    0 -0.13703698751E+03 -0.33127019618E+02  0.10512235007E+03  0.17586143369E+03  0.00000000000E+00 0. -1.
          3    1    5    5  503    0  0.56323571684E+02  0.17525413984E+03 -0.21920564376E+03  0.28624722272E+03  0.00000000000E+00 0. -1.
         -2    1    5    5    0  503 -0.53598161869E+01  0.28377940373E+03 -0.29144547819E+03  0.40681684376E+03  0.00000000000E+00 0.  1.
         -1    1    6    6    0  502 -0.10518021111E+03 -0.98051518893E+02  0.75746305063E+02  0.16252532079E+03  0.00000000000E+00 0.  1.
<mgrwt>
<rscale>  0 0.15464532E+04</rscale>
<asrwt>0</asrwt>
<pdfrwt beam="1">  1        2 0.11847663E+00 0.15464532E+04</pdfrwt>
<pdfrwt beam="2">  1       -2 0.11944120E+00 0.15464532E+04</pdfrwt>
<totfact> 0.18736399E+01</totfact>
</mgrwt>
</event>
<event>
12    1  0.1504874E-007  0.1479875E+04  0.7818608E-02  0.8897947E-01
          1   -1    0    0  501    0  0.00000000000E+00  0.00000000000E+00  0.10514588308E+04  0.10514588308E+04  0.00000000000E+00 0. -1.
         -1   -1    0    0    0  501 -0.00000000000E+00 -0.00000000000E+00 -0.52071252160E+03  0.52071252160E+03  0.00000000000E+00 0.  1.
         23    2    1    2    0    0 -0.37299282775E+03 -0.15758011723E+03  0.39977507860E+03  0.57678081465E+03  0.94344325655E+02 0.  0.
        254    2    1    2    0    0  0.37299282775E+03  0.15758011723E+03  0.13097123056E+03  0.99539053770E+03  0.89982982636E+03 0.  0.
        -24    2    4    4    0    0 -0.13617410176E+03  0.30075346162E+03 -0.17188358719E+03  0.38037588790E+03  0.78395266940E+02 0.  0.
         24    2    4    4    0    0  0.50916692951E+03 -0.14317334439E+03  0.30285481775E+03  0.61501464980E+03  0.82294654666E+02 0.  0.
         11    1    3    3    0    0 -0.12823708173E+03 -0.78068236510E+02  0.94031797123E+02  0.17714789740E+03  0.00000000000E+00 0.  1.
        -11    1    3    3    0    0 -0.24475574601E+03 -0.79511880720E+02  0.30574328147E+03  0.39963291725E+03  0.00000000000E+00 0. -1.
          2    1    6    6  502    0  0.38806665560E+03 -0.98658736875E+02  0.26642166150E+03  0.48094675097E+03  0.00000000000E+00 0. -1.
          3    1    5    5  503    0 -0.14563155859E+03  0.29088802310E+03 -0.16821879385E+03  0.36622664491E+03  0.00000000000E+00 0. -1.
         -4    1    5    5    0  503  0.94574568217E+01  0.98654385209E+01 -0.36647933349E+01  0.14149242981E+02  0.00000000000E+00 0.  1.
         -3    1    6    6    0  502  0.12110027391E+03 -0.44514607519E+02  0.36433156247E+02  0.13406789883E+03  0.00000000000E+00 0.  1.
<mgrwt>
<rscale>  0 0.14798754E+04</rscale>
<asrwt>0</asrwt>
<pdfrwt beam="1">  1        1 0.16176290E+00 0.14798754E+04</pdfrwt>
<pdfrwt beam="2">  1       -1 0.80109619E-01 0.14798754E+04</pdfrwt>
<totfact> 0.20806123E+01</totfact>
</mgrwt>
</event>
<event>
12    1  0.1504874E-007  0.1409044E+04  0.7818608E-02  0.8947298E-01
         -2   -1    0    0    0  501 -0.00000000000E+00  0.00000000000E+00  0.29606920150E+03  0.29606920150E+03  0.00000000000E+00 0.  1.
          2   -1    0    0  501    0  0.00000000000E+00 -0.00000000000E+00 -0.16764710761E+04  0.16764710761E+04  0.00000000000E+00 0. -1.
         23    2    1    2    0    0 -0.65003546671E+02 -0.40426144431E+03 -0.37810127520E+03  0.56511206983E+03  0.93478878468E+02 0.  0.
        254    2    1    2    0    0  0.65003546671E+02  0.40426144431E+03 -0.10023005994E+04  0.14074282077E+04  0.89921904564E+03 0.  0.
        -24    2    4    4    0    0 -0.14543745346E+03  0.62957562433E+03 -0.53880130365E+03  0.84503304706E+03  0.79097953121E+02 0.  0.
         24    2    4    4    0    0  0.21044100013E+03 -0.22531418002E+03 -0.46349929571E+03  0.56239516069E+03  0.80030152973E+02 0.  0.
         11    1    3    3    0    0 -0.21132568464E+02 -0.25655865422E+03 -0.17987045627E+03  0.31404189138E+03  0.00000000000E+00 0. -1.
        -11    1    3    3    0    0 -0.43870978207E+02 -0.14770279009E+03 -0.19823081893E+03  0.25107017845E+03  0.00000000000E+00 0.  1.
          2    1    6    6  502    0  0.19359023039E+03 -0.18374257399E+03 -0.34856232164E+03  0.43901503718E+03  0.00000000000E+00 0. -1.
          3    1    5    5  503    0 -0.15339103382E+03  0.61895135943E+03 -0.52659533958E+03  0.82700196267E+03  0.00000000000E+00 0. -1.
         -4    1    5    5    0  503  0.79535803635E+01  0.10624264901E+02 -0.12205964076E+02  0.18031084391E+02  0.00000000000E+00 0.  1.
         -1    1    6    6    0  502  0.16850769737E+02 -0.41571606028E+02 -0.11493697407E+03  0.12338012351E+03  0.00000000000E+00 0.  1.
<mgrwt>
<rscale>  0 0.14090443E+04</rscale>
<asrwt>0</asrwt>
<pdfrwt beam="1">  1        2 0.25791863E+00 0.14090443E+04</pdfrwt>
<pdfrwt beam="2">  1       -2 0.45549107E-01 0.14090443E+04</pdfrwt>
<totfact> 0.44928148E+01</totfact>
</mgrwt>
</event>
<event>
12    1  0.1504874E-007  0.1363803E+04  0.7818608E-02  0.8980445E-01
         -2   -1    0    0    0  501 -0.00000000000E+00  0.00000000000E+00  0.18250612111E+04  0.18250612111E+04  0.00000000000E+00 0.  1.
          2   -1    0    0  501    0  0.00000000000E+00 -0.00000000000E+00 -0.25478037809E+03  0.25478037809E+03  0.00000000000E+00 0. -1.
         23    2    1    2    0    0 -0.14934392192E+03 -0.59065242713E+02 -0.74126290360E+02  0.19867622341E+03  0.90472232850E+02 0.  0.
        254    2    1    2    0    0  0.14934392192E+03  0.59065242713E+02  0.16444071234E+04  0.18811653658E+04  0.89939759624E+03 0.  0.
        -24    2    4    4    0    0  0.40720389042E+03  0.22942121328E+03  0.14026985133E+04  0.14807056904E+04  0.80480563741E+02 0.  0.
         24    2    4    4    0    0 -0.25785996850E+03 -0.17035597057E+03  0.24170861012E+03  0.40045967534E+03  0.80199621641E+02 0.  0.
         13    1    3    3    0    0 -0.13609387169E+02 -0.36030389292E+02 -0.42615151228E+02  0.57440886883E+02  0.00000000000E+00 0.  1.
        -13    1    3    3    0    0 -0.13573453475E+03 -0.23034853421E+02 -0.31511139132E+02  0.14123533653E+03  0.00000000000E+00 0. -1.
          4    1    6    6  502    0 -0.25544699390E+03 -0.15657856886E+03  0.21023329598E+03  0.36601646637E+03  0.00000000000E+00 0. -1.
          3    1    5    5  503    0  0.34528053296E+03  0.19817291936E+03  0.10905487916E+04  0.11609426425E+04  0.00000000000E+00 0. -1.
         -2    1    5    5    0  503  0.61923357456E+02  0.31248293916E+02  0.31214972169E+03  0.31976304793E+03  0.00000000000E+00 0.  1.
         -3    1    6    6    0  502 -0.24129746004E+01 -0.13777401703E+02  0.31475314139E+02  0.34443208972E+02  0.00000000000E+00 0.  1.
<mgrwt>
<rscale>  0 0.13638032E+04</rscale>
<asrwt>0</asrwt>
<pdfrwt beam="1">  1        2 0.39196983E-01 0.13638032E+04</pdfrwt>
<pdfrwt beam="2">  1       -2 0.28077864E+00 0.13638032E+04</pdfrwt>
<totfact> 0.53756763E+00</totfact>
</mgrwt>
</event>
<event>
12    1  0.1504874E-007  0.1852104E+04  0.7818608E-02  0.8679072E-01
          1   -1    0    0  501    0  0.00000000000E+00  0.00000000000E+00  0.10344609380E+04  0.10344609380E+04  0.00000000000E+00 0. -1.
         -1   -1    0    0    0  501 -0.00000000000E+00 -0.00000000000E+00 -0.82900388206E+03  0.82900388206E+03  0.00000000000E+00 0.  1.
         23    2    1    2    0    0  0.52496985564E+03 -0.28586789322E+03 -0.30830536015E+03  0.67872613238E+03  0.91121709691E+02 0.  0.
        254    2    1    2    0    0 -0.52496985564E+03  0.28586789322E+03  0.51376241610E+03  0.11847386877E+04  0.88449993569E+03 0.  0.
        -24    2    4    4    0    0 -0.39271744963E+02 -0.28496215950E+03  0.23636550042E+03  0.38156295387E+03  0.83522067027E+02 0.  0.
         24    2    4    4    0    0 -0.48569811068E+03  0.57083005272E+03  0.27739691568E+03  0.80317573382E+03  0.79953778967E+02 0.  0.
         13    1    3    3    0    0  0.52967683691E+02 -0.24858892110E+02 -0.21942457067E+01  0.58552154075E+02  0.00000000000E+00 0. -1.
        -13    1    3    3    0    0  0.47200217195E+03 -0.26100900111E+03 -0.30611111444E+03  0.62017397830E+03  0.00000000000E+00 0.  1.
          4    1    6    6  502    0 -0.38851218670E+03  0.45897262704E+03  0.18761261874E+03  0.62991752341E+03  0.00000000000E+00 0. -1.
          1    1    5    5  503    0 -0.46961359622E+02 -0.18866116552E+03  0.11299994535E+03  0.22487194650E+03  0.00000000000E+00 0. -1.
         -2    1    5    5    0  503  0.76896146586E+01 -0.96300993986E+02  0.12336555507E+03  0.15669100738E+03  0.00000000000E+00 0.  1.
         -3    1    6    6    0  502 -0.97185923978E+02  0.11185742568E+03  0.89784296945E+02  0.17325821042E+03  0.00000000000E+00 0.  1.
<mgrwt>
<rscale>  0 0.18521038E+04</rscale>
<asrwt>0</asrwt>
<pdfrwt beam="1">  1        1 0.15914784E+00 0.18521038E+04</pdfrwt>
<pdfrwt beam="2">  1       -1 0.12753906E+00 0.18521038E+04</pdfrwt>
<totfact> 0.71129874E+00</totfact>
</mgrwt>
</event>
